FOO
138240
    1MOL0     O    1   5.037   2.263   4.628  0.7965  0.2237  1.0067
    1MOL0     C    2   5.086   2.344   4.547 -0.3326 -0.9638  0.1755
    1MOL0     O    3   5.143   2.469   4.582 -0.2489  0.3468  0.1636
    1MOL0     C    4   5.173   2.492   4.715  0.5579  0.2441  1.1468
    1MOL0     C    5   5.232   2.396   4.813  0.5304 -1.1748 -0.4659
    1MOL0     C    6   5.267   2.454   4.930 -1.0673  0.1085 -0.2831
    1MOL0     C    7   5.273   2.591   4.957  0.2124  0.4059  0.6531
    1MOL0     O    8   5.324   2.635   5.083 -0.7654 -0.5811 -0.2636
    1MOL0     C    9   5.266   2.752   5.136  0.0476 -0.1689 -0.0213
    1MOL0     C   10   5.294   2.736   5.284  0.5923  0.7334  0.3731
    1MOL0     C   11   5.237   2.833   5.393  0.2702  0.0126  0.0990
    1MOL0     C   12   5.282   2.973   5.373  0.4133  0.0490  0.1543
    1MOL0     C   13   5.210   3.064   5.470  0.4782 -0.4740 -0.4855
    1MOL0     C   14   5.180   3.199   5.411  0.3286 -0.1446 -0.7825
    1MOL0     C   15   5.121   3.287   5.523 -0.0188  0.9574  0.2949
    1MOL0     C   16   5.112   3.435   5.477 -0.3837 -0.1014 -0.2535
    1MOL0     N   17   5.235   3.509   5.444 -0.3310  0.3799 -0.4015
    1MOL0     C   18   5.346   3.521   5.528  0.2316 -0.1451 -0.1479
    1MOL0     C   19   5.445   3.560   5.439 -0.4685 -0.0849  0.0938
    1MOL0     C   20   5.591   3.587   5.480 -0.0000 -0.4761  0.1330
    1MOL0     C   21   5.648   3.720   5.439 -0.4908  0.1639  0.1681
    1MOL0     C   22   5.803   3.734   5.451 -0.3070  0.5583 -0.8114
    1MOL0     C   23   5.849   3.748   5.585  0.3836 -0.4531 -0.5947
    1MOL0     O   24   5.990   3.744   5.569 -0.3356 -0.7303 -0.1577
    1MOL0     C   25   6.054   3.865   5.529 -0.3877  0.7071  0.6405
    1MOL0     C   26   6.131   3.853   5.412 -0.3189 -0.1396  0.3921
    1MOL0     C   27   6.206   3.951   5.365 -0.3440  0.2799  0.0247
    1MOL0     C   28   6.312   3.900   5.256 -0.5661 -0.4758 -0.3541
    1MOL0     C   29   6.198   4.081   5.420  0.0815 -0.0334  0.4766
    1MOL0     C   30   6.266   4.209   5.375 -0.1146 -1.2965 -0.2032
    1MOL0     O   31   6.221   4.331   5.418  0.1977  0.0808  0.1052
    1MOL0     C   32   6.285   4.445   5.401 -0.2170 -0.7070  0.3842
    1MOL0     C   33   6.228   4.552   5.477 -0.5363  0.3706  0.0904
    1MOL0     C   34   6.284   4.678   5.484 -0.3005  0.3887  0.3864
    1MOL0     C   35   6.406   4.710   5.415 -0.9059 -0.3278  0.2711
    1MOL0     O   36   6.468   4.831   5.437  0.1601  0.0397 -0.1979
    1MOL0     C   37   6.612   4.849   5.411 -0.1230  0.0265  0.4194
    1MOL0     C   38   6.636   4.937   5.290 -0.5195 -0.1381 -0.0695
    1MOL0     C   39   6.574   5.084   5.313 -0.3175  0.7431 -0.6346
    1MOL0     C   40   6.612   5.174   5.195 -0.4849  0.6105  0.5741
    1MOL0     C   41   6.540   5.311   5.197 -0.0223 -0.6067 -0.2953
    1MOL0     C   42   6.391   5.301   5.213 -0.4902 -0.8216  0.3992
    1MOL0     C   43   6.341   5.445   5.212 -0.7474  0.4958  0.1267
    1MOL0     C   44   6.350   5.510   5.344 -0.7946  0.8198 -1.0101
    1MOL0    Cl   45   6.228   5.642   5.366  0.4439  0.0068 -0.0299
    1MOL0     C   46   6.468   4.608   5.334 -0.2774 -0.6259  0.4151
    1MOL0     C   47   6.406   4.478   5.324 -0.0011 -0.3501 -0.3198
    1MOL0     O   48   6.373   4.192   5.319  0.3029 -0.1477  0.3581
    1MOL0     C   49   6.120   4.096   5.531  0.3824 -0.1261  0.9874
    1MOL0     C   50   6.049   3.987   5.585 -0.0800  1.1982  0.1956
    1MOL0     N   51   5.401   3.571   5.306 -0.0420 -0.1981  0.3953
    1MOL0     N   52   5.279   3.531   5.317 -0.2485 -0.7546 -0.2512
    1MOL0     C   53   5.224   2.675   4.863 -0.2557  0.4381 -0.4217
    1MOL0     C   54   5.170   2.628   4.747 -1.2898  0.6959  0.1782
    1MOL0     C   55   5.074   2.311   4.400  0.3463 -0.3402  0.9834
    1MOL0     C   56   5.145   2.383   4.297  0.5863 -0.1331 -0.0189
    1MOL0     C   57   5.124   2.346   4.157 -0.2854 -0.1708  0.2904
    1MOL0     C   58   5.041   2.246   4.118  0.3048  0.5591  0.5772
    1MOL0     O   59   4.990   2.225   3.990 -0.3302  0.4611  0.4901
    1MOL0     C   60   5.028   2.310   3.878  0.7755  0.3673 -0.2501
    1MOL0     C   61   5.161   2.255   3.813 -0.1376 -0.5653  1.0538
    1MOL0     C   62   5.215   2.318   3.684 -0.2055  0.4895  0.2818
    1MOL0     C   63   5.134   2.329   3.563  0.9845  0.3957 -0.0758
    1MOL0     C   64   5.048   2.212   3.542 -0.1305 -0.1890  0.1366
    1MOL0     C   65   4.970   2.119   3.524 -0.0368  0.0053  0.3073
    1MOL0     C   66   4.988   2.163   4.217 -0.0518 -0.3898 -0.0875
    1MOL0     C   67   4.993   2.204   4.352  0.2116  0.3711  0.1489
    1MOL0     H   68   5.257   2.291   4.800  3.5250 -0.5047 -0.9145
    1MOL0     H   69   5.308   2.394   5.011 -0.8670  0.1359 -0.3641
    1MOL0     H   70   5.309   2.845   5.098 -2.0299  1.2268  0.8587
    1MOL0     H   71   5.157   2.746   5.123  0.4382 -0.2137 -4.8646
    1MOL0     H   72   5.257   2.635   5.304 -0.8542  0.4884 -2.8946
    1MOL0     H   73   5.403   2.740   5.294  0.7293 -1.6707  0.4347
    1MOL0     H   74   5.128   2.831   5.388  0.1190 -1.0637  2.3677
    1MOL0     H   75   5.271   2.806   5.493  1.7045  1.6315  0.0808
    1MOL0     H   76   5.388   2.997   5.384  0.3737  0.5779 -0.5679
    1MOL0     H   77   5.262   3.014   5.273  1.5766  2.7317  0.9256
    1MOL0     H   78   5.118   3.022   5.511 -1.3809  1.7235 -2.1224
    1MOL0     H   79   5.270   3.068   5.562 -2.6809 -2.2812  1.8399
    1MOL0     H   80   5.278   3.239   5.385  0.0867  0.2795 -1.0385
    1MOL0     H   81   5.113   3.195   5.325  0.0267  1.2327 -0.6328
    1MOL0     H   82   5.020   3.252   5.544 -0.1698 -1.1531 -3.1780
    1MOL0     H   83   5.194   3.272   5.604  0.6763  0.1889 -0.4600
    1MOL0     H   84   5.057   3.489   5.555 -0.0436 -2.3213  1.6529
    1MOL0     H   85   5.038   3.439   5.397 -1.2849 -0.1839  0.5604
    1MOL0     H   86   5.367   3.488   5.629  1.7365  2.1390  0.3445
    1MOL0     H   87   5.593   3.581   5.589 -0.2408 -0.5792  0.1336
    1MOL0     H   88   5.655   3.507   5.442  3.0815  2.2895 -0.9148
    1MOL0     H   89   5.596   3.802   5.489 -0.3841 -0.0507  0.6339
    1MOL0     H   90   5.621   3.730   5.333 -0.8910 -1.6990  0.0661
    1MOL0     H   91   5.849   3.805   5.382  0.4568  1.6508  0.7658
    1MOL0     H   92   5.837   3.637   5.414  0.8719 -0.1455  1.8587
    1MOL0     H   93   5.813   3.667   5.649  0.9702 -2.6937 -2.9297
    1MOL0     H   94   5.817   3.840   5.635  0.7222 -1.5431  1.7392
    1MOL0     H   95   6.128   3.761   5.354 -1.4257  0.2410 -0.1898
    1MOL0     H   96   6.279   3.904   5.152  2.2583  1.5243 -1.2952
    1MOL0     H   97   6.406   3.951   5.276 -1.3465  1.0152 -0.3581
    1MOL0     H   98   6.342   3.801   5.294  0.5602  0.3255  0.9242
    1MOL0     H   99   6.138   4.532   5.533 -1.4523  3.0426 -0.2836
    1MOL0     H  100   6.243   4.761   5.540  0.1533  2.1483 -1.7749
    1MOL0     H  101   6.654   4.908   5.493  3.1616 -2.7728  1.0109
    1MOL0     H  102   6.673   4.758   5.421 -2.0763 -1.4041 -0.0327
    1MOL0     H  103   6.746   4.934   5.293 -0.4222 -1.2434 -2.5945
    1MOL0     H  104   6.602   4.905   5.191  0.8693  2.1451 -1.3975
    1MOL0     H  105   6.604   5.126   5.410 -0.5577 -1.9295  0.6872
    1MOL0     H  106   6.468   5.061   5.306 -0.0738 -0.2676 -1.1972
    1MOL0     H  107   6.720   5.187   5.188 -0.7062  1.7823 -1.2860
    1MOL0     H  108   6.590   5.117   5.105  1.1763  0.5323  0.1987
    1MOL0     H  109   6.569   5.375   5.113 -1.9554  0.9960  0.1944
    1MOL0     H  110   6.580   5.366   5.283  0.6977 -0.4430 -0.7276
    1MOL0     H  111   6.347   5.257   5.123 -3.6472  4.6414 -1.1952
    1MOL0     H  112   6.348   5.250   5.300 -2.7649 -0.4841 -0.4691
    1MOL0     H  113   6.240   5.448   5.170 -0.4143 -1.7255 -0.9887
    1MOL0     H  114   6.395   5.508   5.141  1.1846 -2.4721 -1.2161
    1MOL0     H  115   6.450   5.553   5.356  0.1570 -0.9644 -2.1014
    1MOL0     H  116   6.327   5.444   5.428  2.1628  2.8019  1.5705
    1MOL0     H  117   6.559   4.633   5.282  3.3760  0.0238  6.1635
    1MOL0     H  118   6.440   4.397   5.259 -0.9910 -1.7062  0.7815
    1MOL0     H  119   6.102   4.194   5.575 -0.3581 -1.3032  3.4345
    1MOL0     H  120   5.980   4.005   5.666 -3.8397  1.5925 -2.7802
    1MOL0     H  121   5.244   2.780   4.881  4.0001 -0.1858 -0.4650
    1MOL0     H  122   5.137   2.692   4.665  4.2413  2.1065 -1.3693
    1MOL0     H  123   5.197   2.474   4.327  1.5763 -1.4296  2.4904
    1MOL0     H  124   5.167   2.409   4.081 -0.4503 -1.5742 -1.0175
    1MOL0     H  125   4.953   2.322   3.799 -1.8418  1.0952  2.1822
    1MOL0     H  126   5.048   2.410   3.917 -3.7487  0.8948  1.3411
    1MOL0     H  127   5.155   2.148   3.791  4.5303 -0.7228 -0.5789
    1MOL0     H  128   5.235   2.273   3.891 -0.6348  1.3100  1.1566
    1MOL0     H  129   5.294   2.248   3.655  0.0388 -0.1646  2.3851
    1MOL0     H  130   5.254   2.418   3.702 -3.0614  2.2375 -2.1462
    1MOL0     H  131   5.194   2.331   3.472 -0.6310  3.5758 -1.1963
    1MOL0     H  132   5.070   2.418   3.561 -0.5865 -0.7008 -0.1359
    1MOL0     H  133   4.907   2.034   3.510  1.7854 -1.5633  1.1677
    1MOL0     H  134   4.931   2.077   4.182  0.1322 -1.1377  1.3777
    1MOL0     H  135   4.937   2.141   4.421 -3.2651 -0.0535 -2.7627
    2MOL0     O  136   4.434   6.207   7.713  0.0419 -0.9552  0.6783
    2MOL0     C  137   4.326   6.262   7.736  0.1142  0.8837  0.6562
    2MOL0     O  138   4.294   6.380   7.692 -0.2770 -0.3365 -0.0307
    2MOL0     C  139   4.376   6.462   7.624 -0.1191 -0.0427 -0.1364
    2MOL0     C  140   4.434   6.560   7.698  0.5430 -0.4503 -0.5231
    2MOL0     C  141   4.529   6.639   7.626  0.0261 -0.4202  0.9835
    2MOL0     C  142   4.551   6.626   7.485  0.1575 -0.1561  0.1075
    2MOL0     O  143   4.631   6.714   7.407 -0.3209 -0.3734 -0.1233
    2MOL0     C  144   4.746   6.765   7.483 -0.4429  0.6126 -0.0697
    2MOL0     C  145   4.841   6.831   7.371 -0.8054 -0.6729  0.3201
    2MOL0     C  146   4.965   6.886   7.423 -0.2422  0.7608 -0.1039
    2MOL0     C  147   5.061   6.954   7.332  0.8905  0.5115 -0.5343
    2MOL0     C  148   5.170   7.032   7.411  0.2578  0.1711  0.3727
    2MOL0     C  149   5.290   6.949   7.442 -0.2001  0.4745  0.3931
    2MOL0     C  150   5.394   7.024   7.541  0.1421 -0.7618  0.0540
    2MOL0     C  151   5.442   7.158   7.481  0.6204 -0.0070 -0.1511
    2MOL0     N  152   5.539   7.225   7.569 -0.7336  0.5601  0.0431
    2MOL0     C  153   5.649   7.154   7.608 -0.7385  0.1787  0.5606
    2MOL0     C  154   5.715   7.236   7.692  0.6840  0.1779  0.5201
    2MOL0     C  155   5.845   7.220   7.756 -0.1386  0.1859  1.3389
    2MOL0     C  156   5.844   7.093   7.847  0.5596 -0.4716  0.5387
    2MOL0     C  157   5.981   7.054   7.873 -0.1752  0.1955 -0.8425
    2MOL0     C  158   5.984   6.956   7.995  0.1473  0.9937 -0.2913
    2MOL0     O  159   5.926   6.827   7.961  0.5806 -0.4531 -0.5527
    2MOL0     C  160   6.004   6.730   7.917 -0.9992  0.1103 -0.1212
    2MOL0     C  161   6.118   6.736   7.846 -0.6409 -0.0321 -0.0439
    2MOL0     C  162   6.189   6.619   7.823 -0.2665  0.6267 -0.6588
    2MOL0     C  163   6.303   6.646   7.727 -0.5400 -0.1989 -1.9014
    2MOL0     C  164   6.143   6.496   7.859 -0.4089 -0.1129  0.3508
    2MOL0     C  165   6.215   6.370   7.828  0.4928 -0.0073 -0.3416
    2MOL0     O  166   6.140   6.272   7.885  0.1966 -0.4366  0.3084
    2MOL0     C  167   6.194   6.149   7.900 -0.4695  0.7986  0.3939
    2MOL0     C  168   6.101   6.045   7.890  0.4597 -1.3918  0.1451
    2MOL0     C  169   6.143   5.913   7.923 -0.4436 -0.6073 -0.7153
    2MOL0     C  170   6.279   5.885   7.973 -0.1023 -0.3287  0.2786
    2MOL0     O  171   6.323   5.757   7.994  0.2832 -0.5456  0.4136
    2MOL0     C  172   6.304   5.659   7.903  0.2139 -0.2171  0.7014
    2MOL0     C  173   6.427   5.587   7.853 -0.7959  0.5294 -0.7651
    2MOL0     C  174   6.496   5.533   7.990  0.0034  0.1033  0.4682
    2MOL0     C  175   6.597   5.410   7.950  0.5752  0.6027 -0.2786
    2MOL0     C  176   6.709   5.394   8.051 -0.4059  0.5956 -0.6325
    2MOL0     C  177   6.793   5.271   8.006  0.0142 -0.2647  0.3585
    2MOL0     C  178   6.934   5.267   8.064 -1.0302 -0.6007 -0.2301
    2MOL0     C  179   6.925   5.163   8.183  0.0915 -0.1015  0.4208
    2MOL0    Cl  180   6.922   5.001   8.111  0.0474 -0.4800 -0.4039
    2MOL0     C  181   6.363   6.006   7.989  0.3062  0.3298 -0.5811
    2MOL0     C  182   6.324   6.129   7.950 -0.7361 -0.1125  0.3918
    2MOL0     O  183   6.308   6.360   7.752 -0.1842  0.4398 -0.2252
    2MOL0     C  184   6.011   6.489   7.926  0.2272 -0.5257  0.3776
    2MOL0     C  185   5.946   6.605   7.951  0.3976 -1.0329  0.3896
    2MOL0     N  186   5.628   7.343   7.710  0.5055  0.3077 -0.9171
    2MOL0     N  187   5.523   7.334   7.643 -0.5783  0.4506  0.4075
    2MOL0     C  188   4.486   6.528   7.416  1.0100  0.2340  0.2342
    2MOL0     C  189   4.400   6.446   7.486 -1.0031  0.2433 -0.4936
    2MOL0     C  190   4.232   6.179   7.820  0.0338  0.3508 -0.1185
    2MOL0     C  191   4.250   6.046   7.855  0.3496 -0.3784  0.3205
    2MOL0     C  192   4.156   5.984   7.946  0.6509  0.0688 -0.2685
    2MOL0     C  193   4.045   6.052   8.001  0.6587 -0.1738 -0.3753
    2MOL0     O  194   3.948   5.981   8.079 -0.0946 -0.1729  0.0314
    2MOL0     C  195   3.881   6.034   8.193 -0.6500  0.1239  0.0087
    2MOL0     C  196   3.791   5.934   8.257  1.2169  0.4468 -0.1419
    2MOL0     C  197   3.868   5.814   8.292 -0.2374  1.1926 -0.1581
    2MOL0     C  198   3.769   5.710   8.353  0.7789  0.1289 -0.1073
    2MOL0     C  199   3.844   5.600   8.403 -0.0174  0.0315 -0.7910
    2MOL0     C  200   3.892   5.493   8.433 -0.1181  0.5062  1.0342
    2MOL0     C  201   4.035   6.185   7.970 -1.1150 -0.2470 -0.3076
    2MOL0     C  202   4.118   6.247   7.880  0.1208  0.4480 -0.8243
    2MOL0     H  203   4.434   6.575   7.806  2.5110  2.0399 -0.7690
    2MOL0     H  204   4.572   6.719   7.685  0.8202 -1.3160  1.6773
    2MOL0     H  205   4.705   6.846   7.545 -3.2768 -0.2865 -0.6114
    2MOL0     H  206   4.794   6.681   7.534  1.1365 -0.4926 -3.1581
    2MOL0     H  207   4.863   6.760   7.292 -3.5942 -0.0519 -1.1430
    2MOL0     H  208   4.781   6.912   7.327 -1.8537  1.1164  4.4579
    2MOL0     H  209   4.942   6.959   7.501  0.3243  1.2311 -0.3611
    2MOL0     H  210   5.022   6.806   7.471  1.4832  1.9273 -0.0897
    2MOL0     H  211   5.113   6.873   7.281 -0.6876  0.1517 -1.6440
    2MOL0     H  212   5.009   7.011   7.254  1.0178  0.3988 -0.7024
    2MOL0     H  213   5.199   7.117   7.349  0.2862 -1.1958 -1.5418
    2MOL0     H  214   5.138   7.071   7.509 -0.8601 -0.1544  0.1465
    2MOL0     H  215   5.270   6.852   7.488 -0.5528  1.6516  2.9295
    2MOL0     H  216   5.341   6.925   7.348 -1.6830 -1.7917  0.0872
    2MOL0     H  217   5.344   7.054   7.633  0.7689  2.9602 -0.6464
    2MOL0     H  218   5.484   6.963   7.557  0.8477  0.1271 -0.3632
    2MOL0     H  219   5.344   7.206   7.480 -0.3483 -1.8991  0.1722
    2MOL0     H  220   5.476   7.140   7.378  1.4091 -0.2070  0.1368
    2MOL0     H  221   5.680   7.053   7.583 -2.6044 -0.0718 -0.9710
    2MOL0     H  222   5.918   7.224   7.674  0.7237  2.7427  2.1152
    2MOL0     H  223   5.865   7.305   7.822  2.7387  1.1303 -0.5333
    2MOL0     H  224   5.797   7.017   7.783 -0.3621 -1.1585  1.9903
    2MOL0     H  225   5.779   7.102   7.934  0.2132  1.0143  0.1433
    2MOL0     H  226   6.040   7.142   7.902 -1.4373  0.4129  1.1921
    2MOL0     H  227   6.016   7.005   7.781  0.7897  2.0043 -1.5108
    2MOL0     H  228   5.920   7.003   8.070  0.4794 -0.3936  0.9238
    2MOL0     H  229   6.084   6.945   8.038  0.0526 -1.0780 -0.4807
    2MOL0     H  230   6.166   6.830   7.820  0.4620  0.0921  2.2099
    2MOL0     H  231   6.393   6.601   7.771 -2.3339  1.4496  4.5363
    2MOL0     H  232   6.263   6.606   7.634 -3.0362 -0.4822 -0.7845
    2MOL0     H  233   6.328   6.752   7.717 -3.3973  0.9978  1.5471
    2MOL0     H  234   6.001   6.063   7.851  0.9566  3.6716  0.4598
    2MOL0     H  235   6.073   5.834   7.897 -0.6155  0.5806 -4.4159
    2MOL0     H  236   6.240   5.583   7.949 -0.9297 -1.0247 -2.0230
    2MOL0     H  237   6.244   5.702   7.823 -0.2795 -2.4641 -0.2139
    2MOL0     H  238   6.390   5.507   7.788 -1.4216 -1.6204  2.0509
    2MOL0     H  239   6.494   5.662   7.809  1.1572 -0.0340  1.0358
    2MOL0     H  240   6.418   5.496   8.056  0.4177 -1.2248  0.2602
    2MOL0     H  241   6.548   5.619   8.032 -0.2602  1.1327 -1.2189
    2MOL0     H  242   6.551   5.311   7.941  0.3313  0.8026 -1.2787
    2MOL0     H  243   6.655   5.437   7.862  0.6496 -1.1331 -0.7991
    2MOL0     H  244   6.662   5.381   8.149  2.8730 -1.8373  0.7953
    2MOL0     H  245   6.762   5.490   8.051 -1.8710  1.4776  1.4002
    2MOL0     H  246   6.740   5.178   8.028 -0.9235  0.0442 -0.5323
    2MOL0     H  247   6.809   5.263   7.898 -1.7360 -2.4561  0.1728
    2MOL0     H  248   6.948   5.368   8.102 -2.3438  0.0774 -1.4667
    2MOL0     H  249   7.014   5.231   7.999  0.1833  0.6452  0.5265
    2MOL0     H  250   6.840   5.180   8.249  0.7190 -1.5908  1.6669
    2MOL0     H  251   7.007   5.176   8.255 -2.1405  2.0309  2.7455
    2MOL0     H  252   6.464   5.983   8.024  0.9649 -2.4814 -3.7092
    2MOL0     H  253   6.390   6.214   7.955 -0.2396 -0.5225  0.9603
    2MOL0     H  254   5.954   6.402   7.957  1.8447 -2.5744 -1.9342
    2MOL0     H  255   5.851   6.592   8.003  0.7617 -4.3492  0.4808
    2MOL0     H  256   4.518   6.506   7.314  1.1494 -0.4479  0.4182
    2MOL0     H  257   4.361   6.351   7.450  0.5616  0.1506 -2.0507
    2MOL0     H  258   4.332   5.995   7.806 -0.8572 -1.1425 -0.9790
    2MOL0     H  259   4.153   5.877   7.966  0.4758  0.1500  0.1444
    2MOL0     H  260   3.957   6.067   8.263 -0.5669  1.3342 -0.6239
    2MOL0     H  261   3.813   6.117   8.172  2.2804  2.6561 -0.0507
    2MOL0     H  262   3.714   5.908   8.184  1.1242  2.4702 -0.8099
    2MOL0     H  263   3.739   5.974   8.345 -1.8779  0.8516 -2.0214
    2MOL0     H  264   3.945   5.835   8.368  0.7447  1.6731 -1.2486
    2MOL0     H  265   3.908   5.773   8.199  1.1267 -1.8363  1.6111
    2MOL0     H  266   3.699   5.686   8.273  0.8512 -0.1080 -0.1016
    2MOL0     H  267   3.722   5.765   8.436 -0.6182  1.3139 -1.6244
    2MOL0     H  268   3.938   5.398   8.452  2.8587  1.3358 -1.2279
    2MOL0     H  269   3.954   6.238   8.020 -3.4556 -2.2560 -1.7390
    2MOL0     H  270   4.105   6.355   7.874  1.0285  0.6552  0.5977
    3MOL0     O  271   4.091  11.421  10.979 -0.0703 -0.8737  0.2657
    3MOL0     C  272   4.200  11.398  10.925 -0.6632  0.4482  0.5096
    3MOL0     O  273   4.225  11.364  10.793  0.3608 -0.5522  0.2432
    3MOL0     C  274   4.118  11.381  10.698 -0.2837 -0.0442 -0.1131
    3MOL0     C  275   4.112  11.280  10.601 -0.5834  0.2263  0.4461
    3MOL0     C  276   4.016  11.283  10.502  0.9954  0.6895  0.0856
    3MOL0     C  277   3.924  11.376  10.496  1.8259 -0.0754  0.7529
    3MOL0     O  278   3.826  11.380  10.398 -0.3176  0.0046 -0.2695
    3MOL0     C  279   3.851  11.310  10.277 -0.3110  0.8099  0.0597
    3MOL0     C  280   3.738  11.343  10.175 -0.7019  0.0197  0.2635
    3MOL0     C  281   3.766  11.262  10.049  0.2750  0.0945  0.3128
    3MOL0     C  282   3.656  11.280   9.947  0.4271 -0.0969  0.1132
    3MOL0     C  283   3.669  11.185   9.830  0.6078 -0.9505 -0.2080
    3MOL0     C  284   3.570  11.226   9.720  0.3077 -0.6141  0.3747
    3MOL0     C  285   3.543  11.103   9.632 -1.1216  0.2744  0.2575
    3MOL0     C  286   3.426  11.025   9.696  0.4942 -0.6650  0.1184
    3MOL0     N  287   3.422  10.897   9.636 -0.3922  1.0304  0.1636
    3MOL0     C  288   3.398  10.881   9.506 -0.2151  0.2428  0.5814
    3MOL0     C  289   3.395  10.745   9.491  0.4203  0.8198  0.0891
    3MOL0     C  290   3.336  10.680   9.366 -0.3280  0.3912 -0.1969
    3MOL0     C  291   3.195  10.730   9.331  0.9057 -0.2537  0.5614
    3MOL0     C  292   3.143  10.666   9.204 -0.1448  0.1622  0.7088
    3MOL0     C  293   2.996  10.711   9.168 -1.1211  0.2498 -0.4702
    3MOL0     O  294   2.983  10.729   9.026  0.7134 -0.2511  0.0588
    3MOL0     C  295   3.008  10.855   8.979  0.6224 -1.0647 -0.3728
    3MOL0     C  296   2.991  10.876   8.838  0.1291  0.6841 -0.1018
    3MOL0     C  297   3.025  10.992   8.768 -0.5506 -0.5182 -0.6753
    3MOL0     C  298   2.989  10.999   8.620 -0.2880  0.7691  0.2692
    3MOL0     C  299   3.100  11.092   8.845 -0.0800 -0.2852 -0.3744
    3MOL0     C  300   3.123  11.235   8.796 -0.6020  0.4063 -0.6766
    3MOL0     O  301   3.188  11.325   8.872  0.4654 -0.2165 -0.3838
    3MOL0     C  302   3.256  11.427   8.811  0.8307 -0.9582  0.0757
    3MOL0     C  303   3.331  11.420   8.697 -0.6610 -0.3706 -0.9128
    3MOL0     C  304   3.391  11.536   8.641 -0.3194 -0.1456 -0.2028
    3MOL0     C  305   3.399  11.661   8.711  0.1696  0.2782  0.5021
    3MOL0     O  306   3.464  11.772   8.666  0.3695 -0.7600  0.4278
    3MOL0     C  307   3.508  11.871   8.760 -0.8149 -0.7964 -0.2670
    3MOL0     C  308   3.629  11.942   8.701  0.0179  0.6704 -0.0107
    3MOL0     C  309   3.597  12.057   8.595  0.5394  0.3852  0.4938
    3MOL0     C  310   3.724  12.125   8.565 -0.2470 -0.2870 -0.3458
    3MOL0     C  311   3.789  12.082   8.441 -1.0635  0.2941  1.0309
    3MOL0     C  312   3.910  12.167   8.402  0.7869 -0.5287 -0.2179
    3MOL0     C  313   4.025  12.192   8.511  0.9026 -0.3922 -0.0372
    3MOL0     C  314   4.160  12.171   8.439 -0.2834 -0.3325 -0.2256
    3MOL0    Cl  315   4.190  12.310   8.334  0.2546 -0.0225  0.3719
    3MOL0     C  316   3.324  11.661   8.832  0.7945 -0.1731  0.9123
    3MOL0     C  317   3.249  11.552   8.873 -0.1491  0.3687  0.2685
    3MOL0     O  318   3.086  11.253   8.682 -0.1641 -0.1716  0.4693
    3MOL0     C  319   3.114  11.067   8.973 -0.0055 -0.2166 -0.1251
    3MOL0     C  320   3.068  10.962   9.046 -0.2376 -0.7510 -0.0268
    3MOL0     N  321   3.417  10.688   9.616  0.1330  1.5804 -0.1118
    3MOL0     N  322   3.426  10.788   9.705  0.5430  0.0553  0.5976
    3MOL0     C  323   3.916  11.462  10.606  1.2667 -0.9115  1.0986
    3MOL0     C  324   4.005  11.473  10.708  0.2927 -0.3543 -0.9293
    3MOL0     C  325   4.321  11.405  11.000  0.7769  0.3000 -0.0932
    3MOL0     C  326   4.441  11.399  10.937  0.0362  0.0426  0.2157
    3MOL0     C  327   4.561  11.393  11.010  1.0230 -0.5227  0.5363
    3MOL0     C  328   4.562  11.408  11.151 -1.0144 -0.4715  0.2748
    3MOL0     O  329   4.667  11.407  11.242  0.3339  0.8314  0.3786
    3MOL0     C  330   4.794  11.348  11.202  0.6418  0.4438 -0.4429
    3MOL0     C  331   4.887  11.352  11.317 -0.2669  0.7297  0.6228
    3MOL0     C  332   4.912  11.492  11.369 -0.5149 -0.1927 -0.8674
    3MOL0     C  333   5.052  11.497  11.428  0.0715  0.3103 -0.0404
    3MOL0     C  334   5.087  11.629  11.482 -0.0251  0.3452 -0.6674
    3MOL0     C  335   5.114  11.737  11.531  0.6727  0.6869  0.1548
    3MOL0     C  336   4.437  11.412  11.212 -0.3713  0.0012  0.6499
    3MOL0     C  337   4.313  11.402  11.141 -0.5700  0.4369  0.7322
    3MOL0     H  338   4.190  11.206  10.589  0.3470  1.6334 -4.1407
    3MOL0     H  339   4.017  11.209  10.422 -2.2003  1.6125 -0.9489
    3MOL0     H  340   3.946  11.335  10.228 -0.9087  2.3402 -0.3824
    3MOL0     H  341   3.847  11.202  10.294 -2.8881  0.7570 -0.4818
    3MOL0     H  342   3.640  11.306  10.207  0.9666 -4.4069  0.8800
    3MOL0     H  343   3.728  11.451  10.156 -2.7535 -0.1629  0.0104
    3MOL0     H  344   3.857  11.309  10.009 -1.9736  3.2379 -1.5717
    3MOL0     H  345   3.767  11.154  10.068  0.6215  0.1111  0.3919
    3MOL0     H  346   3.556  11.266   9.988  0.0423  1.7098 -0.1052
    3MOL0     H  347   3.650  11.385   9.918  1.9403  0.6185  2.1030
    3MOL0     H  348   3.772  11.183   9.794  0.2696  3.5828 -2.2092
    3MOL0     H  349   3.643  11.085   9.864  0.2510  0.3737  3.9750
    3MOL0     H  350   3.473  11.260   9.759  0.3694 -0.2562  0.2173
    3MOL0     H  351   3.603  11.316   9.667 -0.8349 -0.3737  0.0349
    3MOL0     H  352   3.508  11.138   9.535 -1.7367  2.4783  1.2102
    3MOL0     H  353   3.633  11.044   9.613 -3.0597 -2.6111 -0.7355
    3MOL0     H  354   3.326  11.070   9.683  0.0740 -0.8296  2.3974
    3MOL0     H  355   3.439  11.034   9.804  0.0198  1.9705  0.0388
    3MOL0     H  356   3.370  10.958   9.436  0.2828  0.7544  0.9303
    3MOL0     H  357   3.384  10.725   9.279 -2.6237 -0.5535 -2.0658
    3MOL0     H  358   3.348  10.572   9.355  0.4571  0.3623  0.8161
    3MOL0     H  359   3.190  10.838   9.313 -0.0649 -0.2965  0.5328
    3MOL0     H  360   3.136  10.704   9.419 -0.8727 -3.4174 -1.3877
    3MOL0     H  361   3.136  10.558   9.221 -0.0453  0.3422  1.9288
    3MOL0     H  362   3.208  10.691   9.120 -3.1700  0.8422 -1.6451
    3MOL0     H  363   2.971  10.797   9.230  0.7469 -1.3208  2.7300
    3MOL0     H  364   2.916  10.643   9.199 -1.0780  0.4116  0.0035
    3MOL0     H  365   2.955  10.789   8.785  1.4466  0.9734 -1.5496
    3MOL0     H  366   2.900  11.055   8.589  0.3709  0.4829 -2.4579
    3MOL0     H  367   3.070  11.031   8.554  2.4159 -2.7494  1.5942
    3MOL0     H  368   2.979  10.898   8.578  1.0152  1.3878 -1.6399
    3MOL0     H  369   3.347  11.325   8.647  3.4641 -1.1154  1.3526
    3MOL0     H  370   3.442  11.527   8.546 -1.0106 -4.3030 -0.3758
    3MOL0     H  371   3.429  11.945   8.780 -2.1914 -2.0946 -0.6780
    3MOL0     H  372   3.541  11.810   8.844 -0.3434 -0.6352 -0.3347
    3MOL0     H  373   3.688  11.982   8.784 -0.8605 -0.0823  1.0074
    3MOL0     H  374   3.676  11.862   8.643 -4.0025 -1.3777 -0.8769
    3MOL0     H  375   3.534  12.132   8.645  0.8683  1.1005 -0.1400
    3MOL0     H  376   3.549  12.009   8.509  0.6318  0.3380  0.4693
    3MOL0     H  377   3.697  12.231   8.550  0.6138 -0.3693 -2.9445
    3MOL0     H  378   3.797  12.125   8.646  3.2254 -0.2884 -3.2467
    3MOL0     H  379   3.718  12.081   8.358  0.0740 -2.1756 -0.0164
    3MOL0     H  380   3.831  11.981   8.449  1.8583  1.4260  1.2274
    3MOL0     H  381   3.957  12.132   8.310  2.7129  1.2295  0.0362
    3MOL0     H  382   3.874  12.260   8.358 -0.8896 -0.5743  0.9710
    3MOL0     H  383   4.010  12.118   8.590 -1.7239 -0.6247 -0.6834
    3MOL0     H  384   4.027  12.296   8.545  2.0408  0.0804 -1.4548
    3MOL0     H  385   4.148  12.074   8.390 -2.1676 -0.2350 -0.0450
    3MOL0     H  386   4.240  12.167   8.513  0.1121  3.4966 -0.2547
    3MOL0     H  387   3.320  11.751   8.892  2.1080  1.0982 -0.8164
    3MOL0     H  388   3.208  11.559   8.974  2.0489 -0.1979  1.2639
    3MOL0     H  389   3.151  11.149   9.033 -0.2045  1.2209 -1.8637
    3MOL0     H  390   3.090  10.959   9.152  2.1693  0.8378 -0.4077
    3MOL0     H  391   3.830  11.527  10.620  0.3172 -2.0485  0.7147
    3MOL0     H  392   3.989  11.522  10.804  0.5863 -0.4123 -0.8486
    3MOL0     H  393   4.442  11.395  10.829 -4.0850 -5.5539 -0.0261
    3MOL0     H  394   4.663  11.398  10.976  1.0485  2.8700  0.7253
    3MOL0     H  395   4.781  11.244  11.172  0.2906  0.3943 -0.1331
    3MOL0     H  396   4.830  11.395  11.110  1.0857 -0.9362 -0.9960
    3MOL0     H  397   4.979  11.310  11.275 -0.3065  0.0330  1.2240
    3MOL0     H  398   4.859  11.275  11.389 -0.4971  0.8011  0.6107
    3MOL0     H  399   4.838  11.524  11.443 -1.5670  1.7160 -2.6399
    3MOL0     H  400   4.910  11.566  11.288 -2.2222  0.7491 -0.0171
    3MOL0     H  401   5.133  11.477  11.357  0.0574  3.1746 -0.9553
    3MOL0     H  402   5.063  11.418  11.503  3.1528 -3.4067 -3.9037
    3MOL0     H  403   5.125  11.829  11.584  0.7009  0.9242 -0.2580
    3MOL0     H  404   4.439  11.396  11.320  0.2775 -0.3571  0.5917
    3MOL0     H  405   4.217  11.389  11.190 -1.0223  1.0155  0.0172
    4MOL0     O  406   9.337   7.363  11.201  0.2075  0.4284  0.4150
    4MOL0     C  407   9.389   7.292  11.289 -0.1340  0.2027  0.2444
    4MOL0     O  408   9.454   7.339  11.393 -0.0313 -0.4351  0.5989
    4MOL0     C  409   9.516   7.461  11.389  0.3649 -0.2186 -0.5784
    4MOL0     C  410   9.569   7.529  11.285  1.1974 -0.2371  0.2427
    4MOL0     C  411   9.649   7.641  11.306 -0.5534 -0.5278  0.8955
    4MOL0     C  412   9.673   7.694  11.431  0.1699  0.6829  0.1892
    4MOL0     O  413   9.753   7.797  11.467 -0.0004  1.2956 -0.7995
    4MOL0     C  414   9.813   7.881  11.368 -0.0926 -0.6328  0.0315
    4MOL0     C  415   9.875   7.997  11.446  0.3804  0.3501 -0.8563
    4MOL0     C  416   9.993   8.065  11.370  0.1606 -0.0875 -0.5652
    4MOL0     C  417   9.925   8.155  11.258 -0.4631 -0.8696  0.0471
    4MOL0     C  418   9.985   8.297  11.232  0.6558 -0.3474  0.2415
    4MOL0     C  419   9.919   8.378  11.125  0.5474 -0.3406  0.1571
    4MOL0     C  420   9.781   8.434  11.162  0.7767 -0.0656 -0.2370
    4MOL0     C  421   9.789   8.571  11.246  0.3215  0.7440 -0.0266
    4MOL0     N  422   9.875   8.553  11.358  0.2771 -0.5952  0.1944
    4MOL0     C  423   9.848   8.494  11.477  1.1117  0.5198  0.4601
    4MOL0     C  424   9.942   8.544  11.555  0.2342 -0.8243 -0.4196
    4MOL0     C  425   9.951   8.511  11.702  0.5308 -0.4859 -0.5060
    4MOL0     C  426  10.013   8.374  11.746 -0.4356 -1.1473  0.1210
    4MOL0     C  427  10.166   8.375  11.756  0.5670  0.5057  0.4985
    4MOL0     C  428  10.230   8.427  11.632 -0.3171  0.1703  0.7801
    4MOL0     O  429  10.364   8.397  11.640 -0.1997  0.4195  0.5814
    4MOL0     C  430  10.433   8.411  11.518 -0.1872  0.0785  0.7359
    4MOL0     C  431  10.567   8.418  11.525 -0.5340 -0.1058 -0.3012
    4MOL0     C  432  10.653   8.407  11.408  0.5822  0.0984 -0.2003
    4MOL0     C  433  10.796   8.430  11.440 -0.5685  0.5097 -0.7537
    4MOL0     C  434  10.592   8.384  11.290 -0.0698 -0.5539 -0.4896
    4MOL0     C  435  10.669   8.367  11.166  0.5585  0.6410 -0.3725
    4MOL0     O  436  10.591   8.368  11.041  0.3938 -0.2333 -0.2429
    4MOL0     C  437  10.663   8.356  10.931 -0.2062 -1.3960  0.6342
    4MOL0     C  438  10.669   8.236  10.868  0.0720  1.5985  0.1304
    4MOL0     C  439  10.732   8.224  10.742  0.2092 -0.0018 -0.0492
    4MOL0     C  440  10.811   8.332  10.689 -0.2000  0.5444 -0.3794
    4MOL0     O  441  10.885   8.302  10.587 -0.1545  0.2984  0.8079
    4MOL0     C  442  10.967   8.410  10.523  0.3172  0.1697 -1.2698
    4MOL0     C  443  11.065   8.347  10.423 -0.4973 -1.0102 -0.2845
    4MOL0     C  444  10.994   8.260  10.328  0.4205  0.1833 -0.4139
    4MOL0     C  445  11.076   8.213  10.213  0.8842 -0.6564 -1.0711
    4MOL0     C  446  11.003   8.112  10.129 -0.0353 -0.1252  0.5964
    4MOL0     C  447  10.947   8.188  10.001  0.2467  0.2167  0.1258
    4MOL0     C  448  10.882   8.086   9.901  0.1318 -0.6845  0.1206
    4MOL0     C  449  10.799   8.167   9.800  0.0077  0.0461  0.5209
    4MOL0    Cl  450  10.653   8.229   9.886 -0.4017  0.1188  0.4172
    4MOL0     C  451  10.809   8.451  10.756 -0.4047  0.3059 -0.1336
    4MOL0     C  452  10.731   8.466  10.872  0.2431  0.1726  0.2655
    4MOL0     O  453  10.793   8.342  11.167  0.4759 -0.2126 -0.2560
    4MOL0     C  454  10.455   8.385  11.282  0.3845  0.6089 -0.1272
    4MOL0     C  455  10.379   8.390  11.393 -1.1794  0.3475 -0.8097
    4MOL0     N  456  10.022   8.634  11.489  1.0292 -1.1802  0.1931
    4MOL0     N  457   9.985   8.636  11.368 -0.4744 -0.1010 -1.2170
    4MOL0     C  458   9.612   7.617  11.530  0.0844 -0.1038 -0.9884
    4MOL0     C  459   9.539   7.505  11.515  0.3908 -0.1066  0.0701
    4MOL0     C  460   9.351   7.152  11.294 -0.8418  0.2473  0.3163
    4MOL0     C  461   9.256   7.092  11.208  0.9557 -0.4398 -1.1890
    4MOL0     C  462   9.218   6.955  11.225 -0.0419 -0.2642 -0.5246
    4MOL0     C  463   9.265   6.879  11.338  0.1075 -0.3635  0.5131
    4MOL0     O  464   9.231   6.759  11.379  0.7218  0.7856 -0.3904
    4MOL0     C  465   9.148   6.669  11.305 -0.8355 -0.6241 -0.9367
    4MOL0     C  466   9.208   6.609  11.178  0.1498  0.5130  0.4793
    4MOL0     C  467   9.360   6.577  11.181 -1.2828 -0.1526 -0.0445
    4MOL0     C  468   9.398   6.514  11.047 -0.3140 -0.4414 -0.3522
    4MOL0     C  469   9.396   6.603  10.923  0.5824  0.4272 -0.1558
    4MOL0     C  470   9.393   6.695  10.846  0.1934  0.5817 -0.9796
    4MOL0     C  471   9.359   6.939  11.415  0.4878 -0.9310  0.6843
    4MOL0     C  472   9.400   7.074  11.400 -0.0115  0.5048  0.3828
    4MOL0     H  473   9.556   7.492  11.184 -0.4693  0.2834  0.2437
    4MOL0     H  474   9.694   7.680  11.215  0.0498 -2.5914  0.2449
    4MOL0     H  475   9.894   7.831  11.315 -1.5891 -2.0913 -0.9698
    4MOL0     H  476   9.748   7.929  11.294  0.9185  2.2152  0.8652
    4MOL0     H  477   9.780   8.050  11.460 -0.7247 -2.0042  1.5143
    4MOL0     H  478   9.907   7.957  11.543  0.9434  5.0845  1.1782
    4MOL0     H  479  10.045   8.122  11.448  0.1842  2.2560 -2.1823
    4MOL0     H  480  10.060   7.989  11.329  2.5724  1.0812  1.0029
    4MOL0     H  481   9.897   8.097  11.170 -0.5457  1.5264 -1.5895
    4MOL0     H  482   9.828   8.172  11.306 -0.2664 -1.0602  0.5150
    4MOL0     H  483  10.015   8.347  11.324  3.4487 -1.0403 -0.2108
    4MOL0     H  484  10.085   8.282  11.192  1.1526 -3.5618  2.3074
    4MOL0     H  485   9.979   8.466  11.103 -0.5397  0.6022  0.8168
    4MOL0     H  486   9.907   8.304  11.045  0.7381 -1.4698  1.1397
    4MOL0     H  487   9.720   8.455  11.074  1.5097  3.2763 -0.0923
    4MOL0     H  488   9.725   8.359  11.220 -1.2057 -0.5569 -2.6075
    4MOL0     H  489   9.688   8.598  11.281 -0.1658 -0.3175 -0.5667
    4MOL0     H  490   9.828   8.660  11.196  1.2434 -1.1187 -2.7916
    4MOL0     H  491   9.770   8.422  11.500  1.3621 -0.0259 -0.3533
    4MOL0     H  492  10.014   8.584  11.754 -0.0054 -0.2030 -0.2380
    4MOL0     H  493   9.847   8.520  11.737 -1.7808 -0.2685 -6.2943
    4MOL0     H  494   9.971   8.291  11.689 -3.1525 -1.1559  1.9733
    4MOL0     H  495   9.976   8.365  11.848 -1.3495 -0.7254 -0.1638
    4MOL0     H  496  10.201   8.275  11.783 -2.5639 -1.5399 -2.2263
    4MOL0     H  497  10.183   8.431  11.848 -3.4968 -0.9774  2.4307
    4MOL0     H  498  10.224   8.535  11.619  0.2140  0.1988  0.7876
    4MOL0     H  499  10.190   8.373  11.546  3.1024 -1.3020 -0.0530
    4MOL0     H  500  10.620   8.423  11.619 -2.0953  0.8618  0.5769
    4MOL0     H  501  10.813   8.437  11.548 -0.5379 -3.8012 -0.2941
    4MOL0     H  502  10.865   8.351  11.409  0.3568  0.4854  1.2072
    4MOL0     H  503  10.838   8.520  11.393  0.1749 -0.1073 -1.3006
    4MOL0     H  504  10.616   8.157  10.921 -1.7608  2.0802 -0.9072
    4MOL0     H  505  10.712   8.125  10.702 -0.6111  0.2639 -0.3149
    4MOL0     H  506  10.891   8.462  10.463 -1.2565  0.5475  0.9327
    4MOL0     H  507  11.012   8.487  10.587  0.9690  0.5916 -2.2092
    4MOL0     H  508  11.109   8.433  10.372  1.5291 -0.1732  2.6111
    4MOL0     H  509  11.149   8.293  10.468  1.4046  0.5353 -1.8090
    4MOL0     H  510  10.901   8.306  10.291 -1.9605 -2.0435  2.2976
    4MOL0     H  511  10.956   8.179  10.391  1.6997  0.1365  0.3322
    4MOL0     H  512  11.102   8.310  10.169  0.9242 -0.0736  0.1899
    4MOL0     H  513  11.165   8.167  10.256 -1.0365 -1.0069  3.0020
    4MOL0     H  514  10.924   8.060  10.183  1.7422 -2.9967  0.7156
    4MOL0     H  515  11.075   8.033  10.102  4.4903  2.9574  2.3742
    4MOL0     H  516  10.871   8.264  10.020 -0.9664  0.0744 -3.4462
    4MOL0     H  517  11.031   8.234   9.946 -0.5026  3.0443  1.1755
    4MOL0     H  518  10.813   8.010   9.939  2.3162 -2.6190  0.4370
    4MOL0     H  519  10.970   8.034   9.863  1.4269  1.8483 -0.5039
    4MOL0     H  520  10.773   8.103   9.715 -0.9392  1.3864 -0.2466
    4MOL0     H  521  10.866   8.246   9.767  2.3515 -1.2751  1.7993
    4MOL0     H  522  10.861   8.535  10.711  0.8399  0.4337  1.4800
    4MOL0     H  523  10.710   8.555  10.932  0.1626 -0.1813  0.7692
    4MOL0     H  524  10.401   8.370  11.189 -0.1081  0.8716  0.1128
    4MOL0     H  525  10.273   8.369  11.380 -1.8322  1.5039  1.8811
    4MOL0     H  526   9.623   7.652  11.633  0.5833  0.2439 -1.1574
    4MOL0     H  527   9.503   7.442  11.596 -0.8623 -0.2879 -0.6033
    4MOL0     H  528   9.220   7.131  11.114 -0.8136 -0.0913 -0.4096
    4MOL0     H  529   9.143   6.906  11.162 -0.2379  0.5884 -0.9680
    4MOL0     H  530   9.121   6.585  11.371 -0.1057 -0.2438 -0.1408
    4MOL0     H  531   9.051   6.712  11.279  0.2051  1.3191 -1.8289
    4MOL0     H  532   9.185   6.683  11.101  1.8935  2.8594  2.0738
    4MOL0     H  533   9.154   6.516  11.157 -0.7719  1.0045  0.6257
    4MOL0     H  534   9.389   6.511  11.264  0.0771 -2.2105 -2.0037
    4MOL0     H  535   9.413   6.669  11.206  1.9784 -2.1694  1.1745
    4MOL0     H  536   9.323   6.435  11.034  0.4049 -1.6035  1.9397
    4MOL0     H  537   9.500   6.479  11.062 -0.4488 -0.5105  0.4414
    4MOL0     H  538   9.396   6.784  10.786  0.4876  2.8430  2.1485
    4MOL0     H  539   9.395   6.867  11.488  0.7658 -3.0843 -1.4378
    4MOL0     H  540   9.460   7.115  11.480 -0.5060 -1.2114  1.7096
    5MOL0     O  541   5.675   5.402   6.919  0.1156  0.0236 -0.2511
    5MOL0     C  542   5.791   5.390   6.885  0.6456 -0.3595  0.5516
    5MOL0     O  543   5.889   5.482   6.897  0.7513  0.0635  0.9316
    5MOL0     C  544   5.866   5.615   6.921  0.8330  0.2196 -0.7538
    5MOL0     C  545   5.940   5.672   7.029  0.1957  1.0929  0.5266
    5MOL0     C  546   5.919   5.801   7.083 -0.0751 -0.9056 -0.0457
    5MOL0     C  547   5.819   5.875   7.018  0.3161 -0.3386  0.8983
    5MOL0     O  548   5.780   6.007   7.048 -0.0334 -0.7585  0.1700
    5MOL0     C  549   5.863   6.089   7.121 -0.9777  0.3004  0.2380
    5MOL0     C  550   5.790   6.228   7.118 -0.5184  0.0756 -0.3494
    5MOL0     C  551   5.891   6.340   7.127 -0.3956 -0.1864  1.2125
    5MOL0     C  552   5.835   6.476   7.165  0.7843  0.0610 -0.2828
    5MOL0     C  553   5.787   6.566   7.051 -0.8950  0.7760 -0.6592
    5MOL0     C  554   5.714   6.690   7.111 -0.0474 -1.0095 -0.1939
    5MOL0     C  555   5.622   6.778   7.018 -0.0810 -0.0689 -0.3062
    5MOL0     C  556   5.581   6.906   7.094  0.3277  0.5832 -0.1516
    5MOL0     N  557   5.698   6.989   7.126  0.3002  0.9377  0.4047
    5MOL0     C  558   5.809   6.996   7.046  0.5526 -0.9521  0.4672
    5MOL0     C  559   5.889   7.081   7.106 -0.7204 -0.3435  0.6172
    5MOL0     C  560   6.013   7.124   7.037 -0.3516 -0.7865  0.3052
    5MOL0     C  561   5.982   7.233   6.925 -0.4172 -0.3248  0.4657
    5MOL0     C  562   5.986   7.372   6.988 -0.4942 -0.2512  0.3346
    5MOL0     C  563   5.951   7.463   6.877  0.1593 -0.4220  1.0354
    5MOL0     O  564   6.060   7.509   6.797 -0.3362  0.1293  0.3084
    5MOL0     C  565   6.066   7.457   6.668  0.3743  0.0558 -0.3567
    5MOL0     C  566   5.990   7.505   6.563  0.9112 -1.2435 -0.1816
    5MOL0     C  567   6.020   7.448   6.436  0.1348 -0.4166  1.2221
    5MOL0     C  568   5.949   7.496   6.314  0.6135 -0.6325  0.7893
    5MOL0     C  569   6.119   7.348   6.427 -0.6352  0.3984 -0.2229
    5MOL0     C  570   6.176   7.288   6.300 -0.5978  0.6476  0.0395
    5MOL0     O  571   6.311   7.253   6.291 -0.3872  0.3086 -0.6030
    5MOL0     C  572   6.379   7.200   6.187  0.4017 -0.5677  0.9442
    5MOL0     C  573   6.511   7.158   6.210  0.5952 -0.2728  0.0285
    5MOL0     C  574   6.582   7.099   6.109 -0.3632 -0.0059 -0.6855
    5MOL0     C  575   6.530   7.099   5.973 -0.3169  0.3798 -0.6745
    5MOL0     O  576   6.609   7.068   5.862  0.1555 -0.1462 -0.1225
    5MOL0     C  577   6.756   7.077   5.874 -0.2183  0.4546 -0.6513
    5MOL0     C  578   6.808   7.206   5.810 -0.1749  0.2327 -0.0780
    5MOL0     C  579   6.823   7.314   5.919 -1.1868 -0.6260  0.0284
    5MOL0     C  580   6.872   7.444   5.864 -0.4608  0.1406  0.0985
    5MOL0     C  581   6.999   7.450   5.778 -0.6877  0.1023 -0.0371
    5MOL0     C  582   7.118   7.375   5.852  0.1408  0.4615 -0.8240
    5MOL0     C  583   7.171   7.467   5.966 -0.0968 -0.0694 -0.0739
    5MOL0     C  584   7.314   7.427   5.997  0.1684 -0.0429  0.4392
    5MOL0    Cl  585   7.283   7.338   6.139 -0.1968  0.2489 -0.3486
    5MOL0     C  586   6.393   7.128   5.953  0.6369  0.5857  0.8971
    5MOL0     C  587   6.321   7.179   6.055  0.2736 -0.5267  0.6613
    5MOL0     O  588   6.097   7.275   6.209 -0.2345  0.8513  0.0595
    5MOL0     C  589   6.188   7.306   6.541 -0.8705  0.7979 -0.0851
    5MOL0     C  590   6.159   7.366   6.657  0.5429  0.3168  0.1630
    5MOL0     N  591   5.831   7.120   7.222 -0.0360 -0.2747 -0.0998
    5MOL0     N  592   5.711   7.071   7.229  0.3250  0.1616 -0.0244
    5MOL0     C  593   5.742   5.825   6.911  0.1420 -0.5464  0.4217
    5MOL0     C  594   5.763   5.694   6.860  0.1809  0.2932  0.7516
    5MOL0     C  595   5.826   5.260   6.827  0.3513  0.9211  0.2422
    5MOL0     C  596   5.935   5.255   6.738 -0.2072  0.5081 -0.0185
    5MOL0     C  597   5.959   5.143   6.651  0.2378 -1.3817 -1.1828
    5MOL0     C  598   5.889   5.024   6.670  0.2343  0.6695 -0.4014
    5MOL0     O  599   5.933   4.910   6.602 -0.3037 -0.2932 -0.3984
    5MOL0     C  600   5.893   4.781   6.646 -0.5621  0.7204 -1.0179
    5MOL0     C  601   5.971   4.742   6.776  0.4410  1.3897 -0.4826
    5MOL0     C  602   5.939   4.587   6.798 -0.4279 -0.8828 -0.0050
    5MOL0     C  603   5.969   4.544   6.941  0.3370  0.6324  0.5173
    5MOL0     C  604   5.853   4.588   7.023  0.5423  0.0908 -0.5250
    5MOL0     C  605   5.764   4.625   7.095  0.6363 -2.0631  0.5180
    5MOL0     C  606   5.784   5.021   6.764  0.3008 -0.3555 -0.2432
    5MOL0     C  607   5.752   5.142   6.833 -0.1568  1.1374  0.5420
    5MOL0     H  608   6.019   5.608   7.068  0.2343  1.1476  0.5377
    5MOL0     H  609   5.971   5.847   7.166 -2.0232 -0.5175  1.0252
    5MOL0     H  610   5.885   6.050   7.221  2.7406  0.7545 -0.2337
    5MOL0     H  611   5.963   6.097   7.076 -1.1926 -0.8085 -0.4616
    5MOL0     H  612   5.733   6.245   7.026 -2.9199  2.8020  1.4456
    5MOL0     H  613   5.727   6.225   7.207  0.2506  0.8197  0.2287
    5MOL0     H  614   5.956   6.307   7.208 -0.3870 -2.2236  0.4313
    5MOL0     H  615   5.956   6.356   7.041 -1.1932  1.9279  0.9503
    5MOL0     H  616   5.751   6.456   7.231  0.4788  1.7431 -0.1219
    5MOL0     H  617   5.916   6.535   7.209  2.3649 -2.8183  0.8836
    5MOL0     H  618   5.871   6.592   6.986  2.4659 -0.1559  2.9603
    5MOL0     H  619   5.709   6.512   6.996 -0.6707 -1.8385  1.3787
    5MOL0     H  620   5.649   6.655   7.192 -0.7862 -0.7042 -0.6415
    5MOL0     H  621   5.787   6.747   7.169 -1.2445 -1.3502  1.7596
    5MOL0     H  622   5.672   6.803   6.924  1.0056 -2.3218 -0.4054
    5MOL0     H  623   5.533   6.716   7.007 -0.0868  0.2506 -2.2860
    5MOL0     H  624   5.516   6.894   7.182 -0.2488  0.9822 -0.5164
    5MOL0     H  625   5.521   6.969   7.028 -3.2084 -1.7206  0.5594
    5MOL0     H  626   5.824   6.952   6.948 -2.3745 -2.4368  0.5885
    5MOL0     H  627   6.089   7.149   7.111  1.5751 -1.6299 -1.2984
    5MOL0     H  628   6.060   7.044   6.980 -0.9862  1.1974 -3.2615
    5MOL0     H  629   5.882   7.204   6.892 -0.3638 -1.2008  1.0554
    5MOL0     H  630   6.048   7.224   6.838 -1.4900  0.4279 -0.4661
    5MOL0     H  631   6.088   7.393   7.020 -1.6592  1.3643  3.3004
    5MOL0     H  632   5.913   7.390   7.067 -2.7404  0.2560 -1.7198
    5MOL0     H  633   5.908   7.552   6.922 -0.7153 -0.1982 -0.1925
    5MOL0     H  634   5.877   7.420   6.808  0.6023  2.7495 -1.6491
    5MOL0     H  635   5.920   7.587   6.561  0.4796 -1.6138 -0.4387
    5MOL0     H  636   5.881   7.418   6.281  0.1627  0.7196 -1.6969
    5MOL0     H  637   5.890   7.585   6.335  1.8107  0.5658 -0.6629
    5MOL0     H  638   6.013   7.530   6.231  2.2840 -1.6323  1.6079
    5MOL0     H  639   6.557   7.174   6.307  3.4268 -1.5525 -1.0011
    5MOL0     H  640   6.685   7.073   6.134 -0.9484 -2.1468 -0.2693
    5MOL0     H  641   6.795   7.056   5.974 -0.5287  1.1114 -0.3853
    5MOL0     H  642   6.789   6.993   5.812  0.4512  0.7793 -0.7474
    5MOL0     H  643   6.897   7.189   5.748  2.8590 -1.1515  4.2363
    5MOL0     H  644   6.728   7.245   5.746 -0.2423  2.3494  1.2044
    5MOL0     H  645   6.892   7.283   5.998  1.5976  1.5449 -1.3778
    5MOL0     H  646   6.725   7.336   5.963 -1.5587  0.3897 -1.2654
    5MOL0     H  647   6.790   7.480   5.801 -0.8932 -1.6344 -0.4011
    5MOL0     H  648   6.891   7.524   5.936  0.4459  0.4487 -0.4593
    5MOL0     H  649   7.038   7.545   5.742 -0.3999 -0.2278 -0.6083
    5MOL0     H  650   6.976   7.402   5.682  3.5041  2.9461 -2.8316
    5MOL0     H  651   7.099   7.274   5.890  0.6589  0.2210 -1.2029
    5MOL0     H  652   7.194   7.359   5.776  1.8173  0.3377  0.7998
    5MOL0     H  653   7.106   7.454   6.052 -1.7019  3.3412 -0.6070
    5MOL0     H  654   7.161   7.571   5.934  1.1551 -0.3513 -1.5258
    5MOL0     H  655   7.377   7.516   5.995  0.7949 -0.2960 -4.7542
    5MOL0     H  656   7.359   7.358   5.924  0.1364 -1.3641  1.6260
    5MOL0     H  657   6.344   7.116   5.857 -1.5874  0.2121  2.0014
    5MOL0     H  658   6.216   7.190   6.030  0.7110 -0.7485 -1.3838
    5MOL0     H  659   6.277   7.245   6.535 -1.5432 -0.1655 -0.3920
    5MOL0     H  660   6.218   7.334   6.743  0.3186 -0.5806 -0.0095
    5MOL0     H  661   5.669   5.889   6.863  2.4105  0.9305 -1.2515
    5MOL0     H  662   5.711   5.654   6.774  1.8353  0.0077 -0.1361
    5MOL0     H  663   5.988   5.347   6.723  1.5103 -0.6277 -1.2186
    5MOL0     H  664   6.042   5.146   6.581  0.3916  1.0809 -0.9969
    5MOL0     H  665   5.785   4.782   6.658 -0.7359  2.4278 -2.3984
    5MOL0     H  666   5.922   4.705   6.573 -1.4942 -3.2755  2.3921
    5MOL0     H  667   5.937   4.799   6.863  3.3594  1.4752  0.7024
    5MOL0     H  668   6.079   4.754   6.766  0.5461  0.2611 -0.7957
    5MOL0     H  669   6.016   4.547   6.732 -0.4770 -3.5757  1.4362
    5MOL0     H  670   5.840   4.561   6.760 -0.2065 -1.2730 -0.3271
    5MOL0     H  671   6.067   4.575   6.980  1.8751 -0.1499 -2.3988
    5MOL0     H  672   5.962   4.436   6.957 -0.8555  0.4979 -0.7491
    5MOL0     H  673   5.687   4.640   7.168 -0.8903 -1.0369 -1.1915
    5MOL0     H  674   5.724   4.933   6.785 -0.3547  0.1111 -0.1500
    5MOL0     H  675   5.661   5.125   6.889 -0.7098  1.6687 -0.1836
    6MOL0     O  676   7.761   9.179   9.461  0.2675  0.6410  0.3579
    6MOL0     C  677   7.837   9.240   9.387  0.2859 -0.1195 -0.6604
    6MOL0     O  678   7.830   9.259   9.253 -0.7081 -0.0346 -0.5138
    6MOL0     C  679   7.720   9.197   9.188 -0.1911 -0.5620  0.4942
    6MOL0     C  680   7.591   9.201   9.239 -0.5535  0.2645  0.6866
    6MOL0     C  681   7.483   9.151   9.163  0.0018  0.2970 -0.7823
    6MOL0     C  682   7.491   9.105   9.032 -0.7311 -0.1877  0.3575
    6MOL0     O  683   7.391   9.074   8.952 -0.0882  0.4683  0.0875
    6MOL0     C  684   7.258   9.113   8.987 -0.0660 -1.1973 -0.0177
    6MOL0     C  685   7.158   9.064   8.887 -0.3246 -1.8189  0.9067
    6MOL0     C  686   7.129   9.165   8.778  0.9058  0.9809  0.5604
    6MOL0     C  687   7.137   9.100   8.643 -0.3743  0.1899 -0.3619
    6MOL0     C  688   7.075   9.195   8.542  1.0346 -0.3745  0.5234
    6MOL0     C  689   7.095   9.126   8.406  1.3559  0.2383 -0.1990
    6MOL0     C  690   7.084   9.240   8.295 -0.8288  0.1264 -1.0861
    6MOL0     C  691   7.087   9.154   8.166  0.1470  0.4569  0.5289
    6MOL0     N  692   7.088   9.241   8.045  0.4148 -0.3912  0.2909
    6MOL0     C  693   6.968   9.296   7.993  0.7202  0.6541  0.0394
    6MOL0     C  694   7.013   9.370   7.895 -0.0105 -0.1774 -0.9075
    6MOL0     C  695   6.906   9.461   7.828 -0.6235 -0.9937  0.3651
    6MOL0     C  696   6.803   9.383   7.766  0.4015 -0.0780  0.2775
    6MOL0     C  697   6.693   9.485   7.720 -0.0758 -0.8709 -1.1563
    6MOL0     C  698   6.582   9.444   7.620 -0.5336  0.8864 -0.7639
    6MOL0     O  699   6.515   9.324   7.652 -0.5387 -0.2421  0.2697
    6MOL0     C  700   6.490   9.238   7.553  0.3700 -0.1556  0.2789
    6MOL0     C  701   6.358   9.187   7.549 -0.5458 -0.8161 -1.0090
    6MOL0     C  702   6.303   9.107   7.462 -0.2580 -0.1341  0.9461
    6MOL0     C  703   6.169   9.053   7.498 -0.2135 -0.5599  0.3397
    6MOL0     C  704   6.386   9.072   7.347  0.6092 -0.6861  0.3372
    6MOL0     C  705   6.346   8.987   7.233 -0.1460 -0.1613  0.3121
    6MOL0     O  706   6.439   8.953   7.133  0.7360  0.6687 -0.6595
    6MOL0     C  707   6.400   8.895   7.018  0.2955 -0.1130  0.2370
    6MOL0     C  708   6.275   8.915   6.948 -0.5524  0.5052 -0.8452
    6MOL0     C  709   6.248   8.854   6.823 -0.3250 -0.2859 -0.1857
    6MOL0     C  710   6.341   8.768   6.766 -0.0592 -0.2954 -0.1613
    6MOL0     O  711   6.314   8.701   6.649  0.6605  1.1645  0.2031
    6MOL0     C  712   6.196   8.718   6.566  0.5848 -0.0464  0.8581
    6MOL0     C  713   6.221   8.653   6.423 -0.7970  0.4532 -0.5930
    6MOL0     C  714   6.117   8.672   6.313 -1.3638  0.3445 -0.0576
    6MOL0     C  715   6.089   8.536   6.251  0.3274  0.5621 -0.1997
    6MOL0     C  716   5.958   8.550   6.159  0.2226  0.6054 -0.8020
    6MOL0     C  717   5.910   8.423   6.083  0.4049 -0.5139  0.0784
    6MOL0     C  718   5.783   8.455   5.994  0.4446 -0.2943  0.4659
    6MOL0     C  719   5.723   8.338   5.919  0.5337 -0.1196  0.9027
    6MOL0    Cl  720   5.826   8.252   5.805  0.1177 -0.0138 -0.3366
    6MOL0     C  721   6.468   8.753   6.833  0.0644  0.6092 -0.7012
    6MOL0     C  722   6.498   8.821   6.952  0.2561  0.1983  0.4704
    6MOL0     O  723   6.232   8.942   7.240 -0.9525 -0.4980  0.9430
    6MOL0     C  724   6.528   9.122   7.344  0.6349  0.0891  0.1369
    6MOL0     C  725   6.570   9.214   7.437 -1.0654  0.4759  0.3113
    6MOL0     N  726   7.147   9.353   7.874 -0.8864 -0.1075 -0.8979
    6MOL0     N  727   7.196   9.272   7.967 -0.2466 -0.4194 -0.3757
    6MOL0     C  728   7.626   9.100   8.990  0.4729  0.0906 -0.9066
    6MOL0     C  729   7.742   9.145   9.060  0.6071  1.0079  0.4050
    6MOL0     C  730   7.948   9.313   9.445 -0.7260 -0.2157 -0.5400
    6MOL0     C  731   7.998   9.284   9.574 -0.0787 -0.5228 -0.4416
    6MOL0     C  732   8.113   9.350   9.628  0.4420  0.0175 -0.3130
    6MOL0     C  733   8.188   9.427   9.546  1.1968 -0.4028 -0.2475
    6MOL0     O  734   8.309   9.483   9.587 -0.1359 -1.0012 -0.0275
    6MOL0     C  735   8.328   9.534   9.720  0.5698  0.6159 -0.8882
    6MOL0     C  736   8.463   9.606   9.748 -0.4531 -0.0507 -0.3717
    6MOL0     C  737   8.481   9.647   9.897 -1.2240 -0.1922 -0.4773
    6MOL0     C  738   8.622   9.694   9.940  0.1115 -0.1715  0.2249
    6MOL0     C  739   8.634   9.828   9.887  0.9868  0.9954 -0.3092
    6MOL0     C  740   8.642   9.949   9.870 -0.1538 -0.4735 -1.2026
    6MOL0     C  741   8.150   9.461   9.413  1.4141  0.6355  0.1148
    6MOL0     C  742   8.026   9.401   9.363 -0.2206  0.8260  0.4588
    6MOL0     H  743   7.560   9.252   9.330 -1.2882  4.9967 -1.8787
    6MOL0     H  744   7.386   9.139   9.211  0.3587 -1.4045 -0.4146
    6MOL0     H  745   7.220   9.059   9.074 -0.7787  1.9428  1.7615
    6MOL0     H  746   7.244   9.219   9.010 -1.4362 -1.2907 -0.3561
    6MOL0     H  747   7.189   8.965   8.852 -0.8784 -1.3511 -1.0322
    6MOL0     H  748   7.068   9.048   8.948  0.2256  2.5300  3.2610
    6MOL0     H  749   7.028   9.205   8.798 -0.2240 -0.2853 -2.1541
    6MOL0     H  750   7.202   9.246   8.782  1.3896  0.5342  0.8410
    6MOL0     H  751   7.238   9.074   8.611 -0.4716 -0.9347  0.1668
    6MOL0     H  752   7.088   9.002   8.633 -1.9257  0.9568 -0.6414
    6MOL0     H  753   6.969   9.216   8.555 -0.1267 -3.4392 -2.3491
    6MOL0     H  754   7.135   9.286   8.536 -0.2405  0.3981 -2.0613
    6MOL0     H  755   7.194   9.079   8.403  0.8086 -0.9145 -1.1172
    6MOL0     H  756   7.023   9.045   8.389  0.7490  0.8931 -0.7779
    6MOL0     H  757   6.989   9.293   8.308 -0.7627 -0.0940  0.6054
    6MOL0     H  758   7.171   9.308   8.298 -0.3401 -0.5204  1.0291
    6MOL0     H  759   6.993   9.099   8.158 -0.1836  1.2686 -2.0226
    6MOL0     H  760   7.176   9.091   8.177 -0.0026 -0.3696 -2.2857
    6MOL0     H  761   6.866   9.291   8.030  0.7449  1.7551  0.2758
    6MOL0     H  762   6.864   9.512   7.915  0.2789 -2.2662  1.6141
    6MOL0     H  763   6.958   9.522   7.753 -2.9736  1.0844  0.2819
    6MOL0     H  764   6.757   9.314   7.838  1.7220  1.3265  2.5837
    6MOL0     H  765   6.838   9.330   7.677  2.8386  2.7158 -0.5599
    6MOL0     H  766   6.745   9.554   7.653 -0.4871 -0.8549 -1.4685
    6MOL0     H  767   6.637   9.527   7.804  1.6048 -1.5020  0.3202
    6MOL0     H  768   6.642   9.447   7.528 -0.3818  2.3371 -0.6388
    6MOL0     H  769   6.515   9.527   7.595 -0.9855  0.3104 -1.5049
    6MOL0     H  770   6.308   9.220   7.640  3.6610  1.2303  0.7917
    6MOL0     H  771   6.092   9.058   7.421 -1.9113  1.7766  2.0364
    6MOL0     H  772   6.178   8.953   7.542 -0.7124  0.3854  2.7550
    6MOL0     H  773   6.127   9.112   7.580  1.3612 -0.1396  0.8965
    6MOL0     H  774   6.192   8.971   6.989 -0.5788  0.5721 -0.9905
    6MOL0     H  775   6.168   8.895   6.764  3.7410  5.8566 -2.4409
    6MOL0     H  776   6.115   8.663   6.614 -0.0979 -1.5346 -1.7757
    6MOL0     H  777   6.178   8.824   6.549 -0.2498 -0.4931 -1.3915
    6MOL0     H  778   6.306   8.714   6.389 -1.7192  0.9660 -2.1016
    6MOL0     H  779   6.248   8.547   6.433 -2.9650 -0.4451 -2.9912
    6MOL0     H  780   6.162   8.728   6.230  1.6165 -1.3180  0.2933
    6MOL0     H  781   6.026   8.718   6.354 -0.3479  2.8521 -0.4498
    6MOL0     H  782   6.166   8.502   6.181 -3.7936 -1.2889 -4.2667
    6MOL0     H  783   6.075   8.460   6.328  2.6081 -2.0830 -2.1714
    6MOL0     H  784   5.982   8.645   6.109 -0.1208  1.2551  0.2231
    6MOL0     H  785   5.875   8.590   6.218  0.7160 -1.4164  1.4149
    6MOL0     H  786   5.994   8.386   6.024  1.2973  0.1860  0.8795
    6MOL0     H  787   5.887   8.346   6.157  1.9637  0.1535  1.3106
    6MOL0     H  788   5.823   8.519   5.915 -0.5644 -0.2862 -0.0585
    6MOL0     H  789   5.711   8.507   6.056  1.2780 -0.0955  1.2851
    6MOL0     H  790   5.639   8.375   5.860  0.0059 -1.8080  0.5373
    6MOL0     H  791   5.679   8.275   5.998 -2.4936  3.1332  2.0925
    6MOL0     H  792   6.544   8.691   6.786 -3.0390 -2.5432 -2.0204
    6MOL0     H  793   6.599   8.819   6.992  0.0084  0.7589  1.1499
    6MOL0     H  794   6.592   9.111   7.257  2.1156  4.1300  0.4935
    6MOL0     H  795   6.676   9.238   7.437 -0.3191 -2.4427  0.6700
    6MOL0     H  796   7.620   9.063   8.888  0.2400  1.3186 -1.3538
    6MOL0     H  797   7.843   9.145   9.021 -0.1117  1.3706 -1.5834
    6MOL0     H  798   7.939   9.213   9.630  0.5824 -0.5100  0.2777
    6MOL0     H  799   8.144   9.331   9.730 -2.2326  2.1543  1.0337
    6MOL0     H  800   8.240   9.593   9.747  0.4448  0.5120 -1.0608
    6MOL0     H  801   8.317   9.451   9.790  3.2944 -1.5522 -2.7887
    6MOL0     H  802   8.470   9.692   9.681 -1.4303  0.5064  0.2248
    6MOL0     H  803   8.553   9.545   9.729  0.5322  1.8951 -2.3235
    6MOL0     H  804   8.463   9.561   9.961  0.0572 -0.9064 -1.0345
    6MOL0     H  805   8.404   9.723   9.914  0.9505  2.7886 -2.7149
    6MOL0     H  806   8.693   9.620   9.903 -1.1513 -0.3002 -2.1422
    6MOL0     H  807   8.643   9.692  10.047 -0.0442  0.3854  0.2661
    6MOL0     H  808   8.644  10.055   9.858 -0.8298 -0.1591  0.9090
    6MOL0     H  809   8.212   9.510   9.338  0.4133 -0.3026 -1.3894
    6MOL0     H  810   8.008   9.416   9.257 -0.2829 -0.3128  0.2995
    7MOL0     O  811   2.952  11.398   1.291 -0.0090  0.2067 -0.2368
    7MOL0     C  812   2.868  11.426   1.373  0.0960  0.0995 -0.3627
    7MOL0     O  813   2.765  11.503   1.340  0.0579  0.3507 -0.2528
    7MOL0     C  814   2.745  11.555   1.214  0.0543 -0.9694 -0.0322
    7MOL0     C  815   2.696  11.682   1.180  0.3830 -0.4664  0.6436
    7MOL0     C  816   2.666  11.712   1.046 -0.6901  1.6099  1.1869
    7MOL0     C  817   2.692  11.623   0.935 -0.0439 -0.1019  0.0756
    7MOL0     O  818   2.696  11.665   0.807 -0.0854  0.2981  0.1231
    7MOL0     C  819   2.770  11.785   0.776 -0.5296 -1.4710 -0.1171
    7MOL0     C  820   2.794  11.795   0.627  0.3959 -0.4603  0.4113
    7MOL0     C  821   2.886  11.677   0.593  0.3231  0.7387 -0.4507
    7MOL0     C  822   2.958  11.700   0.457  0.5675 -0.7277 -0.4508
    7MOL0     C  823   3.006  11.569   0.392  0.0678 -0.4240 -0.0985
    7MOL0     C  824   3.095  11.462   0.480 -0.6020 -0.2009 -0.1869
    7MOL0     C  825   3.168  11.356   0.406 -0.3726 -0.6814 -1.4933
    7MOL0     C  826   3.089  11.245   0.336  0.7884  1.0701  1.0062
    7MOL0     N  827   2.962  11.207   0.406 -0.3054 -0.1723 -0.6240
    7MOL0     C  828   2.837  11.228   0.358  0.4273  0.3302 -0.0934
    7MOL0     C  829   2.750  11.227   0.460 -0.2694 -0.9462  0.1887
    7MOL0     C  830   2.612  11.251   0.462  0.0039  0.5517 -0.0817
    7MOL0     C  831   2.595  11.384   0.531 -0.5201 -0.6593 -0.0981
    7MOL0     C  832   2.444  11.435   0.526 -0.9018  0.7193  0.5721
    7MOL0     C  833   2.423  11.545   0.626  0.1405  0.2409  0.0191
    7MOL0     O  834   2.330  11.636   0.586 -0.1960  0.0651  0.1736
    7MOL0     C  835   2.301  11.745   0.655  0.2331 -0.0913  0.0390
    7MOL0     C  836   2.342  11.774   0.790 -0.1927 -0.8142 -0.4413
    7MOL0     C  837   2.310  11.899   0.845  0.3636 -0.7423  0.5407
    7MOL0     C  838   2.347  11.921   0.992 -0.4075  0.4819  0.8722
    7MOL0     C  839   2.221  11.989   0.774  0.1145 -0.7726 -0.9419
    7MOL0     C  840   2.187  12.123   0.822 -0.6967 -0.7389 -0.5160
    7MOL0     O  841   2.281  12.196   0.890  0.1204 -0.4208 -0.0042
    7MOL0     C  842   2.264  12.331   0.867 -0.5064  0.0910 -1.0316
    7MOL0     C  843   2.248  12.404   0.991 -1.1758 -0.1633 -0.0372
    7MOL0     C  844   2.265  12.543   0.988  0.2342  1.0287  0.7160
    7MOL0     C  845   2.276  12.613   0.867 -0.3681 -0.1664 -0.0240
    7MOL0     O  846   2.313  12.741   0.864  0.0480  0.1646  0.7495
    7MOL0     C  847   2.203  12.827   0.826 -0.6969 -0.2836  0.2966
    7MOL0     C  848   2.230  12.971   0.863  0.0973  0.0765 -0.4887
    7MOL0     C  849   2.225  13.006   1.011 -0.4276 -0.1660  0.2649
    7MOL0     C  850   2.288  13.138   1.024 -0.4461 -0.3008  0.6375
    7MOL0     C  851   2.255  13.192   1.162 -0.7181  0.2227  0.0161
    7MOL0     C  852   2.359  13.305   1.206  0.2461 -0.0111 -0.2798
    7MOL0     C  853   2.315  13.355   1.347 -0.2329 -0.1564 -0.1117
    7MOL0     C  854   2.310  13.261   1.471 -0.0126  0.5325  0.3337
    7MOL0    Cl  855   2.261  13.342   1.636 -0.4416 -0.0068 -0.1749
    7MOL0     C  856   2.276  12.541   0.751 -0.4149  0.6033 -0.2978
    7MOL0     C  857   2.278  12.401   0.750  0.4089 -0.0569  0.4673
    7MOL0     O  858   2.081  12.168   0.769 -0.1991  0.3290  0.3921
    7MOL0     C  859   2.173  11.953   0.650  0.4397  0.5819 -0.4266
    7MOL0     C  860   2.213  11.834   0.590  0.4354 -0.4805  0.2752
    7MOL0     N  861   2.831  11.186   0.574 -0.4416 -0.2315  0.0142
    7MOL0     N  862   2.961  11.174   0.538  0.5499  0.0991  1.0002
    7MOL0     C  863   2.723  11.493   0.970  0.2425  0.2006  0.2027
    7MOL0     C  864   2.753  11.458   1.107  0.8824  0.0184  0.5147
    7MOL0     C  865   2.869  11.365   1.503  0.6401  0.3450 -0.6009
    7MOL0     C  866   2.775  11.391   1.603  1.6532 -0.3734  0.2885
    7MOL0     C  867   2.780  11.351   1.735  1.1221 -0.6558 -0.5625
    7MOL0     C  868   2.870  11.253   1.769 -0.3697 -0.3108  0.0553
    7MOL0     O  869   2.876  11.231   1.899 -0.2157 -0.4392 -0.4110
    7MOL0     C  870   2.877  11.094   1.943 -0.1802 -0.1446 -1.1287
    7MOL0     C  871   2.921  11.099   2.084  0.4669  0.6463 -1.0618
    7MOL0     C  872   2.937  10.955   2.138 -0.2921 -1.4195  0.2365
    7MOL0     C  873   3.087  10.925   2.114  0.2253  0.5075  0.5654
    7MOL0     C  874   3.112  10.780   2.124 -0.7707  0.2081  0.2916
    7MOL0     C  875   3.145  10.666   2.136 -0.0246  0.4839 -0.3586
    7MOL0     C  876   2.970  11.203   1.669  0.4557 -0.7440 -0.3255
    7MOL0     C  877   2.958  11.259   1.534 -0.3866 -0.5632 -0.5174
    7MOL0     H  878   2.675  11.747   1.264 -3.1430 -2.0993  1.2201
    7MOL0     H  879   2.611  11.805   1.039 -3.6181 -0.0426  0.7126
    7MOL0     H  880   2.719  11.876   0.806  1.4018  0.0314 -1.1731
    7MOL0     H  881   2.872  11.793   0.816 -0.2771 -0.1999 -0.9617
    7MOL0     H  882   2.697  11.790   0.575  0.8085  2.6478 -0.8671
    7MOL0     H  883   2.836  11.894   0.607 -3.1881  1.7318  2.5708
    7MOL0     H  884   2.953  11.650   0.675 -1.4348  0.3225  0.9165
    7MOL0     H  885   2.823  11.588   0.588  1.0593  0.2619 -2.1566
    7MOL0     H  886   2.882  11.750   0.397  0.6464  0.7146  0.5703
    7MOL0     H  887   3.049  11.761   0.467  0.2449 -0.1670 -0.9085
    7MOL0     H  888   2.923  11.514   0.347 -1.4946  2.5753 -1.2179
    7MOL0     H  889   3.064  11.602   0.305  0.1848  0.7558  0.4094
    7MOL0     H  890   3.166  11.518   0.541 -0.4211 -1.0298  0.3803
    7MOL0     H  891   3.011  11.415   0.531  1.2687 -3.3508  0.2955
    7MOL0     H  892   3.235  11.412   0.341 -0.1652  2.7971  1.3875
    7MOL0     H  893   3.233  11.310   0.481 -0.1402 -1.7324 -2.3290
    7MOL0     H  894   3.155  11.158   0.335 -0.8840 -0.2953 -1.4153
    7MOL0     H  895   3.071  11.288   0.238 -1.4326  0.5152  1.1126
    7MOL0     H  896   2.817  11.233   0.251 -0.9200 -2.4335 -0.0631
    7MOL0     H  897   2.589  11.254   0.355  0.0273 -1.5907 -0.1918
    7MOL0     H  898   2.555  11.171   0.510  0.4085  1.5149  2.1283
    7MOL0     H  899   2.659  11.460   0.485  1.0658 -1.5516  0.5904
    7MOL0     H  900   2.614  11.387   0.638 -1.7907  2.1860  0.1630
    7MOL0     H  901   2.381  11.349   0.550  1.4719 -0.2011  4.4134
    7MOL0     H  902   2.410  11.453   0.423  1.7647 -3.9752 -1.4119
    7MOL0     H  903   2.517  11.598   0.646 -0.5711  1.1808  0.9906
    7MOL0     H  904   2.383  11.498   0.716 -0.1705  2.3046  1.0146
    7MOL0     H  905   2.404  11.703   0.845 -1.0899 -2.0205 -0.9316
    7MOL0     H  906   2.342  11.832   1.055  2.8425  0.0328  0.6800
    7MOL0     H  907   2.451  11.957   0.989 -0.4145  0.7478  2.7947
    7MOL0     H  908   2.292  12.000   1.044  1.9041  1.8644  1.4111
    7MOL0     H  909   2.228  12.350   1.083  0.6685 -2.7860 -1.0538
    7MOL0     H  910   2.270  12.597   1.082 -0.7067 -0.1791  1.4907
    7MOL0     H  911   2.191  12.821   0.718 -0.6555 -0.1239  0.2827
    7MOL0     H  912   2.105  12.807   0.870 -0.5502  0.3506  0.9402
    7MOL0     H  913   2.325  13.000   0.817 -1.1928  0.6107 -2.9916
    7MOL0     H  914   2.148  13.023   0.813 -0.4812  0.3103  0.6551
    7MOL0     H  915   2.277  12.936   1.078 -2.0550 -0.1362  1.6320
    7MOL0     H  916   2.120  13.009   1.042 -0.5393  0.4578 -0.1623
    7MOL0     H  917   2.396  13.128   1.010 -0.2195  2.6035 -0.3651
    7MOL0     H  918   2.243  13.208   0.953  1.6367  2.1889  1.6256
    7MOL0     H  919   2.259  13.110   1.234 -0.7859  1.5081  1.5422
    7MOL0     H  920   2.151  13.226   1.166 -0.9111 -0.0883 -1.5687
    7MOL0     H  921   2.458  13.259   1.200 -0.7899 -3.0173  2.5874
    7MOL0     H  922   2.342  13.379   1.128 -1.8316 -0.7710 -0.6281
    7MOL0     H  923   2.210  13.383   1.339 -0.5671 -1.8225 -3.6120
    7MOL0     H  924   2.365  13.450   1.369  0.9429 -0.4798 -1.2604
    7MOL0     H  925   2.413  13.225   1.482 -0.1527  0.2468  0.7227
    7MOL0     H  926   2.243  13.177   1.456  1.2411 -0.1555 -1.8612
    7MOL0     H  927   2.293  12.601   0.662  2.1706  3.9454  2.1614
    7MOL0     H  928   2.287  12.355   0.653 -0.9193 -4.5976  2.2583
    7MOL0     H  929   2.107  12.008   0.583  2.7456  1.3858 -2.1469
    7MOL0     H  930   2.180  11.788   0.498  0.0920  1.0531 -0.4095
    7MOL0     H  931   2.737  11.415   0.896  0.7717 -0.1476  0.6553
    7MOL0     H  932   2.761  11.352   1.131 -2.0735 -0.7292 -1.3291
    7MOL0     H  933   2.708  11.472   1.577  1.9824 -0.2796 -0.3024
    7MOL0     H  934   2.706  11.384   1.807  1.1073  0.5008 -1.0775
    7MOL0     H  935   2.779  11.044   1.934 -0.0799 -0.5255 -0.2486
    7MOL0     H  936   2.942  11.035   1.878 -0.4670 -1.7220 -0.0549
    7MOL0     H  937   2.830  11.137   2.132  0.5840 -0.4861  0.1101
    7MOL0     H  938   3.002  11.168   2.107  1.1251  0.0082 -1.4504
    7MOL0     H  939   2.865  10.891   2.085 -1.2221  0.5612 -1.0225
    7MOL0     H  940   2.926  10.963   2.246  4.1723  1.0085  0.7248
    7MOL0     H  941   3.147  10.969   2.195 -0.0968  1.2047  0.4366
    7MOL0     H  942   3.119  10.967   2.018  1.7802  1.2227  1.3537
    7MOL0     H  943   3.175  10.563   2.137  1.4514  0.8808 -1.1792
    7MOL0     H  944   3.048  11.137   1.706  1.2215  0.4618  0.2823
    7MOL0     H  945   3.024  11.219   1.457  0.2106 -3.0512  1.1370
    8MOL0     O  946   2.069  11.052  11.130 -0.5094 -0.4808  0.1059
    8MOL0     C  947   2.172  11.111  11.170 -0.0301  0.3240  0.6119
    8MOL0     O  948   2.218  11.229  11.130 -0.4540  0.3124 -0.5874
    8MOL0     C  949   2.154  11.283  11.027 -0.1971 -1.1671  0.2675
    8MOL0     C  950   2.033  11.340  11.044  0.4455 -0.7941  0.4029
    8MOL0     C  951   1.974  11.427  10.951  0.0605 -0.9650  0.5357
    8MOL0     C  952   2.047  11.458  10.825 -0.1688  0.6031 -0.1713
    8MOL0     O  953   1.988  11.536  10.726  0.3224  0.4019 -0.1277
    8MOL0     C  954   1.995  11.482  10.594  0.3996 -0.0181  0.3426
    8MOL0     C  955   1.906  11.572  10.496 -0.1843  0.4950 -1.2012
    8MOL0     C  956   1.760  11.526  10.512 -0.9062  0.1520  0.4145
    8MOL0     C  957   1.678  11.580  10.632  0.2770 -0.2238 -0.7437
    8MOL0     C  958   1.658  11.468  10.738  0.2249 -0.1931 -0.8413
    8MOL0     C  959   1.605  11.521  10.873 -0.3421  0.0754  0.0822
    8MOL0     C  960   1.450  11.527  10.864  0.1264  1.0768  1.2740
    8MOL0     C  961   1.378  11.387  10.865 -0.2044  0.2885  0.1360
    8MOL0     N  962   1.388  11.332  10.991  0.5501 -0.8806 -0.5950
    8MOL0     C  963   1.459  11.212  11.015 -0.4515  0.1976 -0.9201
    8MOL0     C  964   1.427  11.180  11.149 -1.0298  0.1007  0.4202
    8MOL0     C  965   1.482  11.057  11.229 -0.3507  0.0788 -0.1216
    8MOL0     C  966   1.636  11.070  11.263  0.4609  1.2567 -1.2544
    8MOL0     C  967   1.677  11.212  11.299 -0.5192 -0.1499  0.8770
    8MOL0     C  968   1.802  11.216  11.390 -0.4523  0.3790  0.7942
    8MOL0     O  969   1.780  11.167  11.520 -0.3235  0.1321  0.5111
    8MOL0     C  970   1.899  11.151  11.594  0.7027  0.2472 -0.9864
    8MOL0     C  971   1.882  11.078  11.708 -0.1634 -0.2636  0.6648
    8MOL0     C  972   1.987  11.032  11.791  0.1350 -0.1227  0.0443
    8MOL0     C  973   1.963  10.956  11.921 -0.1131 -0.4330 -1.1693
    8MOL0     C  974   2.114  11.082  11.755 -0.3295 -1.4619 -0.6150
    8MOL0     C  975   2.234  11.041  11.835 -0.7154  0.1271  0.4182
    8MOL0     O  976   2.262  10.911  11.842 -0.0141 -0.3032 -0.2473
    8MOL0     C  977   2.355  10.850  11.933  1.6653 -0.1058 -0.5377
    8MOL0     C  978   2.390  10.717  11.908  0.0959  0.1384 -0.5744
    8MOL0     C  979   2.479  10.658  12.008 -0.8118  0.2510  0.3536
    8MOL0     C  980   2.535  10.723  12.120  0.0265 -0.4181  0.8575
    8MOL0     O  981   2.630  10.663  12.205  0.7031  0.1078 -0.4218
    8MOL0     C  982   2.718  10.749  12.281 -0.4897 -0.2848 -0.1985
    8MOL0     C  983   2.852  10.679  12.323  0.0330 -0.0835  0.0818
    8MOL0     C  984   2.914  10.619  12.198  0.3032 -0.2608  0.2756
    8MOL0     C  985   3.041  10.529  12.217 -0.5807 -0.4809  1.2199
    8MOL0     C  986   3.065  10.440  12.089  0.3405 -0.6717 -0.2304
    8MOL0     C  987   3.186  10.348  12.103 -0.1129  0.6365 -0.4733
    8MOL0     C  988   3.311  10.419  12.164 -0.0429 -0.0996 -0.1215
    8MOL0     C  989   3.442  10.337  12.169  0.2269 -0.2241 -1.0433
    8MOL0    Cl  990   3.452  10.216  12.305  0.2154  0.5289 -0.1008
    8MOL0     C  991   2.481  10.848  12.143 -0.4748  0.0192 -0.5133
    8MOL0     C  992   2.393  10.908  12.057  0.1128  0.6177 -0.2724
    8MOL0     O  993   2.301  11.130  11.889 -0.2895  0.4066  0.5408
    8MOL0     C  994   2.135  11.150  11.640 -0.1036 -0.7446  0.5534
    8MOL0     C  995   2.032  11.182  11.548  0.2048  0.7813 -0.1706
    8MOL0     N  996   1.337  11.273  11.193  0.3317  0.0160 -0.0734
    8MOL0     N  997   1.330  11.375  11.105  0.2635  0.3801  0.0968
    8MOL0     C  998   2.174  11.398  10.810  0.8942  0.5394 -0.2486
    8MOL0     C  999   2.233  11.323  10.916  0.4038 -0.9936  0.4809
    8MOL0     C 1000   2.239  11.057  11.285 -1.3951  0.3079 -0.3098
    8MOL0     C 1001   2.370  11.104  11.324  0.9770 -0.9405 -0.4086
    8MOL0     C 1002   2.440  11.050  11.427 -0.2172 -0.4608 -0.6055
    8MOL0     C 1003   2.384  10.936  11.503 -0.6131  0.3259 -0.1688
    8MOL0     O 1004   2.450  10.878  11.614  0.7591 -0.1837  0.3596
    8MOL0     C 1005   2.573  10.924  11.667 -0.1776  0.1758 -1.1708
    8MOL0     C 1006   2.669  10.812  11.708 -0.3112  0.3152  0.2470
    8MOL0     C 1007   2.786  10.870  11.789  0.2826 -0.3789 -0.5591
    8MOL0     C 1008   2.893  10.767  11.823 -1.2939  0.2101  0.0114
    8MOL0     C 1009   2.999  10.834  11.900 -0.2059 -0.2544 -0.5543
    8MOL0     C 1010   3.098  10.879  11.947 -0.6241 -0.3009 -0.4573
    8MOL0     C 1011   2.261  10.884  11.456 -0.1270 -0.1139 -0.3692
    8MOL0     C 1012   2.194  10.940  11.350 -0.1622 -0.2740 -0.1141
    8MOL0     H 1013   1.981  11.323  11.138  2.4018 -1.6133  1.3913
    8MOL0     H 1014   1.877  11.474  10.956  1.6335  2.9917 -1.3097
    8MOL0     H 1015   2.092  11.483  10.543 -0.6294 -0.1902 -1.7349
    8MOL0     H 1016   1.960  11.379  10.591  0.9539 -0.1892 -1.0491
    8MOL0     H 1017   1.923  11.673  10.534  2.2045 -0.8462  1.7564
    8MOL0     H 1018   1.939  11.563  10.392 -2.9713  1.8193 -2.2880
    8MOL0     H 1019   1.703  11.558  10.424  0.3177  3.9224  0.8200
    8MOL0     H 1020   1.758  11.417  10.521  0.1311  0.1835  1.3022
    8MOL0     H 1021   1.722  11.667  10.683 -1.2867  1.2676 -1.8259
    8MOL0     H 1022   1.579  11.611  10.596 -1.3206 -2.6064  1.2992
    8MOL0     H 1023   1.587  11.399  10.693 -3.4752  3.2019 -0.7999
    8MOL0     H 1024   1.749  11.414  10.768  0.9381  1.0449 -0.6917
    8MOL0     H 1025   1.643  11.456  10.952  1.5665  0.1238 -0.7354
    8MOL0     H 1026   1.644  11.621  10.894 -0.8648  0.6819 -1.6875
    8MOL0     H 1027   1.419  11.597  10.942 -0.8571  1.7097  0.3464
    8MOL0     H 1028   1.444  11.570  10.764  4.6908  0.7798  0.6850
    8MOL0     H 1029   1.406  11.315  10.788  0.4624  2.4003 -1.7109
    8MOL0     H 1030   1.274  11.413  10.844 -0.0093 -1.0205 -2.8481
    8MOL0     H 1031   1.515  11.144  10.951 -0.5161 -0.8802  0.1254
    8MOL0     H 1032   1.429  11.064  11.324 -0.3941  0.1781 -0.1540
    8MOL0     H 1033   1.452  10.967  11.175 -1.6022  0.6383 -0.4010
    8MOL0     H 1034   1.695  11.020  11.186 -1.1905 -0.0822 -1.7068
    8MOL0     H 1035   1.653  11.012  11.354 -5.0752 -1.7718 -1.7230
    8MOL0     H 1036   1.600  11.266  11.354  1.2671  2.0924  1.3388
    8MOL0     H 1037   1.716  11.269  11.214  3.1568  1.7541  3.5255
    8MOL0     H 1038   1.838  11.317  11.411  0.7829  0.2289 -0.4763
    8MOL0     H 1039   1.882  11.158  11.343 -0.0878  1.2532  0.3170
    8MOL0     H 1040   1.780  11.044  11.723 -0.1345 -1.7132 -1.8054
    8MOL0     H 1041   2.057  10.932  11.971 -0.8809  0.7700  0.9822
    8MOL0     H 1042   1.908  11.015  11.995 -1.5452  0.0878 -2.5762
    8MOL0     H 1043   1.900  10.871  11.892 -0.3584 -1.2481  1.5019
    8MOL0     H 1044   2.357  10.666  11.819 -0.8993  0.3974 -0.3678
    8MOL0     H 1045   2.500  10.552  11.996  1.6979  0.7321  0.0517
    8MOL0     H 1046   2.750  10.836  12.224  2.2765  1.1621  3.1745
    8MOL0     H 1047   2.655  10.786  12.363 -0.5818 -2.2793  0.6853
    8MOL0     H 1048   2.918  10.755  12.365  0.7232 -0.6509  0.0334
    8MOL0     H 1049   2.848  10.598  12.396 -2.2933 -0.2382 -0.1442
    8MOL0     H 1050   2.930  10.692  12.119 -0.8573 -1.1041 -0.7842
    8MOL0     H 1051   2.833  10.554  12.164 -2.1179  3.1303 -0.9607
    8MOL0     H 1052   3.132  10.589  12.224 -0.0656 -1.2710  1.4140
    8MOL0     H 1053   3.030  10.466  12.306  0.0397  0.3044  1.8692
    8MOL0     H 1054   3.071  10.499  11.997 -0.1253 -0.8865 -0.4026
    8MOL0     H 1055   2.972  10.383  12.078  0.0351 -0.1510 -0.3843
    8MOL0     H 1056   3.147  10.272  12.172  0.2266 -0.2913 -1.2781
    8MOL0     H 1057   3.204  10.296  12.008 -4.9824 -1.4851 -0.5305
    8MOL0     H 1058   3.301  10.455  12.267 -2.5546 -2.3498  0.5418
    8MOL0     H 1059   3.325  10.504  12.097 -4.3274 -0.3105 -1.5714
    8MOL0     H 1060   3.528  10.405  12.177 -1.1192  1.5570 -0.9239
    8MOL0     H 1061   3.443  10.279  12.076 -1.0474 -1.2188 -0.4569
    8MOL0     H 1062   2.514  10.907  12.228  1.5548  0.6097 -1.6657
    8MOL0     H 1063   2.348  11.003  12.086 -3.3645 -0.8121 -0.4463
    8MOL0     H 1064   2.235  11.169  11.604 -0.9255  1.8562 -0.5968
    8MOL0     H 1065   2.058  11.225  11.452  1.2119  0.6792  0.0484
    8MOL0     H 1066   2.255  11.415  10.740  5.6265  0.3835  4.5678
    8MOL0     H 1067   2.340  11.303  10.918  0.4176 -0.9589  2.3145
    8MOL0     H 1068   2.416  11.185  11.268 -2.1797 -0.8933 -3.2835
    8MOL0     H 1069   2.547  11.071  11.429 -0.1090  1.2305 -6.0742
    8MOL0     H 1070   2.642  10.972  11.597  1.4554  1.0403  0.9195
    8MOL0     H 1071   2.540  11.005  11.733  1.9446  1.2527 -1.3211
    8MOL0     H 1072   2.715  10.761  11.622 -2.9626 -0.6654 -0.7057
    8MOL0     H 1073   2.625  10.733  11.770 -1.7349 -1.0532 -2.3136
    8MOL0     H 1074   2.749  10.904  11.887  0.7311 -2.9158  0.5744
    8MOL0     H 1075   2.834  10.943  11.724  1.9540 -0.8796  0.0479
    8MOL0     H 1076   2.939  10.724  11.733  2.0597  1.9618  0.7101
    8MOL0     H 1077   2.864  10.681  11.885 -4.9466  1.9468  0.9678
    8MOL0     H 1078   3.179  10.914  12.007  0.4633  1.7741 -2.9702
    8MOL0     H 1079   2.229  10.794  11.508  3.0455 -0.0686  2.0042
    8MOL0     H 1080   2.103  10.885  11.329  0.1515 -0.3186 -1.4007
    9MOL0     O 1081  10.540   3.949   7.688  1.4949  1.0172 -0.4988
    9MOL0     C 1082  10.446   3.863   7.718  0.3216  1.2178 -0.2505
    9MOL0     O 1083  10.366   3.873   7.834  0.5318 -0.6139 -0.4838
    9MOL0     C 1084  10.399   3.967   7.921 -0.2184  0.3554 -0.5956
    9MOL0     C 1085  10.400   4.106   7.895 -0.4337  0.1058  0.0541
    9MOL0     C 1086  10.425   4.195   8.006  0.0060  0.0262 -0.0701
    9MOL0     C 1087  10.449   4.145   8.133  1.1121  0.3566 -0.6142
    9MOL0     O 1088  10.483   4.234   8.228 -0.0509 -0.6948 -0.5438
    9MOL0     C 1089  10.490   4.199   8.367 -0.1553 -0.3016  0.2522
    9MOL0     C 1090  10.516   4.325   8.449 -0.9280  0.6561  0.7300
    9MOL0     C 1091  10.402   4.425   8.433  0.2015 -0.2385  0.2025
    9MOL0     C 1092  10.425   4.514   8.551 -0.2774  1.5387  0.9667
    9MOL0     C 1093  10.322   4.632   8.567  0.2751  0.2409 -1.0113
    9MOL0     C 1094  10.279   4.705   8.434 -0.7749  0.3363 -0.4461
    9MOL0     C 1095  10.216   4.832   8.471 -0.0358 -0.0143  0.6838
    9MOL0     C 1096  10.310   4.942   8.490 -0.5890 -0.1412 -0.4247
    9MOL0     N 1097  10.245   5.067   8.481 -0.2176 -0.9632 -0.1639
    9MOL0     C 1098  10.164   5.121   8.383 -0.8667  0.3638  0.1320
    9MOL0     C 1099  10.128   5.243   8.432 -0.2075  0.3724 -0.0639
    9MOL0     C 1100  10.040   5.339   8.357  0.4208 -0.7748 -0.7826
    9MOL0     C 1101  10.116   5.443   8.271  0.4203 -0.2054  0.4408
    9MOL0     C 1102  10.190   5.556   8.350 -0.4442  0.5322  0.0398
    9MOL0     C 1103  10.270   5.643   8.253  0.6463  0.4050  0.0915
    9MOL0     O 1104  10.328   5.745   8.338  0.0590 -0.1410 -0.7733
    9MOL0     C 1105  10.429   5.811   8.279 -0.2938 -0.6373 -0.4840
    9MOL0     C 1106  10.550   5.812   8.340  0.5598 -0.5994 -0.3454
    9MOL0     C 1107  10.657   5.885   8.281  0.2759 -0.0010  0.0000
    9MOL0     C 1108  10.789   5.879   8.351  0.5444  1.5330  0.4417
    9MOL0     C 1109  10.638   5.942   8.148  0.4440  0.0594  0.2633
    9MOL0     C 1110  10.733   6.016   8.074 -0.3259 -0.8223 -0.6551
    9MOL0     O 1111  10.762   6.150   8.108  0.1386 -0.8316 -0.1704
    9MOL0     C 1112  10.733   6.200   8.232 -0.4307  1.3946 -0.8166
    9MOL0     C 1113  10.603   6.238   8.267  1.1438  1.0113  0.0744
    9MOL0     C 1114  10.571   6.292   8.395 -0.3032 -0.3467  0.2380
    9MOL0     C 1115  10.670   6.303   8.497 -0.0166 -0.3798  0.2307
    9MOL0     O 1116  10.626   6.343   8.620 -0.0963 -0.7684  0.4300
    9MOL0     C 1117  10.707   6.300   8.727  0.2626 -0.6142  0.1523
    9MOL0     C 1118  10.641   6.347   8.854 -0.0736 -0.6397 -0.2910
    9MOL0     C 1119  10.525   6.273   8.893  0.4778  0.6713 -0.3388
    9MOL0     C 1120  10.467   6.333   9.026 -0.9836 -0.7556 -0.5625
    9MOL0     C 1121  10.363   6.252   9.098  1.1187 -0.1147  0.4411
    9MOL0     C 1122  10.227   6.302   9.084  0.5441 -0.4859 -0.6756
    9MOL0     C 1123  10.181   6.314   8.946  0.0071  0.6809  0.3987
    9MOL0     C 1124  10.028   6.320   8.924  0.7530  0.2089  0.1253
    9MOL0    Cl 1125   9.953   6.160   8.971 -0.1816 -0.1619  0.1180
    9MOL0     C 1126  10.796   6.269   8.448 -0.0621 -0.3739  0.0350
    9MOL0     C 1127  10.828   6.218   8.326 -0.5881 -0.4784 -0.0536
    9MOL0     O 1128  10.778   5.956   7.975 -0.8888  0.0098 -0.4779
    9MOL0     C 1129  10.507   5.941   8.095 -0.7403  0.8303  0.2629
    9MOL0     C 1130  10.402   5.876   8.153 -1.4250 -0.3269 -0.5738
    9MOL0     N 1131  10.189   5.274   8.548  0.0416 -0.0586 -0.3855
    9MOL0     N 1132  10.250   5.166   8.581 -0.8791  0.5578  0.7838
    9MOL0     C 1133  10.443   4.017   8.155 -0.7080  0.0110 -0.8621
    9MOL0     C 1134  10.420   3.923   8.053 -0.1873 -0.7257 -0.4864
    9MOL0     C 1135  10.445   3.741   7.642 -0.1940 -0.0026 -0.0275
    9MOL0     C 1136  10.339   3.656   7.652  0.4235 -0.9811  0.5802
    9MOL0     C 1137  10.332   3.535   7.580 -0.2936 -0.1750 -1.2086
    9MOL0     C 1138  10.431   3.504   7.497 -0.3040  1.3088 -0.3456
    9MOL0     O 1139  10.415   3.387   7.427  0.0136 -0.0480  0.9987
    9MOL0     C 1140  10.481   3.374   7.304  0.8464 -0.3280  0.1659
    9MOL0     C 1141  10.403   3.261   7.228 -1.2530  0.3012  0.1137
    9MOL0     C 1142  10.252   3.286   7.223 -0.4476 -0.1958  0.0501
    9MOL0     C 1143  10.190   3.423   7.178  0.8780  0.3074 -0.1744
    9MOL0     C 1144  10.079   3.457   7.268  0.0530 -0.3677 -0.1448
    9MOL0     C 1145  10.002   3.486   7.355 -0.7061  0.4309 -0.0646
    9MOL0     C 1146  10.541   3.593   7.473  0.3792  0.6173 -0.6120
    9MOL0     C 1147  10.550   3.707   7.549 -0.8117 -1.1124  0.8970
    9MOL0     H 1148  10.385   4.159   7.802  0.5345 -0.1359 -0.2524
    9MOL0     H 1149  10.431   4.302   7.986 -0.7536 -0.4331 -3.2643
    9MOL0     H 1150  10.391   4.167   8.400 -0.5680 -1.1724 -1.7023
    9MOL0     H 1151  10.557   4.117   8.394  0.6572 -2.0225 -5.6880
    9MOL0     H 1152  10.539   4.302   8.553  0.7575  3.5964  1.1318
    9MOL0     H 1153  10.613   4.369   8.423 -1.1533  0.1804 -1.0065
    9MOL0     H 1154  10.407   4.481   8.339  2.2492  0.2125  0.5422
    9MOL0     H 1155  10.302   4.379   8.432  1.0676 -2.4472 -2.8968
    9MOL0     H 1156  10.414   4.450   8.639 -0.7758 -1.6418 -1.2330
    9MOL0     H 1157  10.527   4.554   8.549  0.2434  0.2343 -0.7991
    9MOL0     H 1158  10.236   4.585   8.615  1.0691 -1.3384 -1.0699
    9MOL0     H 1159  10.364   4.698   8.643  2.3653 -0.4191 -1.5188
    9MOL0     H 1160  10.371   4.720   8.376  0.8931  0.7183  2.1654
    9MOL0     H 1161  10.214   4.638   8.376  1.5261 -3.0054  0.5693
    9MOL0     H 1162  10.139   4.842   8.394  0.1993  0.2398  0.4805
    9MOL0     H 1163  10.158   4.824   8.563 -1.8735  1.5430 -0.2603
    9MOL0     H 1164  10.378   4.940   8.404  1.1086 -2.1399  0.8816
    9MOL0     H 1165  10.365   4.934   8.584  0.7187  0.3733 -1.1242
    9MOL0     H 1166  10.130   5.068   8.295 -0.0961  1.6714 -0.9818
    9MOL0     H 1167   9.974   5.285   8.288 -1.1736 -0.9264  0.8067
    9MOL0     H 1168   9.974   5.388   8.429  0.2775 -0.0028 -1.4185
    9MOL0     H 1169  10.058   5.501   8.199  0.8999  0.5810  0.6733
    9MOL0     H 1170  10.196   5.403   8.208 -0.0675 -2.0252  0.9227
    9MOL0     H 1171  10.249   5.506   8.426  0.1545  0.6754 -0.3240
    9MOL0     H 1172  10.116   5.628   8.388  0.1786  1.2896 -0.1549
    9MOL0     H 1173  10.197   5.691   8.187  3.8098  0.4050 -3.7380
    9MOL0     H 1174  10.355   5.594   8.205  2.7791 -0.0440  3.9671
    9MOL0     H 1175  10.558   5.759   8.435  0.1804  1.8300  1.1472
    9MOL0     H 1176  10.844   5.793   8.311 -0.2658  1.9400 -1.6584
    9MOL0     H 1177  10.854   5.965   8.331  3.0199  0.5651  3.4573
    9MOL0     H 1178  10.774   5.858   8.458 -0.7050 -4.4834 -0.5752
    9MOL0     H 1179  10.519   6.226   8.199 -0.9547  0.9418  2.5198
    9MOL0     H 1180  10.466   6.315   8.407 -0.1873  0.0328  0.5159
    9MOL0     H 1181  10.725   6.193   8.739 -2.5769 -1.1514  0.2608
    9MOL0     H 1182  10.792   6.369   8.721 -1.7903  2.0498 -0.2508
    9MOL0     H 1183  10.713   6.343   8.937  0.4111 -0.8936 -0.7200
    9MOL0     H 1184  10.616   6.452   8.841 -0.6794 -0.7607 -0.1184
    9MOL0     H 1185  10.552   6.168   8.906  1.6527  0.9543 -0.3087
    9MOL0     H 1186  10.446   6.290   8.820  1.1575  3.2331 -0.6070
    9MOL0     H 1187  10.554   6.324   9.092 -1.4567 -1.5404 -0.0354
    9MOL0     H 1188  10.435   6.438   9.022 -2.9595 -1.0492  3.3155
    9MOL0     H 1189  10.386   6.261   9.205 -0.1359 -0.5002  0.7576
    9MOL0     H 1190  10.374   6.145   9.079  0.0510 -0.0066 -0.9213
    9MOL0     H 1191  10.162   6.236   9.142 -1.0012  0.2479 -1.5182
    9MOL0     H 1192  10.212   6.396   9.138 -1.4187 -1.4831  0.6355
    9MOL0     H 1193  10.215   6.221   8.898  1.1705  1.8231 -1.1095
    9MOL0     H 1194  10.230   6.398   8.895 -0.3361 -0.3248 -1.7150
    9MOL0     H 1195   9.997   6.345   8.822  2.6046  0.8507 -0.3039
    9MOL0     H 1196   9.981   6.393   8.991 -2.0717 -0.8244 -0.5641
    9MOL0     H 1197  10.877   6.291   8.517 -0.1426  0.9060 -0.2577
    9MOL0     H 1198  10.933   6.204   8.302 -0.8342 -0.2364 -1.3528
    9MOL0     H 1199  10.473   5.998   8.008  1.7697  0.3906 -1.1117
    9MOL0     H 1200  10.300   5.887   8.119 -1.0671 -2.3748 -2.4992
    9MOL0     H 1201  10.456   3.971   8.253 -0.2402 -2.6257 -2.0632
    9MOL0     H 1202  10.405   3.828   8.104  0.8925 -0.5553  0.1791
    9MOL0     H 1203  10.255   3.686   7.714  1.0181  0.0461  0.9173
    9MOL0     H 1204  10.246   3.469   7.582 -0.2671 -0.2330 -1.7750
    9MOL0     H 1205  10.474   3.467   7.248  0.8809 -1.5749 -2.0500
    9MOL0     H 1206  10.587   3.359   7.327  0.7578  1.8946  2.4072
    9MOL0     H 1207  10.425   3.163   7.271  1.3824  1.4245  1.5650
    9MOL0     H 1208  10.435   3.262   7.123  2.8682  1.2990  1.2081
    9MOL0     H 1209  10.218   3.260   7.324 -0.5186  0.4635  0.2023
    9MOL0     H 1210  10.202   3.206   7.168  2.3731 -1.4540 -0.8560
    9MOL0     H 1211  10.158   3.421   7.073  3.8369  4.0105 -1.3654
    9MOL0     H 1212  10.260   3.507   7.179 -3.0659  3.9097  1.5111
    9MOL0     H 1213   9.935   3.480   7.438  1.3782 -2.2084  1.6136
    9MOL0     H 1214  10.627   3.560   7.416  1.2987 -1.4560  1.7958
    9MOL0     H 1215  10.633   3.771   7.522  0.5960 -2.0282  2.8467
   10MOL0     O 1216   6.731   8.057   4.294  0.2872  0.6216 -0.3763
   10MOL0     C 1217   6.628   8.037   4.360 -0.6666 -0.1833  0.6212
   10MOL0     O 1218   6.624   8.008   4.492  0.6045 -0.2599 -0.4389
   10MOL0     C 1219   6.740   8.028   4.568 -0.0791 -0.4148  1.1398
   10MOL0     C 1220   6.863   7.966   4.554  0.6103 -0.3329 -0.3594
   10MOL0     C 1221   6.971   7.994   4.633 -0.6610 -0.3704  0.5011
   10MOL0     C 1222   6.947   8.087   4.736 -0.9219  0.5846 -1.3603
   10MOL0     O 1223   7.044   8.124   4.831 -0.6521  0.2936 -0.1107
   10MOL0     C 1224   7.160   8.033   4.843 -1.1469 -0.1521 -0.3323
   10MOL0     C 1225   7.265   8.082   4.950  0.4771  0.5915 -0.2107
   10MOL0     C 1226   7.221   8.047   5.094  0.1095  0.6722 -0.2485
   10MOL0     C 1227   7.249   7.894   5.137 -0.3884  0.8129  0.3509
   10MOL0     C 1228   7.203   7.869   5.288  0.5416  0.1166 -0.3856
   10MOL0     C 1229   7.274   7.956   5.400  0.1496 -0.6091  0.5183
   10MOL0     C 1230   7.310   7.892   5.530  0.1944  0.0370  0.3958
   10MOL0     C 1231   7.400   7.989   5.608 -0.2128 -0.0123  0.1884
   10MOL0     N 1232   7.532   8.027   5.554  0.0392  0.4862  0.9477
   10MOL0     C 1233   7.616   7.931   5.502  0.6254 -0.7833 -1.1594
   10MOL0     C 1234   7.689   8.007   5.420 -0.4341  0.1015  0.6642
   10MOL0     C 1235   7.789   7.963   5.316 -0.3324 -0.1747 -0.7226
   10MOL0     C 1236   7.749   7.996   5.167  0.3762 -0.3332  0.1596
   10MOL0     C 1237   7.870   7.986   5.064  0.1259 -0.8535  0.4550
   10MOL0     C 1238   7.971   8.106   5.076  0.4831  0.1686 -0.7194
   10MOL0     O 1239   8.088   8.077   4.997  0.1216  0.2127  0.1468
   10MOL0     C 1240   8.185   8.167   4.985 -1.1211 -0.4559  0.2705
   10MOL0     C 1241   8.190   8.288   5.054 -0.0308 -0.3904 -0.2993
   10MOL0     C 1242   8.293   8.379   5.036 -1.0533  0.0407 -0.2653
   10MOL0     C 1243   8.284   8.507   5.128 -0.2476  0.5715 -0.6390
   10MOL0     C 1244   8.389   8.356   4.940  0.2904 -0.4219  0.1874
   10MOL0     C 1245   8.493   8.454   4.910  0.5089  0.7311  0.9615
   10MOL0     O 1246   8.560   8.447   4.798 -0.1491  0.3980  1.7669
   10MOL0     C 1247   8.675   8.519   4.771  1.4976 -0.2976 -0.1481
   10MOL0     C 1248   8.713   8.532   4.637  0.9134 -1.1336  0.2039
   10MOL0     C 1249   8.813   8.620   4.600  0.0211  0.5166 -0.5998
   10MOL0     C 1250   8.875   8.706   4.691 -1.1329  0.1564 -0.3588
   10MOL0     O 1251   8.972   8.792   4.640  0.2098  0.2519 -0.1457
   10MOL0     C 1252   9.097   8.801   4.718  0.4259  0.3578 -0.1077
   10MOL0     C 1253   9.117   8.944   4.770  0.4408 -1.1832  0.4664
   10MOL0     C 1254   9.112   9.051   4.642  1.3822  0.8362 -0.3753
   10MOL0     C 1255   8.998   9.155   4.664  1.0374 -0.4434  0.3989
   10MOL0     C 1256   9.006   9.285   4.583  0.6418 -0.7952  0.4215
   10MOL0     C 1257   8.960   9.272   4.439  0.1318 -0.6197  0.2390
   10MOL0     C 1258   8.812   9.274   4.409 -0.2040  0.2272 -0.2194
   10MOL0     C 1259   8.783   9.244   4.261 -0.3110 -1.0612 -0.0204
   10MOL0    Cl 1260   8.849   9.360   4.151 -0.2581  0.0749  0.0258
   10MOL0     C 1261   8.845   8.684   4.821  1.4465 -0.1684  0.3686
   10MOL0     C 1262   8.755   8.581   4.864 -0.3278 -0.0479 -0.2217
   10MOL0     O 1263   8.516   8.539   4.996 -0.4158  0.3122 -0.5687
   10MOL0     C 1264   8.385   8.237   4.868  0.1666  0.3062 -0.9932
   10MOL0     C 1265   8.277   8.148   4.884 -0.8949  0.0517 -0.6311
   10MOL0     N 1266   7.654   8.136   5.419 -0.4270 -0.5335  0.3433
   10MOL0     N 1267   7.558   8.153   5.505  0.0651 -0.0415 -0.4260
   10MOL0     C 1268   6.820   8.143   4.759  0.1795 -0.8066  0.3759
   10MOL0     C 1269   6.714   8.121   4.673 -0.4733 -0.0770 -1.2662
   10MOL0     C 1270   6.498   8.020   4.292  0.6232  0.0084  0.2133
   10MOL0     C 1271   6.377   8.030   4.359 -1.1785  0.6956  0.2144
   10MOL0     C 1272   6.254   8.001   4.292  0.9254 -0.7276  0.3944
   10MOL0     C 1273   6.264   7.972   4.159 -0.0216 -0.8124  0.2787
   10MOL0     O 1274   6.149   7.944   4.085  0.0271 -0.3925 -0.6541
   10MOL0     C 1275   6.067   8.064   4.063  0.1094  0.0743  0.6852
   10MOL0     C 1276   6.122   8.165   3.968  0.0590  0.1411 -0.0300
   10MOL0     C 1277   6.034   8.292   3.944 -0.6291 -0.6563 -0.4470
   10MOL0     C 1278   5.898   8.270   3.860  0.4622 -0.3860  0.1995
   10MOL0     C 1279   5.806   8.391   3.871 -0.0098  0.0983 -0.2566
   10MOL0     C 1280   5.733   8.484   3.873 -0.0298  0.0430 -0.6960
   10MOL0     C 1281   6.392   7.977   4.095  0.5542  0.4673  0.6167
   10MOL0     C 1282   6.506   8.012   4.159 -0.0196  0.0173  1.0539
   10MOL0     H 1283   6.879   7.888   4.480 -0.8077 -2.0166  1.0204
   10MOL0     H 1284   7.062   7.935   4.621 -1.2715 -1.2961  0.2859
   10MOL0     H 1285   7.129   7.931   4.867  1.0193 -0.6816  0.4399
   10MOL0     H 1286   7.207   8.049   4.746 -1.9838  4.3856 -0.2472
   10MOL0     H 1287   7.363   8.034   4.936  0.5015  0.3926  0.6066
   10MOL0     H 1288   7.286   8.189   4.945  4.8401  0.0320  1.6490
   10MOL0     H 1289   7.291   8.099   5.160 -0.8257  4.9489 -2.2530
   10MOL0     H 1290   7.121   8.091   5.107  0.0804  0.5542 -0.0729
   10MOL0     H 1291   7.189   7.823   5.078 -1.5884  1.5410  0.6463
   10MOL0     H 1292   7.351   7.860   5.118  0.5614  3.5075  0.1686
   10MOL0     H 1293   7.098   7.895   5.301 -0.1786 -3.4379  2.4068
   10MOL0     H 1294   7.204   7.763   5.314 -0.8091  0.0262 -0.6640
   10MOL0     H 1295   7.371   7.994   5.367 -0.1512  0.7871  1.1444
   10MOL0     H 1296   7.205   8.040   5.413  0.9675  0.1223  0.2835
   10MOL0     H 1297   7.227   7.869   5.597 -0.8383  0.9034 -0.5583
   10MOL0     H 1298   7.365   7.798   5.515 -0.9850 -0.6268  0.1456
   10MOL0     H 1299   7.417   7.955   5.710  0.1397  0.2531  0.2200
   10MOL0     H 1300   7.345   8.083   5.619  2.0738  1.4432 -0.1814
   10MOL0     H 1301   7.603   7.823   5.507  0.2124 -0.6962  2.1902
   10MOL0     H 1302   7.878   8.016   5.349 -1.2418  0.8045  0.2366
   10MOL0     H 1303   7.800   7.854   5.325 -1.8566 -0.3885 -1.1710
   10MOL0     H 1304   7.703   8.093   5.151 -0.7318 -0.4284  2.3459
   10MOL0     H 1305   7.668   7.926   5.143 -0.9109  1.2085 -0.1157
   10MOL0     H 1306   7.825   7.997   4.964  0.2794 -4.5003 -0.1258
   10MOL0     H 1307   7.908   7.885   5.078 -1.1267 -1.1136  2.2291
   10MOL0     H 1308   7.998   8.117   5.181 -1.3963 -0.5171 -0.1238
   10MOL0     H 1309   7.929   8.197   5.033 -2.7174 -0.2611  1.1952
   10MOL0     H 1310   8.107   8.314   5.120 -0.0440 -0.6443 -0.2135
   10MOL0     H 1311   8.371   8.511   5.194  1.8637 -2.3661 -2.9396
   10MOL0     H 1312   8.278   8.594   5.062 -0.8182  1.5044  0.6087
   10MOL0     H 1313   8.188   8.513   5.179 -1.1723 -0.8007 -2.1185
   10MOL0     H 1314   8.653   8.482   4.561 -2.3569  2.6721 -0.0247
   10MOL0     H 1315   8.838   8.632   4.495  1.5731  2.4782 -0.0638
   10MOL0     H 1316   9.089   8.746   4.813 -3.6485  3.1937  1.4648
   10MOL0     H 1317   9.178   8.761   4.656 -0.7301 -1.1792 -0.6918
   10MOL0     H 1318   9.041   8.971   4.844  1.8658 -1.2144  1.9879
   10MOL0     H 1319   9.218   8.953   4.809  1.1424  3.2088 -1.7181
   10MOL0     H 1320   9.085   8.994   4.552 -2.9665 -1.3645  1.9894
   10MOL0     H 1321   9.210   9.098   4.644  0.4786  2.8089  1.0170
   10MOL0     H 1322   8.902   9.108   4.641 -0.1411  1.5212  1.0647
   10MOL0     H 1323   8.999   9.187   4.769  2.7235  0.8131  0.0399
   10MOL0     H 1324   9.108   9.323   4.581  0.6970 -0.8263 -3.1556
   10MOL0     H 1325   8.938   9.362   4.619  1.3894 -0.6421  1.5316
   10MOL0     H 1326   8.991   9.361   4.385  2.0577 -2.8412 -2.6379
   10MOL0     H 1327   8.997   9.186   4.384 -2.8854 -0.0531 -3.0478
   10MOL0     H 1328   8.772   9.372   4.437 -0.0185  0.3833 -0.5023
   10MOL0     H 1329   8.747   9.210   4.471 -0.4820 -2.1054 -2.7516
   10MOL0     H 1330   8.675   9.244   4.247 -0.3990 -1.4023  0.6167
   10MOL0     H 1331   8.827   9.143   4.256  3.7153  0.4491  0.9994
   10MOL0     H 1332   8.892   8.736   4.904  2.6419 -0.5885 -0.0211
   10MOL0     H 1333   8.757   8.565   4.971  0.3174  2.5178  0.2043
   10MOL0     H 1334   8.459   8.219   4.791  2.5292  5.2923 -0.2639
   10MOL0     H 1335   8.284   8.054   4.830  0.8566  1.2638 -2.7254
   10MOL0     H 1336   6.802   8.219   4.835 -2.7076 -0.6432 -0.3808
   10MOL0     H 1337   6.623   8.180   4.676  0.4561  1.4159 -1.5613
   10MOL0     H 1338   6.372   8.064   4.462  0.6569 -0.3593  0.7046
   10MOL0     H 1339   6.158   8.009   4.342  1.2442  2.0924  0.7124
   10MOL0     H 1340   5.973   8.027   4.019  0.4753  1.3251 -1.2460
   10MOL0     H 1341   6.040   8.108   4.159  4.7343  1.6814  1.4869
   10MOL0     H 1342   6.147   8.122   3.871 -0.2950 -0.5003  0.1592
   10MOL0     H 1343   6.216   8.195   4.015  1.2670 -1.5556 -1.2622
   10MOL0     H 1344   6.103   8.369   3.907  2.1813 -0.5800  4.2011
   10MOL0     H 1345   6.007   8.342   4.037  0.8205  2.8770 -1.7549
   10MOL0     H 1346   5.833   8.196   3.908 -0.0186 -0.0684  0.0474
   10MOL0     H 1347   5.929   8.239   3.760  0.5191  0.0381  0.0840
   10MOL0     H 1348   5.678   8.576   3.859 -1.6630 -1.0695 -2.0064
   10MOL0     H 1349   6.381   7.952   3.990 -1.3754  0.3030  0.8282
   10MOL0     H 1350   6.602   8.018   4.109  0.3122  0.2189  1.7028
   11MOL0     O 1351   9.544   9.551   7.984 -0.3710 -0.4096 -0.4596
   11MOL0     C 1352   9.546   9.566   8.104  0.2689 -0.2670 -0.2886
   11MOL0     O 1353   9.438   9.603   8.172 -0.1485 -0.7361 -0.3338
   11MOL0     C 1354   9.321   9.566   8.124 -0.1354  0.2524  0.7923
   11MOL0     C 1355   9.252   9.663   8.048  0.3637  0.4205  0.8738
   11MOL0     C 1356   9.134   9.630   7.983  0.4504  0.3841  0.4237
   11MOL0     C 1357   9.079   9.502   8.005  1.2733  0.0920 -0.5324
   11MOL0     O 1358   8.951   9.472   7.946 -0.4629  0.1153 -0.0707
   11MOL0     C 1359   8.873   9.368   7.998 -0.8581 -0.3351 -0.0222
   11MOL0     C 1360   8.897   9.246   7.916 -0.7097  0.5783  0.3597
   11MOL0     C 1361   8.916   9.118   8.008  0.5480  0.8702  0.2939
   11MOL0     C 1362   8.967   8.996   7.940  0.7780 -0.0583  0.6492
   11MOL0     C 1363   8.963   8.878   8.035  0.0584 -1.0349 -0.2730
   11MOL0     C 1364   9.005   8.752   7.965 -1.5542 -0.3748  0.4005
   11MOL0     C 1365   8.990   8.625   8.055  0.5799 -0.4473 -0.3873
   11MOL0     C 1366   9.058   8.629   8.201  0.2551  0.5614 -0.0416
   11MOL0     N 1367   9.035   8.500   8.271 -0.6823 -0.4433  0.3402
   11MOL0     C 1368   8.981   8.482   8.392  0.4615  0.4060 -0.8018
   11MOL0     C 1369   8.915   8.364   8.391  0.6630  0.0520 -0.4930
   11MOL0     C 1370   8.850   8.282   8.496 -0.2451  1.0825  0.5860
   11MOL0     C 1371   8.944   8.266   8.620 -0.4062 -0.6833  0.4162
   11MOL0     C 1372   8.879   8.273   8.751  0.1041 -0.0368 -0.5373
   11MOL0     C 1373   8.815   8.136   8.778 -0.0286  0.5513 -0.5380
   11MOL0     O 1374   8.715   8.153   8.885 -0.0434 -0.1355  0.3451
   11MOL0     C 1375   8.680   8.045   8.954  1.0941 -0.2917  0.3259
   11MOL0     C 1376   8.678   7.909   8.904 -0.5218  0.3635  0.8785
   11MOL0     C 1377   8.639   7.797   8.985  0.1800  0.4323  0.6083
   11MOL0     C 1378   8.643   7.655   8.925 -0.4348 -0.2801 -0.2606
   11MOL0     C 1379   8.608   7.822   9.119 -0.6709  0.0374  1.0177
   11MOL0     C 1380   8.565   7.714   9.212 -0.6859  0.1523  0.7459
   11MOL0     O 1381   8.644   7.681   9.316 -0.3625 -0.4383  0.8393
   11MOL0     C 1382   8.589   7.600   9.403 -0.9963 -0.2487 -0.9343
   11MOL0     C 1383   8.609   7.464   9.404  0.4751 -0.5220 -0.1051
   11MOL0     C 1384   8.525   7.387   9.487  0.4205  1.2352  0.6913
   11MOL0     C 1385   8.435   7.436   9.579 -0.6886 -0.3401 -0.6901
   11MOL0     O 1386   8.365   7.335   9.644 -1.0189 -0.5218 -0.2853
   11MOL0     C 1387   8.355   7.340   9.786  0.3978 -1.0622 -1.2906
   11MOL0     C 1388   8.244   7.257   9.844  0.5511  0.9593 -0.0150
   11MOL0     C 1389   8.231   7.271   9.997 -0.3349 -0.1943 -0.5049
   11MOL0     C 1390   8.130   7.170  10.048  0.2948  0.7338 -0.3010
   11MOL0     C 1391   8.099   7.201  10.195  1.1805  0.0031 -0.3392
   11MOL0     C 1392   7.989   7.123  10.270 -0.4349  0.4027 -0.1316
   11MOL0     C 1393   7.884   7.209  10.347 -0.1798 -0.9378  0.4852
   11MOL0     C 1394   7.805   7.126  10.449  0.5101 -0.4115  0.2438
   11MOL0    Cl 1395   7.895   7.088  10.598 -0.4670 -0.1960  0.0654
   11MOL0     C 1396   8.426   7.576   9.591  0.2526 -0.3295  0.1971
   11MOL0     C 1397   8.502   7.654   9.497  0.0507 -0.1848 -0.4945
   11MOL0     O 1398   8.458   7.667   9.182  0.1041  0.7571 -1.4323
   11MOL0     C 1399   8.603   7.954   9.163 -0.3910  0.1185 -0.1705
   11MOL0     C 1400   8.622   8.060   9.082  0.5463 -0.2467 -0.1717
   11MOL0     N 1401   8.943   8.318   8.263 -0.2066 -0.0946 -0.1557
   11MOL0     N 1402   9.019   8.395   8.193 -0.3896  0.2119 -0.7010
   11MOL0     C 1403   9.150   9.403   8.090 -0.3923 -0.4791 -0.1788
   11MOL0     C 1404   9.267   9.439   8.148  0.2551 -0.6610 -0.0108
   11MOL0     C 1405   9.678   9.590   8.167  0.0778  1.1564  0.5156
   11MOL0     C 1406   9.696   9.678   8.276 -0.0241  0.0006 -0.2941
   11MOL0     C 1407   9.819   9.692   8.326 -0.5472 -0.3788 -0.8983
   11MOL0     C 1408   9.934   9.635   8.279  0.3085  0.4475  0.3898
   11MOL0     O 1409  10.052   9.678   8.341  0.8510 -0.8738 -0.1803
   11MOL0     C 1410  10.181   9.632   8.309 -0.0146  0.9238  0.5936
   11MOL0     C 1411  10.202   9.480   8.336  0.2683 -0.0829 -0.1167
   11MOL0     C 1412  10.204   9.457   8.488  1.0371  0.1263 -0.2932
   11MOL0     C 1413  10.320   9.478   8.577  0.2567  0.2530 -0.2237
   11MOL0     C 1414  10.396   9.607   8.571 -0.2080  0.6453 -0.5027
   11MOL0     C 1415  10.483   9.693   8.546 -0.9517 -0.9557 -0.1687
   11MOL0     C 1416   9.920   9.550   8.171  0.6719  0.2267 -0.2227
   11MOL0     C 1417   9.793   9.521   8.116 -0.0410  0.6848 -0.2435
   11MOL0     H 1418   9.288   9.765   8.034 -1.4800  1.1366  1.0030
   11MOL0     H 1419   9.080   9.705   7.925  0.0169 -0.1344  0.1479
   11MOL0     H 1420   8.896   9.367   8.105  1.3627 -0.6899 -0.4442
   11MOL0     H 1421   8.770   9.405   7.993 -0.9416 -0.2638  1.8305
   11MOL0     H 1422   8.818   9.225   7.844  1.5348  0.4620 -2.2154
   11MOL0     H 1423   8.986   9.250   7.853 -1.5901 -0.0767 -0.9736
   11MOL0     H 1424   8.984   9.130   8.093 -0.2143  0.5194  0.9620
   11MOL0     H 1425   8.819   9.089   8.050 -0.6764  0.9525 -2.2486
   11MOL0     H 1426   8.899   8.977   7.856  1.1855  0.7986  0.1169
   11MOL0     H 1427   9.066   9.014   7.899 -0.6129  2.4584 -1.9831
   11MOL0     H 1428   9.033   8.885   8.119 -1.5040 -0.3278  1.0309
   11MOL0     H 1429   8.863   8.869   8.078 -1.0970  0.8095 -2.3409
   11MOL0     H 1430   8.933   8.735   7.884 -0.5480  0.5753 -0.7141
   11MOL0     H 1431   9.107   8.759   7.926 -0.3758 -0.9447  3.1044
   11MOL0     H 1432   8.881   8.621   8.063  0.5386 -1.3138 -1.1711
   11MOL0     H 1433   9.030   8.542   7.996  0.3674 -1.5682  0.9934
   11MOL0     H 1434   9.014   8.717   8.248  1.8381  1.9313 -0.9970
   11MOL0     H 1435   9.163   8.658   8.204 -0.0273  1.5143  1.4419
   11MOL0     H 1436   8.985   8.544   8.481  1.9503  0.2622 -0.7561
   11MOL0     H 1437   8.750   8.323   8.516 -0.4984  0.5003  0.5456
   11MOL0     H 1438   8.827   8.181   8.460 -3.4189  1.9006  0.0070
   11MOL0     H 1439   9.029   8.332   8.606  0.6255 -2.4696 -2.4339
   11MOL0     H 1440   8.995   8.169   8.618  1.4578  0.2828 -1.5114
   11MOL0     H 1441   8.806   8.354   8.755  0.4743  0.2628  2.2875
   11MOL0     H 1442   8.959   8.293   8.823  0.0829 -1.1937 -0.1685
   11MOL0     H 1443   8.888   8.069   8.824 -1.0285 -0.9050 -1.0053
   11MOL0     H 1444   8.760   8.075   8.706 -1.8364  2.1242 -0.5801
   11MOL0     H 1445   8.713   7.889   8.804  0.3906  0.8446  1.0877
   11MOL0     H 1446   8.687   7.588   8.999  2.1063 -3.2518 -4.0622
   11MOL0     H 1447   8.541   7.628   8.898 -0.0091 -0.2812 -1.9617
   11MOL0     H 1448   8.706   7.647   8.836  0.9815 -0.8259  0.7448
   11MOL0     H 1449   8.667   7.412   9.329 -0.3815 -4.1627  1.4966
   11MOL0     H 1450   8.521   7.280   9.470 -0.3384  1.3987 -0.2870
   11MOL0     H 1451   8.446   7.290   9.822 -1.6752 -3.6351  0.8007
   11MOL0     H 1452   8.360   7.443   9.823 -2.3994 -1.6601  1.1304
   11MOL0     H 1453   8.148   7.291   9.804  0.5410 -0.2516 -1.0632
   11MOL0     H 1454   8.271   7.152   9.830 -2.7545  0.4699 -5.7835
   11MOL0     H 1455   8.204   7.368  10.040  1.6696  0.5108 -0.7054
   11MOL0     H 1456   8.329   7.256  10.044 -0.6139  0.7768  0.4356
   11MOL0     H 1457   8.034   7.168   9.997 -1.9734  0.0902  3.5846
   11MOL0     H 1458   8.182   7.073  10.053  1.0222  1.1655  3.5981
   11MOL0     H 1459   8.058   7.302  10.194  1.0775 -0.0058  0.8856
   11MOL0     H 1460   8.191   7.207  10.255  1.6707  0.9427 -1.1695
   11MOL0     H 1461   7.935   7.072  10.189  3.9023 -2.1283 -1.7964
   11MOL0     H 1462   8.024   7.042  10.334  0.6987 -0.8009 -2.1378
   11MOL0     H 1463   7.825   7.263  10.273 -0.9676 -2.4403 -0.0100
   11MOL0     H 1464   7.928   7.296  10.398 -0.7259 -0.2368 -0.2255
   11MOL0     H 1465   7.787   7.025  10.410 -1.2299 -0.6930  1.6533
   11MOL0     H 1466   7.707   7.170  10.471  0.3172 -0.0124 -1.3202
   11MOL0     H 1467   8.356   7.623   9.659 -1.2428 -1.2406 -0.6476
   11MOL0     H 1468   8.498   7.761   9.512  1.5618 -0.2006  0.2659
   11MOL0     H 1469   8.558   7.981   9.257 -3.3641 -0.0172 -1.4303
   11MOL0     H 1470   8.587   8.155   9.121 -2.4202 -2.1135  2.1347
   11MOL0     H 1471   9.106   9.305   8.103  2.0949 -1.5798  0.7314
   11MOL0     H 1472   9.327   9.366   8.201 -1.5798 -2.1634  0.1065
   11MOL0     H 1473   9.621   9.725   8.339  1.0323 -1.6237  2.3295
   11MOL0     H 1474   9.831   9.754   8.414 -0.5673  1.5999 -2.2291
   11MOL0     H 1475  10.198   9.654   8.203 -0.6885  2.6781  0.8106
   11MOL0     H 1476  10.258   9.687   8.365 -0.0961 -0.2281  1.9013
   11MOL0     H 1477  10.298   9.448   8.296 -0.3530  1.1900 -2.8639
   11MOL0     H 1478  10.120   9.417   8.299 -3.9923  3.9444  1.3879
   11MOL0     H 1479  10.202   9.350   8.515  1.6998  0.1457 -0.1394
   11MOL0     H 1480  10.114   9.512   8.516  1.0534  1.3652 -2.5237
   11MOL0     H 1481  10.390   9.397   8.562  0.6013  0.6346 -0.7006
   11MOL0     H 1482  10.278   9.471   8.678  4.0538  0.9072  1.5575
   11MOL0     H 1483  10.549   9.776   8.532  1.7952 -2.8875  0.5418
   11MOL0     H 1484   9.994   9.492   8.117  0.4126  0.4193 -0.7927
   11MOL0     H 1485   9.769   9.460   8.030 -0.0076  0.9022 -0.4084
   12MOL0     O 1486   4.436   4.922   3.840  0.0614  0.2863  0.8659
   12MOL0     C 1487   4.465   4.995   3.747  0.2798 -0.1288 -0.8582
   12MOL0     O 1488   4.418   5.114   3.725  1.2788 -0.3129  0.8676
   12MOL0     C 1489   4.379   5.193   3.829 -0.4344  0.4277 -0.4970
   12MOL0     C 1490   4.452   5.203   3.961 -0.4443  0.3210  0.5444
   12MOL0     C 1491   4.408   5.285   4.059 -0.4864  0.2218  0.9144
   12MOL0     C 1492   4.297   5.369   4.036 -0.2501 -0.3188  1.0872
   12MOL0     O 1493   4.228   5.441   4.128  0.5167  0.0747  0.1422
   12MOL0     C 1494   4.252   5.423   4.258 -0.6886 -1.1391  0.3337
   12MOL0     C 1495   4.358   5.515   4.310 -0.5048 -0.6113  0.1767
   12MOL0     C 1496   4.324   5.663   4.276 -0.0420 -0.1778  0.3321
   12MOL0     C 1497   4.431   5.779   4.324 -0.6105 -0.1524  1.1325
   12MOL0     C 1498   4.408   5.826   4.469  0.8186  0.6633  0.5954
   12MOL0     C 1499   4.507   5.925   4.531  0.3869 -0.1390  0.0365
   12MOL0     C 1500   4.436   5.997   4.659  0.4472  0.0172  0.4796
   12MOL0     C 1501   4.530   6.105   4.711 -0.8943  0.7218 -1.0853
   12MOL0     N 1502   4.470   6.190   4.812 -0.4843 -0.5630  0.1494
   12MOL0     C 1503   4.442   6.324   4.813  0.1851 -0.3671 -0.1877
   12MOL0     C 1504   4.387   6.353   4.931  1.2047  0.1385  0.2857
   12MOL0     C 1505   4.333   6.491   4.978  0.2192  0.2376 -0.3838
   12MOL0     C 1506   4.219   6.523   4.887 -0.5286 -0.1244  0.3885
   12MOL0     C 1507   4.130   6.624   4.956  0.8468 -0.4650 -0.1888
   12MOL0     C 1508   4.076   6.729   4.857  0.2869  1.0058 -1.2339
   12MOL0     O 1509   4.178   6.784   4.776 -0.1378  0.0944  0.0195
   12MOL0     C 1510   4.191   6.918   4.782  0.6836 -0.1341 -0.2302
   12MOL0     C 1511   4.321   6.967   4.775 -0.7540  0.4549  0.3043
   12MOL0     C 1512   4.353   7.100   4.791 -0.4568 -1.2751 -0.5965
   12MOL0     C 1513   4.497   7.135   4.777  0.2453  0.3597  0.0195
   12MOL0     C 1514   4.249   7.190   4.830  0.7153  0.4033  0.9230
   12MOL0     C 1515   4.266   7.333   4.872 -0.8590 -0.6631 -0.6865
   12MOL0     O 1516   4.173   7.390   4.957 -0.0546 -0.2000  0.4094
   12MOL0     C 1517   4.200   7.518   4.997 -0.6245 -0.0581  0.0550
   12MOL0     C 1518   4.109   7.624   4.959 -0.2972  0.3614  1.2283
   12MOL0     C 1519   4.135   7.754   5.010  0.6494  0.1863  0.5350
   12MOL0     C 1520   4.245   7.780   5.090 -0.0117 -1.1664  0.6518
   12MOL0     O 1521   4.284   7.906   5.129 -0.1244  0.1079  0.2169
   12MOL0     C 1522   4.309   8.003   5.023 -0.4210 -0.9620 -0.4459
   12MOL0     C 1523   4.446   7.972   4.957  0.3502  0.1002 -0.1322
   12MOL0     C 1524   4.557   7.958   5.065 -0.4370  0.0855 -0.1265
   12MOL0     C 1525   4.695   7.902   5.021  0.3669  0.2813  0.4466
   12MOL0     C 1526   4.804   7.884   5.135 -0.3395 -0.4962  0.2824
   12MOL0     C 1527   4.847   8.019   5.194 -0.0963 -0.5666 -0.2737
   12MOL0     C 1528   4.886   8.118   5.078  0.4054 -0.0034 -0.9577
   12MOL0     C 1529   4.923   8.255   5.141  0.5836  0.2271 -0.5853
   12MOL0    Cl 1530   4.894   8.386   5.022  0.0364 -0.7700 -0.0087
   12MOL0     C 1531   4.330   7.670   5.121 -0.8653  0.9712 -0.1649
   12MOL0     C 1532   4.304   7.537   5.087  0.2950  0.5585  0.5660
   12MOL0     O 1533   4.361   7.400   4.818 -0.1393  0.8338  0.5178
   12MOL0     C 1534   4.115   7.134   4.837 -1.4921  0.2408 -0.5829
   12MOL0     C 1535   4.084   7.007   4.802  0.2111 -0.0916  0.3815
   12MOL0     N 1536   4.393   6.236   5.004  0.4936 -0.0820 -0.0537
   12MOL0     N 1537   4.434   6.134   4.928 -0.4256 -0.7547 -0.4941
   12MOL0     C 1538   4.232   5.369   3.909 -0.4049 -0.2678  0.5714
   12MOL0     C 1539   4.281   5.286   3.806 -0.3759  1.2033  0.5762
   12MOL0     C 1540   4.572   4.940   3.666  0.2742  0.3268 -1.0456
   12MOL0     C 1541   4.641   5.016   3.573  0.1336 -0.0972  0.1950
   12MOL0     C 1542   4.740   4.965   3.493  1.2057 -0.3511 -0.5751
   12MOL0     C 1543   4.781   4.830   3.493  0.8063  0.7348 -0.6783
   12MOL0     O 1544   4.868   4.785   3.395  0.1101  0.7385 -0.2102
   12MOL0     C 1545   4.818   4.668   3.321  0.4502  0.8382 -0.4569
   12MOL0     C 1546   4.887   4.539   3.365 -0.3454  0.4927  1.4730
   12MOL0     C 1547   5.035   4.564   3.372  0.1807  0.4268  0.2797
   12MOL0     C 1548   5.125   4.436   3.365  0.4706  0.7360 -0.4631
   12MOL0     C 1549   5.108   4.347   3.480  0.2688  0.4330  0.1794
   12MOL0     C 1550   5.122   4.256   3.556  0.4088  0.6484  0.4923
   12MOL0     C 1551   4.717   4.755   3.595 -0.2094  0.7248 -0.1793
   12MOL0     C 1552   4.617   4.808   3.678 -1.3550  0.3940  0.0948
   12MOL0     H 1553   4.524   5.122   3.973 -1.2774 -0.6402 -0.6808
   12MOL0     H 1554   4.469   5.290   4.148  1.8594  2.3753 -0.6926
   12MOL0     H 1555   4.168   5.462   4.316 -0.5101 -2.5426  1.6268
   12MOL0     H 1556   4.270   5.318   4.283  1.0979 -0.6812  1.1268
   12MOL0     H 1557   4.380   5.508   4.417  0.2022  1.4706  0.2157
   12MOL0     H 1558   4.458   5.496   4.271  0.3521  0.9355  1.4857
   12MOL0     H 1559   4.302   5.665   4.169 -3.8430 -1.8178  0.9104
   12MOL0     H 1560   4.228   5.688   4.321 -1.5781 -0.7567 -2.4067
   12MOL0     H 1561   4.531   5.737   4.309 -0.7903  0.1471 -1.2770
   12MOL0     H 1562   4.422   5.868   4.261  1.5102  0.0696  1.0722
   12MOL0     H 1563   4.307   5.869   4.472 -0.1037 -0.5924 -3.9959
   12MOL0     H 1564   4.424   5.743   4.539 -1.9886 -0.5220 -0.0173
   12MOL0     H 1565   4.602   5.882   4.565  0.3905 -0.7750 -0.7494
   12MOL0     H 1566   4.523   6.008   4.463  0.4268  1.5492  2.0099
   12MOL0     H 1567   4.346   6.051   4.629 -0.5864 -0.3669  2.6646
   12MOL0     H 1568   4.421   5.920   4.736  0.7758  0.9486  1.4993
   12MOL0     H 1569   4.546   6.176   4.629  4.4362  1.3627  0.1137
   12MOL0     H 1570   4.620   6.060   4.753 -0.0523  2.5127 -0.8531
   12MOL0     H 1571   4.461   6.400   4.738  0.0259  0.7679  0.8922
   12MOL0     H 1572   4.307   6.486   5.085 -3.5591 -3.6886 -1.1815
   12MOL0     H 1573   4.409   6.569   4.981  1.0176 -0.4928 -1.1131
   12MOL0     H 1574   4.164   6.436   4.849  1.1809 -0.9507 -0.2677
   12MOL0     H 1575   4.279   6.559   4.804 -0.0767 -1.5297  0.0810
   12MOL0     H 1576   4.187   6.676   5.034 -2.1970  1.1322  1.1342
   12MOL0     H 1577   4.049   6.570   5.005  2.3450 -0.5037  2.4439
   12MOL0     H 1578   4.028   6.804   4.921  0.2053 -1.5548  2.0115
   12MOL0     H 1579   3.985   6.693   4.807 -0.0985 -2.0155  1.2994
   12MOL0     H 1580   4.397   6.892   4.756 -0.3148  0.8885  0.3170
   12MOL0     H 1581   4.540   7.106   4.874  0.3835  3.3177  0.9597
   12MOL0     H 1582   4.538   7.073   4.697 -2.0717  0.3648 -1.2521
   12MOL0     H 1583   4.518   7.239   4.751  0.1380  0.9868  2.1873
   12MOL0     H 1584   4.028   7.593   4.893  0.6694 -1.3508  0.7583
   12MOL0     H 1585   4.082   7.844   4.978  1.4425  1.6976  3.1335
   12MOL0     H 1586   4.230   7.998   4.948  0.6390  0.4872 -1.7250
   12MOL0     H 1587   4.320   8.107   5.056 -1.1061 -0.2796 -2.2307
   12MOL0     H 1588   4.431   7.875   4.909  0.6378  1.4256 -3.1147
   12MOL0     H 1589   4.460   8.052   4.884 -2.9755  0.1574 -0.8915
   12MOL0     H 1590   4.521   7.908   5.156 -3.9745  3.0594  0.3300
   12MOL0     H 1591   4.573   8.061   5.096 -1.1660 -0.1776  1.2113
   12MOL0     H 1592   4.687   7.809   4.963 -1.1679  0.9089 -0.3906
   12MOL0     H 1593   4.728   7.967   4.940  3.6723 -1.6092  0.1143
   12MOL0     H 1594   4.888   7.844   5.077 -0.7164 -1.8539  0.6156
   12MOL0     H 1595   4.771   7.807   5.206 -1.2637 -1.3783 -1.0508
   12MOL0     H 1596   4.759   8.064   5.240  1.6041  0.2347  2.4544
   12MOL0     H 1597   4.933   8.019   5.261 -0.3712  0.8091  0.1207
   12MOL0     H 1598   4.804   8.138   5.007 -0.5990  0.1802  0.2176
   12MOL0     H 1599   4.973   8.090   5.018  0.6364  1.4295 -1.3238
   12MOL0     H 1600   5.023   8.256   5.183  0.9420  0.3447 -1.4159
   12MOL0     H 1601   4.856   8.280   5.224  0.3792  0.3098 -0.7703
   12MOL0     H 1602   4.417   7.673   5.185 -1.7904 -0.3529  1.2536
   12MOL0     H 1603   4.375   7.464   5.125 -1.3535 -1.5453 -0.1476
   12MOL0     H 1604   4.035   7.203   4.860 -0.4145  0.4277  3.3841
   12MOL0     H 1605   3.978   6.983   4.804  0.3077 -1.2779 -3.1751
   12MOL0     H 1606   4.139   5.424   3.899  1.1309  2.2825 -0.6663
   12MOL0     H 1607   4.232   5.278   3.709 -0.3466 -3.9945  0.6978
   12MOL0     H 1608   4.593   5.113   3.564 -2.4532 -0.9146  3.2506
   12MOL0     H 1609   4.784   5.029   3.417  0.4711  2.0315  0.8986
   12MOL0     H 1610   4.712   4.645   3.335  0.8136 -0.5880  0.1530
   12MOL0     H 1611   4.844   4.672   3.215 -0.2366  0.5080 -0.6400
   12MOL0     H 1612   4.867   4.458   3.294  2.3754 -1.4399  2.7175
   12MOL0     H 1613   4.844   4.506   3.460 -0.1018  2.4605  2.3237
   12MOL0     H 1614   5.057   4.623   3.461 -4.1233  0.9245  1.2211
   12MOL0     H 1615   5.070   4.635   3.295 -1.8807 -0.9773 -2.1170
   12MOL0     H 1616   5.232   4.459   3.374  0.5522 -0.2773  1.9034
   12MOL0     H 1617   5.120   4.384   3.269  3.2253  2.3561 -1.6112
   12MOL0     H 1618   5.119   4.167   3.616  0.0667  0.2999 -0.0260
   12MOL0     H 1619   4.742   4.649   3.594  1.6564  1.0717  1.5733
   12MOL0     H 1620   4.577   4.733   3.746  3.1868 -2.2571  0.2306
   13MOL0     O 1621   9.353   8.283   7.595 -0.0739 -0.3489 -0.0518
   13MOL0     C 1622   9.336   8.165   7.588 -0.0222 -0.3958 -0.7472
   13MOL0     O 1623   9.376   8.087   7.488  0.4106  0.7179 -0.5017
   13MOL0     C 1624   9.475   8.129   7.399  0.9477  0.0502 -0.4219
   13MOL0     C 1625   9.601   8.189   7.432 -0.0940  0.6945 -0.3969
   13MOL0     C 1626   9.698   8.207   7.339  1.1918  0.4919 -1.2270
   13MOL0     C 1627   9.675   8.164   7.203  0.1533 -0.4961  0.0023
   13MOL0     O 1628   9.759   8.192   7.100 -0.4637  0.3384  0.1299
   13MOL0     C 1629   9.888   8.117   7.107 -0.0119  0.1251 -0.3698
   13MOL0     C 1630   9.984   8.193   7.024 -0.6909  0.3707  0.4600
   13MOL0     C 1631  10.111   8.104   6.993  0.4648 -0.3803 -0.9666
   13MOL0     C 1632  10.207   8.169   6.901  0.1554 -1.0020 -0.9184
   13MOL0     C 1633  10.206   8.124   6.753  1.1674 -0.3609  0.8313
   13MOL0     C 1634  10.275   7.994   6.713  0.1919 -0.7116  0.3186
   13MOL0     C 1635  10.431   8.007   6.714  0.0482  0.2676  0.5181
   13MOL0     C 1636  10.503   7.882   6.652 -0.2513 -0.3282  0.0083
   13MOL0     N 1637  10.629   7.834   6.723 -0.0071  0.3150 -1.1639
   13MOL0     C 1638  10.763   7.866   6.698  0.5160  0.5748  0.2901
   13MOL0     C 1639  10.834   7.817   6.800 -0.1153  0.1809 -0.4252
   13MOL0     C 1640  10.988   7.832   6.797  0.1000 -0.6465  0.2416
   13MOL0     C 1641  11.040   7.963   6.874 -0.7756  0.1553  0.7543
   13MOL0     C 1642  11.191   7.980   6.894  0.4435 -0.4790  0.4912
   13MOL0     C 1643  11.231   7.886   7.006 -0.2979  0.5823 -1.1971
   13MOL0     O 1644  11.378   7.912   7.021  0.2448  0.8649  0.4798
   13MOL0     C 1645  11.426   8.016   7.093  0.9116  0.1545  0.9890
   13MOL0     C 1646  11.348   8.106   7.167  0.7027  0.3681 -0.2987
   13MOL0     C 1647  11.402   8.224   7.206 -0.9496  0.2524  0.0679
   13MOL0     C 1648  11.325   8.326   7.285  0.0289 -0.1048  0.2292
   13MOL0     C 1649  11.539   8.254   7.162  0.2597  0.8249  0.3811
   13MOL0     C 1650  11.620   8.366   7.197  1.0714  0.7610  0.4021
   13MOL0     O 1651  11.750   8.371   7.138 -0.5156 -0.1282  0.1086
   13MOL0     C 1652  11.824   8.487   7.155 -0.2097 -0.5952 -1.1200
   13MOL0     C 1653  11.784   8.622   7.138  0.0491 -0.2710  0.7571
   13MOL0     C 1654  11.868   8.729   7.152 -0.1487 -0.2584 -0.9207
   13MOL0     C 1655  12.000   8.713   7.190  0.9979  0.8766 -0.1656
   13MOL0     O 1656  12.067   8.828   7.203  0.2232  0.5465  0.1480
   13MOL0     C 1657  12.205   8.827   7.238  0.4902 -0.3019  1.1179
   13MOL0     C 1658  12.220   8.807   7.392  0.6623  0.3950  0.0872
   13MOL0     C 1659  12.169   8.929   7.474 -0.2256  0.1807  1.0884
   13MOL0     C 1660  12.178   8.910   7.632 -0.1785  0.5467  1.2345
   13MOL0     C 1661  12.037   8.904   7.694  0.1786 -0.3585 -0.8511
   13MOL0     C 1662  11.961   8.778   7.655  0.2908  0.3138  0.0719
   13MOL0     C 1663  11.809   8.774   7.673  0.1111  0.3774 -0.0381
   13MOL0     C 1664  11.762   8.635   7.667 -0.2263  0.7529  0.2880
   13MOL0    Cl 1665  11.614   8.613   7.766 -0.2528  0.3891  0.0197
   13MOL0     C 1666  12.050   8.583   7.196  0.1008 -0.1574 -0.3561
   13MOL0     C 1667  11.962   8.473   7.187  0.0743 -0.4715  0.4319
   13MOL0     O 1668  11.578   8.441   7.283  0.5666 -0.2209 -0.2878
   13MOL0     C 1669  11.599   8.168   7.075 -0.2603 -0.0095  0.0656
   13MOL0     C 1670  11.550   8.052   7.042  0.2381 -0.1769  0.7795
   13MOL0     N 1671  10.744   7.766   6.887 -0.3582  0.3091  0.5820
   13MOL0     N 1672  10.628   7.782   6.845  1.4417  0.5428 -0.3260
   13MOL0     C 1673   9.551   8.120   7.166 -0.8850 -0.7649  0.1163
   13MOL0     C 1674   9.451   8.103   7.262 -0.2495  0.2601  0.5520
   13MOL0     C 1675   9.229   8.118   7.685  0.2576  0.3707 -0.4040
   13MOL0     C 1676   9.180   7.982   7.687  0.7562  0.0022  0.6400
   13MOL0     C 1677   9.085   7.937   7.778  0.5387  0.3364  0.1583
   13MOL0     C 1678   9.041   8.025   7.882 -0.6480  0.6907 -0.0252
   13MOL0     O 1679   8.944   7.971   7.963 -0.5286 -0.1387 -0.1451
   13MOL0     C 1680   8.906   8.032   8.095  0.2761  1.1676 -0.4211
   13MOL0     C 1681   8.797   7.937   8.163  0.1400  0.2072  0.2503
   13MOL0     C 1682   8.828   7.776   8.163  0.6290  0.6475 -0.2473
   13MOL0     C 1683   8.950   7.752   8.248 -1.1045  1.1921 -0.3913
   13MOL0     C 1684   8.967   7.612   8.289  0.4463 -0.3654 -0.9166
   13MOL0     C 1685   8.963   7.494   8.310 -0.0277  1.2496 -0.9606
   13MOL0     C 1686   9.075   8.156   7.873 -0.4047  0.2474  0.4633
   13MOL0     C 1687   9.173   8.199   7.789 -0.5052 -0.5062  0.3533
   13MOL0     H 1688   9.632   8.219   7.532  1.1446 -2.4797  0.2947
   13MOL0     H 1689   9.787   8.247   7.386  0.6612 -1.6437  1.8409
   13MOL0     H 1690   9.917   8.110   7.212  0.4176 -0.2456 -0.5109
   13MOL0     H 1691   9.860   8.019   7.067  0.1237 -0.8445  1.7687
   13MOL0     H 1692   9.936   8.208   6.927  1.1566 -1.0588 -0.7530
   13MOL0     H 1693  10.002   8.292   7.065 -0.8882  0.6355 -0.0799
   13MOL0     H 1694  10.171   8.083   7.082  0.3821 -1.2014 -1.1036
   13MOL0     H 1695  10.080   8.013   6.942 -1.8865 -1.2270  1.7247
   13MOL0     H 1696  10.204   8.278   6.898 -2.6199 -0.9703  0.0215
   13MOL0     H 1697  10.304   8.133   6.935 -0.0241 -0.3921  0.2730
   13MOL0     H 1698  10.098   8.123   6.733  0.8716 -3.2631  2.1225
   13MOL0     H 1699  10.250   8.203   6.692  1.0544 -1.5458 -0.8420
   13MOL0     H 1700  10.238   7.907   6.768 -0.1346 -2.3462 -2.3044
   13MOL0     H 1701  10.258   7.978   6.606  0.5256 -1.2834  0.3477
   13MOL0     H 1702  10.465   8.097   6.662  1.6536 -0.9581 -0.6708
   13MOL0     H 1703  10.456   8.021   6.819  1.6238 -1.4067  0.4252
   13MOL0     H 1704  10.518   7.882   6.544 -2.9492 -1.9399 -0.4519
   13MOL0     H 1705  10.436   7.797   6.670  1.0020 -1.2955  0.3042
   13MOL0     H 1706  10.811   7.908   6.611 -1.6585  3.8117  0.5099
   13MOL0     H 1707  11.012   7.742   6.855 -1.2595  0.4721  2.6714
   13MOL0     H 1708  11.039   7.838   6.700  2.6804  2.2173  1.6151
   13MOL0     H 1709  10.991   7.980   6.971  2.3661 -1.9387  2.9246
   13MOL0     H 1710  11.016   8.053   6.816 -1.1368 -1.0528 -1.0208
   13MOL0     H 1711  11.203   8.086   6.919  1.7610  0.0814 -2.1307
   13MOL0     H 1712  11.245   7.974   6.799 -0.7586  1.9313 -0.4161
   13MOL0     H 1713  11.225   7.781   6.978  3.7933  0.2663 -1.5899
   13MOL0     H 1714  11.175   7.904   7.098  1.7790  3.0307 -0.2565
   13MOL0     H 1715  11.250   8.068   7.194  0.3271  0.6867 -1.2191
   13MOL0     H 1716  11.291   8.412   7.226 -1.8942  0.5244  2.1103
   13MOL0     H 1717  11.241   8.274   7.331  1.3847 -1.9704  0.6989
   13MOL0     H 1718  11.387   8.351   7.371  0.5168  0.1169 -0.1799
   13MOL0     H 1719  11.676   8.633   7.130  0.2283  0.8259 -0.5511
   13MOL0     H 1720  11.823   8.826   7.129 -0.0609  0.0146 -0.0080
   13MOL0     H 1721  12.261   8.747   7.188  1.3252 -1.8422  4.2075
   13MOL0     H 1722  12.241   8.929   7.219 -0.0499 -0.1350  0.9958
   13MOL0     H 1723  12.178   8.715   7.432  1.1580 -0.2271 -0.8078
   13MOL0     H 1724  12.329   8.802   7.400  0.5350 -0.7588  1.5126
   13MOL0     H 1725  12.065   8.932   7.439 -0.3769  0.6427  1.5623
   13MOL0     H 1726  12.217   9.020   7.436  1.7390 -1.6776 -1.1508
   13MOL0     H 1727  12.222   8.814   7.659 -0.2418  1.2618  4.1449
   13MOL0     H 1728  12.239   8.984   7.684 -0.8358  0.1967  2.5258
   13MOL0     H 1729  11.988   8.992   7.651  0.9167  2.2749  3.1797
   13MOL0     H 1730  12.043   8.916   7.802  1.7274 -3.4795 -0.4664
   13MOL0     H 1731  11.983   8.757   7.550  0.4634 -3.9937  0.7948
   13MOL0     H 1732  12.003   8.695   7.712 -1.8874 -0.9750 -0.1317
   13MOL0     H 1733  11.759   8.836   7.598 -1.6162 -1.6470 -0.6503
   13MOL0     H 1734  11.790   8.823   7.769  4.0179  2.8532 -0.2927
   13MOL0     H 1735  11.834   8.560   7.701  1.8249 -0.2724 -5.2490
   13MOL0     H 1736  11.734   8.609   7.564  1.5495  2.7317 -0.7516
   13MOL0     H 1737  12.158   8.566   7.196 -0.0616 -1.5231 -2.2289
   13MOL0     H 1738  11.991   8.368   7.188  0.0508 -0.4782  0.4197
   13MOL0     H 1739  11.696   8.164   7.026 -0.3534 -3.6991 -0.1586
   13MOL0     H 1740  11.603   7.995   6.966 -0.2716  1.1991 -0.6461
   13MOL0     H 1741   9.533   8.082   7.066  1.7611 -2.2664  0.1262
   13MOL0     H 1742   9.359   8.066   7.218  0.3141  0.7492 -1.1332
   13MOL0     H 1743   9.222   7.919   7.610 -0.7390  1.8585 -1.8279
   13MOL0     H 1744   9.061   7.831   7.781 -1.9761  0.8486  1.0819
   13MOL0     H 1745   8.993   8.045   8.159  0.9996 -2.2591 -0.5255
   13MOL0     H 1746   8.863   8.132   8.081  0.6903  1.6029  1.2525
   13MOL0     H 1747   8.707   7.947   8.102  0.1733 -0.2209  0.1252
   13MOL0     H 1748   8.775   7.973   8.263  2.1211 -2.8229  1.9437
   13MOL0     H 1749   8.852   7.731   8.067 -2.4625 -2.8564  0.4316
   13MOL0     H 1750   8.741   7.731   8.212 -0.0503  0.8473 -1.2332
   13MOL0     H 1751   8.934   7.810   8.340 -2.6775 -3.1095  2.3772
   13MOL0     H 1752   9.031   7.794   8.188  0.4091 -1.9462 -0.7042
   13MOL0     H 1753   8.959   7.389   8.333  0.6579  1.5240  0.5232
   13MOL0     H 1754   9.030   8.234   7.933 -3.4939 -1.8378  1.0938
   13MOL0     H 1755   9.203   8.301   7.811 -2.2778 -0.1136  1.0836
   14MOL0     O 1756   1.172   4.740   9.857 -0.1112 -0.0051 -0.3142
   14MOL0     C 1757   1.170   4.861   9.816 -0.5180  0.0620 -0.2025
   14MOL0     O 1758   1.237   4.966   9.864 -0.1427  0.3290  0.6199
   14MOL0     C 1759   1.294   4.946   9.981 -0.3107 -1.0809 -0.8594
   14MOL0     C 1760   1.235   4.970  10.103  1.2242 -0.4499  0.8626
   14MOL0     C 1761   1.307   4.959  10.225 -0.0091 -0.5738 -0.5950
   14MOL0     C 1762   1.442   4.906  10.228  0.4161  0.2243  0.3057
   14MOL0     O 1763   1.527   4.894  10.336  0.0265  0.0346 -0.3100
   14MOL0     C 1764   1.470   4.847  10.465 -0.1471 -0.0475 -0.1045
   14MOL0     C 1765   1.589   4.861  10.563 -0.1308 -0.7879 -0.1991
   14MOL0     C 1766   1.514   4.826  10.695 -0.5364 -0.3303  0.7472
   14MOL0     C 1767   1.604   4.797  10.813 -0.2924  0.4377  0.7625
   14MOL0     C 1768   1.735   4.878  10.791 -0.2284 -0.3635 -0.9320
   14MOL0     C 1769   1.833   4.854  10.911  0.1403  0.1272 -1.4111
   14MOL0     C 1770   1.936   4.966  10.930 -0.5016  1.4998 -0.0325
   14MOL0     C 1771   1.888   5.082  11.026 -0.0544  1.2018 -0.2810
   14MOL0     N 1772   2.001   5.170  11.037 -0.0513 -0.0474  0.1137
   14MOL0     C 1773   2.087   5.152  11.135 -0.2642  0.1273 -0.2059
   14MOL0     C 1774   2.177   5.256  11.123  1.0178 -0.1889 -0.5379
   14MOL0     C 1775   2.298   5.294  11.212 -0.2211  0.2048  0.9214
   14MOL0     C 1776   2.419   5.368  11.155 -0.5000  0.1650 -0.3420
   14MOL0     C 1777   2.508   5.269  11.096 -0.9209  0.9895  1.0961
   14MOL0     C 1778   2.566   5.318  10.962 -0.1554 -0.4363 -0.0024
   14MOL0     O 1779   2.603   5.204  10.893 -0.8203  0.9381  0.4930
   14MOL0     C 1780   2.533   5.158  10.785  0.7328 -0.3803  0.6067
   14MOL0     C 1781   2.592   5.071  10.702  0.0111 -0.4357 -0.5854
   14MOL0     C 1782   2.543   5.019  10.589 -0.1960  0.4215  1.1080
   14MOL0     C 1783   2.640   4.941  10.498  0.4261 -0.0855 -0.4742
   14MOL0     C 1784   2.403   5.048  10.561  0.1723 -0.3102 -0.4028
   14MOL0     C 1785   2.331   5.005  10.441  0.6557 -0.6230 -0.4854
   14MOL0     O 1786   2.196   4.966  10.465  0.3498 -0.1949 -0.1241
   14MOL0     C 1787   2.128   4.908  10.362 -0.6849 -0.5854 -0.2144
   14MOL0     C 1788   2.179   4.814  10.269  0.1468  0.7019  0.9167
   14MOL0     C 1789   2.092   4.745  10.185 -0.6074  0.0882 -0.2391
   14MOL0     C 1790   1.946   4.766  10.194 -0.0493  0.0927 -0.5849
   14MOL0     O 1791   1.860   4.729  10.094  1.2407  0.4828 -0.4801
   14MOL0     C 1792   1.880   4.610  10.014 -0.2398  1.3058 -0.1050
   14MOL0     C 1793   1.749   4.556   9.948 -0.0264 -0.1468 -0.1247
   14MOL0     C 1794   1.668   4.473  10.034 -0.0256  0.3162  0.3360
   14MOL0     C 1795   1.544   4.432   9.956 -0.7324  0.9168 -1.9079
   14MOL0     C 1796   1.447   4.345  10.044  0.0504  0.0724  0.1557
   14MOL0     C 1797   1.381   4.412  10.165 -0.3986  1.0882  0.6478
   14MOL0     C 1798   1.329   4.560  10.151  0.4919 -0.5414  0.4185
   14MOL0     C 1799   1.214   4.584  10.249  0.5805 -0.9798  0.4516
   14MOL0    Cl 1800   1.246   4.508  10.410  0.5080  0.3391 -0.1694
   14MOL0     C 1801   1.904   4.872  10.280 -0.1167  0.1400 -0.4580
   14MOL0     C 1802   1.989   4.929  10.372 -0.3311 -0.0990  0.8933
   14MOL0     O 1803   2.385   5.028  10.330  0.4903 -0.3746  0.4881
   14MOL0     C 1804   2.327   5.119  10.657 -0.3682  0.2861  0.7634
   14MOL0     C 1805   2.393   5.184  10.767 -0.1250  0.3260  0.3764
   14MOL0     N 1806   2.143   5.333  11.015  0.6256 -0.7480 -0.3603
   14MOL0     N 1807   2.033   5.279  10.961  0.7246 -1.0736  0.8794
   14MOL0     C 1808   1.496   4.889  10.107 -1.2625 -0.7288  0.2750
   14MOL0     C 1809   1.430   4.901   9.984 -0.6361  0.4905 -0.2598
   14MOL0     C 1810   1.085   4.913   9.699 -0.4607  0.8202 -0.0769
   14MOL0     C 1811   1.052   5.046   9.681  0.0327 -0.0145 -0.5987
   14MOL0     C 1812   0.969   5.077   9.571  0.2101  0.4335  0.8624
   14MOL0     C 1813   0.923   4.986   9.470 -0.2599 -0.0230 -0.7393
   14MOL0     O 1814   0.858   5.032   9.357 -0.0716 -0.4044  0.2488
   14MOL0     C 1815   0.887   5.156   9.293 -0.4381  0.5705  0.0768
   14MOL0     C 1816   0.809   5.176   9.169  0.0167 -0.8513 -1.4993
   14MOL0     C 1817   0.838   5.080   9.063 -0.4412  0.4674  0.2531
   14MOL0     C 1818   0.761   5.127   8.932 -0.2636  0.2442  0.2743
   14MOL0     C 1819   0.770   5.043   8.813 -0.0691  0.0452 -1.2257
   14MOL0     C 1820   0.784   4.973   8.719  0.3231 -0.4854  0.2737
   14MOL0     C 1821   0.961   4.853   9.492 -0.4490 -0.3097  0.1699
   14MOL0     C 1822   1.039   4.823   9.608  0.1797  0.8107  0.5361
   14MOL0     H 1823   1.128   4.986  10.107  1.2279  0.9617 -1.9911
   14MOL0     H 1824   1.265   4.978  10.323  1.3111 -0.7649  0.0299
   14MOL0     H 1825   1.384   4.908  10.496 -0.9284 -1.3211  0.3460
   14MOL0     H 1826   1.439   4.742  10.459 -0.3759  0.1181 -3.5106
   14MOL0     H 1827   1.681   4.805  10.540  2.6900  3.0891  0.5242
   14MOL0     H 1828   1.618   4.966  10.549 -1.1365 -0.5351 -0.4559
   14MOL0     H 1829   1.448   4.911  10.713 -1.5072 -1.1200  1.0288
   14MOL0     H 1830   1.435   4.751  10.689 -1.8524  0.7879  2.8402
   14MOL0     H 1831   1.566   4.818  10.913  1.7706  3.0777  1.1103
   14MOL0     H 1832   1.635   4.693  10.797  1.2685  0.8092  1.2313
   14MOL0     H 1833   1.787   4.859  10.697  2.3327 -2.1331  0.7067
   14MOL0     H 1834   1.714   4.986  10.791  3.4863  0.8669 -7.2760
   14MOL0     H 1835   1.775   4.847  11.003 -1.1073 -2.9587 -2.2714
   14MOL0     H 1836   1.881   4.756  10.899  0.8561  0.2671  0.1500
   14MOL0     H 1837   2.028   4.913  10.955 -0.9556 -0.9531 -2.8807
   14MOL0     H 1838   1.965   4.987  10.826  1.4453 -0.5587  0.0041
   14MOL0     H 1839   1.858   5.032  11.118 -1.2990  0.5765 -0.9955
   14MOL0     H 1840   1.798   5.133  10.991 -0.4770 -0.7867 -2.3406
   14MOL0     H 1841   2.079   5.071  11.208  0.9328 -0.1610 -0.3703
   14MOL0     H 1842   2.265   5.356  11.297 -1.5832  0.2242  0.3999
   14MOL0     H 1843   2.342   5.201  11.249  0.2986 -0.7578 -1.8837
   14MOL0     H 1844   2.475   5.414  11.237  0.6409 -1.1144 -0.3583
   14MOL0     H 1845   2.390   5.443  11.080 -2.1462  0.2662  0.3485
   14MOL0     H 1846   2.447   5.181  11.072 -0.3490  0.8258  0.1976
   14MOL0     H 1847   2.583   5.232  11.166  0.0429 -2.6187 -1.5083
   14MOL0     H 1848   2.655   5.374  10.991 -0.7331  0.4402  0.1138
   14MOL0     H 1849   2.490   5.371  10.904 -0.3931  1.0284  1.5664
   14MOL0     H 1850   2.694   5.049  10.734  0.4699  0.1481 -1.5659
   14MOL0     H 1851   2.722   4.894  10.554  0.1300 -1.9694 -1.5383
   14MOL0     H 1852   2.579   4.858  10.461  1.0580 -0.5548 -0.4788
   14MOL0     H 1853   2.683   4.996  10.413  0.1398 -0.3951 -0.8258
   14MOL0     H 1854   2.286   4.803  10.254  0.0787 -1.6609  1.7901
   14MOL0     H 1855   2.156   4.694  10.115 -0.9982  1.9517 -2.0581
   14MOL0     H 1856   1.954   4.627   9.935  0.2554 -0.6712 -0.1302
   14MOL0     H 1857   1.909   4.528  10.081 -0.3748 -0.4632 -2.1050
   14MOL0     H 1858   1.697   4.647   9.917  0.3859  1.0097  2.2643
   14MOL0     H 1859   1.778   4.492   9.865  0.3497  0.8174 -0.7520
   14MOL0     H 1860   1.634   4.543  10.111 -0.4364  2.8374 -2.0344
   14MOL0     H 1861   1.713   4.387  10.086 -1.7261 -0.3016  0.8738
   14MOL0     H 1862   1.496   4.522   9.915 -0.1836  0.7520 -2.9482
   14MOL0     H 1863   1.578   4.368   9.874  0.4391  0.0074 -0.7542
   14MOL0     H 1864   1.501   4.257  10.080 -0.4504 -1.3327 -2.3026
   14MOL0     H 1865   1.366   4.316   9.977 -1.5753  1.7934  1.2619
   14MOL0     H 1866   1.303   4.344  10.201  0.2058  1.1715  2.2241
   14MOL0     H 1867   1.458   4.427  10.242  0.6091  0.2903 -0.1778
   14MOL0     H 1868   1.289   4.590  10.054 -0.8938  2.4546  1.7557
   14MOL0     H 1869   1.395   4.638  10.190 -2.5253  2.9948 -0.9136
   14MOL0     H 1870   1.127   4.535  10.204  0.8425  1.5347 -3.3088
   14MOL0     H 1871   1.207   4.693  10.255  0.6162 -0.9647  0.2346
   14MOL0     H 1872   1.801   4.907  10.287  0.5620  1.8998  2.7917
   14MOL0     H 1873   1.955   5.007  10.439  0.0428 -0.0888  1.0754
   14MOL0     H 1874   2.224   5.137  10.628 -0.4554 -1.5856 -0.2962
   14MOL0     H 1875   2.330   5.242  10.834  1.5964  1.6409  0.9387
   14MOL0     H 1876   1.602   4.878  10.087 -1.3708  0.6402 -1.2363
   14MOL0     H 1877   1.478   4.875   9.890 -0.9771  1.6986 -0.7862
   14MOL0     H 1878   1.086   5.112   9.760  1.4676  0.6300 -1.7070
   14MOL0     H 1879   0.923   5.174   9.557 -2.0628 -0.6467  0.3000
   14MOL0     H 1880   0.845   5.240   9.349 -2.2695 -0.4158  0.2511
   14MOL0     H 1881   0.994   5.170   9.277 -0.3797 -0.5872 -0.6880
   14MOL0     H 1882   0.837   5.274   9.130 -1.5534  0.6170  0.7727
   14MOL0     H 1883   0.702   5.187   9.190  0.2684  0.9366 -0.9482
   14MOL0     H 1884   0.820   4.977   9.096  4.2229  0.2113  2.7067
   14MOL0     H 1885   0.944   5.097   9.047 -0.7155  1.6337 -0.4747
   14MOL0     H 1886   0.797   5.228   8.914  3.7879 -1.0702 -0.0251
   14MOL0     H 1887   0.653   5.129   8.949 -0.3250 -1.0385  0.1929
   14MOL0     H 1888   0.771   4.899   8.642  2.0573 -1.3109  0.7326
   14MOL0     H 1889   0.935   4.776   9.420 -1.0081 -0.0381  0.0781
   14MOL0     H 1890   1.079   4.724   9.629  2.8475  1.8462  0.7472
   15MOL0     O 1891  10.065   2.689   3.765  0.1711 -0.3523  0.2516
   15MOL0     C 1892  10.059   2.622   3.877 -0.4400 -0.3894 -0.3499
   15MOL0     O 1893  10.170   2.569   3.944  0.1095 -0.9925 -0.4921
   15MOL0     C 1894  10.292   2.624   3.943 -0.8381 -0.6287  0.3400
   15MOL0     C 1895  10.406   2.546   3.918 -0.6104 -0.3646  0.1659
   15MOL0     C 1896  10.534   2.603   3.940 -0.1622  0.1243  0.0666
   15MOL0     C 1897  10.546   2.739   3.953  0.5163 -0.1002  0.6738
   15MOL0     O 1898  10.663   2.810   3.962  0.3289 -0.1946  0.2497
   15MOL0     C 1899  10.760   2.807   3.855  0.4215 -0.3194  0.0101
   15MOL0     C 1900  10.831   2.945   3.866  0.3636  0.3437  0.4178
   15MOL0     C 1901  10.947   2.945   3.761  0.1751  0.1857 -0.5068
   15MOL0     C 1902  11.019   3.085   3.765  0.2821 -0.1095  0.4065
   15MOL0     C 1903  11.152   3.076   3.680  0.7708 -0.5240  0.0909
   15MOL0     C 1904  11.266   3.175   3.721  0.2253 -0.6714 -0.3586
   15MOL0     C 1905  11.230   3.315   3.722 -0.8716 -0.2814 -0.0272
   15MOL0     C 1906  11.356   3.420   3.725  0.2524  0.3079  0.2508
   15MOL0     N 1907  11.455   3.393   3.625 -0.8635 -0.1693 -0.2746
   15MOL0     C 1908  11.446   3.422   3.490  0.0993 -1.5849  0.7682
   15MOL0     C 1909  11.571   3.402   3.439 -0.1544 -0.3657  0.0871
   15MOL0     C 1910  11.602   3.428   3.287 -0.2835  0.2691  0.6399
   15MOL0     C 1911  11.651   3.574   3.242  0.0533  0.7854 -0.0305
   15MOL0     C 1912  11.792   3.603   3.285  0.6968 -0.3193  0.4077
   15MOL0     C 1913  11.826   3.749   3.284 -0.2041 -0.2225 -0.6484
   15MOL0     O 1914  11.725   3.827   3.361 -0.3447  0.4318 -0.3962
   15MOL0     C 1915  11.747   3.852   3.489 -0.1669  0.2705  0.3887
   15MOL0     C 1916  11.837   3.954   3.522 -0.1693  0.0596  0.6834
   15MOL0     C 1917  11.858   3.990   3.653 -0.3394 -0.2507 -0.3750
   15MOL0     C 1918  11.951   4.102   3.685  0.0353  0.2038 -0.4502
   15MOL0     C 1919  11.790   3.921   3.763 -0.9287  0.8920  0.1397
   15MOL0     C 1920  11.821   3.944   3.906  0.4365  0.6973 -0.7798
   15MOL0     O 1921  11.801   3.840   3.996 -0.6786 -0.0149  0.3386
   15MOL0     C 1922  11.850   3.844   4.120 -0.4155  0.1959  0.3418
   15MOL0     C 1923  11.989   3.873   4.147  0.1109  0.1509  0.2799
   15MOL0     C 1924  12.033   3.843   4.277 -0.0285 -0.0225  0.5483
   15MOL0     C 1925  11.953   3.802   4.381  0.5229 -0.1603  0.1573
   15MOL0     O 1926  11.985   3.781   4.506 -0.6788 -0.1390 -0.4222
   15MOL0     C 1927  11.929   3.882   4.597 -0.0131  0.1877  0.3854
   15MOL0     C 1928  12.047   3.935   4.681 -0.3574 -0.1709  0.2715
   15MOL0     C 1929  12.128   3.824   4.748  1.0363  0.6839  0.9126
   15MOL0     C 1930  12.160   3.854   4.897  0.0430 -0.2617  0.2933
   15MOL0     C 1931  12.270   3.749   4.941  0.6863 -0.7789  0.0162
   15MOL0     C 1932  12.291   3.761   5.088  0.2413  0.0254  0.4510
   15MOL0     C 1933  12.173   3.731   5.177 -0.0656  1.3173  0.1804
   15MOL0     C 1934  12.220   3.745   5.324  0.1355  0.6061  0.4107
   15MOL0    Cl 1935  12.097   3.656   5.425 -0.1087  0.0259  0.2032
   15MOL0     C 1936  11.822   3.773   4.345  0.1229 -0.8902  0.7544
   15MOL0     C 1937  11.767   3.782   4.214 -0.3505 -0.0263 -0.3598
   15MOL0     O 1938  11.846   4.059   3.949  0.4476  0.4002 -0.1478
   15MOL0     C 1939  11.705   3.810   3.726  0.1498  0.2076  0.0115
   15MOL0     C 1940  11.680   3.778   3.591 -0.0120 -0.0481 -0.1582
   15MOL0     N 1941  11.646   3.365   3.547 -0.1025 -0.6336  0.2326
   15MOL0     N 1942  11.583   3.353   3.657  0.1443 -0.1056 -0.2341
   15MOL0     C 1943  10.431   2.820   3.972 -0.7421  0.2087 -0.4961
   15MOL0     C 1944  10.306   2.761   3.965  0.5304  0.2270  0.9655
   15MOL0     C 1945   9.938   2.564   3.925  0.0714  0.7073  0.2563
   15MOL0     C 1946   9.824   2.548   3.838  0.1930  0.5034 -0.9953
   15MOL0     C 1947   9.707   2.489   3.888 -0.6413 -0.5461 -0.2913
   15MOL0     C 1948   9.711   2.436   4.016 -0.4903  0.3770 -0.3373
   15MOL0     O 1949   9.597   2.379   4.069  0.1977 -0.0093 -0.3634
   15MOL0     C 1950   9.493   2.333   3.986  0.4129  0.2442  0.8991
   15MOL0     C 1951   9.542   2.208   3.911 -1.0418  0.0539  0.1432
   15MOL0     C 1952   9.464   2.155   3.791  0.2372 -0.1374  1.2271
   15MOL0     C 1953   9.314   2.179   3.808 -0.4213  0.3209  0.5167
   15MOL0     C 1954   9.250   2.132   3.683  0.7857 -0.5311 -0.1404
   15MOL0     C 1955   9.170   2.107   3.586 -0.1009  0.0587  0.2303
   15MOL0     C 1956   9.826   2.436   4.098 -0.3233 -0.5435 -0.1697
   15MOL0     C 1957   9.934   2.513   4.055 -1.3665  0.4272  0.7647
   15MOL0     H 1958  10.408   2.442   3.889 -1.7180  0.2023 -2.2081
   15MOL0     H 1959  10.632   2.559   3.922  0.9320  3.3268 -2.9539
   15MOL0     H 1960  10.826   2.721   3.867  1.7379  0.6403 -0.0981
   15MOL0     H 1961  10.714   2.781   3.758  4.1154 -2.4586 -1.3575
   15MOL0     H 1962  10.768   3.031   3.844  0.8506  0.0367 -2.5599
   15MOL0     H 1963  10.865   2.972   3.967  1.2710 -0.3111  0.3053
   15MOL0     H 1964  11.015   2.864   3.786 -0.0591  0.2967  0.5585
   15MOL0     H 1965  10.900   2.921   3.665  0.5159  2.0372 -1.1891
   15MOL0     H 1966  10.949   3.166   3.742  0.1586 -0.1430  0.6640
   15MOL0     H 1967  11.040   3.099   3.871 -3.0146 -0.0886  1.1573
   15MOL0     H 1968  11.199   2.980   3.702  2.3152  0.7390  2.8802
   15MOL0     H 1969  11.116   3.083   3.577  2.2585  0.2411 -0.4129
   15MOL0     H 1970  11.288   3.142   3.823  1.1226 -2.1620 -0.9873
   15MOL0     H 1971  11.353   3.167   3.655  0.2814  1.8457 -0.6588
   15MOL0     H 1972  11.172   3.339   3.633 -0.4577 -0.1670 -0.2674
   15MOL0     H 1973  11.164   3.332   3.807  1.8275 -1.0101  2.3904
   15MOL0     H 1974  11.404   3.415   3.823  0.8887  1.8102  0.0332
   15MOL0     H 1975  11.314   3.520   3.718  1.7599  0.8488 -3.2533
   15MOL0     H 1976  11.373   3.480   3.435  1.7004 -0.1682  0.0569
   15MOL0     H 1977  11.692   3.367   3.277  0.4627  1.5377 -0.6135
   15MOL0     H 1978  11.517   3.384   3.234 -0.9466  3.7746 -1.4926
   15MOL0     H 1979  11.584   3.650   3.282  0.3199  0.0275  2.0224
   15MOL0     H 1980  11.662   3.580   3.134 -0.6725  0.8329 -0.1006
   15MOL0     H 1981  11.860   3.566   3.208 -1.1304  3.5705 -3.5622
   15MOL0     H 1982  11.809   3.551   3.379  0.4484  0.5067  0.9210
   15MOL0     H 1983  11.827   3.772   3.177 -0.0202 -4.7235 -1.8134
   15MOL0     H 1984  11.925   3.779   3.320  0.1401  0.5507 -2.1430
   15MOL0     H 1985  11.895   4.006   3.446  0.1629 -1.8870 -0.4490
   15MOL0     H 1986  11.897   4.189   3.725 -1.3411  1.1040 -3.9044
   15MOL0     H 1987  12.029   4.061   3.749  0.1246  0.8032 -0.1670
   15MOL0     H 1988  11.993   4.142   3.592 -0.4358  0.3644 -0.5982
   15MOL0     H 1989  12.048   3.905   4.062  0.4403  0.7705  0.7254
   15MOL0     H 1990  12.140   3.855   4.295  0.6069 -1.1983 -1.9897
   15MOL0     H 1991  11.877   3.964   4.545  2.2644  0.7488 -1.1394
   15MOL0     H 1992  11.850   3.842   4.662 -3.3325 -0.0454 -3.4044
   15MOL0     H 1993  12.120   3.986   4.618 -1.3991  0.0444 -0.7929
   15MOL0     H 1994  12.008   4.004   4.756  0.2684  2.2863 -1.5198
   15MOL0     H 1995  12.220   3.815   4.689 -0.8059 -3.1182 -1.7525
   15MOL0     H 1996  12.080   3.727   4.742 -0.1721  1.3498 -0.5669
   15MOL0     H 1997  12.203   3.953   4.915  1.0332 -0.5237 -0.5194
   15MOL0     H 1998  12.060   3.845   4.940 -2.1363  3.9982 -3.0626
   15MOL0     H 1999  12.362   3.776   4.890  0.0326  0.8942 -0.3196
   15MOL0     H 2000  12.237   3.647   4.916 -1.0911  0.0689 -1.2926
   15MOL0     H 2001  12.379   3.700   5.113  0.6605  0.6189  0.4412
   15MOL0     H 2002  12.323   3.864   5.104 -1.1191  0.2465  2.0209
   15MOL0     H 2003  12.136   3.628   5.172  0.8829  1.0027 -0.6225
   15MOL0     H 2004  12.089   3.795   5.147 -0.2844  0.1840 -1.8538
   15MOL0     H 2005  12.234   3.851   5.347  0.6958  1.8773 -4.5112
   15MOL0     H 2006  12.318   3.697   5.330  0.0593 -0.2918 -3.1288
   15MOL0     H 2007  11.759   3.742   4.427 -1.4872  0.8224  0.2435
   15MOL0     H 2008  11.660   3.774   4.202 -1.0838  0.6510  3.9535
   15MOL0     H 2009  11.652   3.746   3.796 -0.8216  0.1944 -0.7220
   15MOL0     H 2010  11.616   3.693   3.571  1.4151 -0.8104 -1.6974
   15MOL0     H 2011  10.452   2.922   4.003  0.6187 -0.2746  0.2670
   15MOL0     H 2012  10.216   2.821   3.979 -0.1265  0.2982 -2.6693
   15MOL0     H 2013   9.806   2.592   3.740 -1.1058  1.6755 -0.2560
   15MOL0     H 2014   9.620   2.476   3.825  0.3798  0.6963 -2.0437
   15MOL0     H 2015   9.412   2.319   4.058 -0.1983  1.1685  0.4167
   15MOL0     H 2016   9.449   2.398   3.909 -1.2663 -2.2506 -0.4125
   15MOL0     H 2017   9.568   2.138   3.991 -0.4815 -0.0620 -0.1430
   15MOL0     H 2018   9.639   2.228   3.866 -1.3043 -0.0685 -0.4839
   15MOL0     H 2019   9.479   2.047   3.786 -0.8140 -0.3431  2.1980
   15MOL0     H 2020   9.503   2.203   3.700  0.0425 -1.4891  0.4002
   15MOL0     H 2021   9.306   2.288   3.822  1.7779  0.5279  0.6175
   15MOL0     H 2022   9.268   2.122   3.889 -1.1811  1.1594  0.7000
   15MOL0     H 2023   9.101   2.102   3.504  0.2848 -0.9738 -0.0478
   15MOL0     H 2024   9.834   2.405   4.201  3.0576  1.7356  0.4081
   15MOL0     H 2025  10.018   2.518   4.123 -1.1346 -0.1325  0.5309
   16MOL0     O 2026   9.667   7.108   3.581  0.7350  0.4296  0.2070
   16MOL0     C 2027   9.746   7.050   3.653  1.0515 -0.9102  0.3100
   16MOL0     O 2028   9.715   6.958   3.756  0.2760 -0.2504  0.3779
   16MOL0     C 2029   9.586   6.926   3.770  0.0660  0.4682 -0.3231
   16MOL0     C 2030   9.558   6.793   3.818  0.3514 -0.6505 -0.6207
   16MOL0     C 2031   9.430   6.763   3.858  0.6381  0.1217  0.1655
   16MOL0     C 2032   9.324   6.856   3.848 -0.0248 -0.1002  0.2540
   16MOL0     O 2033   9.194   6.832   3.889 -0.1099 -0.1203 -1.0037
   16MOL0     C 2034   9.186   6.717   3.985  0.6316  0.0404  0.2538
   16MOL0     C 2035   9.050   6.702   4.068  1.0471  0.1292 -0.3829
   16MOL0     C 2036   9.041   6.805   4.183 -0.4833 -0.5401 -0.5408
   16MOL0     C 2037   9.026   6.950   4.141  0.4310 -0.3590  0.2338
   16MOL0     C 2038   9.039   7.042   4.259  0.4400  0.1339 -0.1591
   16MOL0     C 2039   8.955   7.175   4.233 -1.2751 -0.8303  0.6033
   16MOL0     C 2040   8.807   7.151   4.244 -0.2020  0.0982  0.4624
   16MOL0     C 2041   8.719   7.282   4.282  0.1902  0.8611  0.1078
   16MOL0     N 2042   8.575   7.239   4.322  0.0616 -0.4392 -0.2713
   16MOL0     C 2043   8.519   7.117   4.294  0.5815  0.3988  0.6470
   16MOL0     C 2044   8.402   7.122   4.364  0.5436 -0.2792  0.0277
   16MOL0     C 2045   8.293   7.017   4.370 -0.2189 -0.4370 -0.7716
   16MOL0     C 2046   8.217   7.017   4.506  0.5851  1.0940 -1.8373
   16MOL0     C 2047   8.108   6.903   4.537 -0.0678 -0.4218 -0.1958
   16MOL0     C 2048   8.146   6.761   4.487 -0.1246  0.6061  0.0587
   16MOL0     O 2049   8.274   6.729   4.543  0.9891  0.0718  0.7962
   16MOL0     C 2050   8.281   6.656   4.657 -0.9798  0.2787  0.3801
   16MOL0     C 2051   8.396   6.583   4.670 -0.4725  0.4751 -0.8209
   16MOL0     C 2052   8.410   6.499   4.778  0.5403  0.3542 -0.3734
   16MOL0     C 2053   8.542   6.421   4.789  0.2947  0.1381 -0.3300
   16MOL0     C 2054   8.303   6.482   4.876  0.4377 -0.0880  0.3403
   16MOL0     C 2055   8.316   6.389   4.989  0.1222 -0.8529 -0.2660
   16MOL0     O 2056   8.198   6.349   5.046  0.4618  0.1410 -0.3339
   16MOL0     C 2057   8.206   6.286   5.165 -0.6682 -0.4604 -0.2430
   16MOL0     C 2058   8.175   6.147   5.173 -0.0432  0.4569 -0.2895
   16MOL0     C 2059   8.170   6.093   5.300 -0.0258  0.2365 -0.3986
   16MOL0     C 2060   8.226   6.162   5.407  0.5833 -0.8676  0.5819
   16MOL0     O 2061   8.271   6.094   5.519  0.2723  0.3568  0.1213
   16MOL0     C 2062   8.356   6.134   5.622  0.3175  0.5450 -0.1550
   16MOL0     C 2063   8.346   6.015   5.719 -0.3386 -0.0318 -0.6257
   16MOL0     C 2064   8.460   6.022   5.813  0.1060 -0.2394  0.5198
   16MOL0     C 2065   8.484   5.894   5.890  0.5082 -0.1511 -0.2675
   16MOL0     C 2066   8.625   5.903   5.960 -0.0933 -0.2906  0.3910
   16MOL0     C 2067   8.676   5.764   6.018  0.1413 -0.3745 -0.0038
   16MOL0     C 2068   8.576   5.668   6.084 -0.9519 -0.6491 -0.4475
   16MOL0     C 2069   8.493   5.712   6.207  0.5461 -0.1886 -0.3790
   16MOL0    Cl 2070   8.599   5.732   6.343 -0.2769 -0.4597 -0.3362
   16MOL0     C 2071   8.247   6.300   5.398  0.7371  0.3586  0.1719
   16MOL0     C 2072   8.241   6.362   5.281 -0.3610 -0.0174  0.4278
   16MOL0     O 2073   8.433   6.360   5.027 -0.7994 -0.3864  0.5401
   16MOL0     C 2074   8.186   6.566   4.863 -0.5671 -1.0210  0.0964
   16MOL0     C 2075   8.180   6.646   4.748  0.0365 -0.4389 -0.7891
   16MOL0     N 2076   8.384   7.242   4.425  0.3483 -0.3437  0.5126
   16MOL0     N 2077   8.485   7.317   4.397 -0.2145 -0.8087  0.3254
   16MOL0     C 2078   9.350   6.986   3.796 -0.0026  0.1266 -0.5432
   16MOL0     C 2079   9.479   7.020   3.759  0.8396  0.8953  0.7577
   16MOL0     C 2080   9.881   7.093   3.633 -0.1147 -0.1858 -0.8796
   16MOL0     C 2081   9.924   7.184   3.535  0.5235 -0.4104 -0.3534
   16MOL0     C 2082  10.062   7.211   3.520  0.5708 -0.6448  0.5227
   16MOL0     C 2083  10.163   7.160   3.605 -0.3057  0.1622 -0.4169
   16MOL0     O 2084  10.294   7.200   3.612 -0.4819 -0.1502  0.1115
   16MOL0     C 2085  10.331   7.311   3.527 -0.1234  0.8868 -0.1491
   16MOL0     C 2086  10.472   7.340   3.557 -0.2081 -0.2015 -0.0905
   16MOL0     C 2087  10.568   7.282   3.457  0.6197  0.5217 -0.4280
   16MOL0     C 2088  10.711   7.312   3.502  0.0466  0.6797  0.1619
   16MOL0     C 2089  10.810   7.224   3.421  1.1959  0.4839 -0.3468
   16MOL0     C 2090  10.895   7.158   3.360 -0.1615  0.0195  0.2139
   16MOL0     C 2091  10.118   7.061   3.695 -0.6485 -0.2587 -0.4870
   16MOL0     C 2092   9.986   7.035   3.709 -0.2836  0.0552 -0.7335
   16MOL0     H 2093   9.642   6.725   3.828 -0.8141 -2.3040 -1.5266
   16MOL0     H 2094   9.414   6.667   3.905  0.7293 -1.5082 -2.9584
   16MOL0     H 2095   9.207   6.624   3.930  1.0327  0.0247  0.4364
   16MOL0     H 2096   9.267   6.720   4.058  3.1385 -1.9783 -2.1884
   16MOL0     H 2097   8.960   6.698   4.006  2.2635 -1.1883 -2.1429
   16MOL0     H 2098   9.049   6.607   4.121  1.9572  0.7401  0.7697
   16MOL0     H 2099   8.946   6.785   4.234 -0.9357 -1.1904 -1.6085
   16MOL0     H 2100   9.125   6.789   4.251  2.9935  0.8945 -4.1282
   16MOL0     H 2101   9.105   6.977   4.070  2.6525 -2.8219  1.5790
   16MOL0     H 2102   8.923   6.951   4.102 -0.6364  1.4806  2.8590
   16MOL0     H 2103   9.000   6.998   4.351  0.4197 -1.3680 -0.8643
   16MOL0     H 2104   9.145   7.050   4.283  0.0622 -1.4640  2.3605
   16MOL0     H 2105   8.996   7.244   4.307  0.2031 -1.1688  0.1394
   16MOL0     H 2106   8.967   7.205   4.129 -2.1500 -4.5947 -0.7556
   16MOL0     H 2107   8.770   7.095   4.158  5.2653  2.7668 -4.2996
   16MOL0     H 2108   8.798   7.083   4.330 -2.7238  1.5803  1.4773
   16MOL0     H 2109   8.705   7.332   4.185 -3.4991 -3.1162 -1.7632
   16MOL0     H 2110   8.760   7.352   4.355  1.1073  1.9362 -1.3616
   16MOL0     H 2111   8.549   7.026   4.244 -1.1284 -0.0179  0.2987
   16MOL0     H 2112   8.225   7.032   4.286 -1.9054 -1.1879  0.3745
   16MOL0     H 2113   8.326   6.914   4.350 -0.8168 -1.3330  2.2157
   16MOL0     H 2114   8.181   7.120   4.506 -2.1508  0.3240  1.5727
   16MOL0     H 2115   8.288   7.007   4.588 -2.6949 -1.2027  0.9879
   16MOL0     H 2116   8.017   6.926   4.481 -0.4417 -0.6572  0.2967
   16MOL0     H 2117   8.097   6.902   4.646  2.4779  2.7455  0.2323
   16MOL0     H 2118   8.165   6.762   4.379  0.3032 -3.1006 -0.0150
   16MOL0     H 2119   8.068   6.687   4.505  0.9366 -1.3093 -2.6168
   16MOL0     H 2120   8.461   6.591   4.584  0.3924  0.0450 -0.2238
   16MOL0     H 2121   8.598   6.440   4.697  0.4505  0.9972 -0.0683
   16MOL0     H 2122   8.596   6.457   4.877 -0.8526  0.1503  0.3843
   16MOL0     H 2123   8.509   6.318   4.800 -2.6707  1.1419  1.5153
   16MOL0     H 2124   8.155   6.077   5.093  0.1411 -0.1010  0.1379
   16MOL0     H 2125   8.152   5.986   5.306  0.6629  0.1981  3.2081
   16MOL0     H 2126   8.457   6.143   5.581  0.6853 -0.3217  0.5211
   16MOL0     H 2127   8.319   6.225   5.670  0.4587 -0.4019  1.8548
   16MOL0     H 2128   8.253   6.028   5.775  1.2308 -0.8005  2.3781
   16MOL0     H 2129   8.353   5.918   5.669 -0.2202 -0.4707  0.2072
   16MOL0     H 2130   8.443   6.110   5.877  0.7711  1.4732 -1.5496
   16MOL0     H 2131   8.552   6.044   5.759  0.2357 -0.0315  0.8206
   16MOL0     H 2132   8.413   5.893   5.972  2.7156 -0.9148  1.7595
   16MOL0     H 2133   8.483   5.799   5.835 -1.2805 -0.3609  0.0782
   16MOL0     H 2134   8.629   5.970   6.047  0.9838  0.6300 -0.3359
   16MOL0     H 2135   8.704   5.940   5.894  1.8496 -0.9699  2.2010
   16MOL0     H 2136   8.735   5.711   5.943  2.5771 -1.4795  2.4692
   16MOL0     H 2137   8.756   5.776   6.092 -0.7038 -2.6084  1.3952
   16MOL0     H 2138   8.643   5.587   6.115 -0.4146 -1.2059 -2.8936
   16MOL0     H 2139   8.508   5.615   6.017 -0.0387 -1.5615 -0.6731
   16MOL0     H 2140   8.426   5.631   6.237  0.6084  0.3816  1.4053
   16MOL0     H 2141   8.434   5.800   6.181 -0.3121 -0.8647 -0.7890
   16MOL0     H 2142   8.294   6.341   5.487  3.9101 -2.1376 -0.1642
   16MOL0     H 2143   8.246   6.470   5.273 -1.4294 -0.0447 -1.0413
   16MOL0     H 2144   8.104   6.566   4.934 -1.7048  1.3299 -1.1256
   16MOL0     H 2145   8.090   6.706   4.740 -1.1061 -2.1413 -1.1134
   16MOL0     H 2146   9.277   7.067   3.796  0.5673  0.7503 -3.2498
   16MOL0     H 2147   9.473   7.113   3.702  0.1792  0.8186  0.6968
   16MOL0     H 2148   9.858   7.219   3.456  0.9128  4.0838  1.0045
   16MOL0     H 2149  10.084   7.280   3.440  1.9264 -2.7911 -1.0440
   16MOL0     H 2150  10.317   7.282   3.423 -0.8197 -0.8530  0.3840
   16MOL0     H 2151  10.265   7.397   3.542 -2.7957 -1.2193  1.2312
   16MOL0     H 2152  10.494   7.298   3.655 -1.5817 -1.4965 -0.3064
   16MOL0     H 2153  10.500   7.445   3.573 -2.0926 -0.0164  2.4994
   16MOL0     H 2154  10.548   7.314   3.354  1.3885  1.5866 -0.2653
   16MOL0     H 2155  10.549   7.174   3.458  0.8909  0.4388  1.7605
   16MOL0     H 2156  10.724   7.296   3.609 -1.4033  1.1048  0.4318
   16MOL0     H 2157  10.741   7.414   3.477 -0.6092  1.6848  3.1034
   16MOL0     H 2158  10.960   7.112   3.288 -2.9678  1.3335 -3.4387
   16MOL0     H 2159  10.192   7.002   3.748 -1.5982 -0.1425  1.0190
   16MOL0     H 2160   9.959   6.958   3.781  2.7500  1.0758  1.7479
   17MOL0     O 2161   7.768   6.369   6.300 -0.0908 -0.2269  0.3099
   17MOL0     C 2162   7.861   6.357   6.386  1.0016 -0.4841 -0.4044
   17MOL0     O 2163   7.838   6.309   6.516  0.0945 -0.1616  0.3973
   17MOL0     C 2164   7.708   6.267   6.553  0.1828  0.4300  0.5664
   17MOL0     C 2165   7.670   6.290   6.686 -0.4400  0.5404 -0.3381
   17MOL0     C 2166   7.546   6.251   6.734 -0.6794 -0.1915 -0.1481
   17MOL0     C 2167   7.459   6.172   6.650 -0.3562 -0.2344 -0.3019
   17MOL0     O 2168   7.340   6.136   6.706 -0.3309 -0.1808 -0.6891
   17MOL0     C 2169   7.249   6.047   6.629 -1.1394 -0.2705 -0.5991
   17MOL0     C 2170   7.108   6.028   6.671  0.4882  0.0360 -0.8879
   17MOL0     C 2171   7.009   6.016   6.555 -1.0236 -0.8330 -0.2763
   17MOL0     C 2172   6.873   5.950   6.607  0.2616 -0.2776  0.1572
   17MOL0     C 2173   6.779   5.909   6.490 -0.0307  0.0239 -0.6405
   17MOL0     C 2174   6.651   5.852   6.547  0.2602 -0.0851 -0.1918
   17MOL0     C 2175   6.609   5.733   6.465 -0.2267  0.2073  1.1505
   17MOL0     C 2176   6.684   5.592   6.498  0.1775  0.3108 -0.2315
   17MOL0     N 2177   6.611   5.482   6.427 -0.1345 -0.0286  0.2484
   17MOL0     C 2178   6.498   5.421   6.469 -0.6509 -0.4682 -1.0552
   17MOL0     C 2179   6.454   5.350   6.369 -0.2771 -0.8043  0.1423
   17MOL0     C 2180   6.342   5.251   6.356 -0.3276  0.3333  0.0924
   17MOL0     C 2181   6.214   5.305   6.303 -0.4868 -0.6767  0.1960
   17MOL0     C 2182   6.132   5.380   6.413 -0.5732 -0.3406 -0.4220
   17MOL0     C 2183   5.990   5.423   6.367  0.0670  0.9715 -0.3759
   17MOL0     O 2184   5.895   5.319   6.384  0.3912  0.1465 -0.4137
   17MOL0     C 2185   5.770   5.344   6.353  0.7541 -0.1124  0.5021
   17MOL0     C 2186   5.678   5.232   6.370 -1.2332  0.5808 -0.6813
   17MOL0     C 2187   5.545   5.242   6.326  0.5770  0.3356 -0.2781
   17MOL0     C 2188   5.466   5.110   6.304 -0.4531 -0.3178 -0.2305
   17MOL0     C 2189   5.488   5.369   6.277 -0.8173  0.3772 -0.1114
   17MOL0     C 2190   5.341   5.398   6.257  0.8589 -0.5159 -0.6414
   17MOL0     O 2191   5.253   5.295   6.273 -0.4113  1.2280  1.0926
   17MOL0     C 2192   5.117   5.306   6.251 -0.5955 -0.6387 -0.4739
   17MOL0     C 2193   5.041   5.211   6.175  0.2724 -0.3611  0.1210
   17MOL0     C 2194   4.906   5.226   6.154  1.6049 -0.0318 -0.1120
   17MOL0     C 2195   4.846   5.333   6.215  0.8867 -0.9215  0.9053
   17MOL0     O 2196   4.708   5.345   6.214  0.3977  0.1108  0.3099
   17MOL0     C 2197   4.624   5.433   6.298 -0.1409  0.6462 -1.4714
   17MOL0     C 2198   4.510   5.339   6.345 -1.1071  0.2450  0.4963
   17MOL0     C 2199   4.415   5.293   6.232 -0.4000  0.6225  0.4472
   17MOL0     C 2200   4.299   5.383   6.212  0.5041  0.4848  0.2730
   17MOL0     C 2201   4.205   5.362   6.094  0.7126 -0.1090  0.4368
   17MOL0     C 2202   4.110   5.246   6.115 -0.6043  0.6277 -0.4861
   17MOL0     C 2203   4.181   5.116   6.057  0.2560 -1.1473 -0.7022
   17MOL0     C 2204   4.101   4.996   6.095  0.9518  0.6830 -0.1410
   17MOL0    Cl 2205   4.111   4.954   6.279 -0.0006  0.1062  0.3446
   17MOL0     C 2206   4.920   5.427   6.285  0.7967  0.4686  0.2395
   17MOL0     C 2207   5.056   5.415   6.296  0.2592  0.2239  0.2047
   17MOL0     O 2208   5.310   5.508   6.213  0.4098  0.6977  0.0582
   17MOL0     C 2209   5.581   5.478   6.267 -0.0677 -0.2089  0.0381
   17MOL0     C 2210   5.714   5.464   6.308 -0.1908 -0.1122 -0.3512
   17MOL0     N 2211   6.531   5.395   6.256 -0.3538 -0.5834 -0.1819
   17MOL0     N 2212   6.623   5.477   6.292 -0.3849  0.2640 -0.5364
   17MOL0     C 2213   7.505   6.139   6.520 -0.1942  0.3374 -0.6167
   17MOL0     C 2214   7.629   6.181   6.476 -0.1121 -1.4136 -1.3284
   17MOL0     C 2215   7.996   6.413   6.348  0.5800  0.2018 -0.0069
   17MOL0     C 2216   8.009   6.472   6.220 -0.1570  0.1693 -0.1581
   17MOL0     C 2217   8.143   6.505   6.177  0.2425  0.6834  0.7304
   17MOL0     C 2218   8.253   6.474   6.263 -0.0093  0.5460  0.1721
   17MOL0     O 2219   8.384   6.500   6.227  0.1293 -0.0332  0.4538
   17MOL0     C 2220   8.413   6.528   6.085  0.4761  0.3609  0.3588
   17MOL0     C 2221   8.562   6.553   6.073 -0.8030  0.0945  1.3521
   17MOL0     C 2222   8.606   6.701   6.109 -0.1442 -0.0466 -0.4177
   17MOL0     C 2223   8.626   6.784   5.984  0.7914  0.4699 -1.3551
   17MOL0     C 2224   8.645   6.918   6.040 -0.2534 -0.0570 -0.6538
   17MOL0     C 2225   8.674   7.016   6.105 -0.3025 -0.3871  0.3355
   17MOL0     C 2226   8.228   6.408   6.388 -1.4578  0.0383  0.7550
   17MOL0     C 2227   8.106   6.387   6.426 -0.1574 -0.3128  0.3507
   17MOL0     H 2228   7.742   6.323   6.760  2.5880 -1.9845 -1.9251
   17MOL0     H 2229   7.513   6.273   6.835  3.8437 -3.0102  2.2918
   17MOL0     H 2230   7.249   6.087   6.527  1.7330 -1.6649 -1.2574
   17MOL0     H 2231   7.283   5.943   6.626  0.0165 -0.0306  1.9869
   17MOL0     H 2232   7.093   5.943   6.739 -1.1631 -0.8729 -2.3148
   17MOL0     H 2233   7.085   6.121   6.725  1.5409 -0.5495  0.6370
   17MOL0     H 2234   7.005   6.116   6.512 -0.1544 -1.8463 -2.9361
   17MOL0     H 2235   7.046   5.946   6.480 -0.8744 -2.4710  1.2461
   17MOL0     H 2236   6.900   5.864   6.669  0.5625 -2.0720 -2.3061
   17MOL0     H 2237   6.824   6.024   6.671  2.2882  1.4663 -0.1834
   17MOL0     H 2238   6.769   5.996   6.425  2.3141 -0.0285 -1.1691
   17MOL0     H 2239   6.837   5.838   6.431  2.6817 -0.1204  1.9084
   17MOL0     H 2240   6.667   5.813   6.647 -1.9237 -1.7021 -0.3939
   17MOL0     H 2241   6.574   5.930   6.543  0.5625  0.2867  0.8962
   17MOL0     H 2242   6.504   5.704   6.474 -0.5698  0.3746 -1.4372
   17MOL0     H 2243   6.629   5.761   6.361  1.6756  3.3319  2.2119
   17MOL0     H 2244   6.689   5.575   6.606  0.2223  0.3776 -0.2233
   17MOL0     H 2245   6.787   5.578   6.465 -0.7161 -1.1430 -2.6776
   17MOL0     H 2246   6.452   5.431   6.567 -1.4977  0.7545 -1.5557
   17MOL0     H 2247   6.372   5.175   6.284 -2.8068  0.3182 -1.0444
   17MOL0     H 2248   6.328   5.207   6.455  3.7360 -4.4214 -1.0348
   17MOL0     H 2249   6.154   5.227   6.255 -0.1724 -0.2230 -0.9687
   17MOL0     H 2250   6.240   5.379   6.227  0.6534 -1.4230 -0.1747
   17MOL0     H 2251   6.184   5.467   6.454  2.5406 -1.7059 -1.1868
   17MOL0     H 2252   6.125   5.314   6.500 -3.1740 -0.1145 -0.3855
   17MOL0     H 2253   5.999   5.455   6.263  4.5409 -2.1594 -1.2292
   17MOL0     H 2254   5.956   5.499   6.438 -1.5505  1.2470 -1.3933
   17MOL0     H 2255   5.713   5.131   6.389  0.7904  1.4011  0.3362
   17MOL0     H 2256   5.528   5.031   6.347  1.9949  0.0129 -2.7941
   17MOL0     H 2257   5.373   5.120   6.361  0.4620  3.1995  0.8883
   17MOL0     H 2258   5.443   5.087   6.199 -2.1580 -0.2592  0.1037
   17MOL0     H 2259   5.097   5.123   6.143 -3.1818 -3.1689  1.2480
   17MOL0     H 2260   4.852   5.141   6.115 -3.1378  1.5112  2.3032
   17MOL0     H 2261   4.662   5.474   6.392  0.3646  2.3452 -2.3570
   17MOL0     H 2262   4.585   5.517   6.240  2.3023  2.9740  0.0040
   17MOL0     H 2263   4.548   5.253   6.400  2.2294  0.9454 -0.5111
   17MOL0     H 2264   4.446   5.393   6.416  1.0176  0.5237  2.3060
   17MOL0     H 2265   4.373   5.197   6.264 -0.4551  0.7058  0.6240
   17MOL0     H 2266   4.466   5.282   6.137  0.0046  1.4493  0.5572
   17MOL0     H 2267   4.236   5.390   6.301  1.8741 -2.2231  1.5732
   17MOL0     H 2268   4.344   5.482   6.204  3.0423 -0.6816 -1.3795
   17MOL0     H 2269   4.253   5.351   5.997 -0.8635  1.8277 -0.6449
   17MOL0     H 2270   4.142   5.450   6.077  0.6298  0.1281  1.8572
   17MOL0     H 2271   4.101   5.248   6.224 -2.9712  1.7532 -0.6390
   17MOL0     H 2272   4.014   5.242   6.064 -1.3465 -4.3449  0.7327
   17MOL0     H 2273   4.285   5.105   6.089  0.6243 -1.6699 -1.9966
   17MOL0     H 2274   4.179   5.135   5.949  1.4814  0.5825 -0.4639
   17MOL0     H 2275   4.139   4.903   6.052 -0.9177 -1.3907  2.3801
   17MOL0     H 2276   3.994   5.000   6.073  0.8653 -2.4461 -0.7087
   17MOL0     H 2277   4.871   5.507   6.339 -1.4316 -1.6249  1.4935
   17MOL0     H 2278   5.106   5.483   6.364  0.6906  1.7538 -1.5337
   17MOL0     H 2279   5.559   5.582   6.248 -0.3639  0.0552  1.6336
   17MOL0     H 2280   5.772   5.554   6.291  1.2269 -0.8503  0.4597
   17MOL0     H 2281   7.447   6.070   6.460  1.5751 -1.2141 -0.6384
   17MOL0     H 2282   7.660   6.149   6.377 -0.4729 -2.0283 -1.2521
   17MOL0     H 2283   7.921   6.489   6.159  0.9685  1.4611 -1.4996
   17MOL0     H 2284   8.165   6.541   6.077  1.9569 -2.3860 -0.1350
   17MOL0     H 2285   8.389   6.434   6.036 -0.2182 -0.4024  2.0742
   17MOL0     H 2286   8.350   6.603   6.036 -2.3810 -1.5046  0.9504
   17MOL0     H 2287   8.599   6.518   5.976  0.3157  0.9330  1.4478
   17MOL0     H 2288   8.618   6.497   6.148 -1.9577 -1.1164  1.3564
   17MOL0     H 2289   8.689   6.718   6.177  0.1610  2.8428 -1.3599
   17MOL0     H 2290   8.513   6.739   6.154 -0.9044 -1.7526 -0.4798
   17MOL0     H 2291   8.532   6.787   5.928  0.0455  3.0954 -0.1374
   17MOL0     H 2292   8.715   6.758   5.927  0.3833  1.7275 -2.6439
   17MOL0     H 2293   8.711   7.098   6.163 -1.1423  1.5929 -1.7685
   17MOL0     H 2294   8.310   6.388   6.456 -0.2493  0.7265 -0.4296
   17MOL0     H 2295   8.095   6.339   6.522  0.8567 -2.1697 -0.3834
   18MOL0     O 2296   0.792  10.270   9.003  0.2313  0.6862  1.0964
   18MOL0     C 2297   0.849  10.243   9.111 -0.1120  1.3607 -0.3325
   18MOL0     O 2298   0.801  10.272   9.237 -0.6745  0.9212 -1.2426
   18MOL0     C 2299   0.692  10.347   9.236 -1.0884 -0.3694 -0.1842
   18MOL0     C 2300   0.573  10.302   9.298  0.2718  0.0687  0.1209
   18MOL0     C 2301   0.458  10.381   9.307  0.1159 -0.2588  0.0782
   18MOL0     C 2302   0.464  10.521   9.274  0.7601 -0.6618 -1.0477
   18MOL0     O 2303   0.346  10.602   9.273 -0.8105  0.3315  0.4570
   18MOL0     C 2304   0.266  10.593   9.388  0.4841  0.3309 -0.2760
   18MOL0     C 2305   0.216  10.735   9.422  0.1690  0.3025 -0.3053
   18MOL0     C 2306   0.111  10.778   9.321 -0.4950 -0.2087  0.0312
   18MOL0     C 2307  -0.027  10.708   9.341  0.0387  0.1145 -0.5128
   18MOL0     C 2308  -0.095  10.676   9.202  0.8528 -0.7233  0.9988
   18MOL0     C 2309  -0.228  10.607   9.210 -0.1681 -0.3481 -0.0930
   18MOL0     C 2310  -0.312  10.577   9.087 -0.6786 -0.0351  1.4754
   18MOL0     C 2311  -0.242  10.494   8.981  0.7100 -0.6132 -0.4749
   18MOL0     N 2312  -0.231  10.359   9.031  0.1843  0.3519  0.3988
   18MOL0     C 2313  -0.142  10.317   9.125  0.1591  0.1319 -0.0539
   18MOL0     C 2314  -0.155  10.184   9.141 -0.7379  0.6791  0.5976
   18MOL0     C 2315  -0.073  10.113   9.248  0.1511 -1.1339 -0.0669
   18MOL0     C 2316  -0.092  10.168   9.388 -0.4218 -0.3493 -0.2008
   18MOL0     C 2317  -0.231  10.155   9.429  0.7314 -0.8217 -0.4235
   18MOL0     C 2318  -0.252  10.204   9.572  0.4527  0.5836 -0.0798
   18MOL0     O 2319  -0.243  10.347   9.579 -0.9874  0.0279  0.2045
   18MOL0     C 2320  -0.356  10.425   9.580  0.0314  0.3077  0.1777
   18MOL0     C 2321  -0.344  10.553   9.626  2.0936 -0.5561 -1.2439
   18MOL0     C 2322  -0.461  10.630   9.622  0.0840 -0.8455 -0.4854
   18MOL0     C 2323  -0.436  10.770   9.680 -0.9790 -0.8410 -0.3281
   18MOL0     C 2324  -0.583  10.585   9.582  0.6957  1.1738  0.2180
   18MOL0     C 2325  -0.706  10.664   9.559  0.6001 -0.6735 -0.4077
   18MOL0     O 2326  -0.823  10.593   9.541 -0.4606  0.3094 -0.3899
   18MOL0     C 2327  -0.933  10.663   9.525  0.3568 -0.5148  0.0960
   18MOL0     C 2328  -1.023  10.608   9.433 -0.2533  0.0471 -0.3502
   18MOL0     C 2329  -1.138  10.683   9.406  0.2844 -0.3337  0.2487
   18MOL0     C 2330  -1.184  10.798   9.475 -0.5794 -0.2021  0.3149
   18MOL0     O 2331  -1.306  10.849   9.446  0.1324  0.1880 -0.3036
   18MOL0     C 2332  -1.353  10.954   9.526 -0.2912  0.2772 -0.1854
   18MOL0     C 2333  -1.468  11.015   9.453  0.9262 -0.1298 -0.6715
   18MOL0     C 2334  -1.520  11.140   9.544 -0.5401 -0.2912  1.2461
   18MOL0     C 2335  -1.671  11.158   9.518 -0.3729  0.0062 -0.5092
   18MOL0     C 2336  -1.707  11.303   9.553 -0.9894 -0.1489 -0.1904
   18MOL0     C 2337  -1.854  11.344   9.547  0.3547  0.0293 -0.3029
   18MOL0     C 2338  -1.883  11.491   9.488  0.2301  0.4894 -0.0957
   18MOL0     C 2339  -1.876  11.494   9.336 -0.2768 -0.4950 -0.3272
   18MOL0    Cl 2340  -1.701  11.523   9.281 -0.0702  0.2415  0.1054
   18MOL0     C 2341  -1.103  10.839   9.589 -0.7000  0.0012 -0.2587
   18MOL0     C 2342  -0.980  10.770   9.616  0.6503  0.1538 -0.9053
   18MOL0     O 2343  -0.700  10.788   9.549  0.4017 -0.1315 -0.2617
   18MOL0     C 2344  -0.593  10.453   9.537  0.1755  0.2267  0.5397
   18MOL0     C 2345  -0.482  10.374   9.530  0.1162  0.9170 -2.0448
   18MOL0     N 2346  -0.245  10.149   9.039  0.4320 -0.9181 -0.1695
   18MOL0     N 2347  -0.299  10.250   8.979 -0.2932 -0.7675 -0.9268
   18MOL0     C 2348   0.584  10.575   9.219  0.1024  0.9140 -0.0256
   18MOL0     C 2349   0.692  10.483   9.204  0.1067 -1.0043 -0.8350
   18MOL0     C 2350   0.986  10.190   9.107 -1.0732  0.3521  0.1729
   18MOL0     C 2351   1.059  10.172   9.226  0.3499  0.1645 -0.1907
   18MOL0     C 2352   1.199  10.136   9.223 -1.1933 -0.1385  0.3462
   18MOL0     C 2353   1.264  10.118   9.094  0.3846  0.3894 -0.6195
   18MOL0     O 2354   1.381  10.067   9.067 -0.4396  0.7783  0.3799
   18MOL0     C 2355   1.480  10.049   9.164  0.0845  0.1626 -0.6660
   18MOL0     C 2356   1.575   9.941   9.121  0.3831 -0.2769  0.5464
   18MOL0     C 2357   1.646   9.973   8.988 -0.0745  0.7491 -1.5685
   18MOL0     C 2358   1.745  10.101   8.999  0.3983  0.0049  0.2155
   18MOL0     C 2359   1.851  10.088   9.104  0.1598  0.7097 -0.8687
   18MOL0     C 2360   1.928  10.067   9.192 -0.1403  0.3972 -0.3559
   18MOL0     C 2361   1.184  10.130   8.980  0.4184  0.7625 -0.2907
   18MOL0     C 2362   1.051  10.162   8.989 -0.0199  0.3450 -1.4196
   18MOL0     H 2363   0.561  10.203   9.339 -0.9699  0.3601  0.4980
   18MOL0     H 2364   0.364  10.334   9.334  2.3402 -4.6277  1.1167
   18MOL0     H 2365   0.189  10.519   9.367  1.3268 -1.3012  1.9970
   18MOL0     H 2366   0.332  10.555   9.467  0.4383 -0.3860 -0.5796
   18MOL0     H 2367   0.165  10.740   9.518  2.3324  0.0592  0.9117
   18MOL0     H 2368   0.300  10.802   9.443  0.5333 -1.0027  2.8578
   18MOL0     H 2369   0.107  10.887   9.334 -1.6272 -0.3922  1.4144
   18MOL0     H 2370   0.147  10.767   9.218 -1.3938  2.7685 -0.7219
   18MOL0     H 2371  -0.018  10.612   9.394  3.4247  1.6274  2.0424
   18MOL0     H 2372  -0.096  10.774   9.393 -1.8879 -3.2870  1.6226
   18MOL0     H 2373  -0.107  10.772   9.152 -0.6100 -1.3638  0.0592
   18MOL0     H 2374  -0.018  10.617   9.152  0.1350  0.8458 -2.2081
   18MOL0     H 2375  -0.226  10.524   9.281 -1.8629 -1.2577 -1.0300
   18MOL0     H 2376  -0.292  10.677   9.264 -1.2471 -0.6172 -0.9837
   18MOL0     H 2377  -0.401  10.518   9.111  0.3803 -4.3138 -3.3895
   18MOL0     H 2378  -0.337  10.677   9.049  2.7344  2.3971  4.8101
   18MOL0     H 2379  -0.140  10.530   8.968  0.7194 -1.5168 -4.0805
   18MOL0     H 2380  -0.280  10.487   8.878  1.2288  0.1977 -0.7328
   18MOL0     H 2381  -0.067  10.383   9.168  1.0535 -0.6372 -0.3823
   18MOL0     H 2382  -0.110  10.010   9.251 -0.5505 -0.9168 -0.8436
   18MOL0     H 2383   0.032  10.110   9.220  0.4474 -1.5484  1.0255
   18MOL0     H 2384  -0.069  10.274   9.385  0.3461 -0.5092 -3.5458
   18MOL0     H 2385  -0.019  10.129   9.460 -1.5686 -0.9133  0.6876
   18MOL0     H 2386  -0.249  10.047   9.433  0.9756 -0.8230  2.0079
   18MOL0     H 2387  -0.292  10.208   9.356 -0.2844 -1.0613  0.2357
   18MOL0     H 2388  -0.186  10.147   9.638 -2.1870 -1.8296  0.6851
   18MOL0     H 2389  -0.350  10.172   9.608 -0.3734  2.1808 -0.7906
   18MOL0     H 2390  -0.258  10.595   9.677  0.6979  2.0892 -0.8972
   18MOL0     H 2391  -0.524  10.836   9.687  0.0446  0.9970 -2.9156
   18MOL0     H 2392  -0.391  10.762   9.779  0.8344 -0.3951 -1.0807
   18MOL0     H 2393  -0.359  10.816   9.617  1.7850  0.0790  3.3538
   18MOL0     H 2394  -1.017  10.516   9.377 -0.5703  0.9234 -1.8867
   18MOL0     H 2395  -1.217  10.654   9.337 -1.4141  2.1171  1.0502
   18MOL0     H 2396  -1.385  10.913   9.622  2.5167 -3.1736 -0.5354
   18MOL0     H 2397  -1.281  11.035   9.542 -0.6932  0.0694  3.5328
   18MOL0     H 2398  -1.414  11.048   9.364  1.7041  0.0873 -0.1323
   18MOL0     H 2399  -1.547  10.943   9.431  1.1168 -0.7273  0.4845
   18MOL0     H 2400  -1.454  11.224   9.520 -1.9221  0.0659 -1.7386
   18MOL0     H 2401  -1.510  11.122   9.651 -0.8211  4.4360  2.2754
   18MOL0     H 2402  -1.703  11.148   9.414 -2.5295  3.3979 -0.2980
   18MOL0     H 2403  -1.728  11.085   9.577 -2.6146  1.3683 -0.8925
   18MOL0     H 2404  -1.646  11.375   9.496 -0.7743 -1.5391 -1.8020
   18MOL0     H 2405  -1.674  11.313   9.657 -0.4840  2.0859 -0.5194
   18MOL0     H 2406  -1.898  11.276   9.474 -3.5585 -0.9733  2.6554
   18MOL0     H 2407  -1.899  11.329   9.645  0.1001  1.6264 -0.1514
   18MOL0     H 2408  -1.806  11.555   9.531  0.6804  0.2997 -0.6036
   18MOL0     H 2409  -1.985  11.512   9.520 -0.0591  0.8337 -1.2380
   18MOL0     H 2410  -1.926  11.587   9.307  0.6954  0.0256 -0.3751
   18MOL0     H 2411  -1.920  11.404   9.294  3.3058 -2.3653 -0.4628
   18MOL0     H 2412  -1.135  10.913   9.662 -2.0916 -1.6108  0.8542
   18MOL0     H 2413  -0.926  10.795   9.706 -1.6005  3.4100 -0.2715
   18MOL0     H 2414  -0.690  10.408   9.517  0.2709  1.6838 -4.4056
   18MOL0     H 2415  -0.479  10.269   9.502  2.0539 -0.1383  1.5136
   18MOL0     H 2416   0.597  10.682   9.205  0.8953  0.6965 -1.0912
   18MOL0     H 2417   0.791  10.513   9.171  1.6235 -2.1644  2.3370
   18MOL0     H 2418   1.019  10.168   9.326  1.2889 -0.1256  0.1795
   18MOL0     H 2419   1.249  10.117   9.318 -0.1607 -0.3254 -0.2326
   18MOL0     H 2420   1.523  10.146   9.189  1.3955 -0.6145  0.1735
   18MOL0     H 2421   1.443  10.001   9.255  2.7650 -0.4476  0.2001
   18MOL0     H 2422   1.516   9.849   9.110 -0.2188 -0.2647  3.0401
   18MOL0     H 2423   1.647   9.931   9.202  3.0642  1.2411 -1.4854
   18MOL0     H 2424   1.564   9.977   8.916 -2.6774  2.1797  1.2242
   18MOL0     H 2425   1.710   9.886   8.967 -0.6651 -0.6288  1.7342
   18MOL0     H 2426   1.691  10.195   8.987 -0.1458 -0.4415 -0.8957
   18MOL0     H 2427   1.814  10.092   8.914 -1.9342  1.7337 -1.9847
   18MOL0     H 2428   1.988  10.060   9.281 -1.1715 -0.3058  0.3068
   18MOL0     H 2429   1.230  10.123   8.882 -0.3340  1.1214 -0.6722
   18MOL0     H 2430   1.010  10.191   8.893 -0.3181  1.6226 -0.9184
   19MOL0     O 2431   3.842   2.893  10.056 -0.3168 -0.3744 -0.4327
   19MOL0     C 2432   3.848   3.013  10.012 -0.2501  0.0610  1.1077
   19MOL0     O 2433   3.751   3.106  10.016 -0.2101 -0.2573 -0.0067
   19MOL0     C 2434   3.635   3.071  10.067 -0.1187 -0.6505  1.0053
   19MOL0     C 2435   3.578   3.167  10.146  0.1799 -0.5292  1.5995
   19MOL0     C 2436   3.465   3.139  10.225 -0.0863 -0.1250  0.0708
   19MOL0     C 2437   3.389   3.017  10.188  0.1930 -0.4291 -0.6635
   19MOL0     O 2438   3.285   2.976  10.266 -0.0944  0.8357  0.1361
   19MOL0     C 2439   3.221   3.057  10.365  0.6998 -0.3279  0.0955
   19MOL0     C 2440   3.070   3.017  10.374  0.6954  0.8212  0.6095
   19MOL0     C 2441   2.988   3.040  10.241 -0.0565  0.8759 -0.1859
   19MOL0     C 2442   2.864   2.966  10.241 -0.1865  0.3978 -0.4758
   19MOL0     C 2443   2.791   2.956  10.114 -0.3290 -0.1109  1.0087
   19MOL0     C 2444   2.649   2.878  10.143 -0.6765 -0.5159  0.3970
   19MOL0     C 2445   2.551   2.875  10.031  0.5337 -0.8893  0.2366
   19MOL0     C 2446   2.518   3.015   9.976 -0.1643  0.4657 -0.3165
   19MOL0     N 2447   2.593   3.037   9.853  0.2992  0.5046 -0.0743
   19MOL0     C 2448   2.535   3.047   9.727  0.6957 -0.2508 -0.1844
   19MOL0     C 2449   2.616   3.112   9.650  0.3235 -0.0960 -0.6996
   19MOL0     C 2450   2.594   3.134   9.501 -0.7722 -0.8408 -0.3397
   19MOL0     C 2451   2.671   3.033   9.408  0.4530 -0.2351 -0.0347
   19MOL0     C 2452   2.604   2.903   9.401 -0.2982 -0.2500 -0.3666
   19MOL0     C 2453   2.648   2.814   9.279  0.2121 -0.0308  0.0644
   19MOL0     O 2454   2.575   2.875   9.169 -0.2523  0.3188  0.0986
   19MOL0     C 2455   2.599   2.795   9.066 -0.4657  0.4794 -0.0502
   19MOL0     C 2456   2.683   2.848   8.972  0.1819  0.5610 -0.1490
   19MOL0     C 2457   2.701   2.781   8.843  0.6146  0.3684 -1.4057
   19MOL0     C 2458   2.808   2.840   8.746  0.2958  0.3248 -0.2376
   19MOL0     C 2459   2.637   2.655   8.826  0.5289  0.0878  0.2213
   19MOL0     C 2460   2.648   2.581   8.697 -0.2348  0.6340  0.8586
   19MOL0     O 2461   2.778   2.543   8.673 -0.9584  0.1950 -0.0187
   19MOL0     C 2462   2.822   2.430   8.606 -0.5132 -0.6049  0.0197
   19MOL0     C 2463   2.742   2.324   8.557 -0.1413 -0.3462  0.0932
   19MOL0     C 2464   2.801   2.213   8.509  0.8552  0.1209  0.8603
   19MOL0     C 2465   2.940   2.196   8.501 -0.8415  0.2898 -0.3196
   19MOL0     O 2466   3.011   2.089   8.450  0.2066 -0.5205 -0.0879
   19MOL0     C 2467   2.916   1.985   8.416 -0.0989  0.3017 -0.2557
   19MOL0     C 2468   2.983   1.855   8.400  0.2318 -0.5272 -0.6183
   19MOL0     C 2469   3.103   1.845   8.304 -0.0018 -1.3725  0.0199
   19MOL0     C 2470   3.234   1.914   8.354  0.6206  0.8614 -0.0713
   19MOL0     C 2471   3.349   1.846   8.280  0.1534  0.6833 -0.5070
   19MOL0     C 2472   3.343   1.855   8.130  0.2774  0.6645 -0.4605
   19MOL0     C 2473   3.472   1.797   8.068 -1.5696  0.0798  1.0836
   19MOL0     C 2474   3.511   1.868   7.938 -0.1124 -0.3552  0.0684
   19MOL0    Cl 2475   3.688   1.860   7.906  0.0993  0.7666  0.4276
   19MOL0     C 2476   3.016   2.296   8.556  0.6294 -0.2886 -0.1689
   19MOL0     C 2477   2.956   2.414   8.607  0.7048  0.5689 -0.0510
   19MOL0     O 2478   2.551   2.559   8.624  0.1272  1.1008 -0.5016
   19MOL0     C 2479   2.562   2.602   8.933  0.4638 -1.0608  0.7142
   19MOL0     C 2480   2.547   2.670   9.051 -0.7106  0.1365 -0.0393
   19MOL0     N 2481   2.714   3.160   9.736 -0.4256  0.0877 -0.1902
   19MOL0     N 2482   2.713   3.101   9.854 -0.5202 -1.0148 -0.7972
   19MOL0     C 2483   3.429   2.934  10.089  0.8006  1.6116  0.3038
   19MOL0     C 2484   3.555   2.954  10.026  0.4585 -1.1616 -0.5326
   19MOL0     C 2485   3.971   3.052   9.938  1.1142  0.2313  0.7563
   19MOL0     C 2486   4.056   2.952   9.890 -0.6651  0.4096 -0.2961
   19MOL0     C 2487   4.177   2.976   9.831 -0.0739  0.4605  0.2687
   19MOL0     C 2488   4.216   3.103   9.804 -0.2196 -0.6148 -0.0249
   19MOL0     O 2489   4.327   3.129   9.733 -0.9700 -0.7060 -0.2366
   19MOL0     C 2490   4.318   3.184   9.601  1.2213 -0.5338  0.0600
   19MOL0     C 2491   4.358   3.077   9.498 -0.0885  0.7939  0.3946
   19MOL0     C 2492   4.498   3.005   9.522 -0.8614  0.1081 -0.0632
   19MOL0     C 2493   4.512   2.876   9.435  0.2156 -0.3115  0.4687
   19MOL0     C 2494   4.465   2.882   9.299 -0.7266 -0.0059 -0.8691
   19MOL0     C 2495   4.431   2.883   9.184 -0.1490  0.3582  0.0895
   19MOL0     C 2496   4.139   3.205   9.846 -0.5208  0.0509 -0.6424
   19MOL0     C 2497   4.014   3.188   9.906  0.1708  0.9864  0.3082
   19MOL0     H 2498   3.632   3.260  10.155 -1.2548  0.9342 -2.4936
   19MOL0     H 2499   3.430   3.208  10.300 -1.3929  0.4800 -1.0478
   19MOL0     H 2500   3.259   3.049  10.466  1.6621  2.2656  0.0114
   19MOL0     H 2501   3.231   3.160  10.327  0.6733 -0.5862 -0.6405
   19MOL0     H 2502   3.079   2.910  10.397  0.3126  0.3020 -1.4494
   19MOL0     H 2503   3.026   3.057  10.466 -0.1209  1.4987 -0.0682
   19MOL0     H 2504   2.962   3.147  10.240 -4.0187  0.0864  1.8211
   19MOL0     H 2505   3.045   2.989  10.163 -0.1874 -0.8746  0.8128
   19MOL0     H 2506   2.890   2.863  10.267 -1.5431 -0.1705 -1.2274
   19MOL0     H 2507   2.796   3.001  10.320  2.8915  1.7794  1.7500
   19MOL0     H 2508   2.761   3.057  10.083 -1.2753 -1.5581 -3.5807
   19MOL0     H 2509   2.855   2.903  10.044  0.2564  0.6560  0.9510
   19MOL0     H 2510   2.663   2.771  10.156  0.5016 -0.1724  2.3459
   19MOL0     H 2511   2.604   2.915  10.235 -0.1361 -2.0314  1.3000
   19MOL0     H 2512   2.595   2.816   9.949  2.2807  1.0181 -0.2583
   19MOL0     H 2513   2.458   2.823  10.057 -0.4686 -0.6906 -2.5210
   19MOL0     H 2514   2.539   3.095  10.046  0.6559  1.4905 -1.6780
   19MOL0     H 2515   2.410   3.032   9.968 -0.5526 -0.4605  2.1426
   19MOL0     H 2516   2.438   3.005   9.702  1.8777 -1.6083 -2.8233
   19MOL0     H 2517   2.485   3.131   9.486 -1.8428  2.6703  4.2292
   19MOL0     H 2518   2.632   3.232   9.470 -1.1843 -1.5413 -3.3194
   19MOL0     H 2519   2.770   3.018   9.452  1.1574  1.1813 -1.0420
   19MOL0     H 2520   2.685   3.073   9.307  2.4839  0.8928  0.6403
   19MOL0     H 2521   2.498   2.921   9.379  0.2912  0.7656 -2.7054
   19MOL0     H 2522   2.613   2.859   9.501  0.7425 -1.9634 -1.1578
   19MOL0     H 2523   2.620   2.712   9.307  0.2224  0.1212  0.6420
   19MOL0     H 2524   2.754   2.831   9.260  0.5250  0.7218  2.1734
   19MOL0     H 2525   2.726   2.942   9.004  2.6537 -0.2666 -0.7816
   19MOL0     H 2526   2.862   2.756   8.702  2.7106  0.2372  2.6103
   19MOL0     H 2527   2.756   2.899   8.669 -4.9908 -2.9496  0.3248
   19MOL0     H 2528   2.892   2.888   8.797  3.2071  0.9606 -4.9991
   19MOL0     H 2529   2.634   2.320   8.563 -0.2491 -1.7814 -1.7638
   19MOL0     H 2530   2.734   2.144   8.460  0.2098  1.5066 -0.3155
   19MOL0     H 2531   2.847   1.982   8.500 -0.3415  0.1074 -0.4587
   19MOL0     H 2532   2.852   1.993   8.327  0.1169 -0.9468 -0.5528
   19MOL0     H 2533   3.015   1.818   8.498  2.3571  0.8444 -0.7284
   19MOL0     H 2534   2.906   1.782   8.374  0.2420 -1.1421  0.9406
   19MOL0     H 2535   3.074   1.887   8.207 -1.9126  0.1497  1.1817
   19MOL0     H 2536   3.119   1.739   8.279  0.5897 -1.3607  0.3378
   19MOL0     H 2537   3.231   2.020   8.327  0.5664  0.2549 -2.8099
   19MOL0     H 2538   3.248   1.898   8.461  3.4165 -0.6862 -0.5440
   19MOL0     H 2539   3.372   1.742   8.305  4.3168  0.9340 -2.4984
   19MOL0     H 2540   3.441   1.900   8.303 -0.5914  1.1420  1.6199
   19MOL0     H 2541   3.260   1.794   8.093 -0.4072 -0.7839  3.0775
   19MOL0     H 2542   3.328   1.962   8.116 -0.2695  0.7962  0.9204
   19MOL0     H 2543   3.460   1.692   8.041 -1.1099  0.1717  0.5133
   19MOL0     H 2544   3.553   1.812   8.140 -2.6368  2.0694  1.9786
   19MOL0     H 2545   3.517   1.976   7.960  2.9063 -0.6473  1.1835
   19MOL0     H 2546   3.442   1.847   7.856 -0.7846 -0.3047  0.6050
   19MOL0     H 2547   3.120   2.272   8.571  0.2632 -1.2619  0.9149
   19MOL0     H 2548   3.016   2.492   8.651  1.2500 -0.3829  0.9327
   19MOL0     H 2549   2.507   2.510   8.913 -1.4147 -0.2639  1.8822
   19MOL0     H 2550   2.477   2.624   9.120  2.1916 -0.3845  2.8088
   19MOL0     H 2551   3.375   2.843  10.064  1.5007  1.1986  0.2568
   19MOL0     H 2552   3.595   2.876   9.962 -0.4492 -4.4069  2.4987
   19MOL0     H 2553   4.033   2.849   9.913  1.4410  0.0181  0.2817
   19MOL0     H 2554   4.245   2.896   9.806  1.4551  1.0616  2.2320
   19MOL0     H 2555   4.221   3.231   9.580  2.1966  2.6380  1.9190
   19MOL0     H 2556   4.379   3.275   9.608 -0.7795  0.8916 -0.0374
   19MOL0     H 2557   4.354   3.124   9.399  1.0869  1.7974  0.7984
   19MOL0     H 2558   4.281   3.000   9.487  1.3490 -0.4602 -1.9146
   19MOL0     H 2559   4.498   2.960   9.621  0.4728 -0.0842 -0.1262
   19MOL0     H 2560   4.580   3.075   9.500  0.4075 -0.9761  1.0408
   19MOL0     H 2561   4.456   2.802   9.492 -1.7542 -1.7211 -3.0311
   19MOL0     H 2562   4.616   2.843   9.423  1.5867  3.9687 -1.7608
   19MOL0     H 2563   4.388   2.867   9.087  0.4802 -0.8184 -0.0100
   19MOL0     H 2564   4.168   3.306   9.818 -2.4731  0.5494 -1.0263
   19MOL0     H 2565   3.949   3.274   9.916 -1.0228  0.3891 -1.6413
   20MOL0     O 2566   1.526  11.516   6.104  0.7350 -0.4731 -0.7084
   20MOL0     C 2567   1.543  11.538   5.987 -0.9993 -0.0375 -0.2863
   20MOL0     O 2568   1.644  11.607   5.948 -0.2417  0.6434 -0.1922
   20MOL0     C 2569   1.755  11.602   6.022  0.5491 -0.0149  0.2837
   20MOL0     C 2570   1.866  11.522   5.999  0.3588  0.1058  0.1409
   20MOL0     C 2571   1.979  11.530   6.092 -0.2019  0.3647  0.1398
   20MOL0     C 2572   1.974  11.614   6.201 -0.3245  0.6378 -0.7161
   20MOL0     O 2573   2.074  11.616   6.293  0.4428  0.6360 -0.0302
   20MOL0     C 2574   2.190  11.696   6.246  0.4981  0.3011 -0.8543
   20MOL0     C 2575   2.308  11.675   6.340 -0.4590  0.5655  0.3008
   20MOL0     C 2576   2.370  11.531   6.345  0.3182  0.1896 -1.1149
   20MOL0     C 2577   2.500  11.561   6.417 -0.7717 -0.0443 -0.6305
   20MOL0     C 2578   2.584  11.425   6.425 -0.9957  0.8009 -0.0687
   20MOL0     C 2579   2.684  11.433   6.546 -0.1331  0.0373 -0.0936
   20MOL0     C 2580   2.784  11.317   6.544  0.0456  1.0003 -0.5029
   20MOL0     C 2581   2.730  11.176   6.586 -0.5653  0.1911 -0.2802
   20MOL0     N 2582   2.714  11.148   6.730 -0.3202  0.6942 -0.8086
   20MOL0     C 2583   2.768  11.023   6.778  0.9787 -0.4510 -0.0250
   20MOL0     C 2584   2.742  11.041   6.912  0.7173  0.1972  1.5556
   20MOL0     C 2585   2.770  10.938   7.012  0.2359 -0.7065  0.0305
   20MOL0     C 2586   2.776  11.004   7.149  0.2571 -0.1977 -0.7360
   20MOL0     C 2587   2.800  10.886   7.251  1.1396  0.6572  0.6137
   20MOL0     C 2588   2.814  10.930   7.394  0.0130  0.4309 -0.0965
   20MOL0     O 2589   2.721  11.031   7.436  0.4902 -0.8677  0.2287
   20MOL0     C 2590   2.718  11.078   7.569 -0.0030  0.3855  0.7119
   20MOL0     C 2591   2.816  11.058   7.662 -0.6239  0.6127  0.2377
   20MOL0     C 2592   2.788  11.087   7.807  0.7226  0.0132  1.0262
   20MOL0     C 2593   2.905  11.077   7.903 -0.5261  0.4202 -0.8047
   20MOL0     C 2594   2.671  11.154   7.845  0.7436 -0.0330  0.3395
   20MOL0     C 2595   2.631  11.172   7.984  0.0585 -0.3034 -0.4673
   20MOL0     O 2596   2.660  11.082   8.079 -0.2664  0.1418  1.0681
   20MOL0     C 2597   2.581  11.078   8.190  0.3866  0.0256 -0.1813
   20MOL0     C 2598   2.442  11.074   8.193  0.0295 -0.3064 -0.1958
   20MOL0     C 2599   2.363  11.026   8.298  0.1420 -0.3166  0.6727
   20MOL0     C 2600   2.429  10.986   8.413  0.1933 -1.0588  0.7043
   20MOL0     O 2601   2.346  10.932   8.514  0.1150  0.3788 -0.0079
   20MOL0     C 2602   2.388  10.900   8.642 -0.5683  0.8632 -0.0626
   20MOL0     C 2603   2.447  11.014   8.721  0.4779  0.0604  0.3499
   20MOL0     C 2604   2.543  10.957   8.827  0.6446  0.8061  0.1417
   20MOL0     C 2605   2.547  11.064   8.946  0.0974 -0.2302 -0.0273
   20MOL0     C 2606   2.645  11.019   9.062  0.0098  0.6953 -0.6877
   20MOL0     C 2607   2.664  11.143   9.152 -0.1713 -0.0479 -0.2119
   20MOL0     C 2608   2.794  11.140   9.230  1.0946 -0.1152 -0.8916
   20MOL0     C 2609   2.800  11.031   9.343 -1.1058 -0.1869 -0.3657
   20MOL0    Cl 2610   2.961  11.022   9.398 -0.2476 -0.5474 -0.1045
   20MOL0     C 2611   2.569  11.005   8.421  0.2454 -0.0597  0.0299
   20MOL0     C 2612   2.638  11.043   8.310  0.5008  0.2093 -1.0057
   20MOL0     O 2613   2.579  11.283   8.007  0.1904 -0.1392  0.3449
   20MOL0     C 2614   2.589  11.191   7.739  0.1570  0.3905  0.4213
   20MOL0     C 2615   2.611  11.154   7.606 -0.0331  0.7703  0.2512
   20MOL0     N 2616   2.672  11.159   6.933  0.3801 -0.0310 -1.0085
   20MOL0     N 2617   2.652  11.221   6.827 -0.4131 -0.5111  0.6003
   20MOL0     C 2618   1.858  11.692   6.214 -0.2061 -0.1210 -0.8779
   20MOL0     C 2619   1.748  11.701   6.125 -0.7002  0.1206  0.1459
   20MOL0     C 2620   1.451  11.490   5.884 -0.6998  0.3135 -0.1337
   20MOL0     C 2621   1.417  11.569   5.771  0.2991  0.0510 -0.3392
   20MOL0     C 2622   1.336  11.518   5.662  0.0481 -0.1335  0.6752
   20MOL0     C 2623   1.264  11.404   5.687  0.3066 -0.0783 -0.7275
   20MOL0     O 2624   1.181  11.360   5.587  0.1356  0.7150  0.1726
   20MOL0     C 2625   1.078  11.256   5.607 -0.1642 -0.2128  0.4772
   20MOL0     C 2626   1.027  11.204   5.468  0.0676  0.0589 -0.0108
   20MOL0     C 2627   0.950  11.079   5.466  0.7275 -0.1169 -0.1045
   20MOL0     C 2628   0.840  11.076   5.579 -0.3755  0.5223  0.7697
   20MOL0     C 2629   0.885  11.060   5.714  0.0773  0.2172  0.5521
   20MOL0     C 2630   0.874  11.044   5.829 -0.1956 -0.8274 -0.5543
   20MOL0     C 2631   1.288  11.327   5.808 -0.9286 -0.9018 -0.0283
   20MOL0     C 2632   1.386  11.366   5.899 -0.0406 -0.0071  0.1981
   20MOL0     H 2633   1.872  11.443   5.925  1.9866 -0.1246  0.4861
   20MOL0     H 2634   2.068  11.473   6.069  0.7365  0.4498  3.1046
   20MOL0     H 2635   2.218  11.677   6.142  3.9038  0.7835 -0.1510
   20MOL0     H 2636   2.163  11.802   6.254  1.6877  0.4756  3.0590
   20MOL0     H 2637   2.382  11.744   6.300  2.1686  0.7695  4.7856
   20MOL0     H 2638   2.278  11.695   6.444 -1.7549  0.0268  0.0533
   20MOL0     H 2639   2.303  11.472   6.408  2.3170 -3.0386 -1.7560
   20MOL0     H 2640   2.379  11.478   6.249 -1.5218 -2.7836  0.2075
   20MOL0     H 2641   2.565  11.630   6.362 -0.1545  0.5927  0.8580
   20MOL0     H 2642   2.484  11.609   6.514  1.6042 -0.2279 -0.0877
   20MOL0     H 2643   2.537  11.329   6.446  0.2129  0.9272  4.0228
   20MOL0     H 2644   2.641  11.405   6.333 -1.2428 -3.3697  0.4944
   20MOL0     H 2645   2.736  11.529   6.541 -1.2608  0.6714 -0.0526
   20MOL0     H 2646   2.635  11.445   6.643 -2.1352  0.5049 -1.0972
   20MOL0     H 2647   2.826  11.304   6.443 -0.6592 -1.8932 -0.5287
   20MOL0     H 2648   2.860  11.347   6.617 -0.6295  1.4877  0.0141
   20MOL0     H 2649   2.800  11.108   6.537  1.6747  2.7253 -0.8067
   20MOL0     H 2650   2.633  11.144   6.547 -0.9507 -0.8017  1.3595
   20MOL0     H 2651   2.804  10.931   6.734 -3.7265 -1.7344 -1.7890
   20MOL0     H 2652   2.691  10.863   7.002 -1.8398  1.6799 -4.0527
   20MOL0     H 2653   2.865  10.889   6.984  1.5058  1.5194  0.2365
   20MOL0     H 2654   2.692  11.070   7.169  2.3252  2.9897 -1.8433
   20MOL0     H 2655   2.866  11.065   7.161  0.3633 -0.8872  3.3548
   20MOL0     H 2656   2.897  10.840   7.235  0.6685 -0.0251 -0.4232
   20MOL0     H 2657   2.719  10.813   7.242  0.5433  1.5803 -3.0749
   20MOL0     H 2658   2.912  10.976   7.406 -0.0077  1.1489 -2.2337
   20MOL0     H 2659   2.807  10.853   7.471  0.3739  0.3502 -0.1470
   20MOL0     H 2660   2.912  11.015   7.635 -1.9000 -2.2975 -0.0248
   20MOL0     H 2661   2.912  11.155   7.979  0.4837 -0.3260 -0.1148
   20MOL0     H 2662   2.922  10.994   7.972 -0.1190  1.3472  0.2495
   20MOL0     H 2663   2.994  11.089   7.841  0.9770  2.0145  1.5081
   20MOL0     H 2664   2.384  11.096   8.103  0.3216 -2.9341 -1.1143
   20MOL0     H 2665   2.256  11.019   8.282  0.3024  3.0700 -3.3187
   20MOL0     H 2666   2.302  10.869   8.702 -1.4756  1.0597 -1.2148
   20MOL0     H 2667   2.465  10.825   8.625  0.1366  1.3557  0.8810
   20MOL0     H 2668   2.503  11.078   8.653 -0.0406  0.1474 -0.0013
   20MOL0     H 2669   2.364  11.079   8.753  1.3978  2.4064 -1.7021
   20MOL0     H 2670   2.647  10.941   8.797  0.4465 -2.4507  0.8638
   20MOL0     H 2671   2.503  10.864   8.868  1.5148 -0.2321 -1.2773
   20MOL0     H 2672   2.575  11.163   8.908 -0.4694 -0.2333 -0.4644
   20MOL0     H 2673   2.445  11.084   8.981  0.2729 -0.9505  0.9329
   20MOL0     H 2674   2.736  10.982   9.015  1.1657  0.4946  1.5958
   20MOL0     H 2675   2.601  10.938   9.121 -1.4735  3.1402  1.8083
   20MOL0     H 2676   2.649  11.229   9.086 -2.6377 -1.4887 -1.6803
   20MOL0     H 2677   2.578  11.155   9.219  0.6425  0.9809  0.6777
   20MOL0     H 2678   2.812  11.234   9.283 -0.0501 -1.9158  3.0471
   20MOL0     H 2679   2.876  11.133   9.157  1.2436 -0.5096 -0.6887
   20MOL0     H 2680   2.785  10.934   9.296 -0.2061 -1.5082  1.9087
   20MOL0     H 2681   2.733  11.045   9.429  2.1678  0.8316  2.2424
   20MOL0     H 2682   2.622  10.981   8.513  2.0498  1.8068 -0.4477
   20MOL0     H 2683   2.744  11.035   8.330  0.2953  1.1749  0.6455
   20MOL0     H 2684   2.497  11.245   7.760 -1.0754 -1.6552  0.5046
   20MOL0     H 2685   2.539  11.180   7.528  1.6708  1.0776 -1.2919
   20MOL0     H 2686   1.849  11.746   6.308  0.8317  1.8133 -1.8246
   20MOL0     H 2687   1.675  11.781   6.132 -0.2530  0.5868 -0.4007
   20MOL0     H 2688   1.461  11.668   5.767  0.9636 -0.2842 -2.2528
   20MOL0     H 2689   1.314  11.573   5.570 -1.4562 -2.4071 -0.4251
   20MOL0     H 2690   1.114  11.170   5.664  1.1744  0.9069  1.3916
   20MOL0     H 2691   1.006  11.314   5.665  2.0327  1.1357  2.0054
   20MOL0     H 2692   1.117  11.197   5.407 -0.4160  1.3410 -0.9153
   20MOL0     H 2693   0.977  11.290   5.422 -0.6454  0.6880  1.8600
   20MOL0     H 2694   1.013  10.990   5.479  0.3000 -0.5545 -0.9577
   20MOL0     H 2695   0.905  11.069   5.367  1.0125  0.1595 -0.2652
   20MOL0     H 2696   0.788  10.980   5.571  3.1621 -1.9758  4.3254
   20MOL0     H 2697   0.776  11.164   5.563  0.9683  1.0180 -2.7824
   20MOL0     H 2698   0.862  11.029   5.934 -1.8340 -1.9435 -0.8566
   20MOL0     H 2699   1.225  11.240   5.827 -1.7292 -0.3562 -0.1469
   20MOL0     H 2700   1.417  11.300   5.979 -0.0172  1.1411  1.1550
   21MOL0     O 2701   9.654   3.400   3.229 -1.3156 -0.6861  0.3444
   21MOL0     C 2702   9.734   3.430   3.320  0.6326 -0.2804  0.7645
   21MOL0     O 2703   9.785   3.545   3.350 -0.2899 -0.6736 -0.3169
   21MOL0     C 2704   9.767   3.652   3.247 -0.2154  0.9875 -0.4826
   21MOL0     C 2705   9.785   3.782   3.306 -0.7241  0.1446  0.5735
   21MOL0     C 2706   9.799   3.895   3.222 -0.1771  0.5075 -0.1835
   21MOL0     C 2707   9.797   3.882   3.083 -0.1315 -0.0970  0.1688
   21MOL0     O 2708   9.824   3.987   3.002 -0.8137 -0.0323 -0.0678
   21MOL0     C 2709   9.929   3.970   2.908 -0.5175  0.2652  1.5824
   21MOL0     C 2710   9.968   4.109   2.873 -0.9407 -0.2688 -0.1432
   21MOL0     C 2711  10.057   4.128   2.746  0.0922 -0.3089  0.4354
   21MOL0     C 2712  10.068   4.272   2.698 -0.3511  0.4465 -0.4945
   21MOL0     C 2713  10.147   4.292   2.563  0.8824 -0.0762 -1.4831
   21MOL0     C 2714  10.171   4.443   2.529  0.8452 -0.1698  0.6333
   21MOL0     C 2715  10.057   4.539   2.550  0.5274  0.3091 -0.7616
   21MOL0     C 2716  10.059   4.670   2.470  0.0369 -0.3863 -0.2566
   21MOL0     N 2717  10.194   4.733   2.477  1.6057  0.4142  0.5652
   21MOL0     C 2718  10.243   4.784   2.598  0.3957 -0.2881 -0.3676
   21MOL0     C 2719  10.374   4.819   2.572 -1.2206 -0.5720 -0.6169
   21MOL0     C 2720  10.477   4.869   2.679 -0.0632  0.0923  0.1916
   21MOL0     C 2721  10.530   4.757   2.773 -0.3735  0.1156 -0.1188
   21MOL0     C 2722  10.425   4.726   2.884 -0.1647  0.2177 -0.3716
   21MOL0     C 2723  10.488   4.649   2.998  0.3841  0.1115  0.6544
   21MOL0     O 2724  10.407   4.551   3.069  0.0247 -0.1852  0.5701
   21MOL0     C 2725  10.408   4.422   3.025  0.1665  0.8071 -0.0476
   21MOL0     C 2726  10.464   4.364   2.912  0.2160  0.0629 -0.2451
   21MOL0     C 2727  10.445   4.227   2.885  0.6788  0.0227  0.0707
   21MOL0     C 2728  10.500   4.176   2.750  0.4856 -0.3849 -0.0009
   21MOL0     C 2729  10.357   4.158   2.973 -0.2816  0.2464  0.2607
   21MOL0     C 2730  10.332   4.009   2.962  0.5662 -0.2193 -0.1275
   21MOL0     O 2731  10.254   3.962   3.070 -0.3078  0.4017 -0.0405
   21MOL0     C 2732  10.261   3.841   3.123  0.4755  0.1494  0.5943
   21MOL0     C 2733  10.148   3.781   3.172  0.6231 -0.1679  0.3974
   21MOL0     C 2734  10.146   3.642   3.207 -0.7623 -0.1897 -0.1296
   21MOL0     C 2735  10.263   3.559   3.196  0.7524  0.5901 -0.7964
   21MOL0     O 2736  10.270   3.423   3.229 -0.8686 -0.1222 -0.5170
   21MOL0     C 2737  10.164   3.347   3.166  0.7262 -0.0298 -0.0181
   21MOL0     C 2738  10.202   3.194   3.183 -0.3586 -0.3567 -0.7184
   21MOL0     C 2739  10.125   3.107   3.077 -0.1781 -1.0552 -0.3385
   21MOL0     C 2740   9.977   3.079   3.098 -1.0492 -0.2324  0.0658
   21MOL0     C 2741   9.935   2.977   2.993 -0.1865 -1.0182  0.0335
   21MOL0     C 2742   9.791   2.986   2.963 -0.2147 -0.5758 -0.2670
   21MOL0     C 2743   9.754   2.891   2.843 -0.0095  0.9775  0.5067
   21MOL0     C 2744   9.669   2.967   2.736 -0.8259 -0.1727 -0.5070
   21MOL0    Cl 2745   9.625   2.850   2.607 -0.3170 -0.3286 -0.5345
   21MOL0     C 2746  10.376   3.627   3.159 -0.5198  1.1549 -0.4727
   21MOL0     C 2747  10.379   3.760   3.127 -0.5524 -0.5362 -0.5843
   21MOL0     O 2748  10.387   3.937   2.878  0.1643  0.5397  0.2828
   21MOL0     C 2749  10.286   4.227   3.068  0.0373 -0.3339  0.2485
   21MOL0     C 2750  10.320   4.350   3.105 -0.2245  0.7144 -0.4786
   21MOL0     N 2751  10.387   4.791   2.432  0.2807 -0.0182 -0.2683
   21MOL0     N 2752  10.284   4.727   2.382 -0.4726 -0.1710  0.3882
   21MOL0     C 2753   9.766   3.758   3.025  0.0330  0.5635 -0.8495
   21MOL0     C 2754   9.754   3.644   3.108 -0.4804 -0.2528 -0.3426
   21MOL0     C 2755   9.766   3.324   3.417 -0.1593  0.6583  0.2497
   21MOL0     C 2756   9.768   3.188   3.377 -0.0768  0.6055 -0.1027
   21MOL0     C 2757   9.786   3.088   3.469  0.8177 -0.5827  0.1004
   21MOL0     C 2758   9.789   3.116   3.606  0.0878 -0.4829 -1.1972
   21MOL0     O 2759   9.812   3.024   3.707  0.4664  0.1759  0.6176
   21MOL0     C 2760   9.778   2.881   3.689 -0.3919  1.2355 -0.9734
   21MOL0     C 2761   9.629   2.846   3.652  0.2391 -0.4088  0.4002
   21MOL0     C 2762   9.523   2.916   3.733  0.6222  0.0913 -0.2342
   21MOL0     C 2763   9.379   2.868   3.683 -0.1289  0.6059 -0.0135
   21MOL0     C 2764   9.356   2.877   3.543 -0.3352  0.1069 -0.6723
   21MOL0     C 2765   9.343   2.879   3.422  0.1229 -0.2560  0.4536
   21MOL0     C 2766   9.794   3.252   3.642 -0.6386 -0.1975 -0.6314
   21MOL0     C 2767   9.791   3.352   3.548 -0.0997 -0.7810 -1.2649
   21MOL0     H 2768   9.801   3.783   3.413  2.3099 -0.9866  0.2304
   21MOL0     H 2769   9.818   3.999   3.247 -3.8838  1.6765 -1.5983
   21MOL0     H 2770  10.020   3.923   2.946 -0.2063 -1.6028 -1.1559
   21MOL0     H 2771   9.905   3.909   2.820  1.3906 -0.6359  1.6394
   21MOL0     H 2772   9.876   4.168   2.862 -2.7632 -2.5756  1.5305
   21MOL0     H 2773  10.022   4.154   2.957 -1.7379  2.0479 -0.7999
   21MOL0     H 2774  10.161   4.095   2.761  0.8259  1.1027 -1.1673
   21MOL0     H 2775  10.035   4.068   2.658 -0.2101  1.4608 -0.7337
   21MOL0     H 2776   9.964   4.306   2.697 -0.8359 -0.9609 -1.7454
   21MOL0     H 2777  10.120   4.325   2.779 -0.8280 -0.8227  0.6750
   21MOL0     H 2778  10.246   4.246   2.569  1.3377  0.8894 -1.3763
   21MOL0     H 2779  10.092   4.242   2.483 -3.9135 -0.7793  1.8077
   21MOL0     H 2780  10.256   4.490   2.578 -0.8136  0.1839  3.3832
   21MOL0     H 2781  10.186   4.437   2.421 -0.7219  1.4366  0.2791
   21MOL0     H 2782   9.960   4.495   2.525 -1.7309  2.7867  2.6729
   21MOL0     H 2783  10.050   4.559   2.658  0.9728  0.6817 -0.7973
   21MOL0     H 2784   9.985   4.743   2.504  1.5920  0.7092  0.9478
   21MOL0     H 2785  10.035   4.632   2.371 -0.8489 -0.6369  0.0420
   21MOL0     H 2786  10.194   4.806   2.692  1.7378  3.9410 -0.4673
   21MOL0     H 2787  10.566   4.922   2.643  1.6787 -3.1848 -0.8034
   21MOL0     H 2788  10.421   4.942   2.737  0.4265 -0.2527  1.1261
   21MOL0     H 2789  10.619   4.785   2.830  0.4645 -3.4821  0.6274
   21MOL0     H 2790  10.561   4.671   2.713  3.4755  1.2511 -0.0258
   21MOL0     H 2791  10.346   4.666   2.836 -2.6032 -0.1712  3.6551
   21MOL0     H 2792  10.386   4.819   2.927  1.3374  1.8564 -2.3401
   21MOL0     H 2793  10.521   4.732   3.062  0.7821  1.9945 -1.8299
   21MOL0     H 2794  10.580   4.597   2.970  0.6661 -0.0748  1.8470
   21MOL0     H 2795  10.537   4.420   2.854  0.8586 -0.6742 -0.1773
   21MOL0     H 2796  10.571   4.095   2.770  4.1531  2.1452 -1.6563
   21MOL0     H 2797  10.408   4.151   2.697 -0.6641  0.7393  1.3788
   21MOL0     H 2798  10.561   4.251   2.700  0.0559  1.5694  2.2044
   21MOL0     H 2799  10.052   3.831   3.183  1.1181  0.6016  1.3317
   21MOL0     H 2800  10.055   3.591   3.236 -0.4025 -1.2971 -0.8866
   21MOL0     H 2801  10.066   3.379   3.204 -0.8682  0.1892 -3.8279
   21MOL0     H 2802  10.159   3.360   3.057  0.3366  0.7626  0.0913
   21MOL0     H 2803  10.307   3.165   3.185 -0.6989 -2.2519  4.2042
   21MOL0     H 2804  10.156   3.165   3.278  3.1576 -2.9201  0.4102
   21MOL0     H 2805  10.168   3.008   3.095  0.6305 -0.8253 -0.9236
   21MOL0     H 2806  10.151   3.149   2.979  0.2236  1.9157  0.9336
   21MOL0     H 2807   9.966   3.037   3.198  2.3542  0.2217  0.7448
   21MOL0     H 2808   9.915   3.169   3.107 -2.6232 -1.4335  2.4438
   21MOL0     H 2809   9.953   2.871   3.016  0.6479 -1.0955 -0.9116
   21MOL0     H 2810   9.980   3.003   2.897 -5.9454  0.3286 -2.7532
   21MOL0     H 2811   9.730   2.960   3.050  2.5955 -0.5177  1.8695
   21MOL0     H 2812   9.763   3.090   2.946 -1.5018 -1.0913 -1.5271
   21MOL0     H 2813   9.691   2.808   2.877 -0.5932  2.1901  2.5458
   21MOL0     H 2814   9.845   2.851   2.796  1.0476  2.9487  0.7668
   21MOL0     H 2815   9.722   3.054   2.696 -3.2093  1.6423  0.0189
   21MOL0     H 2816   9.572   3.001   2.773 -1.6458  1.0925 -3.4778
   21MOL0     H 2817  10.471   3.575   3.165 -1.9645 -2.4369 -3.9439
   21MOL0     H 2818  10.468   3.801   3.082 -0.5278  0.0306 -0.0371
   21MOL0     H 2819  10.213   4.175   3.130  0.5480 -2.8587 -1.1015
   21MOL0     H 2820  10.275   4.381   3.199 -1.8558  0.9588 -1.3101
   21MOL0     H 2821   9.770   3.755   2.916 -3.4277 -4.0058 -1.1920
   21MOL0     H 2822   9.729   3.554   3.052 -1.1637  1.0812 -2.2783
   21MOL0     H 2823   9.736   3.167   3.276  1.1184  0.9475 -0.5635
   21MOL0     H 2824   9.800   2.985   3.436 -2.6995 -1.3456  0.5911
   21MOL0     H 2825   9.841   2.831   3.615 -0.8461 -2.4015  0.8645
   21MOL0     H 2826   9.797   2.825   3.782  0.1252  0.5978 -1.4577
   21MOL0     H 2827   9.615   2.737   3.646  2.5482 -0.7027 -1.1030
   21MOL0     H 2828   9.613   2.893   3.554  3.5790  2.6265  1.1107
   21MOL0     H 2829   9.518   3.025   3.722  0.3918  0.7488  4.3709
   21MOL0     H 2830   9.533   2.911   3.842 -0.8030  0.3249 -0.0726
   21MOL0     H 2831   9.314   2.931   3.745 -2.1346  0.7686 -2.1702
   21MOL0     H 2832   9.381   2.762   3.710  2.1825  0.8362  1.0124
   21MOL0     H 2833   9.352   2.869   3.316  0.8436  1.7551  0.2693
   21MOL0     H 2834   9.803   3.293   3.743  0.6968 -1.0124 -0.4009
   21MOL0     H 2835   9.807   3.455   3.577 -0.7929 -0.7746 -0.8853
   22MOL0     O 2836   7.937   8.688   7.306  0.2087  0.2086  0.8266
   22MOL0     C 2837   7.818   8.654   7.332 -0.1943  0.2897 -0.4793
   22MOL0     O 2838   7.768   8.631   7.455  0.3458  0.3109  0.0069
   22MOL0     C 2839   7.866   8.608   7.552  0.7418 -1.2220 -0.4169
   22MOL0     C 2840   7.893   8.476   7.604  0.8058 -0.3833  0.2547
   22MOL0     C 2841   7.993   8.456   7.699 -0.6295 -0.2432 -0.0540
   22MOL0     C 2842   8.075   8.559   7.750  0.5197  0.0748  1.0629
   22MOL0     O 2843   8.170   8.537   7.851 -0.9326  0.0532  0.0046
   22MOL0     C 2844   8.193   8.629   7.961 -0.6468 -0.6511  1.1198
   22MOL0     C 2845   8.340   8.650   7.986 -0.1389  0.3840 -0.6545
   22MOL0     C 2846   8.420   8.532   8.033 -0.0223  0.6782 -0.0683
   22MOL0     C 2847   8.561   8.560   8.075  0.9559 -0.0439  0.2380
   22MOL0     C 2848   8.651   8.436   8.090  0.3099  0.1475 -0.8943
   22MOL0     C 2849   8.594   8.339   8.191  0.4762 -1.1933  0.2463
   22MOL0     C 2850   8.527   8.225   8.120 -0.3694 -0.9704 -0.0961
   22MOL0     C 2851   8.494   8.111   8.223  1.3306 -1.3627  0.0227
   22MOL0     N 2852   8.433   8.168   8.346 -1.2170 -0.8915 -0.0625
   22MOL0     C 2853   8.486   8.153   8.470  0.3718 -0.1911 -0.4073
   22MOL0     C 2854   8.386   8.193   8.554  0.3256  0.6326 -0.4156
   22MOL0     C 2855   8.394   8.194   8.720  0.4125  0.3674  0.6368
   22MOL0     C 2856   8.405   8.345   8.762  0.8763  1.0504 -0.0922
   22MOL0     C 2857   8.407   8.355   8.918  0.7413  0.0185  0.5745
   22MOL0     C 2858   8.372   8.503   8.948  0.1585 -0.0018 -0.1897
   22MOL0     O 2859   8.445   8.604   8.873 -0.5316  0.0296 -0.4970
   22MOL0     C 2860   8.524   8.706   8.932  0.0603 -0.6902 -0.2523
   22MOL0     C 2861   8.520   8.842   8.883  0.3977 -0.0605  0.2271
   22MOL0     C 2862   8.610   8.941   8.930 -0.3143  0.3979  0.2641
   22MOL0     C 2863   8.619   9.067   8.848  0.3283 -0.3172 -0.1485
   22MOL0     C 2864   8.702   8.906   9.032  0.1751  1.0751 -1.1646
   22MOL0     C 2865   8.794   9.000   9.085  0.6236 -0.1411  0.1020
   22MOL0     O 2866   8.890   9.036   8.999 -0.3142  0.2333  0.1876
   22MOL0     C 2867   8.981   9.124   9.044 -0.1975  0.5358 -0.4576
   22MOL0     C 2868   9.087   9.067   9.114 -0.0888 -0.2519 -0.1504
   22MOL0     C 2869   9.184   9.158   9.180  1.1906  0.7049  0.0651
   22MOL0     C 2870   9.171   9.292   9.154 -0.3158 -0.2635  0.1524
   22MOL0     O 2871   9.276   9.371   9.204  0.0151  0.6624  0.2549
   22MOL0     C 2872   9.244   9.500   9.256 -0.4421 -0.4764 -0.5837
   22MOL0     C 2873   9.354   9.557   9.345  0.0956  0.3649 -0.5118
   22MOL0     C 2874   9.282   9.639   9.447  0.9438  0.2207  0.4340
   22MOL0     C 2875   9.242   9.566   9.581  0.1938 -0.0139  0.1716
   22MOL0     C 2876   9.104   9.621   9.638  0.0239 -0.7077 -0.3873
   22MOL0     C 2877   9.129   9.769   9.673  0.5251 -0.2615 -0.3877
   22MOL0     C 2878   9.002   9.810   9.748 -0.1174 -0.6033  0.7858
   22MOL0     C 2879   8.989   9.966   9.733  0.4840  0.2495 -0.0204
   22MOL0    Cl 2880   9.140  10.064   9.743  0.4916 -0.1702  0.2872
   22MOL0     C 2881   9.068   9.349   9.079 -0.3379  0.2525  0.8799
   22MOL0     C 2882   8.977   9.260   9.020  1.2284 -0.2055 -0.4799
   22MOL0     O 2883   8.786   9.030   9.207 -0.3595 -0.1393  0.0942
   22MOL0     C 2884   8.708   8.771   9.079 -0.1587 -0.3167  0.1848
   22MOL0     C 2885   8.616   8.674   9.035  0.8509 -0.8254  0.1691
   22MOL0     N 2886   8.270   8.220   8.479 -0.2734 -0.5675 -0.4779
   22MOL0     N 2887   8.303   8.203   8.357  0.3008  0.3485 -0.0187
   22MOL0     C 2888   8.056   8.683   7.691  0.3412 -0.3061  0.0579
   22MOL0     C 2889   7.949   8.712   7.601 -1.0719 -0.5745  0.8908
   22MOL0     C 2890   7.714   8.657   7.223 -0.0138 -0.2336  0.3440
   22MOL0     C 2891   7.738   8.729   7.103 -0.2373  0.6535 -1.4392
   22MOL0     C 2892   7.643   8.718   7.002  0.1293  0.3948 -0.1426
   22MOL0     C 2893   7.515   8.667   7.014  0.2678  0.8965 -0.2010
   22MOL0     O 2894   7.428   8.682   6.912  0.9132  0.2239  0.1551
   22MOL0     C 2895   7.296   8.713   6.947  0.1226  0.9948  0.6352
   22MOL0     C 2896   7.229   8.818   6.848 -1.2488  0.1877 -0.5480
   22MOL0     C 2897   7.321   8.948   6.818 -0.5836  0.2541  0.5282
   22MOL0     C 2898   7.257   9.084   6.786  0.0662  0.1324  0.1862
   22MOL0     C 2899   7.222   9.104   6.644  0.3122 -0.0777 -0.2636
   22MOL0     C 2900   7.187   9.128   6.534  0.4148 -0.4197  0.1877
   22MOL0     C 2901   7.493   8.597   7.136 -0.4875  0.2544  0.3338
   22MOL0     C 2902   7.589   8.602   7.239 -0.5613 -0.1910 -0.7330
   22MOL0     H 2903   7.839   8.385   7.580  0.5984 -0.7309  1.9035
   22MOL0     H 2904   8.004   8.354   7.736  1.0264 -0.3660 -0.7904
   22MOL0     H 2905   8.147   8.727   7.943  0.9948  0.4811  2.7628
   22MOL0     H 2906   8.160   8.587   8.056 -0.5170 -0.4587  1.2504
   22MOL0     H 2907   8.384   8.684   7.892  1.2023 -1.4260 -0.7314
   22MOL0     H 2908   8.341   8.736   8.054 -1.3172  0.0523 -0.1747
   22MOL0     H 2909   8.370   8.494   8.123  0.0051  0.3610 -0.1872
   22MOL0     H 2910   8.407   8.459   7.953  1.9864 -0.5718  0.6865
   22MOL0     H 2911   8.606   8.620   7.996  2.1576  2.5557  2.6974
   22MOL0     H 2912   8.558   8.620   8.166  2.5803  2.2596 -1.1273
   22MOL0     H 2913   8.676   8.386   7.996 -3.1187 -2.9588 -0.3659
   22MOL0     H 2914   8.750   8.459   8.131  2.2562 -3.8940 -2.7311
   22MOL0     H 2915   8.676   8.309   8.257  0.7775  1.1494  1.0582
   22MOL0     H 2916   8.530   8.398   8.258 -1.2904  0.9368 -3.0639
   22MOL0     H 2917   8.435   8.264   8.075  1.6745  1.4083 -2.5655
   22MOL0     H 2918   8.591   8.179   8.045 -2.0409 -1.7603 -1.0851
   22MOL0     H 2919   8.582   8.052   8.252 -0.2306 -4.1450 -0.5780
   22MOL0     H 2920   8.419   8.043   8.183 -0.6673 -0.6708  2.3065
   22MOL0     H 2921   8.585   8.119   8.499 -0.5526 -1.2516  1.7581
   22MOL0     H 2922   8.305   8.145   8.760  0.1215 -0.1860 -0.6175
   22MOL0     H 2923   8.484   8.138   8.748 -0.1876 -2.0458 -1.8475
   22MOL0     H 2924   8.326   8.397   8.707 -1.6926 -0.1436  2.2717
   22MOL0     H 2925   8.502   8.387   8.733  1.2865 -0.2630 -0.7026
   22MOL0     H 2926   8.507   8.330   8.956  1.1874  1.1588  0.2030
   22MOL0     H 2927   8.332   8.288   8.961  0.2305  1.0487  1.3336
   22MOL0     H 2928   8.380   8.508   9.057 -1.5022  0.3621 -0.0605
   22MOL0     H 2929   8.266   8.524   8.934 -0.0310  0.9338  2.1941
   22MOL0     H 2930   8.451   8.866   8.804 -1.6301 -1.2603  1.5562
   22MOL0     H 2931   8.683   9.046   8.762  1.8327  0.9444  0.6397
   22MOL0     H 2932   8.515   9.094   8.827 -0.0803 -1.8670 -0.3124
   22MOL0     H 2933   8.663   9.152   8.899 -0.1018 -1.5060  2.3714
   22MOL0     H 2934   9.104   8.961   9.129  2.1921  0.1047  0.1740
   22MOL0     H 2935   9.252   9.118   9.255  1.4118  2.8119  1.0972
   22MOL0     H 2936   9.227   9.563   9.168 -1.3520  1.2165  0.7298
   22MOL0     H 2937   9.149   9.484   9.309  0.1915 -1.6789  0.2237
   22MOL0     H 2938   9.412   9.479   9.396 -2.0688 -0.5184  0.7611
   22MOL0     H 2939   9.423   9.610   9.279 -2.1008  0.2301 -3.0854
   22MOL0     H 2940   9.191   9.679   9.403  0.7982  2.6439  2.6955
   22MOL0     H 2941   9.342   9.724   9.478 -0.0388  0.1522  2.8022
   22MOL0     H 2942   9.224   9.463   9.546  0.5073 -1.3461  3.5061
   22MOL0     H 2943   9.322   9.564   9.655 -0.4176 -0.8027  0.8428
   22MOL0     H 2944   9.065   9.565   9.724  1.2981 -0.5977  0.2841
   22MOL0     H 2945   9.030   9.629   9.558 -0.7055  0.3217  0.3570
   22MOL0     H 2946   9.216   9.785   9.737  0.2865  1.0410 -0.3460
   22MOL0     H 2947   9.152   9.821   9.579 -2.0350  0.4280 -0.6991
   22MOL0     H 2948   9.013   9.781   9.853  2.8960 -0.0737  0.7154
   22MOL0     H 2949   8.909   9.774   9.703 -1.4950  2.9239  0.5394
   22MOL0     H 2950   8.918  10.011   9.803  0.4176 -0.9725  0.7305
   22MOL0     H 2951   8.946   9.972   9.633  3.3206 -0.3298 -1.4013
   22MOL0     H 2952   9.064   9.455   9.059 -0.6497  0.7333  3.1504
   22MOL0     H 2953   8.894   9.289   8.956  0.2133 -1.2884  0.2913
   22MOL0     H 2954   8.784   8.762   9.157  2.4627  2.7875 -1.7736
   22MOL0     H 2955   8.626   8.573   9.073 -0.0491 -1.1820 -0.5006
   22MOL0     H 2956   8.129   8.761   7.709  2.4506 -2.0823 -0.3822
   22MOL0     H 2957   7.948   8.816   7.569  2.6018  0.5435  3.7936
   22MOL0     H 2958   7.833   8.777   7.084 -0.8268  0.9774 -3.9066
   22MOL0     H 2959   7.678   8.768   6.912  0.3181  1.1437  0.3341
   22MOL0     H 2960   7.246   8.616   6.949  0.7442  0.6680  2.5193
   22MOL0     H 2961   7.293   8.741   7.053  0.6296 -3.4103  1.9943
   22MOL0     H 2962   7.132   8.853   6.885 -0.2053  0.2775  2.4120
   22MOL0     H 2963   7.218   8.777   6.748  1.6720  2.5365 -1.9751
   22MOL0     H 2964   7.370   8.912   6.727 -4.2129  2.0803 -2.4556
   22MOL0     H 2965   7.389   8.965   6.902 -0.2409  1.8747 -0.0301
   22MOL0     H 2966   7.330   9.162   6.807  1.7131 -2.0271  3.1713
   22MOL0     H 2967   7.166   9.081   6.847 -1.2535 -0.5788 -1.7114
   22MOL0     H 2968   7.145   9.141   6.436 -0.9647  2.7261  1.0619
   22MOL0     H 2969   7.397   8.549   7.153  0.3626 -2.7535 -2.2902
   22MOL0     H 2970   7.580   8.543   7.330  2.6886 -0.2824 -0.3650
   23MOL0     O 2971   1.001  11.186   9.167  0.0072 -0.0716  0.1118
   23MOL0     C 2972   1.020  11.091   9.087  0.8105 -0.0263 -0.8794
   23MOL0     O 2973   0.925  11.010   9.019 -0.9069 -0.1279 -0.1992
   23MOL0     C 2974   0.795  11.042   9.026 -0.5785  0.4070 -0.0278
   23MOL0     C 2975   0.711  10.937   9.054  0.5705  0.3279  0.5715
   23MOL0     C 2976   0.566  10.949   9.059 -0.8940  0.1704 -1.7904
   23MOL0     C 2977   0.517  11.075   9.026  0.0626  0.4863 -0.3409
   23MOL0     O 2978   0.383  11.107   9.044  0.2254 -0.2632 -0.1422
   23MOL0     C 2979   0.317  11.158   8.931 -0.1882 -0.0083 -0.0234
   23MOL0     C 2980   0.170  11.174   8.949  0.7435 -0.2515 -0.0081
   23MOL0     C 2981   0.103  11.032   8.971 -0.0347  0.7012  0.8633
   23MOL0     C 2982  -0.047  11.019   8.945  0.4202  1.0485  0.4492
   23MOL0     C 2983  -0.141  11.055   9.070  0.1117 -0.0502 -0.6193
   23MOL0     C 2984  -0.286  11.009   9.051 -0.4330 -0.0031 -0.3739
   23MOL0     C 2985  -0.366  11.033   9.180 -0.2456  0.1632 -0.7882
   23MOL0     C 2986  -0.505  10.958   9.179  0.6463  0.5352 -0.6815
   23MOL0     N 2987  -0.565  10.968   9.045 -0.2057 -0.3001 -0.3324
   23MOL0     C 2988  -0.651  11.070   9.000  0.3549 -0.0184 -0.0314
   23MOL0     C 2989  -0.704  11.027   8.884  0.0964 -0.2426 -0.2970
   23MOL0     C 2990  -0.765  11.116   8.785 -0.5349 -0.4054  0.7479
   23MOL0     C 2991  -0.880  11.033   8.727 -0.8024  0.1946  1.1625
   23MOL0     C 2992  -0.945  11.096   8.599 -0.8075  0.2974  0.2861
   23MOL0     C 2993  -1.069  11.176   8.614 -0.4876 -0.0940 -0.7523
   23MOL0     O 2994  -1.189  11.089   8.630 -1.0829 -1.1031 -0.1981
   23MOL0     C 2995  -1.279  11.058   8.533  0.2984  0.0584 -0.1635
   23MOL0     C 2996  -1.402  10.988   8.554  0.7000 -1.1250 -0.5431
   23MOL0     C 2997  -1.487  10.959   8.449  0.1015  0.5254  0.2504
   23MOL0     C 2998  -1.626  10.892   8.479  0.1397  0.1660 -0.3984
   23MOL0     C 2999  -1.466  11.011   8.321 -0.4195 -0.6016  0.2944
   23MOL0     C 3000  -1.561  11.008   8.199 -0.2452  0.0383  0.6707
   23MOL0     O 3001  -1.533  11.070   8.075 -0.1715 -0.4692 -0.3541
   23MOL0     C 3002  -1.623  11.070   7.964  0.0304 -0.5276 -0.7599
   23MOL0     C 3003  -1.629  11.190   7.893  0.2935  0.1131  0.6069
   23MOL0     C 3004  -1.726  11.197   7.787  0.0500 -0.3164 -0.2881
   23MOL0     C 3005  -1.809  11.081   7.753  0.5620 -0.0297 -0.1321
   23MOL0     O 3006  -1.887  11.067   7.636 -0.2961 -0.1330  0.2885
   23MOL0     C 3007  -1.863  11.135   7.517  0.4063 -0.4234 -0.3514
   23MOL0     C 3008  -1.998  11.195   7.463 -1.2211 -0.0140  0.1752
   23MOL0     C 3009  -2.000  11.223   7.315 -0.1722  0.1847  0.1972
   23MOL0     C 3010  -1.896  11.317   7.261 -0.2882  0.5693  0.0648
   23MOL0     C 3011  -1.932  11.367   7.116 -0.1973  1.3218 -0.0254
   23MOL0     C 3012  -1.853  11.487   7.058 -0.0033 -0.0781  0.0186
   23MOL0     C 3013  -1.721  11.444   6.988  0.3121  0.3293  0.2918
   23MOL0     C 3014  -1.676  11.564   6.916  0.8972 -0.5134  0.1840
   23MOL0    Cl 3015  -1.541  11.516   6.811 -0.2013 -0.2956 -0.5824
   23MOL0     C 3016  -1.798  10.963   7.826  0.1421 -0.5458  0.0538
   23MOL0     C 3017  -1.698  10.960   7.927  0.3222 -0.5967  0.6658
   23MOL0     O 3018  -1.667  10.951   8.219  0.6166 -0.4311 -0.7269
   23MOL0     C 3019  -1.342  11.063   8.293 -0.4581 -0.6923 -0.1954
   23MOL0     C 3020  -1.252  11.093   8.402  0.6961  0.2672 -0.2921
   23MOL0     N 3021  -0.656  10.903   8.856  0.0469 -0.3273  0.1297
   23MOL0     N 3022  -0.577  10.873   8.945 -0.3257 -0.1705  0.5560
   23MOL0     C 3023   0.603  11.179   9.006 -0.4761  0.3516  0.6492
   23MOL0     C 3024   0.742  11.159   8.995 -0.5364 -0.4560  1.3812
   23MOL0     C 3025   1.158  11.043   9.091  0.4094  0.6828  0.0356
   23MOL0     C 3026   1.194  10.908   9.070 -0.3309  0.6393  0.5685
   23MOL0     C 3027   1.329  10.863   9.080 -0.3798 -0.8610 -0.3758
   23MOL0     C 3028   1.434  10.953   9.109  0.0853 -0.2781  0.6337
   23MOL0     O 3029   1.560  10.912   9.084 -0.2235  0.4150 -0.7361
   23MOL0     C 3030   1.667  10.981   9.148  0.1233  0.6677 -0.8163
   23MOL0     C 3031   1.661  10.965   9.303 -0.4454  0.3677  0.9477
   23MOL0     C 3032   1.774  11.041   9.387 -0.1850 -0.9665 -0.3713
   23MOL0     C 3033   1.770  11.194   9.367 -0.0522  0.0120 -0.5127
   23MOL0     C 3034   1.896  11.261   9.375  0.0705 -0.4092 -0.4670
   23MOL0     C 3035   2.008  11.309   9.366 -0.2850 -0.2348  0.3023
   23MOL0     C 3036   1.399  11.083   9.154 -0.4114  0.4986  0.2623
   23MOL0     C 3037   1.262  11.122   9.143  0.3477 -0.3318  0.0654
   23MOL0     H 3038   0.747  10.841   9.088 -0.7877 -0.3290  0.1968
   23MOL0     H 3039   0.494  10.878   9.096 -0.0662 -1.1617 -2.6700
   23MOL0     H 3040   0.363  11.253   8.901  0.9889 -0.2301  0.9965
   23MOL0     H 3041   0.344  11.090   8.849  0.4172  0.7754 -0.4841
   23MOL0     H 3042   0.146  11.238   9.034 -2.3584 -0.9906 -0.2208
   23MOL0     H 3043   0.112  11.216   8.866 -2.0600  0.4083  2.1469
   23MOL0     H 3044   0.157  10.969   8.901  0.9352  1.9112  0.4798
   23MOL0     H 3045   0.124  10.994   9.072  0.6396  3.1000  1.6991
   23MOL0     H 3046  -0.074  11.058   8.847  3.9795 -1.1701 -1.6177
   23MOL0     H 3047  -0.077  10.915   8.927  0.9829  0.9454  0.1074
   23MOL0     H 3048  -0.102  11.020   9.165 -1.9289  2.3474  1.2382
   23MOL0     H 3049  -0.137  11.164   9.078 -1.5556  0.0078 -0.0192
   23MOL0     H 3050  -0.324  11.063   8.963  1.9165  0.5339 -1.1257
   23MOL0     H 3051  -0.276  10.901   9.040 -0.2086  0.0761 -0.9896
   23MOL0     H 3052  -0.317  11.013   9.276  0.1160  1.4717 -0.6791
   23MOL0     H 3053  -0.387  11.140   9.186 -0.4854  0.0651  3.8140
   23MOL0     H 3054  -0.574  10.993   9.256  1.0140  0.0063 -0.1055
   23MOL0     H 3055  -0.489  10.853   9.205 -0.7010  0.6126  0.6290
   23MOL0     H 3056  -0.663  11.169   9.042 -3.6364  0.0343 -0.9064
   23MOL0     H 3057  -0.796  11.211   8.829 -1.1223 -1.3556  2.5006
   23MOL0     H 3058  -0.689  11.130   8.708 -2.4439  0.2403 -1.0882
   23MOL0     H 3059  -0.946  11.035   8.814  0.0428  0.3965  1.8024
   23MOL0     H 3060  -0.844  10.933   8.704  2.3739  0.6428  3.4584
   23MOL0     H 3061  -0.973  11.015   8.531  1.3052  0.1257 -0.4275
   23MOL0     H 3062  -0.868  11.153   8.547  0.9884 -0.9462  1.4667
   23MOL0     H 3063  -1.083  11.244   8.530  1.4973  0.9329 -0.3021
   23MOL0     H 3064  -1.052  11.248   8.695 -2.0784 -1.2514  0.6924
   23MOL0     H 3065  -1.420  10.940   8.649 -2.0230 -0.2723 -0.5339
   23MOL0     H 3066  -1.709  10.955   8.446 -2.7112 -1.9691  2.1245
   23MOL0     H 3067  -1.636  10.793   8.434 -2.3477 -0.5612  1.5338
   23MOL0     H 3068  -1.641  10.888   8.588 -2.4978  2.4758 -0.5615
   23MOL0     H 3069  -1.563  11.265   7.935  0.6791  0.8367 -1.1932
   23MOL0     H 3070  -1.743  11.289   7.732 -1.2479 -0.2841  0.1356
   23MOL0     H 3071  -1.798  11.223   7.528  2.2901 -1.7116 -0.5554
   23MOL0     H 3072  -1.827  11.058   7.448  0.1781 -2.2481  1.4636
   23MOL0     H 3073  -2.076  11.119   7.474 -1.7059  0.1741 -1.5692
   23MOL0     H 3074  -2.015  11.284   7.524  3.4249  2.4577 -1.6360
   23MOL0     H 3075  -2.096  11.265   7.285 -0.8215 -2.9791 -2.8594
   23MOL0     H 3076  -2.004  11.132   7.255  2.0600 -0.5341  1.0612
   23MOL0     H 3077  -1.871  11.405   7.321  1.8833  1.6287 -2.2246
   23MOL0     H 3078  -1.798  11.267   7.269 -1.5788 -2.3641 -0.8995
   23MOL0     H 3079  -2.039  11.389   7.129 -0.2802  0.8142  0.1844
   23MOL0     H 3080  -1.913  11.278   7.055 -2.1584 -0.5091  1.8497
   23MOL0     H 3081  -1.921  11.549   6.998 -0.4648  1.0675  1.6470
   23MOL0     H 3082  -1.825  11.553   7.141 -1.3325 -2.6287  2.6680
   23MOL0     H 3083  -1.734  11.367   6.912  3.3734  0.9599 -1.0087
   23MOL0     H 3084  -1.635  11.417   7.051  1.9450  1.4603 -1.3486
   23MOL0     H 3085  -1.655  11.643   6.989 -2.5977 -1.2038  2.1709
   23MOL0     H 3086  -1.755  11.604   6.853  3.1407  0.1061 -2.4270
   23MOL0     H 3087  -1.854  10.874   7.801  1.7428 -2.0946  1.6629
   23MOL0     H 3088  -1.688  10.871   7.989  0.6926 -1.1242 -0.1255
   23MOL0     H 3089  -1.310  11.075   8.190  1.5410 -1.5066  0.2864
   23MOL0     H 3090  -1.161  11.150   8.383  0.6159  0.8342  0.9354
   23MOL0     H 3091   0.560  11.274   8.979 -2.5042  0.2498  3.0908
   23MOL0     H 3092   0.805  11.233   8.946  1.4403 -2.9383 -0.0356
   23MOL0     H 3093   1.118  10.831   9.063 -0.2452  0.5436  0.6975
   23MOL0     H 3094   1.345  10.758   9.058 -1.8623 -0.8339 -1.7723
   23MOL0     H 3095   1.760  10.935   9.114 -1.8056 -3.6275 -0.8614
   23MOL0     H 3096   1.671  11.084   9.111 -1.0560  1.9333  2.2564
   23MOL0     H 3097   1.675  10.857   9.314 -1.7121  0.2306  1.3364
   23MOL0     H 3098   1.564  11.000   9.339 -0.9978  0.9073 -0.9447
   23MOL0     H 3099   1.879  11.026   9.359  0.6377 -1.0434  2.4422
   23MOL0     H 3100   1.783  11.013   9.492  0.9011 -0.1195 -0.2064
   23MOL0     H 3101   1.706  11.243   9.441 -0.9439  2.2596 -2.6152
   23MOL0     H 3102   1.730  11.223   9.269 -0.0679  0.7686 -0.2875
   23MOL0     H 3103   2.113  11.329   9.373 -0.2511  0.0874 -0.9470
   23MOL0     H 3104   1.475  11.158   9.171  1.6844 -1.2225 -1.0591
   23MOL0     H 3105   1.226  11.221   9.172  0.4019 -0.0312 -0.8667
   24MOL0     O 3106   0.988   2.756   8.077 -0.2015 -0.6600 -0.2853
   24MOL0     C 3107   0.889   2.709   8.146  0.1662 -0.0259  0.7817
   24MOL0     O 3108   0.848   2.755   8.268 -0.3381  0.5491  0.1307
   24MOL0     C 3109   0.858   2.887   8.293  0.0878  0.0518 -1.3306
   24MOL0     C 3110   0.732   2.964   8.293  0.4714  0.6285 -0.5107
   24MOL0     C 3111   0.736   3.097   8.319 -0.3342 -0.1538  0.0499
   24MOL0     C 3112   0.860   3.164   8.346 -0.6332 -0.3830 -0.3661
   24MOL0     O 3113   0.894   3.300   8.362  0.5193 -0.1953  0.1653
   24MOL0     C 3114   0.792   3.401   8.347 -0.5644 -0.1365  0.3620
   24MOL0     C 3115   0.733   3.407   8.200  0.7231 -0.2708 -1.0382
   24MOL0     C 3116   0.776   3.543   8.133 -0.4014  0.7051 -0.0317
   24MOL0     C 3117   0.700   3.667   8.200  0.8447  0.1534 -0.2304
   24MOL0     C 3118   0.743   3.800   8.139 -0.2828  0.2830  0.9970
   24MOL0     C 3119   0.649   3.912   8.155  0.1340  0.0547 -0.7207
   24MOL0     C 3120   0.707   4.052   8.128 -0.0372  0.7305 -0.1166
   24MOL0     C 3121   0.705   4.110   7.987  1.0294 -0.1447  0.3685
   24MOL0     N 3122   0.568   4.131   7.932 -0.3006 -0.0349  0.4074
   24MOL0     C 3123   0.455   4.181   8.005 -0.2943  0.2490 -0.8972
   24MOL0     C 3124   0.365   4.193   7.907  1.1043 -0.5414  1.0481
   24MOL0     C 3125   0.225   4.233   7.912 -0.0390 -0.0339 -0.5472
   24MOL0     C 3126   0.130   4.131   7.981  0.5875  0.0645 -1.0233
   24MOL0     C 3127   0.119   3.991   7.933 -0.3867 -0.0189  0.2951
   24MOL0     C 3128   0.006   3.986   7.832  0.2136 -0.7663  0.6721
   24MOL0     O 3129  -0.031   3.854   7.810  0.5688 -0.1796  0.3315
   24MOL0     C 3130  -0.130   3.821   7.721  0.9042 -1.0842 -1.3239
   24MOL0     C 3131  -0.081   3.809   7.587  0.0321 -0.2180  0.5907
   24MOL0     C 3132  -0.180   3.782   7.488 -0.4333 -0.7963 -0.1184
   24MOL0     C 3133  -0.135   3.785   7.341 -0.5120 -1.4112  0.1611
   24MOL0     C 3134  -0.319   3.762   7.518 -0.6628 -1.1819 -0.9881
   24MOL0     C 3135  -0.423   3.721   7.426  0.6279 -0.1966  1.2952
   24MOL0     O 3136  -0.399   3.652   7.310 -0.2350  0.7828 -0.0680
   24MOL0     C 3137  -0.501   3.619   7.235 -0.1152  0.4591  0.3737
   24MOL0     C 3138  -0.617   3.546   7.270 -1.1179  0.0635 -0.1813
   24MOL0     C 3139  -0.723   3.524   7.177  0.8207 -0.5363  0.6416
   24MOL0     C 3140  -0.705   3.571   7.043  1.0183  0.0450 -0.0413
   24MOL0     O 3141  -0.784   3.542   6.935 -0.3840 -0.3308  0.8852
   24MOL0     C 3142  -0.882   3.437   6.937 -1.0336  1.1473  0.4499
   24MOL0     C 3143  -0.953   3.424   6.802 -0.4251 -0.0993  0.9051
   24MOL0     C 3144  -1.005   3.287   6.765 -0.5835  0.4773 -0.0177
   24MOL0     C 3145  -1.119   3.289   6.669 -0.1618  0.4015  1.2257
   24MOL0     C 3146  -1.135   3.413   6.564  0.3915 -0.8906 -0.4027
   24MOL0     C 3147  -1.010   3.417   6.467 -0.2024 -0.0121 -0.3568
   24MOL0     C 3148  -1.044   3.327   6.343 -0.5862  0.2124 -1.0294
   24MOL0     C 3149  -1.084   3.402   6.212  0.3978 -0.3371  0.6189
   24MOL0    Cl 3150  -1.019   3.336   6.061 -0.8972 -0.0895  0.1209
   24MOL0     C 3151  -0.583   3.620   6.997 -0.7233 -0.3310 -0.4888
   24MOL0     C 3152  -0.487   3.640   7.097  0.5228  0.0100  0.7628
   24MOL0     O 3153  -0.536   3.747   7.473 -1.0107  0.5360  0.3198
   24MOL0     C 3154  -0.357   3.773   7.655 -0.7187 -0.0989 -0.6684
   24MOL0     C 3155  -0.265   3.805   7.765  0.9660  0.0857 -0.2884
   24MOL0     N 3156   0.415   4.154   7.784  0.6053  0.5719 -1.0441
   24MOL0     N 3157   0.539   4.125   7.799  0.6121 -0.5628  0.1923
   24MOL0     C 3158   0.970   3.088   8.348 -0.5502 -0.0900 -0.4674
   24MOL0     C 3159   0.978   2.949   8.321  0.6297 -0.1888  0.7515
   24MOL0     C 3160   0.824   2.590   8.089  0.1308  0.2706 -0.2283
   24MOL0     C 3161   0.841   2.560   7.959  0.3019 -0.0049  0.0110
   24MOL0     C 3162   0.756   2.469   7.904  0.1048  0.8062  0.2228
   24MOL0     C 3163   0.663   2.393   7.976  0.2218 -0.0401 -0.2893
   24MOL0     O 3164   0.569   2.307   7.927 -0.8132  0.2616 -0.3467
   24MOL0     C 3165   0.470   2.354   7.836 -0.5141 -0.7918  0.3370
   24MOL0     C 3166   0.463   2.291   7.692 -0.5608  0.2683 -0.5938
   24MOL0     C 3167   0.385   2.379   7.594  0.8224  0.0424 -0.2304
   24MOL0     C 3168   0.376   2.319   7.459 -1.0706  0.3941  0.6677
   24MOL0     C 3169   0.388   2.422   7.361  0.4072  0.1876 -0.1276
   24MOL0     C 3170   0.392   2.488   7.263 -1.2627  1.3190 -0.7597
   24MOL0     C 3171   0.648   2.421   8.115  0.6373  0.0507 -0.5084
   24MOL0     C 3172   0.730   2.518   8.175  0.3653  0.1513  0.6313
   24MOL0     H 3173   0.638   2.910   8.296  0.6239  0.3751 -0.1993
   24MOL0     H 3174   0.640   3.143   8.342 -0.6622 -1.8943  2.6006
   24MOL0     H 3175   0.715   3.386   8.423  1.1195 -0.2757  2.1153
   24MOL0     H 3176   0.848   3.494   8.363 -2.0836  1.3355 -2.1074
   24MOL0     H 3177   0.755   3.314   8.146 -2.3957 -1.0095 -1.1853
   24MOL0     H 3178   0.625   3.410   8.190  0.7423 -0.9914 -1.5600
   24MOL0     H 3179   0.885   3.551   8.139 -0.2755 -1.6647  2.8708
   24MOL0     H 3180   0.742   3.528   8.030 -0.3965  1.0958 -0.0930
   24MOL0     H 3181   0.594   3.652   8.177 -0.2014  2.6944  2.3421
   24MOL0     H 3182   0.710   3.675   8.309 -3.0328 -0.4090  0.3080
   24MOL0     H 3183   0.841   3.831   8.177 -1.1688  3.6761  0.8782
   24MOL0     H 3184   0.744   3.787   8.030 -1.2880 -2.8793  1.2684
   24MOL0     H 3185   0.566   3.884   8.089  2.5198 -2.6692 -2.8417
   24MOL0     H 3186   0.625   3.909   8.261 -0.3034  2.2569 -0.7142
   24MOL0     H 3187   0.655   4.118   8.198  0.0394 -1.0078  1.6585
   24MOL0     H 3188   0.813   4.052   8.157  0.6773  1.0218 -2.5282
   24MOL0     H 3189   0.766   4.055   7.915  1.1779 -1.1821  1.2644
   24MOL0     H 3190   0.742   4.213   7.985 -0.5275  0.4585  1.3215
   24MOL0     H 3191   0.450   4.199   8.112  3.2664 -0.4803 -0.4833
   24MOL0     H 3192   0.224   4.332   7.957  1.3109 -0.3658  0.2717
   24MOL0     H 3193   0.180   4.246   7.813  0.6556  0.7189 -0.7768
   24MOL0     H 3194   0.032   4.180   7.986  0.8237  0.4855 -0.3387
   24MOL0     H 3195   0.172   4.126   8.082  2.2132 -2.6893 -1.7419
   24MOL0     H 3196   0.107   3.917   8.013  1.5288 -1.2711 -0.5131
   24MOL0     H 3197   0.212   3.974   7.880 -0.7378  0.7990 -0.6065
   24MOL0     H 3198   0.042   4.020   7.734 -1.6965  0.1692  0.2432
   24MOL0     H 3199  -0.083   4.048   7.850  1.2698  0.4929  1.8438
   24MOL0     H 3200   0.026   3.822   7.577 -0.1151  3.2837  1.9089
   24MOL0     H 3201  -0.115   3.683   7.307  0.1059 -0.6150 -2.0227
   24MOL0     H 3202  -0.206   3.842   7.281 -3.2985 -2.3898  2.3197
   24MOL0     H 3203  -0.040   3.837   7.326 -0.7263 -1.5898 -2.0552
   24MOL0     H 3204  -0.612   3.512   7.373 -2.0956  0.5352  0.0306
   24MOL0     H 3205  -0.808   3.464   7.206 -1.4658  2.5111  0.7277
   24MOL0     H 3206  -0.842   3.340   6.969 -1.8502  0.0296 -1.6878
   24MOL0     H 3207  -0.948   3.457   7.023  1.1780  0.6922  2.3642
   24MOL0     H 3208  -1.036   3.494   6.802 -0.3308  0.4144 -4.2282
   24MOL0     H 3209  -0.881   3.453   6.725  1.2285 -5.3604  0.0303
   24MOL0     H 3210  -1.038   3.229   6.851 -0.0408 -0.2701 -0.3049
   24MOL0     H 3211  -0.922   3.237   6.715 -0.8544 -0.0301  0.0409
   24MOL0     H 3212  -1.119   3.197   6.609 -1.0331  2.2153 -1.8029
   24MOL0     H 3213  -1.207   3.284   6.733 -1.4397  1.0037 -0.3910
   24MOL0     H 3214  -1.132   3.505   6.622 -3.1216 -0.1305 -1.2350
   24MOL0     H 3215  -1.224   3.401   6.502  0.0229 -1.1044  0.1645
   24MOL0     H 3216  -0.978   3.516   6.435  0.1147 -0.3046 -0.9718
   24MOL0     H 3217  -0.929   3.380   6.531 -0.1486 -1.3646 -1.1580
   24MOL0     H 3218  -1.117   3.250   6.371 -1.6589  2.0521  1.5784
   24MOL0     H 3219  -0.958   3.260   6.329  1.2992  2.5383 -1.2411
   24MOL0     H 3220  -1.064   3.509   6.210 -1.7041  0.0843 -1.0195
   24MOL0     H 3221  -1.193   3.411   6.207  0.3660 -0.0463  1.5961
   24MOL0     H 3222  -0.563   3.634   6.891 -0.3142  3.3605 -0.0814
   24MOL0     H 3223  -0.397   3.689   7.060 -0.9427  2.5224  0.3095
   24MOL0     H 3224  -0.456   3.753   7.694  0.0822 -2.4196  0.4091
   24MOL0     H 3225  -0.283   3.797   7.872  4.0419 -1.3491  0.2314
   24MOL0     H 3226   1.067   3.129   8.376 -0.2018 -0.9817 -0.3259
   24MOL0     H 3227   1.074   2.901   8.342  2.4144  2.9700  0.5011
   24MOL0     H 3228   0.914   2.624   7.910 -0.4781  1.5695  0.8512
   24MOL0     H 3229   0.752   2.442   7.799 -1.5294  1.0499  0.1888
   24MOL0     H 3230   0.377   2.343   7.893 -0.9475 -1.6827 -0.5054
   24MOL0     H 3231   0.490   2.460   7.818  3.5463 -0.8715  3.0584
   24MOL0     H 3232   0.392   2.210   7.709 -1.0255  1.1727  2.2455
   24MOL0     H 3233   0.558   2.254   7.651 -0.1787 -0.6329  1.0073
   24MOL0     H 3234   0.418   2.484   7.587 -0.9893  0.7255  0.7994
   24MOL0     H 3235   0.282   2.381   7.629  0.6636 -2.4521 -0.4352
   24MOL0     H 3236   0.290   2.252   7.454  0.4021 -1.4791 -1.5262
   24MOL0     H 3237   0.461   2.251   7.447 -1.6018 -0.8969  3.5918
   24MOL0     H 3238   0.399   2.556   7.181  2.7615  1.9779 -0.0502
   24MOL0     H 3239   0.569   2.366   8.165  0.6070  0.9694  0.4850
   24MOL0     H 3240   0.724   2.527   8.283  2.2976  0.5077  0.7468
   25MOL0     O 3241   0.992   9.187   9.099  0.2770  1.6596 -0.1162
   25MOL0     C 3242   1.080   9.241   9.167 -0.1770  0.3477  0.2559
   25MOL0     O 3243   1.218   9.245   9.151 -0.0948  0.1695 -0.5321
   25MOL0     C 3244   1.281   9.200   9.036 -0.0202  0.0990 -0.5019
   25MOL0     C 3245   1.415   9.178   9.050  0.5144  0.4917  0.1946
   25MOL0     C 3246   1.493   9.142   8.937  0.8081 -0.5383  0.6297
   25MOL0     C 3247   1.439   9.127   8.805 -0.3361 -0.2223 -0.7424
   25MOL0     O 3248   1.506   9.082   8.693 -0.3576  0.9882 -0.0451
   25MOL0     C 3249   1.459   9.082   8.557  1.0343  0.4465  0.3783
   25MOL0     C 3250   1.471   9.224   8.501 -0.2407  0.3846 -1.5521
   25MOL0     C 3251   1.415   9.244   8.363 -0.4190 -0.1127  0.2080
   25MOL0     C 3252   1.287   9.156   8.337 -1.5451 -0.3234 -0.4537
   25MOL0     C 3253   1.243   9.193   8.204  0.7267 -1.3790  0.4354
   25MOL0     C 3254   1.094   9.159   8.192  0.7974  0.0221 -0.3341
   25MOL0     C 3255   1.043   9.206   8.049  0.1130 -0.3479  0.4967
   25MOL0     C 3256   0.902   9.162   8.008 -0.2172  0.4415 -0.7164
   25MOL0     N 3257   0.903   9.015   8.004 -0.8317 -0.0442  0.6565
   25MOL0     C 3258   0.989   8.922   7.939  0.1220  0.1599 -0.9741
   25MOL0     C 3259   0.917   8.806   7.942 -1.1152  0.3445 -0.3052
   25MOL0     C 3260   0.976   8.681   7.889 -0.1946  0.8138  0.0817
   25MOL0     C 3261   0.875   8.597   7.805  0.4680 -0.3575 -0.7773
   25MOL0     C 3262   0.833   8.470   7.877 -0.1638  0.6307 -0.8550
   25MOL0     C 3263   0.708   8.475   7.964 -0.2080 -0.5234 -0.2782
   25MOL0     O 3264   0.598   8.519   7.894  0.0221  0.5769  0.6500
   25MOL0     C 3265   0.495   8.568   7.974 -0.2202  0.9754 -0.2799
   25MOL0     C 3266   0.490   8.705   7.997 -0.5749  0.7483 -0.3948
   25MOL0     C 3267   0.387   8.779   8.058  0.3603  0.2855 -0.4517
   25MOL0     C 3268   0.416   8.932   8.064 -0.1170  0.2328  0.4272
   25MOL0     C 3269   0.275   8.706   8.113  0.4734 -0.7294 -0.3561
   25MOL0     C 3270   0.160   8.768   8.171 -0.7037  0.0171 -0.0972
   25MOL0     O 3271   0.042   8.692   8.180 -0.4039 -0.0362 -0.3174
   25MOL0     C 3272  -0.060   8.765   8.231 -0.8009  0.5106 -1.5716
   25MOL0     C 3273  -0.083   8.778   8.374 -0.8879  0.7080 -0.2448
   25MOL0     C 3274  -0.196   8.841   8.422  0.1743  0.5861  0.2695
   25MOL0     C 3275  -0.290   8.901   8.336 -0.8744 -0.1850 -0.1389
   25MOL0     O 3276  -0.398   8.976   8.367  0.4467  0.1136  0.5386
   25MOL0     C 3277  -0.435   9.006   8.497  0.7347 -0.3509 -0.0267
   25MOL0     C 3278  -0.528   9.129   8.500  0.4150  0.8536 -1.2621
   25MOL0     C 3279  -0.591   9.143   8.637 -0.5674  0.7512 -1.3368
   25MOL0     C 3280  -0.616   9.288   8.678 -0.2874  0.6847 -0.2827
   25MOL0     C 3281  -0.712   9.294   8.802  0.6659 -0.6183  0.0314
   25MOL0     C 3282  -0.736   9.438   8.836 -0.1228 -0.2425 -0.6680
   25MOL0     C 3283  -0.822   9.436   8.970 -0.8188  0.6436 -0.0200
   25MOL0     C 3284  -0.942   9.531   8.961 -0.0287  0.1620 -0.6095
   25MOL0    Cl 3285  -1.009   9.552   9.131 -0.0350 -0.0867 -0.2031
   25MOL0     C 3286  -0.266   8.881   8.202 -1.2813  0.0679 -0.5086
   25MOL0     C 3287  -0.150   8.817   8.153  0.0508 -0.7182 -0.1296
   25MOL0     O 3288   0.165   8.889   8.201 -0.1743  0.0676  0.4881
   25MOL0     C 3289   0.285   8.566   8.105 -0.6038 -1.0731  0.2580
   25MOL0     C 3290   0.385   8.496   8.030  0.4686  0.3685  0.2434
   25MOL0     N 3291   0.797   8.823   7.995 -0.2853 -0.0559  0.3536
   25MOL0     N 3292   0.792   8.946   8.034  0.0573  0.0084 -0.3566
   25MOL0     C 3293   1.296   9.154   8.797  0.3549 -0.8544  0.5238
   25MOL0     C 3294   1.225   9.182   8.910  0.5064  0.1008  0.8379
   25MOL0     C 3295   1.026   9.303   9.296 -0.0924 -0.1490  0.4224
   25MOL0     C 3296   0.898   9.351   9.308  0.0513 -0.5241  0.3169
   25MOL0     C 3297   0.833   9.401   9.419  0.4016 -0.3605 -0.1091
   25MOL0     C 3298   0.906   9.407   9.539 -0.1941 -0.2844 -0.0756
   25MOL0     O 3299   0.867   9.462   9.654 -0.4822  0.6303  1.0279
   25MOL0     C 3300   0.738   9.434   9.708 -0.2380 -0.8994  0.6253
   25MOL0     C 3301   0.681   9.554   9.790 -0.2100  0.7331  0.6229
   25MOL0     C 3302   0.524   9.551   9.787 -0.1581  0.9382  0.0574
   25MOL0     C 3303   0.463   9.685   9.835 -0.7544  0.9427 -0.4135
   25MOL0     C 3304   0.321   9.679   9.815  0.4762 -0.6255 -0.6252
   25MOL0     C 3305   0.197   9.691   9.807 -0.4180 -0.0245  0.5326
   25MOL0     C 3306   1.041   9.364   9.538  0.2125 -0.1947 -0.3650
   25MOL0     C 3307   1.097   9.318   9.417 -0.3297  0.5044 -0.1648
   25MOL0     H 3308   1.462   9.187   9.148  1.7462  0.5033 -0.3867
   25MOL0     H 3309   1.601   9.133   8.943  1.1210  0.2857 -2.1994
   25MOL0     H 3310   1.516   9.009   8.499  0.2901 -2.4700  3.0316
   25MOL0     H 3311   1.355   9.050   8.560  0.5842  1.7900 -0.1593
   25MOL0     H 3312   1.418   9.295   8.565 -0.6788  2.4230 -4.0082
   25MOL0     H 3313   1.575   9.247   8.523 -0.4945  0.1382 -0.0061
   25MOL0     H 3314   1.385   9.349   8.366 -1.6679 -0.4226  4.4685
   25MOL0     H 3315   1.494   9.234   8.287  0.6530 -0.7857  1.3713
   25MOL0     H 3316   1.302   9.048   8.339 -1.5088 -0.3132  1.3387
   25MOL0     H 3317   1.220   9.171   8.422 -1.0226 -4.8161  1.0165
   25MOL0     H 3318   1.243   9.302   8.196 -1.9211 -1.2862  0.5904
   25MOL0     H 3319   1.298   9.143   8.125 -2.6259 -0.1276 -3.0030
   25MOL0     H 3320   1.083   9.055   8.222 -1.0248  0.4258  0.4908
   25MOL0     H 3321   1.045   9.230   8.259  3.1259 -0.0675  1.5942
   25MOL0     H 3322   1.043   9.316   8.051  0.9257 -0.3549  1.6137
   25MOL0     H 3323   1.123   9.180   7.980 -0.9429 -0.9803 -0.5189
   25MOL0     H 3324   0.867   9.200   7.911 -0.3550 -1.1610 -1.3230
   25MOL0     H 3325   0.845   9.211   8.087 -2.6147 -1.4095 -1.1817
   25MOL0     H 3326   1.092   8.935   7.906  1.4179  1.7637  3.1036
   25MOL0     H 3327   1.059   8.711   7.826 -0.5855  2.3154  0.2540
   25MOL0     H 3328   1.013   8.619   7.972  1.5330  2.5139  0.6561
   25MOL0     H 3329   0.927   8.570   7.712  0.8191 -2.3656 -0.0502
   25MOL0     H 3330   0.792   8.664   7.783  1.5522  1.2393 -0.2053
   25MOL0     H 3331   0.919   8.435   7.935  1.2884  1.4187 -2.4674
   25MOL0     H 3332   0.800   8.397   7.803 -2.2891  0.8556 -0.2142
   25MOL0     H 3333   0.725   8.547   8.044  0.0545  1.0483 -1.7070
   25MOL0     H 3334   0.691   8.379   8.015 -0.3075 -1.1061 -1.3933
   25MOL0     H 3335   0.560   8.777   7.955 -0.4455  0.5436 -0.5299
   25MOL0     H 3336   0.510   8.959   8.017  1.1809  0.8084  3.1352
   25MOL0     H 3337   0.345   8.980   7.996  1.9771  1.4759 -1.0031
   25MOL0     H 3338   0.413   8.962   8.170  0.4460 -0.0585  0.5233
   25MOL0     H 3339  -0.021   8.723   8.443  3.3896 -0.3767 -4.4141
   25MOL0     H 3340  -0.194   8.847   8.530  2.3209 -0.2483  0.3196
   25MOL0     H 3341  -0.483   8.919   8.544  0.6536 -0.7661 -0.8519
   25MOL0     H 3342  -0.350   9.022   8.565  0.8714  0.6553 -0.4198
   25MOL0     H 3343  -0.476   9.220   8.469 -0.0595  1.1744 -1.1172
   25MOL0     H 3344  -0.613   9.125   8.431  0.5305 -4.0941 -1.5113
   25MOL0     H 3345  -0.524   9.105   8.714 -0.8590  1.6741 -0.6067
   25MOL0     H 3346  -0.685   9.087   8.640  0.2526 -0.6769  2.1019
   25MOL0     H 3347  -0.526   9.345   8.703 -1.4703  2.0976  0.9651
   25MOL0     H 3348  -0.675   9.332   8.597 -1.0321  1.3457  0.6005
   25MOL0     H 3349  -0.663   9.236   8.880  2.3360 -1.9752 -1.9046
   25MOL0     H 3350  -0.801   9.233   8.786  0.2092 -0.2685  1.1339
   25MOL0     H 3351  -0.645   9.499   8.837  0.4946 -1.0490 -2.6372
   25MOL0     H 3352  -0.805   9.477   8.761 -2.2279  0.4330  1.5032
   25MOL0     H 3353  -0.756   9.473   9.050 -2.5295 -0.1109  1.8417
   25MOL0     H 3354  -0.848   9.333   8.994  1.3686  0.0382 -0.0805
   25MOL0     H 3355  -1.028   9.498   8.901 -1.3853  1.9885  0.2140
   25MOL0     H 3356  -0.927   9.631   8.920  4.1480 -1.0345 -2.5201
   25MOL0     H 3357  -0.336   8.922   8.130 -2.9659 -0.4930  0.7464
   25MOL0     H 3358  -0.134   8.804   8.047  1.1335  1.6105 -0.3137
   25MOL0     H 3359   0.220   8.506   8.168 -0.5838  0.2479  1.6168
   25MOL0     H 3360   0.390   8.387   8.026 -2.5505  0.1051 -4.8686
   25MOL0     H 3361   1.243   9.129   8.705 -1.5108 -2.7316  2.0095
   25MOL0     H 3362   1.120   9.204   8.897  0.3744  0.4157  2.2810
   25MOL0     H 3363   0.840   9.356   9.216 -2.0802 -0.3564  1.6127
   25MOL0     H 3364   0.730   9.435   9.413  0.5343 -0.1279 -1.2082
   25MOL0     H 3365   0.666   9.419   9.627 -0.5132  1.2590  0.4164
   25MOL0     H 3366   0.729   9.341   9.765  0.8319 -0.8952  0.8098
   25MOL0     H 3367   0.708   9.644   9.733  3.1563  0.4801  1.5876
   25MOL0     H 3368   0.713   9.559   9.895 -0.9268  0.6413  0.8497
   25MOL0     H 3369   0.495   9.474   9.859  0.1950  1.3595  0.6654
   25MOL0     H 3370   0.488   9.528   9.687 -2.4718  3.1494  0.2809
   25MOL0     H 3371   0.496   9.776   9.784  2.0717 -0.9602 -2.3144
   25MOL0     H 3372   0.492   9.694   9.940 -0.8548 -2.5376  0.0317
   25MOL0     H 3373   0.090   9.683   9.798 -0.5588  0.1363  1.8613
   25MOL0     H 3374   1.088   9.364   9.636  1.0135 -1.4159 -0.7258
   25MOL0     H 3375   1.196   9.275   9.427 -0.9573 -0.8887  0.3652
   26MOL0     O 3376  11.275   0.141  10.431  0.3086 -0.6060  0.2209
   26MOL0     C 3377  11.323   0.156  10.319  0.0155  0.1792 -0.3883
   26MOL0     O 3378  11.460   0.175  10.289 -0.0474 -0.1898  0.4401
   26MOL0     C 3379  11.562   0.189  10.383 -0.5222 -0.1109 -0.2687
   26MOL0     C 3380  11.672   0.111  10.395 -0.6307 -0.2169 -0.3686
   26MOL0     C 3381  11.766   0.140  10.490 -0.3341 -0.3602 -0.2564
   26MOL0     C 3382  11.750   0.256  10.575 -1.0992 -0.9922 -0.2814
   26MOL0     O 3383  11.842   0.306  10.671 -0.7162 -0.5259 -0.4423
   26MOL0     C 3384  11.974   0.260  10.674 -0.1438 -0.0330  0.0501
   26MOL0     C 3385  12.052   0.296  10.804 -0.2372  0.3600 -0.0792
   26MOL0     C 3386  12.183   0.212  10.786 -0.5938  0.2169 -0.1937
   26MOL0     C 3387  12.274   0.245  10.904 -0.0097  0.2222 -0.4121
   26MOL0     C 3388  12.382   0.127  10.894  0.3581 -0.1220 -0.5953
   26MOL0     C 3389  12.476   0.125  11.019  0.5080 -0.8612  0.1016
   26MOL0     C 3390  12.562   0.001  11.021 -0.7815  0.8600 -0.0386
   26MOL0     C 3391  12.485  -0.115  11.078  0.6088  0.6752  0.1934
   26MOL0     N 3392  12.471  -0.100  11.220 -0.5877 -0.0591  0.1611
   26MOL0     C 3393  12.553  -0.151  11.315 -0.0112  0.0395  0.4116
   26MOL0     C 3394  12.491  -0.114  11.435  0.2181  1.3474 -0.4396
   26MOL0     C 3395  12.545  -0.137  11.577  0.9644 -0.1307 -0.3226
   26MOL0     C 3396  12.647  -0.040  11.615  0.7645  0.2587  0.3237
   26MOL0     C 3397  12.778  -0.066  11.540 -0.9980 -0.3805 -0.0368
   26MOL0     C 3398  12.859  -0.197  11.554 -0.1642 -0.2717  0.3554
   26MOL0     O 3399  12.879  -0.221  11.690  0.2592 -0.6748  0.5026
   26MOL0     C 3400  12.938  -0.331  11.732  0.4433  0.0253  0.7098
   26MOL0     C 3401  12.960  -0.319  11.864  0.4975  0.2797  0.8899
   26MOL0     C 3402  13.024  -0.409  11.938 -0.3468  0.8631 -0.5475
   26MOL0     C 3403  13.039  -0.378  12.086 -0.6952  0.3304  0.7137
   26MOL0     C 3404  13.064  -0.529  11.869  1.1574  0.2828  0.2505
   26MOL0     C 3405  13.140  -0.635  11.934 -1.1406 -0.1196  0.3281
   26MOL0     O 3406  13.170  -0.622  12.066  0.5959  0.8099 -0.3118
   26MOL0     C 3407  13.218  -0.731  12.126  0.9225 -0.4987 -0.1319
   26MOL0     C 3408  13.341  -0.723  12.185 -0.3504 -0.0359 -0.9982
   26MOL0     C 3409  13.409  -0.846  12.216  0.0057  0.8098 -0.8196
   26MOL0     C 3410  13.352  -0.972  12.220 -0.0580  0.8795  0.0584
   26MOL0     O 3411  13.396  -1.084  12.276 -0.2678 -0.6280  0.0488
   26MOL0     C 3412  13.524  -1.081  12.348 -0.8666  0.9097  0.1150
   26MOL0     C 3413  13.563  -1.211  12.406 -1.1398  0.8343 -0.1597
   26MOL0     C 3414  13.702  -1.199  12.476 -1.1525 -0.1574 -0.0383
   26MOL0     C 3415  13.824  -1.208  12.381  0.2000 -0.0897  0.2860
   26MOL0     C 3416  13.961  -1.250  12.437 -0.2968  0.5428  0.2918
   26MOL0     C 3417  13.993  -1.174  12.572 -0.0448 -0.0607  0.4247
   26MOL0     C 3418  13.987  -1.018  12.561 -0.2009  0.2257  0.3909
   26MOL0     C 3419  14.115  -0.955  12.636 -0.0907 -0.0049 -0.8463
   26MOL0    Cl 3420  14.082  -0.994  12.808 -0.2348 -0.1745  0.3626
   26MOL0     C 3421  13.214  -0.980  12.179 -1.1471 -0.3515 -0.3058
   26MOL0     C 3422  13.150  -0.859  12.136  0.1524 -0.6247 -0.2892
   26MOL0     O 3423  13.172  -0.731  11.866  0.2947  0.7573 -0.0205
   26MOL0     C 3424  13.039  -0.543  11.725  0.2917  0.4067 -0.3384
   26MOL0     C 3425  12.979  -0.443  11.652  0.0614 -0.3209  0.4138
   26MOL0     N 3426  12.381  -0.032  11.406  0.4218  0.6717 -1.1288
   26MOL0     N 3427  12.377  -0.020  11.280 -0.0106  0.2576  0.1685
   26MOL0     C 3428  11.630   0.326  10.579 -0.7231  0.0307  0.3971
   26MOL0     C 3429  11.540   0.296  10.474 -0.6182  0.5394  0.0595
   26MOL0     C 3430  11.228   0.167  10.204 -0.0648  0.6591 -0.0037
   26MOL0     C 3431  11.265   0.159  10.062 -0.4181 -0.0009 -0.5241
   26MOL0     C 3432  11.171   0.176   9.960 -0.0442 -0.3855  0.4063
   26MOL0     C 3433  11.038   0.214   9.981 -0.8652 -0.7396  0.1604
   26MOL0     O 3434  10.958   0.251   9.875  0.0178  0.3824 -0.3543
   26MOL0     C 3435  10.821   0.298   9.899 -0.4710  0.1886  0.1861
   26MOL0     C 3436  10.760   0.390   9.784 -0.3483  0.7167  0.0853
   26MOL0     C 3437  10.740   0.303   9.656 -0.9776 -0.3891 -0.0511
   26MOL0     C 3438  10.621   0.214   9.655 -0.3923  0.0533  0.1137
   26MOL0     C 3439  10.494   0.283   9.649 -0.8659  0.1196 -0.4250
   26MOL0     C 3440  10.403   0.362   9.648 -0.1635  0.0941 -0.4867
   26MOL0     C 3441  11.003   0.225  10.126 -0.2489 -0.6743  0.5048
   26MOL0     C 3442  11.093   0.201  10.222 -0.0737 -0.3494 -0.0533
   26MOL0     H 3443  11.701   0.024  10.337  3.4021 -0.7496  2.0196
   26MOL0     H 3444  11.861   0.088  10.484  0.9556  1.8950 -0.6440
   26MOL0     H 3445  11.973   0.151  10.682  2.4460 -0.1561 -0.5064
   26MOL0     H 3446  12.033   0.287  10.586 -0.5691 -1.2213 -0.6288
   26MOL0     H 3447  12.081   0.402  10.802 -1.0227  0.5735 -0.6780
   26MOL0     H 3448  11.997   0.262  10.893 -0.3651 -1.7203 -0.9090
   26MOL0     H 3449  12.167   0.104  10.784  0.3819  0.0482  0.4486
   26MOL0     H 3450  12.234   0.245  10.695 -0.7886  3.3383  0.7074
   26MOL0     H 3451  12.319   0.345  10.902  2.5930 -0.8562 -2.1335
   26MOL0     H 3452  12.210   0.243  10.993  0.5066  1.4526  0.0188
   26MOL0     H 3453  12.341   0.026  10.889 -1.5251  0.6175 -1.0855
   26MOL0     H 3454  12.442   0.143  10.804  1.3997 -1.7834 -0.2381
   26MOL0     H 3455  12.547   0.205  10.997 -3.7721  2.6963 -2.5321
   26MOL0     H 3456  12.417   0.140  11.110 -1.4321 -1.2869 -1.0125
   26MOL0     H 3457  12.594  -0.010  10.917 -2.3662 -3.3549 -0.3022
   26MOL0     H 3458  12.653   0.008  11.082 -1.0509 -1.2885  0.7195
   26MOL0     H 3459  12.535  -0.205  11.042  0.5328  0.7801 -0.1731
   26MOL0     H 3460  12.381  -0.111  11.045  0.3995  1.1993  0.8748
   26MOL0     H 3461  12.633  -0.224  11.303  0.2651  0.3922  0.0932
   26MOL0     H 3462  12.459  -0.134  11.646  1.6377 -1.1926  0.6139
   26MOL0     H 3463  12.574  -0.242  11.574 -3.7821 -1.6746 -1.9388
   26MOL0     H 3464  12.666  -0.053  11.722 -1.7576  0.8919  0.9233
   26MOL0     H 3465  12.608   0.061  11.597 -1.8981 -0.5533  1.0613
   26MOL0     H 3466  12.859  -0.002  11.577  0.4173 -1.3335 -1.3472
   26MOL0     H 3467  12.781  -0.045  11.433 -0.0784  0.4224  0.1245
   26MOL0     H 3468  12.957  -0.185  11.509 -0.0519  1.5853  0.9687
   26MOL0     H 3469  12.805  -0.279  11.506  0.6407 -2.1596  2.4901
   26MOL0     H 3470  12.923  -0.225  11.904 -0.1638 -0.0937  1.1585
   26MOL0     H 3471  12.989  -0.284  12.108 -4.0415 -1.3773  1.0466
   26MOL0     H 3472  12.997  -0.458  12.148 -0.6197 -0.5589 -0.3474
   26MOL0     H 3473  13.146  -0.369  12.111 -0.4831  0.7196 -0.2896
   26MOL0     H 3474  13.388  -0.625  12.183 -3.1468  1.4400 -3.6707
   26MOL0     H 3475  13.508  -0.832  12.259 -0.3368 -2.2154  1.2704
   26MOL0     H 3476  13.603  -1.052  12.278  2.2734 -1.5815  2.3029
   26MOL0     H 3477  13.516  -1.009  12.430  0.5390  1.0925  0.1247
   26MOL0     H 3478  13.494  -1.238  12.486 -0.7106 -1.5315 -0.5259
   26MOL0     H 3479  13.576  -1.286  12.328  1.9269  1.8953 -0.7998
   26MOL0     H 3480  13.702  -1.277  12.554  0.2666  0.0947  0.2376
   26MOL0     H 3481  13.719  -1.111  12.538 -0.1080 -0.1250 -0.3557
   26MOL0     H 3482  13.794  -1.283  12.307 -1.5627  0.5353  0.3141
   26MOL0     H 3483  13.839  -1.115  12.325  1.5056 -0.2091  0.4153
   26MOL0     H 3484  14.048  -1.241  12.372  0.9534 -2.4728  1.3439
   26MOL0     H 3485  13.965  -1.356  12.463  3.5425  0.6473  0.6005
   26MOL0     H 3486  13.909  -1.209  12.632 -1.5495 -0.5521 -1.8278
   26MOL0     H 3487  14.092  -1.205  12.605  1.8811  2.2610 -2.5752
   26MOL0     H 3488  13.904  -0.965  12.609 -0.4967 -0.8152  1.0640
   26MOL0     H 3489  13.997  -0.991  12.455  0.0294  4.0886  1.2712
   26MOL0     H 3490  14.134  -0.849  12.620 -3.2848  0.3558 -3.1824
   26MOL0     H 3491  14.210  -0.997  12.604 -0.8491 -1.4098 -1.3618
   26MOL0     H 3492  13.170  -1.079  12.176 -2.8639  0.3473  0.2057
   26MOL0     H 3493  13.050  -0.874  12.097  0.2444 -1.8714 -0.0722
   26MOL0     H 3494  13.062  -0.634  11.670  0.7913 -0.6254  1.4542
   26MOL0     H 3495  12.963  -0.457  11.545  3.2544 -0.9648 -0.0681
   26MOL0     H 3496  11.601   0.414  10.637  0.8317  0.2569  0.8998
   26MOL0     H 3497  11.449   0.353  10.458 -0.9184  1.0096  2.9455
   26MOL0     H 3498  11.368   0.136  10.035 -0.4166  1.9300 -2.4036
   26MOL0     H 3499  11.210   0.161   9.860  2.2374 -1.6059  1.4016
   26MOL0     H 3500  10.759   0.211   9.920 -0.0983  0.4272  2.6158
   26MOL0     H 3501  10.828   0.366   9.985  3.1967 -0.4041  0.5274
   26MOL0     H 3502  10.836   0.461   9.750  1.2373 -1.0553 -0.2161
   26MOL0     H 3503  10.664   0.436   9.810 -1.9581 -2.9776  1.4393
   26MOL0     H 3504  10.829   0.243   9.636  1.1596  2.3930  0.4980
   26MOL0     H 3505  10.728   0.378   9.577  1.9481  0.4840  0.2100
   26MOL0     H 3506  10.611   0.152   9.745  0.6138  2.0034  1.6437
   26MOL0     H 3507  10.634   0.135   9.580  1.8364  0.2158  0.2642
   26MOL0     H 3508  10.324   0.434   9.636 -1.4777 -1.3997 -1.2157
   26MOL0     H 3509  10.906   0.257  10.160  0.9110  1.3074  2.1314
   26MOL0     H 3510  11.055   0.222  10.321 -1.6004 -4.3175  0.4093
   27MOL0     O 3511   5.646   1.128   5.648  0.0744  0.9365 -0.1988
   27MOL0     C 3512   5.591   1.234   5.600  0.6179  0.3096 -0.4337
   27MOL0     O 3513   5.543   1.339   5.670  0.3721 -0.2117  0.6102
   27MOL0     C 3514   5.513   1.329   5.805  0.9184  0.0607 -0.1102
   27MOL0     C 3515   5.495   1.213   5.881 -0.6244 -0.1267 -0.2762
   27MOL0     C 3516   5.456   1.219   6.017  0.3544  0.4888 -0.6763
   27MOL0     C 3517   5.433   1.348   6.083  0.0318 -0.5268  0.3847
   27MOL0     O 3518   5.395   1.365   6.217 -0.4257 -0.2146 -0.1750
   27MOL0     C 3519   5.431   1.254   6.302  0.5932  0.1200 -0.3292
   27MOL0     C 3520   5.365   1.285   6.444  0.1758 -0.3955  0.0581
   27MOL0     C 3521   5.211   1.302   6.442 -0.0360  0.1106 -0.1587
   27MOL0     C 3522   5.147   1.373   6.561  0.1382  0.3348 -0.9606
   27MOL0     C 3523   5.002   1.396   6.541  0.0254 -0.3927  1.0796
   27MOL0     C 3524   4.941   1.499   6.640 -0.2850  0.3256 -0.2396
   27MOL0     C 3525   4.782   1.485   6.618 -0.4185 -0.8216 -0.1066
   27MOL0     C 3526   4.705   1.597   6.690 -0.0195 -0.2004  0.0563
   27MOL0     N 3527   4.557   1.591   6.689  0.3135 -0.1707 -0.3523
   27MOL0     C 3528   4.463   1.523   6.614  0.3198  0.0872  0.7410
   27MOL0     C 3529   4.349   1.555   6.669 -0.3543 -0.6479  0.3937
   27MOL0     C 3530   4.216   1.511   6.615 -0.3864  0.3975  0.5943
   27MOL0     C 3531   4.093   1.600   6.641 -0.5803 -0.2984  0.1480
   27MOL0     C 3532   4.116   1.750   6.606  0.2793  0.9538 -0.5742
   27MOL0     C 3533   4.008   1.851   6.642 -0.4544  0.1992 -0.0856
   27MOL0     O 3534   4.036   1.971   6.573 -0.5700 -0.4221 -0.3458
   27MOL0     C 3535   3.935   2.039   6.509 -0.3839  0.1051  1.0925
   27MOL0     C 3536   3.940   2.065   6.369 -0.2358  0.5384  0.0508
   27MOL0     C 3537   3.832   2.142   6.307 -0.5405  0.2604 -0.0226
   27MOL0     C 3538   3.850   2.177   6.165 -0.2589  0.8471  0.0600
   27MOL0     C 3539   3.725   2.181   6.387  1.4237 -0.2090  0.3418
   27MOL0     C 3540   3.621   2.271   6.341 -0.9837 -0.3004  0.0342
   27MOL0     O 3541   3.591   2.372   6.435 -0.2326 -0.2200  0.3152
   27MOL0     C 3542   3.479   2.460   6.416 -0.9210  0.6850 -0.9931
   27MOL0     C 3543   3.492   2.577   6.485 -0.0492  0.6626  0.2956
   27MOL0     C 3544   3.388   2.663   6.496  0.5155 -0.4429  0.5353
   27MOL0     C 3545   3.266   2.640   6.433  0.3042  0.9766 -0.3466
   27MOL0     O 3546   3.160   2.723   6.433 -0.5260 -1.0805 -0.8414
   27MOL0     C 3547   3.179   2.862   6.416 -0.0407  0.0498 -0.8139
   27MOL0     C 3548   3.045   2.949   6.437  0.9942  0.3462 -0.2882
   27MOL0     C 3549   3.011   2.952   6.578 -0.2239  0.3412  0.3141
   27MOL0     C 3550   3.069   3.063   6.665  0.1186  1.0508 -0.4281
   27MOL0     C 3551   3.047   3.045   6.819  0.3269  0.2089  0.2311
   27MOL0     C 3552   3.086   3.165   6.906 -0.4572 -0.3760  0.8064
   27MOL0     C 3553   3.036   3.149   7.048 -0.6139 -0.2995 -1.0737
   27MOL0     C 3554   2.886   3.147   7.064 -0.4146  0.4174  0.4763
   27MOL0    Cl 3555   2.820   2.982   7.052  0.2532 -0.0327  0.6889
   27MOL0     C 3556   3.258   2.523   6.361  0.0027 -0.3607 -0.6297
   27MOL0     C 3557   3.358   2.430   6.354 -1.3792 -0.1291  0.7997
   27MOL0     O 3558   3.567   2.255   6.233  0.2663  0.4455 -0.2876
   27MOL0     C 3559   3.715   2.138   6.523 -0.0506  0.5978 -0.5675
   27MOL0     C 3560   3.818   2.067   6.580  0.3302  0.1079 -0.1934
   27MOL0     N 3561   4.365   1.645   6.769  0.2376 -0.4218 -0.6452
   27MOL0     N 3562   4.486   1.663   6.781  0.0126  0.4965 -0.0903
   27MOL0     C 3563   5.445   1.461   6.003  0.0346 -0.5929 -0.9103
   27MOL0     C 3564   5.475   1.450   5.860 -0.3205 -0.1622  0.3061
   27MOL0     C 3565   5.594   1.244   5.455  0.1553  1.6477  0.5127
   27MOL0     C 3566   5.589   1.370   5.398  0.3171  0.0724  0.4999
   27MOL0     C 3567   5.582   1.391   5.259 -0.2295  0.1771 -0.5525
   27MOL0     C 3568   5.573   1.283   5.177 -0.5512 -0.1179  0.5379
   27MOL0     O 3569   5.565   1.303   5.046  0.1970  0.1067 -0.3325
   27MOL0     C 3570   5.622   1.207   4.957  1.0103 -0.8126  0.4529
   27MOL0     C 3571   5.606   1.237   4.810 -0.3410  0.1286  0.1938
   27MOL0     C 3572   5.617   1.112   4.724  0.2400  1.2067  0.4395
   27MOL0     C 3573   5.617   1.144   4.581  0.3765  0.4136 -0.2239
   27MOL0     C 3574   5.609   1.028   4.498  0.9870 -0.4279  0.5884
   27MOL0     C 3575   5.606   0.930   4.422  0.0001 -0.1229  0.3898
   27MOL0     C 3576   5.583   1.149   5.233 -0.3443  0.0912  0.3827
   27MOL0     C 3577   5.595   1.128   5.372 -0.3700 -0.0334  0.1420
   27MOL0     H 3578   5.517   1.119   5.833  0.5136 -1.2629  2.2939
   27MOL0     H 3579   5.449   1.122   6.065 -2.9919 -0.1100 -2.0706
   27MOL0     H 3580   5.388   1.161   6.266  0.1322  0.4380 -0.6122
   27MOL0     H 3581   5.541   1.253   6.309  0.5683 -0.0119  0.0590
   27MOL0     H 3582   5.413   1.208   6.507  0.5448 -0.5211 -0.3701
   27MOL0     H 3583   5.396   1.376   6.496 -0.6605 -1.3420  2.3465
   27MOL0     H 3584   5.180   1.360   6.354 -0.8395 -0.0509  0.0123
   27MOL0     H 3585   5.154   1.209   6.448 -1.7442  1.0001 -1.5339
   27MOL0     H 3586   5.147   1.311   6.651  0.3036  2.0913  0.2930
   27MOL0     H 3587   5.204   1.464   6.582 -0.8051  0.6400  0.3989
   27MOL0     H 3588   4.977   1.443   6.446 -2.3229  1.1284  2.3698
   27MOL0     H 3589   4.953   1.299   6.549 -2.2360  0.5411 -0.5043
   27MOL0     H 3590   4.967   1.480   6.745 -2.1032  0.0023  0.1893
   27MOL0     H 3591   4.977   1.595   6.603  2.2484 -1.4053 -2.6614
   27MOL0     H 3592   4.759   1.497   6.512  1.6336 -0.2063 -0.5096
   27MOL0     H 3593   4.752   1.381   6.634  4.0649 -2.1780  0.7194
   27MOL0     H 3594   4.730   1.695   6.648  0.3123 -0.0101  0.6845
   27MOL0     H 3595   4.731   1.607   6.796  0.4768  1.4924 -0.1868
   27MOL0     H 3596   4.475   1.467   6.521 -0.3581 -1.1055  1.3416
   27MOL0     H 3597   4.223   1.499   6.506 -0.0673  2.4021  0.3591
   27MOL0     H 3598   4.197   1.409   6.652 -0.2247 -0.4517 -1.5272
   27MOL0     H 3599   4.065   1.591   6.746 -2.4917  1.0181 -0.2022
   27MOL0     H 3600   4.011   1.563   6.579  1.6940  1.1550 -4.1012
   27MOL0     H 3601   4.136   1.764   6.499  0.5579  2.3829 -0.3504
   27MOL0     H 3602   4.209   1.779   6.656  1.0863 -1.5308 -0.5095
   27MOL0     H 3603   4.006   1.875   6.749 -0.9739  0.5533 -0.1672
   27MOL0     H 3604   3.910   1.817   6.608 -1.2039  2.5998 -0.5610
   27MOL0     H 3605   4.033   2.032   6.324  0.5029  0.3845  1.6444
   27MOL0     H 3606   3.776   2.130   6.099 -0.9662 -0.0812  1.4620
   27MOL0     H 3607   3.839   2.285   6.156  1.0914  0.8842 -1.8760
   27MOL0     H 3608   3.953   2.171   6.129  0.3969  0.0429  1.9664
   27MOL0     H 3609   3.584   2.591   6.541  0.9332  0.1425 -1.1525
   27MOL0     H 3610   3.392   2.753   6.557 -2.4821 -1.0337  1.7962
   27MOL0     H 3611   3.254   2.903   6.484 -2.5269  0.3756  1.8805
   27MOL0     H 3612   3.218   2.883   6.315  0.0127  0.6391 -0.6752
   27MOL0     H 3613   3.078   3.050   6.409  2.2896 -0.2683 -1.0912
   27MOL0     H 3614   2.960   2.918   6.376  1.0991 -1.3880  0.3813
   27MOL0     H 3615   3.059   2.865   6.624  1.0359  0.2123 -1.1668
   27MOL0     H 3616   2.904   2.937   6.591 -0.2636  0.9131  0.6674
   27MOL0     H 3617   3.176   3.051   6.649  0.2135 -2.3030  1.7503
   27MOL0     H 3618   3.025   3.158   6.634 -0.8094  0.6181 -0.4736
   27MOL0     H 3619   3.101   2.956   6.853  1.5458  1.0498  0.5702
   27MOL0     H 3620   2.940   3.040   6.840  0.4677  3.8526  2.6820
   27MOL0     H 3621   3.194   3.181   6.898 -0.5113 -1.0251 -2.8262
   27MOL0     H 3622   3.041   3.252   6.858  0.7413 -0.3245 -0.2979
   27MOL0     H 3623   3.067   3.238   7.102 -1.3263  0.1742 -1.4305
   27MOL0     H 3624   3.080   3.062   7.097  0.9280  1.6084  1.1070
   27MOL0     H 3625   2.848   3.213   6.986 -1.5695 -0.6566  0.1006
   27MOL0     H 3626   2.847   3.181   7.160 -0.8796 -2.0662  1.2325
   27MOL0     H 3627   3.157   2.499   6.329 -0.5701  1.8197 -0.6474
   27MOL0     H 3628   3.343   2.340   6.295 -0.8040  1.1253 -1.3767
   27MOL0     H 3629   3.625   2.162   6.579  0.8201  0.2555  1.0507
   27MOL0     H 3630   3.802   2.029   6.680  2.0502  0.5710  0.2861
   27MOL0     H 3631   5.410   1.558   6.036 -0.8047 -1.3049  0.3790
   27MOL0     H 3632   5.465   1.538   5.797 -1.9912 -3.0641 -3.9211
   27MOL0     H 3633   5.581   1.461   5.457 -2.1242 -0.4186  1.0028
   27MOL0     H 3634   5.577   1.492   5.218  2.3452  0.3482 -0.6171
   27MOL0     H 3635   5.721   1.182   4.997  0.0152 -2.5138  2.0831
   27MOL0     H 3636   5.557   1.119   4.967 -0.5665  0.3885  1.1212
   27MOL0     H 3637   5.682   1.303   4.768 -0.2760  3.7956  5.3005
   27MOL0     H 3638   5.506   1.281   4.802 -2.1912 -3.6036  0.4719
   27MOL0     H 3639   5.533   1.045   4.744  0.4183  0.1836 -1.9389
   27MOL0     H 3640   5.702   1.048   4.751 -0.6247 -0.7165 -1.1159
   27MOL0     H 3641   5.699   1.211   4.553  0.0266 -0.1105 -2.6871
   27MOL0     H 3642   5.520   1.186   4.554  0.4765  0.9362  0.2188
   27MOL0     H 3643   5.611   0.846   4.356 -1.4410  0.2105 -0.1871
   27MOL0     H 3644   5.598   1.061   5.170  0.9670  0.5960 -0.0544
   27MOL0     H 3645   5.616   1.025   5.398  2.6917 -0.5710 -3.6182
   28MOL0     O 3646   4.335   3.025   0.941 -0.2292 -0.7892 -0.1393
   28MOL0     C 3647   4.346   2.916   0.998  0.8516 -0.7954 -0.0007
   28MOL0     O 3648   4.266   2.802   0.971 -0.4940  0.3456  0.1762
   28MOL0     C 3649   4.155   2.812   0.893  0.1149  0.4594  0.0797
   28MOL0     C 3650   4.161   2.857   0.757 -0.2808 -0.0155  0.0369
   28MOL0     C 3651   4.047   2.856   0.686  0.3350  0.5390  0.2775
   28MOL0     C 3652   3.923   2.803   0.735 -0.9466  0.1546 -0.7529
   28MOL0     O 3653   3.817   2.805   0.654  0.1415  0.5376 -0.3958
   28MOL0     C 3654   3.707   2.706   0.656 -0.3647 -0.3625  0.4149
   28MOL0     C 3655   3.596   2.732   0.558 -0.2919  0.5652 -0.4076
   28MOL0     C 3656   3.470   2.659   0.610 -0.0266 -0.6191 -0.3192
   28MOL0     C 3657   3.479   2.506   0.615 -0.1390 -0.4378 -0.1216
   28MOL0     C 3658   3.357   2.420   0.617  0.0327 -0.4322  0.2912
   28MOL0     C 3659   3.406   2.278   0.654 -0.0699  0.7769 -0.0422
   28MOL0     C 3660   3.283   2.189   0.671  0.1629  0.0244  0.2761
   28MOL0     C 3661   3.327   2.043   0.688  0.3173 -1.1369 -0.5363
   28MOL0     N 3662   3.352   1.964   0.568  0.6802 -0.9815  0.0189
   28MOL0     C 3663   3.479   1.946   0.514  1.0214  0.2110 -0.6680
   28MOL0     C 3664   3.464   1.850   0.422  0.7544 -0.2254 -0.6727
   28MOL0     C 3665   3.551   1.820   0.303 -0.1933 -0.8402 -1.2923
   28MOL0     C 3666   3.529   1.921   0.199 -0.7702 -0.4576  0.4634
   28MOL0     C 3667   3.648   1.909   0.101 -0.5817 -0.4424  0.4480
   28MOL0     C 3668   3.606   1.908  -0.045  0.9602  0.4019  0.8475
   28MOL0     O 3669   3.709   1.853  -0.129 -0.4133  0.3339  0.3412
   28MOL0     C 3670   3.813   1.927  -0.174  0.2337 -0.9333  0.0881
   28MOL0     C 3671   3.850   2.060  -0.138 -0.1242  0.6132  0.5568
   28MOL0     C 3672   3.967   2.119  -0.182  1.1617  0.7189 -0.3546
   28MOL0     C 3673   4.008   2.245  -0.113  0.2183 -0.2836 -0.5007
   28MOL0     C 3674   4.055   2.055  -0.271 -0.8032  0.7241 -0.0605
   28MOL0     C 3675   4.178   2.119  -0.336  0.4446  0.3046  0.1570
   28MOL0     O 3676   4.179   2.252  -0.328  0.5419 -0.2426  0.0189
   28MOL0     C 3677   4.285   2.321  -0.371 -0.4696  0.6015 -0.4326
   28MOL0     C 3678   4.413   2.288  -0.327  0.0957 -0.4657 -0.6106
   28MOL0     C 3679   4.519   2.368  -0.379  0.8893 -0.0614  0.7334
   28MOL0     C 3680   4.491   2.488  -0.447 -1.0939 -0.9993  0.3350
   28MOL0     O 3681   4.592   2.566  -0.492  0.0582  0.4495  0.3623
   28MOL0     C 3682   4.595   2.618  -0.625 -0.3008 -0.5239 -0.2061
   28MOL0     C 3683   4.584   2.765  -0.625  0.7188 -0.1344 -0.6957
   28MOL0     C 3684   4.631   2.833  -0.747 -0.2311  0.0375  0.0057
   28MOL0     C 3685   4.633   2.985  -0.729 -0.3571 -0.1054  0.2581
   28MOL0     C 3686   4.676   3.052  -0.870 -0.2823 -0.1227  0.6768
   28MOL0     C 3687   4.818   3.045  -0.926 -0.1981 -0.1355 -0.3123
   28MOL0     C 3688   4.823   3.095  -1.069 -0.8828 -0.0794 -0.0161
   28MOL0     C 3689   4.965   3.099  -1.127 -0.8253  0.3912 -0.6428
   28MOL0    Cl 3690   4.979   3.064  -1.309  0.0327  0.2859  0.4149
   28MOL0     C 3691   4.360   2.526  -0.463  0.2965 -0.3976  0.0771
   28MOL0     C 3692   4.256   2.443  -0.433  0.1009 -0.8398 -0.2892
   28MOL0     O 3693   4.269   2.045  -0.370  0.2473 -0.1047  0.1893
   28MOL0     C 3694   4.010   1.924  -0.307 -1.0586 -0.0783  0.5560
   28MOL0     C 3695   3.900   1.857  -0.246 -0.6551 -0.0549  1.1475
   28MOL0     N 3696   3.333   1.807   0.425  0.1903 -0.1374  0.7638
   28MOL0     N 3697   3.265   1.881   0.507 -0.7474 -0.2728 -0.5642
   28MOL0     C 3698   3.923   2.755   0.868  0.9752 -0.9120 -0.1816
   28MOL0     C 3699   4.036   2.761   0.941 -0.0244 -0.2267 -0.1331
   28MOL0     C 3700   4.447   2.893   1.100  0.1834 -0.0389  0.5141
   28MOL0     C 3701   4.531   2.995   1.146 -0.9115 -0.5953  0.5624
   28MOL0     C 3702   4.638   2.972   1.228  0.3187  0.3133 -0.9282
   28MOL0     C 3703   4.654   2.844   1.280 -0.8023  0.7853 -0.7738
   28MOL0     O 3704   4.755   2.795   1.364  0.0477  0.3255  0.4102
   28MOL0     C 3705   4.831   2.877   1.449  0.0131 -0.5358 -0.2290
   28MOL0     C 3706   4.843   2.812   1.590  0.0759  0.1529 -0.0557
   28MOL0     C 3707   4.705   2.807   1.671 -0.6838  1.1465 -0.1750
   28MOL0     C 3708   4.680   2.676   1.750  0.0801  0.6369 -0.1424
   28MOL0     C 3709   4.550   2.662   1.833  0.0968 -0.0584 -0.1943
   28MOL0     C 3710   4.455   2.684   1.909  0.2828  0.2371  0.1448
   28MOL0     C 3711   4.573   2.734   1.233  0.3993 -0.3325  0.5456
   28MOL0     C 3712   4.469   2.767   1.144 -0.5308 -0.3475 -1.2740
   28MOL0     H 3713   4.252   2.889   0.706 -0.7051 -1.0681 -1.4372
   28MOL0     H 3714   4.051   2.915   0.595  0.5395  2.9805  1.7765
   28MOL0     H 3715   3.749   2.610   0.625  1.9006  0.2923  1.1774
   28MOL0     H 3716   3.661   2.697   0.755 -1.9529 -1.9088 -0.4077
   28MOL0     H 3717   3.592   2.841   0.544 -0.8829  0.3825 -1.8802
   28MOL0     H 3718   3.618   2.694   0.458  0.1199  0.9748 -0.4796
   28MOL0     H 3719   3.443   2.693   0.711 -1.8486 -0.3954 -0.8492
   28MOL0     H 3720   3.394   2.682   0.536  1.1136 -1.0970 -1.6797
   28MOL0     H 3721   3.536   2.472   0.527 -0.8356 -0.2520 -0.6561
   28MOL0     H 3722   3.543   2.494   0.703  0.5762 -3.7217 -0.9657
   28MOL0     H 3723   3.291   2.456   0.697 -0.2194 -1.2807  0.4730
   28MOL0     H 3724   3.313   2.418   0.517  1.4353  0.2759 -0.3737
   28MOL0     H 3725   3.472   2.243   0.574  0.6958  0.4394  0.7343
   28MOL0     H 3726   3.462   2.290   0.747 -2.6162 -0.8769  1.8099
   28MOL0     H 3727   3.228   2.223   0.759  1.5904 -1.6452  1.8878
   28MOL0     H 3728   3.207   2.196   0.592  0.7715 -1.7285 -0.5174
   28MOL0     H 3729   3.261   1.986   0.754  0.4537  0.3099  0.9164
   28MOL0     H 3730   3.417   2.042   0.750 -2.1836  0.9979  3.5991
   28MOL0     H 3731   3.577   1.985   0.542  0.8705  0.2227 -0.1348
   28MOL0     H 3732   3.657   1.826   0.331 -0.2390 -2.2081 -0.7311
   28MOL0     H 3733   3.518   1.726   0.259 -6.0347  1.7157 -3.2545
   28MOL0     H 3734   3.520   2.025   0.232  0.5041 -0.6728  1.5695
   28MOL0     H 3735   3.440   1.895   0.141 -0.5511  0.2800 -0.2136
   28MOL0     H 3736   3.708   1.818   0.114  0.3485  0.3585  2.1643
   28MOL0     H 3737   3.717   1.992   0.119  1.8837 -1.8994 -1.5660
   28MOL0     H 3738   3.575   2.008  -0.076  0.5128 -0.1306 -0.4822
   28MOL0     H 3739   3.534   1.826  -0.054  2.5309 -1.0543  0.9775
   28MOL0     H 3740   3.773   2.114  -0.084 -2.3153 -2.1181  0.4400
   28MOL0     H 3741   3.941   2.266  -0.029  0.7181  1.4553 -0.5005
   28MOL0     H 3742   4.102   2.226  -0.062 -0.1170 -0.9949 -0.1276
   28MOL0     H 3743   4.003   2.331  -0.181 -2.1730  0.0478 -0.0275
   28MOL0     H 3744   4.428   2.205  -0.259 -1.0640 -0.6451 -0.5515
   28MOL0     H 3745   4.621   2.340  -0.355  1.8270  1.6691 -0.8862
   28MOL0     H 3746   4.700   2.610  -0.654  0.2558  1.3869  1.1053
   28MOL0     H 3747   4.530   2.563  -0.694 -1.4822  0.4383  0.0957
   28MOL0     H 3748   4.477   2.779  -0.603  1.5054 -1.1259  5.4442
   28MOL0     H 3749   4.631   2.817  -0.541 -1.7174 -1.1491  1.4423
   28MOL0     H 3750   4.568   2.813  -0.834  2.9552  0.3269 -2.5620
   28MOL0     H 3751   4.727   2.789  -0.776  0.1948  0.6538  0.4476
   28MOL0     H 3752   4.536   3.020  -0.695  0.9034  2.2891  1.6466
   28MOL0     H 3753   4.710   3.022  -0.661  2.9552 -3.1268 -1.4534
   28MOL0     H 3754   4.658   3.160  -0.856  0.8199  0.1816 -0.1455
   28MOL0     H 3755   4.604   3.014  -0.944  0.1888  3.1540 -1.7090
   28MOL0     H 3756   4.895   3.091  -0.863  1.5731  1.0226 -3.1226
   28MOL0     H 3757   4.846   2.940  -0.935 -0.9295 -0.2483 -1.5186
   28MOL0     H 3758   4.777   3.194  -1.077 -1.2129 -0.0865  1.6424
   28MOL0     H 3759   4.761   3.031  -1.133 -0.6336 -0.7139  0.3682
   28MOL0     H 3760   5.018   3.022  -1.070  0.5264  1.7868  0.0509
   28MOL0     H 3761   5.022   3.191  -1.111  2.5362 -1.4621 -1.2047
   28MOL0     H 3762   4.338   2.622  -0.508 -1.2033  0.7164  2.9276
   28MOL0     H 3763   4.152   2.461  -0.460  0.3015  2.5284  0.7096
   28MOL0     H 3764   4.071   1.875  -0.383 -1.3873 -0.2870  0.4250
   28MOL0     H 3765   3.867   1.756  -0.265 -2.5205  0.4024  1.7039
   28MOL0     H 3766   3.832   2.719   0.915 -0.0273  2.9224  1.2209
   28MOL0     H 3767   4.045   2.727   1.044 -1.2090 -0.9750 -0.2604
   28MOL0     H 3768   4.530   3.097   1.108  4.7471 -0.6506 -0.6789
   28MOL0     H 3769   4.704   3.055   1.250  2.9443 -1.4025 -1.9220
   28MOL0     H 3770   4.933   2.871   1.411  0.3406 -4.5985  0.8294
   28MOL0     H 3771   4.788   2.977   1.462 -2.1727 -1.4121 -0.1781
   28MOL0     H 3772   4.919   2.866   1.646 -1.1065  0.2608  1.4866
   28MOL0     H 3773   4.887   2.713   1.573 -1.0657 -0.0946 -1.8790
   28MOL0     H 3774   4.619   2.820   1.605 -1.5707 -1.1056  0.4520
   28MOL0     H 3775   4.706   2.889   1.743  1.3262 -0.4853  1.8087
   28MOL0     H 3776   4.757   2.655   1.825  1.3178  2.6783 -0.7534
   28MOL0     H 3777   4.662   2.598   1.675 -1.6651  0.9533 -0.1022
   28MOL0     H 3778   4.358   2.705   1.950 -1.6352 -0.9881 -3.3422
   28MOL0     H 3779   4.599   2.634   1.267  1.7860 -0.2424 -0.1751
   28MOL0     H 3780   4.403   2.687   1.110 -0.6227 -1.9336  2.2225
   29MOL0     O 3781   2.671   5.547   6.543  0.0869 -0.3637  0.2820
   29MOL0     C 3782   2.585   5.628   6.582  0.2137 -0.3844  0.2329
   29MOL0     O 3783   2.592   5.695   6.692 -0.2269 -1.1251 -0.2274
   29MOL0     C 3784   2.717   5.692   6.767  1.0174  0.0096  0.0525
   29MOL0     C 3785   2.721   5.666   6.904  0.4574 -0.1604  0.8396
   29MOL0     C 3786   2.842   5.652   6.964 -0.5832  0.2698  0.1863
   29MOL0     C 3787   2.961   5.668   6.897 -0.4280 -0.7424 -0.7553
   29MOL0     O 3788   3.080   5.640   6.962  0.1171 -0.2987 -0.1162
   29MOL0     C 3789   3.130   5.742   7.052 -0.0371 -0.8917 -0.2206
   29MOL0     C 3790   3.055   5.879   7.060  0.4742  0.4319  0.7406
   29MOL0     C 3791   3.124   5.981   7.164 -0.3811 -0.6666  0.2289
   29MOL0     C 3792   3.279   5.996   7.161 -0.0386 -0.0230  0.2941
   29MOL0     C 3793   3.341   5.931   7.283  0.1927 -0.9940 -0.7728
   29MOL0     C 3794   3.481   5.980   7.316  0.0463 -0.3164  1.3047
   29MOL0     C 3795   3.569   5.894   7.226 -0.0050  0.8236 -0.5953
   29MOL0     C 3796   3.713   5.938   7.249 -0.1892  0.4761  0.0402
   29MOL0     N 3797   3.795   5.823   7.255  0.2434  0.0702 -0.5135
   29MOL0     C 3798   3.830   5.741   7.153 -0.9160  0.1102  0.9048
   29MOL0     C 3799   3.915   5.642   7.210 -0.1911 -0.2269 -0.1391
   29MOL0     C 3800   3.997   5.547   7.126  0.9880 -0.3392 -0.0498
   29MOL0     C 3801   3.950   5.399   7.122 -0.5248 -0.4859  0.4479
   29MOL0     C 3802   3.814   5.386   7.055 -0.2354 -0.2800  0.2164
   29MOL0     C 3803   3.791   5.240   7.023 -0.0193  0.3619 -0.7192
   29MOL0     O 3804   3.671   5.258   6.943  0.0723  0.3591 -0.6458
   29MOL0     C 3805   3.632   5.137   6.884 -0.6123 -0.9742 -0.1417
   29MOL0     C 3806   3.552   5.151   6.771  0.2001 -0.2252 -0.3653
   29MOL0     C 3807   3.518   5.029   6.700 -0.1795 -0.1774  0.4269
   29MOL0     C 3808   3.419   5.052   6.593  0.6593  0.3317  0.3084
   29MOL0     C 3809   3.565   4.906   6.739  0.5885  0.3813  0.6614
   29MOL0     C 3810   3.542   4.784   6.658 -0.5343  0.3251 -0.4527
   29MOL0     O 3811   3.557   4.669   6.735  0.1655 -0.5339  0.0970
   29MOL0     C 3812   3.546   4.536   6.674  0.2779 -0.4612 -0.8432
   29MOL0     C 3813   3.590   4.436   6.751  0.4367  0.6815  1.1910
   29MOL0     C 3814   3.576   4.301   6.703 -0.4305  0.1990  0.3112
   29MOL0     C 3815   3.504   4.275   6.586 -0.1726  0.0087 -0.5013
   29MOL0     O 3816   3.494   4.139   6.563  1.4736  0.4223 -0.2486
   29MOL0     C 3817   3.367   4.082   6.546  0.1658 -0.6355 -0.4147
   29MOL0     C 3818   3.410   3.934   6.518 -0.1867 -0.8654 -0.1200
   29MOL0     C 3819   3.300   3.844   6.455  0.6417  0.3921  0.0926
   29MOL0     C 3820   3.152   3.866   6.493 -0.0372 -0.9404  0.7249
   29MOL0     C 3821   3.114   3.811   6.626 -0.3703  0.6375  0.2811
   29MOL0     C 3822   2.964   3.814   6.668 -1.1657  0.1045  0.0006
   29MOL0     C 3823   2.904   3.682   6.660  0.3633 -0.6783  0.3405
   29MOL0     C 3824   2.750   3.700   6.654  0.3249  0.8270  0.1181
   29MOL0    Cl 3825   2.711   3.667   6.817  0.4389 -0.1125  0.0638
   29MOL0     C 3826   3.472   4.380   6.505  0.2762  0.1794 -0.0017
   29MOL0     C 3827   3.491   4.509   6.545 -1.8835 -0.3071  0.0146
   29MOL0     O 3828   3.506   4.787   6.543 -0.3289  0.2307  0.3719
   29MOL0     C 3829   3.640   4.892   6.858 -0.0114 -0.8758 -0.3844
   29MOL0     C 3830   3.678   5.008   6.925 -0.3347 -1.3403 -0.5236
   29MOL0     N 3831   3.927   5.682   7.343 -0.2807  0.0962 -0.0007
   29MOL0     N 3832   3.850   5.783   7.372 -0.3479 -0.9355  1.0711
   29MOL0     C 3833   2.960   5.712   6.768 -0.2170  0.4796  0.0906
   29MOL0     C 3834   2.840   5.716   6.703 -0.4959 -0.5132  0.0463
   29MOL0     C 3835   2.467   5.640   6.494 -1.7520 -0.4556  0.0912
   29MOL0     C 3836   2.455   5.570   6.372  0.4231  0.9750 -0.2990
   29MOL0     C 3837   2.327   5.577   6.309  0.5189 -0.2345  0.0533
   29MOL0     C 3838   2.221   5.646   6.359  0.1391  0.3571  0.1841
   29MOL0     O 3839   2.095   5.653   6.306  1.3201  0.1689 -0.8994
   29MOL0     C 3840   2.025   5.525   6.320 -0.5519 -0.5361 -0.7587
   29MOL0     C 3841   1.896   5.532   6.399  0.4402 -0.1563 -0.3183
   29MOL0     C 3842   1.795   5.605   6.312  0.3464  0.3306 -0.3873
   29MOL0     C 3843   1.659   5.643   6.382 -0.3734 -0.0741 -0.2474
   29MOL0     C 3844   1.576   5.530   6.426  0.1627 -0.2815  0.6135
   29MOL0     C 3845   1.511   5.428   6.449  0.4901 -0.2160 -0.2894
   29MOL0     C 3846   2.244   5.727   6.469  0.3613 -1.0639  0.1259
   29MOL0     C 3847   2.357   5.718   6.539  1.0343  0.5015 -1.0672
   29MOL0     H 3848   2.626   5.657   6.957  0.5302 -0.6061  0.9011
   29MOL0     H 3849   2.859   5.616   7.065 -2.1775  0.3900  0.5164
   29MOL0     H 3850   3.138   5.708   7.156 -0.4406 -0.3259 -0.0054
   29MOL0     H 3851   3.228   5.775   7.016 -0.9589  1.4308 -0.7903
   29MOL0     H 3852   3.051   5.928   6.962  0.8687 -2.2779 -0.7452
   29MOL0     H 3853   2.956   5.851   7.096  0.1916 -2.1840 -1.6475
   29MOL0     H 3854   3.082   6.080   7.144  1.3897 -0.2925 -2.1018
   29MOL0     H 3855   3.082   5.964   7.263 -1.3033  2.8346  0.5999
   29MOL0     H 3856   3.327   5.959   7.070 -1.8785 -0.7492 -0.4118
   29MOL0     H 3857   3.320   6.098   7.157  2.2359 -0.8234  1.3302
   29MOL0     H 3858   3.285   5.957   7.373 -1.0098  0.6866 -1.9413
   29MOL0     H 3859   3.337   5.821   7.277  4.1118 -1.3581  0.4094
   29MOL0     H 3860   3.486   6.084   7.282  1.5896 -1.2177 -1.5454
   29MOL0     H 3861   3.507   5.977   7.422  2.3114  0.5764  0.8312
   29MOL0     H 3862   3.546   5.792   7.257  0.9066  0.6835 -0.3293
   29MOL0     H 3863   3.550   5.902   7.119 -0.2605 -2.3836 -0.8760
   29MOL0     H 3864   3.734   6.010   7.328  5.7574  2.3342 -2.6157
   29MOL0     H 3865   3.730   6.006   7.166  0.5285 -0.4304 -0.5893
   29MOL0     H 3866   3.810   5.749   7.047 -1.7935  1.3299  1.1360
   29MOL0     H 3867   3.988   5.579   7.022 -1.3907 -0.7509 -0.0229
   29MOL0     H 3868   4.094   5.544   7.177  0.4444 -1.3385  0.9733
   29MOL0     H 3869   3.943   5.371   7.227 -3.5326 -0.5288  0.3215
   29MOL0     H 3870   4.026   5.337   7.073 -0.4071  1.2730 -1.7723
   29MOL0     H 3871   3.807   5.440   6.960  3.9105 -0.2999 -0.3060
   29MOL0     H 3872   3.741   5.435   7.120 -0.3804 -0.9811  0.5869
   29MOL0     H 3873   3.768   5.177   7.109 -0.3864 -2.5513 -2.8054
   29MOL0     H 3874   3.868   5.195   6.960 -1.2807 -3.7547  0.3487
   29MOL0     H 3875   3.516   5.249   6.741  0.9473 -0.1465 -1.0341
   29MOL0     H 3876   3.324   4.997   6.595 -0.7467  2.5160 -1.5422
   29MOL0     H 3877   3.394   5.157   6.577  4.2036  1.3005  0.3386
   29MOL0     H 3878   3.453   5.021   6.494 -0.5538  1.3828 -0.4679
   29MOL0     H 3879   3.643   4.464   6.842  1.2710  0.5015  0.7764
   29MOL0     H 3880   3.630   4.230   6.766 -1.0234  0.1104  0.7334
   29MOL0     H 3881   3.304   4.071   6.636 -0.9196  1.2939 -0.8971
   29MOL0     H 3882   3.301   4.135   6.477 -1.5800 -1.1755  0.7502
   29MOL0     H 3883   3.490   3.926   6.443  0.2850 -0.6327  0.3565
   29MOL0     H 3884   3.434   3.893   6.616 -2.2800  0.7160  1.1564
   29MOL0     H 3885   3.318   3.738   6.475  0.7743  0.0705 -1.6107
   29MOL0     H 3886   3.302   3.852   6.346  1.7616 -0.7789  0.0079
   29MOL0     H 3887   3.126   3.971   6.502  1.9063 -0.5195  1.9972
   29MOL0     H 3888   3.096   3.815   6.413 -1.1798 -3.0197  2.7240
   29MOL0     H 3889   3.175   3.857   6.704 -1.1486  1.2905  0.5228
   29MOL0     H 3890   3.152   3.709   6.630 -1.5097  0.2605  1.9303
   29MOL0     H 3891   2.966   3.848   6.772  1.6575 -0.2500  0.1559
   29MOL0     H 3892   2.909   3.881   6.602 -3.3509 -0.3778  1.2235
   29MOL0     H 3893   2.924   3.615   6.744  0.0860  2.2860  2.9564
   29MOL0     H 3894   2.932   3.636   6.565  1.9608  3.5785 -1.5383
   29MOL0     H 3895   2.716   3.619   6.589  2.3804  1.0457 -1.3139
   29MOL0     H 3896   2.711   3.795   6.617 -1.8683  1.1614  2.8986
   29MOL0     H 3897   3.437   4.355   6.406 -1.3776  1.2591  0.2773
   29MOL0     H 3898   3.456   4.578   6.470  0.9908 -0.0738 -1.2295
   29MOL0     H 3899   3.666   4.793   6.895 -2.7906 -1.3417  0.5736
   29MOL0     H 3900   3.745   4.988   7.008 -0.5225 -0.8025 -0.2399
   29MOL0     H 3901   3.051   5.723   6.709  0.7870  0.7771  1.6212
   29MOL0     H 3902   2.839   5.731   6.595 -1.9414  0.1685  0.1315
   29MOL0     H 3903   2.537   5.511   6.332  1.5129  0.4499  2.4287
   29MOL0     H 3904   2.307   5.510   6.226  0.4399 -0.2304  0.0691
   29MOL0     H 3905   1.997   5.472   6.228 -4.4499 -2.7733  1.4240
   29MOL0     H 3906   2.082   5.453   6.380 -3.1875 -5.0124 -3.0958
   29MOL0     H 3907   1.900   5.577   6.499  1.7216 -0.7111 -0.1013
   29MOL0     H 3908   1.871   5.427   6.413  2.3163 -0.6746 -0.6659
   29MOL0     H 3909   1.758   5.550   6.224 -1.1477  1.2025 -0.3394
   29MOL0     H 3910   1.845   5.697   6.279 -0.4616  0.0749 -2.4795
   29MOL0     H 3911   1.593   5.706   6.322 -1.3650 -1.4310 -0.6545
   29MOL0     H 3912   1.683   5.699   6.472 -0.9957 -1.7156  1.0109
   29MOL0     H 3913   1.447   5.357   6.497  2.4937 -2.2405 -0.4279
   29MOL0     H 3914   2.161   5.787   6.503  1.5738  1.1571 -0.6378
   29MOL0     H 3915   2.362   5.756   6.640  2.5920 -0.8385 -0.5919
   30MOL0     O 3916  11.041  10.973   8.382  0.1336  0.3909 -0.0457
   30MOL0     C 3917  10.946  11.047   8.377 -0.3166 -0.0956 -0.3054
   30MOL0     O 3918  10.937  11.167   8.440 -0.3267  0.1115 -0.3303
   30MOL0     C 3919  11.045  11.226   8.511 -0.1103  0.1474 -0.0457
   30MOL0     C 3920  11.048  11.362   8.501 -0.6116 -0.5457 -0.2140
   30MOL0     C 3921  11.139  11.434   8.563  0.2408 -0.6455  0.0815
   30MOL0     C 3922  11.245  11.375   8.639  0.2355  0.1422  0.0831
   30MOL0     O 3923  11.344  11.452   8.696 -0.3887  0.2263 -0.1903
   30MOL0     C 3924  11.406  11.397   8.814 -0.3543  0.2094 -0.3850
   30MOL0     C 3925  11.527  11.474   8.864 -0.6402  0.4726 -0.2165
   30MOL0     C 3926  11.639  11.496   8.757 -0.5901  0.7140  0.1316
   30MOL0     C 3927  11.741  11.582   8.822  0.2364 -1.1733 -0.0937
   30MOL0     C 3928  11.859  11.588   8.729 -0.2892  0.1613  0.6934
   30MOL0     C 3929  11.968  11.687   8.783  0.2586  0.1260 -0.7117
   30MOL0     C 3930  12.086  11.674   8.682  0.5304  0.6443  0.3500
   30MOL0     C 3931  12.167  11.555   8.693  0.0181  0.9419 -0.2218
   30MOL0     N 3932  12.272  11.562   8.792 -0.0956 -0.5211 -0.3315
   30MOL0     C 3933  12.265  11.518   8.920  0.1103 -0.2773  0.6195
   30MOL0     C 3934  12.364  11.573   8.980 -0.0627 -1.0435 -0.3236
   30MOL0     C 3935  12.388  11.537   9.123 -0.2058  0.4768 -0.4842
   30MOL0     C 3936  12.459  11.646   9.198 -0.6324 -0.1725  0.3302
   30MOL0     C 3937  12.493  11.606   9.338 -0.4578  0.3505 -0.2834
   30MOL0     C 3938  12.603  11.489   9.343  0.6996 -0.7701 -0.8237
   30MOL0     O 3939  12.657  11.470   9.474  0.0084  0.5666  0.9402
   30MOL0     C 3940  12.747  11.555   9.525 -0.0724  0.5363  0.2443
   30MOL0     C 3941  12.791  11.677   9.462  0.3136 -0.5121  0.3223
   30MOL0     C 3942  12.879  11.765   9.524 -0.0973 -0.8168  0.5102
   30MOL0     C 3943  12.935  11.890   9.437  0.8864 -0.8151 -0.3084
   30MOL0     C 3944  12.926  11.734   9.655 -0.4566  0.8919 -0.2254
   30MOL0     C 3945  13.041  11.807   9.719 -0.5071 -0.6815 -0.2405
   30MOL0     O 3946  13.115  11.881   9.633 -0.2447  0.8383  0.3012
   30MOL0     C 3947  13.190  11.981   9.691  0.7729 -0.5171  0.3263
   30MOL0     C 3948  13.325  11.995   9.668 -0.3980  0.3735  0.8000
   30MOL0     C 3949  13.398  12.100   9.724  0.3848 -0.5224 -0.3718
   30MOL0     C 3950  13.332  12.186   9.811  0.5737 -0.3656  0.4020
   30MOL0     O 3951  13.408  12.282   9.859 -0.4206 -0.3543  0.5920
   30MOL0     C 3952  13.405  12.409   9.795  0.6167 -0.3696 -0.4790
   30MOL0     C 3953  13.520  12.497   9.845 -0.5761  0.8648 -0.8189
   30MOL0     C 3954  13.662  12.425   9.817 -0.4019  0.7809 -0.6784
   30MOL0     C 3955  13.730  12.379   9.942 -0.8940  0.2101  0.8778
   30MOL0     C 3956  13.852  12.300   9.903  0.4974  1.3127  0.5478
   30MOL0     C 3957  13.893  12.207  10.018 -0.3296  0.3165  0.7155
   30MOL0     C 3958  14.028  12.130   9.985  0.0929  0.7797 -0.6545
   30MOL0     C 3959  14.064  12.040  10.097 -0.9793 -0.0403  0.3465
   30MOL0    Cl 3960  14.177  12.137  10.195 -0.0592 -0.2645 -0.2965
   30MOL0     C 3961  13.200  12.170   9.843  0.8547  0.3032 -0.8985
   30MOL0     C 3962  13.133  12.071   9.782 -0.2136  0.6197 -0.2168
   30MOL0     O 3963  13.063  11.789   9.840 -0.4924  0.2381  0.5282
   30MOL0     C 3964  12.878  11.620   9.721  0.3397  0.3429 -0.2921
   30MOL0     C 3965  12.798  11.532   9.655 -0.0311  0.0398 -0.5089
   30MOL0     N 3966  12.438  11.654   8.890  0.5476  0.7898 -0.4737
   30MOL0     N 3967  12.381  11.643   8.776  0.6462  0.8148  0.5296
   30MOL0     C 3968  11.249  11.237   8.648  0.5154 -0.3560  0.1077
   30MOL0     C 3969  11.143  11.161   8.584 -0.6236  0.3440 -0.3932
   30MOL0     C 3970  10.825  10.994   8.310  0.1930 -0.4096 -1.0331
   30MOL0     C 3971  10.759  11.082   8.234  0.4355  0.0796 -0.0038
   30MOL0     C 3972  10.639  11.042   8.173  0.1899  0.0264  0.2471
   30MOL0     C 3973  10.589  10.910   8.173  0.0627 -0.7289 -0.3721
   30MOL0     O 3974  10.458  10.894   8.139  0.2125 -0.0435  0.2349
   30MOL0     C 3975  10.411  10.762   8.171  0.7365 -0.5057 -0.5446
   30MOL0     C 3976  10.263  10.745   8.144  0.0919 -0.6176  1.0412
   30MOL0     C 3977  10.228  10.595   8.122  0.5308  0.2469  0.1886
   30MOL0     C 3978  10.082  10.577   8.101  0.0862  0.7262 -0.5212
   30MOL0     C 3979  10.039  10.627   7.969  0.0535 -0.8512 -1.4218
   30MOL0     C 3980   9.983  10.670   7.875  0.3740 -1.5351 -0.6802
   30MOL0     C 3981  10.669  10.813   8.243  0.3755  0.3486 -0.1386
   30MOL0     C 3982  10.791  10.850   8.304 -0.0516  0.6019  0.3458
   30MOL0     H 3983  10.968  11.394   8.435  0.7707  0.4221 -1.4621
   30MOL0     H 3984  11.135  11.543   8.560  0.3618 -0.5872 -4.1246
   30MOL0     H 3985  11.334  11.387   8.896  0.0337  1.8125  0.2006
   30MOL0     H 3986  11.451  11.298   8.806  0.0447  0.3079  0.4688
   30MOL0     H 3987  11.497  11.574   8.896 -0.6332  0.1716  0.7792
   30MOL0     H 3988  11.568  11.425   8.953 -0.9765  0.2589 -0.1765
   30MOL0     H 3989  11.673  11.397   8.727 -3.1521  0.0709 -0.8575
   30MOL0     H 3990  11.595  11.557   8.677  0.8826 -0.8944 -2.0211
   30MOL0     H 3991  11.693  11.680   8.831 -3.1831 -2.5139 -1.9010
   30MOL0     H 3992  11.771  11.532   8.914 -0.3841 -0.8449  0.2871
   30MOL0     H 3993  11.902  11.489   8.711 -0.4709  0.6298 -3.1403
   30MOL0     H 3994  11.823  11.620   8.631 -2.3162 -1.9692  0.6414
   30MOL0     H 3995  11.914  11.782   8.791 -2.9307 -1.6677  1.2947
   30MOL0     H 3996  11.998  11.667   8.886 -1.4311 -0.6479 -0.3289
   30MOL0     H 3997  12.034  11.673   8.586 -0.9893  0.7555  1.1503
   30MOL0     H 3998  12.153  11.761   8.680  2.7900 -0.9237 -2.9756
   30MOL0     H 3999  12.231  11.530   8.608 -0.4545 -2.7071  0.3168
   30MOL0     H 4000  12.106  11.464   8.703 -2.4712  2.4691 -0.6035
   30MOL0     H 4001  12.183  11.454   8.953  0.9060 -2.4174 -1.3482
   30MOL0     H 4002  12.289  11.515   9.164  0.6759 -2.7984  0.2001
   30MOL0     H 4003  12.450  11.448   9.131 -1.4776 -0.3131  1.3510
   30MOL0     H 4004  12.392  11.733   9.193 -1.1390 -0.5428  0.5613
   30MOL0     H 4005  12.551  11.680   9.151  1.1833 -0.3538  3.4647
   30MOL0     H 4006  12.404  11.574   9.394  0.0979  2.3087  1.9023
   30MOL0     H 4007  12.525  11.700   9.384  3.3215 -0.3265 -1.2614
   30MOL0     H 4008  12.687  11.520   9.280  3.9933 -2.1200  2.5283
   30MOL0     H 4009  12.576  11.390   9.307 -0.3828 -0.9349  0.3890
   30MOL0     H 4010  12.757  11.705   9.362 -0.0500 -0.5860  0.4222
   30MOL0     H 4011  13.037  11.872   9.403  1.1871 -2.0922  1.1874
   30MOL0     H 4012  12.864  11.913   9.356 -2.4567 -1.6857  2.1691
   30MOL0     H 4013  12.915  11.988   9.482 -0.9701  0.0268 -2.7013
   30MOL0     H 4014  13.376  11.912   9.621  0.7450  1.0098  0.8842
   30MOL0     H 4015  13.506  12.095   9.716  0.3268 -3.3215 -0.3173
   30MOL0     H 4016  13.401  12.408   9.686 -2.6405  1.3942 -0.5098
   30MOL0     H 4017  13.310  12.459   9.817  1.2134  0.9737 -0.8665
   30MOL0     H 4018  13.522  12.594   9.795  0.6896  0.9995 -0.5327
   30MOL0     H 4019  13.501  12.510   9.952 -3.9809  1.4186 -1.3829
   30MOL0     H 4020  13.731  12.495   9.771 -1.4779  2.7849  0.6097
   30MOL0     H 4021  13.634  12.339   9.755 -0.4262  0.2418  0.0628
   30MOL0     H 4022  13.765  12.464  10.001  0.7932  0.9201 -0.9976
   30MOL0     H 4023  13.662  12.306   9.985  2.0440 -2.1178  1.8393
   30MOL0     H 4024  13.939  12.358   9.872  0.7185  2.1779  2.5811
   30MOL0     H 4025  13.817  12.236   9.821 -0.7416 -2.2509  3.5541
   30MOL0     H 4026  13.912  12.270  10.105  3.2547 -4.1871  3.6541
   30MOL0     H 4027  13.810  12.137  10.029 -1.6908  1.7889  0.2082
   30MOL0     H 4028  14.105  12.203   9.959 -1.3008  2.6010  0.1075
   30MOL0     H 4029  14.014  12.070   9.895  1.0941 -0.3797 -0.0737
   30MOL0     H 4030  14.127  11.957  10.063  0.4487  2.1504 -2.8888
   30MOL0     H 4031  13.976  12.004  10.151 -1.3422 -1.0300 -0.8440
   30MOL0     H 4032  13.157  12.247   9.906 -1.8394 -0.9764 -1.0333
   30MOL0     H 4033  13.026  12.057   9.795  0.0591 -1.3185  0.3420
   30MOL0     H 4034  12.903  11.596   9.824 -3.6231 -2.3253  0.2677
   30MOL0     H 4035  12.772  11.437   9.702 -1.0991  2.2847  4.0443
   30MOL0     H 4036  11.319  11.172   8.699 -0.3307  0.0222  1.8478
   30MOL0     H 4037  11.139  11.052   8.581 -2.0020  0.3830 -1.0157
   30MOL0     H 4038  10.799  11.183   8.236  1.0239 -0.1444 -0.2267
   30MOL0     H 4039  10.582  11.117   8.120 -1.4927 -2.0790 -1.1158
   30MOL0     H 4040  10.465  10.687   8.112  1.9818 -0.0440 -0.0277
   30MOL0     H 4041  10.423  10.750   8.279 -1.9913  3.2751  0.3739
   30MOL0     H 4042  10.238  10.791   8.048  1.3498 -1.0754  0.4772
   30MOL0     H 4043  10.191  10.782   8.218  0.2871 -5.4077  4.0758
   30MOL0     H 4044  10.256  10.539   8.212 -1.9881 -0.4414  0.6057
   30MOL0     H 4045  10.297  10.557   8.046  0.0746  0.2717 -0.2447
   30MOL0     H 4046  10.015  10.623   8.174  0.7206 -0.0922  0.6223
   30MOL0     H 4047  10.055  10.471   8.104  0.5876  0.5338  3.6122
   30MOL0     H 4048   9.943  10.694   7.779  0.2277 -1.4228 -0.5917
   30MOL0     H 4049  10.645  10.709   8.263  0.8089 -0.3796 -2.9902
   30MOL0     H 4050  10.845  10.777   8.363 -2.1439 -0.4255  1.0925
   31MOL0     O 4051   4.487   4.275  10.050  0.4001 -0.8824 -0.4648
   31MOL0     C 4052   4.528   4.352   9.964 -0.3387 -0.4574  0.0827
   31MOL0     O 4053   4.535   4.485   9.972  0.6012  0.0650 -0.3214
   31MOL0     C 4054   4.502   4.541  10.093 -0.1082 -0.4849  0.2039
   31MOL0     C 4055   4.591   4.546  10.202 -0.3487  0.6871 -1.0144
   31MOL0     C 4056   4.557   4.625  10.308  1.0935 -0.3871 -0.0813
   31MOL0     C 4057   4.437   4.706  10.316 -0.3540  0.0241  1.4462
   31MOL0     O 4058   4.388   4.776  10.420  0.1487 -0.3587  0.5066
   31MOL0     C 4059   4.456   4.759  10.550  0.5569 -0.1398  0.4266
   31MOL0     C 4060   4.388   4.846  10.663  0.3666 -0.7102  0.2641
   31MOL0     C 4061   4.423   4.790  10.801 -0.3235 -0.3428 -1.2804
   31MOL0     C 4062   4.380   4.885  10.909 -0.0075 -0.3505 -0.5804
   31MOL0     C 4063   4.321   4.812  11.030 -0.2418  0.7147 -0.6671
   31MOL0     C 4064   4.398   4.701  11.105 -0.4081 -0.4673  0.2378
   31MOL0     C 4065   4.510   4.754  11.192 -0.0739 -0.0708  0.2234
   31MOL0     C 4066   4.593   4.637  11.259 -0.4637  0.4230  0.2522
   31MOL0     N 4067   4.723   4.698  11.302  0.1446  1.3579 -0.4339
   31MOL0     C 4068   4.756   4.726  11.435 -0.0142 -0.0068  0.5257
   31MOL0     C 4069   4.866   4.807  11.413  1.0881  0.5347 -1.0221
   31MOL0     C 4070   4.935   4.899  11.512 -0.5418 -0.4368  0.0064
   31MOL0     C 4071   5.005   4.824  11.619  0.3965 -0.3896 -0.3634
   31MOL0     C 4072   5.128   4.753  11.583 -0.3307 -0.0180  0.8696
   31MOL0     C 4073   5.195   4.684  11.699  0.1055 -0.5496  0.4600
   31MOL0     O 4074   5.226   4.797  11.779  0.2533 -0.1346  0.6297
   31MOL0     C 4075   5.308   4.781  11.893 -0.5656 -0.2715  0.0752
   31MOL0     C 4076   5.373   4.895  11.944  0.1808  0.0183  0.4327
   31MOL0     C 4077   5.451   4.893  12.062 -0.8770 -0.7058 -0.6706
   31MOL0     C 4078   5.517   5.023  12.092 -0.5571  0.4616  0.0788
   31MOL0     C 4079   5.455   4.783  12.142  0.7077 -0.1992  0.5958
   31MOL0     C 4080   5.527   4.764  12.270 -0.9914 -0.2449 -0.4117
   31MOL0     O 4081   5.662   4.805  12.272  0.2841 -0.0734 -0.4076
   31MOL0     C 4082   5.733   4.791  12.390  0.2868  0.1315 -0.6656
   31MOL0     C 4083   5.859   4.725  12.401  1.3795  0.7224 -0.7013
   31MOL0     C 4084   5.928   4.717  12.527  0.9490  0.0084 -0.1345
   31MOL0     C 4085   5.871   4.771  12.645 -0.5954  0.2262  1.0471
   31MOL0     O 4086   5.939   4.784  12.755 -0.1831 -0.5940  0.2541
   31MOL0     C 4087   6.058   4.710  12.791 -0.1577  0.3358  0.0633
   31MOL0     C 4088   6.066   4.739  12.944  1.5475  0.6290 -0.3319
   31MOL0     C 4089   5.944   4.670  13.014 -0.5563 -0.1362  0.3023
   31MOL0     C 4090   5.896   4.744  13.145 -0.6376 -0.0957 -0.9184
   31MOL0     C 4091   5.831   4.644  13.244 -0.1034  0.3455  0.7439
   31MOL0     C 4092   5.786   4.701  13.375  0.0833  0.4362  0.7786
   31MOL0     C 4093   5.900   4.802  13.419  0.2222  0.4520  0.5912
   31MOL0     C 4094   5.879   4.845  13.562 -0.2800  0.0247  0.3229
   31MOL0    Cl 4095   5.914   4.714  13.680 -0.2744 -0.2373  0.6640
   31MOL0     C 4096   5.757   4.843  12.625 -0.0410  0.4752 -0.6829
   31MOL0     C 4097   5.690   4.850  12.508 -0.1237  0.2722 -0.3625
   31MOL0     O 4098   5.466   4.720  12.362 -0.1282  0.1508  0.4843
   31MOL0     C 4099   5.381   4.673  12.092 -0.1547  0.8491 -0.7159
   31MOL0     C 4100   5.320   4.665  11.975 -0.0380  1.1084  0.1645
   31MOL0     N 4101   4.897   4.814  11.279  0.6461 -0.1934  0.6713
   31MOL0     N 4102   4.820   4.741  11.210 -1.2037  0.3632  0.0107
   31MOL0     C 4103   4.360   4.709  10.199 -0.3147  0.1931 -0.1426
   31MOL0     C 4104   4.387   4.620  10.094  0.1566  0.6285  0.1433
   31MOL0     C 4105   4.585   4.304   9.833 -0.4181 -0.0155 -0.9495
   31MOL0     C 4106   4.566   4.175   9.775  0.0442  0.0480 -0.8439
   31MOL0     C 4107   4.618   4.136   9.652  0.1734 -0.5923 -0.1854
   31MOL0     C 4108   4.699   4.226   9.575  0.2479 -0.2963 -0.2594
   31MOL0     O 4109   4.765   4.212   9.455 -0.3476  0.2288 -0.0512
   31MOL0     C 4110   4.714   4.127   9.361  0.0810  1.0338  0.3231
   31MOL0     C 4111   4.568   4.150   9.308 -0.4116 -0.4841 -0.0827
   31MOL0     C 4112   4.527   4.292   9.323  0.2221 -0.1692  0.9184
   31MOL0     C 4113   4.380   4.325   9.374 -0.4360 -0.2515 -0.6971
   31MOL0     C 4114   4.285   4.311   9.257 -1.2960  0.2271  0.1802
   31MOL0     C 4115   4.209   4.300   9.164  0.4277 -0.1408 -0.2218
   31MOL0     C 4116   4.715   4.353   9.634  0.1729 -0.3445 -0.6785
   31MOL0     C 4117   4.654   4.394   9.755 -0.7741  0.2709  0.1731
   31MOL0     H 4118   4.682   4.487  10.212 -0.4532  0.9287  2.5567
   31MOL0     H 4119   4.610   4.608  10.401 -3.5094 -2.5537  2.5326
   31MOL0     H 4120   4.460   4.653  10.577  0.4945 -0.0399  0.8249
   31MOL0     H 4121   4.560   4.788  10.537  1.6416 -3.0907  1.5732
   31MOL0     H 4122   4.437   4.944  10.658  3.4654 -1.8701  3.2387
   31MOL0     H 4123   4.279   4.854  10.658  0.1866 -2.6961  0.0685
   31MOL0     H 4124   4.380   4.691  10.820  1.2344 -0.6351  1.1160
   31MOL0     H 4125   4.531   4.779  10.816 -0.7070  0.8728  5.0880
   31MOL0     H 4126   4.474   4.934  10.936  1.2302 -1.1796 -3.0909
   31MOL0     H 4127   4.300   4.949  10.871  1.9461  3.1000  0.6417
   31MOL0     H 4128   4.292   4.896  11.094  0.2543  1.5524 -1.5048
   31MOL0     H 4129   4.230   4.767  10.989  0.9433  1.2536 -4.2563
   31MOL0     H 4130   4.320   4.651  11.163 -1.7599  1.8548  0.5543
   31MOL0     H 4131   4.432   4.626  11.034 -0.6862  0.0269 -0.4275
   31MOL0     H 4132   4.576   4.821  11.137 -0.6256  0.8433  0.6442
   31MOL0     H 4133   4.454   4.810  11.267 -3.6857 -2.2274 -0.6359
   31MOL0     H 4134   4.617   4.555  11.192 -1.0355 -1.4025  2.1721
   31MOL0     H 4135   4.546   4.590  11.346 -2.8149 -0.9712 -1.6260
   31MOL0     H 4136   4.710   4.722  11.533  1.1025 -3.2598  1.0547
   31MOL0     H 4137   5.005   4.956  11.450 -1.9601  0.4325 -0.8468
   31MOL0     H 4138   4.863   4.965  11.561  2.4153  3.3637 -0.3823
   31MOL0     H 4139   4.935   4.755  11.668 -0.8493  1.1325  0.0895
   31MOL0     H 4140   5.031   4.897  11.696 -0.7886 -1.1487  0.8121
   31MOL0     H 4141   5.199   4.825  11.540  0.2946 -0.0020  1.9067
   31MOL0     H 4142   5.111   4.682  11.501  1.8155 -0.2998  0.6094
   31MOL0     H 4143   5.286   4.631  11.669  1.2000  3.1547 -3.7121
   31MOL0     H 4144   5.123   4.621  11.752 -0.9245  0.3253  0.1404
   31MOL0     H 4145   5.352   4.990  11.895  0.0949  0.7590  1.8495
   31MOL0     H 4146   5.595   5.008  12.166 -1.5506  2.4498  1.6279
   31MOL0     H 4147   5.544   5.083  12.004 -0.7982 -4.4653 -3.7948
   31MOL0     H 4148   5.447   5.082  12.152 -2.2568 -2.4950  1.2006
   31MOL0     H 4149   5.904   4.696  12.306 -1.5694 -1.0792 -1.6812
   31MOL0     H 4150   6.017   4.656  12.537 -0.3873 -2.7192 -2.9926
   31MOL0     H 4151   6.039   4.603  12.778  0.0065  0.4087 -0.8322
   31MOL0     H 4152   6.147   4.744  12.737 -0.7324  0.1633 -1.0120
   31MOL0     H 4153   6.161   4.694  12.974  0.4558 -2.8056 -1.6243
   31MOL0     H 4154   6.051   4.847  12.960  0.9268  0.4066  0.7268
   31MOL0     H 4155   5.954   4.562  13.025 -3.0304 -0.4203  0.3433
   31MOL0     H 4156   5.857   4.671  12.948 -0.6843  1.3650  0.4510
   31MOL0     H 4157   5.982   4.795  13.191 -2.5242  1.1098  1.5094
   31MOL0     H 4158   5.819   4.817  13.118 -0.7594 -0.1649 -0.7554
   31MOL0     H 4159   5.917   4.577  13.260  1.5311  2.1459 -0.0307
   31MOL0     H 4160   5.759   4.577  13.197  1.6780 -2.8307  2.1742
   31MOL0     H 4161   5.700   4.768  13.379 -1.3337 -1.2154 -0.4640
   31MOL0     H 4162   5.779   4.622  13.450 -1.5286 -0.9095 -0.7042
   31MOL0     H 4163   5.906   4.890  13.356 -0.2811 -0.5800 -0.9638
   31MOL0     H 4164   5.996   4.750  13.419 -0.4879 -0.9273  1.1058
   31MOL0     H 4165   5.773   4.871  13.577 -0.7284 -1.1970 -0.5931
   31MOL0     H 4166   5.935   4.938  13.572 -0.4963  0.2157 -0.1810
   31MOL0     H 4167   5.701   4.896  12.701  0.5225 -0.7595  0.6328
   31MOL0     H 4168   5.598   4.908  12.514 -2.5732 -3.1846 -1.2973
   31MOL0     H 4169   5.358   4.587  12.153 -0.8188  3.5729  3.2736
   31MOL0     H 4170   5.263   4.576  11.949 -0.0137  0.6167  1.6916
   31MOL0     H 4171   4.272   4.773  10.199  0.6142  1.5219 -0.3161
   31MOL0     H 4172   4.307   4.610  10.022 -1.5707 -2.4483  2.2915
   31MOL0     H 4173   4.512   4.097   9.828 -0.2346 -0.8429 -2.3949
   31MOL0     H 4174   4.601   4.038   9.609  0.7975 -1.3187  1.1842
   31MOL0     H 4175   4.775   4.127   9.270 -1.0809 -1.5939 -0.5402
   31MOL0     H 4176   4.732   4.026   9.398  0.7970  0.6488 -0.9867
   31MOL0     H 4177   4.503   4.080   9.361 -0.6170 -0.5320 -0.3914
   31MOL0     H 4178   4.564   4.135   9.199 -2.5086  3.5248 -0.7598
   31MOL0     H 4179   4.540   4.336   9.224 -1.5281 -0.5067  0.4942
   31MOL0     H 4180   4.590   4.355   9.387  0.9485 -0.3283  0.3720
   31MOL0     H 4181   4.375   4.428   9.413  0.9203 -0.8092  1.1344
   31MOL0     H 4182   4.352   4.266   9.462  1.2217 -0.6674 -0.4162
   31MOL0     H 4183   4.138   4.278   9.086  1.9035  2.8482 -2.6239
   31MOL0     H 4184   4.788   4.422   9.594  0.6949 -0.0513  0.6983
   31MOL0     H 4185   4.660   4.501   9.771 -0.0964  0.2240  0.2499
   32MOL0     O 4186   1.193   9.693  10.836 -0.5690 -0.0055 -0.0587
   32MOL0     C 4187   1.189   9.576  10.797  0.9759  0.3295  0.3830
   32MOL0     O 4188   1.213   9.467  10.878  0.9707  0.6155  0.2391
   32MOL0     C 4189   1.279   9.494  10.999  0.6994 -0.6221 -0.6781
   32MOL0     C 4190   1.225   9.572  11.109  0.4119  0.6413  0.6341
   32MOL0     C 4191   1.274   9.572  11.235 -1.0435  0.3336 -0.6020
   32MOL0     C 4192   1.385   9.493  11.253  0.1620 -0.0941 -0.8313
   32MOL0     O 4193   1.422   9.478  11.386 -0.0571  0.2982 -0.5574
   32MOL0     C 4194   1.489   9.591  11.458  1.0284 -0.5709  0.9073
   32MOL0     C 4195   1.447   9.606  11.605  0.0102 -0.6193 -0.6096
   32MOL0     C 4196   1.295   9.623  11.614  0.1223  0.0121  0.7108
   32MOL0     C 4197   1.247   9.604  11.754 -0.2988  0.5354 -1.1595
   32MOL0     C 4198   1.097   9.634  11.770 -0.2130 -0.4660 -0.1302
   32MOL0     C 4199   1.026   9.657  11.910  0.1717 -0.4010  0.1864
   32MOL0     C 4200   1.120   9.733  12.006  0.4533 -0.8946 -0.3804
   32MOL0     C 4201   1.138   9.873  11.958 -0.2845 -0.0492  0.8375
   32MOL0     N 4202   1.156   9.964  12.063  1.0874  0.1573 -1.3207
   32MOL0     C 4203   1.279  10.015  12.109  0.3062 -0.0385 -0.4199
   32MOL0     C 4204   1.242  10.120  12.184  0.6924 -0.0975 -0.1072
   32MOL0     C 4205   1.332  10.210  12.261  0.1794  0.1209 -0.0855
   32MOL0     C 4206   1.257  10.291  12.370  0.3440 -0.4186 -0.1720
   32MOL0     C 4207   1.358  10.365  12.455  0.5178 -0.1411  0.1288
   32MOL0     C 4208   1.306  10.465  12.566 -0.3290  0.6833  0.6434
   32MOL0     O 4209   1.398  10.481  12.669 -0.4880 -0.3041 -0.8173
   32MOL0     C 4210   1.512  10.563  12.640 -0.2320  0.1857 -0.7405
   32MOL0     C 4211   1.497  10.684  12.576 -0.1908 -0.3304  0.6875
   32MOL0     C 4212   1.606  10.769  12.548  0.3215  0.1780  0.5539
   32MOL0     C 4213   1.565  10.905  12.475  0.1181  1.1458 -0.0899
   32MOL0     C 4214   1.740  10.732  12.589  0.5827  0.8446  0.4781
   32MOL0     C 4215   1.865  10.813  12.566  0.0735 -0.7877  0.1088
   32MOL0     O 4216   1.984  10.743  12.538  0.3138 -0.5732 -0.3874
   32MOL0     C 4217   2.106  10.807  12.562  0.3272  0.0556  0.8996
   32MOL0     C 4218   2.134  10.911  12.647 -0.6388  0.3973  0.2031
   32MOL0     C 4219   2.263  10.956  12.664  0.1319 -0.4075  0.2491
   32MOL0     C 4220   2.370  10.900  12.591  0.9293 -0.8667  0.1515
   32MOL0     O 4221   2.498  10.938  12.582 -0.9079 -0.3601 -0.4614
   32MOL0     C 4222   2.531  11.057  12.660 -0.4065 -0.3966 -0.7954
   32MOL0     C 4223   2.687  11.074  12.659 -0.3837 -0.1816 -0.1946
   32MOL0     C 4224   2.738  11.094  12.512 -0.0271  0.3493 -0.4349
   32MOL0     C 4225   2.891  11.124  12.515  0.7971 -0.9439  0.0779
   32MOL0     C 4226   2.959  11.001  12.575 -0.4030  0.0863 -0.1989
   32MOL0     C 4227   3.105  10.983  12.513  0.2033 -0.3102  0.3568
   32MOL0     C 4228   3.179  11.115  12.534 -0.1631  0.1119  0.2584
   32MOL0     C 4229   3.336  11.096  12.523  1.0033 -0.0814  0.6610
   32MOL0    Cl 4230   3.412  10.978  12.629  0.1863  0.8914  0.1430
   32MOL0     C 4231   2.340  10.800  12.501 -0.2033 -0.2333  0.0988
   32MOL0     C 4232   2.212  10.759  12.481  0.7297  0.8218 -0.0739
   32MOL0     O 4233   1.849  10.935  12.553 -1.4900  0.3188 -0.2439
   32MOL0     C 4234   1.744  10.605  12.645 -0.0942 -0.0973 -0.6699
   32MOL0     C 4235   1.639  10.524  12.671  0.5733 -0.5521 -0.4861
   32MOL0     N 4236   1.098  10.131  12.177 -0.3330  0.9391 -0.6924
   32MOL0     N 4237   1.048  10.032  12.110 -0.6281 -0.1015  0.2526
   32MOL0     C 4238   1.453   9.415  11.151 -1.5452 -0.5182  0.1658
   32MOL0     C 4239   1.399   9.432  11.021 -0.0204 -0.8181  0.4729
   32MOL0     C 4240   1.128   9.538  10.661  0.1963  0.6207  0.0663
   32MOL0     C 4241   1.092   9.645  10.571  0.3071  0.4182 -0.5408
   32MOL0     C 4242   1.032   9.608  10.450  0.1301  0.0354  0.4183
   32MOL0     C 4243   1.019   9.474  10.408  0.0438  0.8862 -0.4933
   32MOL0     O 4244   0.969   9.434  10.288  0.0557 -0.0322  0.4494
   32MOL0     C 4245   0.906   9.526  10.192 -0.6367  0.0144 -0.0183
   32MOL0     C 4246   1.009   9.616  10.123  0.4976  0.0645 -0.3240
   32MOL0     C 4247   1.043   9.574   9.983 -0.9899  0.4366  0.1485
   32MOL0     C 4248   1.110   9.669   9.886 -0.8086  0.0466 -0.2099
   32MOL0     C 4249   1.227   9.733   9.947 -0.7802 -0.8535  0.1676
   32MOL0     C 4250   1.322   9.803   9.982  0.6139  0.1620  0.1567
   32MOL0     C 4251   1.053   9.370  10.503  0.4541 -1.1890  0.6037
   32MOL0     C 4252   1.105   9.413  10.626 -0.0495  0.7465 -0.7353
   32MOL0     H 4253   1.130   9.618  11.085  0.6154  0.0627 -1.4371
   32MOL0     H 4254   1.235   9.635  11.315  1.4941 -0.5690  1.5027
   32MOL0     H 4255   1.598   9.579  11.467  1.0877 -1.2271 -0.4847
   32MOL0     H 4256   1.458   9.681  11.405  2.4510 -1.6400 -1.9656
   32MOL0     H 4257   1.479   9.519  11.663 -1.2948 -2.0324 -1.9421
   32MOL0     H 4258   1.494   9.695  11.647 -2.1235  0.1700  0.2493
   32MOL0     H 4259   1.261   9.724  11.587  0.6078 -0.3517 -1.4434
   32MOL0     H 4260   1.235   9.557  11.550 -2.2589  1.6423  1.1231
   32MOL0     H 4261   1.254   9.498  11.778  0.1156  0.2157 -2.6048
   32MOL0     H 4262   1.305   9.663  11.826 -1.0768 -0.8672  0.7151
   32MOL0     H 4263   1.084   9.723  11.709 -0.3926  0.3503  1.0543
   32MOL0     H 4264   1.042   9.547  11.733  3.1376 -2.7751 -0.1230
   32MOL0     H 4265   0.926   9.701  11.896 -1.0844 -3.2102 -0.4724
   32MOL0     H 4266   1.013   9.558  11.955  1.5669  0.5766  2.9454
   32MOL0     H 4267   1.069   9.737  12.103  1.8450 -3.5591  0.5882
   32MOL0     H 4268   1.217   9.683  12.019  2.3907  2.9774  1.6515
   32MOL0     H 4269   1.051   9.902  11.898  0.3942  1.1841  0.4211
   32MOL0     H 4270   1.217   9.870  11.882 -2.1529  1.7817 -1.3057
   32MOL0     H 4271   1.380   9.977  12.103  0.5483  0.5370 -0.0398
   32MOL0     H 4272   1.412  10.147  12.299  0.3966 -0.0889 -0.8709
   32MOL0     H 4273   1.368  10.279  12.184  4.0511 -0.6970  0.7766
   32MOL0     H 4274   1.212  10.211  12.429 -0.3511  1.6733  2.3240
   32MOL0     H 4275   1.181  10.350  12.318 -0.9710 -1.4351  0.5482
   32MOL0     H 4276   1.423  10.428  12.394  2.7168 -0.5192  1.9507
   32MOL0     H 4277   1.413  10.287  12.509 -0.6967 -2.8902 -2.3991
   32MOL0     H 4278   1.213  10.430  12.613  0.3849  1.4400  2.6994
   32MOL0     H 4279   1.271  10.555  12.515  0.5468  0.5839 -0.1593
   32MOL0     H 4280   1.396  10.720  12.561 -0.2577 -0.4814  0.7779
   32MOL0     H 4281   1.483  10.889  12.405  1.1124  4.4451 -2.2507
   32MOL0     H 4282   1.540  10.981  12.550 -2.3128  2.1642 -1.8010
   32MOL0     H 4283   1.648  10.945  12.415 -0.7970  0.7489 -1.6594
   32MOL0     H 4284   2.059  10.965  12.704  2.1745  2.6096  2.1366
   32MOL0     H 4285   2.271  11.047  12.723 -4.1375  0.1628  0.2753
   32MOL0     H 4286   2.484  11.139  12.605  0.2425 -0.9212 -2.1735
   32MOL0     H 4287   2.505  11.054  12.766  2.7386  0.2875  0.1117
   32MOL0     H 4288   2.721  11.153  12.726  2.8566 -2.0380  0.6021
   32MOL0     H 4289   2.735  10.984  12.698  1.3476  0.7485 -0.0938
   32MOL0     H 4290   2.678  11.172  12.463 -1.2778 -1.4731 -1.9085
   32MOL0     H 4291   2.718  11.000  12.460  2.7711 -0.1796 -0.7110
   32MOL0     H 4292   2.934  11.151  12.418  2.7852 -0.9325  0.9240
   32MOL0     H 4293   2.919  11.206  12.583  0.6873  0.7799 -1.8447
   32MOL0     H 4294   2.899  10.910  12.564 -3.2219  1.1717  3.8959
   32MOL0     H 4295   2.961  11.025  12.681 -1.4662  0.7795 -0.3139
   32MOL0     H 4296   3.148  10.897  12.566 -1.4922 -1.4900 -0.1143
   32MOL0     H 4297   3.103  10.972  12.404 -0.1461  1.4385  0.1545
   32MOL0     H 4298   3.154  11.152  12.633 -0.0022  2.2588 -0.4528
   32MOL0     H 4299   3.130  11.195  12.479 -2.0476 -1.2660 -0.1610
   32MOL0     H 4300   3.387  11.190  12.544  1.8982 -0.7775  1.6621
   32MOL0     H 4301   3.343  11.064  12.418 -4.3258 -2.9774  0.8459
   32MOL0     H 4302   2.423  10.769  12.439 -1.3142  2.9099 -3.3022
   32MOL0     H 4303   2.184  10.695  12.398 -0.6899 -1.3229  1.9172
   32MOL0     H 4304   1.838  10.569  12.686  0.1846 -1.6971 -2.5575
   32MOL0     H 4305   1.643  10.432  12.727 -2.2713 -1.5311 -1.6909
   32MOL0     H 4306   1.548   9.369  11.175 -0.6090  1.8123  1.2789
   32MOL0     H 4307   1.430   9.383  10.930 -1.2136 -0.2114 -0.2794
   32MOL0     H 4308   1.115   9.747  10.599 -0.9621 -0.0008  2.3310
   32MOL0     H 4309   0.992   9.693  10.396  2.4941  1.0492  0.1669
   32MOL0     H 4310   0.860   9.462  10.116  4.6520 -3.2144 -1.0354
   32MOL0     H 4311   0.836   9.581  10.255 -0.6494  1.1563 -0.9904
   32MOL0     H 4312   1.105   9.630  10.175 -0.0015  0.8407  0.4268
   32MOL0     H 4313   0.973   9.719  10.110  2.6241  0.8253 -0.5919
   32MOL0     H 4314   0.954   9.546   9.926  0.0115 -1.1705 -0.6864
   32MOL0     H 4315   1.105   9.484   9.994 -2.2812 -0.7962 -1.9052
   32MOL0     H 4316   1.041   9.742   9.842  2.4216  1.5894 -3.2809
   32MOL0     H 4317   1.144   9.604   9.805  2.9096  0.4122  0.9026
   32MOL0     H 4318   1.398   9.873  10.011 -0.5260  1.1981  0.7339
   32MOL0     H 4319   1.027   9.270  10.470 -0.8956 -0.8648  0.6151
   32MOL0     H 4320   1.117   9.335  10.701 -0.9913  0.6683 -0.6426
   33MOL0     O 4321   4.140   9.693   7.748  0.5766 -0.4930 -0.7339
   33MOL0     C 4322   4.066   9.788   7.727 -0.3400  0.0778 -0.9655
   33MOL0     O 4323   3.945   9.815   7.791  0.1690 -0.5835  0.0542
   33MOL0     C 4324   3.902   9.731   7.880  0.1612  1.0894  1.0224
   33MOL0     C 4325   3.793   9.645   7.846 -0.3183 -0.7326  0.3509
   33MOL0     C 4326   3.767   9.527   7.917 -1.1276 -0.7199  0.6178
   33MOL0     C 4327   3.832   9.509   8.042 -0.2971  0.6305  0.3785
   33MOL0     O 4328   3.789   9.409   8.118  0.6412  0.5582 -0.0468
   33MOL0     C 4329   3.879   9.296   8.106  0.2536  0.2168 -0.1689
   33MOL0     C 4330   3.802   9.172   8.128 -0.0825  0.1668  0.4434
   33MOL0     C 4331   3.701   9.167   8.235  0.4715  0.4696 -0.9165
   33MOL0     C 4332   3.559   9.220   8.187 -0.4173 -0.8566  0.3310
   33MOL0     C 4333   3.490   9.122   8.078  0.7394 -0.1383  0.7779
   33MOL0     C 4334   3.349   9.166   8.043 -0.0916  0.1327  0.5591
   33MOL0     C 4335   3.348   9.296   7.963  0.1617  0.0022  0.6412
   33MOL0     C 4336   3.412   9.288   7.831  0.5028 -0.1851  0.4878
   33MOL0     N 4337   3.390   9.412   7.755  1.4550 -0.4718  0.6503
   33MOL0     C 4338   3.277   9.496   7.756  0.8051  1.6018 -0.0159
   33MOL0     C 4339   3.312   9.608   7.691 -0.0285 -0.3787  0.5210
   33MOL0     C 4340   3.225   9.727   7.648 -0.3835 -0.6602 -0.0671
   33MOL0     C 4341   3.209   9.727   7.493  0.2700 -0.1170  0.1968
   33MOL0     C 4342   3.089   9.817   7.441 -0.1241 -0.0163  0.0619
   33MOL0     C 4343   3.077   9.815   7.295  0.5547  0.1028  0.3549
   33MOL0     O 4344   3.184   9.899   7.244 -0.2054  0.2078  0.4446
   33MOL0     C 4345   3.203   9.889   7.108 -0.9389  0.2976  0.3781
   33MOL0     C 4346   3.325   9.926   7.064 -0.0989  0.5331 -0.5162
   33MOL0     C 4347   3.366   9.913   6.935 -0.0134 -1.0539  1.2116
   33MOL0     C 4348   3.502   9.975   6.906  0.2991  0.0350 -0.0610
   33MOL0     C 4349   3.271   9.870   6.839  0.3148  1.7105 -0.3169
   33MOL0     C 4350   3.305   9.866   6.699  0.3000  0.2906 -1.8676
   33MOL0     O 4351   3.252   9.751   6.649 -0.8292 -0.3065 -0.1665
   33MOL0     C 4352   3.288   9.710   6.522 -0.4422  0.1052 -0.4698
   33MOL0     C 4353   3.415   9.642   6.509  0.8018  0.1941  0.0774
   33MOL0     C 4354   3.452   9.598   6.380 -0.0118  0.9409  0.0054
   33MOL0     C 4355   3.367   9.622   6.271 -0.5198  0.3680 -0.8332
   33MOL0     O 4356   3.399   9.598   6.140 -0.2916  0.7578 -0.6301
   33MOL0     C 4357   3.530   9.564   6.101 -0.1452  0.9602 -0.1226
   33MOL0     C 4358   3.549   9.408   6.098 -0.8557 -0.5085 -0.2457
   33MOL0     C 4359   3.490   9.356   5.957  0.8373  0.5125 -0.3809
   33MOL0     C 4360   3.531   9.212   5.924 -0.0001  0.1341 -1.2522
   33MOL0     C 4361   3.461   9.141   5.807  0.7111 -0.2638 -0.3876
   33MOL0     C 4362   3.475   8.987   5.800 -0.7789 -0.2126 -0.0811
   33MOL0     C 4363   3.616   8.941   5.772 -0.6333  0.0235  0.5395
   33MOL0     C 4364   3.625   8.835   5.656 -0.0741 -0.7276 -0.7173
   33MOL0    Cl 4365   3.593   8.932   5.511 -0.1931  0.1108  0.3527
   33MOL0     C 4366   3.239   9.685   6.287  0.3094  0.7969 -0.2318
   33MOL0     C 4367   3.207   9.738   6.412 -0.3578 -0.4145  0.7456
   33MOL0     O 4368   3.390   9.931   6.647  0.9997 -0.0966  0.6457
   33MOL0     C 4369   3.141   9.824   6.880  0.3049  0.0002 -0.5524
   33MOL0     C 4370   3.105   9.830   7.017 -0.4980  0.4945 -0.9935
   33MOL0     N 4371   3.447   9.590   7.644  0.4970 -0.2631 -0.0177
   33MOL0     N 4372   3.486   9.476   7.690  0.5234 -1.1439  0.0631
   33MOL0     C 4373   3.947   9.586   8.073 -0.5924  0.4591  0.5033
   33MOL0     C 4374   3.975   9.705   7.998 -1.2837  0.7776 -0.6806
   33MOL0     C 4375   4.100   9.882   7.623 -0.4749 -0.3639  0.3728
   33MOL0     C 4376   4.202   9.843   7.534  0.0983  0.3885 -1.1792
   33MOL0     C 4377   4.228   9.932   7.427  1.3473  0.4979  0.6040
   33MOL0     C 4378   4.142  10.040   7.401  0.5452 -0.3150 -0.4334
   33MOL0     O 4379   4.163  10.126   7.290 -0.3085  0.1945 -0.8585
   33MOL0     C 4380   4.211  10.054   7.174  0.2217 -0.6447 -0.2351
   33MOL0     C 4381   4.122   9.944   7.130  1.3402 -2.0611  0.6330
   33MOL0     C 4382   4.177   9.887   6.997 -0.6424  0.0279  0.2904
   33MOL0     C 4383   4.084   9.795   6.919 -0.3592  0.2184 -0.7475
   33MOL0     C 4384   4.133   9.768   6.794  0.1910 -0.0990  0.8061
   33MOL0     C 4385   4.189   9.744   6.693  0.1869  0.1823  0.2692
   33MOL0     C 4386   4.042  10.073   7.494  0.2130 -0.1694  0.8403
   33MOL0     C 4387   4.030   9.994   7.608  1.2491 -1.0057 -0.1549
   33MOL0     H 4388   3.741   9.652   7.751  0.7655  1.2562 -0.1602
   33MOL0     H 4389   3.690   9.456   7.889  0.3775 -1.2181 -2.6783
   33MOL0     H 4390   3.925   9.282   8.008 -1.6972 -1.8592 -0.8610
   33MOL0     H 4391   3.952   9.299   8.187 -0.0611 -0.7331  0.1559
   33MOL0     H 4392   3.751   9.156   8.033 -0.4286 -2.4055  1.0036
   33MOL0     H 4393   3.872   9.090   8.144  1.7285  1.3843 -0.8706
   33MOL0     H 4394   3.679   9.062   8.259 -1.6825  1.2582  0.8451
   33MOL0     H 4395   3.738   9.224   8.320 -1.7520  2.0588 -0.9278
   33MOL0     H 4396   3.497   9.220   8.277  1.1511 -0.3403  1.4742
   33MOL0     H 4397   3.567   9.325   8.157  2.7447 -0.7224  1.1826
   33MOL0     H 4398   3.540   9.112   7.982  2.0115 -2.3424  1.5795
   33MOL0     H 4399   3.495   9.022   8.123  3.6487 -0.3681  0.1203
   33MOL0     H 4400   3.296   9.094   7.980 -2.3826  0.4926  1.9386
   33MOL0     H 4401   3.296   9.156   8.139 -0.5589  1.2261  0.4304
   33MOL0     H 4402   3.243   9.326   7.953 -0.3082 -2.2712 -3.0125
   33MOL0     H 4403   3.407   9.370   8.019  2.6829 -1.2812 -0.2034
   33MOL0     H 4404   3.369   9.199   7.785 -1.2395 -2.3572  5.6209
   33MOL0     H 4405   3.520   9.273   7.825  0.4294 -0.7473  0.5631
   33MOL0     H 4406   3.183   9.469   7.802  0.4103 -4.2476 -3.2769
   33MOL0     H 4407   3.131   9.709   7.702 -1.1292  0.5072 -0.9087
   33MOL0     H 4408   3.263   9.827   7.674  0.2008 -0.2432 -2.3376
   33MOL0     H 4409   3.183   9.625   7.465  2.6690 -1.3730  2.1759
   33MOL0     H 4410   3.304   9.760   7.449 -0.6387  1.8284 -0.4316
   33MOL0     H 4411   3.092   9.924   7.463  1.9928  0.1459 -0.7178
   33MOL0     H 4412   3.000   9.773   7.486  0.5941 -0.4042  1.1389
   33MOL0     H 4413   2.979   9.856   7.268  0.3595  1.9733  3.4662
   33MOL0     H 4414   3.090   9.719   7.244  1.4891  1.4431 -2.0807
   33MOL0     H 4415   3.377   9.981   7.142 -1.2140  0.8325  0.0321
   33MOL0     H 4416   3.489  10.070   6.854 -1.4024 -1.1730 -2.0009
   33MOL0     H 4417   3.564   9.981   6.996 -1.3053  0.2664  1.0838
   33MOL0     H 4418   3.567   9.915   6.842  3.3813  2.4053  0.6382
   33MOL0     H 4419   3.483   9.636   6.593 -0.4153 -0.1840  1.0680
   33MOL0     H 4420   3.550   9.555   6.365 -0.1752  0.1916  1.0009
   33MOL0     H 4421   3.541   9.606   6.000 -4.0530  2.1886 -0.2271
   33MOL0     H 4422   3.605   9.611   6.165  0.5731 -1.1907  0.6898
   33MOL0     H 4423   3.657   9.390   6.104 -0.4595  1.1450 -1.7221
   33MOL0     H 4424   3.505   9.353   6.182 -1.3604 -1.0247 -0.8425
   33MOL0     H 4425   3.523   9.417   5.873  2.2081 -2.0786 -1.8541
   33MOL0     H 4426   3.381   9.348   5.965  0.9834 -0.9335  0.5832
   33MOL0     H 4427   3.639   9.218   5.906  0.8103 -0.0151  2.6330
   33MOL0     H 4428   3.523   9.156   6.017  1.6296  3.2540  0.9820
   33MOL0     H 4429   3.501   9.188   5.717 -0.1969  0.7641 -0.2701
   33MOL0     H 4430   3.355   9.159   5.827  1.1226  0.2242  1.6590
   33MOL0     H 4431   3.437   8.930   5.885  0.3224 -0.3993  0.3014
   33MOL0     H 4432   3.409   8.959   5.718 -1.3242  2.4264 -0.6638
   33MOL0     H 4433   3.659   8.886   5.857  1.6605 -0.0942 -0.5929
   33MOL0     H 4434   3.681   9.023   5.740  1.8694 -2.2404 -0.5834
   33MOL0     H 4435   3.546   8.760   5.659  0.8503 -1.6865  0.9905
   33MOL0     H 4436   3.723   8.785   5.650  0.5352  0.3924 -0.4053
   33MOL0     H 4437   3.179   9.695   6.198 -2.3787  2.2708  1.6178
   33MOL0     H 4438   3.116   9.789   6.440 -0.4356  0.9058 -1.6279
   33MOL0     H 4439   3.074   9.777   6.810  0.9354 -2.1469  0.2156
   33MOL0     H 4440   3.009   9.785   7.040  1.2943 -3.5522 -0.6919
   33MOL0     H 4441   4.009   9.559   8.158 -1.4273 -1.8886  0.4524
   33MOL0     H 4442   4.046   9.779   8.032 -0.2813  0.3030 -1.6751
   33MOL0     H 4443   4.272   9.761   7.547  2.5029  2.7209  2.5710
   33MOL0     H 4444   4.303   9.905   7.354  0.2239 -2.8955  0.4958
   33MOL0     H 4445   4.216  10.126   7.092 -2.9930  0.5753  0.4816
   33MOL0     H 4446   4.317  10.028   7.173  1.1319  2.6477 -0.5524
   33MOL0     H 4447   4.021   9.973   7.099  2.5998 -0.6876 -2.7996
   33MOL0     H 4448   4.112   9.860   7.199 -1.8901 -2.3922 -0.0610
   33MOL0     H 4449   4.269   9.834   7.023 -1.1394 -1.4811 -0.8424
   33MOL0     H 4450   4.206   9.961   6.921  0.6160 -1.1596 -0.4451
   33MOL0     H 4451   3.981   9.827   6.902 -0.0476 -0.0143 -3.5688
   33MOL0     H 4452   4.080   9.699   6.972 -3.3804  1.3451  1.3269
   33MOL0     H 4453   4.243   9.709   6.607  0.2391 -0.7502  0.6726
   33MOL0     H 4454   3.978  10.160   7.482  0.6987  0.1336  0.3952
   33MOL0     H 4455   3.947  10.009   7.677 -2.8557 -1.6395 -4.4226
   34MOL0     O 4456   7.012   3.600   8.306 -0.3939 -0.3174  0.1818
   34MOL0     C 4457   6.930   3.522   8.255  1.0567 -0.0592 -0.1819
   34MOL0     O 4458   6.809   3.483   8.315 -0.9696 -0.2249  0.3508
   34MOL0     C 4459   6.759   3.549   8.426 -0.7997 -0.3725 -0.2273
   34MOL0     C 4460   6.793   3.680   8.473  0.1007  0.0683  1.0086
   34MOL0     C 4461   6.745   3.725   8.596 -0.8400 -0.3266  0.3862
   34MOL0     C 4462   6.664   3.641   8.670  0.6604  1.0370 -0.1981
   34MOL0     O 4463   6.626   3.671   8.801  0.1611 -0.4415  0.4499
   34MOL0     C 4464   6.595   3.815   8.806 -0.7237 -0.2994  0.1943
   34MOL0     C 4465   6.505   3.837   8.922  0.0256  0.4531 -0.9405
   34MOL0     C 4466   6.384   3.763   8.927  0.2515  0.2031  0.2863
   34MOL0     C 4467   6.286   3.823   8.833 -0.0351 -0.2203 -0.1465
   34MOL0     C 4468   6.145   3.780   8.845  0.1524  0.7783  0.6462
   34MOL0     C 4469   6.049   3.865   8.758 -1.2902  0.7501 -0.6156
   34MOL0     C 4470   5.900   3.825   8.764 -0.7616 -0.0868 -0.1236
   34MOL0     C 4471   5.826   3.960   8.772 -0.0421 -0.6850  0.2631
   34MOL0     N 4472   5.683   3.935   8.781  0.1671  1.1662  1.1570
   34MOL0     C 4473   5.619   3.904   8.663 -0.1740 -0.3970  0.2293
   34MOL0     C 4474   5.492   3.875   8.708 -1.3255  0.0233 -0.5781
   34MOL0     C 4475   5.377   3.878   8.612  0.0162 -0.5620  0.3390
   34MOL0     C 4476   5.393   3.788   8.497 -0.0736  0.2076 -0.1489
   34MOL0     C 4477   5.382   3.640   8.547 -0.9034  0.1603  0.1587
   34MOL0     C 4478   5.414   3.554   8.427  0.7402  0.0879 -0.2653
   34MOL0     O 4479   5.316   3.579   8.329 -0.6757 -0.9302  0.0053
   34MOL0     C 4480   5.289   3.497   8.217  0.2960 -0.5127  0.3015
   34MOL0     C 4481   5.367   3.387   8.167  0.0690  0.0269  0.5678
   34MOL0     C 4482   5.329   3.297   8.068  1.5409 -1.1928  0.3033
   34MOL0     C 4483   5.430   3.190   8.038  0.6346  0.8491  0.3243
   34MOL0     C 4484   5.212   3.329   7.993  0.3625 -0.3550 -0.0552
   34MOL0     C 4485   5.171   3.242   7.889 -0.0885  0.0962  0.3406
   34MOL0     O 4486   5.183   3.102   7.910 -0.0749  0.4306 -0.8106
   34MOL0     C 4487   5.156   3.017   7.810 -0.2122  0.7402  0.3435
   34MOL0     C 4488   5.259   2.964   7.732 -0.8612 -0.0425  0.0567
   34MOL0     C 4489   5.234   2.867   7.637 -0.3183 -0.3298  0.1114
   34MOL0     C 4490   5.105   2.825   7.609  0.8177  0.3893  0.7378
   34MOL0     O 4491   5.075   2.738   7.516  0.1091  0.3972  0.2471
   34MOL0     C 4492   5.175   2.674   7.432  0.2244 -1.1115 -0.5456
   34MOL0     C 4493   5.106   2.614   7.319 -0.0471  0.1851 -0.0189
   34MOL0     C 4494   5.010   2.504   7.378  0.4288  0.0256  0.3135
   34MOL0     C 4495   4.956   2.431   7.257 -0.1340 -0.6267 -0.0747
   34MOL0     C 4496   4.848   2.320   7.283 -0.5421  0.0920  0.2527
   34MOL0     C 4497   4.725   2.377   7.341  0.2718 -0.1713  0.0614
   34MOL0     C 4498   4.608   2.283   7.323 -0.1067 -0.2084 -0.2561
   34MOL0     C 4499   4.474   2.348   7.369 -0.5419  0.5168 -0.8682
   34MOL0    Cl 4500   4.350   2.245   7.302  0.2938 -0.1056 -0.0090
   34MOL0     C 4501   4.998   2.879   7.685 -0.5314 -0.4422  0.6145
   34MOL0     C 4502   5.024   2.974   7.785  0.7284  0.8564  0.2440
   34MOL0     O 4503   5.094   3.295   7.806 -0.4864 -0.5575 -0.2213
   34MOL0     C 4504   5.142   3.443   8.029  1.3172  0.0120 -0.2031
   34MOL0     C 4505   5.174   3.523   8.139 -0.3103  0.8620 -0.5853
   34MOL0     N 4506   5.490   3.876   8.848  0.3335  0.1261  0.3452
   34MOL0     N 4507   5.610   3.900   8.892  0.9631  0.0706  0.1214
   34MOL0     C 4508   6.632   3.513   8.632 -0.8042 -0.5452  0.1774
   34MOL0     C 4509   6.672   3.481   8.504  0.3114  0.1200  0.0716
   34MOL0     C 4510   6.933   3.477   8.115 -0.5243 -0.7619 -0.0792
   34MOL0     C 4511   6.828   3.413   8.054  0.7848  0.7172  0.2562
   34MOL0     C 4512   6.836   3.386   7.919  0.8512  0.9153  1.1125
   34MOL0     C 4513   6.947   3.424   7.844  0.2262 -0.9732  0.8258
   34MOL0     O 4514   6.949   3.385   7.712  0.4069 -0.0803  0.3634
   34MOL0     C 4515   7.078   3.382   7.649 -0.2195  0.3926 -0.7857
   34MOL0     C 4516   7.072   3.287   7.535  0.5258  0.2541  0.6919
   34MOL0     C 4517   7.201   3.293   7.455  0.3587  0.4755  0.5459
   34MOL0     C 4518   7.240   3.151   7.408  0.1612 -0.0881  0.2649
   34MOL0     C 4519   7.372   3.152   7.342  0.4679 -0.4006 -1.3949
   34MOL0     C 4520   7.490   3.162   7.297 -0.1438  0.2166  0.3308
   34MOL0     C 4521   7.046   3.503   7.909  0.5986  0.5802  0.9265
   34MOL0     C 4522   7.043   3.520   8.046 -0.2071 -0.8221  0.8697
   34MOL0     H 4523   6.866   3.751   8.435 -1.6064  1.7444  0.6994
   34MOL0     H 4524   6.784   3.816   8.642 -2.0351  0.7416 -0.6476
   34MOL0     H 4525   6.687   3.867   8.834  0.7248 -3.4838  1.9353
   34MOL0     H 4526   6.550   3.856   8.715  0.5178 -1.3587 -0.9266
   34MOL0     H 4527   6.557   3.795   9.009 -1.5221 -2.4915 -1.3040
   34MOL0     H 4528   6.488   3.943   8.942  1.5869  0.2523  1.9230
   34MOL0     H 4529   6.393   3.659   8.895  2.1461  1.2188 -2.9699
   34MOL0     H 4530   6.353   3.777   9.031  0.0831  2.7933 -0.0574
   34MOL0     H 4531   6.299   3.932   8.843 -0.7115 -0.1960  0.5633
   34MOL0     H 4532   6.311   3.811   8.727  2.3018 -0.8562  0.4169
   34MOL0     H 4533   6.135   3.674   8.820 -1.7090  0.6967  1.5870
   34MOL0     H 4534   6.114   3.779   8.950  1.8382 -3.4207  1.3168
   34MOL0     H 4535   6.067   3.968   8.790  1.7422  0.4311 -0.9613
   34MOL0     H 4536   6.087   3.860   8.656 -1.1017 -1.9718 -0.4968
   34MOL0     H 4537   5.871   3.774   8.671  0.5550  2.6877 -2.1941
   34MOL0     H 4538   5.874   3.758   8.846  0.1027 -0.6701 -0.3121
   34MOL0     H 4539   5.848   4.015   8.681  1.0237 -2.4094 -0.5750
   34MOL0     H 4540   5.861   4.016   8.859  1.8697 -1.9745  0.3949
   34MOL0     H 4541   5.648   3.911   8.558 -1.3851 -2.6475 -0.3307
   34MOL0     H 4542   5.291   3.846   8.673  0.9805  2.4156  3.5682
   34MOL0     H 4543   5.360   3.979   8.575 -2.3953 -0.8870  0.3946
   34MOL0     H 4544   5.488   3.807   8.446  0.8176 -3.7164 -0.2569
   34MOL0     H 4545   5.305   3.809   8.436 -0.4065 -0.2934  0.1460
   34MOL0     H 4546   5.290   3.621   8.603 -0.8515  0.5464  0.3777
   34MOL0     H 4547   5.467   3.625   8.615  1.4018  1.1330 -2.3485
   34MOL0     H 4548   5.415   3.448   8.456 -0.6581 -0.9323 -3.5618
   34MOL0     H 4549   5.510   3.581   8.381  0.1998  0.8852 -0.9436
   34MOL0     H 4550   5.464   3.381   8.215 -1.7364 -1.3632  4.5136
   34MOL0     H 4551   5.531   3.213   8.073  1.5773 -1.6614 -0.5130
   34MOL0     H 4552   5.400   3.099   8.089  1.5900  1.0159  1.2106
   34MOL0     H 4553   5.433   3.163   7.932  0.5140 -0.7527  0.7035
   34MOL0     H 4554   5.363   2.993   7.742 -0.5245  0.2646 -3.1110
   34MOL0     H 4555   5.316   2.829   7.577 -1.6781 -0.0991 -2.0130
   34MOL0     H 4556   5.230   2.759   7.391 -1.4537 -0.0483 -0.6905
   34MOL0     H 4557   5.246   2.605   7.479 -0.6418  0.1447  2.8983
   34MOL0     H 4558   5.047   2.688   7.264  1.0439  0.7725 -0.4367
   34MOL0     H 4559   5.175   2.573   7.245  0.1659  0.3383  0.0944
   34MOL0     H 4560   4.927   2.554   7.430 -0.0651 -0.1297 -0.3212
   34MOL0     H 4561   5.071   2.436   7.437  1.8917 -0.0688 -1.2448
   34MOL0     H 4562   4.902   2.501   7.192 -0.7142  0.1907  1.2509
   34MOL0     H 4563   5.036   2.379   7.204  1.9378  2.2214  0.0183
   34MOL0     H 4564   4.886   2.243   7.351 -0.3158 -2.1570 -2.2690
   34MOL0     H 4565   4.829   2.263   7.192 -2.0305  1.8766 -0.6191
   34MOL0     H 4566   4.747   2.421   7.439 -0.9302  0.7437 -0.0604
   34MOL0     H 4567   4.699   2.465   7.281 -2.1300  0.8770  2.4459
   34MOL0     H 4568   4.631   2.193   7.381 -4.0354 -0.7654  0.7351
   34MOL0     H 4569   4.588   2.255   7.219  0.3802 -0.8935 -0.1747
   34MOL0     H 4570   4.472   2.450   7.331 -2.2643  0.4838 -0.9299
   34MOL0     H 4571   4.474   2.344   7.478 -0.1077 -1.6762 -0.8933
   34MOL0     H 4572   4.902   2.835   7.660 -2.0901  2.0583  1.7287
   34MOL0     H 4573   4.949   3.008   7.856  0.1904 -0.5417  0.3702
   34MOL0     H 4574   5.047   3.465   7.982  1.2212 -0.5034 -0.2653
   34MOL0     H 4575   5.101   3.598   8.164 -3.2348 -2.8324  3.6220
   34MOL0     H 4576   6.554   3.450   8.673 -1.2343 -0.3790 -0.3747
   34MOL0     H 4577   6.640   3.379   8.482 -0.0786 -0.1503  1.7141
   34MOL0     H 4578   6.741   3.372   8.104  2.0644 -2.8363 -0.1361
   34MOL0     H 4579   6.767   3.319   7.868  0.6149 -0.0711  2.6492
   34MOL0     H 4580   7.106   3.480   7.609  0.7197 -0.4974 -2.4332
   34MOL0     H 4581   7.159   3.351   7.716 -0.6935 -0.6800 -0.7080
   34MOL0     H 4582   6.986   3.332   7.483 -0.3563  0.0224  1.9109
   34MOL0     H 4583   7.062   3.196   7.593  3.3484 -0.9515 -0.5410
   34MOL0     H 4584   7.283   3.320   7.522  0.5339 -1.0858  1.0129
   34MOL0     H 4585   7.198   3.367   7.374 -1.3878 -0.7694 -0.6129
   34MOL0     H 4586   7.175   3.106   7.332  0.7204 -1.1851  0.4209
   34MOL0     H 4587   7.234   3.080   7.490  2.7409 -0.9596 -0.2009
   34MOL0     H 4588   7.584   3.159   7.246 -0.3884  1.7807 -0.2695
   34MOL0     H 4589   7.138   3.538   7.864  1.1139 -0.5654  1.0564
   34MOL0     H 4590   7.127   3.567   8.097  0.7737 -1.4620 -0.1182
   35MOL0     O 4591   2.042   0.425   4.732 -0.6971 -1.0177  0.1990
   35MOL0     C 4592   1.997   0.399   4.838  0.0213  0.9004  0.1508
   35MOL0     O 4593   2.068   0.346   4.947 -0.3615  0.6786 -0.1083
   35MOL0     C 4594   2.203   0.328   4.921 -0.2016 -0.2656  0.0429
   35MOL0     C 4595   2.254   0.204   4.927 -0.1173  0.3648  0.6296
   35MOL0     C 4596   2.392   0.183   4.908  0.5069  0.1404  0.4004
   35MOL0     C 4597   2.479   0.296   4.904 -0.5388  0.3217 -0.3328
   35MOL0     O 4598   2.613   0.269   4.893  0.1357 -1.0718 -0.4660
   35MOL0     C 4599   2.668   0.293   4.759  0.6393 -0.2854  0.0497
   35MOL0     C 4600   2.765   0.409   4.749 -0.9854  0.2605  0.5850
   35MOL0     C 4601   2.797   0.453   4.598  0.4593  0.7567 -0.3921
   35MOL0     C 4602   2.898   0.565   4.589 -0.1969 -0.3774 -1.0974
   35MOL0     C 4603   2.959   0.587   4.449  0.6161 -0.4174  0.2911
   35MOL0     C 4604   3.053   0.478   4.406  0.1361 -1.0142 -1.1212
   35MOL0     C 4605   3.155   0.518   4.300  0.2957 -0.5451 -0.4844
   35MOL0     C 4606   3.220   0.396   4.232 -0.4372 -0.1859  0.2487
   35MOL0     N 4607   3.292   0.427   4.108  0.3346 -0.9250 -0.1254
   35MOL0     C 4608   3.266   0.352   3.995 -0.8647  0.4720 -0.0611
   35MOL0     C 4609   3.350   0.389   3.905  0.0475 -0.9491  0.2539
   35MOL0     C 4610   3.350   0.320   3.768 -0.0971 -0.3649 -0.8510
   35MOL0     C 4611   3.343   0.433   3.665  0.7008  0.1568  1.2452
   35MOL0     C 4612   3.195   0.481   3.632 -0.9135  0.2866 -0.1499
   35MOL0     C 4613   3.165   0.624   3.689  1.3322 -1.4465  1.3648
   35MOL0     O 4614   3.034   0.671   3.643 -0.0480 -0.5759  0.3342
   35MOL0     C 4615   2.919   0.641   3.702  0.6843  0.4196  1.2753
   35MOL0     C 4616   2.891   0.586   3.829  0.3812 -0.3327  0.8177
   35MOL0     C 4617   2.768   0.560   3.886 -0.8765 -0.1407  0.1261
   35MOL0     C 4618   2.760   0.507   4.032 -0.0900 -0.2031 -0.0303
   35MOL0     C 4619   2.661   0.597   3.806  0.7142  0.8873  0.4678
   35MOL0     C 4620   2.514   0.568   3.835 -1.0348 -0.5611 -0.3510
   35MOL0     O 4621   2.423   0.621   3.747  0.7239  0.0911 -0.0907
   35MOL0     C 4622   2.292   0.592   3.784  0.3619 -0.6420  0.1978
   35MOL0     C 4623   2.232   0.463   3.773  0.3847 -0.1987  0.3968
   35MOL0     C 4624   2.104   0.432   3.831 -0.5863 -0.4752  0.1662
   35MOL0     C 4625   2.038   0.549   3.890  0.6398 -0.0980  0.0361
   35MOL0     O 4626   1.911   0.542   3.950  0.4776 -0.1347 -0.5328
   35MOL0     C 4627   1.833   0.431   3.919  0.1971  0.0281  0.1059
   35MOL0     C 4628   1.857   0.307   4.018 -0.3786  0.1451  0.2691
   35MOL0     C 4629   1.744   0.207   3.984  1.0738  0.2398 -0.0476
   35MOL0     C 4630   1.738   0.096   4.094 -0.3580  0.6780  0.3974
   35MOL0     C 4631   1.795  -0.041   4.051  0.5633  0.8855  0.8903
   35MOL0     C 4632   1.813  -0.142   4.154  0.1529 -0.4117  0.3126
   35MOL0     C 4633   1.738  -0.272   4.108  0.3230  0.0891 -1.4513
   35MOL0     C 4634   1.759  -0.383   4.205 -0.8446  0.3380  0.1466
   35MOL0    Cl 4635   1.685  -0.370   4.356  0.1246 -0.1924 -0.0438
   35MOL0     C 4636   2.092   0.672   3.890 -0.2134  0.5918  0.9742
   35MOL0     C 4637   2.219   0.699   3.841  0.0469  0.2287  0.0567
   35MOL0     O 4638   2.489   0.519   3.944  0.1023  1.0061 -0.7064
   35MOL0     C 4639   2.685   0.655   3.680 -0.6632 -0.2010 -0.1221
   35MOL0     C 4640   2.814   0.675   3.630 -0.2452 -0.4276  0.2748
   35MOL0     N 4641   3.434   0.489   3.961 -0.4178 -0.0395  0.6046
   35MOL0     N 4642   3.412   0.498   4.086  0.4163 -0.3484 -0.3799
   35MOL0     C 4643   2.420   0.424   4.905  1.4931  0.0464 -1.3763
   35MOL0     C 4644   2.280   0.440   4.910 -0.5012 -0.2091 -0.5526
   35MOL0     C 4645   1.858   0.432   4.857  0.0287  0.7314  0.4423
   35MOL0     C 4646   1.783   0.355   4.937 -0.0687  0.7350 -0.7643
   35MOL0     C 4647   1.659   0.379   4.976  0.6365 -1.3475  0.2237
   35MOL0     C 4648   1.589   0.490   4.913 -0.2418 -0.1979  0.1053
   35MOL0     O 4649   1.456   0.532   4.940 -0.7314  0.7840 -0.1027
   35MOL0     C 4650   1.374   0.472   5.042  0.3047 -0.1663  0.0097
   35MOL0     C 4651   1.295   0.581   5.124 -0.2531 -1.0347 -0.1839
   35MOL0     C 4652   1.204   0.682   5.042  0.2440 -0.0940  0.4662
   35MOL0     C 4653   1.159   0.798   5.127 -0.1745 -0.7369 -1.0508
   35MOL0     C 4654   1.080   0.888   5.044  0.2533  0.5156  0.3717
   35MOL0     C 4655   1.029   0.964   4.970  0.4849 -1.1499 -0.0216
   35MOL0     C 4656   1.665   0.584   4.833  0.8481 -0.0475 -0.1582
   35MOL0     C 4657   1.795   0.547   4.801 -0.6584 -0.8289  0.1905
   35MOL0     H 4658   2.182   0.122   4.926 -0.3386  0.5469  1.2000
   35MOL0     H 4659   2.427   0.081   4.904 -1.6080 -0.7820  2.8610
   35MOL0     H 4660   2.723   0.204   4.726 -1.6189 -1.8677  0.3073
   35MOL0     H 4661   2.588   0.308   4.685 -0.2893  1.9909  1.4296
   35MOL0     H 4662   2.711   0.492   4.795 -2.2071 -0.8806  1.2818
   35MOL0     H 4663   2.865   0.396   4.793  0.2768  0.3408 -2.0839
   35MOL0     H 4664   2.837   0.364   4.548  2.5660  1.2204  0.3506
   35MOL0     H 4665   2.702   0.485   4.555  0.0882  0.0246 -0.1321
   35MOL0     H 4666   2.846   0.657   4.619  0.4087  0.0953 -1.4559
   35MOL0     H 4667   2.978   0.552   4.662 -0.8491 -1.2671 -0.5219
   35MOL0     H 4668   2.876   0.612   4.383 -0.9831 -1.9641  1.6273
   35MOL0     H 4669   3.020   0.678   4.453  0.2514 -0.0798 -1.3225
   35MOL0     H 4670   3.112   0.436   4.488 -2.4105 -1.2594  0.6915
   35MOL0     H 4671   2.994   0.389   4.380  0.0509 -1.1184 -0.5790
   35MOL0     H 4672   3.104   0.581   4.226  1.4614 -1.0648 -1.7703
   35MOL0     H 4673   3.225   0.584   4.352 -2.4254  2.0287  0.1795
   35MOL0     H 4674   3.143   0.324   4.201 -1.6258  1.2946 -0.3508
   35MOL0     H 4675   3.287   0.355   4.308  2.6894  4.2794  0.2492
   35MOL0     H 4676   3.208   0.262   3.977  1.7819 -1.1775 -0.9321
   35MOL0     H 4677   3.439   0.259   3.751  0.3333  0.0910 -0.2643
   35MOL0     H 4678   3.269   0.248   3.752  1.0954 -2.0217  0.2678
   35MOL0     H 4679   3.380   0.383   3.575  0.3809  2.0497  0.0043
   35MOL0     H 4680   3.418   0.512   3.678  0.0522  0.5833  2.5961
   35MOL0     H 4681   3.120   0.415   3.676  1.0755 -1.4174  0.8928
   35MOL0     H 4682   3.181   0.505   3.526  3.0727  0.0901 -0.8755
   35MOL0     H 4683   3.231   0.701   3.648 -0.7796  0.9430  2.1905
   35MOL0     H 4684   3.183   0.637   3.796 -1.2796  0.5674  1.6624
   35MOL0     H 4685   2.972   0.578   3.901  0.7943 -0.4281  0.3442
   35MOL0     H 4686   2.850   0.525   4.092  1.7958 -1.0888 -2.4215
   35MOL0     H 4687   2.681   0.560   4.086  2.1293  0.3956  2.9305
   35MOL0     H 4688   2.735   0.401   4.017 -2.1711  0.4330 -1.5419
   35MOL0     H 4689   2.281   0.376   3.729 -1.4096 -1.5331  0.9081
   35MOL0     H 4690   2.059   0.333   3.829 -1.9681  0.1268  0.1288
   35MOL0     H 4691   1.730   0.467   3.924 -0.6025 -1.8777 -1.1128
   35MOL0     H 4692   1.843   0.416   3.811 -1.9823  1.3782 -0.3595
   35MOL0     H 4693   1.946   0.253   3.986  1.3294  1.8749  1.8154
   35MOL0     H 4694   1.861   0.334   4.124 -0.8588 -0.9703  0.5823
   35MOL0     H 4695   1.772   0.162   3.889 -0.2960 -1.0502  0.1214
   35MOL0     H 4696   1.647   0.257   3.981 -0.8298 -3.1195  0.2840
   35MOL0     H 4697   1.793   0.125   4.184 -1.1393  2.3709  0.3776
   35MOL0     H 4698   1.632   0.085   4.118 -0.4706 -0.0042 -0.3694
   35MOL0     H 4699   1.893  -0.021   4.007  0.7501 -1.4963  0.0302
   35MOL0     H 4700   1.734  -0.085   3.971  1.9984  0.1480  0.1490
   35MOL0     H 4701   1.915  -0.177   4.172 -0.0928  0.3305  3.8018
   35MOL0     H 4702   1.766  -0.106   4.246  1.5079  0.0382  0.8476
   35MOL0     H 4703   1.762  -0.305   4.007 -0.3470 -0.6565 -1.3777
   35MOL0     H 4704   1.633  -0.246   4.118  1.4272  4.7847  0.5378
   35MOL0     H 4705   1.864  -0.412   4.200 -0.4904  1.7940 -1.9761
   35MOL0     H 4706   1.710  -0.476   4.174  0.4284 -0.2461 -0.1450
   35MOL0     H 4707   2.038   0.756   3.933 -1.4294  1.5641 -2.1582
   35MOL0     H 4708   2.261   0.799   3.835 -0.4433  0.3791 -3.4411
   35MOL0     H 4709   2.604   0.677   3.611 -0.4515  0.5286 -0.1515
   35MOL0     H 4710   2.831   0.714   3.530  0.2749  0.0564  0.5469
   35MOL0     H 4711   2.493   0.503   4.889 -1.6012  3.4782  0.0608
   35MOL0     H 4712   2.235   0.539   4.911  1.9975  1.2933  5.3071
   35MOL0     H 4713   1.821   0.258   4.966  1.8077  1.0593 -1.9331
   35MOL0     H 4714   1.614   0.304   5.040  2.2699 -1.8408  0.8564
   35MOL0     H 4715   1.297   0.416   4.989 -0.9136  2.5133 -1.2287
   35MOL0     H 4716   1.430   0.410   5.113 -0.7350  0.1625  1.1467
   35MOL0     H 4717   1.360   0.639   5.190  0.0941 -1.6793  0.0479
   35MOL0     H 4718   1.235   0.522   5.194 -1.0415  0.5771  0.5647
   35MOL0     H 4719   1.114   0.631   5.007 -0.6144  1.2918  0.5696
   35MOL0     H 4720   1.249   0.725   4.952 -1.5220  1.0856  0.0983
   35MOL0     H 4721   1.248   0.852   5.161 -0.6882 -1.3650  1.4313
   35MOL0     H 4722   1.099   0.764   5.212  0.9364  2.7059  1.3403
   35MOL0     H 4723   0.994   1.009   4.879 -1.1025 -1.9031  0.1885
   35MOL0     H 4724   1.617   0.670   4.788  3.0315  1.4066  0.1196
   35MOL0     H 4725   1.850   0.623   4.746  0.1691 -1.9798 -0.6137
   36MOL0     O 4726   4.541   3.399   0.527  0.1187 -0.3458  0.9787
   36MOL0     C 4727   4.479   3.383   0.424  0.2288 -0.4752 -1.0928
   36MOL0     O 4728   4.347   3.408   0.403  0.1018 -0.6400 -0.3343
   36MOL0     C 4729   4.264   3.447   0.503  0.2685  0.3520  0.0720
   36MOL0     C 4730   4.124   3.446   0.486 -0.1149  0.0385  0.1527
   36MOL0     C 4731   4.036   3.468   0.585 -0.0055 -0.7735  0.1435
   36MOL0     C 4732   4.077   3.498   0.715 -0.5893  0.6331 -0.4069
   36MOL0     O 4733   3.979   3.521   0.807  0.1873  0.4545  0.1399
   36MOL0     C 4734   3.989   3.618   0.910  0.8138  0.0949  0.2692
   36MOL0     C 4735   4.011   3.560   1.048 -0.8761  0.0376 -1.0297
   36MOL0     C 4736   4.013   3.666   1.160 -0.0942  0.5634  0.5504
   36MOL0     C 4737   4.036   3.611   1.300 -0.5409  0.6939 -0.2148
   36MOL0     C 4738   4.081   3.717   1.405  0.7537 -0.3873 -0.0052
   36MOL0     C 4739   4.220   3.687   1.446  0.1092  0.2430  0.4868
   36MOL0     C 4740   4.259   3.767   1.568 -0.4767  0.0094  0.2834
   36MOL0     C 4741   4.193   3.717   1.690  0.4131 -0.0029 -0.6451
   36MOL0     N 4742   4.214   3.810   1.808 -0.5740  0.0800 -0.2286
   36MOL0     C 4743   4.334   3.828   1.869 -0.2159  0.3953  0.7010
   36MOL0     C 4744   4.309   3.918   1.965 -0.2612 -0.6522 -0.8986
   36MOL0     C 4745   4.418   3.967   2.059 -0.3223 -0.6340  0.1309
   36MOL0     C 4746   4.529   4.038   1.987 -0.2030  0.2277  0.5072
   36MOL0     C 4747   4.481   4.157   1.902  0.2748 -0.7820  0.2919
   36MOL0     C 4748   4.458   4.278   1.989  0.1131  0.0056  0.0894
   36MOL0     O 4749   4.584   4.312   2.045 -0.6530 -0.5765  0.5489
   36MOL0     C 4750   4.595   4.351   2.179 -0.2090 -0.1377  0.2618
   36MOL0     C 4751   4.700   4.286   2.233 -0.4953  0.2627 -0.9873
   36MOL0     C 4752   4.728   4.289   2.374 -0.1623  0.1254 -0.0568
   36MOL0     C 4753   4.862   4.217   2.413  0.9422  0.1145  0.8989
   36MOL0     C 4754   4.630   4.335   2.460  0.9664  0.1882  0.1978
   36MOL0     C 4755   4.632   4.328   2.614 -0.0514  0.2715  0.2995
   36MOL0     O 4756   4.539   4.408   2.671  0.1236 -0.5078 -0.2785
   36MOL0     C 4757   4.544   4.409   2.806 -0.1744 -0.0169  0.0909
   36MOL0     C 4758   4.520   4.298   2.891  0.0988 -0.6248  0.5405
   36MOL0     C 4759   4.521   4.309   3.030 -0.1274 -0.4677 -0.7166
   36MOL0     C 4760   4.544   4.432   3.089 -1.2225 -0.1094 -0.5545
   36MOL0     O 4761   4.561   4.444   3.232 -0.3041  0.2674  0.7843
   36MOL0     C 4762   4.519   4.340   3.317  0.3799  0.0462  0.4890
   36MOL0     C 4763   4.485   4.401   3.451 -0.1590  0.2399  0.1942
   36MOL0     C 4764   4.373   4.500   3.462 -0.8424  0.1641 -0.4735
   36MOL0     C 4765   4.242   4.424   3.473  0.2779  0.8856  0.6059
   36MOL0     C 4766   4.206   4.406   3.616  0.8649 -0.6963 -0.1247
   36MOL0     C 4767   4.056   4.369   3.633 -0.0565  0.5644  0.2820
   36MOL0     C 4768   4.024   4.307   3.783 -0.5105 -0.3086  0.9951
   36MOL0     C 4769   3.893   4.234   3.770 -0.3164 -0.1882  0.0634
   36MOL0    Cl 4770   3.749   4.341   3.771  0.5590 -0.1769  0.4196
   36MOL0     C 4771   4.568   4.544   3.009 -0.2667 -0.7138 -0.2346
   36MOL0     C 4772   4.571   4.536   2.869  1.2382 -0.0466 -0.1937
   36MOL0     O 4773   4.705   4.247   2.674  0.1635 -0.1848  0.1052
   36MOL0     C 4774   4.519   4.409   2.394 -0.2881 -0.1202 -1.1729
   36MOL0     C 4775   4.504   4.415   2.259 -0.9982 -0.0573  0.3551
   36MOL0     N 4776   4.177   3.959   1.958  0.9369  0.3562 -0.6591
   36MOL0     N 4777   4.117   3.883   1.865 -0.1862  0.4403 -0.0394
   36MOL0     C 4778   4.205   3.524   0.729 -0.4902  0.0678  0.0462
   36MOL0     C 4779   4.302   3.497   0.629  1.2743 -0.0221 -0.3351
   36MOL0     C 4780   4.550   3.328   0.310  1.1265  0.2580 -0.2510
   36MOL0     C 4781   4.684   3.346   0.300 -0.3842  0.9280  1.2839
   36MOL0     C 4782   4.758   3.289   0.188  0.1435 -0.6813 -0.9378
   36MOL0     C 4783   4.696   3.232   0.084 -0.5000 -0.7585  0.2431
   36MOL0     O 4784   4.761   3.174  -0.020  0.2280 -0.2842  0.0310
   36MOL0     C 4785   4.895   3.209  -0.043 -0.3947  0.6120 -0.1373
   36MOL0     C 4786   4.955   3.181  -0.183  0.2537 -0.6274 -0.6088
   36MOL0     C 4787   4.868   3.251  -0.295  0.1041  0.9837 -0.4699
   36MOL0     C 4788   4.958   3.284  -0.417  1.2901 -0.2805  0.6456
   36MOL0     C 4789   4.995   3.158  -0.491 -0.6030 -0.2150  0.4522
   36MOL0     C 4790   5.013   3.047  -0.531  0.6930  0.6579  0.2259
   36MOL0     C 4791   4.559   3.213   0.094  0.1369  0.0381 -0.8104
   36MOL0     C 4792   4.478   3.268   0.202 -0.9430  0.6552 -0.4267
   36MOL0     H 4793   4.082   3.418   0.390  1.0549  0.2951 -0.4534
   36MOL0     H 4794   3.930   3.450   0.567 -0.0549  0.2198 -0.6287
   36MOL0     H 4795   4.075   3.682   0.886 -1.1573  2.8536  0.1064
   36MOL0     H 4796   3.902   3.684   0.908  0.2293 -0.6690 -2.1777
   36MOL0     H 4797   3.934   3.484   1.062 -3.4929  2.6829  0.1131
   36MOL0     H 4798   4.111   3.515   1.048 -1.1067 -0.5702  0.9541
   36MOL0     H 4799   4.093   3.735   1.133 -0.7288  1.2969  0.5047
   36MOL0     H 4800   3.914   3.714   1.156 -1.3231 -1.9389 -1.1985
   36MOL0     H 4801   3.942   3.560   1.321  0.9340 -1.3142  2.1778
   36MOL0     H 4802   4.118   3.538   1.298 -0.4546  0.6148  2.3512
   36MOL0     H 4803   4.082   3.818   1.363 -1.2237 -0.2940  0.0622
   36MOL0     H 4804   4.009   3.724   1.487 -2.0624  0.6825 -2.3974
   36MOL0     H 4805   4.249   3.583   1.459  2.7595  0.8232 -0.1920
   36MOL0     H 4806   4.276   3.710   1.355 -1.5073 -2.1314 -1.2278
   36MOL0     H 4807   4.367   3.770   1.582 -0.1643  2.0024 -1.9130
   36MOL0     H 4808   4.241   3.874   1.561 -2.9742 -0.0383  3.6235
   36MOL0     H 4809   4.227   3.618   1.720  2.1067  1.1217  1.4579
   36MOL0     H 4810   4.084   3.709   1.694  0.5947 -2.6102  3.3428
   36MOL0     H 4811   4.422   3.767   1.850  0.4843  1.8449 -0.9937
   36MOL0     H 4812   4.368   4.037   2.128 -0.4003 -1.6902  1.1847
   36MOL0     H 4813   4.453   3.882   2.119 -0.9802  0.6805  2.5208
   36MOL0     H 4814   4.579   3.977   1.911 -0.8378  0.9529 -0.5350
   36MOL0     H 4815   4.592   4.067   2.072 -1.6224  0.0752  1.6380
   36MOL0     H 4816   4.389   4.132   1.849 -0.8806  2.7131  0.3739
   36MOL0     H 4817   4.548   4.182   1.818 -0.4037 -2.6897 -0.8892
   36MOL0     H 4818   4.378   4.279   2.064 -1.4408  0.0403 -1.4891
   36MOL0     H 4819   4.441   4.360   1.919  0.4828 -2.1329 -2.7078
   36MOL0     H 4820   4.773   4.237   2.169  0.5280  0.5118 -0.0333
   36MOL0     H 4821   4.906   4.238   2.511  1.4998  1.3179  0.4159
   36MOL0     H 4822   4.854   4.108   2.412  3.1341 -0.1025 -0.2977
   36MOL0     H 4823   4.936   4.247   2.338  1.9610  3.1294  2.8841
   36MOL0     H 4824   4.491   4.201   2.852  0.2525 -0.6700  0.5373
   36MOL0     H 4825   4.509   4.212   3.079 -1.0896 -0.7287 -1.4373
   36MOL0     H 4826   4.427   4.295   3.279  2.4330 -3.3270 -1.0066
   36MOL0     H 4827   4.600   4.268   3.330  1.0505  0.4521 -1.1438
   36MOL0     H 4828   4.470   4.324   3.528  1.9827  0.2784  0.7290
   36MOL0     H 4829   4.576   4.449   3.487 -1.3201  0.2369  3.5047
   36MOL0     H 4830   4.376   4.562   3.373  2.0014 -0.9783 -1.3026
   36MOL0     H 4831   4.382   4.563   3.551 -1.2255 -0.0573 -0.2725
   36MOL0     H 4832   4.170   4.493   3.429 -1.1182 -1.7063 -1.3968
   36MOL0     H 4833   4.243   4.325   3.426  1.4469  0.3660  1.6422
   36MOL0     H 4834   4.216   4.499   3.672  0.0303 -0.4809 -0.3204
   36MOL0     H 4835   4.270   4.331   3.664  2.0746  0.5605  0.2864
   36MOL0     H 4836   3.995   4.459   3.627  1.5022  1.6243 -0.2625
   36MOL0     H 4837   4.023   4.303   3.553  0.9249  1.6684 -1.0840
   36MOL0     H 4838   4.017   4.391   3.853  3.5451  0.9355  0.1422
   36MOL0     H 4839   4.110   4.248   3.817  1.1033  0.8314 -0.9125
   36MOL0     H 4840   3.882   4.163   3.853  0.3186 -1.2600 -0.7423
   36MOL0     H 4841   3.890   4.176   3.677  1.8717 -0.3401  0.0424
   36MOL0     H 4842   4.592   4.643   3.048 -2.5246  0.5940 -1.9025
   36MOL0     H 4843   4.587   4.625   2.809 -2.8783  1.4456  0.6292
   36MOL0     H 4844   4.456   4.471   2.457 -1.8353 -0.7686 -2.0146
   36MOL0     H 4845   4.430   4.470   2.202  0.6349  0.3092 -1.5043
   36MOL0     H 4846   4.249   3.561   0.821  0.1882 -1.6067  0.4293
   36MOL0     H 4847   4.403   3.523   0.658  3.3177 -2.4277 -4.3853
   36MOL0     H 4848   4.737   3.393   0.382  0.7165  1.4667  0.2960
   36MOL0     H 4849   4.867   3.282   0.190  0.1377 -0.8390  1.0529
   36MOL0     H 4850   4.900   3.317  -0.025 -4.9246  1.8055 -3.9528
   36MOL0     H 4851   4.955   3.151   0.028  0.3464  1.3445 -0.1469
   36MOL0     H 4852   4.950   3.075  -0.210 -1.6474 -1.4403  2.4789
   36MOL0     H 4853   5.054   3.228  -0.177  0.2555 -0.2360 -2.8264
   36MOL0     H 4854   4.827   3.346  -0.258  1.8693  0.4009  3.3649
   36MOL0     H 4855   4.794   3.178  -0.331  2.1135 -0.6179 -1.5396
   36MOL0     H 4856   5.052   3.332  -0.393  3.6737 -5.3907  3.0389
   36MOL0     H 4857   4.903   3.354  -0.481  0.7645  1.2633  2.7088
   36MOL0     H 4858   5.025   2.948  -0.571 -3.1772  0.2640 -0.2959
   36MOL0     H 4859   4.520   3.143   0.020 -1.1354 -1.1961  0.9517
   36MOL0     H 4860   4.370   3.260   0.212 -0.7333 -0.0456  1.9898
   37MOL0     O 4861   2.511  10.687   3.800  0.0006 -0.1705 -0.1145
   37MOL0     C 4862   2.439  10.775   3.842 -1.2004 -0.1422 -0.8761
   37MOL0     O 4863   2.392  10.777   3.968 -0.3681  0.0185  0.0433
   37MOL0     C 4864   2.475  10.723   4.061  1.1313 -0.0749 -0.9223
   37MOL0     C 4865   2.429  10.612   4.137 -0.1859 -0.0357  0.5220
   37MOL0     C 4866   2.518  10.540   4.206 -1.1367  0.6050 -0.8367
   37MOL0     C 4867   2.656  10.573   4.223  0.2075  0.3155  0.5577
   37MOL0     O 4868   2.740  10.499   4.307  0.2471 -1.1805  0.0658
   37MOL0     C 4869   2.677  10.407   4.387 -0.1949 -0.0144  0.4070
   37MOL0     C 4870   2.607  10.447   4.516 -0.7268  0.4378 -0.1554
   37MOL0     C 4871   2.711  10.489   4.611 -0.0749 -0.0298 -0.3404
   37MOL0     C 4872   2.641  10.522   4.730 -0.2339 -0.3892 -0.0962
   37MOL0     C 4873   2.726  10.609   4.823 -0.7215  0.3237 -0.4079
   37MOL0     C 4874   2.853  10.535   4.871  1.2137  1.1859  0.2240
   37MOL0     C 4875   2.934  10.609   4.980 -0.4587 -0.2224 -0.5753
   37MOL0     C 4876   2.846  10.626   5.102 -1.1079 -0.2118  0.1125
   37MOL0     N 4877   2.933  10.626   5.228 -0.5118 -0.2363 -0.2500
   37MOL0     C 4878   2.952  10.517   5.304  0.1959  0.8042 -0.6328
   37MOL0     C 4879   3.015  10.561   5.413 -0.2704 -0.1446  0.8824
   37MOL0     C 4880   3.055  10.480   5.533 -0.5001 -0.5824  0.1270
   37MOL0     C 4881   2.947  10.490   5.646  0.3061 -0.0914 -0.1413
   37MOL0     C 4882   2.984  10.411   5.769  0.1207 -0.0182 -0.1122
   37MOL0     C 4883   2.861  10.380   5.856 -0.3144 -0.2587 -0.2635
   37MOL0     O 4884   2.859  10.500   5.933  0.1059  1.5796  0.0227
   37MOL0     C 4885   2.774  10.496   6.043  0.1884  1.1059  0.9080
   37MOL0     C 4886   2.795  10.402   6.151  0.1960  0.0042 -0.5504
   37MOL0     C 4887   2.702  10.391   6.256  0.5685  0.0376 -0.2150
   37MOL0     C 4888   2.762  10.309   6.362 -1.4087 -0.3724  0.0800
   37MOL0     C 4889   2.578  10.461   6.255  0.7664  0.7479  0.3137
   37MOL0     C 4890   2.463  10.445   6.343 -0.0935 -0.2616  0.7481
   37MOL0     O 4891   2.363  10.527   6.329  0.0180  0.2649 -0.5251
   37MOL0     C 4892   2.238  10.481   6.369 -0.3119 -0.4154 -0.2260
   37MOL0     C 4893   2.191  10.474   6.502  0.9922  0.0508  0.1337
   37MOL0     C 4894   2.052  10.450   6.532 -0.2872  0.7859 -0.1052
   37MOL0     C 4895   1.956  10.427   6.426 -0.4291  0.2030  0.1261
   37MOL0     O 4896   1.830  10.398   6.432  0.6234  0.8031  0.1418
   37MOL0     C 4897   1.747  10.452   6.546  0.5373  0.5741 -0.5606
   37MOL0     C 4898   1.748  10.603   6.548  0.2169 -0.9524 -0.4683
   37MOL0     C 4899   1.664  10.679   6.650 -0.1622  0.5599  0.5578
   37MOL0     C 4900   1.513  10.671   6.633  0.1091 -0.2834  0.9158
   37MOL0     C 4901   1.435  10.637   6.757 -0.0720  0.2530 -0.0203
   37MOL0     C 4902   1.475  10.707   6.888  0.0263  0.3372 -0.3687
   37MOL0     C 4903   1.457  10.860   6.892 -0.0194  0.6447  0.3036
   37MOL0     C 4904   1.556  10.924   6.982 -0.2744 -0.7317 -0.4695
   37MOL0    Cl 4905   1.717  10.879   6.939  0.3026 -0.1463  0.4858
   37MOL0     C 4906   2.014  10.447   6.303 -0.0310 -0.2921  1.1183
   37MOL0     C 4907   2.153  10.465   6.266  0.0027 -0.5006  0.1951
   37MOL0     O 4908   2.464  10.348   6.421  0.9665  0.5336 -0.1208
   37MOL0     C 4909   2.573  10.551   6.151  0.7367 -0.2015  0.4784
   37MOL0     C 4910   2.660  10.574   6.048 -0.1193 -0.2806 -0.3395
   37MOL0     N 4911   3.029  10.698   5.407  0.8573 -0.1617 -0.8163
   37MOL0     N 4912   2.975  10.737   5.303  0.5520 -0.2012  0.5434
   37MOL0     C 4913   2.692  10.692   4.161 -0.0081  0.4097  0.2775
   37MOL0     C 4914   2.612  10.765   4.069 -1.1463  0.7792 -0.5031
   37MOL0     C 4915   2.414  10.893   3.757 -0.2011  0.5752 -0.6160
   37MOL0     C 4916   2.303  10.975   3.766 -0.1810  0.2452  0.0432
   37MOL0     C 4917   2.280  11.076   3.669  0.3585  0.2511 -0.2264
   37MOL0     C 4918   2.374  11.117   3.579  0.0606 -0.1103 -0.1339
   37MOL0     O 4919   2.368  11.222   3.489 -0.6567 -0.0887 -1.1309
   37MOL0     C 4920   2.236  11.254   3.449  0.2862 -0.3714  0.5135
   37MOL0     C 4921   2.163  11.142   3.372  0.5959 -0.0060 -0.1340
   37MOL0     C 4922   2.010  11.166   3.345  0.8168 -0.4719 -0.7278
   37MOL0     C 4923   1.972  11.296   3.286 -0.5553 -0.8555  0.2951
   37MOL0     C 4924   1.841  11.300   3.223 -0.3807  0.0323 -0.2003
   37MOL0     C 4925   1.734  11.317   3.163 -0.1105  0.4260  0.1292
   37MOL0     C 4926   2.487  11.039   3.586 -0.0734 -0.2455 -0.1699
   37MOL0     C 4927   2.509  10.929   3.666 -0.7944 -0.2042  0.9746
   37MOL0     H 4928   2.325  10.585   4.121  0.6413 -2.1564 -1.9284
   37MOL0     H 4929   2.466  10.455   4.250 -2.3561  1.5353 -0.4275
   37MOL0     H 4930   2.605  10.345   4.332  0.6318  0.0547 -0.8035
   37MOL0     H 4931   2.764  10.345   4.413  1.8181  2.0205 -1.0730
   37MOL0     H 4932   2.546  10.534   4.492 -1.3228 -0.0976 -0.6228
   37MOL0     H 4933   2.551  10.360   4.553  2.1837 -1.4200  0.2545
   37MOL0     H 4934   2.772  10.400   4.628  2.4574  1.9856  2.0807
   37MOL0     H 4935   2.771  10.569   4.566  2.5787 -0.1558  2.6632
   37MOL0     H 4936   2.555  10.588   4.712 -2.4164 -3.2641 -0.7941
   37MOL0     H 4937   2.609  10.434   4.786 -0.3576 -1.5618 -1.9544
   37MOL0     H 4938   2.766  10.700   4.778 -1.7311  3.1927  3.8597
   37MOL0     H 4939   2.672  10.645   4.911  3.0494  3.4669  0.9025
   37MOL0     H 4940   2.825  10.437   4.909  3.6893  0.7260  0.9620
   37MOL0     H 4941   2.913  10.519   4.781 -0.7461  0.0762 -0.9557
   37MOL0     H 4942   3.027  10.555   5.003 -1.1168 -0.4907  1.7693
   37MOL0     H 4943   2.962  10.710   4.948 -1.8015 -0.9563 -4.7211
   37MOL0     H 4944   2.771  10.547   5.113 -0.4006 -1.1573 -1.4342
   37MOL0     H 4945   2.793  10.722   5.107 -0.6935  0.0145  0.1586
   37MOL0     H 4946   2.908  10.418   5.306 -1.5320  1.5564  0.3382
   37MOL0     H 4947   3.076  10.376   5.506  3.7046  0.0640  0.2728
   37MOL0     H 4948   3.153  10.513   5.567  0.6257 -0.3800 -3.0351
   37MOL0     H 4949   2.861  10.447   5.594  0.6129 -1.9319  0.7936
   37MOL0     H 4950   2.932  10.593   5.680  0.8591 -1.0576  3.4355
   37MOL0     H 4951   3.063  10.440   5.839  0.6127 -2.6947  0.5575
   37MOL0     H 4952   3.024  10.313   5.739 -0.9173 -0.4832 -0.0094
   37MOL0     H 4953   2.883  10.301   5.928  0.2577 -2.6333 -2.8722
   37MOL0     H 4954   2.766  10.367   5.804 -0.0076  0.9890 -1.1876
   37MOL0     H 4955   2.884  10.342   6.165  0.6051  0.8999  0.9572
   37MOL0     H 4956   2.717  10.310   6.462  1.2733  1.9498  1.4207
   37MOL0     H 4957   2.779  10.209   6.321  1.7787  0.9535 -2.2776
   37MOL0     H 4958   2.866  10.338   6.378 -1.0955 -0.5976 -1.4419
   37MOL0     H 4959   2.263  10.481   6.582  1.5130 -3.2897  0.1061
   37MOL0     H 4960   2.033  10.434   6.638  1.6393 -3.8994 -0.1976
   37MOL0     H 4961   1.649  10.405   6.538  0.3830  0.9872 -1.1414
   37MOL0     H 4962   1.794  10.422   6.640  0.6321  0.3472 -0.6778
   37MOL0     H 4963   1.850  10.639   6.566  1.6285 -4.9594  0.5011
   37MOL0     H 4964   1.724  10.647   6.451  0.8828  1.4848  0.3758
   37MOL0     H 4965   1.699  10.782   6.650  0.4060  0.3712  0.6300
   37MOL0     H 4966   1.683  10.651   6.754 -0.1097  1.4969  0.8098
   37MOL0     H 4967   1.479  10.771   6.602  1.1296 -0.6215 -1.4938
   37MOL0     H 4968   1.485  10.599   6.556  0.6732  0.0901  0.3437
   37MOL0     H 4969   1.448  10.529   6.770 -1.6647  0.0474  0.0633
   37MOL0     H 4970   1.330  10.656   6.732 -0.2574 -2.3439 -1.7382
   37MOL0     H 4971   1.396  10.684   6.961  1.7510 -0.7553  1.2296
   37MOL0     H 4972   1.569  10.665   6.924 -0.4392 -0.7537 -0.3789
   37MOL0     H 4973   1.354  10.885   6.920 -0.6392 -0.3204 -0.9941
   37MOL0     H 4974   1.480  10.912   6.798 -0.4558  1.1546  0.4771
   37MOL0     H 4975   1.539  10.900   7.088  0.6825  0.5652  0.0201
   37MOL0     H 4976   1.557  11.031   6.960  0.6502 -0.7562 -0.5924
   37MOL0     H 4977   1.935  10.435   6.229 -2.2219 -2.3172  3.5962
   37MOL0     H 4978   2.186  10.474   6.163 -4.6200  1.3104 -1.4164
   37MOL0     H 4979   2.483  10.611   6.145 -0.1919 -1.3132  2.2198
   37MOL0     H 4980   2.654  10.657   5.978 -0.7601 -0.2311 -0.2257
   37MOL0     H 4981   2.797  10.718   4.169  0.6353 -1.9909  0.5490
   37MOL0     H 4982   2.636  10.847   4.002 -1.4103  0.3171 -1.1830
   37MOL0     H 4983   2.241  10.952   3.852  1.2909 -0.1351  1.0413
   37MOL0     H 4984   2.184  11.126   3.674 -0.3899 -0.9950 -1.5403
   37MOL0     H 4985   2.169  11.284   3.530  0.6911  0.2162  0.6379
   37MOL0     H 4986   2.247  11.334   3.376  1.9866 -0.7508  0.3062
   37MOL0     H 4987   2.184  11.047   3.422  1.6173 -0.0996 -0.6979
   37MOL0     H 4988   2.213  11.125   3.276  1.2850 -0.9986  0.3818
   37MOL0     H 4989   1.958  11.155   3.440  2.1657  2.3398  0.4340
   37MOL0     H 4990   1.987  11.085   3.274 -0.2095 -1.6662  0.8772
   37MOL0     H 4991   2.051  11.325   3.217 -0.3516  0.3419  0.9998
   37MOL0     H 4992   1.958  11.375   3.361 -0.4777  0.4417 -1.0186
   37MOL0     H 4993   1.644  11.317   3.106 -0.1431  1.2294  0.1653
   37MOL0     H 4994   2.570  11.058   3.517  1.0149  0.9153  1.3791
   37MOL0     H 4995   2.598  10.874   3.638 -0.3185  2.5125 -4.1436
   38MOL0     O 4996   3.555   8.831  11.036  0.2782 -0.0505  0.2728
   38MOL0     C 4997   3.577   8.948  11.083 -0.2231  1.0258  1.2372
   38MOL0     O 4998   3.559   9.065  11.015  0.3850  0.3231 -0.1023
   38MOL0     C 4999   3.493   9.077  10.893 -0.7683  0.4417 -0.7591
   38MOL0     C 5000   3.495   8.985  10.785  0.1620  0.1503  0.1171
   38MOL0     C 5001   3.404   9.004  10.677  0.5154 -0.1624  0.4613
   38MOL0     C 5002   3.314   9.107  10.674 -0.5824 -0.4185  0.9623
   38MOL0     O 5003   3.227   9.123  10.567 -0.4269 -0.1376 -0.1536
   38MOL0     C 5004   3.098   9.088  10.601 -0.4636 -0.0124 -0.2958
   38MOL0     C 5005   2.991   9.075  10.491 -0.0536  0.2746 -0.8182
   38MOL0     C 5006   2.843   9.070  10.533 -0.1336  0.5388  0.0369
   38MOL0     C 5007   2.801   9.210  10.593 -0.6154  1.2689 -0.4541
   38MOL0     C 5008   2.649   9.225  10.610 -0.2749  0.2734  0.3406
   38MOL0     C 5009   2.617   9.350  10.689  0.2444 -0.5661  0.4488
   38MOL0     C 5010   2.465   9.347  10.705 -0.1314 -0.0471  0.7526
   38MOL0     C 5011   2.421   9.467  10.790  0.6798  0.0943  1.3873
   38MOL0     N 5012   2.275   9.460  10.793  0.6633  0.1814 -0.8805
   38MOL0     C 5013   2.200   9.405  10.896  0.1749  0.8175  0.0291
   38MOL0     C 5014   2.088   9.359  10.826 -0.5400  1.2692 -1.0055
   38MOL0     C 5015   1.971   9.289  10.902 -0.8167  0.7873 -0.6590
   38MOL0     C 5016   1.910   9.375  11.022 -0.2831  0.1301  0.1297
   38MOL0     C 5017   1.793   9.476  10.982  0.7035 -0.2199  0.5345
   38MOL0     C 5018   1.771   9.592  11.075  0.4888 -0.3464  0.5971
   38MOL0     O 5019   1.898   9.649  11.104  0.3395  0.4513 -0.6646
   38MOL0     C 5020   1.917   9.701  11.225  0.2153  0.4454 -0.0351
   38MOL0     C 5021   2.035   9.668  11.287  0.0341 -0.3143  0.0890
   38MOL0     C 5022   2.053   9.714  11.421  0.0102  0.1575 -0.7664
   38MOL0     C 5023   2.172   9.654  11.484 -0.3161  0.5539 -0.0580
   38MOL0     C 5024   1.957   9.802  11.486  0.4317  0.3890 -1.4451
   38MOL0     C 5025   1.958   9.864  11.622  0.0620  0.3109 -0.1662
   38MOL0     O 5026   1.856   9.951  11.668  0.7970  0.1377  0.0659
   38MOL0     C 5027   1.842   9.992  11.803  0.5805  0.7987  0.5124
   38MOL0     C 5028   1.944  10.031  11.881  0.6264 -0.3934  0.1577
   38MOL0     C 5029   1.921  10.042  12.017 -0.0982 -0.0882  0.6531
   38MOL0     C 5030   1.810  10.004  12.078  0.5849  0.6755 -0.5168
   38MOL0     O 5031   1.797   9.988  12.220  0.2116 -0.6876 -0.2957
   38MOL0     C 5032   1.911   9.960  12.291  1.0471 -0.4028  0.7236
   38MOL0     C 5033   1.867   9.973  12.434 -0.2622  0.0303 -0.2420
   38MOL0     C 5034   1.987   9.962  12.528  0.0997 -0.1755 -0.3872
   38MOL0     C 5035   2.012   9.823  12.560 -0.1059  0.6989  0.1398
   38MOL0     C 5036   2.144   9.793  12.637  0.6438  1.0014  0.2765
   38MOL0     C 5037   2.145   9.832  12.784  0.5395 -0.5251  1.1966
   38MOL0     C 5038   2.285   9.820  12.844  0.6310  0.5700  0.1278
   38MOL0     C 5039   2.386   9.902  12.761 -0.6578 -0.0427 -1.4208
   38MOL0    Cl 5040   2.532   9.909  12.863 -0.2199  0.1588 -0.5144
   38MOL0     C 5041   1.709   9.959  12.006 -0.6111 -0.4786  1.1734
   38MOL0     C 5042   1.722   9.954  11.861  0.1029 -0.5747 -0.7288
   38MOL0     O 5043   2.057   9.839  11.680 -1.0872  0.0619 -0.5284
   38MOL0     C 5044   1.834   9.819  11.420 -0.2454  0.5223  1.0338
   38MOL0     C 5045   1.813   9.770  11.292 -0.7592  0.0207 -0.1376
   38MOL0     N 5046   2.087   9.412  10.695  0.1856 -0.3264  0.1882
   38MOL0     N 5047   2.196   9.473  10.680 -0.9397  0.0954 -0.6164
   38MOL0     C 5048   3.332   9.204  10.773 -0.0017  0.3477  0.0986
   38MOL0     C 5049   3.416   9.188  10.885 -0.6901 -0.1260  0.3128
   38MOL0     C 5050   3.654   8.959  11.211  0.5628  0.2406  0.2082
   38MOL0     C 5051   3.737   9.062  11.249  0.0631  0.1572 -0.7963
   38MOL0     C 5052   3.803   9.065  11.369  0.0158  0.4389 -0.1801
   38MOL0     C 5053   3.794   8.951  11.454  0.3368 -0.1721  1.2547
   38MOL0     O 5054   3.845   8.947  11.577  0.4350  0.4975  0.6792
   38MOL0     C 5055   3.979   8.897  11.570 -0.6163 -1.2074  0.1216
   38MOL0     C 5056   4.003   8.804  11.694 -0.6760 -0.4677  0.3006
   38MOL0     C 5057   3.914   8.677  11.696  0.2383  0.2276 -0.5906
   38MOL0     C 5058   3.941   8.594  11.812 -0.0908  0.4880 -0.1940
   38MOL0     C 5059   4.076   8.530  11.820  0.3150  0.1644  0.6374
   38MOL0     C 5060   4.186   8.488  11.839  0.1804 -0.2979 -0.4740
   38MOL0     C 5061   3.709   8.849  11.420 -0.4632  0.5551 -1.1079
   38MOL0     C 5062   3.645   8.845  11.300 -0.6460 -0.5519  1.0646
   38MOL0     H 5063   3.549   8.891  10.790 -2.7257 -1.7444 -1.5807
   38MOL0     H 5064   3.411   8.924  10.604  1.9477  0.2069  0.1688
   38MOL0     H 5065   3.109   8.989  10.647  2.5672 -0.1255 -1.0396
   38MOL0     H 5066   3.048   9.154  10.673 -3.2022 -1.3998 -0.7713
   38MOL0     H 5067   3.013   9.153  10.417 -0.0638 -1.1857 -2.4328
   38MOL0     H 5068   3.013   8.983  10.437 -1.4600 -0.5206 -0.1141
   38MOL0     H 5069   2.795   9.053  10.436  2.1658 -1.7379 -0.8217
   38MOL0     H 5070   2.824   8.985  10.600  1.3410  1.4989  1.7453
   38MOL0     H 5071   2.845   9.215  10.693 -2.4890  0.6176  0.4529
   38MOL0     H 5072   2.841   9.290  10.531  1.7205  0.4538 -0.1079
   38MOL0     H 5073   2.598   9.228  10.513 -0.6081  0.6046  0.5266
   38MOL0     H 5074   2.616   9.132  10.657  1.0146 -1.1336 -1.3834
   38MOL0     H 5075   2.668   9.349  10.786  0.7154 -1.3120  0.2015
   38MOL0     H 5076   2.650   9.441  10.639  0.1518  0.1224  1.6167
   38MOL0     H 5077   2.415   9.354  10.608 -0.6790 -4.1103  0.5878
   38MOL0     H 5078   2.428   9.257  10.754 -1.3733  0.7148  1.2679
   38MOL0     H 5079   2.447   9.560  10.737  0.8808  0.4706  2.1357
   38MOL0     H 5080   2.457   9.475  10.893  2.4060  2.3763  0.6980
   38MOL0     H 5081   2.219   9.384  11.000  2.1906  1.0358 -0.2494
   38MOL0     H 5082   1.892   9.258  10.833 -0.4869 -1.3463 -0.1510
   38MOL0     H 5083   2.018   9.199  10.942  1.3815  1.5970 -1.2669
   38MOL0     H 5084   1.992   9.419  11.078 -0.7278  0.2557  0.6906
   38MOL0     H 5085   1.864   9.300  11.087 -2.0161  2.5550  1.8712
   38MOL0     H 5086   1.702   9.418  10.963  0.9205  0.3104 -2.7900
   38MOL0     H 5087   1.833   9.522  10.891 -0.2371  1.1989  0.8142
   38MOL0     H 5088   1.733   9.538  11.162  4.2198 -2.0211  1.3720
   38MOL0     H 5089   1.696   9.660  11.033 -1.6105 -2.6025  0.4449
   38MOL0     H 5090   2.108   9.623  11.221  1.8736  1.4057  0.8196
   38MOL0     H 5091   2.232   9.600  11.409  0.4493  0.2597  0.7428
   38MOL0     H 5092   2.231   9.739  11.520 -1.4722  1.7021 -0.8130
   38MOL0     H 5093   2.140   9.589  11.566 -0.8941 -0.7084 -1.2394
   38MOL0     H 5094   2.041  10.059  11.842  1.0915  0.4086  1.8124
   38MOL0     H 5095   2.008  10.079  12.070  2.5850  0.9715 -3.9923
   38MOL0     H 5096   1.953   9.859  12.288  1.6434 -0.1700  1.0327
   38MOL0     H 5097   1.983  10.042  12.279  0.7881 -0.1763  0.7308
   38MOL0     H 5098   1.815  10.067  12.453  1.5730  1.4288 -1.7406
   38MOL0     H 5099   1.792   9.899  12.463 -0.4976 -0.5660 -2.2410
   38MOL0     H 5100   1.964  10.036  12.606 -0.7296  1.8383 -2.4131
   38MOL0     H 5101   2.070   9.998  12.467 -0.8117  1.7932 -0.5403
   38MOL0     H 5102   1.935   9.782  12.626  0.8963 -1.9616 -0.2280
   38MOL0     H 5103   2.025   9.765  12.468 -0.4503 -0.1743  0.6280
   38MOL0     H 5104   2.228   9.846  12.591  0.5352  2.0662  1.2459
   38MOL0     H 5105   2.162   9.686  12.628 -5.2099 -0.3693  0.6054
   38MOL0     H 5106   2.114   9.937  12.777 -0.8719 -0.7576  3.0801
   38MOL0     H 5107   2.067   9.777  12.839  0.6822 -2.4443 -0.4131
   38MOL0     H 5108   2.318   9.716  12.856  1.1814  0.5957 -0.9816
   38MOL0     H 5109   2.283   9.861  12.945 -1.2783  1.2610 -0.1496
   38MOL0     H 5110   2.364  10.003  12.726  4.1818  0.1798 -4.7694
   38MOL0     H 5111   2.416   9.850  12.670  2.4189  2.2552 -1.8802
   38MOL0     H 5112   1.617   9.920  12.049 -1.7916  0.0899 -0.6789
   38MOL0     H 5113   1.636   9.914  11.809 -0.3932  0.7912 -0.9936
   38MOL0     H 5114   1.754   9.873  11.469 -0.0248 -0.4024  2.4722
   38MOL0     H 5115   1.719   9.791  11.242 -1.4616 -0.8238  0.7897
   38MOL0     H 5116   3.270   9.294  10.771 -0.2940  0.1502 -1.5356
   38MOL0     H 5117   3.412   9.264  10.963 -2.3991 -0.0030  0.1439
   38MOL0     H 5118   3.741   9.143  11.177 -2.0662  0.4295 -0.6592
   38MOL0     H 5119   3.866   9.150  11.394 -1.1170  0.9144  1.2011
   38MOL0     H 5120   3.999   8.837  11.480  1.6566 -1.4952  0.7370
   38MOL0     H 5121   4.040   8.988  11.570 -1.1735 -0.8279 -0.5280
   38MOL0     H 5122   3.980   8.871  11.777 -0.4748  2.2942 -1.7187
   38MOL0     H 5123   4.107   8.768  11.696 -1.1315 -2.3510 -2.7496
   38MOL0     H 5124   3.947   8.622  11.607  2.7757  2.8798 -1.4532
   38MOL0     H 5125   3.809   8.707  11.693  0.9763  3.1672 -0.2777
   38MOL0     H 5126   3.863   8.519  11.822  1.7449 -1.2232  3.1110
   38MOL0     H 5127   3.927   8.654  11.903  0.1346 -0.4853  0.4979
   38MOL0     H 5128   4.289   8.464  11.858  0.4714 -0.8799 -2.5939
   38MOL0     H 5129   3.696   8.761  11.482 -2.4587  0.9810 -0.8566
   38MOL0     H 5130   3.595   8.752  11.276  2.9205 -2.7937  1.5098
   39MOL0     O 5131   4.221   7.114   5.206  0.5597  1.4861  0.2811
   39MOL0     C 5132   4.259   7.069   5.315  0.2129 -1.2966  0.4976
   39MOL0     O 5133   4.250   7.145   5.432  0.1898 -0.8181  0.1791
   39MOL0     C 5134   4.161   7.257   5.441 -0.3547 -0.5009 -0.4396
   39MOL0     C 5135   4.134   7.280   5.577  0.1767 -0.1722  0.8025
   39MOL0     C 5136   4.064   7.396   5.614 -0.4331 -0.6685 -0.3559
   39MOL0     C 5137   4.027   7.479   5.514 -0.2116  0.0533 -0.3074
   39MOL0     O 5138   3.965   7.605   5.542  0.5978 -0.1069  0.6121
   39MOL0     C 5139   4.063   7.714   5.550  0.4104  0.9575 -0.4127
   39MOL0     C 5140   4.086   7.803   5.426  0.5534 -0.9326 -0.7428
   39MOL0     C 5141   3.951   7.877   5.390  0.1938  0.1311  0.4366
   39MOL0     C 5142   3.967   7.997   5.296  0.2382 -0.1668  0.2352
   39MOL0     C 5143   4.031   8.126   5.358  0.8368 -0.5951  0.7042
   39MOL0     C 5144   4.060   8.224   5.249 -0.1903 -0.0054 -0.2860
   39MOL0     C 5145   4.150   8.338   5.319  0.4879  0.5355 -0.1891
   39MOL0     C 5146   4.141   8.472   5.257 -0.5481 -0.3280  0.3542
   39MOL0     N 5147   4.210   8.472   5.117  0.1740 -0.2573 -0.3645
   39MOL0     C 5148   4.345   8.514   5.100  0.1556 -0.3113  0.4194
   39MOL0     C 5149   4.353   8.499   4.966 -1.0046 -0.5280 -0.5180
   39MOL0     C 5150   4.485   8.505   4.895  0.5232 -0.5191 -0.3772
   39MOL0     C 5151   4.470   8.457   4.752  1.1784  0.6217 -0.3976
   39MOL0     C 5152   4.605   8.430   4.690  0.9141  0.6690 -0.3225
   39MOL0     C 5153   4.702   8.550   4.687  1.1617 -0.2533  0.1727
   39MOL0     O 5154   4.632   8.652   4.615 -0.1845  0.3101 -0.0893
   39MOL0     C 5155   4.585   8.759   4.691  0.4708  0.2395 -1.0386
   39MOL0     C 5156   4.455   8.783   4.675 -0.2722  0.7778  0.6442
   39MOL0     C 5157   4.389   8.887   4.733  0.2750  0.0167  0.7253
   39MOL0     C 5158   4.250   8.905   4.693 -0.2609  0.3563 -0.3242
   39MOL0     C 5159   4.458   8.972   4.825  0.2817  0.3493  0.8087
   39MOL0     C 5160   4.391   9.076   4.913 -0.1035 -0.0351  0.1819
   39MOL0     O 5161   4.474   9.133   5.009 -0.0912 -0.5082 -0.1231
   39MOL0     C 5162   4.428   9.235   5.080  1.1035  0.2904 -0.7944
   39MOL0     C 5163   4.531   9.326   5.106  0.0681  0.7363 -0.0770
   39MOL0     C 5164   4.509   9.440   5.167 -0.2709 -0.2471 -0.4626
   39MOL0     C 5165   4.381   9.470   5.214 -0.8877 -0.0651  1.1242
   39MOL0     O 5166   4.372   9.596   5.277 -0.6612  0.1315 -0.0784
   39MOL0     C 5167   4.244   9.630   5.321  1.5178 -0.8708 -0.0742
   39MOL0     C 5168   4.225   9.782   5.339 -0.8266  0.3066  0.0295
   39MOL0     C 5169   4.347   9.836   5.418  0.4419 -0.2249 -0.3083
   39MOL0     C 5170   4.331   9.991   5.437  1.3307  0.5848 -0.2628
   39MOL0     C 5171   4.227  10.019   5.552 -0.6672  0.6718  0.2256
   39MOL0     C 5172   4.292  10.023   5.686 -0.3039  0.2275 -0.2794
   39MOL0     C 5173   4.211  10.072   5.811 -0.8517 -0.5186  0.2522
   39MOL0     C 5174   4.075   9.993   5.831  0.2255  0.2423 -0.2129
   39MOL0    Cl 5175   4.079   9.810   5.851 -0.5780  0.4464  0.0834
   39MOL0     C 5176   4.275   9.372   5.199 -0.5677 -0.3841 -1.5184
   39MOL0     C 5177   4.298   9.259   5.136 -0.3329 -0.1207  0.5262
   39MOL0     O 5178   4.281   9.116   4.885 -0.3705  0.1516  0.8084
   39MOL0     C 5179   4.598   8.948   4.846 -0.5281  0.1084  1.1666
   39MOL0     C 5180   4.661   8.845   4.764  0.0043 -0.6133 -0.4760
   39MOL0     N 5181   4.230   8.449   4.910 -0.4003  0.1845  0.3992
   39MOL0     N 5182   4.153   8.423   5.008  0.1020  0.3360 -0.2436
   39MOL0     C 5183   4.060   7.456   5.381 -0.3280 -0.9008  0.8504
   39MOL0     C 5184   4.126   7.347   5.342  0.7026 -0.1480 -0.3998
   39MOL0     C 5185   4.335   6.942   5.320  0.9213 -0.2410 -0.2134
   39MOL0     C 5186   4.395   6.901   5.207 -1.2855 -0.1268  0.4295
   39MOL0     C 5187   4.470   6.773   5.204  0.1021 -0.6770  0.0709
   39MOL0     C 5188   4.486   6.696   5.317  1.3013 -0.3684 -0.4973
   39MOL0     O 5189   4.568   6.585   5.314 -0.7339 -0.9376  0.4494
   39MOL0     C 5190   4.548   6.492   5.417 -0.1143  0.7976  1.1279
   39MOL0     C 5191   4.541   6.349   5.370  0.1485 -0.6116  0.8048
   39MOL0     C 5192   4.520   6.248   5.485 -0.2663  0.2834 -0.7620
   39MOL0     C 5193   4.590   6.116   5.456 -1.1879 -0.2119 -0.2647
   39MOL0     C 5194   4.723   6.108   5.519  0.3154  0.2950 -0.1860
   39MOL0     C 5195   4.837   6.116   5.557  0.6289  0.1104  1.3020
   39MOL0     C 5196   4.428   6.750   5.438 -0.4651 -0.0160 -0.5204
   39MOL0     C 5197   4.351   6.872   5.438  0.4651 -0.1734  0.4230
   39MOL0     H 5198   4.181   7.215   5.650  0.2184 -2.7873 -1.3814
   39MOL0     H 5199   4.035   7.415   5.717 -3.2562  0.8548 -1.3137
   39MOL0     H 5200   4.028   7.785   5.626 -0.7461 -0.3244  0.3178
   39MOL0     H 5201   4.158   7.685   5.596 -1.0809  1.7590  3.5978
   39MOL0     H 5202   4.173   7.866   5.449 -0.2791 -0.1863  0.4564
   39MOL0     H 5203   4.122   7.747   5.339  0.5075 -0.8267 -0.8296
   39MOL0     H 5204   3.881   7.809   5.339  1.8990 -0.1288 -1.7385
   39MOL0     H 5205   3.896   7.920   5.474 -3.3852 -2.3784 -0.4057
   39MOL0     H 5206   4.021   7.967   5.206 -3.4904 -0.2478 -2.1856
   39MOL0     H 5207   3.866   8.018   5.261 -1.0056 -3.0806  1.6946
   39MOL0     H 5208   3.980   8.172   5.443  2.7363  0.9923  1.0562
   39MOL0     H 5209   4.125   8.097   5.404  0.4049 -2.1803  0.6510
   39MOL0     H 5210   4.121   8.174   5.174 -0.5791 -1.4231  0.3160
   39MOL0     H 5211   3.971   8.268   5.203  1.1544  1.3889 -1.6414
   39MOL0     H 5212   4.112   8.347   5.421  0.8207 -1.7654  0.2069
   39MOL0     H 5213   4.255   8.307   5.317  0.6734  1.1477 -0.0040
   39MOL0     H 5214   4.192   8.549   5.317 -0.8975  1.3665 -1.4170
   39MOL0     H 5215   4.042   8.498   5.218  0.2503 -0.4033 -1.8989
   39MOL0     H 5216   4.420   8.543   5.172  2.3887  0.0193 -1.8890
   39MOL0     H 5217   4.508   8.611   4.912 -2.6774  0.3034 -0.4896
   39MOL0     H 5218   4.562   8.452   4.953 -0.3466 -1.2317  0.1455
   39MOL0     H 5219   4.414   8.521   4.683 -0.1266 -2.1833 -2.1544
   39MOL0     H 5220   4.414   8.362   4.752 -0.2282  1.4044  0.9485
   39MOL0     H 5221   4.581   8.403   4.586 -2.4290 -0.9847  0.7344
   39MOL0     H 5222   4.663   8.349   4.735  1.8334  1.3439 -0.2612
   39MOL0     H 5223   4.800   8.528   4.645  0.6450 -0.5919 -0.8856
   39MOL0     H 5224   4.716   8.586   4.789 -1.0892 -0.5640  0.6585
   39MOL0     H 5225   4.397   8.725   4.604 -0.8368  0.2495  1.5219
   39MOL0     H 5226   4.232   9.009   4.664 -0.0917  0.5932  0.3986
   39MOL0     H 5227   4.219   8.843   4.609  1.1796  0.2768 -0.8268
   39MOL0     H 5228   4.185   8.890   4.780  0.8738 -0.1357  0.4714
   39MOL0     H 5229   4.623   9.308   5.051  0.6913 -5.0258  2.1524
   39MOL0     H 5230   4.592   9.508   5.181 -3.2499  3.2281  1.8918
   39MOL0     H 5231   4.164   9.611   5.248 -0.0455  1.0644  1.0466
   39MOL0     H 5232   4.222   9.565   5.406  2.2064  1.2435  1.8150
   39MOL0     H 5233   4.221   9.830   5.241 -1.8010 -0.9879 -0.5938
   39MOL0     H 5234   4.132   9.793   5.395  0.0367 -0.1258  1.6203
   39MOL0     H 5235   4.440   9.834   5.361  0.3936  2.2176 -0.6077
   39MOL0     H 5236   4.371   9.789   5.513  0.2479  4.4692  2.3731
   39MOL0     H 5237   4.423  10.044   5.462  0.8731  2.0228 -1.4970
   39MOL0     H 5238   4.298  10.029   5.340 -1.6206  0.1568  0.4581
   39MOL0     H 5239   4.147   9.944   5.545 -1.2845  1.3715 -0.4105
   39MOL0     H 5240   4.179  10.112   5.520  1.3916  1.1481 -1.7583
   39MOL0     H 5241   4.322   9.919   5.703  0.1627 -0.0149 -2.3338
   39MOL0     H 5242   4.383  10.082   5.684  0.8602 -1.5100 -1.2470
   39MOL0     H 5243   4.178  10.176   5.803 -3.0574 -0.7978  3.6671
   39MOL0     H 5244   4.278  10.059   5.897  2.8987 -2.3212 -2.6536
   39MOL0     H 5245   4.015  10.007   5.740  0.6520  0.9347 -0.3950
   39MOL0     H 5246   4.021  10.042   5.912  1.6354  0.5639  0.5560
   39MOL0     H 5247   4.172   9.394   5.225 -0.4341 -2.7226  1.6794
   39MOL0     H 5248   4.214   9.193   5.117  1.5587 -2.4458 -0.3672
   39MOL0     H 5249   4.658   9.017   4.905  3.1544  0.1162 -2.1096
   39MOL0     H 5250   4.765   8.818   4.756 -0.2761 -1.4462 -1.6135
   39MOL0     H 5251   4.039   7.537   5.311  0.2644  0.6886  2.4366
   39MOL0     H 5252   4.156   7.345   5.238 -0.3051  0.5811 -0.7267
   39MOL0     H 5253   4.384   6.950   5.111 -0.3773 -0.8611 -0.0591
   39MOL0     H 5254   4.521   6.742   5.114  2.5502  0.4960  0.9323
   39MOL0     H 5255   4.626   6.512   5.491  1.2857 -1.3250  0.3158
   39MOL0     H 5256   4.454   6.508   5.471 -2.2238  0.8656 -2.2605
   39MOL0     H 5257   4.632   6.334   5.311 -0.7143 -0.3509 -0.6450
   39MOL0     H 5258   4.458   6.348   5.298  1.1292 -0.5386 -0.3656
   39MOL0     H 5259   4.414   6.228   5.503  0.3609 -1.5345  1.2567
   39MOL0     H 5260   4.547   6.291   5.582 -2.1444 -0.7768  0.2921
   39MOL0     H 5261   4.593   6.090   5.349  0.5410 -2.0070  0.1662
   39MOL0     H 5262   4.526   6.033   5.487 -1.4927 -0.7755 -2.2374
   39MOL0     H 5263   4.932   6.123   5.607  2.2586 -0.4199 -1.5261
   39MOL0     H 5264   4.437   6.704   5.535  2.8559 -0.2168 -0.7874
   39MOL0     H 5265   4.315   6.910   5.534  5.1404  2.5437  1.4188
   40MOL0     O 5266   7.781   6.576   0.596  0.3742 -0.6512 -0.4828
   40MOL0     C 5267   7.743   6.671   0.663  0.4875 -0.1543 -0.4513
   40MOL0     O 5268   7.735   6.794   0.613  0.1901 -0.1197  0.1555
   40MOL0     C 5269   7.801   6.826   0.494  0.6713  0.4832 -0.5242
   40MOL0     C 5270   7.943   6.820   0.481  1.0607  0.0427  0.4028
   40MOL0     C 5271   8.008   6.863   0.363 -0.2605  0.4816 -0.6611
   40MOL0     C 5272   7.931   6.918   0.256 -0.3682 -0.9236  1.3399
   40MOL0     O 5273   7.992   6.966   0.135  0.8267 -0.2450 -0.7524
   40MOL0     C 5274   7.917   6.988   0.016  0.1116 -0.3297  0.4626
   40MOL0     C 5275   7.854   7.129  -0.002  0.3987  0.5929 -0.1893
   40MOL0     C 5276   7.786   7.164  -0.136 -0.4909 -0.3703 -0.3353
   40MOL0     C 5277   7.890   7.160  -0.249  0.1397  0.7239  0.3401
   40MOL0     C 5278   7.836   7.226  -0.383  0.4111 -0.1705 -0.4161
   40MOL0     C 5279   7.947   7.266  -0.487  0.0920 -0.0429  0.1139
   40MOL0     C 5280   8.037   7.376  -0.430  0.0068 -0.2805 -0.1310
   40MOL0     C 5281   8.083   7.474  -0.545  0.0442  0.5393 -0.1219
   40MOL0     N 5282   8.183   7.563  -0.493 -0.7744  0.4895  0.2922
   40MOL0     C 5283   8.174   7.703  -0.504  0.3300  0.3990 -0.0564
   40MOL0     C 5284   8.295   7.739  -0.468 -0.9666 -0.2222  0.3460
   40MOL0     C 5285   8.335   7.884  -0.449  0.2822 -0.1882 -0.5335
   40MOL0     C 5286   8.429   7.928  -0.561  0.3715  0.2833  0.4549
   40MOL0     C 5287   8.491   8.078  -0.522  0.7844  0.0077 -0.3614
   40MOL0     C 5288   8.384   8.188  -0.504 -0.1129  0.4184 -0.2072
   40MOL0     O 5289   8.314   8.173  -0.385 -0.2097  0.2772  0.1967
   40MOL0     C 5290   8.189   8.247  -0.378  0.1834 -0.6534  1.0866
   40MOL0     C 5291   8.068   8.206  -0.440 -0.3576  0.7739 -0.5732
   40MOL0     C 5292   7.950   8.282  -0.425 -0.2199 -0.7472 -0.3687
   40MOL0     C 5293   7.831   8.224  -0.482  0.2160 -1.2216 -0.1885
   40MOL0     C 5294   7.950   8.402  -0.349  1.1696 -0.2096 -0.1985
   40MOL0     C 5295   7.826   8.491  -0.318  1.4444 -1.4277  0.2445
   40MOL0     O 5296   7.845   8.582  -0.214  0.4525 -0.1262 -0.2343
   40MOL0     C 5297   7.736   8.641  -0.164  0.2881 -0.6415 -0.6777
   40MOL0     C 5298   7.690   8.750  -0.233  1.0466 -0.2847  0.1234
   40MOL0     C 5299   7.597   8.843  -0.180 -0.1121  0.7599  0.1601
   40MOL0     C 5300   7.541   8.822  -0.053 -0.2551  1.5688  0.0572
   40MOL0     O 5301   7.440   8.901  -0.003  0.1597  0.4322  0.2522
   40MOL0     C 5302   7.445   9.040  -0.032  0.1123 -0.1211 -0.5496
   40MOL0     C 5303   7.342   9.122   0.061 -0.2093 -0.3418 -0.7579
   40MOL0     C 5304   7.393   9.107   0.205  0.2929  0.1168 -0.1871
   40MOL0     C 5305   7.291   9.171   0.294  0.0982  0.2648  0.4140
   40MOL0     C 5306   7.314   9.175   0.442 -0.1049  0.5267 -0.8505
   40MOL0     C 5307   7.286   9.041   0.495 -0.2084  0.8406  0.0131
   40MOL0     C 5308   7.347   9.028   0.642  0.1556  0.0753 -0.3356
   40MOL0     C 5309   7.317   8.888   0.706  0.2172  0.5648  0.0408
   40MOL0    Cl 5310   7.444   8.848   0.829 -0.1280 -0.2186 -0.2273
   40MOL0     C 5311   7.579   8.706   0.019  0.4722 -0.6689  0.3181
   40MOL0     C 5312   7.672   8.620  -0.043 -1.2805  0.4884 -0.2282
   40MOL0     O 5313   7.713   8.469  -0.378  0.3138 -0.1129  0.0369
   40MOL0     C 5314   8.072   8.452  -0.300 -0.0064  0.6788 -0.2370
   40MOL0     C 5315   8.183   8.364  -0.301 -0.0678 -0.5028 -0.0882
   40MOL0     N 5316   8.371   7.630  -0.437 -1.3692  0.0860  0.6539
   40MOL0     N 5317   8.300   7.522  -0.447  0.0662  1.8591 -0.8341
   40MOL0     C 5318   7.783   6.917   0.267  0.5831 -0.4790  0.3197
   40MOL0     C 5319   7.724   6.877   0.388 -0.1896 -0.0005  0.0375
   40MOL0     C 5320   7.674   6.650   0.792 -0.1270 -0.6669  0.3585
   40MOL0     C 5321   7.633   6.518   0.826 -1.0935  0.2435 -0.1931
   40MOL0     C 5322   7.552   6.498   0.940  0.0462  0.4179 -0.2689
   40MOL0     C 5323   7.539   6.604   1.039  0.5000  0.2578  0.0168
   40MOL0     O 5324   7.461   6.575   1.147 -0.0790 -0.6804 -0.1557
   40MOL0     C 5325   7.399   6.684   1.228  0.1154  0.2913 -0.0876
   40MOL0     C 5326   7.497   6.713   1.342  0.0697 -1.3303 -1.2343
   40MOL0     C 5327   7.473   6.839   1.413 -0.1517  0.1072  0.6494
   40MOL0     C 5328   7.355   6.834   1.522  1.0948 -1.0084 -0.0541
   40MOL0     C 5329   7.317   6.974   1.556  0.7663 -0.6797 -0.2375
   40MOL0     C 5330   7.289   7.091   1.580  0.0241  0.1594 -0.4692
   40MOL0     C 5331   7.584   6.730   1.001  0.0496 -0.5159  0.0928
   40MOL0     C 5332   7.654   6.754   0.881  0.1595  0.0479  0.3767
   40MOL0     H 5333   8.001   6.783   0.564  1.2548 -1.4600 -0.3712
   40MOL0     H 5334   8.115   6.846   0.360 -0.4404 -1.4240  1.1700
   40MOL0     H 5335   7.997   6.986  -0.058  2.0163  2.3827  2.2440
   40MOL0     H 5336   7.841   6.911  -0.000 -0.7968  0.8619 -1.1810
   40MOL0     H 5337   7.780   7.138   0.078 -0.8480  1.8178 -1.4318
   40MOL0     H 5338   7.925   7.208   0.021 -0.8356  1.8487 -0.5692
   40MOL0     H 5339   7.719   7.079  -0.154  1.5910 -1.2851 -5.4606
   40MOL0     H 5340   7.748   7.266  -0.131  0.8905  0.1730 -0.4220
   40MOL0     H 5341   7.976   7.222  -0.223 -0.7196  0.7345  3.6326
   40MOL0     H 5342   7.931   7.060  -0.265 -2.1887 -0.2988  0.3154
   40MOL0     H 5343   7.758   7.157  -0.418  0.7894 -1.4213  1.0770
   40MOL0     H 5344   7.781   7.319  -0.368  0.0555 -0.4860  0.2986
   40MOL0     H 5345   8.004   7.175  -0.509 -0.3680 -0.2650 -0.1650
   40MOL0     H 5346   7.889   7.305  -0.572  0.7340  0.0771 -0.2797
   40MOL0     H 5347   7.979   7.433  -0.357 -0.9501 -0.1707 -0.9512
   40MOL0     H 5348   8.120   7.316  -0.391 -0.0115 -1.1524 -1.3603
   40MOL0     H 5349   7.997   7.530  -0.583 -0.7563  0.4590  1.4700
   40MOL0     H 5350   8.128   7.409  -0.620  2.6110  0.4599  1.3622
   40MOL0     H 5351   8.088   7.758  -0.538 -1.0041 -1.9717 -0.7489
   40MOL0     H 5352   8.250   7.949  -0.426  0.3659 -0.5043  0.7138
   40MOL0     H 5353   8.394   7.885  -0.357 -0.1807  2.1829 -0.1880
   40MOL0     H 5354   8.373   7.933  -0.654 -0.1439  1.5684  0.8055
   40MOL0     H 5355   8.512   7.858  -0.571  0.6471  0.6881 -0.1602
   40MOL0     H 5356   8.569   8.097  -0.596  1.7299 -0.0295  0.6156
   40MOL0     H 5357   8.556   8.074  -0.434  3.7567 -0.8839 -2.4460
   40MOL0     H 5358   8.314   8.191  -0.588  0.7600  5.0618 -1.0637
   40MOL0     H 5359   8.433   8.285  -0.490  2.2060 -0.8017  0.6894
   40MOL0     H 5360   8.069   8.114  -0.497 -2.3357  1.2899 -1.5661
   40MOL0     H 5361   7.760   8.176  -0.414 -0.2936 -0.0856  0.1056
   40MOL0     H 5362   7.766   8.295  -0.534  1.8066  0.0973 -0.4735
   40MOL0     H 5363   7.860   8.141  -0.546 -0.5266 -1.8213  0.2393
   40MOL0     H 5364   7.726   8.754  -0.335  2.1769  0.6966  0.5343
   40MOL0     H 5365   7.559   8.926  -0.238 -0.1881  2.0792  2.0313
   40MOL0     H 5366   7.542   9.086  -0.012 -0.7367  0.1942  3.7861
   40MOL0     H 5367   7.405   9.054  -0.133 -1.0962  1.9984  0.1607
   40MOL0     H 5368   7.329   9.228   0.034  0.8224  0.8110  2.6863
   40MOL0     H 5369   7.244   9.075   0.054 -1.1223  1.2552  0.4721
   40MOL0     H 5370   7.490   9.151   0.228  2.1655 -4.3805  1.8468
   40MOL0     H 5371   7.404   8.999   0.220 -6.3208 -0.8643  0.8970
   40MOL0     H 5372   7.294   9.272   0.251  0.6909 -0.2827 -0.8713
   40MOL0     H 5373   7.190   9.134   0.279  0.2426  0.1229 -0.2222
   40MOL0     H 5374   7.240   9.240   0.489 -2.3364 -0.1749 -3.1381
   40MOL0     H 5375   7.417   9.213   0.448 -0.3059  1.2112 -1.4798
   40MOL0     H 5376   7.180   9.018   0.495 -0.0772  0.2181  0.6292
   40MOL0     H 5377   7.337   8.969   0.430 -2.9634  1.4618 -3.1485
   40MOL0     H 5378   7.294   9.097   0.709 -0.9271 -1.8744  0.8936
   40MOL0     H 5379   7.454   9.053   0.641  0.7887 -2.3544  0.5743
   40MOL0     H 5380   7.324   8.819   0.621  0.4807  1.6236 -0.8152
   40MOL0     H 5381   7.217   8.878   0.748  0.6064  1.4206  1.2363
   40MOL0     H 5382   7.536   8.672   0.113 -1.9088 -4.0018 -1.7491
   40MOL0     H 5383   7.706   8.538   0.020 -1.9253  1.2091  1.1071
   40MOL0     H 5384   8.085   8.550  -0.254  0.3173  1.4940 -2.0153
   40MOL0     H 5385   8.273   8.412  -0.264 -0.9264  0.7037  0.5233
   40MOL0     H 5386   7.716   6.940   0.185 -0.3183  2.1114  1.6645
   40MOL0     H 5387   7.616   6.870   0.391 -0.1321 -1.1411 -0.1429
   40MOL0     H 5388   7.649   6.432   0.762  0.5147  0.1808  0.2494
   40MOL0     H 5389   7.512   6.400   0.963  1.0784 -0.6285 -2.6360
   40MOL0     H 5390   7.384   6.771   1.164  0.2816  1.6369  1.6486
   40MOL0     H 5391   7.301   6.645   1.258  0.5169 -1.3051 -0.7131
   40MOL0     H 5392   7.589   6.712   1.283 -1.4390 -2.5128 -3.7769
   40MOL0     H 5393   7.502   6.637   1.421  0.5129  1.3887  1.5520
   40MOL0     H 5394   7.444   6.912   1.337 -4.8491 -1.5275  0.5520
   40MOL0     H 5395   7.568   6.868   1.460  0.3834  0.5060 -0.6187
   40MOL0     H 5396   7.399   6.804   1.618 -1.0859  0.3206  1.4656
   40MOL0     H 5397   7.271   6.766   1.508 -0.3136 -0.3010  3.6214
   40MOL0     H 5398   7.269   7.194   1.597  1.5289  0.1578  1.8161
   40MOL0     H 5399   7.572   6.811   1.072  2.5794 -1.7339  2.0485
   40MOL0     H 5400   7.693   6.852   0.857 -4.4884  1.7981 -0.9508
   41MOL0     O 5401   1.280   0.877   8.541 -0.0306  0.1061  0.2753
   41MOL0     C 5402   1.224   0.884   8.431 -0.7435  0.2885  0.1506
   41MOL0     O 5403   1.281   0.849   8.320  0.1891  0.7587  0.1210
   41MOL0     C 5404   1.413   0.850   8.300  0.6709  0.7391  1.2310
   41MOL0     C 5405   1.484   0.965   8.327  0.0584  0.7888  0.2713
   41MOL0     C 5406   1.624   0.973   8.304 -1.0599 -0.4921  1.4439
   41MOL0     C 5407   1.691   0.868   8.238 -0.0601  0.0600  0.9469
   41MOL0     O 5408   1.818   0.853   8.208  0.3916  0.6152  0.0279
   41MOL0     C 5409   1.923   0.942   8.257  0.0529  1.5571  0.1181
   41MOL0     C 5410   2.059   0.912   8.197  1.1955 -0.5476 -0.1894
   41MOL0     C 5411   2.115   0.782   8.254  1.0378  0.0392  0.9628
   41MOL0     C 5412   2.248   0.747   8.179  0.4790 -0.9389  0.4583
   41MOL0     C 5413   2.346   0.634   8.226 -0.3152  1.1374 -0.0893
   41MOL0     C 5414   2.467   0.698   8.293 -0.3067 -0.5434  0.3584
   41MOL0     C 5415   2.582   0.595   8.312  1.0142  0.1801  0.1783
   41MOL0     C 5416   2.721   0.648   8.348  0.6857  0.2021  0.1917
   41MOL0     N 5417   2.728   0.683   8.484 -0.7972  0.5298 -0.4307
   41MOL0     C 5418   2.675   0.793   8.534  0.3080 -0.1039  0.5332
   41MOL0     C 5419   2.703   0.783   8.664 -1.0800  0.7581  0.0045
   41MOL0     C 5420   2.670   0.888   8.782  0.3683  0.0713 -0.7557
   41MOL0     C 5421   2.567   0.817   8.887 -0.0661 -0.2192  0.8054
   41MOL0     C 5422   2.588   0.871   9.030  0.6202 -0.1773 -0.5858
   41MOL0     C 5423   2.527   1.008   9.041  0.0887  1.4004  1.3344
   41MOL0     O 5424   2.385   1.003   9.049  0.2566 -0.3154 -0.1179
   41MOL0     C 5425   2.323   1.126   9.072 -0.9505 -1.1677  0.4642
   41MOL0     C 5426   2.323   1.218   8.969  0.6556  0.2678  0.2319
   41MOL0     C 5427   2.275   1.350   8.978 -0.1929  0.2886 -0.7907
   41MOL0     C 5428   2.269   1.436   8.858  0.0649 -0.1312  0.4267
   41MOL0     C 5429   2.206   1.385   9.103 -0.3525 -0.3374  0.7575
   41MOL0     C 5430   2.152   1.522   9.126  0.4203 -0.4207 -0.5765
   41MOL0     O 5431   2.157   1.615   9.027 -0.1201 -0.1885 -0.2304
   41MOL0     C 5432   2.116   1.743   9.058  1.0598 -0.1388 -0.9670
   41MOL0     C 5433   1.994   1.795   9.014  0.2470  0.5389  0.4364
   41MOL0     C 5434   1.949   1.923   9.043 -0.2951  0.8110  0.3028
   41MOL0     C 5435   2.016   1.999   9.133  0.6403 -0.5696 -0.9943
   41MOL0     O 5436   1.952   2.126   9.157 -0.3283 -0.1682  0.1686
   41MOL0     C 5437   1.921   2.164   9.295 -0.2832  0.4688 -1.6043
   41MOL0     C 5438   1.854   2.300   9.299  0.5055 -0.3876 -0.5749
   41MOL0     C 5439   1.842   2.362   9.440  0.6870 -0.3630  0.3174
   41MOL0     C 5440   1.956   2.464   9.470  0.5720 -0.9467 -0.4817
   41MOL0     C 5441   1.962   2.508   9.614 -0.2127  0.2440 -1.1351
   41MOL0     C 5442   1.821   2.566   9.680  0.8616  0.2690 -0.3939
   41MOL0     C 5443   1.846   2.599   9.825 -0.3174 -0.7445  0.7658
   41MOL0     C 5444   1.729   2.651   9.913 -0.4890  0.1028  0.3064
   41MOL0    Cl 5445   1.596   2.537   9.933 -0.4027  0.7525  0.2521
   41MOL0     C 5446   2.142   1.954   9.185 -0.3356 -0.2620  0.7593
   41MOL0     C 5447   2.193   1.825   9.143 -0.8336 -1.2718 -0.4014
   41MOL0     O 5448   2.117   1.543   9.241  1.5420  0.2153 -0.4947
   41MOL0     C 5449   2.194   1.295   9.203 -0.6508  1.2810 -0.5241
   41MOL0     C 5450   2.249   1.168   9.183 -0.4178  0.2266 -1.3641
   41MOL0     N 5451   2.780   0.667   8.687 -0.3796 -0.7146  0.8335
   41MOL0     N 5452   2.787   0.605   8.582  0.2213 -0.2805  0.1384
   41MOL0     C 5453   1.613   0.756   8.209  0.3207 -0.3906 -0.0467
   41MOL0     C 5454   1.472   0.751   8.225  0.0188 -0.4429  0.0908
   41MOL0     C 5455   1.080   0.930   8.426  0.6606 -0.2386 -0.0693
   41MOL0     C 5456   1.020   0.944   8.295 -0.0831  0.0869 -0.0381
   41MOL0     C 5457   0.896   0.998   8.285  0.3165  0.0394  0.6346
   41MOL0     C 5458   0.835   1.059   8.391  0.3911  0.0160  0.0342
   41MOL0     O 5459   0.711   1.116   8.380 -0.3296  0.5495  0.0870
   41MOL0     C 5460   0.723   1.246   8.321 -0.5299  0.6083 -0.1252
   41MOL0     C 5461   0.588   1.329   8.348  0.4370 -0.5712 -0.0809
   41MOL0     C 5462   0.566   1.347   8.497  0.4185  0.5595  0.2684
   41MOL0     C 5463   0.431   1.401   8.533  0.2398  0.4543 -0.6281
   41MOL0     C 5464   0.426   1.547   8.527 -0.0481  0.8146 -0.3277
   41MOL0     C 5465   0.425   1.670   8.521  0.5245 -0.0048 -0.1280
   41MOL0     C 5466   0.896   1.053   8.516  0.0561 -0.0574  0.0789
   41MOL0     C 5467   1.012   0.978   8.535  0.0996  0.6315 -1.7026
   41MOL0     H 5468   1.431   1.052   8.364  1.6065  2.5368 -1.3846
   41MOL0     H 5469   1.660   1.075   8.308  3.2313 -1.6817 -0.1817
   41MOL0     H 5470   1.899   1.047   8.237 -0.8311  0.9894 -2.2103
   41MOL0     H 5471   1.935   0.934   8.365 -2.7036  0.7120  0.4681
   41MOL0     H 5472   2.051   0.891   8.091  1.1756  0.5490 -0.4198
   41MOL0     H 5473   2.126   0.997   8.214 -0.0004  0.3455  0.2061
   41MOL0     H 5474   2.123   0.768   8.362 -0.2846  2.5396  1.4591
   41MOL0     H 5475   2.039   0.706   8.230  0.8764 -0.4163  2.7843
   41MOL0     H 5476   2.223   0.742   8.073 -1.8804  0.7594  0.8568
   41MOL0     H 5477   2.304   0.840   8.190 -0.8842 -0.1109  0.4902
   41MOL0     H 5478   2.299   0.568   8.300 -0.6448 -0.5707 -1.7580
   41MOL0     H 5479   2.380   0.578   8.139  0.2828  0.5210  0.5227
   41MOL0     H 5480   2.513   0.781   8.239 -0.3165 -1.6427 -1.4368
   41MOL0     H 5481   2.445   0.732   8.394  3.2941 -2.6196  2.0591
   41MOL0     H 5482   2.551   0.521   8.386  0.9155 -1.0393 -1.0271
   41MOL0     H 5483   2.585   0.540   8.217  0.3235  0.3503  0.0483
   41MOL0     H 5484   2.765   0.736   8.300  3.1436  1.0301  3.5297
   41MOL0     H 5485   2.794   0.570   8.324 -0.8879 -0.9180 -1.1708
   41MOL0     H 5486   2.611   0.869   8.491  0.3674  0.0668  0.7461
   41MOL0     H 5487   2.761   0.906   8.839  1.0806 -1.1119 -1.4562
   41MOL0     H 5488   2.637   0.976   8.726  1.3338  0.3945 -0.8272
   41MOL0     H 5489   2.581   0.709   8.898  0.4157 -0.1931  0.4965
   41MOL0     H 5490   2.465   0.845   8.862  1.2922  2.7189 -2.2339
   41MOL0     H 5491   2.690   0.888   9.066 -0.1679  2.1245  0.7227
   41MOL0     H 5492   2.534   0.814   9.106 -0.6389  1.8777  0.1490
   41MOL0     H 5493   2.550   1.068   8.953  1.5571 -0.5266  0.3131
   41MOL0     H 5494   2.569   1.054   9.131  2.7662 -1.9942  2.0653
   41MOL0     H 5495   2.373   1.167   8.887  3.3239 -0.5897  2.2254
   41MOL0     H 5496   2.167   1.469   8.838  0.0292  0.0501  0.8919
   41MOL0     H 5497   2.318   1.532   8.879  3.2866 -1.7266  0.9060
   41MOL0     H 5498   2.308   1.388   8.768  0.1231 -0.1669  0.4706
   41MOL0     H 5499   1.932   1.734   8.950 -0.7227  0.6665  1.2274
   41MOL0     H 5500   1.860   1.970   9.003 -1.2504  0.9803  2.5044
   41MOL0     H 5501   1.851   2.090   9.334  0.4015  1.7270  2.4910
   41MOL0     H 5502   1.999   2.181   9.371 -0.9693  2.4267 -1.2650
   41MOL0     H 5503   1.911   2.362   9.229 -0.8422 -0.8156 -2.1080
   41MOL0     H 5504   1.751   2.289   9.264 -0.2037 -1.3573  1.6538
   41MOL0     H 5505   1.836   2.290   9.522 -1.5958  0.0843  0.6175
   41MOL0     H 5506   1.752   2.424   9.441  1.6142  1.0299  0.2002
   41MOL0     H 5507   2.052   2.418   9.443 -0.5606 -2.4208 -2.2132
   41MOL0     H 5508   1.948   2.552   9.405  0.6996  0.7531  1.7148
   41MOL0     H 5509   2.044   2.579   9.630  0.6029 -1.2352  1.9248
   41MOL0     H 5510   1.999   2.425   9.675 -1.2514 -0.7879 -1.8740
   41MOL0     H 5511   1.800   2.660   9.628  1.4132  1.1204  0.8844
   41MOL0     H 5512   1.731   2.506   9.665 -0.1120  1.4998  0.3291
   41MOL0     H 5513   1.913   2.685   9.826 -1.2908  0.0272  1.1583
   41MOL0     H 5514   1.899   2.513   9.867 -0.9815  0.1787  3.7045
   41MOL0     H 5515   1.688   2.735   9.855 -2.3245 -0.2794  0.9751
   41MOL0     H 5516   1.767   2.699  10.004 -2.9286  0.5449  1.1918
   41MOL0     H 5517   2.212   2.017   9.240  1.4556  1.1679 -2.8298
   41MOL0     H 5518   2.286   1.780   9.177 -1.2619 -0.7576  1.5884
   41MOL0     H 5519   2.147   1.325   9.296 -0.7281  4.8368 -1.5716
   41MOL0     H 5520   2.238   1.096   9.263  1.8205  1.0735 -0.1973
   41MOL0     H 5521   1.659   0.669   8.163 -0.1614 -1.3706  1.2635
   41MOL0     H 5522   1.412   0.673   8.179 -1.0741  2.2206 -3.4413
   41MOL0     H 5523   1.078   0.920   8.206  1.6736  1.7407  0.6024
   41MOL0     H 5524   0.848   1.016   8.189  4.1294  0.7742 -1.3324
   41MOL0     H 5525   0.802   1.296   8.377  0.3168 -1.4844  0.6461
   41MOL0     H 5526   0.762   1.244   8.219  2.8858 -2.4206  1.0483
   41MOL0     H 5527   0.501   1.278   8.306 -0.0420  0.0318  0.1649
   41MOL0     H 5528   0.598   1.427   8.300 -2.9604 -0.2518 -0.3638
   41MOL0     H 5529   0.644   1.407   8.546  0.6932 -0.2523  0.8420
   41MOL0     H 5530   0.577   1.250   8.546  0.2969 -0.7804 -2.2323
   41MOL0     H 5531   0.394   1.383   8.635 -3.2078 -1.6463 -2.0760
   41MOL0     H 5532   0.353   1.349   8.477  1.3046 -0.3207 -1.4244
   41MOL0     H 5533   0.406   1.772   8.497 -1.9402 -0.8529 -2.1274
   41MOL0     H 5534   0.848   1.095   8.603  1.4033 -1.7896  1.7471
   41MOL0     H 5535   1.048   0.981   8.638 -1.3395 -1.0470 -1.1009
   42MOL0     O 5536   5.228   6.530   3.690  0.3954 -0.1943 -0.8263
   42MOL0     C 5537   5.340   6.496   3.648 -0.7028 -0.4006  0.8339
   42MOL0     O 5538   5.396   6.547   3.534 -0.2815  0.3642  0.8007
   42MOL0     C 5539   5.329   6.651   3.479 -0.3969  0.6778  0.2306
   42MOL0     C 5540   5.276   6.629   3.347 -0.2501 -0.1537 -0.6919
   42MOL0     C 5541   5.222   6.736   3.278 -0.6172 -1.0545  0.0884
   42MOL0     C 5542   5.216   6.868   3.333 -0.5467 -0.0980  0.0733
   42MOL0     O 5543   5.163   6.958   3.251  0.2561 -0.7149 -0.3538
   42MOL0     C 5544   5.216   7.090   3.235 -0.7752  0.5241 -0.3788
   42MOL0     C 5545   5.367   7.085   3.204  0.0091 -1.1890 -0.7926
   42MOL0     C 5546   5.422   6.995   3.101  0.1825  0.0746 -0.7778
   42MOL0     C 5547   5.385   7.039   2.966  0.1860  0.6381  0.0902
   42MOL0     C 5548   5.498   7.017   2.874 -0.3082 -0.7908  0.0074
   42MOL0     C 5549   5.632   7.100   2.899 -0.4794  0.8672 -0.3375
   42MOL0     C 5550   5.724   7.096   2.774  0.5692 -0.0979 -0.5129
   42MOL0     C 5551   5.782   7.224   2.721 -0.2053 -0.2125  0.2563
   42MOL0     N 5552   5.854   7.284   2.827  0.8037  0.0055  0.1269
   42MOL0     C 5553   5.982   7.264   2.871  0.0687  0.4974 -0.1308
   42MOL0     C 5554   6.009   7.369   2.951  0.1045 -0.1595 -1.0218
   42MOL0     C 5555   6.150   7.396   3.021 -0.2070  0.1323  0.7015
   42MOL0     C 5556   6.222   7.470   2.906 -0.1055  0.6714  0.9042
   42MOL0     C 5557   6.274   7.377   2.795 -0.0745 -0.0287  0.0166
   42MOL0     C 5558   6.346   7.454   2.686  0.5767 -0.0933  0.5262
   42MOL0     O 5559   6.354   7.367   2.571 -0.1635  0.0863 -0.2984
   42MOL0     C 5560   6.481   7.339   2.519 -0.1846  0.5915 -0.5841
   42MOL0     C 5561   6.600   7.338   2.580  0.2521  0.2285 -1.1065
   42MOL0     C 5562   6.718   7.295   2.511  0.9526 -0.2398  0.0418
   42MOL0     C 5563   6.849   7.285   2.584  1.0474 -1.3237  0.6836
   42MOL0     C 5564   6.704   7.257   2.374  0.8249 -0.3233  0.2000
   42MOL0     C 5565   6.814   7.213   2.284  0.6251  0.3349  0.5851
   42MOL0     O 5566   6.822   7.266   2.159  0.6648 -1.0269 -0.0841
   42MOL0     C 5567   6.813   7.410   2.148 -0.0740  0.2799 -0.9759
   42MOL0     C 5568   6.885   7.496   2.230  0.3443 -1.2339 -0.2483
   42MOL0     C 5569   6.878   7.639   2.213 -1.1441  0.0505  0.5631
   42MOL0     C 5570   6.789   7.699   2.116  0.8659  0.2549 -0.7994
   42MOL0     O 5571   6.769   7.834   2.109 -0.1298  0.9170 -0.0570
   42MOL0     C 5572   6.829   7.914   2.209  0.7542 -0.8032 -1.2475
   42MOL0     C 5573   6.804   8.064   2.180 -0.3889 -0.9173 -0.4976
   42MOL0     C 5574   6.857   8.106   2.038 -0.0622 -0.5520  0.1019
   42MOL0     C 5575   6.848   8.264   2.045 -0.5228  0.7680  0.6628
   42MOL0     C 5576   6.904   8.342   1.923 -0.6949 -0.2389 -0.6021
   42MOL0     C 5577   6.872   8.266   1.796 -0.1503  0.0888  0.4447
   42MOL0     C 5578   6.917   8.338   1.673 -0.1297  0.3644  0.7619
   42MOL0     C 5579   6.850   8.273   1.548  0.4794  0.9031 -0.1407
   42MOL0    Cl 5580   6.881   8.375   1.400 -0.0705  0.8786 -0.1634
   42MOL0     C 5581   6.724   7.610   2.034 -1.1243  0.4340  0.3173
   42MOL0     C 5582   6.743   7.472   2.044  0.9225 -0.0010 -0.4331
   42MOL0     O 5583   6.881   7.119   2.317 -0.4010 -0.7454 -0.3418
   42MOL0     C 5584   6.581   7.257   2.315 -0.1357 -0.1078  0.1594
   42MOL0     C 5585   6.473   7.310   2.387 -0.5752  0.2806  0.0687
   42MOL0     N 5586   5.891   7.444   2.964 -0.0305  0.2731 -0.6655
   42MOL0     N 5587   5.801   7.387   2.895  0.4878 -0.3217  0.7994
   42MOL0     C 5588   5.254   6.877   3.464 -1.5027 -0.9593  1.1298
   42MOL0     C 5589   5.312   6.772   3.541 -0.0246  0.3799  0.3200
   42MOL0     C 5590   5.411   6.385   3.711  0.2440 -0.1847  0.0246
   42MOL0     C 5591   5.338   6.297   3.789  0.1314  0.2478  0.1169
   42MOL0     C 5592   5.383   6.174   3.838  0.1328  0.2856  0.3516
   42MOL0     C 5593   5.515   6.141   3.809  0.0326  0.0236 -0.5036
   42MOL0     O 5594   5.579   6.044   3.883  0.1662 -0.2818  0.3365
   42MOL0     C 5595   5.526   5.909   3.861 -0.3480  0.5356  0.8978
   42MOL0     C 5596   5.459   5.864   3.992  0.1087 -1.0369  0.0356
   42MOL0     C 5597   5.561   5.790   4.079 -0.2201 -0.4912 -0.1610
   42MOL0     C 5598   5.506   5.765   4.216  0.3336  0.6394 -1.0109
   42MOL0     C 5599   5.623   5.700   4.289  0.1514  1.3695 -0.3478
   42MOL0     C 5600   5.725   5.668   4.344 -0.7076  0.7729  0.4493
   42MOL0     C 5601   5.595   6.234   3.730  0.7996  0.8449  0.1209
   42MOL0     C 5602   5.543   6.347   3.678  0.3487 -0.0615 -0.2950
   42MOL0     H 5603   5.282   6.528   3.308  1.7556 -0.9726  1.5027
   42MOL0     H 5604   5.201   6.714   3.174 -0.2271 -0.8353 -0.0375
   42MOL0     H 5605   5.160   7.129   3.150  0.4650 -0.2415 -1.5734
   42MOL0     H 5606   5.192   7.149   3.324 -1.1123  0.6585 -0.5569
   42MOL0     H 5607   5.407   7.186   3.197 -0.0690 -1.2508 -2.6208
   42MOL0     H 5608   5.415   7.040   3.291  2.1133 -0.7887 -1.6839
   42MOL0     H 5609   5.529   6.971   3.108 -0.0924 -1.0365 -0.0289
   42MOL0     H 5610   5.380   6.894   3.111  2.2339 -0.6752  1.1191
   42MOL0     H 5611   5.289   6.998   2.933 -0.7750  4.1482 -2.0763
   42MOL0     H 5612   5.357   7.145   2.963  0.4934  0.8809  3.2675
   42MOL0     H 5613   5.538   6.915   2.877  3.2073  0.4909  0.4906
   42MOL0     H 5614   5.453   7.035   2.776  0.9363  0.6054 -0.3461
   42MOL0     H 5615   5.598   7.204   2.899 -0.6416  0.8450 -2.2564
   42MOL0     H 5616   5.682   7.071   2.992 -0.4211  1.4991 -0.1703
   42MOL0     H 5617   5.808   7.028   2.793  0.4526 -0.0276  0.2856
   42MOL0     H 5618   5.666   7.052   2.693  2.0376  1.1557 -2.3230
   42MOL0     H 5619   5.699   7.289   2.690 -2.0159 -1.4324  2.2371
   42MOL0     H 5620   5.849   7.200   2.638  0.9167  2.3057  0.3649
   42MOL0     H 5621   6.046   7.185   2.834 -0.6741 -0.0635 -0.2603
   42MOL0     H 5622   6.135   7.471   3.099  1.3374  1.9416 -0.6425
   42MOL0     H 5623   6.207   7.305   3.047  0.9105  0.6035 -0.0412
   42MOL0     H 5624   6.304   7.524   2.955 -1.0046  2.8206  0.1768
   42MOL0     H 5625   6.153   7.548   2.873 -2.6407 -1.8669 -0.1757
   42MOL0     H 5626   6.182   7.342   2.746  0.2607 -0.4831 -0.2953
   42MOL0     H 5627   6.324   7.287   2.831 -1.3391  0.2932  2.8071
   42MOL0     H 5628   6.439   7.490   2.731 -0.6085 -0.3503  3.4222
   42MOL0     H 5629   6.291   7.544   2.657  2.1843  2.2957  4.1274
   42MOL0     H 5630   6.604   7.347   2.688  0.9007  1.5771 -1.2185
   42MOL0     H 5631   6.932   7.337   2.535  1.9653 -2.9038  0.5032
   42MOL0     H 5632   6.864   7.337   2.680  3.4493 -1.7378  0.5976
   42MOL0     H 5633   6.871   7.178   2.590 -0.9301 -1.8243 -0.4015
   42MOL0     H 5634   6.961   7.453   2.294  1.1837  0.8566  0.2529
   42MOL0     H 5635   6.954   7.685   2.277 -1.1532  0.8711 -0.0015
   42MOL0     H 5636   6.772   7.906   2.302  2.2080 -0.5324 -0.2918
   42MOL0     H 5637   6.935   7.902   2.232  1.0448 -0.4133 -2.3308
   42MOL0     H 5638   6.695   8.078   2.173 -0.8472 -2.8350  1.5462
   42MOL0     H 5639   6.844   8.117   2.266 -1.6049  0.0823 -0.5176
   42MOL0     H 5640   6.809   8.052   1.956  1.5220 -2.5970  0.4510
   42MOL0     H 5641   6.962   8.077   2.034  0.1905  0.4431 -1.6950
   42MOL0     H 5642   6.743   8.294   2.038  0.0820  2.5665 -2.3291
   42MOL0     H 5643   6.894   8.300   2.138  1.8501 -0.1678 -0.0795
   42MOL0     H 5644   7.009   8.367   1.942 -1.5639  3.4681  0.1932
   42MOL0     H 5645   6.859   8.439   1.903  1.0601  0.4181 -1.5842
   42MOL0     H 5646   6.924   8.170   1.791 -0.8204 -0.2560  0.0537
   42MOL0     H 5647   6.765   8.245   1.800  0.5171 -4.1197  0.3007
   42MOL0     H 5648   7.023   8.311   1.663 -0.7609 -2.8534  1.6249
   42MOL0     H 5649   6.916   8.447   1.687  2.5581  0.6843 -0.7754
   42MOL0     H 5650   6.745   8.253   1.572  0.5275 -0.6358 -1.0707
   42MOL0     H 5651   6.885   8.172   1.525 -0.3966  0.9591 -1.9783
   42MOL0     H 5652   6.658   7.654   1.960 -2.8085 -0.1824  1.3943
   42MOL0     H 5653   6.697   7.412   1.967  0.6027 -1.2137  0.6756
   42MOL0     H 5654   6.560   7.234   2.210 -2.7339  0.2028  0.5468
   42MOL0     H 5655   6.378   7.315   2.335 -2.0770  3.0070  2.7877
   42MOL0     H 5656   5.246   6.966   3.525  3.8856 -0.0607  0.9689
   42MOL0     H 5657   5.334   6.789   3.646 -1.8172  1.8839  0.5097
   42MOL0     H 5658   5.233   6.308   3.815  0.8106  1.5304  2.7227
   42MOL0     H 5659   5.326   6.117   3.910  2.4616 -2.0161  0.5488
   42MOL0     H 5660   5.453   5.900   3.780 -1.4435 -0.5442  1.9526
   42MOL0     H 5661   5.609   5.845   3.830  1.5054  2.2660  2.0381
   42MOL0     H 5662   5.380   5.792   3.968 -0.4323 -0.4020 -0.1047
   42MOL0     H 5663   5.418   5.954   4.039  3.1452 -0.3118  1.5771
   42MOL0     H 5664   5.650   5.852   4.091 -1.5962  1.8297 -1.0781
   42MOL0     H 5665   5.578   5.696   4.026 -3.1934  0.5484 -3.3440
   42MOL0     H 5666   5.430   5.687   4.226  2.4157 -1.5894 -1.5509
   42MOL0     H 5667   5.466   5.847   4.275  0.7574 -0.9546  1.6463
   42MOL0     H 5668   5.812   5.636   4.398  0.6195  3.8585  0.3355
   42MOL0     H 5669   5.701   6.219   3.713  1.2997 -0.9666  3.7473
   42MOL0     H 5670   5.597   6.404   3.604  3.0629 -1.1277  0.7067
   43MOL0     O 5671  10.657   3.244   1.985 -0.1914 -0.2226 -0.2987
   43MOL0     C 5672  10.758   3.309   1.969  0.3434 -0.0675  0.0483
   43MOL0     O 5673  10.886   3.257   1.951 -0.4315  0.6241 -0.3912
   43MOL0     C 5674  10.921   3.138   1.895 -0.4956  1.8724 -0.7341
   43MOL0     C 5675  10.844   3.055   1.814  0.5906 -0.0393  0.2022
   43MOL0     C 5676  10.878   2.934   1.759 -0.3852  0.3350 -0.4125
   43MOL0     C 5677  11.005   2.881   1.792 -0.2501 -0.2723 -1.3028
   43MOL0     O 5678  11.066   2.772   1.738  0.0173  0.3391 -0.0470
   43MOL0     C 5679  10.984   2.663   1.685 -0.5399 -0.1013  0.7077
   43MOL0     C 5680  11.004   2.652   1.534 -0.3340  0.7015 -0.1798
   43MOL0     C 5681  10.916   2.531   1.476 -0.3973 -0.2227 -0.8625
   43MOL0     C 5682  10.901   2.544   1.331 -0.1038  0.2555 -0.7600
   43MOL0     C 5683  10.808   2.434   1.261  0.5181  0.2238  0.0044
   43MOL0     C 5684  10.769   2.504   1.133 -0.4266  0.3976  0.0400
   43MOL0     C 5685  10.668   2.433   1.046  0.2943  0.6918  0.5406
   43MOL0     C 5686  10.701   2.290   1.008  0.2376  0.0855  0.4554
   43MOL0     N 5687  10.574   2.220   0.990 -0.8366  0.7635 -0.5592
   43MOL0     C 5688  10.511   2.195   0.868 -0.6508  0.0504 -0.8315
   43MOL0     C 5689  10.391   2.150   0.907 -0.2800 -0.4364  0.6348
   43MOL0     C 5690  10.271   2.121   0.807 -0.8122 -0.3289 -0.3252
   43MOL0     C 5691  10.195   2.251   0.771 -0.1927 -0.4746 -0.3273
   43MOL0     C 5692  10.086   2.227   0.660  0.8124  0.8942  0.7998
   43MOL0     C 5693   9.960   2.173   0.734  1.1081 -0.3538  0.4607
   43MOL0     O 5694   9.854   2.177   0.634 -0.4070  0.0827  0.3026
   43MOL0     C 5695   9.739   2.130   0.694  0.7096 -0.6499  0.0869
   43MOL0     C 5696   9.693   2.153   0.824  0.7154 -0.4996  0.1227
   43MOL0     C 5697   9.581   2.083   0.872  0.2053 -0.3283 -0.1679
   43MOL0     C 5698   9.550   2.111   1.023  0.7999  0.5691  0.2778
   43MOL0     C 5699   9.512   1.992   0.782 -0.8666  0.5403 -0.1052
   43MOL0     C 5700   9.401   1.915   0.821 -0.2609  0.7915  0.0104
   43MOL0     O 5701   9.392   1.777   0.777 -0.2762 -0.7064  0.0072
   43MOL0     C 5702   9.274   1.712   0.787  0.1828 -0.2549 -0.4813
   43MOL0     C 5703   9.170   1.742   0.701 -0.2177  0.3250  0.0422
   43MOL0     C 5704   9.059   1.660   0.692 -0.2904 -0.2059 -0.8665
   43MOL0     C 5705   9.041   1.548   0.771  0.4073 -0.3304  0.5458
   43MOL0     O 5706   8.920   1.484   0.749  0.3271 -0.0361  0.7713
   43MOL0     C 5707   8.917   1.339   0.726  0.9223  0.2729 -0.6838
   43MOL0     C 5708   8.770   1.286   0.725  0.0502 -1.1073  0.1227
   43MOL0     C 5709   8.699   1.347   0.602 -1.1430  0.8410  0.0580
   43MOL0     C 5710   8.561   1.294   0.611 -0.2114  0.0379 -0.2202
   43MOL0     C 5711   8.462   1.339   0.502  0.4010  0.2836  0.0247
   43MOL0     C 5712   8.469   1.257   0.378 -0.0440  0.0526  0.4101
   43MOL0     C 5713   8.354   1.288   0.275  0.4141  0.7695  0.4614
   43MOL0     C 5714   8.388   1.416   0.196 -0.2307 -0.3508 -0.7562
   43MOL0    Cl 5715   8.295   1.382   0.058 -0.3644  0.0978 -0.4452
   43MOL0     C 5716   9.147   1.514   0.854  1.0040 -0.3728 -0.5135
   43MOL0     C 5717   9.267   1.592   0.862  0.7561  0.1013 -0.2168
   43MOL0     O 5718   9.316   1.971   0.877 -0.0203 -0.2829  0.1948
   43MOL0     C 5719   9.560   1.976   0.648  0.2192  0.1089  0.1267
   43MOL0     C 5720   9.668   2.050   0.601  0.7446  0.5687 -0.6717
   43MOL0     N 5721  10.384   2.150   1.045  0.1665 -0.2577 -0.4895
   43MOL0     N 5722  10.493   2.198   1.093  1.0994  0.1558  0.8815
   43MOL0     C 5723  11.087   2.960   1.873  0.8357 -0.5580 -0.0135
   43MOL0     C 5724  11.050   3.078   1.928  0.6398  0.2620  0.1889
   43MOL0     C 5725  10.742   3.458   1.966 -0.0940  0.3054 -0.2216
   43MOL0     C 5726  10.611   3.522   1.951 -0.1064 -0.2304  0.1565
   43MOL0     C 5727  10.601   3.661   1.968  0.1469  0.0500 -0.5149
   43MOL0     C 5728  10.714   3.740   1.987  0.0546  0.1951  0.3299
   43MOL0     O 5729  10.713   3.866   2.024 -0.0614 -0.5533 -0.4460
   43MOL0     C 5730  10.599   3.948   2.001 -0.0052  0.3279 -0.4460
   43MOL0     C 5731  10.634   4.094   2.018 -0.9218 -0.0044  0.1448
   43MOL0     C 5732  10.539   4.188   1.946 -0.2172  0.6658  0.7179
   43MOL0     C 5733  10.404   4.226   2.006  0.2996  0.1676  0.8685
   43MOL0     C 5734  10.417   4.322   2.118  0.4778  0.2365 -1.0452
   43MOL0     C 5735  10.423   4.399   2.212 -0.5271  0.4708  0.2999
   43MOL0     C 5736  10.838   3.677   2.003  0.5778 -1.1766 -0.5634
   43MOL0     C 5737  10.854   3.541   1.997  0.5120 -0.2892 -0.5658
   43MOL0     H 5738  10.749   3.103   1.793  1.2863  0.9776 -0.7207
   43MOL0     H 5739  10.814   2.884   1.686 -3.9372  2.5610  0.8792
   43MOL0     H 5740  11.042   2.578   1.722  4.4171  1.3154 -2.8045
   43MOL0     H 5741  10.883   2.666   1.728  0.7585  0.1143  4.1056
   43MOL0     H 5742  10.960   2.745   1.498 -1.3700  0.1017 -0.4881
   43MOL0     H 5743  11.112   2.658   1.514 -0.4451 -1.3410 -1.7385
   43MOL0     H 5744  10.956   2.437   1.514 -2.2067  0.0495  2.1062
   43MOL0     H 5745  10.817   2.547   1.520  0.2044  1.6878 -0.0736
   43MOL0     H 5746  10.872   2.649   1.324  0.1478  0.3510 -0.4162
   43MOL0     H 5747  11.005   2.529   1.301  1.0519  1.5000  2.2422
   43MOL0     H 5748  10.866   2.342   1.245  0.2137  0.3849 -2.5443
   43MOL0     H 5749  10.716   2.404   1.312  0.3332  1.7339  0.6047
   43MOL0     H 5750  10.731   2.602   1.164 -0.3389  1.5221 -3.0172
   43MOL0     H 5751  10.862   2.519   1.078 -1.2363 -1.2377 -1.9167
   43MOL0     H 5752  10.575   2.439   1.102  1.2448  1.5740  2.0973
   43MOL0     H 5753  10.650   2.477   0.947  0.3953  0.3212  0.3541
   43MOL0     H 5754  10.754   2.234   1.086 -0.4016 -2.0942 -0.5959
   43MOL0     H 5755  10.761   2.294   0.917  0.5663 -0.1555  0.6595
   43MOL0     H 5756  10.559   2.205   0.772 -2.2765  0.0086 -1.6887
   43MOL0     H 5757  10.296   2.085   0.706 -0.9016  2.0588 -1.2811
   43MOL0     H 5758  10.213   2.050   0.865  2.5549 -1.3765  2.0693
   43MOL0     H 5759  10.263   2.322   0.722  0.6551 -2.3847 -2.0909
   43MOL0     H 5760  10.142   2.304   0.850 -2.4296  1.3005 -2.8232
   43MOL0     H 5761  10.119   2.156   0.583  1.2030  1.4725  0.4222
   43MOL0     H 5762  10.057   2.314   0.601 -0.8111 -2.0852 -3.3347
   43MOL0     H 5763   9.936   2.252   0.805  0.7914 -1.3985  1.5559
   43MOL0     H 5764   9.955   2.074   0.780 -2.1419 -0.5812 -0.1262
   43MOL0     H 5765   9.727   2.223   0.899 -3.6170  1.0150  0.9311
   43MOL0     H 5766   9.628   2.136   1.096  1.1866 -1.4469  0.6143
   43MOL0     H 5767   9.467   2.180   1.038  0.0796 -0.4328  1.0203
   43MOL0     H 5768   9.507   2.016   1.055  2.2060 -0.2713 -0.2146
   43MOL0     H 5769   9.189   1.834   0.646 -1.9634 -0.6902 -2.3866
   43MOL0     H 5770   8.983   1.677   0.616 -2.0143 -0.3721  0.7702
   43MOL0     H 5771   8.955   1.340   0.623  2.8535  2.7590 -0.0387
   43MOL0     H 5772   8.984   1.283   0.792  2.0411  1.9780 -0.3184
   43MOL0     H 5773   8.755   1.178   0.718 -3.3932 -0.8250  1.4416
   43MOL0     H 5774   8.722   1.311   0.820  1.1210 -3.7171  1.4430
   43MOL0     H 5775   8.760   1.317   0.516 -1.2656 -0.1593  0.3005
   43MOL0     H 5776   8.712   1.455   0.609  0.3594  0.5581  3.3665
   43MOL0     H 5777   8.571   1.187   0.590 -2.9923 -0.3919  0.1750
   43MOL0     H 5778   8.515   1.308   0.709  2.2659 -4.3306  1.8334
   43MOL0     H 5779   8.471   1.446   0.484 -0.7229  0.5315  0.8336
   43MOL0     H 5780   8.361   1.319   0.541  0.6341  2.2973  1.8927
   43MOL0     H 5781   8.565   1.267   0.328  1.4715  1.1325  3.2988
   43MOL0     H 5782   8.473   1.149   0.398  1.0649 -0.7249 -3.2529
   43MOL0     H 5783   8.260   1.278   0.331  1.2791 -3.2945  1.5115
   43MOL0     H 5784   8.351   1.203   0.206  1.4961  0.0409  1.2747
   43MOL0     H 5785   8.495   1.432   0.181 -0.2196  1.1553  0.6852
   43MOL0     H 5786   8.355   1.502   0.256  0.2919 -1.9854  2.0556
   43MOL0     H 5787   9.153   1.425   0.916  4.1618 -0.4894 -0.7752
   43MOL0     H 5788   9.346   1.556   0.928  0.3522  2.0241  1.3874
   43MOL0     H 5789   9.502   1.905   0.589 -4.7505  1.0999  3.2030
   43MOL0     H 5790   9.702   2.041   0.498 -0.4213  0.4980 -1.0778
   43MOL0     H 5791  11.190   2.925   1.881  0.6654 -1.4360 -1.3478
   43MOL0     H 5792  11.113   3.135   1.995 -2.0215 -0.1277  3.2562
   43MOL0     H 5793  10.524   3.459   1.933 -2.1576  1.9581  1.9186
   43MOL0     H 5794  10.502   3.703   1.977 -0.0981  0.2204 -3.2948
   43MOL0     H 5795  10.550   3.929   1.906 -0.1904  0.7078 -0.4259
   43MOL0     H 5796  10.529   3.917   2.079  0.1857  3.4291  1.0914
   43MOL0     H 5797  10.729   4.102   1.963 -1.5176  0.4646 -0.8481
   43MOL0     H 5798  10.643   4.114   2.125 -3.0998 -2.8641  0.9799
   43MOL0     H 5799  10.518   4.151   1.845 -3.4817 -0.9828  1.8440
   43MOL0     H 5800  10.598   4.279   1.932 -2.6494  2.2579  0.1797
   43MOL0     H 5801  10.362   4.131   2.038 -0.3649  0.6876  1.5852
   43MOL0     H 5802  10.338   4.260   1.927  1.1576  1.0827  0.5195
   43MOL0     H 5803  10.459   4.460   2.293 -0.0029 -0.9348  1.1615
   43MOL0     H 5804  10.922   3.742   2.026 -0.1111  1.0691 -3.7320
   43MOL0     H 5805  10.948   3.491   2.018  0.3083 -1.1158 -1.5156
   44MOL0     O 5806   2.107   9.410   7.339  0.0094 -0.4534  0.7861
   44MOL0     C 5807   2.115   9.434   7.218 -0.0372 -0.8007  0.4656
   44MOL0     O 5808   2.063   9.352   7.112 -0.6763 -0.9210 -0.4333
   44MOL0     C 5809   1.983   9.249   7.143 -0.2110  0.4880  0.1544
   44MOL0     C 5810   1.842   9.267   7.172  0.5404  0.0413 -0.3360
   44MOL0     C 5811   1.751   9.153   7.166  0.1813 -0.7123  0.4322
   44MOL0     C 5812   1.797   9.030   7.138  0.1351 -0.8559  0.3424
   44MOL0     O 5813   1.713   8.921   7.132  0.2576 -0.5447  0.0842
   44MOL0     C 5814   1.742   8.802   7.215  0.1068 -0.6673  0.4096
   44MOL0     C 5815   1.741   8.815   7.362  1.4240 -0.1964 -0.7997
   44MOL0     C 5816   1.870   8.860   7.435  0.8476  1.0503  0.7908
   44MOL0     C 5817   1.824   8.941   7.559  0.5189  0.3560 -0.3655
   44MOL0     C 5818   1.935   8.973   7.658  0.2655  0.1273 -0.1403
   44MOL0     C 5819   2.050   9.053   7.584  0.6633  0.7309  0.6800
   44MOL0     C 5820   2.166   9.112   7.673  0.0126  0.0543 -0.5185
   44MOL0     C 5821   2.102   9.200   7.796  0.8992 -0.6726 -0.5426
   44MOL0     N 5822   2.018   9.322   7.762 -0.3265 -0.4189  0.0953
   44MOL0     C 5823   2.001   9.384   7.648  0.3254 -0.4139 -0.6931
   44MOL0     C 5824   1.912   9.487   7.657  0.2560  0.0763  0.1758
   44MOL0     C 5825   1.867   9.606   7.558  0.4423  0.2598 -0.7393
   44MOL0     C 5826   1.761   9.541   7.461  0.3072 -0.4078 -1.0762
   44MOL0     C 5827   1.620   9.522   7.515  0.5532  0.0809 -0.7110
   44MOL0     C 5828   1.575   9.637   7.605  0.0384  0.1161 -0.4133
   44MOL0     O 5829   1.439   9.648   7.627  0.3024  0.2954 -0.2405
   44MOL0     C 5830   1.395   9.765   7.678 -0.9230 -0.5890  0.6306
   44MOL0     C 5831   1.470   9.860   7.751 -0.3092 -0.4165  1.1959
   44MOL0     C 5832   1.417   9.985   7.810  0.4781 -0.3781 -0.1145
   44MOL0     C 5833   1.514  10.070   7.882 -1.0672  0.1189  0.0284
   44MOL0     C 5834   1.286  10.022   7.765 -0.2416 -1.2173  0.2700
   44MOL0     C 5835   1.224  10.151   7.788 -1.1430  0.0819 -0.4239
   44MOL0     O 5836   1.089  10.168   7.804  0.4777  0.5331  0.0348
   44MOL0     C 5837   1.033  10.292   7.811  0.0711  0.7843 -0.3685
   44MOL0     C 5838   1.030  10.369   7.692 -0.0043  0.5104 -0.2481
   44MOL0     C 5839   0.974  10.490   7.700  0.2261 -0.1069  0.3154
   44MOL0     C 5840   0.909  10.548   7.800  0.4491 -0.0466 -0.1732
   44MOL0     O 5841   0.863  10.672   7.808 -0.0515 -0.2892  1.5632
   44MOL0     C 5842   0.754  10.697   7.714 -1.1697 -0.0630 -0.3213
   44MOL0     C 5843   0.719  10.844   7.674 -0.3199 -0.3971  0.2949
   44MOL0     C 5844   0.835  10.937   7.638 -0.1600 -0.3482  0.1876
   44MOL0     C 5845   0.910  10.905   7.502  0.7060  0.2185  0.1758
   44MOL0     C 5846   1.042  10.981   7.484  0.1359 -0.8853 -0.1048
   44MOL0     C 5847   1.165  10.883   7.484  0.6868  0.1944  0.5735
   44MOL0     C 5848   1.163  10.786   7.366  0.6321 -0.9918  0.1150
   44MOL0     C 5849   1.236  10.844   7.253 -0.2261  0.1523 -0.0713
   44MOL0    Cl 5850   1.181  10.780   7.099 -0.1901  0.1457 -0.0734
   44MOL0     C 5851   0.891  10.464   7.913  0.2687  0.3161  0.0612
   44MOL0     C 5852   0.972  10.343   7.921  0.5575 -0.6256 -0.6889
   44MOL0     O 5853   1.312  10.243   7.771 -0.2332 -0.0107 -1.0857
   44MOL0     C 5854   1.206   9.928   7.699  0.1314  0.1410  0.1927
   44MOL0     C 5855   1.257   9.810   7.657 -0.0516 -0.3609 -0.5392
   44MOL0     N 5856   1.875   9.477   7.788  0.3954  0.3037  0.4951
   44MOL0     N 5857   1.937   9.384   7.850 -0.8546 -0.5175  0.3822
   44MOL0     C 5858   1.936   9.011   7.115  0.7364 -0.2884 -0.3887
   44MOL0     C 5859   2.033   9.115   7.122  0.3380 -0.3430  0.9419
   44MOL0     C 5860   2.175   9.568   7.174 -0.7115 -0.1799 -0.8910
   44MOL0     C 5861   2.212   9.598   7.044  0.2374  1.0740  0.4432
   44MOL0     C 5862   2.269   9.712   6.996  0.6759 -0.1285  0.2837
   44MOL0     C 5863   2.272   9.818   7.085  0.1601  0.0111  0.4817
   44MOL0     O 5864   2.312   9.945   7.049 -0.0596  0.0211  0.5115
   44MOL0     C 5865   2.332   9.970   6.900  0.1423 -1.1001  0.2952
   44MOL0     C 5866   2.339  10.124   6.876 -1.1334 -0.3133  0.3761
   44MOL0     C 5867   2.205  10.180   6.843  0.3536 -0.8630 -0.6354
   44MOL0     C 5868   2.144  10.138   6.710 -0.2058 -0.2793 -0.2020
   44MOL0     C 5869   2.001  10.162   6.682  0.4341 -0.2005  0.2114
   44MOL0     C 5870   1.877  10.183   6.682  0.7592  0.2305 -0.0085
   44MOL0     C 5871   2.240   9.798   7.222  0.1184 -0.7515  0.8089
   44MOL0     C 5872   2.197   9.676   7.269 -0.5698 -0.0729 -0.4616
   44MOL0     H 5873   1.794   9.361   7.196 -0.4426 -0.7921  1.1225
   44MOL0     H 5874   1.648   9.168   7.196 -0.0501 -0.8183 -0.2847
   44MOL0     H 5875   1.676   8.721   7.184  2.2495 -1.5110 -2.3065
   44MOL0     H 5876   1.841   8.767   7.185  2.8341  4.6834  1.8124
   44MOL0     H 5877   1.665   8.886   7.394  0.3823 -1.5643 -0.1680
   44MOL0     H 5878   1.715   8.715   7.399  1.5091 -0.4072 -1.2962
   44MOL0     H 5879   1.925   8.778   7.483  0.3268  1.2210  1.6822
   44MOL0     H 5880   1.928   8.922   7.366  2.1624  1.5145  2.2450
   44MOL0     H 5881   1.784   9.032   7.514 -3.8614 -0.9316  0.4888
   44MOL0     H 5882   1.740   8.884   7.601 -0.0675  0.0480 -1.8697
   44MOL0     H 5883   1.894   9.037   7.737  0.1170 -2.1380  1.7065
   44MOL0     H 5884   1.975   8.885   7.708  1.8851  2.1964  2.4293
   44MOL0     H 5885   2.091   8.996   7.500 -0.8911  2.2018 -1.1664
   44MOL0     H 5886   2.001   9.136   7.531 -1.6282 -0.7446  0.3402
   44MOL0     H 5887   2.236   9.040   7.716  0.4516  0.6337 -0.2357
   44MOL0     H 5888   2.236   9.164   7.607  1.1118  1.1388  1.3959
   44MOL0     H 5889   2.178   9.242   7.862 -1.5244  4.0510 -0.3395
   44MOL0     H 5890   2.039   9.130   7.851  1.9517  0.2160  1.9241
   44MOL0     H 5891   2.069   9.358   7.568  2.7783  2.3602  0.3315
   44MOL0     H 5892   1.829   9.691   7.616 -0.3819  0.2644 -1.2681
   44MOL0     H 5893   1.949   9.660   7.510 -0.2595  0.4625 -1.7401
   44MOL0     H 5894   1.801   9.445   7.425  1.8028  0.3909 -1.6142
   44MOL0     H 5895   1.753   9.607   7.374 -1.4565  3.2015  1.5617
   44MOL0     H 5896   1.598   9.421   7.551 -2.2395  1.3416  1.4652
   44MOL0     H 5897   1.549   9.534   7.433 -1.2713 -0.0893  0.7829
   44MOL0     H 5898   1.598   9.732   7.557  1.2025  1.3742  2.4547
   44MOL0     H 5899   1.630   9.655   7.697 -1.4383  0.2034  0.4807
   44MOL0     H 5900   1.574   9.835   7.771 -0.3219 -1.7949 -0.3201
   44MOL0     H 5901   1.473  10.129   7.964 -0.0601  0.8991 -0.0082
   44MOL0     H 5902   1.591  10.006   7.927  1.1405  1.6536 -1.3481
   44MOL0     H 5903   1.561  10.144   7.817 -1.7783 -1.6631 -2.6612
   44MOL0     H 5904   1.086  10.338   7.604 -0.7137 -3.3134  0.4716
   44MOL0     H 5905   0.979  10.559   7.616 -1.7822  2.9718  2.5190
   44MOL0     H 5906   0.778  10.658   7.615 -1.1864 -1.0825  0.0566
   44MOL0     H 5907   0.666  10.643   7.752  1.3420 -3.1467  1.6453
   44MOL0     H 5908   0.635  10.849   7.604 -0.3363  0.4403  0.3722
   44MOL0     H 5909   0.684  10.889   7.767 -0.1312  1.0537 -0.3228
   44MOL0     H 5910   0.896  10.945   7.729  0.3337 -4.1461  0.3602
   44MOL0     H 5911   0.807  11.042   7.628  1.2997 -0.0644 -1.3463
   44MOL0     H 5912   0.925  10.797   7.511  0.3465  0.0904 -0.7013
   44MOL0     H 5913   0.842  10.928   7.420 -0.0496  0.8948  0.9716
   44MOL0     H 5914   1.054  11.055   7.563  1.4068  1.3835 -2.2972
   44MOL0     H 5915   1.038  11.050   7.399  1.7190  0.0954  0.5796
   44MOL0     H 5916   1.257  10.943   7.486  0.2162  1.1329 -2.1934
   44MOL0     H 5917   1.168  10.817   7.571 -1.1832  0.5463  0.9475
   44MOL0     H 5918   1.057  10.782   7.338  0.4825  0.1719  0.4558
   44MOL0     H 5919   1.204  10.687   7.388  7.1495  0.8483 -1.6241
   44MOL0     H 5920   1.345  10.840   7.249 -0.1639 -0.5507  1.5684
   44MOL0     H 5921   1.203  10.948   7.250 -3.1633 -0.6872 -1.9313
   44MOL0     H 5922   0.842  10.507   8.000  1.3233  0.6132  0.5222
   44MOL0     H 5923   0.972  10.284   8.012 -2.3712 -4.4013 -2.8522
   44MOL0     H 5924   1.107   9.956   7.667 -0.3527 -0.7452  0.8613
   44MOL0     H 5925   1.207   9.731   7.602 -3.0807  0.0453  1.3906
   44MOL0     H 5926   1.976   8.916   7.081 -0.0083 -0.8036  0.1482
   44MOL0     H 5927   2.136   9.085   7.103  0.5044  0.9436 -0.3866
   44MOL0     H 5928   2.214   9.509   6.983 -1.8690  2.4752 -1.8469
   44MOL0     H 5929   2.293   9.709   6.891  0.0083  1.4493  0.0685
   44MOL0     H 5930   2.415   9.917   6.854 -1.2715 -1.5371 -1.9178
   44MOL0     H 5931   2.251   9.930   6.838  0.2227  1.5318 -1.7084
   44MOL0     H 5932   2.403  10.151   6.791 -0.2901  1.6212  1.5674
   44MOL0     H 5933   2.383  10.178   6.960 -1.1620  2.7746 -1.4160
   44MOL0     H 5934   2.225  10.287   6.843  2.0315 -1.1313  0.9039
   44MOL0     H 5935   2.125  10.150   6.911  1.0904 -2.0939 -0.2685
   44MOL0     H 5936   2.151  10.030   6.696  1.2626 -0.1711 -0.3972
   44MOL0     H 5937   2.206  10.170   6.626 -0.4083 -0.8483 -0.5732
   44MOL0     H 5938   1.772  10.206   6.682  0.9133  0.9845 -0.2816
   44MOL0     H 5939   2.271   9.872   7.295  4.6409 -0.6900 -0.8333
   44MOL0     H 5940   2.175   9.662   7.375 -0.3187  0.3698 -0.3501
   45MOL0     O 5941   5.533   2.220   6.712 -0.2718 -0.3404 -0.0320
   45MOL0     C 5942   5.478   2.305   6.784  0.9845  0.1321 -0.5527
   45MOL0     O 5943   5.466   2.441   6.767  0.1278 -0.3857  0.2682
   45MOL0     C 5944   5.539   2.508   6.669 -0.6131 -0.5965 -0.6523
   45MOL0     C 5945   5.557   2.645   6.697  0.6119  1.1433 -0.7188
   45MOL0     C 5946   5.640   2.723   6.613  0.1800  0.0512 -0.1389
   45MOL0     C 5947   5.670   2.679   6.480 -1.3610 -0.2511 -0.1717
   45MOL0     O 5948   5.719   2.757   6.368  0.0812 -0.1507 -0.0941
   45MOL0     C 5949   5.764   2.896   6.379 -0.0376  0.1513 -0.3562
   45MOL0     C 5950   5.654   3.005   6.368  0.6965  0.0847  0.4294
   45MOL0     C 5951   5.701   3.147   6.415  0.0532 -0.2623 -0.4916
   45MOL0     C 5952   5.744   3.236   6.293 -0.0995 -0.1570 -0.1806
   45MOL0     C 5953   5.812   3.362   6.338  0.4178 -0.4322  0.2480
   45MOL0     C 5954   5.784   3.482   6.248  0.8179  0.2912 -1.1734
   45MOL0     C 5955   5.837   3.613   6.294  0.5351 -0.7102 -0.3465
   45MOL0     C 5956   5.821   3.736   6.186  0.0675  0.1358 -1.1459
   45MOL0     N 5957   5.920   3.723   6.079  0.0901 -0.1161 -0.7409
   45MOL0     C 5958   6.037   3.793   6.075  0.3169 -0.3069 -0.8213
   45MOL0     C 5959   6.103   3.748   5.978 -0.0003  0.4793  0.1199
   45MOL0     C 5960   6.250   3.772   5.943  0.8258 -0.1640 -1.0111
   45MOL0     C 5961   6.283   3.787   5.799  0.2623  0.9054 -0.9325
   45MOL0     C 5962   6.425   3.825   5.767  0.3813  0.7456 -0.6323
   45MOL0     C 5963   6.455   3.972   5.751 -0.3471  1.4356  0.4412
   45MOL0     O 5964   6.592   3.989   5.784 -0.4349 -0.2174  0.2349
   45MOL0     C 5965   6.691   3.924   5.712 -0.3458 -0.8485  0.0246
   45MOL0     C 5966   6.793   3.839   5.780  0.5848 -1.1139 -0.0911
   45MOL0     C 5967   6.897   3.776   5.707  0.8581  0.5082 -0.3046
   45MOL0     C 5968   7.012   3.724   5.768 -1.1201  0.4110 -0.7951
   45MOL0     C 5969   6.893   3.776   5.567  0.6138  0.2653  0.1117
   45MOL0     C 5970   7.007   3.723   5.488  0.1473 -0.5236  0.0578
   45MOL0     O 5971   7.068   3.815   5.406 -0.0720 -1.0855  1.4342
   45MOL0     C 5972   7.157   3.766   5.311  0.6066  0.4526  0.4777
   45MOL0     C 5973   7.124   3.760   5.172  0.4783 -0.5991 -0.4747
   45MOL0     C 5974   7.207   3.712   5.081  0.6626 -0.0108  0.2925
   45MOL0     C 5975   7.330   3.656   5.127 -1.0495 -0.5269  0.6078
   45MOL0     O 5976   7.428   3.595   5.045  0.3883  0.7347 -0.0670
   45MOL0     C 5977   7.387   3.539   4.920 -0.0004 -0.1908  0.2621
   45MOL0     C 5978   7.505   3.483   4.843  0.0241 -0.1676  1.2295
   45MOL0     C 5979   7.448   3.453   4.699  0.9756  0.0888  0.0852
   45MOL0     C 5980   7.359   3.322   4.696 -0.3425  0.5371  0.0930
   45MOL0     C 5981   7.456   3.207   4.718  0.3169  0.1883  1.3714
   45MOL0     C 5982   7.560   3.198   4.609  0.8278 -1.5597  0.3968
   45MOL0     C 5983   7.611   3.056   4.581  0.2259 -0.2745  0.2146
   45MOL0     C 5984   7.721   3.045   4.479 -0.9354  0.1535 -0.2370
   45MOL0    Cl 5985   7.865   3.153   4.511 -0.1808  0.1914  0.2137
   45MOL0     C 5986   7.352   3.657   5.261 -0.6942 -0.4436 -0.2015
   45MOL0     C 5987   7.276   3.718   5.355 -0.3815 -0.0371 -0.0105
   45MOL0     O 5988   7.010   3.605   5.477  0.1591 -0.5354 -0.0855
   45MOL0     C 5989   6.788   3.840   5.503  1.0571  0.2466 -0.3351
   45MOL0     C 5990   6.693   3.927   5.570 -0.6633 -0.4932  0.0589
   45MOL0     N 5991   6.031   3.643   5.927  0.0629  0.2122 -0.7019
   45MOL0     N 5992   5.921   3.626   5.981 -0.4398  0.2521 -1.1229
   45MOL0     C 5993   5.643   2.543   6.456  0.3930 -0.0735 -0.2131
   45MOL0     C 5994   5.587   2.458   6.552 -0.7261  0.8156 -0.1018
   45MOL0     C 5995   5.403   2.244   6.901  0.0266  0.2013 -0.7035
   45MOL0     C 5996   5.333   2.321   6.997  1.2755  0.6205  0.3398
   45MOL0     C 5997   5.260   2.264   7.097 -0.1225  0.4061  0.4207
   45MOL0     C 5998   5.262   2.128   7.128  0.2455  0.6757 -0.0633
   45MOL0     O 5999   5.183   2.076   7.234 -0.4036 -0.8927 -0.2763
   45MOL0     C 6000   5.191   1.933   7.244 -0.1141 -1.0478 -0.6430
   45MOL0     C 6001   5.137   1.901   7.387 -0.4206  0.8807  0.4546
   45MOL0     C 6002   5.149   1.749   7.402 -0.5048  0.8747  0.5698
   45MOL0     C 6003   5.127   1.725   7.553 -0.3344 -0.6802 -0.0611
   45MOL0     C 6004   5.131   1.580   7.566 -0.1579 -1.0028 -0.6092
   45MOL0     C 6005   5.106   1.465   7.564  0.4942  0.0836  0.6710
   45MOL0     C 6006   5.329   2.052   7.022  0.0189  0.9428 -1.9155
   45MOL0     C 6007   5.402   2.109   6.923 -0.4745  0.4041  0.6414
   45MOL0     H 6008   5.517   2.672   6.794 -1.8423 -2.6774 -0.4625
   45MOL0     H 6009   5.669   2.822   6.647 -2.8107  1.0584 -0.2497
   45MOL0     H 6010   5.808   2.907   6.479  0.8448 -5.1347  0.1055
   45MOL0     H 6011   5.842   2.924   6.307 -1.9738  1.2839 -2.1397
   45MOL0     H 6012   5.595   3.004   6.276 -1.4880  2.1570  1.7124
   45MOL0     H 6013   5.581   2.968   6.440 -1.2417  0.6221 -1.1606
   45MOL0     H 6014   5.613   3.193   6.460 -0.0638  2.0495 -2.8410
   45MOL0     H 6015   5.794   3.147   6.473 -0.3694  2.4200  0.2943
   45MOL0     H 6016   5.825   3.184   6.240  1.6329  0.9806  1.2588
   45MOL0     H 6017   5.665   3.252   6.219 -2.0114 -3.9842  0.8048
   45MOL0     H 6018   5.777   3.397   6.435  0.1486  0.2340 -0.0838
   45MOL0     H 6019   5.920   3.343   6.341  0.6036  0.2167 -1.4255
   45MOL0     H 6020   5.840   3.452   6.159 -0.4313 -1.9100 -1.2865
   45MOL0     H 6021   5.682   3.481   6.209  1.4805  1.3825 -3.0129
   45MOL0     H 6022   5.782   3.648   6.382  0.5070  2.8037 -1.5929
   45MOL0     H 6023   5.944   3.614   6.320  0.6972  2.2606 -0.7740
   45MOL0     H 6024   5.832   3.832   6.237  1.0185  0.1398 -1.3572
   45MOL0     H 6025   5.722   3.741   6.139 -0.0497 -5.2569 -2.1660
   45MOL0     H 6026   6.063   3.864   6.153 -0.6206  0.2015 -0.9513
   45MOL0     H 6027   6.278   3.868   5.988 -0.3928 -0.0647 -0.4216
   45MOL0     H 6028   6.325   3.704   5.984  3.5759  3.6427  0.9132
   45MOL0     H 6029   6.219   3.868   5.761 -2.0627 -0.1539  0.5084
   45MOL0     H 6030   6.262   3.692   5.750  2.8213 -0.2442  0.0336
   45MOL0     H 6031   6.442   3.785   5.667 -1.3916 -1.0727 -0.2795
   45MOL0     H 6032   6.481   3.789   5.853 -2.4166  1.2565  1.5616
   45MOL0     H 6033   6.409   4.024   5.836  2.7540  3.3627  1.0764
   45MOL0     H 6034   6.417   4.010   5.656 -3.5518 -0.7957  0.6576
   45MOL0     H 6035   6.804   3.855   5.887 -0.2005  1.6422 -0.3524
   45MOL0     H 6036   7.005   3.751   5.874  0.1670 -1.8467 -0.0792
   45MOL0     H 6037   7.015   3.617   5.748 -2.0204  0.0258  0.9315
   45MOL0     H 6038   7.102   3.772   5.730 -2.3377  2.0228 -1.7840
   45MOL0     H 6039   7.026   3.798   5.143  0.7331 -1.2036 -2.2420
   45MOL0     H 6040   7.179   3.711   4.976 -1.8663  0.2310  0.9090
   45MOL0     H 6041   7.331   3.448   4.947  1.6863 -1.0588  1.0235
   45MOL0     H 6042   7.326   3.607   4.861  0.2605 -0.5239 -0.3985
   45MOL0     H 6043   7.582   3.559   4.824  0.5452 -1.3544 -1.8611
   45MOL0     H 6044   7.565   3.406   4.892  1.2992  1.0697  1.6884
   45MOL0     H 6045   7.526   3.446   4.624 -0.4382 -0.6593 -1.3831
   45MOL0     H 6046   7.395   3.540   4.660 -2.9342 -1.1092  2.0661
   45MOL0     H 6047   7.283   3.313   4.774  0.5410  0.9239  1.0181
   45MOL0     H 6048   7.303   3.333   4.602  2.1158 -0.5772 -1.6073
   45MOL0     H 6049   7.405   3.111   4.707  1.5811 -0.9683  4.6379
   45MOL0     H 6050   7.503   3.217   4.816  2.0539  1.0322  0.4961
   45MOL0     H 6051   7.507   3.232   4.520 -0.1159  1.9815  2.1183
   45MOL0     H 6052   7.641   3.266   4.638 -0.4409 -0.6929  2.0343
   45MOL0     H 6053   7.528   2.999   4.539 -0.6237 -0.2374  1.8036
   45MOL0     H 6054   7.637   3.007   4.675  0.4109  0.5159  0.5861
   45MOL0     H 6055   7.681   3.069   4.380 -1.0317  1.4686  0.1011
   45MOL0     H 6056   7.745   2.938   4.479  2.1796  0.7618  1.0703
   45MOL0     H 6057   7.446   3.616   5.295 -0.5888  0.3463  0.4901
   45MOL0     H 6058   7.315   3.734   5.456  0.9884 -1.1103 -0.3340
   45MOL0     H 6059   6.785   3.831   5.395  0.6359  0.8170 -0.3764
   45MOL0     H 6060   6.618   3.980   5.512  0.7624  0.4225 -1.0230
   45MOL0     H 6061   5.673   2.489   6.367  1.0990 -0.5990  0.3372
   45MOL0     H 6062   5.592   2.353   6.522 -0.3523  1.0137 -0.7532
   45MOL0     H 6063   5.321   2.429   6.997 -1.2308  0.4197  0.3195
   45MOL0     H 6064   5.220   2.333   7.170  1.9409  1.9828  0.1726
   45MOL0     H 6065   5.127   1.881   7.172  0.6837 -2.2468 -0.5151
   45MOL0     H 6066   5.295   1.903   7.232  1.2526  2.5808  0.7368
   45MOL0     H 6067   5.030   1.919   7.396 -1.3276 -3.7273  1.3025
   45MOL0     H 6068   5.204   1.951   7.457  0.5657  0.0285  0.1522
   45MOL0     H 6069   5.243   1.706   7.368 -0.8719 -0.7447  1.4898
   45MOL0     H 6070   5.073   1.693   7.347  0.4341 -1.2369  1.3512
   45MOL0     H 6071   5.025   1.756   7.576 -0.9237 -1.7172 -1.1581
   45MOL0     H 6072   5.204   1.786   7.601  0.7503  0.8354 -3.4094
   45MOL0     H 6073   5.085   1.363   7.544 -1.4477  0.7144 -0.7694
   45MOL0     H 6074   5.334   1.943   7.026  0.8313  0.9324  3.2467
   45MOL0     H 6075   5.441   2.044   6.846  0.0145  1.4813 -0.0305
   46MOL0     O 6076   5.888   8.782  10.954 -0.2721  0.0012 -0.3942
   46MOL0     C 6077   5.802   8.746  10.870 -0.4078 -0.0291 -0.2460
   46MOL0     O 6078   5.671   8.726  10.895  0.1729 -0.1373 -0.0608
   46MOL0     C 6079   5.610   8.743  11.018  0.0379 -0.0674 -0.6784
   46MOL0     C 6080   5.478   8.790  11.016  0.6286 -0.4903 -0.0692
   46MOL0     C 6081   5.401   8.795  11.135 -0.3881  0.2723 -0.5561
   46MOL0     C 6082   5.461   8.747  11.258 -0.7737 -0.2521 -1.1109
   46MOL0     O 6083   5.397   8.747  11.381  0.1419  0.7644 -0.0615
   46MOL0     C 6084   5.260   8.721  11.381 -0.2376 -0.9424  1.0029
   46MOL0     C 6085   5.208   8.667  11.525  0.3065  0.2905 -0.4111
   46MOL0     C 6086   5.059   8.659  11.533  0.2337  0.2495  0.3990
   46MOL0     C 6087   4.999   8.528  11.479  0.5747 -0.4356 -0.9283
   46MOL0     C 6088   4.856   8.499  11.518 -0.3265 -0.2892 -0.6450
   46MOL0     C 6089   4.801   8.363  11.478 -0.3135 -1.0616 -0.7147
   46MOL0     C 6090   4.769   8.355  11.327 -0.3258  0.2667 -1.2388
   46MOL0     C 6091   4.696   8.224  11.286 -0.2155 -0.1003  0.2404
   46MOL0     N 6092   4.610   8.228  11.164 -0.8716 -0.3628 -0.6604
   46MOL0     C 6093   4.477   8.212  11.175 -0.4304 -0.8041 -0.1819
   46MOL0     C 6094   4.427   8.237  11.050  0.7753 -1.2892 -0.9884
   46MOL0     C 6095   4.282   8.237  11.012 -0.7633  0.1782 -0.2755
   46MOL0     C 6096   4.216   8.098  11.006  0.1426 -0.2201  0.4770
   46MOL0     C 6097   4.270   8.013  10.886 -0.4760  0.6400  0.4182
   46MOL0     C 6098   4.244   8.077  10.753  0.6433  0.0400  0.3470
   46MOL0     O 6099   4.290   7.982  10.655  0.2536  0.2445 -0.2060
   46MOL0     C 6100   4.260   8.013  10.522 -0.3444 -0.1777 -0.8881
   46MOL0     C 6101   4.164   8.105  10.475  1.3423  0.1899  1.0383
   46MOL0     C 6102   4.148   8.143  10.339 -0.2945  0.2024  0.9471
   46MOL0     C 6103   4.073   8.266  10.299 -0.8497 -0.7244  0.4819
   46MOL0     C 6104   4.233   8.063  10.247  0.3717 -0.4733  0.1968
   46MOL0     C 6105   4.227   8.090  10.102  0.4062 -0.6443  0.0384
   46MOL0     O 6106   4.132   8.162  10.043  0.2639  0.1856 -0.0050
   46MOL0     C 6107   4.061   8.097   9.943  0.1546 -0.3743  0.1302
   46MOL0     C 6108   3.931   8.146   9.926 -0.4577  0.5693  0.6520
   46MOL0     C 6109   3.848   8.110   9.816  0.6671  0.4186  0.3102
   46MOL0     C 6110   3.897   8.013   9.728  0.2086 -0.6443 -0.8244
   46MOL0     O 6111   3.811   7.999   9.618 -0.1358  0.5127 -0.1689
   46MOL0     C 6112   3.847   7.905   9.514 -0.5130  0.5267 -0.0254
   46MOL0     C 6113   3.961   7.939   9.419  0.4241 -0.7657  0.9292
   46MOL0     C 6114   3.950   8.084   9.374  0.6645 -0.5048  0.4143
   46MOL0     C 6115   3.820   8.117   9.289 -0.7257  0.2746  0.0857
   46MOL0     C 6116   3.808   8.274   9.267 -0.2123  0.6501  0.8925
   46MOL0     C 6117   3.680   8.298   9.188 -0.1954 -0.0142 -0.6087
   46MOL0     C 6118   3.679   8.448   9.156  0.0057 -0.5644 -0.5621
   46MOL0     C 6119   3.541   8.474   9.084  0.2700  0.7269 -0.6104
   46MOL0    Cl 6120   3.569   8.495   8.914 -0.0604 -0.1111  0.0112
   46MOL0     C 6121   4.021   7.949   9.746 -1.0119  0.0274 -0.1788
   46MOL0     C 6122   4.107   7.998   9.855 -0.3513 -0.1425  0.3099
   46MOL0     O 6123   4.322   8.044  10.040 -0.7692  0.5745 -0.0216
   46MOL0     C 6124   4.325   7.965  10.294  0.2217  0.2562 -0.7500
   46MOL0     C 6125   4.329   7.931  10.428  0.8162 -0.4049 -0.3798
   46MOL0     N 6126   4.528   8.288  10.969 -0.1276  0.9591  0.4332
   46MOL0     N 6127   4.641   8.274  11.037  0.1407 -0.2330 -0.6263
   46MOL0     C 6128   5.602   8.719  11.256  0.8086 -0.6365 -0.9871
   46MOL0     C 6129   5.677   8.718  11.137 -0.5971  1.0722  0.7284
   46MOL0     C 6130   5.837   8.736  10.729 -0.3627 -0.3218  1.1460
   46MOL0     C 6131   5.939   8.812  10.666 -0.4332  0.1860 -0.2614
   46MOL0     C 6132   5.976   8.782  10.532  0.1079  0.0373  0.0660
   46MOL0     C 6133   5.910   8.683  10.461  0.0988 -0.2093 -0.1688
   46MOL0     O 6134   5.942   8.651  10.339  0.1707  0.4079  0.0185
   46MOL0     C 6135   6.079   8.641  10.303 -0.4635  0.2195 -0.4803
   46MOL0     C 6136   6.108   8.758  10.200 -0.0864  0.3261  0.4011
   46MOL0     C 6137   6.251   8.734  10.158  0.0269 -0.1929  0.3289
   46MOL0     C 6138   6.291   8.826  10.039 -0.1776  0.2029 -1.0545
   46MOL0     C 6139   6.403   8.767   9.963  0.3795  1.1727 -0.9552
   46MOL0     C 6140   6.515   8.742   9.920 -0.6803  0.0401 -1.3264
   46MOL0     C 6141   5.797   8.629  10.512  0.6994 -0.4965 -0.3233
   46MOL0     C 6142   5.755   8.659  10.640 -0.0082  0.1372 -1.4051
   46MOL0     H 6143   5.440   8.819  10.918 -0.0843 -0.4643  0.2078
   46MOL0     H 6144   5.299   8.829  11.120  0.6069  3.1269 -1.3866
   46MOL0     H 6145   5.201   8.810  11.357 -0.4244 -1.2048  0.4827
   46MOL0     H 6146   5.227   8.661  11.296 -0.9021 -0.9117  1.2336
   46MOL0     H 6147   5.238   8.562  11.527  0.6804  0.2624  4.7272
   46MOL0     H 6148   5.267   8.719  11.601 -1.7714  3.2239 -0.6667
   46MOL0     H 6149   5.032   8.673  11.638 -2.3349  0.3755 -0.2155
   46MOL0     H 6150   5.017   8.744  11.478 -1.6436  0.0545  1.4271
   46MOL0     H 6151   5.008   8.546  11.371  2.9885  4.4588 -0.1720
   46MOL0     H 6152   5.062   8.443  11.504  0.4566  0.2053  1.8606
   46MOL0     H 6153   4.862   8.502  11.627  0.8288  0.8872 -0.7052
   46MOL0     H 6154   4.791   8.579  11.482  0.4551  0.7555  0.1938
   46MOL0     H 6155   4.879   8.289  11.496 -0.4447 -0.9967  0.1834
   46MOL0     H 6156   4.722   8.345  11.552  2.9501 -0.6661  3.1994
   46MOL0     H 6157   4.715   8.448  11.310  0.8652  1.7614  2.1410
   46MOL0     H 6158   4.858   8.365  11.264  0.2953  3.7425 -0.0438
   46MOL0     H 6159   4.622   8.205  11.364  1.0949 -0.3470  1.4576
   46MOL0     H 6160   4.765   8.139  11.279 -0.2159 -0.1154  0.4278
   46MOL0     H 6161   4.419   8.182  11.262  1.7566  0.6421  1.9158
   46MOL0     H 6162   4.228   8.308  11.075 -0.4731  1.8213 -1.7781
   46MOL0     H 6163   4.258   8.280  10.914  0.1127  3.1152  0.6890
   46MOL0     H 6164   4.106   8.099  11.002  0.1295  1.8260 -0.1078
   46MOL0     H 6165   4.233   8.049  11.102 -3.1495 -0.2457  1.1757
   46MOL0     H 6166   4.231   7.911  10.890  1.6452 -0.2210  0.3370
   46MOL0     H 6167   4.379   8.001  10.891 -0.4323  0.8386 -0.0233
   46MOL0     H 6168   4.309   8.164  10.743  2.3092 -1.4117 -2.5984
   46MOL0     H 6169   4.144   8.117  10.735  0.7992 -0.8346 -3.2121
   46MOL0     H 6170   4.086   8.146  10.538 -1.5995 -4.2544  0.7491
   46MOL0     H 6171   3.993   8.248  10.225  1.5961 -1.7984 -2.0949
   46MOL0     H 6172   4.018   8.312  10.381  1.5237 -0.3597  1.9382
   46MOL0     H 6173   4.144   8.338  10.258  0.5280 -1.1235  2.0660
   46MOL0     H 6174   3.907   8.230   9.990  1.6054  1.2685  0.5919
   46MOL0     H 6175   3.750   8.157   9.805  0.5114  0.0575  0.1364
   46MOL0     H 6176   3.876   7.812   9.564  0.5718  2.4218  3.1051
   46MOL0     H 6177   3.755   7.898   9.454 -3.0350  2.9624  3.1731
   46MOL0     H 6178   4.054   7.937   9.476  0.1805  0.7621  1.4189
   46MOL0     H 6179   3.967   7.867   9.337 -0.7170  0.3180 -0.1526
   46MOL0     H 6180   4.040   8.098   9.313  0.1481  1.6256  0.0322
   46MOL0     H 6181   3.946   8.156   9.457  0.8936 -0.6875  0.5840
   46MOL0     H 6182   3.809   8.062   9.195 -1.3941  1.5006 -0.5954
   46MOL0     H 6183   3.733   8.094   9.351 -2.7659 -0.1166 -2.7410
   46MOL0     H 6184   3.898   8.309   9.216  0.1510  0.8650  1.6583
   46MOL0     H 6185   3.804   8.317   9.367  0.0554 -0.7662  1.5403
   46MOL0     H 6186   3.676   8.239   9.097  1.8546  1.2684 -1.6099
   46MOL0     H 6187   3.593   8.279   9.252  0.1398  1.2540  0.2689
   46MOL0     H 6188   3.757   8.464   9.080 -0.9294 -0.8036 -1.6013
   46MOL0     H 6189   3.706   8.513   9.240 -2.6485  3.7667 -2.6823
   46MOL0     H 6190   3.483   8.558   9.123  0.3484  1.5056 -2.1283
   46MOL0     H 6191   3.471   8.390   9.088  0.4544  0.5826 -0.3681
   46MOL0     H 6192   4.066   7.876   9.680  0.5432 -0.0964  0.9689
   46MOL0     H 6193   4.209   7.961   9.864 -1.3811 -3.9694 -1.5527
   46MOL0     H 6194   4.409   7.931  10.234  3.3341  3.6383  1.2934
   46MOL0     H 6195   4.408   7.863  10.457  0.2617 -2.1699 -2.6497
   46MOL0     H 6196   5.648   8.680  11.346  0.3616  0.8187 -0.0924
   46MOL0     H 6197   5.778   8.680  11.152 -1.3858 -1.7733 -0.5081
   46MOL0     H 6198   5.991   8.894  10.714  1.1705  0.0349 -1.6252
   46MOL0     H 6199   6.048   8.838  10.473 -0.5993  1.0308  0.1305
   46MOL0     H 6200   6.146   8.639  10.390 -1.6068 -2.2731  0.4689
   46MOL0     H 6201   6.111   8.545  10.260  0.1484 -1.2761  2.9512
   46MOL0     H 6202   6.101   8.855  10.251 -4.0646  0.0236  0.7398
   46MOL0     H 6203   6.033   8.764  10.120  1.2547  1.3903 -0.8471
   46MOL0     H 6204   6.257   8.634  10.114  1.9193  0.1498 -0.2510
   46MOL0     H 6205   6.319   8.739  10.243  2.0923  0.9363 -1.3088
   46MOL0     H 6206   6.301   8.929  10.074 -1.6286  0.3680 -1.0331
   46MOL0     H 6207   6.207   8.828   9.969 -1.8067  0.9627  0.8325
   46MOL0     H 6208   6.618   8.715   9.910 -0.2394  1.3683 -0.5546
   46MOL0     H 6209   5.741   8.563  10.446  3.6531 -1.2046 -2.3333
   46MOL0     H 6210   5.664   8.620  10.684  0.6848 -0.4042 -0.4177
   47MOL0     O 6211   2.355   0.775   1.332  0.0965  0.1445 -0.2830
   47MOL0     C 6212   2.349   0.658   1.363  0.4111  0.0399  0.4796
   47MOL0     O 6213   2.446   0.561   1.328 -0.1917  0.9363 -0.0111
   47MOL0     C 6214   2.558   0.592   1.251  0.4527  0.3590  0.2079
   47MOL0     C 6215   2.687   0.564   1.307 -0.5608  0.4480  0.1884
   47MOL0     C 6216   2.795   0.606   1.237 -0.3838  0.5976 -0.5997
   47MOL0     C 6217   2.786   0.621   1.093  1.2079  0.6719 -0.6640
   47MOL0     O 6218   2.892   0.615   1.008  0.2551  0.6129 -0.3585
   47MOL0     C 6219   2.999   0.709   0.995 -0.3152 -0.9375 -0.8284
   47MOL0     C 6220   3.093   0.677   0.876 -0.0707  0.2770 -0.7364
   47MOL0     C 6221   3.007   0.669   0.739 -0.2734  0.2428  0.1167
   47MOL0     C 6222   3.103   0.605   0.638 -0.5818  0.4478  0.3675
   47MOL0     C 6223   3.057   0.609   0.487 -0.3615  1.4539  0.8264
   47MOL0     C 6224   3.082   0.739   0.409  0.9326  0.6706  0.6542
   47MOL0     C 6225   3.006   0.861   0.466 -0.1139 -0.5655 -0.1831
   47MOL0     C 6226   2.966   0.953   0.350  0.1335 -0.2396  0.4905
   47MOL0     N 6227   3.069   0.972   0.255  0.2738  0.2732  0.5029
   47MOL0     C 6228   3.191   1.035   0.269  0.1292 -0.8094  1.1825
   47MOL0     C 6229   3.245   1.025   0.145 -0.5205  0.4376 -0.5872
   47MOL0     C 6230   3.384   1.065   0.099  0.0877 -0.2387 -0.0200
   47MOL0     C 6231   3.480   0.963   0.151 -0.1207  0.9413  1.0104
   47MOL0     C 6232   3.623   1.005   0.121 -0.7044  0.4277  0.4575
   47MOL0     C 6233   3.726   0.900   0.174 -0.2446 -0.9732  0.3404
   47MOL0     O 6234   3.732   0.906   0.313 -0.6002 -0.1785 -0.7018
   47MOL0     C 6235   3.769   0.796   0.383  0.2597 -0.5942 -1.0638
   47MOL0     C 6236   3.903   0.775   0.390  0.3617 -0.0453  0.0345
   47MOL0     C 6237   3.952   0.655   0.441  0.4183 -0.0834  1.4262
   47MOL0     C 6238   4.101   0.634   0.433 -0.4047 -0.6313 -0.3972
   47MOL0     C 6239   3.865   0.555   0.488 -0.4750 -0.1115 -0.0272
   47MOL0     C 6240   3.903   0.418   0.550 -0.7623 -0.9345 -0.7331
   47MOL0     O 6241   4.033   0.406   0.587 -0.2791 -0.4084  0.2932
   47MOL0     C 6242   4.067   0.303   0.658 -0.1217 -1.0026 -1.2029
   47MOL0     C 6243   4.031   0.171   0.637  0.7518  1.1640  0.3468
   47MOL0     C 6244   4.085   0.070   0.717 -0.3322  0.1792  0.7457
   47MOL0     C 6245   4.175   0.112   0.824 -0.1910 -0.6498 -0.7408
   47MOL0     O 6246   4.222   0.031   0.927 -0.2871 -0.2305  0.2052
   47MOL0     C 6247   4.121  -0.041   0.993  0.8216  0.0690 -0.2234
   47MOL0     C 6248   4.187  -0.143   1.095  0.4671  0.4577 -0.4320
   47MOL0     C 6249   4.265  -0.078   1.210  0.1722 -0.2141  0.1409
   47MOL0     C 6250   4.310  -0.190   1.307  0.8366  1.2368  0.9027
   47MOL0     C 6251   4.213  -0.240   1.419 -0.3312  0.5014  0.1807
   47MOL0     C 6252   4.298  -0.289   1.532 -0.3040  0.0014  0.3113
   47MOL0     C 6253   4.217  -0.370   1.638 -0.1770  0.1501 -0.1548
   47MOL0     C 6254   4.301  -0.466   1.722 -0.5958 -0.6185  0.2353
   47MOL0    Cl 6255   4.396  -0.383   1.845  0.1154 -0.1851  0.0935
   47MOL0     C 6256   4.204   0.247   0.842  0.7035 -0.1476 -0.6292
   47MOL0     C 6257   4.153   0.340   0.758 -0.5929 -0.0397 -0.2805
   47MOL0     O 6258   3.812   0.341   0.583  0.1340  0.6143  0.2579
   47MOL0     C 6259   3.719   0.584   0.478 -0.3984 -0.2691  0.2704
   47MOL0     C 6260   3.674   0.702   0.426  0.4469 -0.8635  0.2753
   47MOL0     N 6261   3.158   0.958   0.059  0.0290 -0.3249  0.4237
   47MOL0     N 6262   3.048   0.936   0.126  0.6072  0.0669 -0.2577
   47MOL0     C 6263   2.661   0.634   1.032  1.1016  0.3348 -0.7882
   47MOL0     C 6264   2.547   0.626   1.113 -0.9748  0.2678 -0.3375
   47MOL0     C 6265   2.238   0.602   1.445  0.0089 -0.2668 -0.3913
   47MOL0     C 6266   2.111   0.658   1.439 -0.1315  0.4708  0.3996
   47MOL0     C 6267   2.005   0.603   1.511 -1.1572 -0.7594 -0.5142
   47MOL0     C 6268   2.030   0.487   1.596  1.2169  0.0534  0.6357
   47MOL0     O 6269   1.929   0.422   1.669 -0.1014 -0.0974 -0.1980
   47MOL0     C 6270   1.793   0.441   1.641  0.7767 -0.6383  0.4818
   47MOL0     C 6271   1.714   0.442   1.770 -0.3664 -0.5591 -0.2320
   47MOL0     C 6272   1.708   0.297   1.837  0.3869 -1.1477 -0.3469
   47MOL0     C 6273   1.651   0.319   1.979  0.1766  0.6149 -0.4254
   47MOL0     C 6274   1.613   0.189   2.044 -0.0003  0.4079  0.1702
   47MOL0     C 6275   1.597   0.074   2.082  0.4226 -0.6833  0.2015
   47MOL0     C 6276   2.151   0.423   1.598 -0.4178  0.0736  0.9310
   47MOL0     C 6277   2.259   0.476   1.514  0.3640 -0.1152  0.5788
   47MOL0     H 6278   2.698   0.526   1.408  1.2349 -1.3176 -0.5990
   47MOL0     H 6279   2.897   0.599   1.273 -0.6782  0.5463  0.2480
   47MOL0     H 6280   2.958   0.809   0.979  0.8612  0.1451  2.2361
   47MOL0     H 6281   3.045   0.705   1.094 -3.5958  1.9255  1.0246
   47MOL0     H 6282   3.177   0.744   0.854 -0.4103 -0.1406 -3.6955
   47MOL0     H 6283   3.128   0.582   0.920 -1.5481  0.5958  1.2954
   47MOL0     H 6284   2.922   0.603   0.754 -0.7239  0.8141  0.1261
   47MOL0     H 6285   2.968   0.770   0.719 -0.1325  0.5461  1.2964
   47MOL0     H 6286   3.192   0.668   0.652 -0.7610  0.2947  2.7240
   47MOL0     H 6287   3.129   0.501   0.656 -0.7464  0.7915  3.1299
   47MOL0     H 6288   3.117   0.534   0.434  0.7076  2.0186  1.2123
   47MOL0     H 6289   2.951   0.583   0.482  0.4467 -2.3764 -3.3918
   47MOL0     H 6290   3.189   0.762   0.413  1.1154 -0.3007  1.5958
   47MOL0     H 6291   3.050   0.711   0.308  1.4125  3.2133 -0.2646
   47MOL0     H 6292   2.913   0.840   0.519  0.1664  1.1556  1.0671
   47MOL0     H 6293   3.075   0.913   0.533 -1.5370 -2.1764  2.7376
   47MOL0     H 6294   2.931   1.048   0.392 -2.6556 -0.7530 -0.4720
   47MOL0     H 6295   2.882   0.900   0.305 -0.2715  1.1883 -0.5293
   47MOL0     H 6296   3.234   1.083   0.357 -1.7816  0.0566  1.7188
   47MOL0     H 6297   3.393   1.083  -0.008 -0.5945  0.7155  0.0733
   47MOL0     H 6298   3.417   1.152   0.157  0.8714  0.4458 -1.4439
   47MOL0     H 6299   3.469   0.863   0.108  2.6111 -0.2226  2.7392
   47MOL0     H 6300   3.465   0.953   0.259 -1.7915 -2.4752  0.5832
   47MOL0     H 6301   3.633   1.098   0.177  0.1770 -1.3660  3.5178
   47MOL0     H 6302   3.642   1.020   0.014  2.1426  0.9211  0.9500
   47MOL0     H 6303   3.825   0.926   0.137 -1.6621  0.8622 -2.4804
   47MOL0     H 6304   3.696   0.800   0.142  0.4712 -1.0050 -0.2458
   47MOL0     H 6305   3.963   0.858   0.355 -0.3965  0.4516 -0.0916
   47MOL0     H 6306   4.124   0.532   0.400  1.5713  0.0815 -1.3782
   47MOL0     H 6307   4.137   0.699   0.353 -1.9180  1.8860  0.8288
   47MOL0     H 6308   4.164   0.656   0.520  0.7376 -2.0603 -0.8251
   47MOL0     H 6309   3.969   0.146   0.551  1.3956  1.5444 -0.2333
   47MOL0     H 6310   4.043  -0.027   0.694 -0.8325  0.6353 -0.3520
   47MOL0     H 6311   4.066   0.026   1.059 -1.6672  0.9361 -2.9775
   47MOL0     H 6312   4.045  -0.082   0.926  0.8073 -0.1468 -0.0736
   47MOL0     H 6313   4.108  -0.201   1.142  0.6314 -0.3914 -1.1554
   47MOL0     H 6314   4.256  -0.206   1.038  2.7973  2.1734  0.3364
   47MOL0     H 6315   4.199  -0.010   1.265  1.2008 -1.5607  3.2451
   47MOL0     H 6316   4.349  -0.022   1.167 -0.3747 -0.3447 -1.1743
   47MOL0     H 6317   4.336  -0.272   1.240  3.0200  3.6296 -1.4277
   47MOL0     H 6318   4.406  -0.154   1.347  1.0937 -0.2373  1.6727
   47MOL0     H 6319   4.154  -0.318   1.372  0.0553 -0.7776  1.7481
   47MOL0     H 6320   4.147  -0.161   1.455  1.5300  2.3122 -0.1511
   47MOL0     H 6321   4.369  -0.358   1.483 -0.6455  1.1987 -2.0214
   47MOL0     H 6322   4.345  -0.207   1.586 -2.0893  0.1162  1.7641
   47MOL0     H 6323   4.129  -0.420   1.597 -0.3522 -0.7818  1.2827
   47MOL0     H 6324   4.169  -0.296   1.704 -0.9973 -1.9127  1.7150
   47MOL0     H 6325   4.364  -0.519   1.651  2.2350  0.7203  1.5531
   47MOL0     H 6326   4.241  -0.543   1.771  0.7798 -0.5785  2.1287
   47MOL0     H 6327   4.280   0.270   0.917  1.7429  3.5660 -2.5538
   47MOL0     H 6328   4.198   0.439   0.762  1.0833 -0.6587 -2.2657
   47MOL0     H 6329   3.652   0.512   0.523  0.1739 -0.3714  0.9923
   47MOL0     H 6330   3.568   0.710   0.404  0.1731 -0.0242  1.7948
   47MOL0     H 6331   2.642   0.659   0.928  1.0830 -1.5104 -1.2721
   47MOL0     H 6332   2.447   0.620   1.074 -0.1999 -4.4314 -2.3109
   47MOL0     H 6333   2.107   0.754   1.389 -2.2442  0.4235  0.3571
   47MOL0     H 6334   1.910   0.653   1.525  0.6739  2.7873  0.2292
   47MOL0     H 6335   1.780   0.530   1.579 -0.4757 -0.0067  1.6208
   47MOL0     H 6336   1.753   0.358   1.582 -3.5444  0.1226  1.9684
   47MOL0     H 6337   1.614   0.487   1.769  0.9269  2.8159  2.4447
   47MOL0     H 6338   1.776   0.509   1.830  1.4230 -0.9053 -1.6185
   47MOL0     H 6339   1.810   0.257   1.839  1.6813  1.8373 -0.2071
   47MOL0     H 6340   1.629   0.233   1.798 -0.9613 -0.2127  0.7438
   47MOL0     H 6341   1.568   0.389   1.978  0.5831  1.1073 -1.9853
   47MOL0     H 6342   1.737   0.361   2.033 -1.2199  3.2347 -0.0562
   47MOL0     H 6343   1.577  -0.030   2.102  0.1890 -1.0083 -1.5595
   47MOL0     H 6344   2.172   0.343   1.669 -0.4402  1.1720  2.2097
   47MOL0     H 6345   2.359   0.435   1.510  1.1944  1.7574 -3.1230
   48MOL0     O 6346  11.256   6.409  10.852  0.2843  0.5774  0.9158
   48MOL0     C 6347  11.349   6.468  10.803 -0.2393 -0.1053 -0.2697
   48MOL0     O 6348  11.425   6.421  10.691  0.0393  0.1273  0.3306
   48MOL0     C 6349  11.363   6.354  10.587  0.7487  1.3215 -0.5162
   48MOL0     C 6350  11.247   6.400  10.519 -0.5453  0.3649 -0.5223
   48MOL0     C 6351  11.201   6.336  10.405  0.6446  0.7568  0.6596
   48MOL0     C 6352  11.261   6.223  10.358  0.2927  0.0995  0.8982
   48MOL0     O 6353  11.199   6.168  10.251 -0.4923 -0.6792  0.7342
   48MOL0     C 6354  11.260   6.046  10.197  0.1245 -0.0552 -0.3802
   48MOL0     C 6355  11.170   5.980  10.105  0.2152 -0.0011  1.2679
   48MOL0     C 6356  11.227   5.853  10.038 -0.4590  0.0690 -1.0385
   48MOL0     C 6357  11.132   5.799   9.931  0.3084  0.1524 -1.1140
   48MOL0     C 6358  11.165   5.662   9.876 -0.1840  0.1297 -0.0943
   48MOL0     C 6359  11.210   5.670   9.727  0.8591  0.8778  0.1583
   48MOL0     C 6360  11.241   5.526   9.682  0.1228 -0.2208  0.4827
   48MOL0     C 6361  11.244   5.506   9.529  0.1202  0.2920 -0.1417
   48MOL0     N 6362  11.106   5.513   9.480  0.8005 -0.2165  0.2190
   48MOL0     C 6363  11.001   5.417   9.506  0.5955  0.0962  0.2032
   48MOL0     C 6364  10.903   5.446   9.413 -0.0887  0.5926 -0.2880
   48MOL0     C 6365  10.787   5.354   9.392 -0.0537 -0.4585  0.3849
   48MOL0     C 6366  10.697   5.357   9.516  1.0402  0.3759 -0.8102
   48MOL0     C 6367  10.577   5.259   9.499 -0.1150  0.6979  1.0108
   48MOL0     C 6368  10.617   5.115   9.452 -0.5898 -0.8286 -0.4165
   48MOL0     O 6369  10.738   5.061   9.515  0.4962 -0.2980 -0.6257
   48MOL0     C 6370  10.791   4.933   9.489  0.0061  0.0529  0.6754
   48MOL0     C 6371  10.882   4.895   9.575  0.0077  0.2311  0.3970
   48MOL0     C 6372  10.938   4.765   9.574  0.0214  0.4616 -0.5320
   48MOL0     C 6373  11.023   4.720   9.691 -0.1833  0.3990 -0.4497
   48MOL0     C 6374  10.926   4.676   9.466 -0.6480 -0.2054  0.0307
   48MOL0     C 6375  10.999   4.556   9.428  0.8170  0.1952  0.9003
   48MOL0     O 6376  11.092   4.511   9.507  0.1123  0.6076 -0.1447
   48MOL0     C 6377  11.179   4.409   9.464 -0.3691  1.3278  0.1203
   48MOL0     C 6378  11.304   4.399   9.526  0.1433 -0.3606 -0.2779
   48MOL0     C 6379  11.398   4.307   9.479 -0.6427  0.8603 -0.2955
   48MOL0     C 6380  11.372   4.206   9.389 -0.1054 -1.1903  0.3721
   48MOL0     O 6381  11.449   4.108   9.345 -0.2875  0.1426  0.2365
   48MOL0     C 6382  11.590   4.115   9.367  0.9424  0.9812  0.6133
   48MOL0     C 6383  11.689   4.043   9.267 -0.1433 -0.0801 -0.0330
   48MOL0     C 6384  11.718   4.136   9.145 -1.1864  0.6526  0.1876
   48MOL0     C 6385  11.601   4.185   9.070 -0.7414  0.2652  0.3034
   48MOL0     C 6386  11.632   4.253   8.933  0.4607  0.3690 -0.4618
   48MOL0     C 6387  11.719   4.375   8.933 -0.0926  0.0172 -0.0723
   48MOL0     C 6388  11.649   4.504   8.970 -0.7459 -0.3278  0.1356
   48MOL0     C 6389  11.539   4.563   8.892 -0.4619 -0.3990 -0.6449
   48MOL0    Cl 6390  11.565   4.549   8.714  0.6307  0.0315  0.2487
   48MOL0     C 6391  11.239   4.210   9.332 -0.1513 -0.5723  0.8496
   48MOL0     C 6392  11.143   4.304   9.374 -1.3684  0.3386  0.1047
   48MOL0     O 6393  10.981   4.517   9.310 -0.3182 -0.5830 -0.3593
   48MOL0     C 6394  10.832   4.725   9.370  0.3603 -0.2621  0.2369
   48MOL0     C 6395  10.765   4.853   9.378  0.9366 -0.9748 -0.0839
   48MOL0     N 6396  10.947   5.535   9.330  0.6614 -0.0600 -0.8515
   48MOL0     N 6397  11.068   5.581   9.367  0.4895  0.0279  0.0912
   48MOL0     C 6398  11.383   6.179  10.426 -0.1995  0.3644 -0.0929
   48MOL0     C 6399  11.429   6.244  10.535 -0.2257 -0.4742 -0.0023
   48MOL0     C 6400  11.404   6.585  10.868  1.2090 -0.0733 -0.0851
   48MOL0     C 6401  11.525   6.636  10.835 -0.1164 -0.8966  0.4891
   48MOL0     C 6402  11.578   6.754  10.890 -0.7069  0.3243 -0.9860
   48MOL0     C 6403  11.501   6.838  10.978 -0.4263 -0.0635  0.5384
   48MOL0     O 6404  11.550   6.956  11.024  0.3941  0.4338 -0.1614
   48MOL0     C 6405  11.589   6.981  11.153 -0.4052 -0.4622  0.5865
   48MOL0     C 6406  11.481   6.995  11.260  0.7278 -0.5570  0.1606
   48MOL0     C 6407  11.382   7.108  11.221  0.5153 -0.1785 -0.2242
   48MOL0     C 6408  11.322   7.181  11.334  0.1521  0.2600  1.2228
   48MOL0     C 6409  11.208   7.260  11.279 -0.0060  0.0662 -0.2370
   48MOL0     C 6410  11.114   7.317  11.229  0.5154  0.6537  0.2894
   48MOL0     C 6411  11.365   6.794  11.003  0.6421 -0.2192  0.2234
   48MOL0     C 6412  11.326   6.669  10.950  0.6984 -0.0828  0.0916
   48MOL0     H 6413  11.188   6.486  10.549  1.6545  1.4418  0.9627
   48MOL0     H 6414  11.113   6.362  10.347 -0.4848 -2.5123  0.7188
   48MOL0     H 6415  11.350   6.077  10.143 -1.0513  1.3555 -1.6081
   48MOL0     H 6416  11.272   5.978  10.282 -1.0602  1.0291  0.7136
   48MOL0     H 6417  11.088   5.935  10.162  2.6134 -2.5055  2.9742
   48MOL0     H 6418  11.146   6.040  10.016  2.6423 -3.3374 -1.9620
   48MOL0     H 6419  11.330   5.875  10.008 -0.1829  2.1624  1.1745
   48MOL0     H 6420  11.229   5.775  10.115 -0.9861  0.2271 -0.8643
   48MOL0     H 6421  11.029   5.798   9.969  0.4305 -0.6101 -0.8029
   48MOL0     H 6422  11.127   5.875   9.851 -0.7497  0.8983 -0.3756
   48MOL0     H 6423  11.231   5.601   9.938  0.4495  2.1476  1.3206
   48MOL0     H 6424  11.071   5.606   9.876 -0.8160  1.1649  0.1235
   48MOL0     H 6425  11.130   5.707   9.662  0.2488 -0.2564  0.2334
   48MOL0     H 6426  11.297   5.730   9.700  1.4146  0.0781  0.1418
   48MOL0     H 6427  11.337   5.495   9.724 -0.1352  1.2814  2.3417
   48MOL0     H 6428  11.159   5.469   9.726 -1.2167  1.3824  0.2038
   48MOL0     H 6429  11.283   5.409   9.495 -0.6594  0.2804 -1.0636
   48MOL0     H 6430  11.303   5.590   9.491 -2.0584  2.1102  0.2913
   48MOL0     H 6431  11.018   5.342   9.582  0.7413  1.2329  1.3216
   48MOL0     H 6432  10.737   5.382   9.299 -0.6785 -3.6594 -0.3805
   48MOL0     H 6433  10.835   5.258   9.372  2.1936  1.2734 -3.7714
   48MOL0     H 6434  10.660   5.458   9.532 -0.4006  0.1182 -2.2561
   48MOL0     H 6435  10.749   5.308   9.599 -4.1646 -1.8066  1.5814
   48MOL0     H 6436  10.514   5.314   9.429 -0.4915  2.4746  2.6460
   48MOL0     H 6437  10.539   5.250   9.602  0.0184 -1.3803  0.9162
   48MOL0     H 6438  10.640   5.128   9.345  1.6279 -0.9254  0.0015
   48MOL0     H 6439  10.535   5.044   9.468 -1.1726  0.1223  1.0237
   48MOL0     H 6440  10.908   4.957   9.660 -0.4468  1.3312 -0.2447
   48MOL0     H 6441  11.128   4.718   9.660  0.5114  0.5183  1.7285
   48MOL0     H 6442  11.009   4.793   9.771 -2.1916 -2.5953  2.1535
   48MOL0     H 6443  11.000   4.619   9.726 -0.5099 -0.1696 -2.2043
   48MOL0     H 6444  11.335   4.479   9.592  1.2349 -1.0806  0.1152
   48MOL0     H 6445  11.501   4.310   9.511 -0.3282  1.8381 -1.3497
   48MOL0     H 6446  11.621   4.220   9.364 -1.2536  1.6676  0.6078
   48MOL0     H 6447  11.606   4.072   9.466  0.8165 -3.7906 -1.1246
   48MOL0     H 6448  11.785   4.023   9.314 -0.5138 -1.6236  0.1001
   48MOL0     H 6449  11.651   3.946   9.236  1.4248 -0.2854 -1.4766
   48MOL0     H 6450  11.767   4.083   9.062 -3.1942 -1.9313  0.5265
   48MOL0     H 6451  11.785   4.217   9.176  1.6068  0.6205 -4.7937
   48MOL0     H 6452  11.528   4.105   9.058 -0.0152 -0.7300  2.2247
   48MOL0     H 6453  11.552   4.262   9.131  0.6423 -0.0185  1.8372
   48MOL0     H 6454  11.537   4.285   8.891  0.3816  3.2291  1.6104
   48MOL0     H 6455  11.668   4.180   8.860 -2.2952 -0.5994 -0.9760
   48MOL0     H 6456  11.805   4.361   8.999 -0.8925 -4.1923  0.3586
   48MOL0     H 6457  11.756   4.398   8.832  2.9924 -0.2633  0.8828
   48MOL0     H 6458  11.724   4.583   8.969 -1.4649  0.4178  1.6390
   48MOL0     H 6459  11.631   4.496   9.078  0.7612  0.0222  0.4483
   48MOL0     H 6460  11.528   4.670   8.911  0.3092 -0.2215 -1.1535
   48MOL0     H 6461  11.447   4.515   8.926 -0.5066  0.8737  1.2034
   48MOL0     H 6462  11.228   4.132   9.257  4.8382 -3.3398  2.4715
   48MOL0     H 6463  11.053   4.301   9.314  0.9202 -1.3355 -3.6055
   48MOL0     H 6464  10.799   4.668   9.283  0.7684  0.3088 -0.3026
   48MOL0     H 6465  10.692   4.894   9.309  1.9042 -0.3711 -0.7714
   48MOL0     H 6466  11.431   6.082  10.415  0.4578  0.5999  0.6156
   48MOL0     H 6467  11.513   6.210  10.595  0.2001  1.8670  0.8502
   48MOL0     H 6468  11.585   6.574  10.769 -2.2855 -1.7331 -0.8108
   48MOL0     H 6469  11.681   6.776  10.864 -0.7115 -0.0980 -1.3805
   48MOL0     H 6470  11.657   6.901  11.183 -0.9735 -2.1712 -2.2980
   48MOL0     H 6471  11.644   7.075  11.143  0.1472 -0.9070 -0.8214
   48MOL0     H 6472  11.531   7.028  11.351  0.6477  1.5183 -0.5002
   48MOL0     H 6473  11.428   6.903  11.287  0.5656 -0.4055  0.3721
   48MOL0     H 6474  11.299   7.069  11.162  1.0164 -1.6346 -0.0066
   48MOL0     H 6475  11.431   7.188  11.165 -0.9955  0.5694 -0.5189
   48MOL0     H 6476  11.388   7.239  11.400 -0.7065  0.5410  1.8603
   48MOL0     H 6477  11.268   7.111  11.400  1.1536 -2.5030 -0.6960
   48MOL0     H 6478  11.024   7.357  11.189  0.7791  1.8095  0.8038
   48MOL0     H 6479  11.289   6.852  11.055  1.4750  1.4422 -0.3423
   48MOL0     H 6480  11.223   6.649  10.977  0.9311 -2.0701 -0.3354
   49MOL0     O 6481   6.746   3.883   2.941  0.2090 -0.5174 -0.0818
   49MOL0     C 6482   6.853   3.826   2.925 -0.2593  1.1830 -1.4901
   49MOL0     O 6483   6.961   3.854   3.001 -0.2120  0.6175  0.1049
   49MOL0     C 6484   6.962   3.952   3.095  1.1422 -0.3070 -0.0903
   49MOL0     C 6485   6.993   3.900   3.218 -0.1692 -0.5440 -0.5939
   49MOL0     C 6486   7.013   3.998   3.323  0.3710 -0.8810 -0.4119
   49MOL0     C 6487   6.987   4.138   3.300 -1.1281 -0.4116  0.0657
   49MOL0     O 6488   6.992   4.211   3.414 -0.5945  0.6574  0.0168
   49MOL0     C 6489   7.032   4.344   3.387 -0.4673 -0.5713 -0.2908
   49MOL0     C 6490   7.118   4.396   3.500 -0.1410 -0.0733  0.5305
   49MOL0     C 6491   7.065   4.367   3.639  0.5111 -0.8856 -0.3603
   49MOL0     C 6492   6.927   4.447   3.664 -0.2243 -0.1471  0.4204
   49MOL0     C 6493   6.907   4.453   3.816  0.1969 -0.5768 -0.7785
   49MOL0     C 6494   6.792   4.360   3.862 -0.3319  0.1477  1.4122
   49MOL0     C 6495   6.805   4.215   3.812 -0.3930  0.7916 -0.1104
   49MOL0     C 6496   6.730   4.113   3.898  0.1639  0.7145  0.0894
   49MOL0     N 6497   6.811   4.002   3.949 -0.0815 -0.5435  0.2060
   49MOL0     C 6498   6.855   3.983   4.084  0.5694 -0.6077 -0.2046
   49MOL0     C 6499   6.937   3.876   4.086 -0.3710 -0.3991 -0.6488
   49MOL0     C 6500   7.005   3.797   4.193 -1.0508  0.2518  0.7819
   49MOL0     C 6501   6.976   3.644   4.179  0.3756 -0.1503 -0.5931
   49MOL0     C 6502   6.991   3.576   4.318  0.1847 -0.9396 -0.1189
   49MOL0     C 6503   6.878   3.549   4.414  0.6786  0.9728  0.5934
   49MOL0     O 6504   6.921   3.464   4.524 -1.6008 -0.0120 -1.0765
   49MOL0     C 6505   6.826   3.379   4.577 -0.4007 -0.1092 -0.6870
   49MOL0     C 6506   6.693   3.373   4.536  0.2429  0.3160  0.7564
   49MOL0     C 6507   6.610   3.272   4.575 -0.0083  0.6657  0.4007
   49MOL0     C 6508   6.466   3.299   4.562 -0.6877 -0.6424  0.9949
   49MOL0     C 6509   6.663   3.167   4.661 -1.1349 -0.5457  0.7196
   49MOL0     C 6510   6.566   3.071   4.710  0.3439  0.2392  0.8172
   49MOL0     O 6511   6.505   3.115   4.825  0.1180 -0.1784  0.0167
   49MOL0     C 6512   6.381   3.067   4.856  0.0469 -1.0599  0.7175
   49MOL0     C 6513   6.267   3.147   4.849 -0.1098 -0.5843 -0.4387
   49MOL0     C 6514   6.137   3.102   4.871  0.0758 -0.6584  0.0612
   49MOL0     C 6515   6.125   2.963   4.903 -0.4426  0.5719 -0.4590
   49MOL0     O 6516   5.994   2.919   4.941 -0.5299  0.3608 -0.2805
   49MOL0     C 6517   5.954   2.797   4.887 -0.5089 -0.3596  0.5487
   49MOL0     C 6518   5.857   2.715   4.969  0.0125  0.2776  0.5884
   49MOL0     C 6519   5.812   2.594   4.893  0.4032 -0.1999  0.3819
   49MOL0     C 6520   5.732   2.506   4.995  0.1088  1.1601  0.0915
   49MOL0     C 6521   5.637   2.410   4.917 -0.0851 -0.0399  0.0865
   49MOL0     C 6522   5.715   2.294   4.860  0.3188  0.0391 -0.5201
   49MOL0     C 6523   5.635   2.204   4.756  0.1014 -0.5247  0.1532
   49MOL0     C 6524   5.740   2.123   4.675  0.6954  0.1899 -0.2623
   49MOL0    Cl 6525   5.845   2.034   4.793 -0.0093 -0.1885  0.1147
   49MOL0     C 6526   6.239   2.879   4.918 -0.0269 -0.2930 -0.1679
   49MOL0     C 6527   6.372   2.934   4.885  0.7891 -0.1129  0.5596
   49MOL0     O 6528   6.535   2.982   4.631  0.3674  0.2395 -0.2147
   49MOL0     C 6529   6.795   3.155   4.681  0.0496  0.4394 -0.2023
   49MOL0     C 6530   6.884   3.261   4.640  0.3041 -0.0355 -0.8537
   49MOL0     N 6531   6.952   3.842   3.949  0.5629 -0.3574  0.0577
   49MOL0     N 6532   6.886   3.926   3.867  0.1381  0.0331  0.6627
   49MOL0     C 6533   6.946   4.181   3.172 -0.1484 -0.0972 -0.4836
   49MOL0     C 6534   6.937   4.092   3.067  1.3602 -0.6135 -0.5526
   49MOL0     C 6535   6.863   3.723   2.825  0.4894 -0.3283  0.2599
   49MOL0     C 6536   6.785   3.714   2.715 -0.1260 -1.0640 -0.5095
   49MOL0     C 6537   6.813   3.618   2.618 -0.0200  0.6191 -0.8461
   49MOL0     C 6538   6.905   3.516   2.644 -0.1118  0.1559 -0.0815
   49MOL0     O 6539   6.916   3.424   2.545  0.6271  0.3351  0.8826
   49MOL0     C 6540   6.999   3.309   2.573  0.5320 -0.8810  0.7159
   49MOL0     C 6541   6.914   3.194   2.643 -0.3814 -0.1205  0.4387
   49MOL0     C 6542   6.834   3.126   2.527  0.1026 -0.0256 -0.9926
   49MOL0     C 6543   6.690   3.092   2.559 -0.4858 -0.3314 -0.5374
   49MOL0     C 6544   6.612   3.197   2.633  0.5246 -0.6655 -0.0915
   49MOL0     C 6545   6.548   3.278   2.701  0.2102  0.6064 -0.3671
   49MOL0     C 6546   6.975   3.516   2.769  0.5588 -0.4053  0.0099
   49MOL0     C 6547   6.946   3.615   2.864 -0.0244 -0.4948  0.0017
   49MOL0     H 6548   6.999   3.793   3.233  1.2729 -0.5624 -1.1872
   49MOL0     H 6549   7.041   3.964   3.422 -1.9497  0.0598  0.6404
   49MOL0     H 6550   7.094   4.366   3.300 -0.4958  1.6440  0.1836
   49MOL0     H 6551   6.940   4.404   3.383  0.1484  0.8312  2.9608
   49MOL0     H 6552   7.214   4.343   3.504  0.0703  0.3676  1.5688
   49MOL0     H 6553   7.151   4.499   3.492  0.5775 -0.3513 -0.3318
   49MOL0     H 6554   7.044   4.261   3.655 -1.1121 -0.3753  1.3263
   49MOL0     H 6555   7.140   4.399   3.712  1.8636  0.6218 -2.2944
   49MOL0     H 6556   6.931   4.550   3.627 -2.1164  0.4327  1.6691
   49MOL0     H 6557   6.847   4.396   3.610  0.9981 -2.3117  0.5340
   49MOL0     H 6558   7.001   4.445   3.871  0.3600  1.4990 -0.6692
   49MOL0     H 6559   6.875   4.555   3.842  0.1721 -0.6644 -0.4547
   49MOL0     H 6560   6.776   4.369   3.970  1.5817 -2.5089  2.0356
   49MOL0     H 6561   6.703   4.403   3.815  0.6915 -0.1747 -0.9461
   49MOL0     H 6562   6.777   4.219   3.706 -0.9333 -4.0082 -0.3976
   49MOL0     H 6563   6.913   4.200   3.820  1.0512  4.6976 -5.7613
   49MOL0     H 6564   6.654   4.074   3.830  1.1009 -2.4696  0.7287
   49MOL0     H 6565   6.689   4.167   3.984  1.0380  0.5633  0.6082
   49MOL0     H 6566   6.818   4.021   4.178  1.0867 -0.9390  0.1396
   49MOL0     H 6567   7.114   3.802   4.188 -0.9106 -0.6972  2.2305
   49MOL0     H 6568   6.965   3.847   4.282 -3.2332 -0.5190  0.2729
   49MOL0     H 6569   7.049   3.602   4.109  2.1328  1.0669  0.4293
   49MOL0     H 6570   6.878   3.613   4.142 -0.1930  0.7098  0.1368
   49MOL0     H 6571   7.074   3.625   4.370 -1.3889 -0.6612  2.2679
   49MOL0     H 6572   7.024   3.476   4.287 -0.7009 -0.8343 -1.5088
   49MOL0     H 6573   6.803   3.506   4.347  0.6432  0.5954  0.8780
   49MOL0     H 6574   6.832   3.641   4.451  2.6994  2.3551 -0.1064
   49MOL0     H 6575   6.645   3.441   4.467 -0.2075 -1.9586 -1.3211
   49MOL0     H 6576   6.420   3.205   4.532  1.2190 -1.2275 -0.3434
   49MOL0     H 6577   6.428   3.342   4.655 -2.8246 -0.2906  0.0294
   49MOL0     H 6578   6.445   3.363   4.476  2.4781 -3.5924 -2.3351
   49MOL0     H 6579   6.281   3.251   4.822 -1.5401  0.4885  2.5121
   49MOL0     H 6580   6.049   3.165   4.864 -0.7524 -1.7705  0.2708
   49MOL0     H 6581   5.904   2.834   4.797  2.6678  1.4021 -0.6242
   49MOL0     H 6582   6.027   2.723   4.853 -2.6623 -2.7194  0.6768
   49MOL0     H 6583   5.909   2.675   5.056 -1.1529 -0.9462  0.7439
   49MOL0     H 6584   5.765   2.772   4.986 -1.0474 -1.3792  0.5492
   49MOL0     H 6585   5.897   2.540   4.849 -0.1365  0.5992 -1.7734
   49MOL0     H 6586   5.745   2.619   4.810  0.5478 -0.4099  0.1994
   49MOL0     H 6587   5.802   2.465   5.068  0.7070 -0.8840 -1.5398
   49MOL0     H 6588   5.663   2.560   5.061  0.9765  0.8825  1.2450
   49MOL0     H 6589   5.592   2.457   4.829 -1.7821  1.1134  1.5068
   49MOL0     H 6590   5.559   2.363   4.976  1.3095 -0.9760  1.2424
   49MOL0     H 6591   5.798   2.347   4.813  0.8085 -0.3805 -0.1303
   49MOL0     H 6592   5.761   2.227   4.932 -1.5600 -2.9079 -1.8706
   49MOL0     H 6593   5.566   2.262   4.693  0.2227 -0.5094  0.0348
   49MOL0     H 6594   5.579   2.129   4.813 -0.6796  0.2960  0.4864
   49MOL0     H 6595   5.790   2.195   4.610 -1.5619  0.7481 -1.4806
   49MOL0     H 6596   5.689   2.048   4.613 -1.7315  1.6084 -0.1216
   49MOL0     H 6597   6.232   2.775   4.948  1.4233 -0.2667  0.3671
   49MOL0     H 6598   6.458   2.868   4.879  1.3476  0.5072  1.4860
   49MOL0     H 6599   6.832   3.065   4.728  0.7131  0.2229 -1.0984
   49MOL0     H 6600   6.991   3.255   4.658  0.1165 -0.7614  0.0791
   49MOL0     H 6601   6.916   4.284   3.159  0.1133 -0.1065 -1.2145
   49MOL0     H 6602   6.909   4.125   2.968  0.2280  3.5489  0.9446
   49MOL0     H 6603   6.706   3.788   2.705  0.2275 -0.7119 -0.7771
   49MOL0     H 6604   6.755   3.624   2.527 -2.8726 -2.3456  0.5910
   49MOL0     H 6605   7.040   3.262   2.483  0.3046 -1.2724  0.8177
   49MOL0     H 6606   7.095   3.331   2.622  1.0875 -2.4934  0.4139
   49MOL0     H 6607   6.853   3.244   2.718 -2.3816  0.3261 -1.3884
   49MOL0     H 6608   6.969   3.116   2.695 -2.2627  0.4396  3.4845
   49MOL0     H 6609   6.881   3.038   2.483  1.3791  1.1648 -2.1057
   49MOL0     H 6610   6.825   3.191   2.440  0.0307  0.7737 -0.3979
   49MOL0     H 6611   6.692   3.004   2.624 -2.7784 -1.2534 -1.6373
   49MOL0     H 6612   6.634   3.060   2.471 -1.2715 -1.4563  0.3357
   49MOL0     H 6613   6.483   3.348   2.749 -1.4589 -2.7356  2.6885
   49MOL0     H 6614   7.039   3.435   2.802 -1.3897 -2.2190 -0.5035
   49MOL0     H 6615   6.976   3.610   2.969  1.1827 -0.3905 -0.3271
   50MOL0     O 6616   1.849  10.953   5.045  0.2940  0.2905 -0.7797
   50MOL0     C 6617   1.783  10.851   5.020  0.1992 -0.3752 -0.1105
   50MOL0     O 6618   1.713  10.777   5.116  0.0137 -0.7375 -0.6887
   50MOL0     C 6619   1.717  10.810   5.253  0.3794  0.1798 -0.4808
   50MOL0     C 6620   1.703  10.703   5.344 -0.5174  0.5740 -1.5793
   50MOL0     C 6621   1.717  10.711   5.478 -0.7151 -0.6778 -0.7134
   50MOL0     C 6622   1.744  10.837   5.532  0.3462  0.8029  0.3493
   50MOL0     O 6623   1.759  10.847   5.667  0.4635 -0.7257 -0.5966
   50MOL0     C 6624   1.761  10.983   5.720 -0.2988  0.2278  0.2774
   50MOL0     C 6625   1.762  10.982   5.877  0.0936 -0.2140  0.1360
   50MOL0     C 6626   1.721  11.114   5.941 -0.0784  0.0198  0.3909
   50MOL0     C 6627   1.704  11.121   6.089 -0.0413  0.0142 -0.0053
   50MOL0     C 6628   1.584  11.055   6.146  0.5705  0.2470 -1.0666
   50MOL0     C 6629   1.594  11.063   6.303 -0.2035 -0.0252 -1.2284
   50MOL0     C 6630   1.465  11.014   6.364  0.6859  0.0917  1.1280
   50MOL0     C 6631   1.469  11.036   6.518  0.5642  0.6072  0.2899
   50MOL0     N 6632   1.344  11.009   6.583 -0.0184  0.1202 -0.0537
   50MOL0     C 6633   1.285  11.091   6.679 -0.1954  0.5191  0.1313
   50MOL0     C 6634   1.167  11.037   6.711  0.2637 -0.2008 -0.4631
   50MOL0     C 6635   1.076  11.103   6.810  0.8926 -0.8954  0.1176
   50MOL0     C 6636   0.935  11.119   6.746  1.0253 -0.2440 -0.0958
   50MOL0     C 6637   0.843  11.193   6.851 -0.6713  0.1332  0.6474
   50MOL0     C 6638   0.705  11.209   6.784  0.7687  0.3577  0.1262
   50MOL0     O 6639   0.626  11.311   6.849  0.3631 -0.2568  0.6855
   50MOL0     C 6640   0.672  11.443   6.863 -0.7353 -0.7239 -0.5433
   50MOL0     C 6641   0.719  11.520   6.758 -0.3301 -0.8696  0.1612
   50MOL0     C 6642   0.769  11.643   6.770 -0.1057 -0.0231  0.3091
   50MOL0     C 6643   0.775  11.722   6.643  0.2365 -0.3946 -1.0184
   50MOL0     C 6644   0.761  11.702   6.894 -0.9356  0.4834 -0.5162
   50MOL0     C 6645   0.785  11.844   6.913  0.6468 -0.1996  0.4857
   50MOL0     O 6646   0.718  11.911   7.006  0.4109 -0.3133 -0.0481
   50MOL0     C 6647   0.752  12.044   7.035  0.4412 -0.5109 -0.2714
   50MOL0     C 6648   0.648  12.135   7.047 -0.1983  0.4435  1.0076
   50MOL0     C 6649   0.666  12.275   7.071 -0.5902  0.4828 -0.4638
   50MOL0     C 6650   0.794  12.328   7.078  0.7674  0.6955  0.0315
   50MOL0     O 6651   0.813  12.450   7.105 -0.3392 -0.6095 -0.9457
   50MOL0     C 6652   0.753  12.518   7.219 -0.4927  0.3524 -0.0036
   50MOL0     C 6653   0.778  12.665   7.223  0.8007  0.1697  0.0367
   50MOL0     C 6654   0.927  12.711   7.242  0.3747  0.2356 -0.2565
   50MOL0     C 6655   0.992  12.660   7.367  0.4174  0.3915 -0.2421
   50MOL0     C 6656   1.120  12.730   7.413 -0.3725 -0.6305  0.1030
   50MOL0     C 6657   1.207  12.665   7.517 -1.1598 -0.8568 -0.6822
   50MOL0     C 6658   1.355  12.717   7.494  0.5539  0.1745  0.7151
   50MOL0     C 6659   1.390  12.853   7.534  0.5589  0.0769  0.3433
   50MOL0    Cl 6660   1.379  12.867   7.713 -0.3872 -0.1343  0.1174
   50MOL0     C 6661   0.905  12.236   7.080  0.3029  0.3192  0.1801
   50MOL0     C 6662   0.878  12.089   7.061  0.4674 -0.0633 -0.3061
   50MOL0     O 6663   0.879  11.892   6.853  0.2187  0.0368 -0.4214
   50MOL0     C 6664   0.710  11.629   7.006 -0.5212 -0.5267  0.5995
   50MOL0     C 6665   0.658  11.507   6.987  0.8168  0.0609  0.2696
   50MOL0     N 6666   1.142  10.917   6.641  0.2190 -0.2807 -0.3828
   50MOL0     N 6667   1.249  10.911   6.562 -0.3848  0.9943 -0.3788
   50MOL0     C 6668   1.755  10.952   5.443 -0.0555  1.1734  0.7994
   50MOL0     C 6669   1.739  10.934   5.309 -0.3107 -0.6425  0.2177
   50MOL0     C 6670   1.763  10.803   4.882  0.7818 -0.0395 -0.5608
   50MOL0     C 6671   1.713  10.673   4.853 -0.4153 -0.7481 -1.7948
   50MOL0     C 6672   1.681  10.627   4.731  0.3361 -0.1181 -0.3775
   50MOL0     C 6673   1.680  10.719   4.625  0.6103 -0.0606 -0.1854
   50MOL0     O 6674   1.662  10.658   4.505 -0.6108 -0.3046  0.2851
   50MOL0     C 6675   1.659  10.736   4.394 -0.5987 -0.4739  0.5384
   50MOL0     C 6676   1.799  10.734   4.323  0.6126 -0.4197 -0.0746
   50MOL0     C 6677   1.849  10.593   4.299 -0.3900  0.2952 -0.3114
   50MOL0     C 6678   1.925  10.580   4.176 -0.2783  0.6537  0.7673
   50MOL0     C 6679   2.015  10.691   4.152 -0.1235 -0.6199  0.3612
   50MOL0     C 6680   2.059  10.799   4.122  0.4043  0.2393  0.1418
   50MOL0     C 6681   1.723  10.854   4.645 -0.2642 -0.4364  0.3107
   50MOL0     C 6682   1.768  10.892   4.772 -0.3019  0.9734 -0.0516
   50MOL0     H 6683   1.682  10.602   5.309 -0.2046  0.2243 -0.7880
   50MOL0     H 6684   1.705  10.625   5.544 -1.5801  1.2448  1.8041
   50MOL0     H 6685   1.845  11.045   5.686 -1.8463  1.4136 -1.5794
   50MOL0     H 6686   1.670  11.030   5.684 -0.3025  0.0496  0.0438
   50MOL0     H 6687   1.693  10.899   5.900  1.1293 -1.6821 -1.7662
   50MOL0     H 6688   1.860  10.955   5.916  0.3466  2.3245  1.4140
   50MOL0     H 6689   1.803  11.181   5.913  0.0903 -0.7450 -0.9887
   50MOL0     H 6690   1.632  11.150   5.888  1.5027  3.0767 -0.4409
   50MOL0     H 6691   1.799  11.079   6.125 -0.3078 -3.0990 -2.5466
   50MOL0     H 6692   1.707  11.227   6.118  0.8436 -0.1780  0.6420
   50MOL0     H 6693   1.495  11.101   6.102  0.0912 -2.3099 -3.0198
   50MOL0     H 6694   1.586  10.951   6.112 -0.3975 -0.6288  1.2878
   50MOL0     H 6695   1.671  10.994   6.339 -0.4462  0.1796 -0.2819
   50MOL0     H 6696   1.610  11.166   6.336 -2.1683  0.0144 -0.2288
   50MOL0     H 6697   1.384  11.070   6.316 -0.6091 -0.7227  2.2692
   50MOL0     H 6698   1.452  10.907   6.347  2.9507 -0.3659  1.8682
   50MOL0     H 6699   1.494  11.139   6.542 -1.2482  2.3767 -4.2543
   50MOL0     H 6700   1.541  10.963   6.557 -2.1968 -3.1706 -0.9998
   50MOL0     H 6701   1.324  11.176   6.735  1.5736 -0.3166  0.2376
   50MOL0     H 6702   1.064  11.039   6.898 -3.6958 -0.3809  0.1469
   50MOL0     H 6703   1.121  11.201   6.827  3.3081 -1.7379 -1.0359
   50MOL0     H 6704   0.895  11.022   6.715  0.1832  0.8454 -2.6128
   50MOL0     H 6705   0.931  11.180   6.656 -1.3846 -0.6487 -0.3252
   50MOL0     H 6706   0.889  11.289   6.877 -1.1541  0.3759  0.6204
   50MOL0     H 6707   0.842  11.130   6.940  0.8498 -1.0735 -0.1499
   50MOL0     H 6708   0.657  11.111   6.776  0.1097  0.8152 -3.2015
   50MOL0     H 6709   0.705  11.235   6.677 -5.7745 -1.0652 -0.6779
   50MOL0     H 6710   0.720  11.466   6.664  0.5463 -1.9434  0.7579
   50MOL0     H 6711   0.690  11.791   6.654  0.1436 -0.9214  3.3044
   50MOL0     H 6712   0.871  11.773   6.629 -0.2704  0.7925 -0.3490
   50MOL0     H 6713   0.746  11.652   6.564 -1.0322 -1.8043  0.6274
   50MOL0     H 6714   0.545  12.101   7.051 -1.4997  4.0186  2.4570
   50MOL0     H 6715   0.576  12.334   7.086 -0.8313  0.7705 -2.7923
   50MOL0     H 6716   0.645  12.500   7.223 -0.2386 -1.0824  1.3309
   50MOL0     H 6717   0.780  12.476   7.316 -0.7773  1.7269  0.6964
   50MOL0     H 6718   0.722  12.705   7.138  0.2940 -0.1518  0.2150
   50MOL0     H 6719   0.735  12.706   7.315 -0.2783  2.6085 -1.4610
   50MOL0     H 6720   0.925  12.819   7.260 -0.9597  0.4882 -1.6921
   50MOL0     H 6721   0.990  12.670   7.162  1.0692 -0.6110  0.6991
   50MOL0     H 6722   0.919  12.660   7.448  2.3633 -1.0178  1.6155
   50MOL0     H 6723   1.020  12.555   7.362  2.6930  0.9505 -0.3110
   50MOL0     H 6724   1.086  12.832   7.432 -1.4271 -0.4727 -2.2523
   50MOL0     H 6725   1.173  12.733   7.317  1.6003  1.0321  1.1827
   50MOL0     H 6726   1.169  12.710   7.609  1.5731 -0.0965  0.1566
   50MOL0     H 6727   1.211  12.555   7.516  2.0319 -0.8330 -0.7752
   50MOL0     H 6728   1.381  12.704   7.388 -1.1985 -1.8173  0.4373
   50MOL0     H 6729   1.425  12.657   7.553  2.4605  0.0086 -1.5735
   50MOL0     H 6730   1.319  12.927   7.494 -3.9482 -2.9566  1.9242
   50MOL0     H 6731   1.491  12.887   7.512  0.5161  0.4626  0.7252
   50MOL0     H 6732   1.009  12.265   7.086  2.0153 -3.8162 -3.4730
   50MOL0     H 6733   0.961  12.023   7.037  0.3263 -0.0426 -0.8643
   50MOL0     H 6734   0.709  11.662   7.110 -0.2383  0.9985  0.1462
   50MOL0     H 6735   0.622  11.444   7.069 -0.9316  3.0332  1.9718
   50MOL0     H 6736   1.767  11.053   5.480 -2.2171  1.8005 -0.0786
   50MOL0     H 6737   1.720  11.023   5.251 -3.6990 -1.1601  0.2989
   50MOL0     H 6738   1.702  10.600   4.933 -1.0518 -0.0770 -1.2593
   50MOL0     H 6739   1.669  10.521   4.714 -1.8378 -0.2905  1.6151
   50MOL0     H 6740   1.586  10.688   4.328 -0.1458 -0.6214  0.1438
   50MOL0     H 6741   1.624  10.840   4.401 -0.4992 -0.4797  1.2135
   50MOL0     H 6742   1.862  10.788   4.394 -2.0441  1.8154  0.7573
   50MOL0     H 6743   1.792  10.795   4.232 -1.5923  1.3306  1.1727
   50MOL0     H 6744   1.769  10.519   4.307 -0.2561  0.2342  0.5663
   50MOL0     H 6745   1.908  10.562   4.386 -0.6271 -2.9133 -1.1780
   50MOL0     H 6746   1.869  10.570   4.083 -1.0455  1.4286  1.1205
   50MOL0     H 6747   1.990  10.492   4.177  0.1167  0.9408  1.7998
   50MOL0     H 6748   2.112  10.891   4.110  1.2393  0.0970  2.3720
   50MOL0     H 6749   1.750  10.920   4.563 -1.2101 -2.7973 -2.0212
   50MOL0     H 6750   1.791  10.997   4.790  1.3182  1.0325 -2.0658
   51MOL0     O 6751   9.602   2.019   6.161 -0.1593  0.1237 -1.0300
   51MOL0     C 6752   9.715   2.063   6.180 -0.7759 -0.5624 -0.3535
   51MOL0     O 6753   9.771   2.172   6.108 -0.5636  0.1071 -0.1523
   51MOL0     C 6754   9.687   2.230   6.012 -0.1335 -0.5098  0.1775
   51MOL0     C 6755   9.658   2.366   6.033 -1.2149  0.3030  0.6021
   51MOL0     C 6756   9.564   2.439   5.964  0.6101 -0.7644  0.6339
   51MOL0     C 6757   9.510   2.381   5.846 -0.1129  0.7212 -0.2999
   51MOL0     O 6758   9.421   2.443   5.753  0.2104 -0.1345  0.7828
   51MOL0     C 6759   9.347   2.557   5.792  0.7808  0.8503 -0.0276
   51MOL0     C 6760   9.235   2.524   5.891  0.1382 -0.6140 -0.0583
   51MOL0     C 6761   9.122   2.443   5.814  0.0311 -0.5783  0.3563
   51MOL0     C 6762   9.038   2.539   5.727 -0.1329  1.1434  1.0048
   51MOL0     C 6763   8.906   2.481   5.671 -0.6158 -0.4661 -0.3875
   51MOL0     C 6764   8.926   2.338   5.611 -0.0517  0.4598 -0.3348
   51MOL0     C 6765   8.800   2.268   5.555 -0.7859 -0.1216 -0.3516
   51MOL0     C 6766   8.811   2.118   5.545 -0.3673  0.1338 -0.3825
   51MOL0     N 6767   8.678   2.062   5.511 -0.3456  0.3207  0.7073
   51MOL0     C 6768   8.625   1.952   5.571  0.7755  0.6245 -0.4002
   51MOL0     C 6769   8.491   1.944   5.541 -0.1089  0.6119  0.3863
   51MOL0     C 6770   8.402   1.826   5.565  1.0472 -0.0557  0.6522
   51MOL0     C 6771   8.393   1.751   5.436  0.5193  0.3755  0.8726
   51MOL0     C 6772   8.270   1.766   5.344  0.5648 -0.6833 -0.5607
   51MOL0     C 6773   8.281   1.862   5.226 -0.0181 -0.1250 -0.6092
   51MOL0     O 6774   8.299   1.801   5.097 -0.1909 -0.6720 -0.3162
   51MOL0     C 6775   8.253   1.859   4.985  0.0741  0.1086 -1.1264
   51MOL0     C 6776   8.226   1.777   4.871  0.1855 -0.3178  0.3963
   51MOL0     C 6777   8.178   1.845   4.757  0.4380 -0.2801  0.3142
   51MOL0     C 6778   8.156   1.748   4.638 -0.4834 -0.5109 -0.6634
   51MOL0     C 6779   8.173   1.988   4.751  0.3419  1.0494  0.1272
   51MOL0     C 6780   8.114   2.054   4.625 -0.6474  0.0263  0.1824
   51MOL0     O 6781   8.064   1.981   4.520  0.5084 -0.2609  0.2417
   51MOL0     C 6782   8.014   2.055   4.409 -0.1441  0.0217  0.2479
   51MOL0     C 6783   7.893   2.020   4.354 -0.5168 -0.5288  0.6644
   51MOL0     C 6784   7.853   2.076   4.235  0.1291 -0.3765 -0.7556
   51MOL0     C 6785   7.914   2.189   4.179  0.8282 -0.9014 -0.2892
   51MOL0     O 6786   7.842   2.244   4.073  0.7033  0.2384  0.7718
   51MOL0     C 6787   7.915   2.344   3.999  0.2631  0.7718 -0.6252
   51MOL0     C 6788   7.853   2.386   3.861  0.3594 -0.5216 -0.7919
   51MOL0     C 6789   7.901   2.514   3.799 -0.1657 -0.3185 -0.2636
   51MOL0     C 6790   8.050   2.505   3.745  0.3940  0.4348 -0.3232
   51MOL0     C 6791   8.098   2.644   3.718 -0.7798  0.1170 -0.2646
   51MOL0     C 6792   8.219   2.654   3.626 -0.4758 -0.0243 -0.3916
   51MOL0     C 6793   8.346   2.604   3.687 -0.1155  0.7419  0.7578
   51MOL0     C 6794   8.459   2.589   3.595 -0.8475  0.2368  0.3342
   51MOL0    Cl 6795   8.587   2.487   3.660  0.1210  0.1565 -0.0372
   51MOL0     C 6796   8.037   2.227   4.234  0.3525 -0.0960 -0.6786
   51MOL0     C 6797   8.086   2.162   4.349  0.1705  0.3300  0.7756
   51MOL0     O 6798   8.111   2.177   4.635  1.0790 -1.1009  0.0822
   51MOL0     C 6799   8.227   2.053   4.857  0.8190 -0.1835 -1.5487
   51MOL0     C 6800   8.264   1.993   4.971 -0.3377 -0.6494 -0.5773
   51MOL0     N 6801   8.475   2.047   5.439  0.0294 -0.0373  0.4165
   51MOL0     N 6802   8.587   2.113   5.427  0.9731 -0.0807  0.1699
   51MOL0     C 6803   9.554   2.251   5.814  0.2522 -0.6271  0.5677
   51MOL0     C 6804   9.637   2.173   5.897  0.2540  0.3870  0.7864
   51MOL0     C 6805   9.794   1.999   6.296 -0.4551  0.5555 -0.5404
   51MOL0     C 6806   9.935   2.033   6.313  0.6673  0.3050  0.3653
   51MOL0     C 6807  10.006   1.983   6.422  0.1537  0.0586  0.0749
   51MOL0     C 6808   9.955   1.891   6.515  0.1671 -0.2565  0.8038
   51MOL0     O 6809  10.039   1.833   6.607  0.8296  0.7940 -0.3569
   51MOL0     C 6810   9.975   1.765   6.711 -0.2610  0.3052  0.5057
   51MOL0     C 6811  10.071   1.780   6.827 -0.9309  0.2884 -0.3999
   51MOL0     C 6812  10.002   1.727   6.954  0.2430 -0.9478 -0.2369
   51MOL0     C 6813  10.102   1.718   7.068 -0.0817  0.5498 -0.0579
   51MOL0     C 6814  10.131   1.840   7.128 -0.1267 -0.1077 -0.2305
   51MOL0     C 6815  10.161   1.950   7.179 -0.4789 -0.1449  0.1409
   51MOL0     C 6816   9.813   1.854   6.487 -1.1435  0.1098 -0.6611
   51MOL0     C 6817   9.737   1.906   6.389  0.1432 -0.4977  0.5224
   51MOL0     H 6818   9.699   2.407   6.125 -0.5207  1.3014 -0.1209
   51MOL0     H 6819   9.539   2.542   5.990 -2.5671 -0.7773 -1.7352
   51MOL0     H 6820   9.423   2.623   5.836  1.2899 -3.0598  6.3028
   51MOL0     H 6821   9.312   2.593   5.695 -2.3710 -1.1121  0.2486
   51MOL0     H 6822   9.278   2.460   5.968 -1.0541 -0.5583  0.6724
   51MOL0     H 6823   9.191   2.612   5.939  0.5185  1.2163 -2.7929
   51MOL0     H 6824   9.171   2.363   5.757 -1.1061 -1.0363 -0.0036
   51MOL0     H 6825   9.059   2.394   5.888 -0.2268 -1.1282 -0.2152
   51MOL0     H 6826   9.006   2.626   5.786 -0.9434  0.7415  1.1694
   51MOL0     H 6827   9.094   2.553   5.634 -3.1649 -1.8254 -1.5458
   51MOL0     H 6828   8.823   2.482   5.742 -2.0716 -0.2663 -2.0226
   51MOL0     H 6829   8.873   2.549   5.591  0.7694  0.6734 -0.0304
   51MOL0     H 6830   9.007   2.356   5.539  1.0401 -0.3768  0.6491
   51MOL0     H 6831   8.968   2.277   5.692  0.0225 -1.2027 -1.5766
   51MOL0     H 6832   8.722   2.290   5.629  1.0345  0.6262  1.4411
   51MOL0     H 6833   8.773   2.313   5.459 -0.8079 -0.0060 -0.2918
   51MOL0     H 6834   8.849   2.071   5.636 -2.3735 -0.5513  0.1467
   51MOL0     H 6835   8.883   2.084   5.470 -2.5185 -1.8394 -1.6676
   51MOL0     H 6836   8.678   1.876   5.627  2.1568 -0.2313 -2.7364
   51MOL0     H 6837   8.426   1.750   5.640 -2.0755 -1.3636  0.4858
   51MOL0     H 6838   8.303   1.856   5.600  0.8902 -2.5618  2.6158
   51MOL0     H 6839   8.391   1.648   5.471  2.4706  0.7295  2.1682
   51MOL0     H 6840   8.480   1.754   5.370  0.4320 -4.2885  0.1963
   51MOL0     H 6841   8.190   1.792   5.414  0.4916 -1.9297 -0.1607
   51MOL0     H 6842   8.251   1.670   5.296  1.5147 -1.5499  0.7196
   51MOL0     H 6843   8.369   1.920   5.258  1.3750 -3.1038  1.3791
   51MOL0     H 6844   8.192   1.926   5.226 -1.5300 -2.1533 -0.3418
   51MOL0     H 6845   8.244   1.672   4.894  2.5671  0.3429  1.9544
   51MOL0     H 6846   8.153   1.642   4.667 -0.6241  0.0928  1.7079
   51MOL0     H 6847   8.063   1.754   4.580 -0.6773 -0.1738 -0.3182
   51MOL0     H 6848   8.239   1.754   4.566  1.2872  0.1927  1.3449
   51MOL0     H 6849   7.852   1.927   4.395  1.7234 -0.7892  2.5323
   51MOL0     H 6850   7.772   2.029   4.180 -1.0077  2.5920 -1.8079
   51MOL0     H 6851   7.904   2.427   4.070  0.5414 -1.8430  2.7359
   51MOL0     H 6852   8.017   2.314   3.976 -0.6970 -1.4532 -2.3715
   51MOL0     H 6853   7.872   2.304   3.790  0.1010 -1.1760 -0.1146
   51MOL0     H 6854   7.747   2.399   3.883  0.8217  1.6299  0.4779
   51MOL0     H 6855   7.899   2.596   3.870 -1.2115 -0.2009 -0.4151
   51MOL0     H 6856   7.836   2.537   3.714 -2.0191  0.4517  1.2839
   51MOL0     H 6857   8.116   2.458   3.819  0.6795 -0.7452 -1.2963
   51MOL0     H 6858   8.048   2.434   3.662 -1.7304 -0.5589  0.5131
   51MOL0     H 6859   8.125   2.695   3.811  1.9156  2.7554 -2.2993
   51MOL0     H 6860   8.011   2.696   3.676 -0.6258  2.2304  1.8076
   51MOL0     H 6861   8.198   2.594   3.536  0.6902 -0.9185 -0.0954
   51MOL0     H 6862   8.235   2.758   3.596  0.7949  0.0346  0.4184
   51MOL0     H 6863   8.305   2.505   3.710 -4.6222  2.5297  1.5910
   51MOL0     H 6864   8.372   2.646   3.785 -0.0695 -0.9947  1.5258
   51MOL0     H 6865   8.502   2.680   3.551 -0.4590 -0.6867 -1.2619
   51MOL0     H 6866   8.417   2.524   3.518 -1.1781 -0.5560  1.1620
   51MOL0     H 6867   8.090   2.313   4.195  0.8509  0.2324  0.6692
   51MOL0     H 6868   8.177   2.189   4.402  0.7566  0.1965 -0.1394
   51MOL0     H 6869   8.247   2.159   4.856  0.9767 -0.1745  0.2242
   51MOL0     H 6870   8.326   2.050   5.040 -1.4471  2.8432 -2.2567
   51MOL0     H 6871   9.517   2.208   5.722  0.2288  0.3103  0.1307
   51MOL0     H 6872   9.651   2.070   5.867 -0.4077  0.5498 -0.1486
   51MOL0     H 6873   9.975   2.110   6.248 -1.7869  0.5484 -0.9791
   51MOL0     H 6874  10.108   2.010   6.448 -0.5893 -0.4858  4.2956
   51MOL0     H 6875   9.877   1.803   6.742  0.4650  0.7762  2.3483
   51MOL0     H 6876   9.959   1.659   6.689  1.4153  0.0886  0.1772
   51MOL0     H 6877  10.093   1.884   6.854 -5.0295  0.4405  3.4528
   51MOL0     H 6878  10.167   1.732   6.805 -1.3371 -0.5615 -0.3626
   51MOL0     H 6879   9.964   1.627   6.934 -1.2117 -0.5022  0.2069
   51MOL0     H 6880   9.922   1.797   6.979  0.3570 -0.1317 -2.0002
   51MOL0     H 6881  10.195   1.686   7.021  0.5622  0.3787  1.2738
   51MOL0     H 6882  10.064   1.649   7.144 -1.2979  2.9193  1.6218
   51MOL0     H 6883  10.195   2.048   7.203 -2.8506  0.9901 -0.8503
   51MOL0     H 6884   9.769   1.777   6.549  3.3422 -1.6432  0.7689
   51MOL0     H 6885   9.638   1.862   6.374  0.6350 -1.6105  0.4334
   52MOL0     O 6886   6.902   8.615   2.174 -0.4557 -0.1331  0.3492
   52MOL0     C 6887   6.786   8.633   2.184  0.4409 -0.8024 -0.4555
   52MOL0     O 6888   6.721   8.747   2.130 -0.3634  0.3188  0.1733
   52MOL0     C 6889   6.792   8.830   2.055 -1.2311 -0.1457  0.9360
   52MOL0     C 6890   6.762   8.840   1.922  0.5996 -0.3927  0.7976
   52MOL0     C 6891   6.829   8.925   1.839  0.1206 -0.6022 -0.2420
   52MOL0     C 6892   6.948   8.994   1.883 -0.5375  0.8593 -0.0653
   52MOL0     O 6893   7.013   9.052   1.771 -0.2614 -1.3482 -0.5158
   52MOL0     C 6894   7.056   9.186   1.804 -0.8340 -0.2415  1.4084
   52MOL0     C 6895   7.109   9.246   1.670  0.1293  0.1608 -0.5989
   52MOL0     C 6896   6.989   9.249   1.560 -0.9537  0.0868 -0.5545
   52MOL0     C 6897   7.033   9.345   1.447  0.8577  0.0085 -0.1400
   52MOL0     C 6898   6.919   9.407   1.366  0.7041  0.0537 -0.3371
   52MOL0     C 6899   6.965   9.495   1.253 -0.3630  0.1614  0.2073
   52MOL0     C 6900   6.902   9.632   1.252  0.6592 -0.1448  0.1891
   52MOL0     C 6901   7.007   9.729   1.198 -0.3201 -0.9940 -0.7686
   52MOL0     N 6902   7.144   9.719   1.239  0.0978  0.4070  0.5734
   52MOL0     C 6903   7.203   9.754   1.359 -0.3629  0.4006 -1.3990
   52MOL0     C 6904   7.331   9.725   1.341  1.2299  0.5580  0.2746
   52MOL0     C 6905   7.448   9.738   1.442  0.9894 -0.1451 -0.1140
   52MOL0     C 6906   7.442   9.657   1.576  1.0063  0.1902  0.1318
   52MOL0     C 6907   7.333   9.693   1.674 -0.0528 -0.0436  0.0682
   52MOL0     C 6908   7.373   9.627   1.810 -0.3411 -0.5117  0.3675
   52MOL0     O 6909   7.387   9.486   1.791  0.3591 -0.6265  0.6796
   52MOL0     C 6910   7.381   9.403   1.898  0.0809 -0.0031  0.5765
   52MOL0     C 6911   7.392   9.266   1.871 -1.1044  1.0776  0.2874
   52MOL0     C 6912   7.403   9.168   1.971  0.6902 -0.5269 -0.1234
   52MOL0     C 6913   7.376   9.033   1.930 -0.0385  0.2959  0.4452
   52MOL0     C 6914   7.390   9.205   2.108  0.3271 -0.8303 -0.2729
   52MOL0     C 6915   7.385   9.118   2.227  0.4163  0.5475  0.8875
   52MOL0     O 6916   7.319   8.989   2.218 -0.3423 -0.6070  0.2306
   52MOL0     C 6917   7.335   8.901   2.316  0.1731 -0.1607  0.1902
   52MOL0     C 6918   7.233   8.812   2.343 -1.0397 -0.0675 -0.4568
   52MOL0     C 6919   7.243   8.732   2.452  0.2425  0.3236  0.0636
   52MOL0     C 6920   7.359   8.723   2.533  0.7113  0.4262  0.8403
   52MOL0     O 6921   7.363   8.624   2.633 -0.4264 -0.3508 -0.3445
   52MOL0     C 6922   7.265   8.517   2.646  0.2192 -0.8166  0.5327
   52MOL0     C 6923   7.288   8.418   2.765  0.0826 -0.2087  0.8912
   52MOL0     C 6924   7.423   8.351   2.728 -0.9995 -0.3602 -0.7365
   52MOL0     C 6925   7.432   8.263   2.598 -0.1238  0.5693 -1.6290
   52MOL0     C 6926   7.547   8.158   2.615  0.3235 -1.0372  0.1887
   52MOL0     C 6927   7.508   8.022   2.664  0.7807  0.6624 -0.7157
   52MOL0     C 6928   7.626   7.915   2.674 -0.3264  0.2106  1.0897
   52MOL0     C 6929   7.732   7.956   2.771  0.2337  0.5890  0.7943
   52MOL0    Cl 6930   7.646   7.970   2.933 -0.2008  0.0327 -0.2454
   52MOL0     C 6931   7.464   8.817   2.504  1.1166  0.6729 -0.4096
   52MOL0     C 6932   7.450   8.892   2.387 -0.3450 -0.1257 -0.7048
   52MOL0     O 6933   7.423   9.171   2.333  0.5643  0.6489  0.3180
   52MOL0     C 6934   7.376   9.347   2.132 -0.1124 -0.5805  0.6631
   52MOL0     C 6935   7.367   9.440   2.034 -0.3007  0.2513  1.0163
   52MOL0     N 6936   7.357   9.695   1.208 -0.3300  0.3623  0.4664
   52MOL0     N 6937   7.245   9.695   1.147 -0.1833 -0.0128  0.1866
   52MOL0     C 6938   6.971   8.992   2.021 -0.2300 -0.1384 -0.5780
   52MOL0     C 6939   6.893   8.911   2.109 -0.2055 -0.0109  0.0496
   52MOL0     C 6940   6.702   8.544   2.263  1.1753  1.0133 -0.3035
   52MOL0     C 6941   6.568   8.556   2.258  0.1942  0.2549  0.1484
   52MOL0     C 6942   6.489   8.473   2.335  0.4327 -0.4774 -0.4799
   52MOL0     C 6943   6.544   8.376   2.414  0.2829  0.4767 -0.3453
   52MOL0     O 6944   6.456   8.284   2.467  0.0673 -0.6269  0.2333
   52MOL0     C 6945   6.486   8.207   2.581  0.0088  0.2622 -0.2466
   52MOL0     C 6946   6.453   8.062   2.567  0.4590  0.1593  0.4494
   52MOL0     C 6947   6.549   8.003   2.461  0.5756  0.4635  1.3290
   52MOL0     C 6948   6.511   7.861   2.420 -0.1607  0.1587 -0.1674
   52MOL0     C 6949   6.603   7.762   2.475 -0.8614 -0.2869  0.4482
   52MOL0     C 6950   6.687   7.683   2.520  1.0037  2.1226  0.0296
   52MOL0     C 6951   6.688   8.362   2.423  0.6918 -0.1299 -0.7669
   52MOL0     C 6952   6.761   8.451   2.350 -0.4683 -0.0123 -0.0147
   52MOL0     H 6953   6.686   8.776   1.878  0.5884  1.1056 -1.5492
   52MOL0     H 6954   6.821   8.917   1.731  1.3460  0.3460 -0.4326
   52MOL0     H 6955   6.974   9.254   1.829 -2.3670 -1.2380 -0.6458
   52MOL0     H 6956   7.136   9.192   1.879  1.1994  1.4354 -0.7293
   52MOL0     H 6957   7.141   9.347   1.695 -1.2620 -0.0147  2.3410
   52MOL0     H 6958   7.192   9.186   1.632  1.8791  1.5415  0.8977
   52MOL0     H 6959   6.957   9.147   1.537 -1.4092 -0.3182  1.6128
   52MOL0     H 6960   6.904   9.306   1.600 -1.2908 -0.4715 -0.4688
   52MOL0     H 6961   7.096   9.427   1.483  0.2302  0.3292  0.2256
   52MOL0     H 6962   7.107   9.291   1.386  0.3562 -0.2517 -0.5243
   52MOL0     H 6963   6.846   9.335   1.329 -1.0959  0.2067  2.5981
   52MOL0     H 6964   6.855   9.458   1.439 -0.8303 -2.8775  0.5004
   52MOL0     H 6965   7.073   9.483   1.250 -0.3963 -0.2292  0.5164
   52MOL0     H 6966   6.909   9.449   1.171 -2.0227  1.3188  0.6236
   52MOL0     H 6967   6.808   9.617   1.198 -0.7797  2.7244  1.6679
   52MOL0     H 6968   6.881   9.675   1.350  1.4065  1.9528 -0.5162
   52MOL0     H 6969   6.977   9.833   1.216  0.4119 -1.0810  1.1459
   52MOL0     H 6970   6.998   9.734   1.089 -1.2350 -0.3019 -0.6732
   52MOL0     H 6971   7.153   9.778   1.452  0.7964 -2.6978  0.1498
   52MOL0     H 6972   7.540   9.705   1.393  1.6904  0.8834  0.5025
   52MOL0     H 6973   7.440   9.845   1.461 -3.0565  0.1051 -2.0411
   52MOL0     H 6974   7.535   9.667   1.632  0.2205  0.0350  1.5197
   52MOL0     H 6975   7.420   9.553   1.549  2.6440 -0.2410  0.3891
   52MOL0     H 6976   7.239   9.651   1.638  0.2469 -0.2664 -0.4552
   52MOL0     H 6977   7.323   9.801   1.687  0.1239 -0.1989  1.7417
   52MOL0     H 6978   7.297   9.651   1.885  2.8946 -1.9687  4.4643
   52MOL0     H 6979   7.472   9.656   1.846  0.1172 -2.7517  1.0141
   52MOL0     H 6980   7.399   9.228   1.770  1.0136  0.8225  0.4847
   52MOL0     H 6981   7.409   9.008   1.829  1.8196  1.9214  0.5914
   52MOL0     H 6982   7.436   8.969   1.995  2.2789  2.9444  1.1057
   52MOL0     H 6983   7.269   9.011   1.929 -0.8042  3.1339 -3.1601
   52MOL0     H 6984   7.135   8.813   2.296 -1.6210 -0.7623  0.6968
   52MOL0     H 6985   7.157   8.669   2.470  1.1768 -0.9069  0.3614
   52MOL0     H 6986   7.167   8.566   2.653 -0.3875 -1.8407 -0.4282
   52MOL0     H 6987   7.254   8.464   2.551 -0.4886  1.9362 -1.0342
   52MOL0     H 6988   7.292   8.469   2.862  2.1442 -2.5503  2.1612
   52MOL0     H 6989   7.217   8.334   2.767 -2.0642  1.4447 -0.8874
   52MOL0     H 6990   7.461   8.290   2.810  3.0979 -0.5121 -2.4943
   52MOL0     H 6991   7.498   8.430   2.714  1.7719 -2.3181  1.8462
   52MOL0     H 6992   7.340   8.204   2.600 -0.7085  1.5014 -0.1932
   52MOL0     H 6993   7.439   8.316   2.503  0.8799  2.2478 -0.6715
   52MOL0     H 6994   7.613   8.202   2.691 -1.8749 -0.1795  1.6869
   52MOL0     H 6995   7.612   8.155   2.526  1.2596  2.0302  0.6473
   52MOL0     H 6996   7.462   8.023   2.763 -1.3502 -0.2982 -1.6291
   52MOL0     H 6997   7.431   7.970   2.605  0.2468 -1.4688  1.7045
   52MOL0     H 6998   7.674   7.898   2.577  2.8780  0.0801  2.5625
   52MOL0     H 6999   7.593   7.817   2.708  2.0231 -0.7768  0.6836
   52MOL0     H 7000   7.778   8.049   2.737  2.2355 -0.4586  0.5050
   52MOL0     H 7001   7.817   7.888   2.769  0.3004  0.6691 -0.4972
   52MOL0     H 7002   7.553   8.838   2.563  2.4470  1.9443 -2.7075
   52MOL0     H 7003   7.542   8.943   2.359  0.7468 -0.4471  1.9342
   52MOL0     H 7004   7.370   9.385   2.234 -2.8019  3.3524 -0.7329
   52MOL0     H 7005   7.354   9.545   2.058  0.6839  0.9374 -1.2173
   52MOL0     H 7006   7.054   9.054   2.052  0.1480  1.0486 -3.6307
   52MOL0     H 7007   6.903   8.911   2.217  0.3650  0.9532  0.0103
   52MOL0     H 7008   6.527   8.632   2.192  1.3475  1.3232  0.6163
   52MOL0     H 7009   6.381   8.480   2.333  0.5431  2.3455 -0.1726
   52MOL0     H 7010   6.589   8.201   2.619 -0.7397 -2.7514  1.5902
   52MOL0     H 7011   6.430   8.255   2.661 -2.1076 -1.1462 -0.8190
   52MOL0     H 7012   6.349   8.061   2.531 -0.4000 -0.9141  2.7662
   52MOL0     H 7013   6.470   8.013   2.663 -3.0866 -1.0497  0.6310
   52MOL0     H 7014   6.652   8.013   2.498  1.6905  2.1805 -1.8496
   52MOL0     H 7015   6.549   8.064   2.371  1.0665 -1.5027 -0.0728
   52MOL0     H 7016   6.497   7.851   2.312 -0.0104 -1.5021 -0.0571
   52MOL0     H 7017   6.412   7.848   2.465 -1.4764  0.6892 -2.6900
   52MOL0     H 7018   6.757   7.613   2.562  1.1851  2.5545  0.4594
   52MOL0     H 7019   6.727   8.299   2.502  0.4399  1.1067  0.3878
   52MOL0     H 7020   6.869   8.458   2.357 -0.4514  5.0642 -1.5956
   53MOL0     O 7021  11.404   2.178   3.895  0.0034 -0.0506 -0.9475
   53MOL0     C 7022  11.476   2.128   3.987 -0.0973 -0.2445 -0.5501
   53MOL0     O 7023  11.577   2.035   3.961 -0.0195 -0.4821  0.3649
   53MOL0     C 7024  11.588   1.984   3.832  0.9313 -1.2314 -0.3550
   53MOL0     C 7025  11.692   2.026   3.752 -0.7012 -0.6579  0.6186
   53MOL0     C 7026  11.696   1.976   3.624 -0.2102 -0.0897 -0.3811
   53MOL0     C 7027  11.599   1.900   3.571  0.2886  0.4820  0.3727
   53MOL0     O 7028  11.590   1.857   3.431 -0.0330 -0.1630  0.1140
   53MOL0     C 7029  11.691   1.906   3.334 -0.1691 -0.6805  0.1988
   53MOL0     C 7030  11.826   1.826   3.341  0.2624 -0.5841 -0.0442
   53MOL0     C 7031  11.830   1.695   3.266  1.3183  0.0400  0.3473
   53MOL0     C 7032  11.945   1.598   3.303  0.3390  0.3944 -0.4518
   53MOL0     C 7033  12.037   1.565   3.191  1.0073 -0.0505  0.1723
   53MOL0     C 7034  12.185   1.546   3.254  0.8631 -0.1129  0.5092
   53MOL0     C 7035  12.298   1.537   3.154 -0.8067 -0.9084 -0.3905
   53MOL0     C 7036  12.444   1.519   3.213 -0.3141 -0.6170  0.0321
   53MOL0     N 7037  12.456   1.400   3.292 -0.5021 -0.4269 -0.5879
   53MOL0     C 7038  12.516   1.286   3.247 -0.2166  0.9674 -0.2634
   53MOL0     C 7039  12.534   1.202   3.358  0.5720 -1.0691  0.5280
   53MOL0     C 7040  12.605   1.070   3.340  0.4622  0.9940 -0.2308
   53MOL0     C 7041  12.522   0.950   3.351 -0.6910  0.0945 -0.2505
   53MOL0     C 7042  12.474   0.922   3.495 -0.2726  0.5357 -0.4392
   53MOL0     C 7043  12.571   0.842   3.580 -0.2456 -0.0527 -0.0492
   53MOL0     O 7044  12.589   0.712   3.523  0.2285 -0.2978  0.4176
   53MOL0     C 7045  12.689   0.620   3.567 -0.6448 -0.1466 -0.4636
   53MOL0     C 7046  12.785   0.644   3.666  0.6631 -0.5072  1.0416
   53MOL0     C 7047  12.873   0.537   3.698 -1.2226  0.7087 -0.1925
   53MOL0     C 7048  12.961   0.560   3.819  0.4785  0.0440  0.6362
   53MOL0     C 7049  12.881   0.418   3.626  0.1314  0.3382  0.7123
   53MOL0     C 7050  12.984   0.304   3.646  0.5423 -0.1325  0.5762
   53MOL0     O 7051  12.966   0.195   3.557 -0.0716 -0.0034  0.3025
   53MOL0     C 7052  13.015   0.073   3.592  0.6422  1.4226  0.9256
   53MOL0     C 7053  13.006   0.009   3.720 -0.4724  0.4539 -0.5315
   53MOL0     C 7054  13.049  -0.124   3.742 -0.3751 -0.7442  0.3295
   53MOL0     C 7055  13.092  -0.207   3.638  0.2034 -0.1787  0.1458
   53MOL0     O 7056  13.121  -0.343   3.638  0.0983  0.0438 -0.1317
   53MOL0     C 7057  13.065  -0.431   3.741 -0.1218 -0.0843  0.9103
   53MOL0     C 7058  12.931  -0.483   3.695  0.1864  0.6074  0.4875
   53MOL0     C 7059  12.848  -0.558   3.809 -0.1053  0.1040  0.9458
   53MOL0     C 7060  12.705  -0.606   3.776 -0.1506  0.1022 -0.2504
   53MOL0     C 7061  12.639  -0.637   3.916  0.0894  0.7311 -0.4848
   53MOL0     C 7062  12.506  -0.719   3.905  0.5430  0.0754  0.3961
   53MOL0     C 7063  12.461  -0.766   4.044 -0.0263 -0.0758 -0.2591
   53MOL0     C 7064  12.327  -0.824   4.046  0.7119  0.0904  0.6525
   53MOL0    Cl 7065  12.354  -0.985   3.977  0.1161  0.1857  0.0369
   53MOL0     C 7066  13.111  -0.140   3.510 -0.0658 -0.7855  0.1915
   53MOL0     C 7067  13.065  -0.006   3.494  0.6151 -0.3415  0.4447
   53MOL0     O 7068  13.063   0.308   3.735  0.5861 -0.5959  0.3420
   53MOL0     C 7069  12.783   0.399   3.525 -0.0652 -0.5445 -0.6956
   53MOL0     C 7070  12.689   0.491   3.505 -0.5277 -0.3670 -0.1599
   53MOL0     N 7071  12.502   1.268   3.470 -0.0220  0.6168 -0.1188
   53MOL0     N 7072  12.461   1.388   3.429 -0.1002  0.4466  0.1651
   53MOL0     C 7073  11.490   1.859   3.649  0.0712 -1.0291  0.8222
   53MOL0     C 7074  11.489   1.897   3.788 -1.0803 -0.2713 -0.6035
   53MOL0     C 7075  11.459   2.204   4.118 -0.2039  0.2511 -0.1811
   53MOL0     C 7076  11.345   2.271   4.159  0.4871  0.7040 -0.1469
   53MOL0     C 7077  11.347   2.341   4.278  0.3390 -0.2909  0.2827
   53MOL0     C 7078  11.463   2.366   4.346 -0.2837 -0.4696 -0.7259
   53MOL0     O 7079  11.444   2.444   4.460  0.3561  0.1538 -0.9339
   53MOL0     C 7080  11.567   2.460   4.539  0.4379 -0.8256 -0.9361
   53MOL0     C 7081  11.645   2.579   4.480  0.0636  0.1983 -0.8982
   53MOL0     C 7082  11.588   2.718   4.528 -0.2801 -0.1677 -0.0741
   53MOL0     C 7083  11.676   2.840   4.485 -0.3952 -0.5851  1.2044
   53MOL0     C 7084  11.628   2.962   4.542 -0.2124  0.5912 -0.6011
   53MOL0     C 7085  11.614   3.065   4.601  0.5180  0.6831 -0.8346
   53MOL0     C 7086  11.585   2.301   4.303 -0.2213 -0.8679 -0.3761
   53MOL0     C 7087  11.578   2.221   4.189 -1.2788 -0.6442 -1.0211
   53MOL0     H 7088  11.771   2.080   3.804 -2.5816  0.7314  2.1804
   53MOL0     H 7089  11.791   2.003   3.579  0.9025 -0.7228  1.4979
   53MOL0     H 7090  11.656   1.903   3.231  0.1101  3.3924 -0.1883
   53MOL0     H 7091  11.706   2.013   3.353  0.4611 -0.7842  0.3114
   53MOL0     H 7092  11.905   1.887   3.295 -0.7372 -1.1016 -2.6517
   53MOL0     H 7093  11.850   1.817   3.447 -2.8977 -0.9890  0.7421
   53MOL0     H 7094  11.739   1.637   3.285  1.4015  0.2608  1.4652
   53MOL0     H 7095  11.816   1.706   3.158 -1.2176 -1.7263  0.4019
   53MOL0     H 7096  12.004   1.646   3.382  1.5245  0.5715 -1.4109
   53MOL0     H 7097  11.911   1.504   3.349 -0.5379  2.0041  2.4429
   53MOL0     H 7098  11.996   1.481   3.134 -2.3113  0.8793  0.9868
   53MOL0     H 7099  12.045   1.645   3.116 -0.1409  0.1172  0.2110
   53MOL0     H 7100  12.209   1.623   3.327  1.1605 -1.0997  1.4760
   53MOL0     H 7101  12.175   1.452   3.310 -2.8515  0.3820  0.8989
   53MOL0     H 7102  12.276   1.445   3.099 -0.2507 -2.3344  1.6846
   53MOL0     H 7103  12.298   1.621   3.084  0.1572 -1.3337 -0.9203
   53MOL0     H 7104  12.469   1.602   3.279  0.5333 -1.6921  1.1217
   53MOL0     H 7105  12.510   1.507   3.126 -1.6827 -0.9907 -0.9894
   53MOL0     H 7106  12.546   1.273   3.144 -2.0852  0.8063 -0.8243
   53MOL0     H 7107  12.650   1.074   3.240 -0.1268  0.0626 -0.5375
   53MOL0     H 7108  12.692   1.067   3.407  0.0717  1.7829  0.3394
   53MOL0     H 7109  12.581   0.865   3.315 -1.2621 -0.8302  0.9680
   53MOL0     H 7110  12.434   0.955   3.285  0.6043  0.3495 -2.0341
   53MOL0     H 7111  12.382   0.865   3.505  0.0413  0.0398 -0.3397
   53MOL0     H 7112  12.445   1.014   3.547 -1.4830  2.1161 -3.6088
   53MOL0     H 7113  12.542   0.843   3.685  1.1167  0.5065  0.3506
   53MOL0     H 7114  12.664   0.899   3.587 -0.0056 -0.6565  2.5832
   53MOL0     H 7115  12.788   0.739   3.719 -5.1565 -0.0709  1.1765
   53MOL0     H 7116  12.949   0.498   3.908  0.6110 -0.4350  0.3234
   53MOL0     H 7117  13.065   0.559   3.785 -0.4073  1.3496 -2.5766
   53MOL0     H 7118  12.948   0.657   3.868  2.5916  0.1555  1.0591
   53MOL0     H 7119  12.959   0.069   3.798  0.6920  0.8290 -0.0951
   53MOL0     H 7120  13.044  -0.164   3.843 -1.0383 -1.1252  0.1506
   53MOL0     H 7121  13.131  -0.518   3.751  1.2085  0.7690 -0.1298
   53MOL0     H 7122  13.069  -0.389   3.842  3.3338 -0.8590  1.2396
   53MOL0     H 7123  12.862  -0.403   3.668 -0.8505 -1.3744 -3.4582
   53MOL0     H 7124  12.933  -0.544   3.604 -2.3088 -0.6726  1.1823
   53MOL0     H 7125  12.836  -0.484   3.889 -1.2431  0.7911  0.1683
   53MOL0     H 7126  12.915  -0.639   3.839 -0.1815 -0.2063  0.2937
   53MOL0     H 7127  12.648  -0.531   3.721  1.5594  1.6774  0.0365
   53MOL0     H 7128  12.712  -0.702   3.723  0.7417 -1.8985  3.1586
   53MOL0     H 7129  12.621  -0.543   3.970 -1.3533 -0.5715  1.4274
   53MOL0     H 7130  12.711  -0.702   3.966  1.2806 -0.5188 -3.6002
   53MOL0     H 7131  12.424  -0.662   3.861  0.6409 -1.9671 -2.7601
   53MOL0     H 7132  12.516  -0.801   3.833 -1.7966  1.5429 -1.7722
   53MOL0     H 7133  12.453  -0.671   4.099  0.4638  0.1958 -0.6500
   53MOL0     H 7134  12.528  -0.837   4.094 -0.5366  0.1984  0.8423
   53MOL0     H 7135  12.258  -0.761   3.989  2.3912 -0.3251 -2.0415
   53MOL0     H 7136  12.297  -0.839   4.150 -2.3312 -1.1333 -0.2833
   53MOL0     H 7137  13.162  -0.203   3.438 -1.0636 -0.1011 -1.1632
   53MOL0     H 7138  13.063   0.035   3.394  0.2161  0.1201  0.6343
   53MOL0     H 7139  12.788   0.321   3.450  0.2269 -0.9928 -0.2256
   53MOL0     H 7140  12.612   0.466   3.433 -2.2498  1.6915  0.8349
   53MOL0     H 7141  11.414   1.799   3.601  0.3352  1.4750 -3.2019
   53MOL0     H 7142  11.409   1.852   3.847  1.0156 -0.0601  2.6489
   53MOL0     H 7143  11.265   2.273   4.086 -0.0720 -3.1248  0.1656
   53MOL0     H 7144  11.253   2.382   4.315  1.2875 -0.2715  2.8346
   53MOL0     H 7145  11.546   2.485   4.644 -0.4522 -1.7498 -0.8775
   53MOL0     H 7146  11.615   2.362   4.542 -0.5109 -1.2751  0.3314
   53MOL0     H 7147  11.658   2.592   4.373  1.5374  0.6423 -0.6833
   53MOL0     H 7148  11.744   2.568   4.524  0.9943 -0.4376 -3.0445
   53MOL0     H 7149  11.573   2.715   4.636  3.9561  1.3564  0.7230
   53MOL0     H 7150  11.488   2.742   4.489 -0.2180 -2.6432 -2.0297
   53MOL0     H 7151  11.675   2.851   4.376  0.0148 -4.4326  0.6503
   53MOL0     H 7152  11.773   2.814   4.529 -0.7563 -2.2473  1.0969
   53MOL0     H 7153  11.596   3.166   4.633 -1.9622  0.1855 -0.3824
   53MOL0     H 7154  11.681   2.313   4.353  0.6714  0.4216 -2.2530
   53MOL0     H 7155  11.671   2.192   4.143  1.1453  2.3563  1.4719
   54MOL0     O 7156  10.915  10.906   4.871  0.6655  0.3385  0.1824
   54MOL0     C 7157  10.932  10.811   4.943 -0.3171  0.0695 -0.3633
   54MOL0     O 7158  10.978  10.824   5.073 -0.2372 -0.1935 -0.5894
   54MOL0     C 7159  11.004  10.952   5.114  0.2607  0.2553 -1.0885
   54MOL0     C 7160  10.909  11.048   5.168  0.6975  0.0663 -0.0794
   54MOL0     C 7161  10.948  11.179   5.206 -0.7984 -0.4526 -0.0067
   54MOL0     C 7162  11.084  11.208   5.212  0.4782  0.1187 -0.2423
   54MOL0     O 7163  11.127  11.321   5.258 -0.2570 -0.8368 -0.5893
   54MOL0     C 7164  11.086  11.438   5.184 -0.9060 -0.2989 -0.9862
   54MOL0     C 7165  11.185  11.539   5.242 -1.1660 -0.0325  0.1845
   54MOL0     C 7166  11.130  11.604   5.363  1.4820  0.3751  0.5661
   54MOL0     C 7167  11.238  11.683   5.430 -0.0385 -0.6615 -0.5043
   54MOL0     C 7168  11.166  11.762   5.550 -0.1148 -0.2498  0.4828
   54MOL0     C 7169  11.231  11.884   5.610 -1.7626 -0.0015  0.0741
   54MOL0     C 7170  11.312  11.965   5.508 -1.1155  0.0868  0.7165
   54MOL0     C 7171  11.462  11.923   5.515  0.8015 -0.1942  0.6949
   54MOL0     N 7172  11.565  12.025   5.478 -0.9000  0.7772  0.0612
   54MOL0     C 7173  11.668  12.008   5.386 -0.3314 -0.0328 -0.6496
   54MOL0     C 7174  11.723  12.135   5.386  0.0257 -0.4445 -0.0430
   54MOL0     C 7175  11.849  12.177   5.312  0.2063 -0.0518  0.3266
   54MOL0     C 7176  11.832  12.283   5.198 -0.1942  0.3943  0.6362
   54MOL0     C 7177  11.966  12.337   5.141 -0.9799 -0.0976  0.4039
   54MOL0     C 7178  12.040  12.228   5.056 -0.2525  0.0607 -0.2044
   54MOL0     O 7179  11.996  12.241   4.918 -0.6819  0.7583 -1.0219
   54MOL0     C 7180  12.045  12.337   4.835 -0.6009 -0.1293 -0.0724
   54MOL0     C 7181  11.972  12.344   4.716  0.6624  0.4560 -0.0561
   54MOL0     C 7182  11.993  12.452   4.629  0.2553  0.1081  1.0651
   54MOL0     C 7183  11.880  12.479   4.521  0.8505 -0.4736 -0.1373
   54MOL0     C 7184  12.099  12.541   4.642  1.0463 -0.2209  0.1538
   54MOL0     C 7185  12.144  12.624   4.535 -0.4857  0.0762  0.4150
   54MOL0     O 7186  12.132  12.757   4.541 -0.1421 -0.0326  0.9362
   54MOL0     C 7187  12.065  12.805   4.638  0.6630 -0.4406 -1.4121
   54MOL0     C 7188  12.097  12.840   4.769 -0.2990  1.0149  0.0151
   54MOL0     C 7189  12.008  12.900   4.863  0.4316  0.4489  0.5494
   54MOL0     C 7190  11.877  12.943   4.824 -0.3304 -0.9170 -0.4819
   54MOL0     O 7191  11.779  12.984   4.913  0.1241  0.1534  0.6018
   54MOL0     C 7192  11.709  13.112   4.876 -0.1837  1.0902  0.5064
   54MOL0     C 7193  11.607  13.139   4.989  0.5752 -0.9457  0.0233
   54MOL0     C 7194  11.481  13.038   4.992  0.1636  0.5439 -0.5738
   54MOL0     C 7195  11.393  13.080   4.867  0.3833 -0.4489 -0.2196
   54MOL0     C 7196  11.260  13.010   4.882  0.4895 -0.4473  0.0457
   54MOL0     C 7197  11.222  12.912   4.758  0.3961 -0.5039  0.7212
   54MOL0     C 7198  11.339  12.808   4.753  0.0389  0.3919  0.4318
   54MOL0     C 7199  11.295  12.663   4.712 -0.4532 -0.1455  0.0573
   54MOL0    Cl 7200  11.246  12.657   4.536  0.0514  0.2371 -0.5272
   54MOL0     C 7201  11.843  12.912   4.686 -0.1249 -0.7966  0.2362
   54MOL0     C 7202  11.937  12.851   4.601  0.5808 -0.7216  0.0839
   54MOL0     O 7203  12.197  12.564   4.445 -0.0697 -0.1154  0.0197
   54MOL0     C 7204  12.173  12.528   4.756  0.4510 -0.0194 -0.5952
   54MOL0     C 7205  12.149  12.436   4.860  0.2201  0.7072  0.2924
   54MOL0     N 7206  11.645  12.228   5.471  0.4173  0.4529  0.5595
   54MOL0     N 7207  11.562  12.152   5.522  0.7770  0.2368  0.0499
   54MOL0     C 7208  11.178  11.113   5.170 -0.2890  0.3283 -0.0892
   54MOL0     C 7209  11.138  10.989   5.118  0.8487 -0.2757 -0.8309
   54MOL0     C 7210  10.913  10.675   4.890 -0.5363  1.0210  0.4311
   54MOL0     C 7211  10.906  10.656   4.750  0.6696  0.4296 -0.3308
   54MOL0     C 7212  10.895  10.527   4.699  0.1619  0.2323  0.0843
   54MOL0     C 7213  10.907  10.419   4.796 -0.0795  0.1242 -0.5965
   54MOL0     O 7214  10.922  10.287   4.759 -0.1805 -0.1743 -0.3097
   54MOL0     C 7215  10.945  10.256   4.625 -0.1028  0.4187 -0.2621
   54MOL0     C 7216  10.986  10.106   4.633 -0.4653 -0.5418  0.1197
   54MOL0     C 7217  10.855  10.017   4.647  0.2035 -0.5336  0.2424
   54MOL0     C 7218  10.889   9.871   4.678  0.3517 -1.0155 -0.4996
   54MOL0     C 7219  10.782   9.776   4.655 -0.5504  0.1394 -0.2007
   54MOL0     C 7220  10.690   9.700   4.641  0.0190  0.6527 -0.5695
   54MOL0     C 7221  10.906  10.435   4.935  0.2541 -0.0077 -0.0120
   54MOL0     C 7222  10.910  10.566   4.987  0.2424  0.4366  0.6273
   54MOL0     H 7223  10.804  11.022   5.178 -0.1682  2.7083 -1.4614
   54MOL0     H 7224  10.869  11.253   5.219 -1.8283 -1.5317  0.0572
   54MOL0     H 7225  11.112  11.432   5.078  0.2392  1.3281 -0.8324
   54MOL0     H 7226  10.982  11.466   5.203 -1.0933 -2.2854  1.2609
   54MOL0     H 7227  11.285  11.501   5.266 -0.6172  1.3278  0.1380
   54MOL0     H 7228  11.197  11.628   5.180 -2.3899  0.8576  1.1891
   54MOL0     H 7229  11.040  11.659   5.333  0.0101 -2.8378 -1.4130
   54MOL0     H 7230  11.087  11.534   5.435  0.4751  1.8577  1.4883
   54MOL0     H 7231  11.319  11.625   5.474  0.9614  0.1776 -1.1959
   54MOL0     H 7232  11.287  11.748   5.357  0.4256  1.9041  1.8920
   54MOL0     H 7233  11.070  11.798   5.511 -0.5496 -0.6062  1.1847
   54MOL0     H 7234  11.141  11.681   5.619  1.3802 -1.2265 -0.0828
   54MOL0     H 7235  11.144  11.947   5.629 -1.8001 -0.4342  1.4535
   54MOL0     H 7236  11.288  11.855   5.699 -2.2720 -3.0811 -0.4827
   54MOL0     H 7237  11.279  11.947   5.406 -0.3880  0.8388  0.3301
   54MOL0     H 7238  11.290  12.070   5.530 -1.5231  0.6445 -1.9871
   54MOL0     H 7239  11.476  11.835   5.451  2.2621 -0.4866  1.3609
   54MOL0     H 7240  11.471  11.885   5.617  0.2088  2.6197  1.8693
   54MOL0     H 7241  11.715  11.919   5.346  1.1567  0.0866  0.7409
   54MOL0     H 7242  11.912  12.229   5.385  2.0947  2.6896 -2.9861
   54MOL0     H 7243  11.916  12.095   5.283  1.2904  0.4300  1.3693
   54MOL0     H 7244  11.767  12.366   5.229  1.6088  1.4274  1.8562
   54MOL0     H 7245  11.787  12.235   5.111  0.3361  0.5439  0.2753
   54MOL0     H 7246  12.026  12.368   5.227 -0.3179  1.1152 -0.4621
   54MOL0     H 7247  11.953  12.430   5.085  3.6754  0.1180 -0.7551
   54MOL0     H 7248  12.030  12.125   5.091  0.7852 -0.1434 -0.4823
   54MOL0     H 7249  12.149  12.233   5.053 -0.2820  0.1339 -2.2813
   54MOL0     H 7250  11.891  12.275   4.693  1.4774 -1.1422  1.6152
   54MOL0     H 7251  11.861  12.584   4.500  1.9604 -0.3216 -0.4471
   54MOL0     H 7252  11.901  12.426   4.427 -0.3662  0.9454 -1.2529
   54MOL0     H 7253  11.788  12.435   4.559 -1.4737  2.0008 -2.4757
   54MOL0     H 7254  12.190  12.800   4.809 -1.4536 -1.2552  0.6086
   54MOL0     H 7255  12.049  12.918   4.962  0.8986 -0.2821  0.4937
   54MOL0     H 7256  11.789  13.187   4.872  1.1085 -0.2230  0.4926
   54MOL0     H 7257  11.676  13.100   4.773  1.5011 -1.5823  0.1612
   54MOL0     H 7258  11.666  13.109   5.077 -0.2650 -2.1958  0.1972
   54MOL0     H 7259  11.574  13.243   4.995 -1.4556 -1.6192  1.4486
   54MOL0     H 7260  11.430  13.057   5.087  0.8772  0.5719 -0.1878
   54MOL0     H 7261  11.516  12.934   4.988 -3.7852 -0.9239 -2.2365
   54MOL0     H 7262  11.372  13.187   4.876 -2.7390 -1.1030  1.8855
   54MOL0     H 7263  11.438  13.051   4.772  0.7042 -0.5102 -0.0520
   54MOL0     H 7264  11.180  13.084   4.892 -1.7468 -2.2840 -2.5680
   54MOL0     H 7265  11.246  12.957   4.977 -0.8697 -0.2284 -0.0108
   54MOL0     H 7266  11.129  12.859   4.783 -0.6671  1.6660  1.6888
   54MOL0     H 7267  11.214  12.972   4.667  1.0297 -0.1465  0.9015
   54MOL0     H 7268  11.370  12.791   4.856 -2.4506 -1.6887  0.9572
   54MOL0     H 7269  11.423  12.845   4.694 -1.2125  0.8021 -1.2059
   54MOL0     H 7270  11.204  12.645   4.770 -0.9227 -1.1313 -0.9467
   54MOL0     H 7271  11.370  12.587   4.736  0.1363 -0.7572 -3.1977
   54MOL0     H 7272  11.739  12.918   4.656 -0.0310  3.2959  0.1192
   54MOL0     H 7273  11.897  12.838   4.501  1.9075  2.8791 -1.0391
   54MOL0     H 7274  12.254  12.600   4.760 -0.1600  0.6383  1.5443
   54MOL0     H 7275  12.201  12.436   4.956  0.5931 -0.2116  0.1042
   54MOL0     H 7276  11.279  11.152   5.165 -0.5494  1.2214  1.1830
   54MOL0     H 7277  11.215  10.927   5.072 -0.3641 -1.8569 -0.8127
   54MOL0     H 7278  10.914  10.750   4.698  0.8910  0.3387 -0.4644
   54MOL0     H 7279  10.872  10.516   4.593 -1.2011  1.7808  0.1848
   54MOL0     H 7280  10.858  10.270   4.561 -0.0919  0.5532 -0.2481
   54MOL0     H 7281  11.030  10.315   4.587 -0.8203 -0.3037 -3.2742
   54MOL0     H 7282  11.055  10.079   4.714 -0.1189 -1.2206 -0.3871
   54MOL0     H 7283  11.035  10.075   4.541  3.4043  1.5100  1.2867
   54MOL0     H 7284  10.799  10.035   4.555  0.9216  2.3536  0.2697
   54MOL0     H 7285  10.796  10.059   4.729  1.2380  0.6251  0.4074
   54MOL0     H 7286  10.918   9.864   4.783  1.3835 -0.1919 -0.7207
   54MOL0     H 7287  10.978   9.843   4.622  0.7373 -0.1548 -0.3162
   54MOL0     H 7288  10.608   9.633   4.624  0.7055 -0.1535 -0.7304
   54MOL0     H 7289  10.909  10.355   5.008  0.3616  1.8205  2.0982
   54MOL0     H 7290  10.913  10.588   5.093  4.0034  1.4473  0.4492
   55MOL0     O 7291   8.784   6.572   4.257  0.1634 -0.0350  0.1115
   55MOL0     C 7292   8.708   6.636   4.338 -1.2156 -0.4422 -0.4174
   55MOL0     O 7293   8.588   6.695   4.315  0.1694  0.0833 -0.0188
   55MOL0     C 7294   8.550   6.710   4.187  0.1870 -0.0442  0.0451
   55MOL0     C 7295   8.414   6.698   4.168  0.3922  0.5942 -0.1727
   55MOL0     C 7296   8.353   6.713   4.043  0.4054 -0.8930  0.3185
   55MOL0     C 7297   8.440   6.731   3.930  0.0529  0.3551  0.6213
   55MOL0     O 7298   8.394   6.765   3.806  0.4586 -0.4238  0.4873
   55MOL0     C 7299   8.341   6.650   3.741 -0.8525  0.5355  0.1961
   55MOL0     C 7300   8.340   6.693   3.596 -0.6916 -0.3304 -0.6464
   55MOL0     C 7301   8.289   6.571   3.515 -1.1619 -0.2334  0.1168
   55MOL0     C 7302   8.255   6.611   3.370 -0.0055  0.1369  0.0800
   55MOL0     C 7303   8.183   6.499   3.293 -0.4806  0.1089 -0.5763
   55MOL0     C 7304   8.158   6.529   3.142 -0.1212  0.4335 -0.2123
   55MOL0     C 7305   8.117   6.399   3.069  0.3214  0.6376  0.0531
   55MOL0     C 7306   8.107   6.419   2.920  0.1088  0.0261 -1.4354
   55MOL0     N 7307   8.025   6.533   2.888  1.0855 -0.5757  0.1235
   55MOL0     C 7308   7.878   6.545   2.885 -1.1993 -0.2839  0.6461
   55MOL0     C 7309   7.864   6.671   2.843 -0.6457  0.6394  0.4302
   55MOL0     C 7310   7.741   6.752   2.831 -0.7342  0.9611 -0.2151
   55MOL0     C 7311   7.724   6.821   2.703  0.1996  1.0695  0.4924
   55MOL0     C 7312   7.584   6.879   2.677 -0.5961 -0.2916 -0.4227
   55MOL0     C 7313   7.558   6.926   2.533 -0.5879  1.3370 -0.1067
   55MOL0     O 7314   7.638   7.046   2.518  0.3999  0.1013 -1.0865
   55MOL0     C 7315   7.566   7.147   2.465  0.3556 -0.3412  1.1092
   55MOL0     C 7316   7.471   7.195   2.541  0.7300 -0.6553 -0.3216
   55MOL0     C 7317   7.391   7.305   2.501  0.6640 -0.3126 -0.0010
   55MOL0     C 7318   7.283   7.344   2.593  0.5252  0.2386 -0.7157
   55MOL0     C 7319   7.421   7.369   2.382  0.4451 -0.5675 -0.0591
   55MOL0     C 7320   7.339   7.483   2.321  0.2267  0.3717  0.6241
   55MOL0     O 7321   7.404   7.542   2.213 -0.5710  0.1002  1.1892
   55MOL0     C 7322   7.356   7.639   2.130 -0.4087  0.7874  0.1988
   55MOL0     C 7323   7.235   7.710   2.139 -0.3086  1.1432 -0.0139
   55MOL0     C 7324   7.202   7.812   2.051  1.2296  0.3116  0.7112
   55MOL0     C 7325   7.291   7.851   1.946 -0.8890 -0.3566 -0.9551
   55MOL0     O 7326   7.263   7.965   1.876 -0.5152 -1.2392 -0.0640
   55MOL0     C 7327   7.379   8.042   1.816  1.3367  1.0047  0.6159
   55MOL0     C 7328   7.327   8.172   1.759  0.3857 -0.3550  0.3092
   55MOL0     C 7329   7.408   8.196   1.626  0.7306 -0.0774 -1.3485
   55MOL0     C 7330   7.383   8.330   1.572  0.2548 -0.9384 -1.1255
   55MOL0     C 7331   7.449   8.364   1.437 -0.4047 -0.2294  0.1722
   55MOL0     C 7332   7.603   8.370   1.448 -0.8309  0.0963  1.2496
   55MOL0     C 7333   7.661   8.384   1.307 -0.1935 -0.7359 -0.5429
   55MOL0     C 7334   7.621   8.269   1.217 -0.1287 -0.2462  0.4773
   55MOL0    Cl 7335   7.740   8.238   1.092 -0.5919 -0.3104  0.4066
   55MOL0     C 7336   7.416   7.779   1.943 -1.1917  0.6289 -0.1902
   55MOL0     C 7337   7.446   7.681   2.037  0.4420  0.0675  0.5439
   55MOL0     O 7338   7.236   7.507   2.366 -0.7518 -0.4015 -0.1515
   55MOL0     C 7339   7.532   7.321   2.303 -0.5956 -0.1187  0.5969
   55MOL0     C 7340   7.595   7.195   2.336  0.0123 -1.0077 -0.3191
   55MOL0     N 7341   7.985   6.723   2.813 -0.5894  0.1647  0.7256
   55MOL0     N 7342   8.086   6.647   2.853  0.7311  0.3455 -0.5887
   55MOL0     C 7343   8.577   6.734   3.947  0.9725 -0.5134  0.5394
   55MOL0     C 7344   8.630   6.735   4.077 -0.9114 -0.0266  0.3141
   55MOL0     C 7345   8.756   6.642   4.477 -0.1387 -0.3641  0.1675
   55MOL0     C 7346   8.686   6.713   4.574 -0.2686 -0.6406  0.0269
   55MOL0     C 7347   8.723   6.712   4.709  0.2011  0.3086  0.0546
   55MOL0     C 7348   8.849   6.664   4.741  0.2754  0.7098 -0.3373
   55MOL0     O 7349   8.886   6.648   4.876 -0.6160 -0.2968  0.3097
   55MOL0     C 7350   9.030   6.653   4.911  0.7381 -0.1822  0.0468
   55MOL0     C 7351   9.067   6.718   5.044 -0.0375 -0.2868 -1.0254
   55MOL0     C 7352   9.041   6.863   5.067  0.6209 -0.4768  0.6156
   55MOL0     C 7353   8.887   6.902   5.054  0.3347 -0.7838  0.2509
   55MOL0     C 7354   8.857   7.040   5.096 -0.5575  0.1468 -0.2443
   55MOL0     C 7355   8.876   7.151   5.125  0.9728  0.1855 -0.0676
   55MOL0     C 7356   8.923   6.604   4.642 -0.2850 -0.0282  0.5045
   55MOL0     C 7357   8.881   6.585   4.509 -1.6697 -0.1744  0.0805
   55MOL0     H 7358   8.358   6.670   4.256  1.0528  2.7209  1.0164
   55MOL0     H 7359   8.245   6.701   4.034  0.5314 -2.0432  0.2771
   55MOL0     H 7360   8.417   6.572   3.749  1.1639  1.6205 -4.5393
   55MOL0     H 7361   8.250   6.620   3.794 -0.2628  2.1806  2.2894
   55MOL0     H 7362   8.261   6.768   3.592 -1.6099 -1.2871 -4.2538
   55MOL0     H 7363   8.433   6.716   3.545  1.1512 -0.6617  2.3278
   55MOL0     H 7364   8.358   6.486   3.514 -4.1366 -2.8282  0.5848
   55MOL0     H 7365   8.204   6.523   3.565  0.0170 -1.6551  0.8194
   55MOL0     H 7366   8.190   6.699   3.360 -2.2938 -1.1857  2.2567
   55MOL0     H 7367   8.348   6.625   3.313 -2.1350 -2.3493 -4.5169
   55MOL0     H 7368   8.250   6.413   3.300  1.5982  1.7168  0.5123
   55MOL0     H 7369   8.089   6.477   3.344 -1.1768  0.9557 -1.4526
   55MOL0     H 7370   8.078   6.602   3.129 -0.9827 -1.0386 -5.7262
   55MOL0     H 7371   8.250   6.562   3.093 -1.4692  0.6819 -2.7365
   55MOL0     H 7372   8.193   6.324   3.092  2.4263  2.0930 -1.8014
   55MOL0     H 7373   8.017   6.377   3.106 -0.5271  3.4612 -0.2578
   55MOL0     H 7374   8.055   6.329   2.886 -3.0376 -0.5409  3.8665
   55MOL0     H 7375   8.212   6.416   2.889  0.3396 -0.7034 -0.6244
   55MOL0     H 7376   7.798   6.477   2.914 -1.1621 -0.0169  1.3790
   55MOL0     H 7377   7.650   6.696   2.854 -2.2268  3.8292  1.5140
   55MOL0     H 7378   7.742   6.830   2.908 -2.5729  1.8158 -0.9861
   55MOL0     H 7379   7.743   6.748   2.624 -3.3627  2.1535 -1.5564
   55MOL0     H 7380   7.795   6.903   2.698  3.1565 -1.3808 -2.7632
   55MOL0     H 7381   7.582   6.960   2.751  1.4090 -2.5185  2.3269
   55MOL0     H 7382   7.508   6.803   2.697  0.5689 -0.6289  3.9244
   55MOL0     H 7383   7.451   6.942   2.514 -0.5622  2.1629  0.4168
   55MOL0     H 7384   7.597   6.850   2.464 -5.6334 -0.7272 -1.1926
   55MOL0     H 7385   7.443   7.147   2.635 -2.5517  2.3459  0.4612
   55MOL0     H 7386   7.182   7.321   2.558 -0.3120  2.2349  0.2335
   55MOL0     H 7387   7.300   7.297   2.691 -3.2481  0.4795  0.2146
   55MOL0     H 7388   7.287   7.449   2.624 -1.7464  0.2145 -0.1405
   55MOL0     H 7389   7.155   7.685   2.208 -2.0415  4.0800 -0.8067
   55MOL0     H 7390   7.099   7.847   2.047  0.5949 -1.5095  0.1137
   55MOL0     H 7391   7.441   8.074   1.900  0.8835  3.1561  0.1675
   55MOL0     H 7392   7.426   7.980   1.738 -0.9896  1.1225 -0.9756
   55MOL0     H 7393   7.219   8.173   1.740  0.2030 -1.4605  1.1342
   55MOL0     H 7394   7.358   8.250   1.828 -0.9942 -1.9572  2.8865
   55MOL0     H 7395   7.366   8.125   1.554 -1.3005 -0.5053  0.1612
   55MOL0     H 7396   7.514   8.178   1.646  0.5819 -0.6857 -1.0743
   55MOL0     H 7397   7.277   8.347   1.553  0.1194  0.0309  0.3721
   55MOL0     H 7398   7.415   8.401   1.649 -2.8526 -0.3721 -0.2058
   55MOL0     H 7399   7.429   8.465   1.402  0.9550 -1.4088 -4.7876
   55MOL0     H 7400   7.416   8.286   1.367 -1.6360 -1.6150  2.1759
   55MOL0     H 7401   7.634   8.455   1.509  0.3398 -0.4119  1.3925
   55MOL0     H 7402   7.645   8.275   1.483  0.5188 -0.1066 -0.7077
   55MOL0     H 7403   7.770   8.388   1.316 -0.2617 -0.3488  0.1800
   55MOL0     H 7404   7.628   8.480   1.266 -3.2328 -0.9088  1.1709
   55MOL0     H 7405   7.523   8.286   1.172 -0.3440  0.5705  1.2231
   55MOL0     H 7406   7.610   8.173   1.269 -2.8183 -0.5109 -0.4217
   55MOL0     H 7407   7.498   7.810   1.879 -0.0131  0.3759  1.1608
   55MOL0     H 7408   7.546   7.639   2.025 -0.6741 -2.3366 -1.1480
   55MOL0     H 7409   7.560   7.369   2.211 -2.3096  3.6058  1.8230
   55MOL0     H 7410   7.666   7.146   2.272  2.6231  2.8372 -0.7056
   55MOL0     H 7411   8.643   6.762   3.866 -0.2389 -1.5653 -0.8594
   55MOL0     H 7412   8.738   6.745   4.073 -0.3497 -4.5148 -1.4095
   55MOL0     H 7413   8.593   6.762   4.547  0.1087  2.3450  3.3489
   55MOL0     H 7414   8.654   6.775   4.765  2.0407  3.7079 -1.2354
   55MOL0     H 7415   9.068   6.551   4.905 -0.1333 -0.5946  1.0298
   55MOL0     H 7416   9.079   6.705   4.829 -0.5004  1.1260  0.0871
   55MOL0     H 7417   9.171   6.693   5.067  0.0741  0.6432 -0.4651
   55MOL0     H 7418   8.996   6.678   5.117 -2.9536  4.9426 -0.5393
   55MOL0     H 7419   9.097   6.929   5.001 -0.9565 -0.2141 -0.5316
   55MOL0     H 7420   9.074   6.892   5.167  2.0125  0.0662  0.0223
   55MOL0     H 7421   8.825   6.836   5.115  0.7645 -1.3817  0.0445
   55MOL0     H 7422   8.862   6.881   4.950 -0.1907 -3.0492  0.7923
   55MOL0     H 7423   8.906   7.254   5.134 -0.5153  0.5345  1.5740
   55MOL0     H 7424   9.011   6.542   4.653 -1.2463 -1.7493 -0.9241
   55MOL0     H 7425   8.935   6.522   4.440  0.4169 -0.5777  1.9642
   56MOL0     O 7426  10.306  10.237  10.674 -0.7123 -0.4029  0.2976
   56MOL0     C 7427  10.359  10.149  10.730 -0.6939  0.9052  0.2466
   56MOL0     O 7428  10.299  10.017  10.747  0.4485 -0.0854  0.0464
   56MOL0     C 7429  10.166  10.005  10.719 -0.2050  0.1994  0.5253
   56MOL0     C 7430  10.062  10.098  10.754 -0.3490 -0.0754  0.2299
   56MOL0     C 7431   9.937  10.087  10.695  0.4771 -0.8931  0.0955
   56MOL0     C 7432   9.910   9.988  10.607  0.5168  1.1402 -0.1660
   56MOL0     O 7433   9.786   9.996  10.557 -0.1628  0.6528  0.3865
   56MOL0     C 7434   9.750   9.921  10.436 -0.0266 -0.2333  0.8330
   56MOL0     C 7435   9.610   9.969  10.376 -0.8152 -0.5053 -0.3661
   56MOL0     C 7436   9.503   9.982  10.486  1.4234  0.9480 -1.0430
   56MOL0     C 7437   9.363   9.983  10.423 -1.0653  0.0166  0.4924
   56MOL0     C 7438   9.274  10.052  10.517  0.2121  0.2104  0.1317
   56MOL0     C 7439   9.126  10.059  10.481  0.2460  0.8957 -0.3897
   56MOL0     C 7440   9.033  10.018  10.601  0.4565 -0.6135 -0.1005
   56MOL0     C 7441   8.891   9.979  10.550  0.5456  0.8160 -0.9268
   56MOL0     N 7442   8.821   9.944  10.686 -0.1129 -0.4863  0.6612
   56MOL0     C 7443   8.801   9.816  10.738 -0.2877  0.3559  0.6273
   56MOL0     C 7444   8.747   9.832  10.859  0.0404  0.2342 -0.3252
   56MOL0     C 7445   8.706   9.713  10.936  1.0359  0.1007 -0.3020
   56MOL0     C 7446   8.552   9.684  10.903 -0.3083 -1.0268 -0.6043
   56MOL0     C 7447   8.477   9.564  10.937 -1.0721  0.2261  0.1476
   56MOL0     C 7448   8.496   9.510  11.073  0.2021 -0.0616  0.2401
   56MOL0     O 7449   8.490   9.610  11.178  0.1797 -0.7713  1.1279
   56MOL0     C 7450   8.380   9.693  11.178  0.0262  0.1611  0.0815
   56MOL0     C 7451   8.251   9.646  11.146 -0.3569 -0.1232  0.3937
   56MOL0     C 7452   8.131   9.724  11.158 -0.2741  1.9697 -0.4341
   56MOL0     C 7453   8.004   9.660  11.097 -0.0762 -0.1473 -0.5601
   56MOL0     C 7454   8.150   9.849  11.233 -1.3319  0.3177 -0.4525
   56MOL0     C 7455   8.034   9.938  11.269 -0.5510 -0.2695 -0.2512
   56MOL0     O 7456   7.927   9.879  11.339  1.1105 -0.4751  0.1451
   56MOL0     C 7457   7.832   9.973  11.384 -0.4215 -0.4850 -0.4830
   56MOL0     C 7458   7.831  10.004  11.516  1.2343 -0.4803  0.5637
   56MOL0     C 7459   7.728  10.086  11.566  0.5158  0.0981 -0.2521
   56MOL0     C 7460   7.631  10.133  11.486 -0.2308 -0.3998 -0.2711
   56MOL0     O 7461   7.544  10.227  11.528 -0.7638  0.3152  0.1923
   56MOL0     C 7462   7.596  10.350  11.577 -0.1196  0.6627 -0.2632
   56MOL0     C 7463   7.515  10.402  11.700 -0.5968  0.4672 -0.0826
   56MOL0     C 7464   7.370  10.437  11.666  0.6235  0.9916  1.3390
   56MOL0     C 7465   7.301  10.519  11.768  0.2130  1.0238 -0.0678
   56MOL0     C 7466   7.285  10.457  11.905  0.5061  0.1890 -0.9045
   56MOL0     C 7467   7.177  10.347  11.927  0.5154  0.5926  0.2676
   56MOL0     C 7468   7.031  10.391  11.884  0.7990  0.1027  0.0292
   56MOL0     C 7469   6.925  10.315  11.967  0.0473 -0.7176 -0.0622
   56MOL0    Cl 7470   6.771  10.390  11.921  0.6604  0.0650  0.5741
   56MOL0     C 7471   7.628  10.090  11.353  0.4045 -0.2694  0.7090
   56MOL0     C 7472   7.724  10.016  11.302 -0.1300  0.2997 -0.1360
   56MOL0     O 7473   8.037  10.059  11.229 -0.0669  0.5015 -0.5978
   56MOL0     C 7474   8.281   9.904  11.254  0.3339  0.5308 -0.2639
   56MOL0     C 7475   8.392   9.820  11.232 -0.0892  0.0313  0.6057
   56MOL0     N 7476   8.730   9.968  10.884 -0.8260  0.3619  0.2410
   56MOL0     N 7477   8.765  10.028  10.778  0.0351 -0.5170 -0.3884
   56MOL0     C 7478   9.999   9.890  10.591  1.0750  1.2661  0.1555
   56MOL0     C 7479  10.131   9.894  10.642 -1.1448 -0.1463 -0.4136
   56MOL0     C 7480  10.504  10.173  10.754 -1.5423 -0.4465 -0.2289
   56MOL0     C 7481  10.558  10.306  10.758  0.3474 -0.6989  1.0276
   56MOL0     C 7482  10.700  10.316  10.761  0.8423  0.3456 -0.7438
   56MOL0     C 7483  10.781  10.200  10.779 -0.1016  0.3678 -1.5763
   56MOL0     O 7484  10.913  10.233  10.792  0.7805  0.7648 -0.0223
   56MOL0     C 7485  11.013  10.134  10.826 -0.1628  0.1060 -0.4720
   56MOL0     C 7486  11.165  10.186  10.817  1.2566  0.9385  0.5744
   56MOL0     C 7487  11.260  10.090  10.731  0.3309  0.0829 -0.2623
   56MOL0     C 7488  11.398  10.153  10.738  0.1176 -0.1425 -0.0076
   56MOL0     C 7489  11.505  10.084  10.669 -0.2208 -0.3713 -0.3188
   56MOL0     C 7490  11.595  10.043  10.605  0.2177 -0.2215  0.3393
   56MOL0     C 7491  10.728  10.072  10.782 -0.5410 -0.2854  0.2395
   56MOL0     C 7492  10.591  10.061  10.755  0.3111  0.1709  1.2859
   56MOL0     H 7493  10.091  10.178  10.821 -0.5122  2.6088 -2.6896
   56MOL0     H 7494   9.858  10.159  10.716 -1.8566 -3.5038  0.8561
   56MOL0     H 7495   9.827   9.923  10.359 -0.5563 -0.2321  0.2917
   56MOL0     H 7496   9.755   9.816  10.466  1.3158 -0.9037 -1.4856
   56MOL0     H 7497   9.604  10.055  10.309 -1.6134 -1.4124 -1.5074
   56MOL0     H 7498   9.590   9.874  10.324 -0.3776 -0.4918 -0.5574
   56MOL0     H 7499   9.516   9.896  10.553  2.3600  1.6829 -0.2692
   56MOL0     H 7500   9.521  10.067  10.552 -2.2781  2.7120 -2.0278
   56MOL0     H 7501   9.357  10.033  10.326 -0.8104 -1.7273 -0.4593
   56MOL0     H 7502   9.336   9.878  10.406  0.9263 -0.3307 -0.9781
   56MOL0     H 7503   9.264  10.008  10.617 -1.4389  2.6267  1.1151
   56MOL0     H 7504   9.318  10.151  10.525  0.2208  0.0164  3.8982
   56MOL0     H 7505   9.087  10.156  10.447 -0.4381 -0.0579 -2.4631
   56MOL0     H 7506   9.104   9.989  10.400  0.3145 -2.7943  2.4992
   56MOL0     H 7507   9.084   9.938  10.656 -0.0805  0.9024  2.7942
   56MOL0     H 7508   9.020  10.097  10.675  0.1384  0.1068 -0.9120
   56MOL0     H 7509   8.895   9.885  10.494 -2.5413 -2.6731  3.9471
   56MOL0     H 7510   8.847  10.062  10.493  0.3485 -0.6356 -2.9759
   56MOL0     H 7511   8.800   9.720  10.687 -0.9561  1.4909 -1.6271
   56MOL0     H 7512   8.772   9.632  10.903  1.8780  0.2804  0.8780
   56MOL0     H 7513   8.716   9.739  11.042  2.5538  1.3854 -0.7148
   56MOL0     H 7514   8.546   9.692  10.794 -0.4297  0.2511 -0.5223
   56MOL0     H 7515   8.494   9.771  10.936 -0.0728  0.2501 -3.2867
   56MOL0     H 7516   8.533   9.492  10.877  1.0384 -0.5458  2.8690
   56MOL0     H 7517   8.369   9.564  10.917 -0.6795 -1.9704 -2.5755
   56MOL0     H 7518   8.594   9.462  11.078  0.1618 -0.0424  1.9524
   56MOL0     H 7519   8.431   9.424  11.093  0.0571 -0.0543 -0.2009
   56MOL0     H 7520   8.238   9.541  11.123 -1.5161 -0.3124  1.7547
   56MOL0     H 7521   7.973   9.562  11.134 -2.9416  1.8590  3.0986
   56MOL0     H 7522   7.919   9.717  11.137 -1.7445 -3.1270  0.4895
   56MOL0     H 7523   8.003   9.663  10.988  0.0845  1.3310 -0.5514
   56MOL0     H 7524   7.906   9.971  11.587 -0.4421 -0.0773  2.6229
   56MOL0     H 7525   7.733  10.111  11.671 -1.7462 -1.1954  0.2356
   56MOL0     H 7526   7.695  10.336  11.621 -1.2438  0.2521  2.3131
   56MOL0     H 7527   7.602  10.421  11.494 -0.7986  1.2202  0.1586
   56MOL0     H 7528   7.497  10.311  11.758 -2.4919  0.5950 -0.4042
   56MOL0     H 7529   7.559  10.485  11.755 -0.6445  0.5673 -0.1945
   56MOL0     H 7530   7.309  10.347  11.655  0.0359  1.4649  0.5609
   56MOL0     H 7531   7.368  10.485  11.567  2.6080  0.6157  1.0755
   56MOL0     H 7532   7.352  10.614  11.787 -2.4151  2.1986  1.8373
   56MOL0     H 7533   7.200  10.544  11.733 -1.6727 -4.0019  0.9020
   56MOL0     H 7534   7.272  10.535  11.980 -0.2897 -0.6260 -0.1846
   56MOL0     H 7535   7.376  10.407  11.939 -0.8165 -0.0511  2.6020
   56MOL0     H 7536   7.210  10.259  11.871  0.5812 -1.7794  3.7133
   56MOL0     H 7537   7.178  10.321  12.033  2.7585 -0.9200 -0.0566
   56MOL0     H 7538   7.012  10.361  11.780  0.1222 -1.0515  0.4640
   56MOL0     H 7539   7.018  10.499  11.897  0.3941  0.0119  0.4017
   56MOL0     H 7540   6.942  10.319  12.075 -0.9872  2.8022  0.0968
   56MOL0     H 7541   6.941  10.211  11.937 -0.6158 -0.8665  0.0967
   56MOL0     H 7542   7.548  10.126  11.289 -0.2454 -2.0681  0.4541
   56MOL0     H 7543   7.722   9.988  11.197 -0.9636  0.7596 -0.2499
   56MOL0     H 7544   8.306  10.002  11.294  0.5906  1.3682 -2.3416
   56MOL0     H 7545   8.491   9.848  11.267 -0.0704  0.7357  0.0098
   56MOL0     H 7546   9.977   9.800  10.534 -1.6266  2.1316 -0.3122
   56MOL0     H 7547  10.203   9.816  10.622  0.6284  1.3032  0.0161
   56MOL0     H 7548  10.494  10.391  10.739 -0.5441 -1.1180  2.0483
   56MOL0     H 7549  10.747  10.414  10.758  0.7465  0.6021  2.5006
   56MOL0     H 7550  11.005  10.095  10.928  2.3923  0.5591 -0.0379
   56MOL0     H 7551  11.007  10.051  10.756 -2.3006  0.8600 -1.2661
   56MOL0     H 7552  11.205  10.223  10.912 -0.5115  0.3232  1.6012
   56MOL0     H 7553  11.155  10.274  10.753  0.2011  0.4618  0.0540
   56MOL0     H 7554  11.216  10.065  10.634  0.0272  1.3478 -0.4647
   56MOL0     H 7555  11.262   9.997  10.789 -0.1373 -0.7622 -1.5718
   56MOL0     H 7556  11.423  10.168  10.844  1.2280 -1.3019 -0.0919
   56MOL0     H 7557  11.391  10.254  10.696 -1.5523 -1.2370 -2.5750
   56MOL0     H 7558  11.680   9.999  10.556  1.5303  0.0613  2.2625
   56MOL0     H 7559  10.791   9.984  10.792  0.0069 -0.0504 -1.0282
   56MOL0     H 7560  10.556   9.958  10.745  0.6915  0.1933 -0.5326
   57MOL0     O 7561   0.728   0.028   4.606  0.1476  0.2690  0.4809
   57MOL0     C 7562   0.665  -0.067   4.650  0.9992  0.1721  0.6405
   57MOL0     O 7563   0.718  -0.184   4.687  0.2469  0.1865  0.7243
   57MOL0     C 7564   0.843  -0.225   4.641  0.3290  0.3381  0.0517
   57MOL0     C 7565   0.914  -0.308   4.737 -0.6666 -1.1359 -0.2593
   57MOL0     C 7566   1.041  -0.352   4.704  0.2052  0.7172  0.6196
   57MOL0     C 7567   1.113  -0.303   4.591  0.5961  0.6443  0.4572
   57MOL0     O 7568   1.243  -0.334   4.585 -0.2594 -0.1086 -0.4944
   57MOL0     C 7569   1.322  -0.240   4.659  0.5368  0.0342 -0.4481
   57MOL0     C 7570   1.476  -0.258   4.607 -0.1620  0.1867  0.1967
   57MOL0     C 7571   1.574  -0.175   4.698 -0.6226  0.0832 -1.2240
   57MOL0     C 7572   1.637  -0.242   4.813 -0.2396 -0.0024  0.5830
   57MOL0     C 7573   1.733  -0.156   4.885  0.3166  0.4849  0.6598
   57MOL0     C 7574   1.800  -0.237   5.000  1.1311 -0.3460  0.0098
   57MOL0     C 7575   1.937  -0.194   5.045 -0.1486  0.0352  0.3984
   57MOL0     C 7576   2.003  -0.288   5.148  0.1731  0.4578  1.7522
   57MOL0     N 7577   2.129  -0.219   5.180  0.2501  0.1484 -0.6005
   57MOL0     C 7578   2.144  -0.082   5.217  0.9043 -0.0554  0.5179
   57MOL0     C 7579   2.277  -0.067   5.216 -1.2350  0.8106 -0.1462
   57MOL0     C 7580   2.355   0.062   5.215 -0.0071  1.3448  0.9286
   57MOL0     C 7581   2.421   0.110   5.348 -0.2464  0.0767 -0.6841
   57MOL0     C 7582   2.506   0.234   5.324  0.5657 -0.4122  0.5373
   57MOL0     C 7583   2.411   0.351   5.281 -0.8013 -0.2471  0.0423
   57MOL0     O 7584   2.291   0.349   5.345  0.1778 -0.7115  0.7432
   57MOL0     C 7585   2.197   0.438   5.315  0.4839  0.2027 -0.0162
   57MOL0     C 7586   2.063   0.413   5.364 -1.0220 -0.2590  0.5270
   57MOL0     C 7587   1.957   0.492   5.323  0.1976 -0.7192 -0.0188
   57MOL0     C 7588   1.820   0.436   5.354 -0.6419  0.3207 -0.6217
   57MOL0     C 7589   1.985   0.613   5.251 -0.9208  0.0979  0.5393
   57MOL0     C 7590   1.882   0.710   5.206 -0.6934  0.7500  0.7310
   57MOL0     O 7591   1.907   0.773   5.090  0.3338 -0.4188 -0.3175
   57MOL0     C 7592   1.835   0.882   5.048  0.1170 -0.8394  1.0162
   57MOL0     C 7593   1.695   0.867   5.010 -0.3825  0.8751  0.0885
   57MOL0     C 7594   1.625   0.983   4.978  0.6661  0.4872  0.9888
   57MOL0     C 7595   1.681   1.114   4.984 -0.0729 -0.6432 -0.6415
   57MOL0     O 7596   1.612   1.236   4.953  0.2645  0.1683 -0.4139
   57MOL0     C 7597   1.471   1.231   4.912 -0.0422  0.5708 -0.2540
   57MOL0     C 7598   1.423   1.378   4.888  0.4292  0.1919 -0.8742
   57MOL0     C 7599   1.375   1.446   5.024  0.1246  1.3712  0.1918
   57MOL0     C 7600   1.309   1.587   4.996  0.0404 -0.0666  0.5737
   57MOL0     C 7601   1.230   1.635   5.112 -1.0319 -0.2323 -0.1426
   57MOL0     C 7602   1.159   1.772   5.074 -0.2350  0.0203  0.6746
   57MOL0     C 7603   1.078   1.765   4.949  0.7019 -0.2838  0.2132
   57MOL0     C 7604   0.966   1.860   4.943 -0.1452  0.6149 -0.8848
   57MOL0    Cl 7605   0.849   1.890   5.071  0.3823 -0.1882 -0.4124
   57MOL0     C 7606   1.814   1.128   5.026 -0.4603  0.8222 -0.7193
   57MOL0     C 7607   1.890   1.007   5.050  0.0826  0.0360  2.0910
   57MOL0     O 7608   1.774   0.716   5.254  0.8033  0.4939 -0.5085
   57MOL0     C 7609   2.119   0.634   5.202  0.8120  0.4185 -0.2714
   57MOL0     C 7610   2.224   0.545   5.229  0.7458  0.5672 -1.7252
   57MOL0     N 7611   2.337  -0.200   5.199 -0.1776 -0.0506 -0.0852
   57MOL0     N 7612   2.247  -0.282   5.167  0.1003  0.4322  0.1950
   57MOL0     C 7613   1.043  -0.232   4.494 -0.4494  0.9410 -0.5400
   57MOL0     C 7614   0.904  -0.194   4.518 -0.4288  0.0714 -0.3455
   57MOL0     C 7615   0.513  -0.065   4.661  0.4367 -0.5356 -0.1802
   57MOL0     C 7616   0.436   0.051   4.634 -0.7726 -0.4103 -0.9947
   57MOL0     C 7617   0.313   0.064   4.673 -0.0894 -0.3365  0.5409
   57MOL0     C 7618   0.247  -0.047   4.738  0.7520 -0.1836 -0.2194
   57MOL0     O 7619   0.119  -0.021   4.779  0.0002 -1.1232 -0.1880
   57MOL0     C 7620   0.031  -0.134   4.815  0.3552 -0.6201  0.5282
   57MOL0     C 7621  -0.111  -0.076   4.834 -0.0650  0.1209  0.1941
   57MOL0     C 7622  -0.133   0.039   4.943  0.6885  0.2399  0.1556
   57MOL0     C 7623  -0.020   0.128   4.983  0.2443 -0.1777 -0.2192
   57MOL0     C 7624  -0.079   0.234   5.073 -0.7257  0.1307 -0.4919
   57MOL0     C 7625  -0.113   0.328   5.146  0.3268 -0.2619 -0.4645
   57MOL0     C 7626   0.314  -0.165   4.763 -0.0651 -0.8984  0.2760
   57MOL0     C 7627   0.446  -0.171   4.719  0.9827  0.0707 -0.7050
   57MOL0     H 7628   0.864  -0.328   4.832 -3.2499  3.0072 -0.4695
   57MOL0     H 7629   1.109  -0.407   4.768  0.7891  0.1951 -0.4220
   57MOL0     H 7630   1.274  -0.146   4.630  0.1917 -0.6254 -2.1460
   57MOL0     H 7631   1.315  -0.269   4.765  2.4736  0.6597 -0.1157
   57MOL0     H 7632   1.508  -0.362   4.606  0.2670  0.1394 -4.3264
   57MOL0     H 7633   1.491  -0.215   4.507 -0.6249  2.1078  0.9204
   57MOL0     H 7634   1.657  -0.140   4.637 -1.0201  0.5191 -1.5237
   57MOL0     H 7635   1.522  -0.088   4.740 -1.3479 -0.7248 -0.4089
   57MOL0     H 7636   1.557  -0.290   4.869  0.3154 -0.9810  0.5634
   57MOL0     H 7637   1.687  -0.331   4.774  2.7119  0.8686  2.0986
   57MOL0     H 7638   1.797  -0.134   4.799  0.2448  0.9665  0.7288
   57MOL0     H 7639   1.694  -0.057   4.910  1.0160  1.5729 -2.1949
   57MOL0     H 7640   1.729  -0.245   5.082 -2.6611 -1.3823 -3.0702
   57MOL0     H 7641   1.799  -0.339   4.960 -2.0006 -0.2375 -0.4522
   57MOL0     H 7642   2.012  -0.197   4.966  0.0515  1.2132  0.5284
   57MOL0     H 7643   1.931  -0.099   5.098 -0.4904 -0.8861  2.0897
   57MOL0     H 7644   2.024  -0.385   5.100 -0.0233  1.8195 -1.3465
   57MOL0     H 7645   1.942  -0.293   5.239 -1.5192 -0.3668  0.6276
   57MOL0     H 7646   2.062  -0.015   5.239 -0.5232 -0.5160 -2.8558
   57MOL0     H 7647   2.424   0.056   5.130 -0.3260  2.3344  0.5887
   57MOL0     H 7648   2.284   0.140   5.185 -2.3186  0.0974  2.7908
   57MOL0     H 7649   2.488   0.035   5.391 -0.9754 -0.0361  0.2759
   57MOL0     H 7650   2.354   0.117   5.434  1.2646  0.8325  0.4936
   57MOL0     H 7651   2.583   0.205   5.252 -0.1150 -1.9532  0.4036
   57MOL0     H 7652   2.563   0.263   5.413  0.1814  0.0820  0.6345
   57MOL0     H 7653   2.384   0.336   5.175  0.0184 -3.0958  0.1394
   57MOL0     H 7654   2.460   0.448   5.282 -1.0675 -0.0123 -2.2699
   57MOL0     H 7655   2.054   0.323   5.423  2.1366 -0.7846  0.4048
   57MOL0     H 7656   1.822   0.327   5.348  0.2994 -0.1844  4.3934
   57MOL0     H 7657   1.786   0.457   5.456 -1.3707 -3.1941  0.0047
   57MOL0     H 7658   1.751   0.469   5.276 -2.1314  2.2170  1.3842
   57MOL0     H 7659   1.652   0.769   5.024  1.9018  0.0455  2.0547
   57MOL0     H 7660   1.523   0.965   4.945 -0.0675 -0.5202  3.5589
   57MOL0     H 7661   1.492   1.170   4.824  2.2413  1.4960 -0.4188
   57MOL0     H 7662   1.407   1.172   4.979  0.6855 -1.7472 -1.4704
   57MOL0     H 7663   1.516   1.424   4.853 -0.4055  0.8190 -2.3907
   57MOL0     H 7664   1.347   1.372   4.809 -0.5562 -1.6138  0.1509
   57MOL0     H 7665   1.448   1.455   5.105 -0.4251 -1.3770  1.1009
   57MOL0     H 7666   1.291   1.381   5.053  0.4248  0.4666 -0.8873
   57MOL0     H 7667   1.381   1.664   4.966  1.8422 -1.3588  1.4579
   57MOL0     H 7668   1.237   1.559   4.918  1.7118 -2.3378 -0.2372
   57MOL0     H 7669   1.301   1.663   5.191 -2.9834 -0.8206  1.9187
   57MOL0     H 7670   1.170   1.554   5.154  1.3411 -1.0026  2.0287
   57MOL0     H 7671   1.097   1.776   5.164 -0.9822  0.2100  0.1643
   57MOL0     H 7672   1.230   1.855   5.076 -0.6939  0.5256 -1.3446
   57MOL0     H 7673   1.040   1.664   4.933  1.6826 -0.2064 -3.6892
   57MOL0     H 7674   1.132   1.787   4.856 -0.2997 -1.6051 -0.7104
   57MOL0     H 7675   0.905   1.826   4.858 -1.0306  0.4429 -0.1966
   57MOL0     H 7676   1.016   1.957   4.935  1.8384 -0.3942 -1.2001
   57MOL0     H 7677   1.864   1.224   5.034  3.0248 -0.7394 -1.7641
   57MOL0     H 7678   1.991   1.013   5.090  1.3227 -3.3605 -0.0338
   57MOL0     H 7679   2.127   0.710   5.125 -0.7242 -1.2945 -2.2249
   57MOL0     H 7680   2.321   0.574   5.189  0.7290  2.8583 -0.2684
   57MOL0     H 7681   1.087  -0.188   4.405 -0.2257  1.2531 -0.2778
   57MOL0     H 7682   0.846  -0.140   4.443 -1.5301 -1.4077 -0.5972
   57MOL0     H 7683   0.487   0.143   4.604 -0.2921  0.4804  2.2042
   57MOL0     H 7684   0.263   0.161   4.673 -0.3499 -0.4539  1.7988
   57MOL0     H 7685   0.042  -0.217   4.743 -2.7916 -0.7176  0.0264
   57MOL0     H 7686   0.055  -0.173   4.914  2.8314  1.1517  0.7299
   57MOL0     H 7687  -0.176  -0.161   4.859 -2.8514  1.4913 -1.7673
   57MOL0     H 7688  -0.160  -0.029   4.748 -0.6331 -1.1855 -0.2373
   57MOL0     H 7689  -0.173  -0.006   5.035 -1.4434  2.6996  0.5206
   57MOL0     H 7690  -0.217   0.095   4.902 -0.4155 -1.8877 -0.6333
   57MOL0     H 7691   0.019   0.180   4.896  0.5652  4.3736  2.3148
   57MOL0     H 7692   0.060   0.078   5.039 -1.4531 -1.5801  1.1072
   57MOL0     H 7693  -0.141   0.397   5.223  2.0446  1.6317 -1.4111
   57MOL0     H 7694   0.266  -0.249   4.812 -1.2403 -1.9301 -2.4647
   57MOL0     H 7695   0.493  -0.268   4.737  0.9783  0.4365  1.4691
   58MOL0     O 7696   8.976   4.368   0.905 -1.0432  0.3864  0.4492
   58MOL0     C 7697   9.076   4.434   0.868  0.0666  0.2557 -0.2184
   58MOL0     O 7698   9.079   4.515   0.753  0.1963 -0.3703 -0.4691
   58MOL0     C 7699   8.971   4.500   0.672  0.1383  0.4495 -0.2156
   58MOL0     C 7700   8.982   4.416   0.561 -0.2626  1.2347  0.1292
   58MOL0     C 7701   8.887   4.404   0.463  0.5773  0.6354 -0.6183
   58MOL0     C 7702   8.772   4.485   0.482  0.3210  0.4570 -0.4519
   58MOL0     O 7703   8.660   4.463   0.406  0.3886  0.3123 -0.8714
   58MOL0     C 7704   8.588   4.339   0.425  0.1197 -0.4866 -0.0745
   58MOL0     C 7705   8.507   4.328   0.560 -0.0251 -0.1706  0.9559
   58MOL0     C 7706   8.602   4.273   0.669  0.5145  0.3838  0.6156
   58MOL0     C 7707   8.554   4.284   0.810  0.1627 -1.2104  0.1720
   58MOL0     C 7708   8.633   4.186   0.902  0.2138  0.1443  0.1419
   58MOL0     C 7709   8.613   4.210   1.044  0.5554  0.4391  0.4874
   58MOL0     C 7710   8.665   4.095   1.135 -0.4136  0.3458  0.2786
   58MOL0     C 7711   8.814   4.091   1.136 -0.0890 -0.4231  0.2561
   58MOL0     N 7712   8.869   3.988   1.224  0.0305  0.2522  0.9795
   58MOL0     C 7713   8.877   3.853   1.197  0.2486  0.1624  0.7155
   58MOL0     C 7714   8.931   3.797   1.306  0.3798 -0.1142  0.5018
   58MOL0     C 7715   8.973   3.647   1.320  0.3831  0.3602 -0.8605
   58MOL0     C 7716   9.119   3.619   1.323 -0.5291 -0.1811  0.1139
   58MOL0     C 7717   9.162   3.588   1.179  0.5804  0.8949  0.7864
   58MOL0     C 7718   9.302   3.542   1.193 -0.4220  0.7174 -0.5861
   58MOL0     O 7719   9.308   3.416   1.261  0.6693 -1.1453 -0.7143
   58MOL0     C 7720   9.427   3.349   1.256 -0.6231  0.0412 -0.8861
   58MOL0     C 7721   9.426   3.206   1.271  0.7783 -0.2762  0.9703
   58MOL0     C 7722   9.549   3.136   1.261 -0.5674 -0.2908  0.7194
   58MOL0     C 7723   9.517   2.987   1.256 -0.2249 -0.4079  0.3545
   58MOL0     C 7724   9.677   3.197   1.252 -0.3421  0.1641  0.3849
   58MOL0     C 7725   9.798   3.118   1.249 -0.4388 -0.8665  0.5617
   58MOL0     O 7726   9.888   3.159   1.151  0.5209 -0.2410  0.0792
   58MOL0     C 7727  10.019   3.105   1.148  0.3879 -1.0179 -0.3605
   58MOL0     C 7728  10.059   2.976   1.160 -0.4300  1.1048  0.2986
   58MOL0     C 7729  10.197   2.940   1.179 -0.7538  0.0447  0.3147
   58MOL0     C 7730  10.296   3.043   1.176 -0.1178  0.5218  0.0699
   58MOL0     O 7731  10.433   3.012   1.190 -0.8246 -0.0749  0.9223
   58MOL0     C 7732  10.490   3.044   1.313  0.0931 -0.3068 -0.3332
   58MOL0     C 7733  10.637   3.011   1.321  0.6535  0.1454  0.1190
   58MOL0     C 7734  10.719   3.064   1.205 -0.3625  0.1387  0.1129
   58MOL0     C 7735  10.859   3.009   1.192  0.4896 -0.3579 -0.2344
   58MOL0     C 7736  10.919   3.025   1.051 -0.1408  0.5898  0.7132
   58MOL0     C 7737  11.032   3.137   1.044  0.2060  0.6243 -0.2089
   58MOL0     C 7738  11.065   3.194   0.902  0.3357 -0.7332 -0.4197
   58MOL0     C 7739  11.162   3.308   0.922  0.1079  0.5383 -0.0742
   58MOL0    Cl 7740  11.191   3.385   0.766  0.1621  0.2982  0.3152
   58MOL0     C 7741  10.256   3.173   1.145 -0.0799  0.3658 -0.6064
   58MOL0     C 7742  10.120   3.203   1.128 -0.5696  0.8119 -0.3753
   58MOL0     O 7743   9.823   3.045   1.345  0.4880  0.0995 -0.0063
   58MOL0     C 7744   9.674   3.338   1.245  0.4206  0.6165 -0.8575
   58MOL0     C 7745   9.556   3.413   1.246  0.0915  0.4043  0.8344
   58MOL0     N 7746   8.973   3.906   1.388 -0.4443 -0.0912 -0.3184
   58MOL0     N 7747   8.935   4.014   1.339  0.6578  0.5841  0.1446
   58MOL0     C 7748   8.768   4.580   0.585  1.4243 -0.7735  0.1364
   58MOL0     C 7749   8.867   4.587   0.678  0.7214  0.4591 -0.0994
   58MOL0     C 7750   9.191   4.459   0.959 -0.2742 -0.8867 -0.5184
   58MOL0     C 7751   9.219   4.372   1.071  0.0014  0.4389 -0.3926
   58MOL0     C 7752   9.327   4.394   1.153 -0.3812 -0.5510  0.2338
   58MOL0     C 7753   9.416   4.494   1.122 -0.8205 -0.4908  0.3718
   58MOL0     O 7754   9.507   4.509   1.223  0.2675  0.1434 -0.1824
   58MOL0     C 7755   9.624   4.579   1.201  0.2853 -0.6743 -1.3479
   58MOL0     C 7756   9.727   4.551   1.305 -0.0574 -0.6879  0.0448
   58MOL0     C 7757   9.844   4.645   1.306  0.2223  0.0909  0.4090
   58MOL0     C 7758   9.965   4.600   1.220 -0.4812 -0.8015 -0.7399
   58MOL0     C 7759  10.073   4.695   1.219  0.1393 -0.2335 -0.1664
   58MOL0     C 7760  10.139   4.790   1.256 -0.6718  0.0968  0.0685
   58MOL0     C 7761   9.403   4.573   1.008 -0.2163 -0.5543 -0.1340
   58MOL0     C 7762   9.290   4.552   0.921 -0.0916  0.3536  0.2591
   58MOL0     H 7763   9.066   4.353   0.534 -2.4794 -0.6792 -3.0292
   58MOL0     H 7764   8.889   4.335   0.379 -1.7734 -0.6278  0.2476
   58MOL0     H 7765   8.503   4.353   0.358  1.4692  1.9117 -1.4319
   58MOL0     H 7766   8.650   4.251   0.405 -0.4958 -0.4578 -2.4535
   58MOL0     H 7767   8.464   4.424   0.591 -1.2042  0.1882 -1.5280
   58MOL0     H 7768   8.429   4.252   0.560 -0.9102  0.7167  1.5701
   58MOL0     H 7769   8.632   4.174   0.635 -2.0839  0.6114 -2.8265
   58MOL0     H 7770   8.693   4.334   0.660  0.4301  0.3865 -0.3129
   58MOL0     H 7771   8.565   4.388   0.841  2.5687 -0.9574 -1.2479
   58MOL0     H 7772   8.451   4.246   0.810  0.3247 -1.6654 -0.2160
   58MOL0     H 7773   8.592   4.088   0.876 -1.0663  0.7524 -0.1955
   58MOL0     H 7774   8.740   4.182   0.880  0.1944 -2.1476  0.1671
   58MOL0     H 7775   8.663   4.302   1.077 -1.2745  1.6487  0.1024
   58MOL0     H 7776   8.506   4.225   1.064 -0.5073 -3.9336 -0.9035
   58MOL0     H 7777   8.637   4.110   1.240  2.3730  1.3061  0.9546
   58MOL0     H 7778   8.632   3.999   1.092  1.8180 -0.4635  0.2530
   58MOL0     H 7779   8.844   4.185   1.182  0.8839 -1.5729  2.0677
   58MOL0     H 7780   8.837   4.072   1.031 -1.5653  0.0161 -0.1763
   58MOL0     H 7781   8.844   3.799   1.109  1.3398  0.1635  0.2972
   58MOL0     H 7782   8.935   3.597   1.410 -0.3871 -4.1575 -3.4329
   58MOL0     H 7783   8.926   3.599   1.234 -2.1554 -2.8549  2.0517
   58MOL0     H 7784   9.128   3.538   1.397 -0.9657  0.0940  0.4721
   58MOL0     H 7785   9.170   3.706   1.365 -2.3419  0.0439  1.9886
   58MOL0     H 7786   9.165   3.682   1.123 -1.9134  0.4605 -0.2066
   58MOL0     H 7787   9.110   3.507   1.128  1.9252  0.3105  0.3058
   58MOL0     H 7788   9.366   3.622   1.231 -1.8899  2.3986 -1.4585
   58MOL0     H 7789   9.335   3.541   1.089  0.4069  1.2471 -0.3407
   58MOL0     H 7790   9.324   3.168   1.278 -0.4601  1.5332 -3.6368
   58MOL0     H 7791   9.598   2.925   1.297 -0.2096 -0.9150 -0.4283
   58MOL0     H 7792   9.438   2.956   1.326  0.8561 -2.7379  0.6402
   58MOL0     H 7793   9.475   2.961   1.159 -1.4242 -1.3157  1.0817
   58MOL0     H 7794   9.985   2.901   1.186 -0.1572  0.4733 -0.6830
   58MOL0     H 7795  10.235   2.840   1.198  1.5328  1.0875  1.6786
   58MOL0     H 7796  10.485   3.149   1.340  0.6201 -0.3817  0.0670
   58MOL0     H 7797  10.443   2.983   1.391 -0.1788  0.0921 -0.1859
   58MOL0     H 7798  10.673   3.041   1.420  2.6713 -2.5550  0.3356
   58MOL0     H 7799  10.655   2.903   1.319  0.6327  0.1514 -1.6063
   58MOL0     H 7800  10.737   3.171   1.216  0.4479 -0.1084  1.5733
   58MOL0     H 7801  10.668   3.043   1.111  0.8236  2.3066 -1.1084
   58MOL0     H 7802  10.920   3.065   1.264 -0.2820  0.6832 -0.3733
   58MOL0     H 7803  10.860   2.903   1.220 -1.0862 -0.1843  0.5736
   58MOL0     H 7804  10.842   3.057   0.980 -0.2147 -3.1517 -1.1236
   58MOL0     H 7805  10.975   2.936   1.023  1.7722  1.0156  2.8678
   58MOL0     H 7806  10.992   3.226   1.093  0.9689  0.9108 -0.1064
   58MOL0     H 7807  11.120   3.111   1.103 -0.3523 -0.1862  0.3042
   58MOL0     H 7808  10.971   3.229   0.859  1.0028  1.8608  0.0618
   58MOL0     H 7809  11.115   3.127   0.832  0.6745  0.4573 -1.3530
   58MOL0     H 7810  11.253   3.266   0.966 -0.3915  1.2428  1.7231
   58MOL0     H 7811  11.126   3.379   0.996  1.9977 -1.5440  3.1096
   58MOL0     H 7812  10.330   3.253   1.143 -0.1491  0.4252 -1.8527
   58MOL0     H 7813  10.098   3.309   1.122 -4.9703 -0.0114 -3.9373
   58MOL0     H 7814   9.770   3.386   1.233  1.3754 -0.1924  2.4233
   58MOL0     H 7815   9.563   3.522   1.244  0.8477  0.3552 -0.5153
   58MOL0     H 7816   8.705   4.669   0.587  3.7281  0.9738  0.2956
   58MOL0     H 7817   8.879   4.659   0.758  2.4697 -2.3767  2.3953
   58MOL0     H 7818   9.159   4.286   1.102 -0.9054  1.9079  2.2112
   58MOL0     H 7819   9.352   4.346   1.247  1.8652 -1.3041 -0.6516
   58MOL0     H 7820   9.657   4.541   1.104 -0.2849 -2.6901 -0.7990
   58MOL0     H 7821   9.594   4.684   1.206  3.2090  0.2434 -0.7850
   58MOL0     H 7822   9.753   4.445   1.301  1.9502 -0.2860  1.1356
   58MOL0     H 7823   9.671   4.560   1.399 -0.2833 -0.6742 -0.0919
   58MOL0     H 7824   9.882   4.666   1.407  0.0280  3.6380 -0.1018
   58MOL0     H 7825   9.817   4.741   1.262  3.3344  0.7091 -0.3946
   58MOL0     H 7826   9.929   4.594   1.116 -1.7214  0.7042 -0.4364
   58MOL0     H 7827  10.004   4.503   1.252  2.6655  0.0526 -1.6423
   58MOL0     H 7828  10.195   4.874   1.291 -0.6851  0.1304  0.0104
   58MOL0     H 7829   9.471   4.650   0.974  0.1216 -1.4454 -1.5307
   58MOL0     H 7830   9.269   4.610   0.831  0.3044 -1.9430 -1.4098
   59MOL0     O 7831   5.131   2.066   0.029  0.3695  0.4673  0.0157
   59MOL0     C 7832   5.068   1.966  -0.003 -0.1365 -0.1931 -0.7132
   59MOL0     O 7833   4.938   1.952  -0.025 -0.0116  0.0870  0.0183
   59MOL0     C 7834   4.842   2.049  -0.018  0.0066 -0.1024  0.5844
   59MOL0     C 7835   4.865   2.187  -0.038 -0.5944  0.1149  0.7305
   59MOL0     C 7836   4.764   2.278  -0.036 -0.5110  1.1108 -0.2826
   59MOL0     C 7837   4.636   2.232  -0.008  0.1477  0.8481 -0.5747
   59MOL0     O 7838   4.536   2.320  -0.020  0.4307 -0.7849 -0.2130
   59MOL0     C 7839   4.553   2.428   0.076  0.0729  0.7747  0.3917
   59MOL0     C 7840   4.413   2.491   0.084 -0.1534 -0.7685 -0.7818
   59MOL0     C 7841   4.382   2.594  -0.028 -0.0283 -0.1339 -0.8737
   59MOL0     C 7842   4.237   2.649  -0.030  0.5722  0.0597 -1.1623
   59MOL0     C 7843   4.195   2.703  -0.172  0.1218  0.7055  0.1362
   59MOL0     C 7844   4.034   2.731  -0.174 -0.0673 -0.4305 -1.3675
   59MOL0     C 7845   3.994   2.804  -0.300  1.3712  0.9380  0.3777
   59MOL0     C 7846   3.843   2.789  -0.303  0.0449 -0.4954 -0.6133
   59MOL0     N 7847   3.786   2.853  -0.415  0.2619  0.6531 -0.3386
   59MOL0     C 7848   3.752   2.791  -0.537 -0.2003 -0.7290 -0.6937
   59MOL0     C 7849   3.733   2.894  -0.617 -0.8118  0.0060  0.6849
   59MOL0     C 7850   3.675   2.877  -0.758 -0.1303 -0.9972  0.3937
   59MOL0     C 7851   3.774   2.925  -0.864  0.1268 -0.1449 -0.4136
   59MOL0     C 7852   3.694   2.962  -1.001 -0.2628 -0.4806 -0.1047
   59MOL0     C 7853   3.608   2.838  -1.057  0.5451 -0.1016  0.1735
   59MOL0     O 7854   3.485   2.821  -0.985  0.6201  0.5281  0.0206
   59MOL0     C 7855   3.387   2.742  -1.051  0.4399 -0.3061 -1.0141
   59MOL0     C 7856   3.273   2.725  -0.970 -0.1618 -0.4493  0.0904
   59MOL0     C 7857   3.184   2.619  -1.003 -0.3233 -0.3748  0.6404
   59MOL0     C 7858   3.071   2.582  -0.903  0.5657  0.1238 -0.8540
   59MOL0     C 7859   3.204   2.552  -1.121 -0.3176  0.2091  0.5396
   59MOL0     C 7860   3.119   2.441  -1.172  1.1337  0.1123  0.1528
   59MOL0     O 7861   2.987   2.482  -1.172 -0.1738 -0.1640 -0.3837
   59MOL0     C 7862   2.897   2.391  -1.224  0.4340 -0.6914  0.1094
   59MOL0     C 7863   2.808   2.436  -1.315  0.5194 -0.8010 -0.0203
   59MOL0     C 7864   2.708   2.352  -1.370 -0.6594 -0.3140 -0.6222
   59MOL0     C 7865   2.701   2.225  -1.321  0.9666 -0.7345 -0.8024
   59MOL0     O 7866   2.613   2.136  -1.365  0.0097 -0.4458  0.3330
   59MOL0     C 7867   2.678   2.054  -1.464  0.5948  0.0208 -0.2192
   59MOL0     C 7868   2.632   1.920  -1.414  0.3641  0.2537  0.0545
   59MOL0     C 7869   2.675   1.796  -1.497 -0.3263  0.0355 -0.6306
   59MOL0     C 7870   2.596   1.673  -1.459  0.9910 -0.3416 -0.1977
   59MOL0     C 7871   2.600   1.551  -1.548 -0.3882  0.7365 -0.1891
   59MOL0     C 7872   2.511   1.429  -1.513  0.4385 -0.5076 -0.3222
   59MOL0     C 7873   2.548   1.302  -1.581  0.4265  0.5209  0.6264
   59MOL0     C 7874   2.456   1.178  -1.593  0.1721  0.8558  0.3482
   59MOL0    Cl 7875   2.559   1.048  -1.653  0.1360 -0.0516 -0.3887
   59MOL0     C 7876   2.789   2.183  -1.222  1.1131 -0.7011 -0.1967
   59MOL0     C 7877   2.890   2.268  -1.168  0.2853  0.9231 -0.8134
   59MOL0     O 7878   3.162   2.330  -1.203 -0.4922  0.0854 -0.4418
   59MOL0     C 7879   3.302   2.579  -1.199 -0.0522  0.3746  0.5816
   59MOL0     C 7880   3.410   2.660  -1.164  0.1233 -1.8256 -0.1723
   59MOL0     N 7881   3.761   3.015  -0.550  0.7333 -0.3767 -0.5622
   59MOL0     N 7882   3.785   2.983  -0.429 -0.5602 -0.4536  0.0746
   59MOL0     C 7883   4.608   2.095   0.006 -0.7020 -0.5169 -0.3114
   59MOL0     C 7884   4.714   2.012   0.013  0.8203 -0.0211  0.4358
   59MOL0     C 7885   5.148   1.836  -0.014  0.0918 -0.5648  0.3303
   59MOL0     C 7886   5.291   1.835  -0.004 -0.1389  0.1654  0.0785
   59MOL0     C 7887   5.359   1.718  -0.027 -0.0093 -0.6196 -0.4242
   59MOL0     C 7888   5.305   1.594  -0.041 -0.0810 -0.7200  0.0309
   59MOL0     O 7889   5.385   1.481  -0.056 -0.3291 -0.5373  0.3412
   59MOL0     C 7890   5.337   1.355  -0.105  0.5271 -0.7197  0.0547
   59MOL0     C 7891   5.456   1.265  -0.140  1.7674  0.0638 -0.4259
   59MOL0     C 7892   5.403   1.142  -0.213  0.3659  0.3291 -0.0670
   59MOL0     C 7893   5.398   1.158  -0.368  0.0403 -0.4546 -0.8807
   59MOL0     C 7894   5.306   1.065  -0.430  0.0275 -0.1106  1.4432
   59MOL0     C 7895   5.228   0.981  -0.488 -0.3416 -0.8769 -0.6466
   59MOL0     C 7896   5.172   1.597  -0.047  1.6246 -0.1681 -0.6073
   59MOL0     C 7897   5.088   1.711  -0.041 -0.4043  0.3412 -0.1724
   59MOL0     H 7898   4.961   2.221  -0.075 -0.2667 -0.7135  0.8043
   59MOL0     H 7899   4.769   2.382  -0.067 -0.6166  1.5908  1.2620
   59MOL0     H 7900   4.574   2.383   0.174 -0.3184  0.3009  0.2625
   59MOL0     H 7901   4.635   2.494   0.048 -1.5380  3.3711  1.4413
   59MOL0     H 7902   4.337   2.412   0.090 -0.2444 -0.6001  0.5020
   59MOL0     H 7903   4.404   2.539   0.182 -0.9760 -2.1788 -0.1297
   59MOL0     H 7904   4.456   2.675  -0.034 -0.2845  0.2102  0.2624
   59MOL0     H 7905   4.401   2.543  -0.122  2.3004  1.7138 -1.4900
   59MOL0     H 7906   4.178   2.556  -0.030  0.7936 -0.1906  2.2584
   59MOL0     H 7907   4.205   2.709   0.055  0.9388 -1.3534  0.0234
   59MOL0     H 7908   4.244   2.800  -0.187  0.5663  0.2940 -1.2351
   59MOL0     H 7909   4.232   2.642  -0.255  0.4348 -0.6516  1.2389
   59MOL0     H 7910   3.986   2.634  -0.158 -0.1129 -0.1630  0.2904
   59MOL0     H 7911   4.009   2.799  -0.092  1.4418 -2.0799  0.5693
   59MOL0     H 7912   4.022   2.907  -0.275  0.9468  1.2303 -0.3115
   59MOL0     H 7913   4.039   2.763  -0.390  0.5509 -1.2534  0.8893
   59MOL0     H 7914   3.798   2.841  -0.217 -1.3984 -2.1153 -0.3493
   59MOL0     H 7915   3.817   2.683  -0.298  3.1415 -1.4185 -1.6898
   59MOL0     H 7916   3.758   2.689  -0.571  1.5988 -0.6712 -0.6565
   59MOL0     H 7917   3.657   2.771  -0.779  3.7982 -1.2199 -3.0625
   59MOL0     H 7918   3.579   2.927  -0.762 -0.4149 -1.4443  1.2638
   59MOL0     H 7919   3.844   2.847  -0.898  0.8260 -0.2424  1.1852
   59MOL0     H 7920   3.835   3.004  -0.820  0.7728 -2.2291  2.7887
   59MOL0     H 7921   3.769   2.998  -1.071  0.2979  2.8791  1.9804
   59MOL0     H 7922   3.631   3.047  -0.974  0.6622 -0.2890  1.6353
   59MOL0     H 7923   3.671   2.749  -1.067  1.1339  0.3861 -0.5573
   59MOL0     H 7924   3.588   2.864  -1.161 -1.8436  0.1541  0.6246
   59MOL0     H 7925   3.257   2.793  -0.886 -1.3229  0.8386 -1.1176
   59MOL0     H 7926   2.994   2.657  -0.881 -0.0036 -1.0485  1.5208
   59MOL0     H 7927   3.013   2.491  -0.923  1.4135 -0.3823 -1.0339
   59MOL0     H 7928   3.123   2.558  -0.810 -0.4472 -2.8846 -0.9516
   59MOL0     H 7929   2.810   2.536  -1.357  0.3940 -0.7476  0.1036
   59MOL0     H 7930   2.651   2.366  -1.462  1.0040 -2.3094 -2.0541
   59MOL0     H 7931   2.639   2.077  -1.564  4.6057 -0.3654 -2.0570
   59MOL0     H 7932   2.787   2.062  -1.468  0.6536 -0.6820 -0.1582
   59MOL0     H 7933   2.657   1.902  -1.309 -0.4607 -1.4072 -0.0131
   59MOL0     H 7934   2.523   1.924  -1.418  0.3960  2.6779 -0.0711
   59MOL0     H 7935   2.781   1.777  -1.480 -0.3010 -1.4041 -2.1708
   59MOL0     H 7936   2.665   1.824  -1.602  1.1467 -1.3530 -1.1805
   59MOL0     H 7937   2.631   1.643  -1.360 -0.6151 -2.3294 -0.1407
   59MOL0     H 7938   2.492   1.706  -1.448  1.8929  1.8685  2.6870
   59MOL0     H 7939   2.700   1.507  -1.537 -1.9477 -3.0031  0.6275
   59MOL0     H 7940   2.593   1.586  -1.652  0.5788  2.4455  0.2769
   59MOL0     H 7941   2.536   1.429  -1.407  1.7512 -0.0622 -0.6107
   59MOL0     H 7942   2.407   1.459  -1.531  0.3594 -0.5957 -0.0090
   59MOL0     H 7943   2.640   1.269  -1.532  1.9980  1.6173 -1.4725
   59MOL0     H 7944   2.583   1.318  -1.683 -2.2246  0.4863 -0.3731
   59MOL0     H 7945   2.376   1.208  -1.661  0.4509  2.9444  0.8955
   59MOL0     H 7946   2.407   1.146  -1.501  1.0855 -0.9482  0.2608
   59MOL0     H 7947   2.778   2.089  -1.167 -0.5360  0.2205  1.1840
   59MOL0     H 7948   2.931   2.243  -1.070 -2.5745  0.4718  0.3947
   59MOL0     H 7949   3.318   2.521  -1.289 -0.8010  0.1578  0.5830
   59MOL0     H 7950   3.503   2.670  -1.219 -0.0255  2.2008  0.0764
   59MOL0     H 7951   4.501   2.073   0.005 -0.7137 -0.4954 -2.1321
   59MOL0     H 7952   4.700   1.904   0.012 -3.6447  0.3572  1.7257
   59MOL0     H 7953   5.342   1.930   0.008  3.0136 -1.6203  2.6246
   59MOL0     H 7954   5.466   1.738  -0.029  0.4311 -2.6593 -3.5447
   59MOL0     H 7955   5.287   1.287  -0.037  1.0544 -1.5142 -0.3343
   59MOL0     H 7956   5.262   1.369  -0.184 -0.4933  0.3953  1.1730
   59MOL0     H 7957   5.506   1.246  -0.045  0.6182  0.6994  0.3303
   59MOL0     H 7958   5.522   1.311  -0.214  0.5821  0.1531 -1.4565
   59MOL0     H 7959   5.302   1.114  -0.181  1.0061 -1.9812  0.0746
   59MOL0     H 7960   5.469   1.056  -0.204 -1.9003 -1.3113  3.0386
   59MOL0     H 7961   5.497   1.138  -0.409  1.1381 -0.3396  1.5021
   59MOL0     H 7962   5.371   1.260  -0.396 -0.3380  0.1268  1.3381
   59MOL0     H 7963   5.166   0.909  -0.537 -0.4768  1.5815 -4.5328
   59MOL0     H 7964   5.127   1.503  -0.075  1.0180  0.5315 -2.0830
   59MOL0     H 7965   4.979   1.711  -0.045 -0.5744  3.8863  0.9149
   60MOL0     O 7966   1.390   8.555   5.688 -0.3673  0.0096  0.1438
   60MOL0     C 7967   1.367   8.605   5.800 -0.2225 -0.3344 -0.0063
   60MOL0     O 7968   1.253   8.585   5.868  0.3005 -0.3197  0.2049
   60MOL0     C 7969   1.153   8.507   5.808  0.2312 -1.3927 -0.5750
   60MOL0     C 7970   1.112   8.395   5.880  0.1601 -1.1870  0.5257
   60MOL0     C 7971   1.012   8.312   5.833  0.0126  0.1338  0.2682
   60MOL0     C 7972   0.946   8.337   5.712  0.3974  0.6690 -0.4777
   60MOL0     O 7973   0.849   8.245   5.662  0.7068  0.0448  0.4257
   60MOL0     C 7974   0.771   8.174   5.757 -0.6230  0.1223 -0.1503
   60MOL0     C 7975   0.635   8.124   5.708 -0.2751  0.0450 -0.5203
   60MOL0     C 7976   0.529   8.230   5.742 -0.1282  0.6576  0.3419
   60MOL0     C 7977   0.389   8.197   5.699  0.3862 -0.2166  0.5124
   60MOL0     C 7978   0.327   8.081   5.780 -0.1320 -0.8712 -0.3609
   60MOL0     C 7979   0.182   8.053   5.758 -0.4824 -0.9923  0.0907
   60MOL0     C 7980   0.160   7.975   5.624  0.3114 -0.2451  0.1602
   60MOL0     C 7981   0.026   7.918   5.646  0.3538  0.8661 -0.0230
   60MOL0     N 7982  -0.020   7.842   5.526  0.2144 -0.1471 -0.0089
   60MOL0     C 7983  -0.049   7.888   5.406 -0.2087 -0.2303 -0.2512
   60MOL0     C 7984  -0.095   7.780   5.338 -0.0326 -0.2588 -0.0929
   60MOL0     C 7985  -0.120   7.758   5.191 -0.0738 -0.1265  0.6938
   60MOL0     C 7986  -0.081   7.876   5.093  0.1886  0.4628  0.9628
   60MOL0     C 7987   0.066   7.864   5.067  0.6124  0.8849  0.2111
   60MOL0     C 7988   0.117   7.953   4.959 -0.2213 -0.0585  0.0763
   60MOL0     O 7989   0.259   7.934   4.947  0.0813  0.3278  0.1576
   60MOL0     C 7990   0.322   7.998   4.839 -0.2570 -0.3519 -0.2318
   60MOL0     C 7991   0.445   7.945   4.788 -0.6781  0.5265 -0.6070
   60MOL0     C 7992   0.520   8.003   4.686 -0.1360 -0.7180 -0.2125
   60MOL0     C 7993   0.653   7.944   4.652  0.2631 -0.6229  0.6294
   60MOL0     C 7994   0.479   8.135   4.635  0.2241  0.1363  0.2054
   60MOL0     C 7995   0.558   8.223   4.543  0.2303 -0.8787 -0.9729
   60MOL0     O 7996   0.538   8.358   4.557 -0.6201  0.0164  0.1867
   60MOL0     C 7997   0.614   8.438   4.470  0.4878  0.1384  0.1183
   60MOL0     C 7998   0.747   8.475   4.494  0.3107  0.2749  0.4270
   60MOL0     C 7999   0.821   8.563   4.413 -0.2822  0.2210  0.3933
   60MOL0     C 8000   0.749   8.631   4.303 -1.1366  0.2810 -0.5979
   60MOL0     O 8001   0.811   8.725   4.230  0.3414 -0.4895  0.8882
   60MOL0     C 8002   0.953   8.713   4.205  0.5432 -0.0860  0.0098
   60MOL0     C 8003   0.996   8.830   4.106  0.6916 -0.6584 -0.2965
   60MOL0     C 8004   0.987   8.967   4.156 -0.1096 -1.3558 -0.3427
   60MOL0     C 8005   1.092   9.006   4.263  0.8820  0.2216 -0.8243
   60MOL0     C 8006   1.042   9.135   4.330  0.0370 -0.4060 -0.4488
   60MOL0     C 8007   1.124   9.182   4.446 -0.8616 -0.0609  0.6020
   60MOL0     C 8008   1.061   9.277   4.550  1.3891  0.1128  0.3082
   60MOL0     C 8009   1.161   9.299   4.668 -0.2288 -0.1484  0.0045
   60MOL0    Cl 8010   1.080   9.383   4.801  0.2530 -0.2186 -0.2141
   60MOL0     C 8011   0.615   8.597   4.284 -0.4454  0.9788 -0.3811
   60MOL0     C 8012   0.543   8.508   4.375 -0.4108 -0.8173  0.3992
   60MOL0     O 8013   0.621   8.172   4.455  1.6293 -0.3661  0.2424
   60MOL0     C 8014   0.361   8.184   4.690  0.3587  0.4480  0.3013
   60MOL0     C 8015   0.282   8.117   4.788 -0.1364  0.2866  0.9043
   60MOL0     N 8016  -0.107   7.671   5.427  0.6235  0.9345  0.9730
   60MOL0     N 8017  -0.065   7.713   5.539 -0.2526  0.0662  0.2112
   60MOL0     C 8018   0.981   8.447   5.644 -0.5566  0.5372  1.2231
   60MOL0     C 8019   1.082   8.542   5.690 -0.5179 -0.3862 -0.2126
   60MOL0     C 8020   1.467   8.689   5.861 -0.5126  0.3168 -0.1325
   60MOL0     C 8021   1.483   8.726   6.001 -0.1800  0.1865  0.2668
   60MOL0     C 8022   1.584   8.818   6.038  0.2687 -0.2125  0.2967
   60MOL0     C 8023   1.663   8.873   5.945 -1.2252  0.0773 -0.0990
   60MOL0     O 8024   1.755   8.967   5.992  0.0115 -0.5948 -0.4935
   60MOL0     C 8025   1.851   9.027   5.902  0.5014 -0.0586  0.5201
   60MOL0     C 8026   1.949   9.119   5.977  1.0132 -0.2022  0.7525
   60MOL0     C 8027   1.886   9.255   5.990  0.5268 -0.0182  0.1680
   60MOL0     C 8028   1.952   9.342   6.097 -0.0602 -0.2572 -0.4219
   60MOL0     C 8029   1.904   9.481   6.076 -0.2529 -0.0184  0.0579
   60MOL0     C 8030   1.878   9.596   6.050  0.0202 -0.1644 -0.0491
   60MOL0     C 8031   1.662   8.827   5.813  0.1050 -0.5495 -0.7323
   60MOL0     C 8032   1.562   8.739   5.764 -0.4759 -0.4348 -0.5306
   60MOL0     H 8033   1.174   8.371   5.966  2.1862 -1.3046 -0.8867
   60MOL0     H 8034   0.998   8.220   5.889  0.2223 -0.1406 -0.1273
   60MOL0     H 8035   0.833   8.090   5.789  0.5912  1.0543  0.0374
   60MOL0     H 8036   0.769   8.221   5.856 -3.9704 -1.2460  0.5707
   60MOL0     H 8037   0.636   8.096   5.602 -4.2979  1.1318 -1.0259
   60MOL0     H 8038   0.607   8.034   5.763  0.0590  1.3692  1.9552
   60MOL0     H 8039   0.534   8.247   5.850  0.9195  0.5634  0.3145
   60MOL0     H 8040   0.552   8.326   5.694 -0.9455  0.3672 -0.6758
   60MOL0     H 8041   0.326   8.285   5.714  1.5994  1.0296 -1.3074
   60MOL0     H 8042   0.384   8.163   5.595  1.5735 -4.1146  1.5531
   60MOL0     H 8043   0.383   7.989   5.758 -1.5211 -1.5159 -1.3466
   60MOL0     H 8044   0.346   8.101   5.886  3.3640 -1.7232 -0.7148
   60MOL0     H 8045   0.142   7.999   5.844 -3.8885  0.1733 -0.5903
   60MOL0     H 8046   0.117   8.142   5.757  1.7243  0.7249  1.0566
   60MOL0     H 8047   0.155   8.049   5.545 -0.4695  0.5503  0.9332
   60MOL0     H 8048   0.234   7.894   5.614  1.0706 -0.0837  3.2108
   60MOL0     H 8049  -0.041   8.002   5.668 -1.6132 -0.3202 -1.1173
   60MOL0     H 8050   0.023   7.861   5.740  3.2515  0.0349 -0.3532
   60MOL0     H 8051  -0.024   7.985   5.365 -1.6717  0.6782  0.9349
   60MOL0     H 8052  -0.058   7.669   5.177 -0.5308 -1.1281  4.1348
   60MOL0     H 8053  -0.223   7.727   5.173 -0.3038 -0.2748  2.1503
   60MOL0     H 8054  -0.096   7.975   5.138  2.2071  0.8693  0.8371
   60MOL0     H 8055  -0.137   7.871   4.999 -1.6423 -2.9026  2.0702
   60MOL0     H 8056   0.090   7.766   5.024 -0.2871 -0.2061  2.0989
   60MOL0     H 8057   0.139   7.879   5.146  0.5935 -1.4466  0.7436
   60MOL0     H 8058   0.098   8.058   4.983  0.2474 -0.0594  0.4720
   60MOL0     H 8059   0.053   7.927   4.874 -3.0827 -1.8751  2.5494
   60MOL0     H 8060   0.476   7.853   4.835 -2.1492  0.8526  1.1217
   60MOL0     H 8061   0.734   8.017   4.659 -1.2567  1.3691 -1.2417
   60MOL0     H 8062   0.678   7.863   4.721  1.4156 -1.4352 -0.6877
   60MOL0     H 8063   0.659   7.915   4.547  1.2040  2.1793 -0.1746
   60MOL0     H 8064   0.792   8.429   4.582  1.0922  2.8125  1.4369
   60MOL0     H 8065   0.927   8.576   4.435  0.0299 -3.8502  2.1493
   60MOL0     H 8066   1.014   8.731   4.294  3.2384  2.4990 -2.1441
   60MOL0     H 8067   0.988   8.619   4.161  0.9694  0.3887 -0.6867
   60MOL0     H 8068   1.101   8.807   4.087  0.9706  0.7165 -0.5608
   60MOL0     H 8069   0.936   8.817   4.016 -1.2754  1.0927  0.6902
   60MOL0     H 8070   0.883   8.977   4.187  0.1609 -0.7001  0.3930
   60MOL0     H 8071   0.999   9.043   4.078  1.5369 -0.4309  0.7536
   60MOL0     H 8072   1.087   8.934   4.346  2.0309 -2.1080 -2.6440
   60MOL0     H 8073   1.194   9.014   4.223  2.2291 -3.1168  1.4557
   60MOL0     H 8074   0.944   9.112   4.373 -1.9163 -0.5730 -4.4721
   60MOL0     H 8075   1.017   9.214   4.259 -0.8067 -1.6514 -1.5793
   60MOL0     H 8076   1.147   9.095   4.509  2.0069  0.4514  0.3580
   60MOL0     H 8077   1.219   9.220   4.408  0.2149 -2.7190  0.4624
   60MOL0     H 8078   0.960   9.250   4.581  1.7961  0.3109  1.9125
   60MOL0     H 8079   1.043   9.374   4.502  4.0281  2.9323  4.3781
   60MOL0     H 8080   1.245   9.359   4.633  0.2376 -0.1849  1.0355
   60MOL0     H 8081   1.203   9.207   4.710  3.6403  1.9921  1.3347
   60MOL0     H 8082   0.554   8.638   4.205 -1.1083  0.1763 -0.2996
   60MOL0     H 8083   0.441   8.477   4.359 -0.2918 -0.5551 -1.0443
   60MOL0     H 8084   0.324   8.282   4.662 -0.2276  0.5781  1.4627
   60MOL0     H 8085   0.195   8.173   4.821 -2.4927 -0.8540 -2.7511
   60MOL0     H 8086   0.939   8.467   5.546 -3.3939  0.8456  2.3891
   60MOL0     H 8087   1.121   8.629   5.638 -1.4982 -0.7451 -1.6147
   60MOL0     H 8088   1.417   8.674   6.070 -2.5557 -0.8443 -2.5371
   60MOL0     H 8089   1.610   8.832   6.143  4.2420 -1.5423 -0.3447
   60MOL0     H 8090   1.912   8.944   5.865  1.0145 -0.0066  1.2139
   60MOL0     H 8091   1.806   9.072   5.814  2.7662  1.7713  0.2030
   60MOL0     H 8092   2.037   9.131   5.912  0.4266  0.8712  0.1222
   60MOL0     H 8093   1.968   9.077   6.076  1.4235 -0.0231  0.7507
   60MOL0     H 8094   1.791   9.235   6.040 -1.2044  2.1303 -2.0201
   60MOL0     H 8095   1.853   9.305   5.899  2.3258  4.8731  1.8821
   60MOL0     H 8096   2.060   9.349   6.082 -0.0481  1.7200  0.2627
   60MOL0     H 8097   1.940   9.312   6.202 -1.1181  2.1095  0.2049
   60MOL0     H 8098   1.850   9.699   6.040  1.6821  0.1330 -2.2943
   60MOL0     H 8099   1.739   8.865   5.747  2.0515 -4.7066 -1.1451
   60MOL0     H 8100   1.577   8.708   5.661 -2.8477  0.2028 -1.1442
   61MOL0     O 8101  10.318   6.255   7.982 -0.2122 -0.0215  0.2905
   61MOL0     C 8102  10.229   6.309   7.921 -0.5968  0.9397  0.8957
   61MOL0     O 8103  10.106   6.251   7.887 -0.2623 -0.5786 -0.1338
   61MOL0     C 8104  10.075   6.133   7.952  0.6679  0.2860 -0.5262
   61MOL0     C 8105  10.006   6.126   8.074  0.4901  0.0845  0.0104
   61MOL0     C 8106   9.960   6.013   8.133  1.0132 -0.3844  0.7837
   61MOL0     C 8107   9.992   5.893   8.066 -0.3866  0.1971 -0.5821
   61MOL0     O 8108   9.945   5.770   8.099 -0.7250 -0.0094  0.0198
   61MOL0     C 8109   9.811   5.747   8.150  0.3088  0.1955  1.0435
   61MOL0     C 8110   9.699   5.771   8.039 -0.0575  0.1788 -0.2156
   61MOL0     C 8111   9.739   5.724   7.893 -0.3546 -0.7207 -1.2949
   61MOL0     C 8112   9.603   5.716   7.824  0.1605 -0.5949 -1.0509
   61MOL0     C 8113   9.617   5.665   7.689 -0.1450  0.8967  0.6445
   61MOL0     C 8114   9.626   5.511   7.672 -0.3094  0.1652 -0.4324
   61MOL0     C 8115   9.635   5.463   7.523 -0.0784 -0.8987  0.4937
   61MOL0     C 8116   9.707   5.334   7.526  0.7223 -0.8110 -0.0454
   61MOL0     N 8117   9.714   5.261   7.399 -0.4465 -0.7839 -0.2523
   61MOL0     C 8118   9.788   5.312   7.298 -0.7087  1.0446  0.0357
   61MOL0     C 8119   9.801   5.210   7.209  0.1467 -0.3755 -0.0073
   61MOL0     C 8120   9.865   5.226   7.082 -0.1834  0.8300 -0.3915
   61MOL0     C 8121   9.769   5.258   6.973 -0.2896  0.3809 -0.7956
   61MOL0     C 8122   9.864   5.308   6.856 -0.2266  1.5332 -0.4043
   61MOL0     C 8123   9.816   5.255   6.726 -0.5303 -0.7344  0.4913
   61MOL0     O 8124   9.873   5.321   6.613 -0.2229 -0.0166 -0.0358
   61MOL0     C 8125   9.966   5.243   6.552  0.9082 -0.0142 -0.8032
   61MOL0     C 8126   9.937   5.132   6.474  0.6045 -0.5195 -0.8154
   61MOL0     C 8127  10.039   5.043   6.435  0.1500  0.5009  0.1080
   61MOL0     C 8128   9.997   4.910   6.357  0.0057  0.3065 -0.1776
   61MOL0     C 8129  10.172   5.072   6.463 -0.4379  1.0996  0.2924
   61MOL0     C 8130  10.289   4.987   6.421  0.2146  0.0558 -0.1564
   61MOL0     O 8131  10.400   5.062   6.412  0.5714  0.5064  0.5707
   61MOL0     C 8132  10.508   4.993   6.354  0.3004  0.1275 -0.4031
   61MOL0     C 8133  10.629   4.990   6.421 -0.2260  0.2536  0.1910
   61MOL0     C 8134  10.752   4.939   6.367  1.6403 -1.0469 -0.7864
   61MOL0     C 8135  10.746   4.877   6.240  0.0574  0.4463  0.2013
   61MOL0     O 8136  10.850   4.842   6.164  0.5761 -0.1913  0.2380
   61MOL0     C 8137  10.971   4.790   6.225 -0.4056 -0.1912 -0.3887
   61MOL0     C 8138  11.080   4.820   6.120  0.6738 -0.1444  0.4622
   61MOL0     C 8139  11.154   4.956   6.135 -0.2553  0.2596  1.3986
   61MOL0     C 8140  11.078   5.061   6.066  0.0761  0.2775  0.1681
   61MOL0     C 8141  11.135   5.198   6.099 -0.1872  1.0772  0.1631
   61MOL0     C 8142  11.258   5.230   6.011 -0.7626  0.4290 -0.1327
   61MOL0     C 8143  11.311   5.378   6.008  0.3580  0.1061  0.1410
   61MOL0     C 8144  11.331   5.433   6.148 -0.0554 -0.7123 -0.3008
   61MOL0    Cl 8145  11.192   5.521   6.214 -0.3727 -0.1337 -0.5063
   61MOL0     C 8146  10.624   4.869   6.177  0.3917 -0.0850 -0.4308
   61MOL0     C 8147  10.507   4.934   6.225 -0.3870  0.6562 -0.2541
   61MOL0     O 8148  10.266   4.882   6.372 -0.3400  0.0472 -0.4194
   61MOL0     C 8149  10.197   5.182   6.539  0.2939  0.5246 -0.2907
   61MOL0     C 8150  10.099   5.265   6.575 -0.5297  0.1290  0.8130
   61MOL0     N 8151   9.739   5.100   7.256  0.0710  0.2499 -1.1814
   61MOL0     N 8152   9.705   5.121   7.380  0.5517 -0.2987  0.3908
   61MOL0     C 8153  10.074   5.892   7.957  0.6873 -0.4280  0.4346
   61MOL0     C 8154  10.103   6.011   7.894 -0.6321 -0.5132  0.1100
   61MOL0     C 8155  10.258   6.448   7.882  0.1313 -0.3317  0.2591
   61MOL0     C 8156  10.364   6.534   7.930  0.2349 -0.5055 -0.6600
   61MOL0     C 8157  10.396   6.660   7.881  0.7695  0.3035 -0.2092
   61MOL0     C 8158  10.321   6.712   7.786 -0.6643 -0.6654  0.9117
   61MOL0     O 8159  10.355   6.846   7.744 -0.3311  0.7174 -0.9042
   61MOL0     C 8160  10.294   6.897   7.623  0.8556 -0.4255 -0.4350
   61MOL0     C 8161  10.186   7.001   7.674  0.2570 -0.1636  0.0821
   61MOL0     C 8162  10.252   7.120   7.743 -0.0382 -0.7130  0.6454
   61MOL0     C 8163  10.155   7.231   7.795 -0.2369  0.0347 -0.4743
   61MOL0     C 8164  10.083   7.305   7.695 -0.8731 -0.3897  0.5011
   61MOL0     C 8165  10.009   7.378   7.620 -0.0915  0.7287 -0.5428
   61MOL0     C 8166  10.213   6.628   7.731  0.8105  0.0080 -0.1829
   61MOL0     C 8167  10.186   6.500   7.774 -0.6049 -0.7237 -1.2638
   61MOL0     H 8168   9.971   6.221   8.115  0.6792  0.0722  0.2020
   61MOL0     H 8169   9.884   6.029   8.208 -0.9177  0.4107 -1.2461
   61MOL0     H 8170   9.792   5.646   8.186 -1.0187 -0.3562 -0.9654
   61MOL0     H 8171   9.801   5.804   8.243  2.0320 -3.4528  3.6872
   61MOL0     H 8172   9.603   5.727   8.067 -0.1304  1.0181  0.9052
   61MOL0     H 8173   9.681   5.879   8.042  0.3463  0.3051 -1.5869
   61MOL0     H 8174   9.792   5.804   7.840  0.3056  0.7016  1.3620
   61MOL0     H 8175   9.798   5.634   7.869 -0.1849 -0.6805 -1.0205
   61MOL0     H 8176   9.541   5.656   7.892  0.1676  1.7093  1.1838
   61MOL0     H 8177   9.566   5.819   7.821  1.4727 -0.0904 -0.6033
   61MOL0     H 8178   9.533   5.695   7.625 -0.8896  0.6718  1.4984
   61MOL0     H 8179   9.703   5.718   7.646  0.3707 -1.5014 -1.5572
   61MOL0     H 8180   9.720   5.491   7.724 -1.6770  1.3379  2.7286
   61MOL0     H 8181   9.541   5.469   7.727  0.4187 -3.2240 -1.6439
   61MOL0     H 8182   9.531   5.449   7.494  0.1018 -1.5002  0.1259
   61MOL0     H 8183   9.689   5.536   7.461 -0.7566 -0.6088  0.2267
   61MOL0     H 8184   9.646   5.263   7.581  0.2740 -1.2358 -1.0719
   61MOL0     H 8185   9.802   5.338   7.581 -0.1960 -0.5299  1.6035
   61MOL0     H 8186   9.841   5.407   7.293  2.1601 -0.4355  0.2154
   61MOL0     H 8187   9.952   5.292   7.082  1.2981 -1.0110 -1.3199
   61MOL0     H 8188   9.907   5.129   7.054  3.0460  2.2367 -0.9140
   61MOL0     H 8189   9.709   5.344   7.005  1.9865  1.3052  1.3940
   61MOL0     H 8190   9.705   5.174   6.947 -2.2110  1.6595 -0.3758
   61MOL0     H 8191   9.963   5.265   6.873 -1.8306 -3.1806 -1.6805
   61MOL0     H 8192   9.853   5.416   6.873 -6.6523  1.0214  1.6502
   61MOL0     H 8193   9.709   5.279   6.723 -0.3635 -0.0749 -1.3170
   61MOL0     H 8194   9.829   5.147   6.714  0.0140 -0.9263  2.4662
   61MOL0     H 8195   9.840   5.106   6.432  0.8163  0.0481 -1.6637
   61MOL0     H 8196   9.898   4.901   6.311  0.0653 -2.3121  0.0474
   61MOL0     H 8197  10.056   4.884   6.269  0.2411 -1.2926  0.4334
   61MOL0     H 8198  10.013   4.832   6.432 -1.1855  0.6327  0.4369
   61MOL0     H 8199  10.633   5.035   6.519  0.1335  1.8780 -0.5331
   61MOL0     H 8200  10.842   4.951   6.425 -0.1782  2.2331  1.6285
   61MOL0     H 8201  10.988   4.847   6.317 -3.1160  1.9442 -1.0687
   61MOL0     H 8202  10.957   4.684   6.246 -1.0054 -0.1338 -0.4558
   61MOL0     H 8203  11.149   4.738   6.146 -3.3781 -3.7088  1.2013
   61MOL0     H 8204  11.035   4.823   6.021 -1.8297 -0.4290  1.5258
   61MOL0     H 8205  11.248   4.934   6.084 -1.3340 -0.9260 -0.1744
   61MOL0     H 8206  11.173   4.988   6.238 -2.4475  1.8300  1.3874
   61MOL0     H 8207  11.060   5.048   5.959  0.1371 -0.2993  0.2272
   61MOL0     H 8208  10.979   5.061   6.114 -0.5016  4.1447 -0.6779
   61MOL0     H 8209  11.154   5.209   6.206  2.3694 -1.0292  0.0048
   61MOL0     H 8210  11.053   5.259   6.060 -1.7303 -1.3054 -0.5055
   61MOL0     H 8211  11.346   5.173   6.043  0.3368  0.9390 -2.0659
   61MOL0     H 8212  11.237   5.202   5.907 -0.3616 -0.8438  0.1156
   61MOL0     H 8213  11.243   5.456   5.971  1.9181  3.2093  3.1517
   61MOL0     H 8214  11.405   5.387   5.951 -0.6482  1.8446 -1.3594
   61MOL0     H 8215  11.414   5.503   6.151  0.8702 -1.8028  1.4454
   61MOL0     H 8216  11.353   5.345   6.209  0.0251 -0.9428 -0.6587
   61MOL0     H 8217  10.605   4.829   6.078 -1.3380  0.3127 -0.2838
   61MOL0     H 8218  10.409   4.934   6.178 -1.1320  2.4450  1.1355
   61MOL0     H 8219  10.293   5.205   6.584  1.2689 -1.0655 -1.4360
   61MOL0     H 8220  10.132   5.354   6.627  0.6318 -0.1364  0.5665
   61MOL0     H 8221  10.110   5.805   7.903  1.8939 -0.7351  1.6714
   61MOL0     H 8222  10.147   6.007   7.794  0.0304  0.5860  0.3455
   61MOL0     H 8223  10.423   6.502   8.015  0.7017 -2.0976 -1.5527
   61MOL0     H 8224  10.486   6.711   7.915  0.8403  0.5851 -0.8062
   61MOL0     H 8225  10.376   6.955   7.579  1.8753 -1.0423  0.6072
   61MOL0     H 8226  10.260   6.826   7.547 -2.2088 -0.1782  0.5787
   61MOL0     H 8227  10.125   6.946   7.747 -1.2843  1.4350  0.0589
   61MOL0     H 8228  10.121   7.046   7.598  1.5388  3.3993  0.9382
   61MOL0     H 8229  10.317   7.178   7.677 -0.9250  0.8114  1.0558
   61MOL0     H 8230  10.311   7.085   7.828  0.9768  1.7509  1.0404
   61MOL0     H 8231  10.217   7.297   7.856 -0.7164 -1.0984  1.3194
   61MOL0     H 8232  10.075   7.194   7.861  1.0807  1.0422  1.8104
   61MOL0     H 8233   9.943   7.438   7.560  2.5217  2.9757 -1.3973
   61MOL0     H 8234  10.161   6.676   7.649  2.2756 -1.1853 -1.8903
   61MOL0     H 8235  10.106   6.447   7.722 -3.7632  2.5704 -0.1478
   62MOL0     O 8236   3.844   7.306   8.754 -0.7148  0.1309  0.5339
   62MOL0     C 8237   3.812   7.415   8.702  0.1966  0.8063 -0.4765
   62MOL0     O 8238   3.877   7.531   8.709 -0.0350  0.6058  0.1107
   62MOL0     C 8239   4.010   7.510   8.744 -0.0776 -0.4402  0.1766
   62MOL0     C 8240   4.066   7.583   8.848  0.2745  0.0438  0.3927
   62MOL0     C 8241   4.196   7.555   8.878 -0.2099 -0.7490  0.1380
   62MOL0     C 8242   4.279   7.468   8.804  0.0685 -0.9641 -0.2310
   62MOL0     O 8243   4.410   7.459   8.816 -0.0206 -0.2652  0.2242
   62MOL0     C 8244   4.455   7.440   8.950 -0.0225 -0.8680  0.3323
   62MOL0     C 8245   4.587   7.525   8.966 -0.7243 -0.3784 -0.0864
   62MOL0     C 8246   4.569   7.675   8.965 -0.4634  0.6834 -0.0316
   62MOL0     C 8247   4.700   7.736   9.021 -0.3985  0.8952  0.1542
   62MOL0     C 8248   4.707   7.894   9.015 -0.4576  0.0599  0.2936
   62MOL0     C 8249   4.814   7.961   9.093 -0.6594  0.4932 -0.4660
   62MOL0     C 8250   4.798   7.930   9.240 -0.2282  0.2852  0.3321
   62MOL0     C 8251   4.909   7.994   9.323 -0.4740 -0.1989  0.3958
   62MOL0     N 8252   5.032   7.923   9.297 -0.3789 -0.2289 -0.1296
   62MOL0     C 8253   5.138   7.961   9.213  0.8013 -1.4811 -0.3709
   62MOL0     C 8254   5.212   7.856   9.229 -0.1490  0.0714 -0.0608
   62MOL0     C 8255   5.358   7.853   9.175 -1.1143 -0.5472 -0.2340
   62MOL0     C 8256   5.382   7.713   9.124 -0.3836  0.1475 -0.1566
   62MOL0     C 8257   5.491   7.699   9.019 -0.0292 -0.7785 -0.5725
   62MOL0     C 8258   5.495   7.548   8.975  0.6720  0.2369 -0.0903
   62MOL0     O 8259   5.603   7.528   8.887  0.3710 -1.0200  0.1060
   62MOL0     C 8260   5.736   7.515   8.926  0.3553 -0.3498  0.1181
   62MOL0     C 8261   5.785   7.502   9.055 -1.1964  0.3552 -0.3295
   62MOL0     C 8262   5.926   7.466   9.075  0.1097  0.2117 -0.1789
   62MOL0     C 8263   5.970   7.433   9.223 -0.1834 -0.1610 -0.6609
   62MOL0     C 8264   6.011   7.472   8.965  0.4755  0.0069  0.5369
   62MOL0     C 8265   6.162   7.444   8.976  0.4299  0.3457  0.4136
   62MOL0     O 8266   6.217   7.478   9.083 -0.2149  1.1805 -0.0134
   62MOL0     C 8267   6.347   7.473   9.124 -0.1057 -0.0590  0.2851
   62MOL0     C 8268   6.377   7.517   9.255  0.1519  0.2951  0.5720
   62MOL0     C 8269   6.508   7.508   9.308 -0.2705  0.8512 -0.6999
   62MOL0     C 8270   6.611   7.474   9.229  0.4832 -0.7231 -0.5081
   62MOL0     O 8271   6.733   7.485   9.283 -0.5162 -0.5590  0.0349
   62MOL0     C 8272   6.835   7.554   9.202 -0.2710  0.8192 -0.5924
   62MOL0     C 8273   6.912   7.649   9.296  0.1956  0.3579  1.3276
   62MOL0     C 8274   7.015   7.736   9.243 -0.0602  0.6746 -0.1195
   62MOL0     C 8275   7.137   7.644   9.195  0.0058  0.6658 -0.0195
   62MOL0     C 8276   7.272   7.722   9.152 -0.3506  0.3624 -0.6939
   62MOL0     C 8277   7.377   7.610   9.130 -0.3342 -0.2104 -0.0405
   62MOL0     C 8278   7.518   7.678   9.151 -0.8343  0.3498  0.0183
   62MOL0     C 8279   7.639   7.581   9.153  0.2526  0.9489  0.0583
   62MOL0    Cl 8280   7.603   7.443   9.264 -0.5737 -0.0436 -0.5851
   62MOL0     C 8281   6.598   7.427   9.104 -1.1199  0.4817 -0.1367
   62MOL0     C 8282   6.466   7.429   9.049 -0.0640  0.5633  0.1775
   62MOL0     O 8283   6.214   7.404   8.878  0.2987 -0.2407  0.3845
   62MOL0     C 8284   5.949   7.483   8.835  0.5865  0.2434 -0.3957
   62MOL0     C 8285   5.813   7.507   8.815  0.2724 -0.6902  0.3548
   62MOL0     N 8286   5.162   7.756   9.309  0.4495  0.1751 -0.2876
   62MOL0     N 8287   5.046   7.799   9.340  0.7406 -0.0450  0.6164
   62MOL0     C 8288   4.222   7.413   8.692 -0.5520  0.5119  0.0867
   62MOL0     C 8289   4.086   7.428   8.664 -0.6787 -1.4480 -0.8298
   62MOL0     C 8290   3.678   7.415   8.647 -0.2547  0.2600  0.7247
   62MOL0     C 8291   3.615   7.296   8.595  0.7768  0.3960 -0.2987
   62MOL0     C 8292   3.479   7.308   8.538 -1.1609 -0.1005 -0.3890
   62MOL0     C 8293   3.414   7.434   8.542 -0.1290 -0.1757 -0.2636
   62MOL0     O 8294   3.284   7.438   8.498 -0.5604 -0.4404 -0.4926
   62MOL0     C 8295   3.212   7.562   8.489 -0.2230  0.1267 -0.3088
   62MOL0     C 8296   3.065   7.548   8.451 -0.3668 -0.2218 -0.0358
   62MOL0     C 8297   3.004   7.427   8.506  0.3893 -0.4710  0.0931
   62MOL0     C 8298   2.853   7.428   8.475  0.2622  0.4435 -1.1017
   62MOL0     C 8299   2.788   7.317   8.555  0.3002 -0.4691  0.2236
   62MOL0     C 8300   2.754   7.216   8.617 -0.6396 -0.0821 -0.1886
   62MOL0     C 8301   3.490   7.549   8.574  0.8253  0.3626  0.1362
   62MOL0     C 8302   3.614   7.533   8.631 -0.7453 -0.8894 -0.6922
   62MOL0     H 8303   4.003   7.659   8.894 -2.9378 -2.3196  0.2456
   62MOL0     H 8304   4.241   7.608   8.960  0.6013 -0.7777 -0.2843
   62MOL0     H 8305   4.391   7.473   9.032  1.5001 -0.7073  1.5058
   62MOL0     H 8306   4.481   7.335   8.964  4.0380  0.1071  1.6343
   62MOL0     H 8307   4.630   7.507   9.065  0.7345 -0.0984 -0.6574
   62MOL0     H 8308   4.665   7.501   8.894 -1.2139 -0.0809 -0.7296
   62MOL0     H 8309   4.548   7.702   8.861  0.8325 -0.5239 -0.6373
   62MOL0     H 8310   4.474   7.708   9.008 -0.8051 -0.7640  0.3683
   62MOL0     H 8311   4.737   7.688   9.112 -1.3176 -0.5484 -0.1932
   62MOL0     H 8312   4.776   7.708   8.948 -0.3659  4.2699 -1.2956
   62MOL0     H 8313   4.713   7.912   8.907 -3.9213  0.0968 -0.0040
   62MOL0     H 8314   4.616   7.943   9.050 -0.5591  0.0835 -0.0030
   62MOL0     H 8315   4.917   7.936   9.068  0.4865  0.7643  3.2990
   62MOL0     H 8316   4.793   8.065   9.068 -1.3773  0.8676  1.4871
   62MOL0     H 8317   4.714   7.995   9.268  0.3596  2.3238 -2.2237
   62MOL0     H 8318   4.787   7.823   9.259 -0.7755 -0.0599 -1.6805
   62MOL0     H 8319   4.892   7.986   9.431  2.3022  3.6865  1.3151
   62MOL0     H 8320   4.918   8.100   9.300  2.1957 -0.8503 -2.2286
   62MOL0     H 8321   5.158   8.051   9.155  2.1867 -0.6039  1.3751
   62MOL0     H 8322   5.364   7.919   9.088 -2.0287 -0.4686 -0.2460
   62MOL0     H 8323   5.433   7.881   9.250 -2.0071  1.1397  0.0794
   62MOL0     H 8324   5.284   7.677   9.091 -0.8147  1.2403 -0.1201
   62MOL0     H 8325   5.421   7.647   9.201  1.3419  0.4510 -0.7174
   62MOL0     H 8326   5.590   7.734   9.050 -0.1807  0.2182 -1.1663
   62MOL0     H 8327   5.470   7.773   8.941 -1.4574  0.5552  0.9785
   62MOL0     H 8328   5.401   7.507   8.937 -0.8843  1.7630  1.9058
   62MOL0     H 8329   5.521   7.489   9.064  0.6337  2.6757  1.6460
   62MOL0     H 8330   5.719   7.517   9.140  1.1545  4.4771  1.0658
   62MOL0     H 8331   5.989   7.325   9.235 -1.4265 -0.6103 -2.3214
   62MOL0     H 8332   6.057   7.483   9.265 -0.9089  0.2764  0.3499
   62MOL0     H 8333   5.892   7.459   9.295  1.8201  0.8850  1.2400
   62MOL0     H 8334   6.302   7.553   9.326  0.4234  1.8172  0.1108
   62MOL0     H 8335   6.519   7.542   9.410 -2.0327  1.0322 -0.5291
   62MOL0     H 8336   6.895   7.471   9.163  0.5099  2.0201 -2.0667
   62MOL0     H 8337   6.795   7.605   9.113  0.1730  1.2858 -0.5329
   62MOL0     H 8338   6.849   7.722   9.349 -1.2489 -0.8691  1.3479
   62MOL0     H 8339   6.961   7.584   9.368  2.7100  3.1175  2.2968
   62MOL0     H 8340   7.049   7.801   9.324  0.8810 -1.4696  1.3089
   62MOL0     H 8341   6.975   7.796   9.161  0.1170 -1.2751 -1.7040
   62MOL0     H 8342   7.182   7.601   9.284 -0.0643  1.3345  0.3442
   62MOL0     H 8343   7.112   7.561   9.128  0.8801 -0.9837  1.5964
   62MOL0     H 8344   7.311   7.783   9.234 -0.2782 -1.5902  0.8149
   62MOL0     H 8345   7.263   7.784   9.063  0.4763 -0.0952 -1.1132
   62MOL0     H 8346   7.373   7.523   9.197  0.8084  0.4806  0.9666
   62MOL0     H 8347   7.382   7.584   9.024  1.2752  0.8066 -0.2442
   62MOL0     H 8348   7.514   7.731   9.247  2.9470 -1.0277  1.1374
   62MOL0     H 8349   7.549   7.748   9.073  1.0294 -2.3369 -1.8315
   62MOL0     H 8350   7.731   7.630   9.188  2.2496 -2.9852  0.8642
   62MOL0     H 8351   7.659   7.532   9.058  2.7189 -2.7869  2.2425
   62MOL0     H 8352   6.686   7.389   9.052 -0.1652 -2.7973  3.4403
   62MOL0     H 8353   6.453   7.394   8.948  3.2157 -1.9904  0.4805
   62MOL0     H 8354   6.015   7.477   8.748  1.6486  0.0470  0.4047
   62MOL0     H 8355   5.775   7.522   8.715  0.2857  0.0006  0.4512
   62MOL0     H 8356   4.287   7.357   8.626  0.5675  2.1350 -0.2528
   62MOL0     H 8357   4.044   7.395   8.570  1.3055 -0.6489 -2.0592
   62MOL0     H 8358   3.654   7.195   8.603 -2.8367 -1.1486 -0.3472
   62MOL0     H 8359   3.424   7.224   8.499 -1.2113 -0.1930 -0.1232
   62MOL0     H 8360   3.221   7.611   8.586 -0.9480 -1.9386  0.8646
   62MOL0     H 8361   3.259   7.616   8.406  2.5142 -0.6538  0.6051
   62MOL0     H 8362   3.063   7.549   8.341  5.3144  1.3170 -0.4355
   62MOL0     H 8363   3.004   7.630   8.489 -1.2420 -0.9141  0.0809
   62MOL0     H 8364   3.030   7.416   8.612  2.3941 -1.8723 -0.4859
   62MOL0     H 8365   3.050   7.344   8.452  4.9355  0.3066  2.3272
   62MOL0     H 8366   2.829   7.415   8.370 -2.4903 -4.2501 -0.2132
   62MOL0     H 8367   2.811   7.524   8.506  2.1917  0.7507  0.8533
   62MOL0     H 8368   2.714   7.135   8.675 -0.3324  0.7146  1.1753
   62MOL0     H 8369   3.449   7.650   8.567  1.5603  0.8717  2.3105
   62MOL0     H 8370   3.662   7.614   8.685 -3.0479  0.3614 -0.3735
   63MOL0     O 8371   4.333   2.219   0.622  0.2985 -0.0354 -0.6557
   63MOL0     C 8372   4.383   2.210   0.517  0.1065 -0.1513  1.0767
   63MOL0     O 8373   4.328   2.258   0.405  0.7784 -0.3807  0.1832
   63MOL0     C 8374   4.218   2.341   0.422  0.2579 -0.7935 -0.5771
   63MOL0     C 8375   4.112   2.317   0.334 -0.2173 -0.1857 -0.0570
   63MOL0     C 8376   3.995   2.391   0.334  0.1829  0.3038 -0.3793
   63MOL0     C 8377   3.987   2.504   0.422 -0.7496 -0.7331  0.6818
   63MOL0     O 8378   3.873   2.580   0.426 -0.6629 -0.1195  0.0669
   63MOL0     C 8379   3.884   2.698   0.345  0.2021 -0.6229 -0.1713
   63MOL0     C 8380   3.842   2.677   0.194 -0.4472 -0.5781  0.2681
   63MOL0     C 8381   3.705   2.605   0.169  0.0651 -0.1471  0.7611
   63MOL0     C 8382   3.715   2.551   0.025  0.3597 -0.2771 -0.8507
   63MOL0     C 8383   3.627   2.442  -0.031  0.8227  0.9504 -0.0017
   63MOL0     C 8384   3.644   2.430  -0.187  0.9282 -0.3286 -0.0989
   63MOL0     C 8385   3.547   2.330  -0.252  0.1809 -0.6228 -0.5658
   63MOL0     C 8386   3.543   2.340  -0.404  0.1297 -0.2863  0.2953
   63MOL0     N 8387   3.675   2.327  -0.469 -0.0436  0.2154 -0.2819
   63MOL0     C 8388   3.727   2.205  -0.509 -0.0460  0.1971  0.2165
   63MOL0     C 8389   3.851   2.228  -0.554 -0.3552  0.3351  0.7182
   63MOL0     C 8390   3.928   2.118  -0.633  0.6405  0.6417  0.8952
   63MOL0     C 8391   4.053   2.155  -0.704  0.4612 -0.0762 -0.4843
   63MOL0     C 8392   4.136   2.029  -0.714 -0.5393 -0.4118  0.6330
   63MOL0     C 8393   4.262   2.046  -0.811  0.2788  0.5774 -0.0373
   63MOL0     O 8394   4.220   2.087  -0.942 -0.1212 -0.2771 -0.4852
   63MOL0     C 8395   4.278   2.034  -1.057 -0.6062  0.1636  0.4108
   63MOL0     C 8396   4.385   1.948  -1.067  0.4499 -0.6748 -0.1202
   63MOL0     C 8397   4.442   1.913  -1.195 -0.2861 -1.0238  0.2629
   63MOL0     C 8398   4.568   1.822  -1.188  0.0238 -0.0067  0.2371
   63MOL0     C 8399   4.382   1.963  -1.311  0.4985 -0.6108  1.1126
   63MOL0     C 8400   4.436   1.932  -1.452 -0.0116  0.9897  0.4258
   63MOL0     O 8401   4.529   1.833  -1.461 -0.3761  0.8012 -0.0790
   63MOL0     C 8402   4.616   1.821  -1.567 -0.5503 -0.0411 -1.0822
   63MOL0     C 8403   4.612   1.882  -1.690  0.1765 -1.0322 -0.1401
   63MOL0     C 8404   4.714   1.877  -1.779 -0.9530 -0.3233  0.2683
   63MOL0     C 8405   4.828   1.792  -1.758  0.0991  0.2492 -0.0780
   63MOL0     O 8406   4.905   1.762  -1.862  0.0224 -0.4843 -0.5282
   63MOL0     C 8407   5.046   1.740  -1.840  0.2947 -0.7675 -0.6568
   63MOL0     C 8408   5.117   1.870  -1.802 -0.0683  1.0445  0.8403
   63MOL0     C 8409   5.152   1.961  -1.921  0.4188  0.2742  0.0504
   63MOL0     C 8410   5.036   2.005  -2.006  0.0457  0.6384  0.7708
   63MOL0     C 8411   5.087   2.103  -2.118  0.4222 -0.0710 -0.5157
   63MOL0     C 8412   4.980   2.171  -2.201  0.2088  0.1337  0.7717
   63MOL0     C 8413   5.049   2.265  -2.307  0.8189 -0.2346 -0.2039
   63MOL0     C 8414   4.954   2.383  -2.323 -0.1929 -0.2377 -0.1163
   63MOL0    Cl 8415   4.968   2.462  -2.153 -0.0506  0.5853  0.2524
   63MOL0     C 8416   4.843   1.735  -1.626  0.3610  0.6149  0.6412
   63MOL0     C 8417   4.741   1.754  -1.533  0.3877 -0.4839  0.7434
   63MOL0     O 8418   4.409   2.018  -1.529  0.5331  0.4070  0.4691
   63MOL0     C 8419   4.271   2.050  -1.303 -0.1914  0.1276 -0.1382
   63MOL0     C 8420   4.229   2.088  -1.175 -0.3797 -0.4926  0.1595
   63MOL0     N 8421   3.884   2.356  -0.528  0.1778 -0.2761  0.5045
   63MOL0     N 8422   3.782   2.421  -0.483  0.2062  0.7716 -0.6717
   63MOL0     C 8423   4.097   2.532   0.514  0.3231  1.0516  0.8020
   63MOL0     C 8424   4.211   2.449   0.516  0.3337 -0.9110  0.0799
   63MOL0     C 8425   4.515   2.138   0.505  1.3551 -1.3486  0.4270
   63MOL0     C 8426   4.544   2.080   0.384  0.1061  0.7055 -0.4678
   63MOL0     C 8427   4.659   1.998   0.372  0.6046  0.6011  0.0972
   63MOL0     C 8428   4.751   1.985   0.477  0.2361  0.1659 -0.0653
   63MOL0     O 8429   4.872   1.918   0.477 -0.5391 -0.6114 -0.0382
   63MOL0     C 8430   4.930   1.860   0.362  0.8537 -0.1798  0.7046
   63MOL0     C 8431   5.073   1.845   0.378 -0.0095  0.2921 -0.3429
   63MOL0     C 8432   5.139   1.981   0.360 -0.9402 -0.3226 -1.7041
   63MOL0     C 8433   5.289   1.971   0.328  0.7466 -0.5479 -0.7105
   63MOL0     C 8434   5.355   1.896   0.437 -0.5053  0.0709 -0.6319
   63MOL0     C 8435   5.412   1.817   0.510  0.2602  0.6966  0.5921
   63MOL0     C 8436   4.726   2.055   0.595  0.1285  0.2186  0.1300
   63MOL0     C 8437   4.602   2.126   0.609 -0.7565 -0.8406 -0.1287
   63MOL0     H 8438   4.119   2.234   0.265  0.0832 -0.1124 -0.1137
   63MOL0     H 8439   3.916   2.356   0.268  1.3799 -0.7127 -1.3153
   63MOL0     H 8440   3.829   2.784   0.384  0.9488 -0.4725  0.5783
   63MOL0     H 8441   3.987   2.734   0.354 -0.4807  1.9394 -1.5271
   63MOL0     H 8442   3.837   2.770   0.136  0.6148 -2.2442 -2.7569
   63MOL0     H 8443   3.928   2.629   0.147  1.7329  2.3856  0.9276
   63MOL0     H 8444   3.685   2.524   0.239  2.2629 -0.5347  1.0191
   63MOL0     H 8445   3.623   2.678   0.172  1.0278  1.1541 -1.6211
   63MOL0     H 8446   3.708   2.638  -0.040 -0.0131 -1.5451 -2.5668
   63MOL0     H 8447   3.817   2.515   0.011  0.2778 -0.9356  0.1182
   63MOL0     H 8448   3.659   2.348   0.014  0.7029 -0.9580 -3.5588
   63MOL0     H 8449   3.523   2.462  -0.001 -0.4027  0.0260 -3.1593
   63MOL0     H 8450   3.633   2.530  -0.230 -2.4463 -0.1975  0.7217
   63MOL0     H 8451   3.748   2.399  -0.197  1.7480  2.4759 -1.1578
   63MOL0     H 8452   3.571   2.225  -0.237 -3.4988 -1.7370 -1.5087
   63MOL0     H 8453   3.445   2.335  -0.212  0.6583  0.2360  0.6081
   63MOL0     H 8454   3.505   2.442  -0.419 -0.5259 -0.5676  0.0269
   63MOL0     H 8455   3.474   2.272  -0.454  0.9915 -0.9678  0.0071
   63MOL0     H 8456   3.663   2.117  -0.501  3.0816 -2.1438  2.0099
   63MOL0     H 8457   3.954   2.040  -0.560 -0.4057 -0.5759  0.0113
   63MOL0     H 8458   3.858   2.076  -0.706  1.6855  2.4564 -1.2714
   63MOL0     H 8459   4.106   2.224  -0.637 -0.1580 -2.1788  2.3517
   63MOL0     H 8460   4.038   2.203  -0.801  1.5928  1.4020  0.0293
   63MOL0     H 8461   4.079   1.947  -0.759  2.8451 -2.9630  0.5947
   63MOL0     H 8462   4.150   2.009  -0.607 -1.6726 -0.2189  0.8351
   63MOL0     H 8463   4.296   1.942  -0.811 -0.3317  0.3122  2.2570
   63MOL0     H 8464   4.334   2.114  -0.765  0.0031 -1.3257  3.5819
   63MOL0     H 8465   4.418   1.917  -0.968 -2.8835  2.5024  2.2667
   63MOL0     H 8466   4.573   1.790  -1.083 -3.2911  0.4489  0.6265
   63MOL0     H 8467   4.550   1.737  -1.254  1.0246  0.1278 -0.2218
   63MOL0     H 8468   4.656   1.878  -1.221  0.2061 -0.3342  0.1645
   63MOL0     H 8469   4.528   1.941  -1.724  1.9184 -0.1845 -3.3742
   63MOL0     H 8470   4.699   1.912  -1.881 -1.9800  0.7832  0.7780
   63MOL0     H 8471   5.059   1.661  -1.765  0.7398 -3.0592 -2.9669
   63MOL0     H 8472   5.099   1.704  -1.929  2.1269 -0.5752  0.3002
   63MOL0     H 8473   5.052   1.918  -1.728 -0.7680 -0.1718  1.0362
   63MOL0     H 8474   5.208   1.849  -1.745  1.8593 -0.2734 -2.4214
   63MOL0     H 8475   5.226   1.920  -1.989  0.0873 -0.4285  0.0974
   63MOL0     H 8476   5.207   2.047  -1.882 -1.6251  3.3298 -3.1536
   63MOL0     H 8477   4.988   1.923  -2.060 -1.7701  1.4757  1.0185
   63MOL0     H 8478   4.956   2.042  -1.941  0.2914 -0.7692  1.9162
   63MOL0     H 8479   5.159   2.048  -2.179  1.4696  1.6547 -0.9392
   63MOL0     H 8480   5.128   2.187  -2.061  3.1172  1.0114 -3.7111
   63MOL0     H 8481   4.929   2.092  -2.257  0.7314  0.9663 -0.9286
   63MOL0     H 8482   4.910   2.217  -2.130  2.2019  0.2134  2.8100
   63MOL0     H 8483   5.056   2.202  -2.396 -2.7315  0.5758 -1.2096
   63MOL0     H 8484   5.146   2.302  -2.273  0.6433 -1.9594  2.4779
   63MOL0     H 8485   4.855   2.343  -2.347 -1.0234 -0.2000  2.8432
   63MOL0     H 8486   4.988   2.450  -2.402  0.6350 -0.3668  0.1288
   63MOL0     H 8487   4.922   1.663  -1.607 -0.9975 -0.9839  0.4452
   63MOL0     H 8488   4.747   1.731  -1.427  0.1935 -1.2662  0.5873
   63MOL0     H 8489   4.218   2.097  -1.385  1.1544  0.5584 -0.7979
   63MOL0     H 8490   4.146   2.156  -1.155  0.8516  1.2224 -0.3523
   63MOL0     H 8491   4.102   2.621   0.577  0.5995  0.3946  1.7277
   63MOL0     H 8492   4.292   2.465   0.586  0.7724 -0.3106 -0.5432
   63MOL0     H 8493   4.488   2.107   0.295 -0.8973  2.3809  0.6132
   63MOL0     H 8494   4.671   1.938   0.282  0.8003 -1.2057  1.2793
   63MOL0     H 8495   4.889   1.759   0.352  1.6534 -0.7595  2.7756
   63MOL0     H 8496   4.904   1.923   0.276  1.2151  1.5507  1.8141
   63MOL0     H 8497   5.105   1.794   0.287 -0.8844 -3.6308  1.3539
   63MOL0     H 8498   5.107   1.794   0.469  2.5117 -0.3723 -1.5752
   63MOL0     H 8499   5.131   2.048   0.446  1.5222  0.6631 -2.1364
   63MOL0     H 8500   5.101   2.043   0.278 -2.2430 -0.4909 -1.2441
   63MOL0     H 8501   5.322   2.075   0.318  0.3953 -0.3592  0.0282
   63MOL0     H 8502   5.309   1.918   0.235 -0.6544 -0.9409 -0.8000
   63MOL0     H 8503   5.451   1.746   0.579 -1.7716  1.8221  3.0949
   63MOL0     H 8504   4.801   2.053   0.674 -2.4946  0.4972  2.8188
   63MOL0     H 8505   4.585   2.179   0.702 -1.3264 -2.9726  1.0541
   64MOL0     O 8506   1.820   4.627   1.773  0.3741 -0.1271 -0.4579
   64MOL0     C 8507   1.811   4.578   1.886  0.6260  0.4976 -0.0157
   64MOL0     O 8508   1.818   4.444   1.925 -0.3598 -0.0555 -0.3926
   64MOL0     C 8509   1.804   4.342   1.836 -0.1210  0.3728 -0.1322
   64MOL0     C 8510   1.872   4.225   1.878 -0.0376  0.2919  0.1002
   64MOL0     C 8511   1.864   4.104   1.804  0.5609 -0.2014  0.0168
   64MOL0     C 8512   1.808   4.112   1.685  0.1537  0.5325  0.2833
   64MOL0     O 8513   1.765   4.001   1.603 -0.6192  0.7491  0.3897
   64MOL0     C 8514   1.758   3.872   1.660 -0.4179 -1.2894 -0.1208
   64MOL0     C 8515   1.689   3.775   1.559 -0.1079  0.5934 -0.1867
   64MOL0     C 8516   1.738   3.775   1.418 -0.7403 -0.3075 -0.3032
   64MOL0     C 8517   1.659   3.673   1.335 -0.1279 -0.6633  0.8593
   64MOL0     C 8518   1.725   3.670   1.190 -0.5884 -0.8130  1.0246
   64MOL0     C 8519   1.666   3.556   1.108  0.2997 -1.2542 -0.5088
   64MOL0     C 8520   1.681   3.559   0.957  0.3461  0.2588  0.4389
   64MOL0     C 8521   1.608   3.426   0.908  0.2701 -0.0532 -0.4633
   64MOL0     N 8522   1.619   3.386   0.765 -0.5752  0.5096 -0.2193
   64MOL0     C 8523   1.712   3.300   0.712 -0.2166 -0.6345 -0.5196
   64MOL0     C 8524   1.681   3.284   0.577 -0.0255  0.3147 -0.1567
   64MOL0     C 8525   1.756   3.189   0.486  0.6496 -0.3983  0.8982
   64MOL0     C 8526   1.660   3.084   0.437  0.0601 -0.3828  0.6550
   64MOL0     C 8527   1.737   2.968   0.373  0.1800 -0.0742  1.1247
   64MOL0     C 8528   1.800   2.999   0.233 -0.0353  0.1566 -0.0030
   64MOL0     O 8529   1.923   3.069   0.246  0.9195  0.3274  0.2561
   64MOL0     C 8530   1.970   3.148   0.140  0.6424  0.9436  1.2347
   64MOL0     C 8531   1.926   3.141   0.013  0.6168  1.5244 -0.0794
   64MOL0     C 8532   1.981   3.209  -0.094 -0.0518  0.8673 -0.4936
   64MOL0     C 8533   1.926   3.162  -0.231  0.4057 -0.1810  0.2504
   64MOL0     C 8534   2.073   3.305  -0.064 -0.2066  0.6778 -0.0469
   64MOL0     C 8535   2.140   3.382  -0.175  0.0972 -1.0774  0.2088
   64MOL0     O 8536   2.222   3.483  -0.137 -0.7508  0.4308  0.4636
   64MOL0     C 8537   2.279   3.572  -0.227  0.3530  0.9089 -1.0614
   64MOL0     C 8538   2.301   3.555  -0.368 -0.0677  0.0476  0.5239
   64MOL0     C 8539   2.369   3.659  -0.436 -0.2655 -0.5817 -0.2879
   64MOL0     C 8540   2.422   3.766  -0.374  0.1243  0.3558 -0.3188
   64MOL0     O 8541   2.497   3.854  -0.447 -0.1125 -0.3702  0.1399
   64MOL0     C 8542   2.620   3.896  -0.389  0.5284  0.1207  0.2604
   64MOL0     C 8543   2.714   3.956  -0.499 -0.2325  0.9544 -0.1260
   64MOL0     C 8544   2.858   4.013  -0.455 -0.2590 -0.1113 -0.5949
   64MOL0     C 8545   2.946   4.065  -0.565 -0.9397 -0.8182 -0.3464
   64MOL0     C 8546   2.960   3.966  -0.676  0.3505 -0.1402  0.2335
   64MOL0     C 8547   3.070   4.003  -0.770  0.3887 -0.0239  1.1169
   64MOL0     C 8548   3.023   4.098  -0.881 -0.0518  0.2970 -1.0763
   64MOL0     C 8549   3.039   4.244  -0.824 -0.6951 -0.0813  0.4988
   64MOL0    Cl 8550   3.219   4.269  -0.799 -0.1702 -0.1940  0.3900
   64MOL0     C 8551   2.399   3.782  -0.245 -0.6638 -0.1136  0.2570
   64MOL0     C 8552   2.322   3.689  -0.163 -0.2627 -0.5271 -0.0379
   64MOL0     O 8553   2.103   3.365  -0.290  0.1713  0.0075 -0.1754
   64MOL0     C 8554   2.109   3.335   0.070  0.0210  0.0308  0.3197
   64MOL0     C 8555   2.065   3.250   0.176 -0.6608  0.3673 -0.7056
   64MOL0     N 8556   1.584   3.381   0.547 -0.3164  0.0856 -0.1357
   64MOL0     N 8557   1.554   3.445   0.659 -0.4879 -0.1534  0.1488
   64MOL0     C 8558   1.744   4.226   1.640 -0.7078 -0.5800  0.9160
   64MOL0     C 8559   1.743   4.342   1.711 -0.6288 -1.0864  0.0419
   64MOL0     C 8560   1.788   4.679   1.997 -0.0467  0.3394  1.9114
   64MOL0     C 8561   1.785   4.818   1.968 -0.6721 -0.7905 -0.6337
   64MOL0     C 8562   1.763   4.919   2.066  0.3280 -0.4341 -0.0435
   64MOL0     C 8563   1.741   4.877   2.208 -0.2032 -0.2566  0.4982
   64MOL0     O 8564   1.745   4.964   2.313  0.5688 -0.6934  0.7509
   64MOL0     C 8565   1.835   5.080   2.312  1.1761  0.9367  0.4062
   64MOL0     C 8566   1.763   5.187   2.389 -0.1048  0.2014 -0.0807
   64MOL0     C 8567   1.807   5.325   2.347  0.1581  0.2696  0.0008
   64MOL0     C 8568   1.956   5.355   2.307  0.5780  0.2339  0.8800
   64MOL0     C 8569   2.041   5.306   2.413 -0.1488 -0.9506 -0.1680
   64MOL0     C 8570   2.116   5.278   2.509  1.1817 -0.2603 -0.1901
   64MOL0     C 8571   1.728   4.739   2.236 -0.5323  0.2596  0.4364
   64MOL0     C 8572   1.753   4.644   2.131  0.2122 -0.6863  0.6297
   64MOL0     H 8573   1.906   4.224   1.981 -2.0272 -0.4972  0.8113
   64MOL0     H 8574   1.895   4.006   1.839  2.3382  0.1735 -0.3995
   64MOL0     H 8575   1.853   3.832   1.698 -0.9350 -3.6002 -1.0635
   64MOL0     H 8576   1.694   3.883   1.749  2.2251 -2.7381  2.1474
   64MOL0     H 8577   1.690   3.674   1.602 -2.6034 -0.6020 -2.5748
   64MOL0     H 8578   1.579   3.776   1.557 -0.1804 -1.2273  0.8869
   64MOL0     H 8579   1.728   3.866   1.359  0.8544 -0.5450 -1.0101
   64MOL0     H 8580   1.843   3.744   1.414 -0.8183 -0.4582 -1.8031
   64MOL0     H 8581   1.668   3.581   1.393 -0.9722  0.3015  2.6084
   64MOL0     H 8582   1.555   3.698   1.314  0.3007  0.5557  0.0600
   64MOL0     H 8583   1.699   3.760   1.134  3.2121  0.0838  0.3771
   64MOL0     H 8584   1.834   3.657   1.188 -0.8577 -3.8085 -0.6448
   64MOL0     H 8585   1.702   3.457   1.137  0.1255 -1.2549 -0.2989
   64MOL0     H 8586   1.559   3.552   1.133  0.6248  0.0073  1.2582
   64MOL0     H 8587   1.630   3.646   0.914 -0.4524 -0.2085  0.4179
   64MOL0     H 8588   1.782   3.553   0.916 -0.4003 -1.3445 -1.3048
   64MOL0     H 8589   1.504   3.444   0.936  0.9495 -1.1399  3.1788
   64MOL0     H 8590   1.635   3.335   0.962 -0.2127 -0.5528 -1.0408
   64MOL0     H 8591   1.797   3.265   0.768  0.6222  1.3664 -0.4482
   64MOL0     H 8592   1.805   3.235   0.399  0.2251 -1.3545  0.1292
   64MOL0     H 8593   1.830   3.131   0.542  2.5666 -0.1038 -1.1454
   64MOL0     H 8594   1.591   3.137   0.370  2.2118  2.1339  0.2583
   64MOL0     H 8595   1.599   3.046   0.520 -1.0004  2.2374  1.1910
   64MOL0     H 8596   1.657   2.896   0.358  0.2899 -0.2634  1.4337
   64MOL0     H 8597   1.808   2.920   0.441  1.7577 -1.4900 -1.3622
   64MOL0     H 8598   1.728   3.049   0.167 -0.4053 -3.8970 -3.0076
   64MOL0     H 8599   1.814   2.904   0.182  3.5338  0.7626 -0.3815
   64MOL0     H 8600   1.840   3.080  -0.014 -0.0143  1.3420  2.1539
   64MOL0     H 8601   2.007   3.128  -0.297  0.2455  0.4736 -0.2999
   64MOL0     H 8602   1.852   3.082  -0.228  2.2690 -2.1564 -2.0122
   64MOL0     H 8603   1.880   3.249  -0.279 -1.2958 -1.5737 -0.7684
   64MOL0     H 8604   2.269   3.473  -0.431  2.4329 -0.8859  0.3605
   64MOL0     H 8605   2.377   3.647  -0.544  0.7897  0.3795 -0.3405
   64MOL0     H 8606   2.591   3.963  -0.308 -4.9602 -0.1737 -1.1089
   64MOL0     H 8607   2.668   3.804  -0.353 -0.1199 -0.7593 -1.0533
   64MOL0     H 8608   2.746   3.874  -0.564  2.4430  1.6257  0.2037
   64MOL0     H 8609   2.664   4.029  -0.564 -0.7699  0.6645 -0.0420
   64MOL0     H 8610   2.909   3.932  -0.402 -0.2885  0.0605 -0.3056
   64MOL0     H 8611   2.830   4.086  -0.379  0.8354  1.1335 -1.3534
   64MOL0     H 8612   2.891   4.154  -0.596 -0.1416  0.5222  1.8786
   64MOL0     H 8613   3.045   4.089  -0.525  0.3133 -3.6379 -1.4899
   64MOL0     H 8614   2.869   3.966  -0.736  1.4042  1.1182 -1.4495
   64MOL0     H 8615   2.989   3.868  -0.636 -1.2381 -1.3724 -1.4622
   64MOL0     H 8616   3.155   4.028  -0.706  0.4946 -3.2904  2.4714
   64MOL0     H 8617   3.099   3.911  -0.822 -1.4921 -1.1404  1.9381
   64MOL0     H 8618   2.919   4.072  -0.903 -0.7538 -1.1234  3.0438
   64MOL0     H 8619   3.074   4.079  -0.976  2.1288 -0.0594  0.0976
   64MOL0     H 8620   2.991   4.263  -0.728  2.1107 -0.6930  2.1311
   64MOL0     H 8621   3.007   4.320  -0.895  3.0274  0.3750 -0.9025
   64MOL0     H 8622   2.450   3.857  -0.185  2.4396 -3.0461  1.7179
   64MOL0     H 8623   2.313   3.703  -0.056 -2.2797 -0.8974 -0.1157
   64MOL0     H 8624   2.180   3.415   0.089  0.9701 -0.1729 -2.1043
   64MOL0     H 8625   2.096   3.261   0.279 -1.4397  2.6233 -0.6486
   64MOL0     H 8626   1.698   4.220   1.542  1.6261 -3.0795 -0.1559
   64MOL0     H 8627   1.685   4.419   1.662  1.9636 -1.5637 -4.3382
   64MOL0     H 8628   1.806   4.848   1.866  2.4535  0.1401  0.2081
   64MOL0     H 8629   1.768   5.025   2.043  1.7375 -0.5887 -0.5684
   64MOL0     H 8630   1.935   5.061   2.352  2.0958 -0.0723 -2.1795
   64MOL0     H 8631   1.849   5.107   2.207  0.1626  1.3948  0.3811
   64MOL0     H 8632   1.780   5.165   2.495 -0.2461 -1.0451 -0.3020
   64MOL0     H 8633   1.655   5.182   2.373 -0.2049 -0.3639  0.7142
   64MOL0     H 8634   1.772   5.396   2.423 -0.9275  0.4326 -0.6219
   64MOL0     H 8635   1.755   5.345   2.253  0.7788 -2.0011 -0.8901
   64MOL0     H 8636   1.970   5.464   2.300  0.1197  0.2920  0.8463
   64MOL0     H 8637   1.993   5.304   2.218  1.2946  4.1999 -1.3530
   64MOL0     H 8638   2.180   5.268   2.594  0.8583 -2.4666 -0.1389
   64MOL0     H 8639   1.711   4.707   2.338 -0.9475 -0.0259  0.2809
   64MOL0     H 8640   1.745   4.540   2.160  3.5107 -1.6920 -1.6152
   65MOL0     O 8641   3.945   9.584   1.515 -0.0506  0.4557  0.5245
   65MOL0     C 8642   3.982   9.498   1.441  0.0811 -0.2376 -0.7393
   65MOL0     O 8643   4.021   9.508   1.312  0.1295 -0.2025  0.3428
   65MOL0     C 8644   4.018   9.627   1.250  1.4701  0.5861 -0.7936
   65MOL0     C 8645   4.124   9.711   1.219 -0.2074  0.6341  0.6001
   65MOL0     C 8646   4.104   9.835   1.162 -0.3648  0.2071  0.5996
   65MOL0     C 8647   3.973   9.874   1.131 -0.3862 -0.7028 -0.5799
   65MOL0     O 8648   3.972   9.999   1.086 -0.1126 -0.4121 -0.3645
   65MOL0     C 8649   3.843  10.054   1.040  0.8019  0.1960 -0.3281
   65MOL0     C 8650   3.837  10.188   0.962 -0.1881  0.2495  0.3235
   65MOL0     C 8651   3.897  10.168   0.823 -0.0829 -0.3529 -0.0197
   65MOL0     C 8652   3.803  10.126   0.715  0.0182 -0.0602  0.4280
   65MOL0     C 8653   3.888  10.130   0.585 -0.8269 -0.1221 -0.1168
   65MOL0     C 8654   3.803  10.088   0.465  0.9906 -0.2412  0.2573
   65MOL0     C 8655   3.766   9.942   0.462 -0.6542 -0.5002  0.2662
   65MOL0     C 8656   3.707   9.914   0.318 -0.1869  0.0042  0.0216
   65MOL0     N 8657   3.602  10.013   0.272 -0.7510  0.1289 -0.0262
   65MOL0     C 8658   3.477  10.046   0.314  0.3326  1.2535  0.4680
   65MOL0     C 8659   3.413  10.110   0.219 -0.4021  0.3864  0.4189
   65MOL0     C 8660   3.279  10.161   0.219  0.0895  0.2119 -0.3644
   65MOL0     C 8661   3.275  10.308   0.166 -0.1808 -0.1552 -0.6659
   65MOL0     C 8662   3.287  10.323   0.017  0.3961 -0.0812 -0.6972
   65MOL0     C 8663   3.199  10.433  -0.043  0.3046  0.0428 -0.6146
   65MOL0     O 8664   3.221  10.569   0.008  0.6584 -0.3909 -0.2974
   65MOL0     C 8665   3.132  10.668  -0.019  0.8547 -0.4220 -0.2057
   65MOL0     C 8666   3.020  10.661  -0.106  0.5307 -0.6337  0.1850
   65MOL0     C 8667   2.944  10.780  -0.139 -0.1899  0.4939 -0.3895
   65MOL0     C 8668   2.818  10.752  -0.217 -0.6445  0.4116  0.4925
   65MOL0     C 8669   2.991  10.903  -0.096 -0.9615  0.1153  0.7869
   65MOL0     C 8670   2.919  11.025  -0.122  0.0909 -0.4323  0.2073
   65MOL0     O 8671   2.988  11.147  -0.089 -0.6417 -0.4435 -0.7318
   65MOL0     C 8672   2.933  11.270  -0.092  0.1282  0.3551 -0.9024
   65MOL0     C 8673   2.996  11.368  -0.158  0.0380  0.2405 -0.6583
   65MOL0     C 8674   2.954  11.498  -0.153 -0.1486  0.7862  0.7495
   65MOL0     C 8675   2.838  11.533  -0.085  0.0354 -0.0052 -0.1502
   65MOL0     O 8676   2.806  11.665  -0.081  0.3062  0.0984 -0.1291
   65MOL0     C 8677   2.678  11.710  -0.032  0.0416  0.3574  0.6271
   65MOL0     C 8678   2.677  11.727   0.123  0.1155 -0.8287 -0.0974
   65MOL0     C 8679   2.568  11.822   0.173 -0.2580  0.6858  0.3197
   65MOL0     C 8680   2.601  11.881   0.310 -0.8387 -0.3236  0.0079
   65MOL0     C 8681   2.519  11.999   0.363 -0.7029  0.1090  0.5367
   65MOL0     C 8682   2.557  12.051   0.496  0.9171 -0.8464  0.6496
   65MOL0     C 8683   2.467  12.166   0.528 -0.7488  0.5240  0.3316
   65MOL0     C 8684   2.540  12.299   0.483  0.5352  0.5771 -0.1881
   65MOL0    Cl 8685   2.686  12.312   0.587  0.1238 -0.0643 -0.0838
   65MOL0     C 8686   2.773  11.433  -0.018 -0.2284 -0.5608  0.0512
   65MOL0     C 8687   2.826  11.301  -0.012  0.9713 -1.0348 -1.1727
   65MOL0     O 8688   2.802  11.020  -0.156  0.3090  0.4281 -0.0656
   65MOL0     C 8689   3.103  10.907  -0.010  0.8390 -0.0786 -0.1145
   65MOL0     C 8690   3.168  10.792   0.043  0.3375 -0.7148 -0.6606
   65MOL0     N 8691   3.508  10.120   0.113 -0.6131 -0.0112  0.2498
   65MOL0     N 8692   3.612  10.056   0.145  0.7532 -0.6349  0.4274
   65MOL0     C 8693   3.867   9.786   1.152 -0.2150 -0.0695  0.8529
   65MOL0     C 8694   3.888   9.665   1.208  0.1520  0.5709 -0.0372
   65MOL0     C 8695   3.970   9.363   1.506 -0.3322 -0.0865 -0.3500
   65MOL0     C 8696   3.878   9.342   1.605  0.4633  0.0067  1.1201
   65MOL0     C 8697   3.859   9.216   1.665 -0.0286 -0.6869  0.1252
   65MOL0     C 8698   3.931   9.112   1.608  0.6691  0.1067 -0.0961
   65MOL0     O 8699   3.903   8.984   1.642 -0.1288  0.1973 -0.7277
   65MOL0     C 8700   3.983   8.934   1.757  0.1993 -0.6486  0.0818
   65MOL0     C 8701   3.899   8.920   1.891 -0.6069 -0.2005 -0.3052
   65MOL0     C 8702   4.002   8.942   2.007  1.2476  0.1477  0.4712
   65MOL0     C 8703   3.938   8.932   2.154  0.5188  0.4563  0.0800
   65MOL0     C 8704   4.048   8.865   2.232  1.1996 -1.3002 -0.4226
   65MOL0     C 8705   4.132   8.814   2.296  0.7727  0.5113 -0.0647
   65MOL0     C 8706   4.028   9.127   1.512 -0.0076 -0.7023 -0.2117
   65MOL0     C 8707   4.055   9.258   1.471  0.4703 -0.3418  0.4090
   65MOL0     H 8708   4.228   9.688   1.242 -1.2988 -1.2262  4.5927
   65MOL0     H 8709   4.200   9.885   1.146  1.1562 -2.7275 -0.0665
   65MOL0     H 8710   3.803   9.983   0.967  0.7989 -2.5386  2.1410
   65MOL0     H 8711   3.771  10.050   1.123  0.8297  1.3015 -0.2457
   65MOL0     H 8712   3.733  10.221   0.953  0.0193  0.8802  0.2414
   65MOL0     H 8713   3.896  10.264   1.014  0.9282 -0.3523 -0.0178
   65MOL0     H 8714   3.943  10.266   0.804 -1.3701  0.0756 -1.1180
   65MOL0     H 8715   3.975  10.091   0.823  1.0274  0.7280  1.0261
   65MOL0     H 8716   3.769  10.025   0.738 -0.7568  0.4310  1.5097
   65MOL0     H 8717   3.720  10.197   0.708  0.5783  0.5967  0.2862
   65MOL0     H 8718   3.931  10.229   0.566  0.2360 -0.6058 -0.2462
   65MOL0     H 8719   3.957  10.046   0.592 -6.2521 -5.2252 -0.0865
   65MOL0     H 8720   3.723  10.162   0.458  2.5279  2.0511  3.7851
   65MOL0     H 8721   3.850  10.113   0.369 -1.2581  0.8949 -0.6129
   65MOL0     H 8722   3.850   9.874   0.478 -0.0720  0.5709  2.1099
   65MOL0     H 8723   3.688   9.924   0.536 -2.7012  1.6926 -1.1939
   65MOL0     H 8724   3.654   9.818   0.319  0.9105 -0.7443 -2.7553
   65MOL0     H 8725   3.784   9.918   0.240 -0.5294  0.0177 -0.3154
   65MOL0     H 8726   3.430  10.002   0.401 -0.7620  1.0635 -0.1995
   65MOL0     H 8727   3.223  10.093   0.154  1.6137 -0.3869 -1.1012
   65MOL0     H 8728   3.227  10.160   0.315  0.6922 -0.5173 -0.0396
   65MOL0     H 8729   3.343  10.369   0.225  0.9972 -1.2654 -0.8354
   65MOL0     H 8730   3.176  10.349   0.189 -0.5621 -2.2360  1.8996
   65MOL0     H 8731   3.247  10.231  -0.028  1.0659 -0.9279  0.4164
   65MOL0     H 8732   3.393  10.341  -0.004  0.3879  2.4643  1.0230
   65MOL0     H 8733   3.093  10.411  -0.025  0.1473  1.0593 -0.2369
   65MOL0     H 8734   3.205  10.425  -0.152 -0.1116  0.2544 -0.6556
   65MOL0     H 8735   2.990  10.565  -0.145  1.9504 -1.4072  0.9082
   65MOL0     H 8736   2.813  10.649  -0.255 -1.2717  0.9609 -1.0224
   65MOL0     H 8737   2.727  10.780  -0.163 -0.3651  0.9797  0.6757
   65MOL0     H 8738   2.822  10.817  -0.305  2.8504  1.4789  1.3158
   65MOL0     H 8739   3.090  11.337  -0.203 -0.0029 -0.5562 -0.2042
   65MOL0     H 8740   3.003  11.583  -0.201  1.1275  0.8540  2.1097
   65MOL0     H 8741   2.668  11.806  -0.082  1.7398 -0.5861 -1.6961
   65MOL0     H 8742   2.597  11.640  -0.056  2.6640 -2.0957 -1.8168
   65MOL0     H 8743   2.666  11.634   0.179 -1.0558  0.0739  1.2355
   65MOL0     H 8744   2.775  11.768   0.145 -0.3201 -1.0497  2.5452
   65MOL0     H 8745   2.465  11.785   0.175 -0.1991  0.4075  3.2498
   65MOL0     H 8746   2.561  11.907   0.105 -2.0201  1.2553  1.1470
   65MOL0     H 8747   2.592  11.800   0.383 -2.6807 -0.3054 -0.1620
   65MOL0     H 8748   2.703  11.922   0.310 -2.0314  2.9457  0.1449
   65MOL0     H 8749   2.412  11.976   0.366 -0.2565 -2.1350  1.9476
   65MOL0     H 8750   2.545  12.078   0.293  1.4387 -0.1657  0.9715
   65MOL0     H 8751   2.542  11.973   0.571 -0.1973 -2.2315 -0.9360
   65MOL0     H 8752   2.665  12.069   0.500  0.7714  0.2570  0.0330
   65MOL0     H 8753   2.468  12.165   0.638 -0.2008  1.4884  0.3505
   65MOL0     H 8754   2.363  12.160   0.497 -0.1721 -1.8823 -1.4112
   65MOL0     H 8755   2.475  12.386   0.498  0.5055  0.8591 -1.7570
   65MOL0     H 8756   2.564  12.273   0.380  0.0342 -0.6347 -0.0103
   65MOL0     H 8757   2.686  11.458   0.042  0.4304  1.7648  0.1354
   65MOL0     H 8758   2.773  11.238   0.059 -0.7169 -1.7763 -3.0104
   65MOL0     H 8759   3.138  11.003   0.027 -1.0513  0.7145 -0.2698
   65MOL0     H 8760   3.248  10.794   0.116 -0.9845  1.2056  0.8421
   65MOL0     H 8761   3.765   9.814   1.124  0.1701  0.0302 -0.5109
   65MOL0     H 8762   3.810   9.589   1.218  0.3408 -0.0540 -2.5363
   65MOL0     H 8763   3.816   9.426   1.635  1.5722  1.1465  0.3141
   65MOL0     H 8764   3.775   9.206   1.733 -1.7511  2.4229 -1.3544
   65MOL0     H 8765   4.027   8.838   1.726  0.0949 -0.8844  0.6521
   65MOL0     H 8766   4.066   9.003   1.769 -0.2875 -0.3192  1.8312
   65MOL0     H 8767   3.881   8.813   1.909  2.8797 -0.7729  0.5635
   65MOL0     H 8768   3.810   8.983   1.883 -1.4517 -0.8319  2.7160
   65MOL0     H 8769   4.046   9.040   1.989 -0.2242  0.9046  0.8597
   65MOL0     H 8770   4.089   8.875   1.998  2.0289  1.1862  0.0662
   65MOL0     H 8771   3.847   8.872   2.158 -0.1013  0.4020 -5.8793
   65MOL0     H 8772   3.911   9.035   2.182 -1.1854  0.3098 -0.9057
   65MOL0     H 8773   4.206   8.757   2.349 -2.3290 -2.3351  1.5591
   65MOL0     H 8774   4.080   9.049   1.456  1.7703  1.9941 -2.5504
   65MOL0     H 8775   4.122   9.267   1.385  0.2279 -0.3175  0.2199
   66MOL0     O 8776   3.914   3.565   3.883 -0.2935 -0.3549  0.5539
   66MOL0     C 8777   3.911   3.478   3.969  0.1222  0.3332  0.4915
   66MOL0     O 8778   4.015   3.441   4.052 -0.0596  0.4942 -0.2531
   66MOL0     C 8779   4.122   3.523   4.048 -0.2719  0.2948 -0.2705
   66MOL0     C 8780   4.249   3.484   3.998 -0.2536  0.6020 -0.4148
   66MOL0     C 8781   4.353   3.576   4.010  0.1189 -0.2401 -0.0651
   66MOL0     C 8782   4.334   3.700   4.075  0.2229  0.8051  0.3143
   66MOL0     O 8783   4.425   3.796   4.084 -0.1329 -0.3312  0.6736
   66MOL0     C 8784   4.554   3.784   4.012 -0.1292  0.5645 -0.5910
   66MOL0     C 8785   4.655   3.869   4.077 -0.6748  0.4832  0.2448
   66MOL0     C 8786   4.805   3.872   4.033 -0.4022 -0.2016  0.2003
   66MOL0     C 8787   4.885   3.982   4.102  0.1369  0.1688 -0.2009
   66MOL0     C 8788   4.918   4.106   4.007 -0.1019  0.1609 -0.9029
   66MOL0     C 8789   4.805   4.154   3.912 -0.8548 -0.3295  0.5771
   66MOL0     C 8790   4.842   4.280   3.846 -0.4094  0.4991 -0.0360
   66MOL0     C 8791   4.737   4.326   3.744 -0.0161 -0.3569  0.4226
   66MOL0     N 8792   4.597   4.288   3.778  0.3208  0.9920  0.1662
   66MOL0     C 8793   4.535   4.168   3.744  0.4092 -0.3252  0.0955
   66MOL0     C 8794   4.416   4.176   3.814  0.4168  0.3257  0.7760
   66MOL0     C 8795   4.324   4.056   3.833  0.3494 -0.2824 -0.5098
   66MOL0     C 8796   4.278   3.993   3.706  0.5130 -0.7151 -0.0690
   66MOL0     C 8797   4.196   3.865   3.699  0.5980  0.8952 -0.4435
   66MOL0     C 8798   4.041   3.895   3.724 -0.9548  0.4279 -0.3842
   66MOL0     O 8799   3.990   3.941   3.600  0.8422 -0.4052 -0.2043
   66MOL0     C 8800   3.982   3.878   3.490 -0.4733  1.2867  0.4858
   66MOL0     C 8801   3.943   3.742   3.488  0.0617  0.3359 -0.7738
   66MOL0     C 8802   3.936   3.670   3.372 -0.5597 -0.4207 -0.0696
   66MOL0     C 8803   3.938   3.519   3.390  0.3041 -0.6689 -0.5361
   66MOL0     C 8804   3.943   3.733   3.243 -0.4255 -0.3026  0.2631
   66MOL0     C 8805   3.928   3.673   3.101  0.8450 -0.3111 -0.2453
   66MOL0     O 8806   3.954   3.768   3.010 -0.2044  0.1348  0.1535
   66MOL0     C 8807   3.953   3.728   2.879 -0.8611 -0.2821 -1.0146
   66MOL0     C 8808   3.826   3.712   2.821  0.6785  0.7534  0.4793
   66MOL0     C 8809   3.821   3.689   2.682 -0.0435 -0.2181  0.4806
   66MOL0     C 8810   3.926   3.690   2.602  0.4438  0.2083  0.6249
   66MOL0     O 8811   3.915   3.683   2.465  0.3092  0.3152  0.3785
   66MOL0     C 8812   4.002   3.765   2.385 -0.3920 -0.1310 -0.2710
   66MOL0     C 8813   3.938   3.776   2.244  0.0625  0.0148  1.0023
   66MOL0     C 8814   3.966   3.641   2.174 -0.0450 -1.1624  0.7746
   66MOL0     C 8815   3.866   3.603   2.069  0.6707 -0.1128  0.1580
   66MOL0     C 8816   3.887   3.468   2.003 -0.3704 -0.3174  0.1945
   66MOL0     C 8817   3.800   3.464   1.869  0.0216 -0.0043 -0.3609
   66MOL0     C 8818   3.818   3.326   1.808  0.2870  0.1978  0.0816
   66MOL0     C 8819   3.951   3.279   1.754 -0.0808 -0.9483  0.6874
   66MOL0    Cl 8820   4.055   3.387   1.666 -0.1350  0.1108 -0.5269
   66MOL0     C 8821   4.048   3.694   2.662 -0.8488 -0.5092  0.2882
   66MOL0     C 8822   4.070   3.715   2.802  0.7922 -0.7805 -0.2833
   66MOL0     O 8823   3.923   3.552   3.075  0.5988  0.5000  0.5355
   66MOL0     C 8824   3.957   3.880   3.242  0.3304 -0.0423  0.7577
   66MOL0     C 8825   3.985   3.946   3.363  1.3518 -0.2757 -0.3759
   66MOL0     N 8826   4.416   4.290   3.894  1.0470  1.1661  0.1118
   66MOL0     N 8827   4.526   4.352   3.877  0.0636 -0.0435 -0.0182
   66MOL0     C 8828   4.207   3.741   4.127 -0.9149  0.0653  1.2742
   66MOL0     C 8829   4.112   3.649   4.104 -0.4699 -1.0568  0.2248
   66MOL0     C 8830   3.779   3.404   3.984  0.0672 -1.0537 -0.2719
   66MOL0     C 8831   3.750   3.311   4.084  0.2170  0.8922  0.4824
   66MOL0     C 8832   3.625   3.246   4.080  0.3805  0.5048  0.9706
   66MOL0     C 8833   3.526   3.276   3.988  0.1879 -0.0539 -0.4257
   66MOL0     O 8834   3.401   3.206   3.993 -0.1919 -0.2338 -0.7976
   66MOL0     C 8835   3.366   3.114   3.881  0.5039 -0.5016  0.3609
   66MOL0     C 8836   3.322   2.977   3.946 -0.4450 -0.2576 -0.5235
   66MOL0     C 8837   3.197   2.970   4.032 -0.2651  0.4324  0.5990
   66MOL0     C 8838   3.059   3.009   3.954 -0.3897 -0.0170 -0.9433
   66MOL0     C 8839   2.953   3.029   4.046  0.4612  0.1686  0.9186
   66MOL0     C 8840   2.875   3.069   4.124  0.5305 -0.1346 -0.8572
   66MOL0     C 8841   3.554   3.378   3.898  0.3479 -0.0322  0.5137
   66MOL0     C 8842   3.678   3.439   3.893  0.0247 -0.2367 -0.3695
   66MOL0     H 8843   4.259   3.382   3.961  4.0323  0.0092  1.6434
   66MOL0     H 8844   4.452   3.540   3.986 -0.1399 -0.5688 -0.6604
   66MOL0     H 8845   4.581   3.679   3.996 -0.1554  0.9742 -4.0441
   66MOL0     H 8846   4.549   3.826   3.911 -3.1398 -1.0068 -1.2177
   66MOL0     H 8847   4.607   3.967   4.067 -4.4609 -1.0752  1.3362
   66MOL0     H 8848   4.651   3.844   4.184  0.9489  0.6648  0.3758
   66MOL0     H 8849   4.849   3.783   4.080 -2.1583 -1.1531  0.1430
   66MOL0     H 8850   4.815   3.863   3.924  0.9155 -1.4797  0.3920
   66MOL0     H 8851   4.826   4.022   4.186  1.5045  2.9496 -0.4343
   66MOL0     H 8852   4.976   3.946   4.150  1.1994  5.8929  3.0464
   66MOL0     H 8853   4.933   4.190   4.076 -0.7701 -0.5057  0.0606
   66MOL0     H 8854   5.007   4.090   3.945  0.1724 -0.0717 -0.4502
   66MOL0     H 8855   4.785   4.076   3.837  2.3494 -0.1328 -0.6231
   66MOL0     H 8856   4.712   4.187   3.959 -1.3474 -1.3323  0.3347
   66MOL0     H 8857   4.857   4.356   3.923 -0.8709  2.8270 -2.1004
   66MOL0     H 8858   4.934   4.262   3.789 -0.2837 -0.4153  0.4341
   66MOL0     H 8859   4.757   4.287   3.644  0.1366 -2.4188  1.2195
   66MOL0     H 8860   4.739   4.436   3.736 -3.8260 -0.2003 -0.1043
   66MOL0     H 8861   4.561   4.081   3.684  0.1739  0.3752 -1.0715
   66MOL0     H 8862   4.370   3.976   3.891  1.6211 -0.8798 -2.2699
   66MOL0     H 8863   4.251   4.102   3.900  3.7786  1.5849  2.2551
   66MOL0     H 8864   4.376   3.967   3.665  2.4245  1.2919  2.8199
   66MOL0     H 8865   4.241   4.078   3.648  3.1769 -0.5020 -1.6237
   66MOL0     H 8866   4.223   3.782   3.765 -0.2868  0.0319 -1.1487
   66MOL0     H 8867   4.205   3.819   3.600  1.3949 -0.6363  0.3182
   66MOL0     H 8868   4.036   3.974   3.800  1.8373 -1.1200  1.6020
   66MOL0     H 8869   3.978   3.811   3.754 -1.2730  1.5477  2.4191
   66MOL0     H 8870   3.925   3.693   3.583 -1.5629 -2.1614 -2.2806
   66MOL0     H 8871   3.919   3.496   3.495  2.8897 -0.9531 -0.0513
   66MOL0     H 8872   3.869   3.469   3.321  1.2114  1.3007 -3.0445
   66MOL0     H 8873   4.035   3.479   3.358 -0.7407 -3.1841 -0.8052
   66MOL0     H 8874   3.743   3.709   2.891 -0.2752  0.3526 -0.6412
   66MOL0     H 8875   3.719   3.686   2.646 -0.1296  2.1643  0.4244
   66MOL0     H 8876   4.011   3.864   2.432 -1.4358 -0.0905 -0.1262
   66MOL0     H 8877   4.106   3.733   2.387 -0.5791 -0.7893 -0.7003
   66MOL0     H 8878   3.833   3.809   2.247  0.3211  1.6217 -2.4858
   66MOL0     H 8879   3.986   3.863   2.199  1.9424 -0.6750  1.6057
   66MOL0     H 8880   3.958   3.559   2.247 -4.3735 -0.4555  1.3451
   66MOL0     H 8881   4.071   3.645   2.143  0.4718  1.0042  2.5853
   66MOL0     H 8882   3.766   3.598   2.113  0.5167 -4.3488 -0.2811
   66MOL0     H 8883   3.866   3.685   1.996 -1.5688  0.5703  0.8633
   66MOL0     H 8884   3.861   3.380   2.062  1.0780 -1.5433 -0.9013
   66MOL0     H 8885   3.995   3.457   1.985 -0.1652 -0.1420  1.2340
   66MOL0     H 8886   3.693   3.473   1.886 -0.1725 -1.6518 -0.5033
   66MOL0     H 8887   3.831   3.538   1.795 -0.4543  1.4544  0.8620
   66MOL0     H 8888   3.746   3.331   1.725  3.2621  0.3832 -2.6750
   66MOL0     H 8889   3.781   3.243   1.869 -0.0946 -0.2194 -0.6983
   66MOL0     H 8890   3.921   3.202   1.683  2.5227  0.1701 -1.8381
   66MOL0     H 8891   3.995   3.228   1.840 -0.4338 -2.4717 -0.0056
   66MOL0     H 8892   4.137   3.673   2.603  0.3391  1.2109  1.3500
   66MOL0     H 8893   4.162   3.709   2.858 -0.6333 -1.8783  2.0884
   66MOL0     H 8894   3.953   3.942   3.153  2.5317 -0.3915  0.3577
   66MOL0     H 8895   3.994   4.053   3.374 -5.7093  0.7564 -0.6038
   66MOL0     H 8896   4.186   3.836   4.176 -5.2216  1.7957 -3.0806
   66MOL0     H 8897   4.019   3.692   4.139  0.5695  3.2455 -1.6705
   66MOL0     H 8898   3.830   3.277   4.149 -0.8111  0.1515  1.3712
   66MOL0     H 8899   3.603   3.156   4.136 -1.8183 -1.9285 -3.2940
   66MOL0     H 8900   3.280   3.156   3.828 -1.5881 -1.7577  2.6096
   66MOL0     H 8901   3.451   3.094   3.814 -0.0128  0.0702 -0.4843
   66MOL0     H 8902   3.400   2.934   4.009 -0.1975  1.7813  0.6511
   66MOL0     H 8903   3.318   2.903   3.866  1.1006 -1.1106  0.1466
   66MOL0     H 8904   3.220   3.050   4.103  0.4744 -0.7375  1.7024
   66MOL0     H 8905   3.183   2.870   4.073 -2.7738  0.5181  0.1365
   66MOL0     H 8906   3.024   2.933   3.883  3.1628 -0.7904 -2.0767
   66MOL0     H 8907   3.074   3.096   3.890  0.4081 -0.1888 -1.0080
   66MOL0     H 8908   2.822   3.113   4.207  2.3817  1.2399 -0.3356
   66MOL0     H 8909   3.467   3.394   3.834  0.8391  1.2733  0.1402
   66MOL0     H 8910   3.697   3.522   3.826 -0.0595  0.2426  0.1900
   67MOL0     O 8911   4.031  10.978  10.006 -0.5521 -0.3599  0.6372
   67MOL0     C 8912   4.060  10.865   9.970  0.8810 -0.1706  0.4587
   67MOL0     O 8913   4.187  10.823   9.928 -0.1112  0.2177  0.6962
   67MOL0     C 8914   4.297  10.902   9.940 -0.6634 -0.0281 -0.1099
   67MOL0     C 8915   4.414  10.869   9.868  0.0538  0.2718  0.9553
   67MOL0     C 8916   4.533  10.950   9.868  1.1277  1.1823 -1.2477
   67MOL0     C 8917   4.534  11.069   9.942 -0.7935  0.3379 -0.5032
   67MOL0     O 8918   4.639  11.159   9.947  0.4479 -0.0192 -0.0301
   67MOL0     C 8919   4.767  11.109   9.903  0.4107 -0.4277  0.0232
   67MOL0     C 8920   4.863  11.216   9.966 -0.0806  0.7720  0.8806
   67MOL0     C 8921   4.886  11.211  10.118  1.1037  0.2546 -0.4989
   67MOL0     C 8922   4.764  11.210  10.214 -0.1836 -1.1718  0.9231
   67MOL0     C 8923   4.800  11.210  10.359  0.2557 -0.4202  0.2171
   67MOL0     C 8924   4.683  11.235  10.445  1.4697 -0.5794  0.4307
   67MOL0     C 8925   4.573  11.147  10.444  0.6248 -0.2816 -0.6338
   67MOL0     C 8926   4.578  11.019  10.529 -0.5018  0.1403  0.6473
   67MOL0     N 8927   4.462  10.944  10.507  0.5038  1.0371  0.2411
   67MOL0     C 8928   4.432  10.859  10.401  0.5115  0.0988  0.3648
   67MOL0     C 8929   4.300  10.849  10.396 -0.6310  0.5402  0.4508
   67MOL0     C 8930   4.226  10.806  10.273 -0.1214 -0.0293  0.5974
   67MOL0     C 8931   4.183  10.667  10.299 -0.3387  0.0224  0.4825
   67MOL0     C 8932   4.076  10.637  10.409  0.0315 -0.0383 -0.4782
   67MOL0     C 8933   3.936  10.689  10.389  0.1512 -0.5823 -0.3277
   67MOL0     O 8934   3.908  10.811  10.459  0.5481  0.2861  0.1081
   67MOL0     C 8935   3.797  10.879  10.424  0.1190  0.4753  0.1128
   67MOL0     C 8936   3.711  10.850  10.316  0.0006 -0.1342  0.2186
   67MOL0     C 8937   3.597  10.928  10.294 -0.0758 -0.5429  0.6805
   67MOL0     C 8938   3.505  10.878  10.182 -0.1188  0.0504  0.0571
   67MOL0     C 8939   3.579  11.049  10.365  0.0793 -0.2547 -0.2294
   67MOL0     C 8940   3.462  11.137  10.343  0.1235  0.5081  0.2441
   67MOL0     O 8941   3.428  11.211  10.452 -0.0491  0.1113 -0.0447
   67MOL0     C 8942   3.331  11.297  10.441  0.7273  0.5950 -0.8990
   67MOL0     C 8943   3.209  11.274  10.367  0.2008  0.6550  0.6888
   67MOL0     C 8944   3.106  11.357  10.375  0.0017 -0.7483 -0.2256
   67MOL0     C 8945   3.117  11.467  10.458  0.2182 -0.4498 -0.0525
   67MOL0     O 8946   3.002  11.537  10.469  0.4087  0.1050  0.1555
   67MOL0     C 8947   2.998  11.650  10.561 -0.0703 -0.5217 -0.0152
   67MOL0     C 8948   2.862  11.726  10.560  0.7164 -0.3731  0.8400
   67MOL0     C 8949   2.759  11.645  10.633  0.3060  1.2109 -0.9459
   67MOL0     C 8950   2.611  11.682  10.599 -0.5500  0.4116  0.9448
   67MOL0     C 8951   2.556  11.607  10.480  0.1755  1.1693 -0.2824
   67MOL0     C 8952   2.399  11.641  10.460  0.5276 -0.4593 -0.8046
   67MOL0     C 8953   2.337  11.567  10.343 -0.0083  0.2251 -0.0727
   67MOL0     C 8954   2.381  11.430  10.336  0.1401 -0.3276 -0.6143
   67MOL0    Cl 8955   2.363  11.341  10.497 -0.3278  0.0241  0.1185
   67MOL0     C 8956   3.239  11.500  10.523  1.2739  0.1223  0.0397
   67MOL0     C 8957   3.346  11.412  10.515  0.2049 -0.3161  0.4235
   67MOL0     O 8958   3.434  11.161  10.225 -0.6782 -0.2572  0.1182
   67MOL0     C 8959   3.670  11.077  10.464  0.4323  0.4261 -0.4494
   67MOL0     C 8960   3.771  10.989  10.501  0.5324  0.3831  0.3092
   67MOL0     N 8961   4.246  10.935  10.492  0.5731 -0.3845 -0.3750
   67MOL0     N 8962   4.350  10.985  10.559  0.4374  0.5405  0.4531
   67MOL0     C 8963   4.435  11.098  10.027  0.6674 -0.2073 -1.3568
   67MOL0     C 8964   4.316  11.018  10.023 -0.6770  0.7248 -0.4027
   67MOL0     C 8965   3.951  10.763   9.953  0.1235 -0.1598 -0.7464
   67MOL0     C 8966   3.992  10.629   9.955  0.0825 -0.2626 -0.7549
   67MOL0     C 8967   3.892  10.536   9.938  0.6970  0.7781 -0.0984
   67MOL0     C 8968   3.751  10.570   9.924 -1.2293 -0.8713 -0.2954
   67MOL0     O 8969   3.673  10.463   9.894 -0.4344 -0.6588  0.5142
   67MOL0     C 8970   3.535  10.478   9.862  0.1679 -0.1463  0.4772
   67MOL0     C 8971   3.473  10.369   9.941  0.5220 -0.5146 -0.6763
   67MOL0     C 8972   3.435  10.410  10.087 -0.0414 -0.2108 -0.5060
   67MOL0     C 8973   3.405  10.282  10.178 -1.2600 -0.4984  0.7927
   67MOL0     C 8974   3.517  10.183  10.161 -0.6281  0.6295 -0.1965
   67MOL0     C 8975   3.600  10.093  10.134 -0.3139  0.1845 -0.1299
   67MOL0     C 8976   3.719  10.715   9.927  0.2780  1.1429  0.1794
   67MOL0     C 8977   3.825  10.802   9.942  0.4843  1.3659  0.2256
   67MOL0     H 8978   4.395  10.784   9.802  0.6429  2.0084 -1.6066
   67MOL0     H 8979   4.611  10.919   9.799  1.3503  1.5732 -1.1732
   67MOL0     H 8980   4.786  11.016   9.957  0.6179 -0.8256 -0.7242
   67MOL0     H 8981   4.776  11.105   9.794 -1.2239 -1.0666 -0.1163
   67MOL0     H 8982   4.960  11.196   9.919  0.8462 -0.2009  3.0862
   67MOL0     H 8983   4.841  11.318   9.932  1.8639  0.2129 -2.5748
   67MOL0     H 8984   4.942  11.119  10.133  1.5694  0.9091  2.3632
   67MOL0     H 8985   4.954  11.292  10.147  2.0926 -0.3012 -1.2096
   67MOL0     H 8986   4.713  11.303  10.185  2.0743 -0.5583 -1.4059
   67MOL0     H 8987   4.695  11.130  10.186 -1.5071  0.4679 -0.7524
   67MOL0     H 8988   4.862  11.128  10.396  1.4283  0.8145  1.0752
   67MOL0     H 8989   4.859  11.300  10.377  3.6332 -1.7924 -2.6731
   67MOL0     H 8990   4.715  11.245  10.549 -0.5311  0.4815  1.0103
   67MOL0     H 8991   4.646  11.336  10.423  0.1231 -1.1071  0.2054
   67MOL0     H 8992   4.490  11.204  10.487  2.2790  2.0058 -0.3453
   67MOL0     H 8993   4.543  11.127  10.340 -0.4933  1.4148 -0.6722
   67MOL0     H 8994   4.584  11.031  10.638  0.4146 -0.0540  0.6260
   67MOL0     H 8995   4.649  10.945  10.491  0.5915 -0.8192  4.1674
   67MOL0     H 8996   4.493  10.820  10.320  1.6107 -1.3864  1.8363
   67MOL0     H 8997   4.140  10.872  10.261 -1.2355 -1.4026  0.7686
   67MOL0     H 8998   4.290  10.818  10.184  0.6195 -5.9970 -0.0712
   67MOL0     H 8999   4.274  10.611  10.321 -0.2720  0.1111  0.4376
   67MOL0     H 9000   4.156  10.624  10.202  0.8232 -0.1236  0.2090
   67MOL0     H 9001   4.112  10.651  10.511 -0.7723  2.1970 -0.4488
   67MOL0     H 9002   4.065  10.528  10.400 -5.0955  0.1306  0.6373
   67MOL0     H 9003   3.870  10.609  10.424  0.9544 -1.6453 -1.1449
   67MOL0     H 9004   3.931  10.699  10.280  0.3884 -1.0189 -0.3801
   67MOL0     H 9005   3.719  10.754  10.266  1.8065 -0.8615  1.7750
   67MOL0     H 9006   3.522  10.771  10.164  0.7867  0.0880  0.6243
   67MOL0     H 9007   3.399  10.901  10.197  0.1754  1.4734  0.0710
   67MOL0     H 9008   3.534  10.932  10.091 -2.0302 -2.2183 -2.0769
   67MOL0     H 9009   3.196  11.189  10.300  0.5044 -0.2731  1.7723
   67MOL0     H 9010   3.009  11.337  10.330 -0.5352  1.5935 -0.2471
   67MOL0     H 9011   3.014  11.606  10.660  1.9454 -1.1054 -0.5521
   67MOL0     H 9012   3.085  11.712  10.536  0.6427 -2.0624 -1.6718
   67MOL0     H 9013   2.872  11.828  10.598  1.4900  0.3426 -1.1796
   67MOL0     H 9014   2.815  11.724  10.462  0.1639  0.5014  1.0786
   67MOL0     H 9015   2.764  11.654  10.742 -0.4007  1.3822 -0.9206
   67MOL0     H 9016   2.785  11.538  10.632  2.6562  1.7290 -2.2123
   67MOL0     H 9017   2.538  11.661  10.679  1.6335 -4.7845  1.9915
   67MOL0     H 9018   2.613  11.790  10.580 -0.8452  0.2968  0.2286
   67MOL0     H 9019   2.566  11.500  10.499  1.6507  1.4193  0.4749
   67MOL0     H 9020   2.604  11.650  10.391  0.3300 -0.4162 -1.0067
   67MOL0     H 9021   2.341  11.619  10.550 -1.9380  0.2734 -2.1480
   67MOL0     H 9022   2.389  11.748  10.442  0.3819 -0.6162 -1.6908
   67MOL0     H 9023   2.367  11.628  10.258  2.7865  2.8686  2.5686
   67MOL0     H 9024   2.228  11.554  10.353 -0.3284 -0.4755 -3.3200
   67MOL0     H 9025   2.478  11.413  10.289  0.3211 -0.9532 -0.0432
   67MOL0     H 9026   2.306  11.382  10.272  1.0658 -0.5771 -1.5375
   67MOL0     H 9027   3.237  11.594  10.578  3.1301 -0.5436  1.3621
   67MOL0     H 9028   3.442  11.425  10.564 -0.7915  1.6517  1.9949
   67MOL0     H 9029   3.671  11.177  10.506  0.8908  0.6673 -1.0087
   67MOL0     H 9030   3.838  11.029  10.577  3.2438 -1.2868 -1.0192
   67MOL0     H 9031   4.453  11.174  10.103 -1.1568  0.0601 -1.1389
   67MOL0     H 9032   4.243  11.041  10.100 -2.7515  0.5920 -2.2443
   67MOL0     H 9033   4.092  10.598   9.986  1.8524  4.6251 -0.8135
   67MOL0     H 9034   3.923  10.432   9.937 -2.3611 -0.2335 -0.9389
   67MOL0     H 9035   3.486  10.574   9.879  1.2053  0.4825  0.0477
   67MOL0     H 9036   3.527  10.447   9.757  2.6454  2.1713 -0.5292
   67MOL0     H 9037   3.535  10.279   9.939  1.9494  0.4249 -0.0423
   67MOL0     H 9038   3.379  10.333   9.896 -1.5276  0.9509  2.1277
   67MOL0     H 9039   3.350  10.479  10.087 -1.5983 -2.0421  0.4028
   67MOL0     H 9040   3.520  10.464  10.131  1.1861 -1.4780 -1.2597
   67MOL0     H 9041   3.309  10.239  10.149  0.1124 -1.7171 -2.3500
   67MOL0     H 9042   3.412  10.299  10.286 -1.7670 -4.6044  1.6366
   67MOL0     H 9043   3.676  10.020  10.113 -0.7094  0.7235 -3.9803
   67MOL0     H 9044   3.613  10.734   9.916  0.1131  0.4568  0.5386
   67MOL0     H 9045   3.807  10.909   9.937  3.8348  2.0088 -0.6638
   68MOL0     O 9046   0.199   7.906  10.103  0.6876 -0.0425  0.6040
   68MOL0     C 9047   0.220   7.900   9.979 -0.4376 -0.5841 -0.3187
   68MOL0     O 9048   0.341   7.866   9.919  0.8742  0.4962 -0.4159
   68MOL0     C 9049   0.444   7.847  10.007 -1.5621 -0.0563 -0.4318
   68MOL0     C 9050   0.485   7.935  10.104 -1.2206 -0.9873 -0.5278
   68MOL0     C 9051   0.582   7.912  10.209 -0.6955  1.0935  0.1670
   68MOL0     C 9052   0.640   7.781  10.199  0.3416  0.9503 -0.8800
   68MOL0     O 9053   0.714   7.742  10.309  0.3680  0.0022 -0.0937
   68MOL0     C 9054   0.838   7.810  10.295  0.3162  0.5274  0.3889
   68MOL0     C 9055   0.964   7.722  10.336 -0.2966 -0.6182 -0.0558
   68MOL0     C 9056   1.010   7.749  10.485 -0.0384  0.8140 -0.4390
   68MOL0     C 9057   1.069   7.885  10.512 -0.0072 -0.2606  0.3177
   68MOL0     C 9058   1.105   7.907  10.653  0.0488 -0.7061 -0.3855
   68MOL0     C 9059   1.191   8.040  10.674 -0.4286 -0.6387  0.3440
   68MOL0     C 9060   1.349   8.023  10.674 -0.5615 -0.0085  0.0982
   68MOL0     C 9061   1.415   7.921  10.580 -0.5484 -0.8165 -0.0651
   68MOL0     N 9062   1.554   7.878  10.602  0.4373  0.2016  0.2402
   68MOL0     C 9063   1.663   7.955  10.594  0.3301  0.3440  0.0646
   68MOL0     C 9064   1.761   7.894  10.655  0.1429 -0.4600  0.1488
   68MOL0     C 9065   1.901   7.942  10.645  0.0360 -0.4363  0.8527
   68MOL0     C 9066   1.935   7.994  10.500  0.3606 -0.9352  0.8099
   68MOL0     C 9067   1.924   7.878  10.393  0.4723 -0.5017 -0.7230
   68MOL0     C 9068   2.014   7.752  10.421  0.5642  0.4728  0.2236
   68MOL0     O 9069   2.138   7.802  10.471  0.5444  0.6996 -0.3537
   68MOL0     C 9070   2.202   7.713  10.553  0.2265 -0.0400 -0.1551
   68MOL0     C 9071   2.216   7.576  10.522  1.0084 -0.3375 -0.0185
   68MOL0     C 9072   2.264   7.487  10.628  0.5061  0.3751  0.8077
   68MOL0     C 9073   2.273   7.345  10.597  0.4289  0.2892 -0.0553
   68MOL0     C 9074   2.323   7.552  10.745  0.4209 -0.5727  0.9575
   68MOL0     C 9075   2.364   7.484  10.863 -1.3649  0.1637  0.0197
   68MOL0     O 9076   2.416   7.556  10.971  0.6953  1.1498 -0.2216
   68MOL0     C 9077   2.487   7.479  11.059 -0.0247 -0.0779  0.2128
   68MOL0     C 9078   2.601   7.407  11.014 -0.4174  0.6644  0.0383
   68MOL0     C 9079   2.675   7.324  11.097  0.2696  0.0620  0.2285
   68MOL0     C 9080   2.634   7.316  11.233 -0.4557 -0.8844  0.1518
   68MOL0     O 9081   2.695   7.214  11.312 -0.3837  0.6697 -0.4553
   68MOL0     C 9082   2.619   7.140  11.408 -0.6487 -0.0663 -0.2442
   68MOL0     C 9083   2.706   7.120  11.529  0.1055 -0.1888  0.1311
   68MOL0     C 9084   2.746   7.251  11.604 -0.4056 -0.1810 -0.0092
   68MOL0     C 9085   2.647   7.368  11.583  0.9535 -0.8486 -0.5896
   68MOL0     C 9086   2.688   7.487  11.688 -0.1739 -1.4167  0.1820
   68MOL0     C 9087   2.569   7.590  11.686 -0.2037  0.0754 -0.1216
   68MOL0     C 9088   2.575   7.700  11.802  0.5076 -0.0409 -0.8878
   68MOL0     C 9089   2.714   7.773  11.815 -0.0913 -0.0041  1.0721
   68MOL0    Cl 9090   2.774   7.845  11.650  0.4174  0.4900 -0.3127
   68MOL0     C 9091   2.519   7.386  11.272  0.4029 -0.4683  0.5349
   68MOL0     C 9092   2.441   7.467  11.186 -0.1371 -0.9622  0.7399
   68MOL0     O 9093   2.355   7.362  10.864 -0.1855  0.0595  0.1371
   68MOL0     C 9094   2.310   7.688  10.757  0.2482  0.3907 -0.2599
   68MOL0     C 9095   2.262   7.771  10.663  0.2672 -0.2758 -0.0088
   68MOL0     N 9096   1.721   7.764  10.692 -0.1091 -0.4186  0.9157
   68MOL0     N 9097   1.589   7.758  10.653  0.9356 -0.6467  0.3987
   68MOL0     C 9098   0.594   7.682  10.097 -0.3641 -0.1539  0.3037
   68MOL0     C 9099   0.504   7.716   9.995  1.3482 -0.1979 -0.0172
   68MOL0     C 9100   0.112   7.953   9.899  0.7178 -0.0740  0.8082
   68MOL0     C 9101  -0.018   7.974   9.947  0.6543 -0.2703  0.0275
   68MOL0     C 9102  -0.120   8.021   9.871 -0.3086  0.5954 -0.2560
   68MOL0     C 9103  -0.106   8.044   9.736 -0.4802 -0.7947  0.1721
   68MOL0     O 9104  -0.199   8.090   9.645 -0.0656 -0.6130  1.4635
   68MOL0     C 9105  -0.333   8.085   9.681  0.0138  0.1477  0.9788
   68MOL0     C 9106  -0.408   8.028   9.557 -0.3736  0.3562  1.0093
   68MOL0     C 9107  -0.385   8.116   9.437 -0.1419  0.2431 -0.5791
   68MOL0     C 9108  -0.467   8.057   9.326  0.6598 -0.0782  0.5545
   68MOL0     C 9109  -0.380   7.958   9.272 -0.2465 -0.2921  0.4114
   68MOL0     C 9110  -0.310   7.861   9.248  0.0155 -0.3365  0.6825
   68MOL0     C 9111   0.020   8.036   9.678  0.8038  0.5279  0.3575
   68MOL0     C 9112   0.129   7.996   9.758  0.2113  1.3188  0.8260
   68MOL0     H 9113   0.419   8.021  10.105 -1.8344 -1.4473 -0.6924
   68MOL0     H 9114   0.597   7.981  10.291 -2.6455  0.6138  0.9971
   68MOL0     H 9115   0.863   7.837  10.192 -1.3074  2.8265  0.5178
   68MOL0     H 9116   0.837   7.898  10.359  5.4804 -0.3759  2.2215
   68MOL0     H 9117   0.941   7.620  10.303 -0.4165 -0.4392 -0.5256
   68MOL0     H 9118   1.052   7.739  10.275 -1.8531 -1.6761 -2.7746
   68MOL0     H 9119   0.916   7.735  10.541  0.9833  1.2015  1.4558
   68MOL0     H 9120   1.081   7.673  10.518 -2.5477 -0.9483  1.2947
   68MOL0     H 9121   1.153   7.896  10.443  2.0223 -2.9082  2.1463
   68MOL0     H 9122   0.991   7.959  10.493 -0.0635 -0.4429 -0.1919
   68MOL0     H 9123   1.015   7.921  10.714  0.2786  1.0174 -0.3998
   68MOL0     H 9124   1.154   7.813  10.681  2.1295 -0.7453 -3.6260
   68MOL0     H 9125   1.157   8.125  10.614  0.6392  1.5878  2.6895
   68MOL0     H 9126   1.151   8.079  10.768 -0.6183  2.7617 -1.0070
   68MOL0     H 9127   1.403   8.113  10.641 -0.9409 -0.4055 -1.7029
   68MOL0     H 9128   1.383   7.996  10.774 -1.2919 -1.7573 -0.0901
   68MOL0     H 9129   1.404   7.968  10.482 -1.7634  0.2148  0.5438
   68MOL0     H 9130   1.358   7.828  10.577  1.6454 -2.3219  1.4222
   68MOL0     H 9131   1.676   8.051  10.546  1.4751 -1.0041 -2.4869
   68MOL0     H 9132   1.923   8.022  10.716 -1.9724  2.7169 -1.7799
   68MOL0     H 9133   1.966   7.855  10.660 -0.6698 -0.7711  2.0415
   68MOL0     H 9134   2.032   8.044  10.501 -0.2349  0.2748  0.4205
   68MOL0     H 9135   1.864   8.073  10.472 -1.1086 -1.8770  1.7141
   68MOL0     H 9136   1.949   7.924  10.298 -0.5993  2.0811  0.1651
   68MOL0     H 9137   1.821   7.845  10.373  0.0984  0.7737 -0.9896
   68MOL0     H 9138   2.019   7.690  10.331  4.3245  1.2900 -0.3158
   68MOL0     H 9139   1.956   7.690  10.490  0.8288  2.2859  2.1777
   68MOL0     H 9140   2.181   7.542  10.425  1.3586 -1.0510  0.1039
   68MOL0     H 9141   2.230   7.323  10.499  3.7394  1.1243 -1.8349
   68MOL0     H 9142   2.379   7.317  10.588  0.1523 -0.6320 -0.6021
   68MOL0     H 9143   2.212   7.281  10.662 -0.5862  0.0231 -1.2333
   68MOL0     H 9144   2.615   7.407  10.906  0.1804 -2.8535  0.0011
   68MOL0     H 9145   2.750   7.251  11.069  0.9574 -0.4010  2.9781
   68MOL0     H 9146   2.525   7.187  11.438  0.3419  2.2594 -0.6061
   68MOL0     H 9147   2.601   7.034  11.387  1.5487 -1.1049  2.4327
   68MOL0     H 9148   2.653   7.053  11.597 -0.1737  0.9390  1.0420
   68MOL0     H 9149   2.799   7.071  11.498  1.1057  0.2323  2.3154
   68MOL0     H 9150   2.841   7.278  11.557 -1.9687  1.2041 -2.6322
   68MOL0     H 9151   2.747   7.222  11.709 -1.5739 -2.4561 -0.5450
   68MOL0     H 9152   2.665   7.419  11.488 -0.6021  3.7394  1.2464
   68MOL0     H 9153   2.543   7.335  11.597  0.1956  1.5368 -0.1622
   68MOL0     H 9154   2.781   7.536  11.660  0.4999 -0.3797  3.6975
   68MOL0     H 9155   2.695   7.452  11.792 -0.7118  1.0092  1.1081
   68MOL0     H 9156   2.567   7.636  11.587  0.3906 -0.2372 -0.2840
   68MOL0     H 9157   2.470   7.547  11.702  0.9276 -2.5175  0.4433
   68MOL0     H 9158   2.549   7.655  11.898  0.3841  0.3061 -0.7578
   68MOL0     H 9159   2.502   7.779  11.780 -1.1260 -0.8971  1.1367
   68MOL0     H 9160   2.798   7.711  11.848  1.9013 -0.1718 -3.5352
   68MOL0     H 9161   2.708   7.853  11.889  4.9862 -0.1870  2.0148
   68MOL0     H 9162   2.495   7.368  11.376  0.5580 -0.0010  0.6538
   68MOL0     H 9163   2.363   7.530  11.226  1.8546  0.1400  3.1993
   68MOL0     H 9164   2.349   7.746  10.840 -3.5571 -0.6125  2.5497
   68MOL0     H 9165   2.247   7.876  10.684  2.4100 -0.0495  0.6507
   68MOL0     H 9166   0.640   7.584  10.098  1.7440  0.7420 -1.4478
   68MOL0     H 9167   0.469   7.663   9.908 -1.8921  2.6601 -0.6574
   68MOL0     H 9168  -0.037   7.968  10.054  0.3306  0.1651 -0.0047
   68MOL0     H 9169  -0.215   8.045   9.918 -0.3243 -1.6170  0.9830
   68MOL0     H 9170  -0.347   8.011   9.760  0.1511 -2.3725 -1.2019
   68MOL0     H 9171  -0.361   8.189   9.701  0.1044  0.3216  0.2438
   68MOL0     H 9172  -0.515   8.010   9.573 -0.4836 -3.0643 -2.0870
   68MOL0     H 9173  -0.372   7.928   9.531  0.1290  0.9437 -0.6326
   68MOL0     H 9174  -0.279   8.122   9.408  1.2369 -1.9410  3.2452
   68MOL0     H 9175  -0.426   8.217   9.451 -5.3217 -1.0158 -3.9651
   68MOL0     H 9176  -0.470   8.138   9.252 -1.0513  0.1477  0.8163
   68MOL0     H 9177  -0.566   8.026   9.361 -0.2074  1.2649 -0.5780
   68MOL0     H 9178  -0.240   7.782   9.230  1.7213  1.1818  0.2724
   68MOL0     H 9179   0.019   8.045   9.570 -1.3180 -0.4332  0.2417
   68MOL0     H 9180   0.228   8.000   9.715 -0.1619  1.7772 -0.0233
   69MOL0     O 9181   1.645   1.479   2.872  0.1727  0.5481  0.1612
   69MOL0     C 9182   1.578   1.389   2.811 -0.8580  0.4470  0.2742
   69MOL0     O 9183   1.445   1.360   2.838  0.0362  0.3285  0.0283
   69MOL0     C 9184   1.398   1.419   2.947 -0.8595  0.2515  0.4276
   69MOL0     C 9185   1.328   1.544   2.938 -1.0461  0.7188 -0.0328
   69MOL0     C 9186   1.282   1.601   3.050  0.6329 -0.9090 -0.3352
   69MOL0     C 9187   1.289   1.540   3.179 -0.3069 -0.6088  0.1734
   69MOL0     O 9188   1.229   1.624   3.266 -1.0016 -0.0918 -0.2467
   69MOL0     C 9189   1.251   1.575   3.403 -0.0442  0.3126 -0.2338
   69MOL0     C 9190   1.221   1.684   3.506  0.6054  0.0489 -0.0225
   69MOL0     C 9191   1.075   1.680   3.541  0.0097  0.5787 -0.6035
   69MOL0     C 9192   1.036   1.800   3.630 -0.8005  1.1413 -0.1544
   69MOL0     C 9193   0.893   1.774   3.686 -0.5937  0.7706  1.2313
   69MOL0     C 9194   0.781   1.777   3.588  0.1800  0.0465  0.4777
   69MOL0     C 9195   0.751   1.922   3.561 -0.0412 -0.3849  0.2829
   69MOL0     C 9196   0.629   1.919   3.471  0.8808  0.4910  0.5381
   69MOL0     N 9197   0.581   2.051   3.437 -0.5703 -1.0661  0.5721
   69MOL0     C 9198   0.549   2.157   3.529  0.1410 -0.7714 -0.4072
   69MOL0     C 9199   0.467   2.242   3.458  0.3100 -0.0189 -0.2745
   69MOL0     C 9200   0.386   2.372   3.491 -0.6631  0.6868  0.6904
   69MOL0     C 9201   0.371   2.475   3.375  0.3428 -0.5326  0.0345
   69MOL0     C 9202   0.296   2.588   3.443  0.1065 -0.2896  0.0437
   69MOL0     C 9203   0.279   2.709   3.356  0.3739  0.9627  0.1168
   69MOL0     O 9204   0.406   2.782   3.350 -0.3322  0.7829  0.0331
   69MOL0     C 9205   0.414   2.878   3.256  0.5227  0.6614 -0.3263
   69MOL0     C 9206   0.328   2.912   3.157 -0.5837 -0.2539  0.0191
   69MOL0     C 9207   0.345   3.038   3.083 -0.9494  0.8084 -0.4472
   69MOL0     C 9208   0.248   3.069   2.969 -1.0318  0.2429 -0.8182
   69MOL0     C 9209   0.454   3.132   3.104  0.4211  0.7066  0.1087
   69MOL0     C 9210   0.465   3.266   3.048 -0.3102  0.2482  0.7825
   69MOL0     O 9211   0.569   3.337   3.086 -0.7611 -0.0493  0.0375
   69MOL0     C 9212   0.591   3.469   3.052  0.9321  0.4047  0.1208
   69MOL0     C 9213   0.667   3.551   3.139 -0.0168 -0.0684  0.5635
   69MOL0     C 9214   0.719   3.677   3.099  0.3510  0.5046 -0.4899
   69MOL0     C 9215   0.693   3.724   2.971 -0.1904  0.2029  0.2131
   69MOL0     O 9216   0.738   3.852   2.932 -0.3286 -1.2583  0.3038
   69MOL0     C 9217   0.754   3.882   2.793 -0.1735  0.0476 -0.4371
   69MOL0     C 9218   0.828   4.007   2.770 -0.9823 -0.1082 -0.1096
   69MOL0     C 9219   0.747   4.128   2.834  0.4406  0.7640  0.6751
   69MOL0     C 9220   0.835   4.247   2.835  0.2841  0.2957 -0.3018
   69MOL0     C 9221   0.857   4.335   2.708  1.0015  0.0954 -0.5790
   69MOL0     C 9222   0.927   4.474   2.724  0.5326 -0.0135  0.0116
   69MOL0     C 9223   1.015   4.480   2.852 -0.2433  0.1155  0.0259
   69MOL0     C 9224   1.087   4.617   2.876  0.6387  1.2762  0.1171
   69MOL0    Cl 9225   1.197   4.642   2.733  0.0231  0.1514 -0.3741
   69MOL0     C 9226   0.613   3.646   2.885  0.6451 -0.0409  1.0905
   69MOL0     C 9227   0.565   3.519   2.925  0.6882 -1.0363 -0.2302
   69MOL0     O 9228   0.378   3.319   2.981  0.2417  0.3619  0.9394
   69MOL0     C 9229   0.555   3.072   3.177  0.1352  0.0090  0.0453
   69MOL0     C 9230   0.531   2.951   3.251  0.2575  0.5246  0.5089
   69MOL0     N 9231   0.456   2.188   3.332  0.3598  0.4809  0.1217
   69MOL0     N 9232   0.523   2.080   3.313  0.0928 -0.1589 -0.9626
   69MOL0     C 9233   1.347   1.410   3.187  0.7960 -0.6536  0.3283
   69MOL0     C 9234   1.405   1.353   3.069 -1.1424 -0.4212 -0.0694
   69MOL0     C 9235   1.643   1.306   2.706 -0.6741 -0.5989  0.3761
   69MOL0     C 9236   1.786   1.325   2.690  0.3965 -0.4188 -1.4405
   69MOL0     C 9237   1.865   1.237   2.618  0.0321 -0.8652 -1.3838
   69MOL0     C 9238   1.800   1.136   2.547 -0.4256 -0.9408  0.6469
   69MOL0     O 9239   1.870   1.053   2.467 -0.4749 -0.0688 -0.3067
   69MOL0     C 9240   2.011   1.050   2.475 -0.5344 -0.5216 -0.5489
   69MOL0     C 9241   2.065   1.157   2.381 -0.5940  0.1463 -0.2845
   69MOL0     C 9242   2.227   1.166   2.364  0.3155  0.7426  0.1206
   69MOL0     C 9243   2.279   1.059   2.253 -0.4994  0.5224  0.2575
   69MOL0     C 9244   2.333   0.945   2.325  0.8204  0.7482  0.0015
   69MOL0     C 9245   2.386   0.867   2.405  0.3962  0.6960  0.7875
   69MOL0     C 9246   1.663   1.118   2.556 -0.1234  0.0948 -0.6281
   69MOL0     C 9247   1.584   1.194   2.644 -0.6219 -0.0877 -0.0421
   69MOL0     H 9248   1.319   1.584   2.838  2.0317  1.5881 -0.0732
   69MOL0     H 9249   1.245   1.702   3.053 -2.9316 -2.0696  3.1587
   69MOL0     H 9250   1.199   1.479   3.418  3.3221 -1.5031  0.9414
   69MOL0     H 9251   1.357   1.552   3.415  0.1621 -0.0627 -2.3498
   69MOL0     H 9252   1.279   1.656   3.594  1.1541 -0.1796 -0.4505
   69MOL0     H 9253   1.256   1.782   3.472  0.0834 -0.0144 -0.7991
   69MOL0     H 9254   1.009   1.688   3.454  0.0406  0.6689 -0.6192
   69MOL0     H 9255   1.047   1.592   3.600  0.2136  1.6228  1.1288
   69MOL0     H 9256   1.106   1.800   3.715 -0.4178  0.3246 -0.4594
   69MOL0     H 9257   1.050   1.894   3.575  1.0332  0.1790 -1.4384
   69MOL0     H 9258   0.902   1.672   3.724  1.0584 -1.7501 -4.7429
   69MOL0     H 9259   0.868   1.835   3.773 -2.4957  1.1568  0.4813
   69MOL0     H 9260   0.805   1.729   3.492 -0.3676  2.3018 -0.8612
   69MOL0     H 9261   0.695   1.721   3.626  1.8707 -2.2348  1.1657
   69MOL0     H 9262   0.730   1.979   3.652  2.5957  2.8360 -0.9402
   69MOL0     H 9263   0.837   1.961   3.506 -0.5150 -2.3243 -2.0399
   69MOL0     H 9264   0.547   1.882   3.533 -1.4774  0.9964 -2.0464
   69MOL0     H 9265   0.635   1.855   3.383  2.8851  0.5934  0.5640
   69MOL0     H 9266   0.584   2.184   3.629  0.6471  1.8064 -1.2179
   69MOL0     H 9267   0.288   2.337   3.525 -0.0023 -2.2038 -0.0244
   69MOL0     H 9268   0.450   2.426   3.562  0.1937  0.0465  0.4308
   69MOL0     H 9269   0.318   2.435   3.287  3.4767 -1.9507 -1.3592
   69MOL0     H 9270   0.470   2.503   3.338  0.0269 -1.6152 -1.7620
   69MOL0     H 9271   0.349   2.618   3.534  1.6094 -1.0049 -0.5720
   69MOL0     H 9272   0.198   2.549   3.473  1.3803 -0.7783  4.2182
   69MOL0     H 9273   0.192   2.762   3.397 -1.3183 -0.4233 -1.4902
   69MOL0     H 9274   0.254   2.680   3.253  0.0185 -0.1806  0.5198
   69MOL0     H 9275   0.240   2.850   3.148 -1.0477  0.3621  0.2402
   69MOL0     H 9276   0.173   3.146   2.988 -1.1209  0.5184 -2.2182
   69MOL0     H 9277   0.291   3.103   2.874 -0.7980 -1.2692 -1.2769
   69MOL0     H 9278   0.194   2.977   2.942  2.4523 -2.6036  1.0118
   69MOL0     H 9279   0.684   3.523   3.243  1.2510  1.6841  0.8714
   69MOL0     H 9280   0.776   3.734   3.171 -0.8440  1.3745 -0.2026
   69MOL0     H 9281   0.807   3.796   2.752 -0.9548 -1.5526  1.7607
   69MOL0     H 9282   0.661   3.897   2.737  1.2469  1.6384 -2.5141
   69MOL0     H 9283   0.930   3.998   2.809 -0.7559  2.3880  0.0174
   69MOL0     H 9284   0.853   4.017   2.664  0.9170  2.2375  0.4682
   69MOL0     H 9285   0.707   4.108   2.934  0.8367  1.3955  0.9668
   69MOL0     H 9286   0.653   4.145   2.781 -0.9214 -1.1110  2.3188
   69MOL0     H 9287   0.786   4.324   2.895  0.2441  0.3231 -0.3684
   69MOL0     H 9288   0.931   4.235   2.886  0.4701  3.8049  0.4102
   69MOL0     H 9289   0.760   4.347   2.659  0.6744  0.0812  0.0512
   69MOL0     H 9290   0.909   4.271   2.636  1.6745 -1.9973  1.6422
   69MOL0     H 9291   1.001   4.497   2.647  0.3095 -0.6537 -0.4070
   69MOL0     H 9292   0.860   4.561   2.723  0.3762 -0.1189  0.8966
   69MOL0     H 9293   1.091   4.401   2.854 -0.5797 -0.1967  0.8590
   69MOL0     H 9294   0.941   4.464   2.930 -2.4167  0.6698 -1.8217
   69MOL0     H 9295   1.156   4.601   2.960  0.2429  0.7953  0.3554
   69MOL0     H 9296   1.019   4.697   2.904 -1.4023  0.0465 -1.0636
   69MOL0     H 9297   0.579   3.691   2.793  2.0051  1.7945  1.4360
   69MOL0     H 9298   0.527   3.458   2.843  1.4614 -0.9698 -0.6433
   69MOL0     H 9299   0.653   3.118   3.186 -0.3331  1.2749 -1.0318
   69MOL0     H 9300   0.606   2.897   3.309 -0.3191  2.1784  2.9107
   69MOL0     H 9301   1.350   1.362   3.285 -1.3606  0.4582  0.9995
   69MOL0     H 9302   1.461   1.261   3.050  2.8327  1.9980 -1.2004
   69MOL0     H 9303   1.827   1.414   2.736 -1.3354 -0.9568  1.3464
   69MOL0     H 9304   1.971   1.258   2.608  1.1221 -3.5155  2.1846
   69MOL0     H 9305   2.052   1.063   2.575  0.1584  0.3096 -0.9222
   69MOL0     H 9306   2.038   0.950   2.440 -1.1523 -0.5472 -0.9736
   69MOL0     H 9307   2.042   1.255   2.424 -4.1646  0.0682 -1.7299
   69MOL0     H 9308   2.029   1.153   2.278  0.4574  1.6622 -0.7519
   69MOL0     H 9309   2.278   1.146   2.459  0.2722  0.6952  0.1342
   69MOL0     H 9310   2.246   1.266   2.325  0.3952  0.4994 -0.4688
   69MOL0     H 9311   2.360   1.114   2.205 -0.2507  0.9943  1.1953
   69MOL0     H 9312   2.201   1.036   2.179 -2.4093  2.5098  1.5140
   69MOL0     H 9313   2.446   0.798   2.462  1.0325  1.6782  1.3330
   69MOL0     H 9314   1.610   1.041   2.500 -0.1490  1.8662 -3.2045
   69MOL0     H 9315   1.478   1.179   2.660 -0.4909  1.7807  3.3027
   70MOL0     O 9316   7.508   3.049   5.640  0.3645  0.7130 -0.0638
   70MOL0     C 9317   7.410   3.025   5.573  0.0254  0.0293  0.3840
   70MOL0     O 9318   7.307   3.112   5.543 -0.4012  0.0414 -0.0197
   70MOL0     C 9319   7.315   3.225   5.616  0.0142  0.2377  0.0716
   70MOL0     C 9320   7.231   3.245   5.727 -0.8523  0.2796  1.3633
   70MOL0     C 9321   7.238   3.358   5.808  0.5000 -1.0232  0.2646
   70MOL0     C 9322   7.332   3.464   5.778  0.3921 -0.3814  0.0702
   70MOL0     O 9323   7.350   3.566   5.875 -0.1673 -0.1858  0.2109
   70MOL0     C 9324   7.467   3.643   5.866  0.5509  0.0573 -0.4999
   70MOL0     C 9325   7.461   3.772   5.779  0.2541 -1.0362 -1.0546
   70MOL0     C 9326   7.368   3.878   5.840  0.2509  0.5994  0.0321
   70MOL0     C 9327   7.351   3.980   5.730 -0.1082  0.9884 -0.0131
   70MOL0     C 9328   7.282   4.108   5.771  0.5178  0.3514  0.3614
   70MOL0     C 9329   7.132   4.098   5.784  0.5287 -0.2809 -0.1126
   70MOL0     C 9330   7.057   4.059   5.651  0.0867 -0.7242 -0.9301
   70MOL0     C 9331   7.068   4.161   5.542 -1.3013 -1.2154  0.3339
   70MOL0     N 9332   7.017   4.138   5.403 -0.2637 -0.2405 -0.9843
   70MOL0     C 9333   6.883   4.131   5.386 -0.8978 -0.6763 -0.6313
   70MOL0     C 9334   6.864   4.085   5.270  0.0134  0.5249  1.0536
   70MOL0     C 9335   6.738   4.041   5.217 -0.0470  0.8531  0.1992
   70MOL0     C 9336   6.684   4.141   5.104 -0.0134  1.5839 -1.7291
   70MOL0     C 9337   6.669   4.282   5.169 -0.6524  0.5887 -0.3093
   70MOL0     C 9338   6.801   4.358   5.194 -0.6410 -0.6130  0.8412
   70MOL0     O 9339   6.776   4.493   5.162  0.0299 -0.0017 -0.3196
   70MOL0     C 9340   6.878   4.572   5.108  0.1034  0.7940  0.5785
   70MOL0     C 9341   7.004   4.521   5.073  0.7809 -0.9665 -0.6470
   70MOL0     C 9342   7.106   4.599   5.036 -1.4869  0.6320  0.4780
   70MOL0     C 9343   7.242   4.533   5.013  0.0854  0.5398 -0.4962
   70MOL0     C 9344   7.078   4.741   5.029 -0.6628  0.1180  0.4597
   70MOL0     C 9345   7.173   4.846   4.979 -1.4093 -0.4068 -0.0137
   70MOL0     O 9346   7.127   4.985   4.964  0.4420  0.5332  0.2073
   70MOL0     C 9347   7.190   5.065   4.866 -0.1574 -0.2249  0.3493
   70MOL0     C 9348   7.174   5.036   4.728  0.0459  0.0168 -0.2567
   70MOL0     C 9349   7.239   5.118   4.631 -0.4157  1.6542  0.5102
   70MOL0     C 9350   7.333   5.211   4.670  0.2268 -0.0763 -0.0196
   70MOL0     O 9351   7.413   5.293   4.587 -0.6643  0.7767 -0.0306
   70MOL0     C 9352   7.357   5.350   4.469  0.7642  0.7070 -0.8972
   70MOL0     C 9353   7.238   5.438   4.491  0.0041  0.1178  0.0935
   70MOL0     C 9354   7.266   5.557   4.577 -0.2103  0.3539  0.1650
   70MOL0     C 9355   7.412   5.611   4.583  0.2238 -0.4382  0.9054
   70MOL0     C 9356   7.411   5.742   4.653 -0.3925 -0.5662 -0.0509
   70MOL0     C 9357   7.521   5.769   4.752  0.0420 -0.7662  0.4971
   70MOL0     C 9358   7.526   5.652   4.851  0.7156  0.1950 -0.2446
   70MOL0     C 9359   7.584   5.695   4.983 -0.3537 -0.1567 -0.9151
   70MOL0    Cl 9360   7.627   5.559   5.100  0.0220 -0.6173 -0.2038
   70MOL0     C 9361   7.357   5.224   4.804 -0.2693 -0.1950 -0.4397
   70MOL0     C 9362   7.292   5.147   4.899 -0.4411  0.7988  0.8563
   70MOL0     O 9363   7.292   4.811   4.961  0.7096  1.0479  0.6081
   70MOL0     C 9364   6.948   4.787   5.047  0.1603 -0.3980  0.1553
   70MOL0     C 9365   6.853   4.703   5.104  0.1595  0.1283 -0.3224
   70MOL0     N 9366   6.983   4.066   5.208 -0.7050 -0.5324 -0.6511
   70MOL0     N 9367   7.084   4.087   5.289 -0.7393 -1.0809  0.2419
   70MOL0     C 9368   7.412   3.448   5.661 -0.0482  0.7384  0.5148
   70MOL0     C 9369   7.406   3.323   5.586  0.2973 -1.2944 -0.7962
   70MOL0     C 9370   7.392   2.882   5.517  0.3770 -0.0655 -1.2859
   70MOL0     C 9371   7.320   2.860   5.408 -0.4671 -0.4840  0.1569
   70MOL0     C 9372   7.308   2.739   5.336  0.1675 -0.9076  0.0263
   70MOL0     C 9373   7.373   2.633   5.386 -0.3699  0.0050  0.1551
   70MOL0     O 9374   7.390   2.525   5.296  0.1797  0.7371 -0.0068
   70MOL0     C 9375   7.509   2.432   5.309  1.0708 -0.3309  0.9709
   70MOL0     C 9376   7.541   2.368   5.179  0.1610  0.3743 -0.4515
   70MOL0     C 9377   7.418   2.285   5.134  1.0415  0.1090  0.2721
   70MOL0     C 9378   7.408   2.135   5.148 -0.2253  0.6621  0.5314
   70MOL0     C 9379   7.374   2.083   5.277 -0.1777  0.1811  0.9205
   70MOL0     C 9380   7.370   2.032   5.384 -0.2586  1.0557  0.2889
   70MOL0     C 9381   7.446   2.640   5.501 -0.2864  0.6271 -0.1996
   70MOL0     C 9382   7.461   2.765   5.562  1.0844 -0.1953  0.6567
   70MOL0     H 9383   7.161   3.169   5.760 -1.4356 -0.1028 -0.5996
   70MOL0     H 9384   7.172   3.381   5.891  0.9879  2.4235 -0.1302
   70MOL0     H 9385   7.489   3.676   5.968  3.8917 -3.1079  0.0024
   70MOL0     H 9386   7.549   3.578   5.835  0.5711 -0.7925  1.2355
   70MOL0     H 9387   7.557   3.821   5.764 -1.8467  4.6421  1.2894
   70MOL0     H 9388   7.413   3.732   5.689  1.0492 -2.0989 -1.0117
   70MOL0     H 9389   7.275   3.826   5.864  3.7275 -6.4394  0.7166
   70MOL0     H 9390   7.403   3.907   5.939 -1.9700 -1.9350  1.6763
   70MOL0     H 9391   7.444   4.004   5.678  1.3376 -3.8662 -0.0754
   70MOL0     H 9392   7.290   3.931   5.653 -2.8666  3.0019  0.6931
   70MOL0     H 9393   7.321   4.131   5.870 -0.5349  0.8525  0.6790
   70MOL0     H 9394   7.310   4.189   5.702 -1.5610 -0.5819 -1.7078
   70MOL0     H 9395   7.104   4.023   5.860 -0.9584 -0.9957 -1.3177
   70MOL0     H 9396   7.101   4.192   5.830  2.1668 -0.1300  0.7741
   70MOL0     H 9397   7.090   3.962   5.611 -1.9407 -1.9032  0.0761
   70MOL0     H 9398   6.948   4.062   5.659  0.1296  0.1240 -0.6029
   70MOL0     H 9399   7.172   4.193   5.527 -0.9058 -1.8694  1.4949
   70MOL0     H 9400   7.024   4.248   5.592  1.6281 -0.2566  1.5266
   70MOL0     H 9401   6.816   4.136   5.471  1.6544  0.0898  1.4675
   70MOL0     H 9402   6.736   3.938   5.183  3.8606 -0.1616  2.4743
   70MOL0     H 9403   6.666   4.029   5.299 -2.0453 -1.9493 -1.8026
   70MOL0     H 9404   6.585   4.098   5.087  0.2254  0.5173 -0.5489
   70MOL0     H 9405   6.742   4.128   5.012 -0.6954 -0.5563 -1.9011
   70MOL0     H 9406   6.599   4.277   5.252  0.9681  0.3949  1.1151
   70MOL0     H 9407   6.625   4.350   5.096  0.3794  1.7786  0.1452
   70MOL0     H 9408   6.866   4.302   5.127 -0.4591  0.4702  0.1002
   70MOL0     H 9409   6.846   4.353   5.294  2.5454 -2.0049 -0.5512
   70MOL0     H 9410   7.018   4.415   5.089 -0.4746 -1.2402 -1.2705
   70MOL0     H 9411   7.257   4.520   4.906 -0.9326 -1.3061 -0.4658
   70MOL0     H 9412   7.320   4.601   5.049  0.5517 -0.9696  1.5989
   70MOL0     H 9413   7.253   4.434   5.059  2.1909  1.0833  0.2911
   70MOL0     H 9414   7.102   4.973   4.677  0.0379  0.5063 -0.8691
   70MOL0     H 9415   7.233   5.088   4.527 -1.0464  0.3936  0.8841
   70MOL0     H 9416   7.439   5.413   4.431  2.4091 -1.7721 -1.6937
   70MOL0     H 9417   7.328   5.278   4.392  1.0269 -1.6152  1.0621
   70MOL0     H 9418   7.204   5.470   4.392 -0.5032 -0.8484 -0.0570
   70MOL0     H 9419   7.157   5.381   4.537 -2.7300  3.3113 -0.3314
   70MOL0     H 9420   7.229   5.527   4.675 -2.2547  0.4145 -0.5275
   70MOL0     H 9421   7.195   5.633   4.541 -2.8956  0.1798  4.3881
   70MOL0     H 9422   7.488   5.537   4.611  0.3050 -2.3095 -3.3867
   70MOL0     H 9423   7.437   5.631   4.478 -2.4811 -0.3644  0.1971
   70MOL0     H 9424   7.318   5.766   4.704 -0.3434  1.0851 -0.6814
   70MOL0     H 9425   7.417   5.816   4.573 -2.0867 -0.4104 -0.0539
   70MOL0     H 9426   7.616   5.792   4.703  0.5229  0.5308  1.9439
   70MOL0     H 9427   7.495   5.860   4.808  0.1472  0.5859 -1.5465
   70MOL0     H 9428   7.579   5.566   4.810 -2.9654 -1.5118 -1.8580
   70MOL0     H 9429   7.425   5.614   4.869 -0.2431  2.8220  0.4869
   70MOL0     H 9430   7.517   5.766   5.032  1.4130  1.0705 -0.1372
   70MOL0     H 9431   7.664   5.768   4.964 -1.1534  1.4565  1.3661
   70MOL0     H 9432   7.426   5.300   4.842 -3.0913  2.3442 -0.0041
   70MOL0     H 9433   7.336   5.139   4.998  1.7518  3.0803  0.1864
   70MOL0     H 9434   6.909   4.887   5.037 -1.3457 -1.0317 -0.6090
   70MOL0     H 9435   6.752   4.737   5.124 -1.2847 -3.5336 -0.5192
   70MOL0     H 9436   7.488   3.519   5.630  1.7907 -1.1823  0.4245
   70MOL0     H 9437   7.486   3.322   5.512  0.4041  3.8199 -1.0962
   70MOL0     H 9438   7.271   2.948   5.368  0.3275 -0.0921  0.0215
   70MOL0     H 9439   7.250   2.713   5.248  2.9827 -2.7986 -1.3987
   70MOL0     H 9440   7.598   2.488   5.340  1.0002 -1.5062  3.5964
   70MOL0     H 9441   7.472   2.355   5.378 -2.1959  0.8719  0.7530
   70MOL0     H 9442   7.628   2.302   5.189 -2.5786 -3.3830  0.5516
   70MOL0     H 9443   7.556   2.443   5.102  2.5531 -0.3339 -0.7679
   70MOL0     H 9444   7.399   2.319   5.031 -1.2944  1.5015  1.0828
   70MOL0     H 9445   7.321   2.312   5.175 -0.7403 -2.2786 -2.0473
   70MOL0     H 9446   7.499   2.093   5.103 -1.1623 -0.0903 -0.7299
   70MOL0     H 9447   7.321   2.121   5.083 -1.1435 -0.7891  1.9958
   70MOL0     H 9448   7.384   1.990   5.482 -2.4441  0.4584  0.3923
   70MOL0     H 9449   7.495   2.554   5.543 -1.8923  0.2242  0.9349
   70MOL0     H 9450   7.534   2.788   5.639  2.7288 -0.6084 -0.7044
   71MOL0     O 9451   9.936  10.144   7.993 -0.2209  0.3443  0.2472
   71MOL0     C 9452   9.926  10.077   8.092  0.0331  0.7010 -0.0111
   71MOL0     O 9453  10.030  10.029   8.159  0.2878 -0.4414 -0.0245
   71MOL0     C 9454  10.155  10.036   8.096  0.1299 -0.7703 -0.9053
   71MOL0     C 9455  10.235  10.148   8.119 -0.5448 -0.2973  0.6415
   71MOL0     C 9456  10.359  10.149   8.062 -0.4797 -0.0726 -1.2636
   71MOL0     C 9457  10.402  10.030   7.997  0.4240 -0.1040  0.5181
   71MOL0     O 9458  10.531  10.007   7.949 -0.2053 -0.0183 -0.6996
   71MOL0     C 9459  10.608  10.121   7.918 -0.2976 -0.8220 -0.2409
   71MOL0     C 9460  10.548  10.174   7.784 -0.5269  0.0036  1.2591
   71MOL0     C 9461  10.550  10.069   7.664  0.5900  0.0875 -0.1903
   71MOL0     C 9462  10.502  10.133   7.530 -0.2339 -0.0220  0.3272
   71MOL0     C 9463  10.509  10.023   7.422 -0.2148  0.0433 -0.2765
   71MOL0     C 9464  10.655   9.995   7.385 -0.4238 -0.3684  0.0580
   71MOL0     C 9465  10.668   9.907   7.260 -0.1633  0.1553  0.2493
   71MOL0     C 9466  10.796   9.940   7.175 -1.2558 -0.3783 -0.5487
   71MOL0     N 9467  10.785  10.022   7.055  0.3042 -0.6240  0.6017
   71MOL0     C 9468  10.697  10.126   7.049 -0.6100  0.7262  0.5452
   71MOL0     C 9469  10.660  10.129   6.914  0.0508 -0.2641  0.6928
   71MOL0     C 9470  10.557  10.226   6.850 -0.1938  0.2846 -0.1595
   71MOL0     C 9471  10.413  10.194   6.911 -0.5931  0.7042  1.0747
   71MOL0     C 9472  10.293  10.197   6.812 -0.2037 -0.1860  0.3327
   71MOL0     C 9473  10.249  10.333   6.752  0.5233  0.9374 -0.6783
   71MOL0     O 9474  10.362  10.386   6.684 -0.5084  0.6492  0.6307
   71MOL0     C 9475  10.327  10.491   6.595  0.8927  0.4802  0.2775
   71MOL0     C 9476  10.404  10.502   6.479  0.9987  0.1459 -0.1126
   71MOL0     C 9477  10.394  10.601   6.379  0.6796  0.1614 -0.5869
   71MOL0     C 9478  10.494  10.598   6.260  1.3288 -0.3940  0.5524
   71MOL0     C 9479  10.295  10.691   6.407  0.2389  0.5511  0.2185
   71MOL0     C 9480  10.268  10.802   6.329 -0.4923 -0.0477 -0.5425
   71MOL0     O 9481  10.181  10.779   6.224 -0.4729 -0.9705 -0.4457
   71MOL0     C 9482  10.163  10.879   6.127  0.5784  0.7644  0.2513
   71MOL0     C 9483  10.094  10.988   6.175  0.7252  0.9815 -0.2420
   71MOL0     C 9484  10.061  11.099   6.091 -0.4451  0.0481 -0.4956
   71MOL0     C 9485  10.098  11.096   5.957 -0.4079 -1.0989  0.8476
   71MOL0     O 9486  10.052  11.205   5.886  0.2626 -0.0755 -0.1705
   71MOL0     C 9487  10.109  11.232   5.762  0.4498  0.4767  0.0343
   71MOL0     C 9488  10.019  11.329   5.689 -0.2700  0.0738  0.8632
   71MOL0     C 9489   9.986  11.452   5.777  0.4598 -0.0551  0.0553
   71MOL0     C 9490   9.923  11.555   5.693 -1.0039  0.4606 -0.5067
   71MOL0     C 9491   9.860  11.660   5.784 -0.2016  0.0623 -0.2240
   71MOL0     C 9492   9.947  11.718   5.900 -0.1193 -0.9703  0.8932
   71MOL0     C 9493   9.960  11.636   6.032 -0.7469 -0.6839  0.2324
   71MOL0     C 9494   9.945  11.734   6.157  0.4931 -0.5092  1.2514
   71MOL0    Cl 9495   9.904  11.635   6.292 -0.1884 -0.2286 -0.0177
   71MOL0     C 9496  10.166  10.982   5.912  0.7180 -0.9557  0.8391
   71MOL0     C 9497  10.195  10.876   5.992 -0.4946 -0.5889  0.1925
   71MOL0     O 9498  10.312  10.904   6.369  0.8265 -0.5256  0.0252
   71MOL0     C 9499  10.216  10.681   6.519 -0.1855  0.1011 -0.0940
   71MOL0     C 9500  10.221  10.580   6.616  0.6498  0.5553 -0.0208
   71MOL0     N 9501  10.748  10.048   6.841  0.1822 -0.3947  0.7694
   71MOL0     N 9502  10.813   9.981   6.930 -0.4797  0.0369  0.0068
   71MOL0     C 9503  10.318   9.922   7.974 -0.6534  0.5586  0.3993
   71MOL0     C 9504  10.189   9.931   8.017  0.9478  0.8704 -0.3727
   71MOL0     C 9505   9.790  10.056   8.144 -0.1027 -0.8146 -0.3159
   71MOL0     C 9506   9.774  10.046   8.283 -1.0089  0.8362  0.9384
   71MOL0     C 9507   9.646  10.054   8.330  0.1288  0.2117 -0.0801
   71MOL0     C 9508   9.538  10.077   8.245  0.3453  0.7971 -0.4392
   71MOL0     O 9509   9.417  10.090   8.301 -0.1331  0.1057 -0.0942
   71MOL0     C 9510   9.305  10.121   8.223  0.2268  0.1697  0.4904
   71MOL0     C 9511   9.180  10.119   8.304 -0.2417  1.0694 -0.0395
   71MOL0     C 9512   9.153   9.976   8.374  0.0758 -0.4345  0.8940
   71MOL0     C 9513   9.081   9.885   8.274  0.2653 -0.5800 -0.1439
   71MOL0     C 9514   8.975   9.807   8.339 -0.6886 -0.2076 -0.1448
   71MOL0     C 9515   8.887   9.751   8.397 -0.0693 -0.8557  0.1744
   71MOL0     C 9516   9.562  10.075   8.110  0.1705  0.1249 -0.4223
   71MOL0     C 9517   9.687  10.070   8.059  0.3339  0.3484 -0.5516
   71MOL0     H 9518  10.188  10.231   8.171 -4.1501 -2.0954  0.5319
   71MOL0     H 9519  10.424  10.232   8.088 -1.1585 -0.4556  1.9936
   71MOL0     H 9520  10.607  10.197   7.996  1.9811 -0.5412 -0.3928
   71MOL0     H 9521  10.712  10.090   7.902  0.1467  0.0711  0.7939
   71MOL0     H 9522  10.444  10.198   7.806 -0.7181  1.1074 -0.6156
   71MOL0     H 9523  10.595  10.269   7.758 -3.1235  1.2923  0.9950
   71MOL0     H 9524  10.652  10.036   7.646  0.4697 -0.2270 -0.3108
   71MOL0     H 9525  10.484   9.988   7.697  1.9755 -1.0409 -0.0747
   71MOL0     H 9526  10.402  10.177   7.535 -0.3274 -0.1682 -0.1616
   71MOL0     H 9527  10.566  10.217   7.502 -4.5982  3.0232 -1.5183
   71MOL0     H 9528  10.469   9.927   7.456 -0.4256  0.4195  0.5419
   71MOL0     H 9529  10.457  10.057   7.331  0.5590 -3.1503 -2.0631
   71MOL0     H 9530  10.703  10.091   7.367 -0.7228 -0.6270 -2.5433
   71MOL0     H 9531  10.710   9.952   7.470  1.1438 -0.1233 -0.7902
   71MOL0     H 9532  10.670   9.798   7.277  4.1594  0.2261  1.6183
   71MOL0     H 9533  10.589   9.931   7.188  2.4142  1.1511 -2.4675
   71MOL0     H 9534  10.845   9.847   7.146  2.7269  1.3096  0.0441
   71MOL0     H 9535  10.868   9.995   7.237  1.5962 -3.3938 -0.9066
   71MOL0     H 9536  10.649  10.182   7.128 -2.8156 -1.1315  0.6248
   71MOL0     H 9537  10.589  10.329   6.866 -0.8754  0.6237 -0.8756
   71MOL0     H 9538  10.551  10.201   6.744 -0.8794  0.5479 -0.1920
   71MOL0     H 9539  10.398  10.256   7.000  0.4369  1.4716  0.7302
   71MOL0     H 9540  10.431  10.095   6.955 -0.6387  0.6129  0.8883
   71MOL0     H 9541  10.219  10.152   6.879  2.9978 -1.0624  3.5908
   71MOL0     H 9542  10.322  10.123   6.737  1.6565  2.6758 -2.0093
   71MOL0     H 9543  10.228  10.396   6.839 -2.2562 -0.7223  0.0068
   71MOL0     H 9544  10.162  10.326   6.686 -0.7169 -2.5789  1.0747
   71MOL0     H 9545  10.480  10.426   6.467  1.7974  0.6004  1.7946
   71MOL0     H 9546  10.489  10.696   6.210 -3.4042 -0.8380 -0.3334
   71MOL0     H 9547  10.596  10.592   6.299  2.4871 -2.2541 -2.4432
   71MOL0     H 9548  10.463  10.520   6.190  0.5505 -2.3499  2.9579
   71MOL0     H 9549  10.047  10.995   6.273  0.4643 -2.9365  0.0405
   71MOL0     H 9550   9.994  11.176   6.127  0.9226  1.5371 -0.9875
   71MOL0     H 9551  10.215  11.260   5.765  0.4336  0.8203 -1.7402
   71MOL0     H 9552  10.114  11.143   5.698 -1.2819  1.5267 -1.6546
   71MOL0     H 9553  10.077  11.352   5.599 -0.9033  0.4911  0.5569
   71MOL0     H 9554   9.932  11.267   5.664  0.1465 -0.0231 -0.3877
   71MOL0     H 9555  10.083  11.485   5.815  0.7683  0.9995 -1.5517
   71MOL0     H 9556   9.906  11.434   5.850 -2.3742  1.9472 -2.3033
   71MOL0     H 9557   9.997  11.592   5.621  0.2162 -4.6945 -2.3572
   71MOL0     H 9558   9.846  11.505   5.633 -2.9176  1.3487  1.0889
   71MOL0     H 9559   9.767  11.617   5.823 -0.4620  0.6510 -0.1913
   71MOL0     H 9560   9.828  11.744   5.721 -0.9989  0.9209  1.2618
   71MOL0     H 9561  10.049  11.719   5.860 -0.3139 -2.1118  0.3069
   71MOL0     H 9562   9.922  11.820   5.928 -0.2161  0.1600 -2.7828
   71MOL0     H 9563  10.054  11.580   6.033  1.0527  2.0815 -1.0653
   71MOL0     H 9564   9.885  11.558   6.048 -1.0079 -0.2416  1.2660
   71MOL0     H 9565   9.859  11.801   6.144 -0.0205 -1.7161 -3.7716
   71MOL0     H 9566  10.040  11.785   6.176  1.1706 -2.6631  4.3279
   71MOL0     H 9567  10.194  10.986   5.807  0.1764 -1.4334  0.6696
   71MOL0     H 9568  10.243  10.787   5.953  0.5969 -1.2935  2.9186
   71MOL0     H 9569  10.133  10.747   6.539 -2.3006 -2.1340 -0.9744
   71MOL0     H 9570  10.148  10.572   6.695  0.2008  1.3144 -0.3524
   71MOL0     H 9571  10.355   9.842   7.910 -1.0023  0.9051 -0.2495
   71MOL0     H 9572  10.110   9.857   8.010 -0.5271  2.4307 -0.8918
   71MOL0     H 9573   9.864  10.047   8.344  0.7670  5.0102 -1.3614
   71MOL0     H 9574   9.627  10.049   8.436  2.6764  3.8295  0.7507
   71MOL0     H 9575   9.322  10.216   8.171 -2.5169  2.0685  2.7313
   71MOL0     H 9576   9.293  10.041   8.150 -0.7889  0.8272 -0.0896
   71MOL0     H 9577   9.103  10.151   8.234 -2.2682 -0.5854  1.3208
   71MOL0     H 9578   9.183  10.198   8.380 -0.7019  0.0611  1.0600
   71MOL0     H 9579   9.084   9.982   8.458  0.8945  0.8914  1.5094
   71MOL0     H 9580   9.239   9.929   8.422  1.0674 -0.2041 -0.5898
   71MOL0     H 9581   9.152   9.811   8.238 -0.2437 -1.2443  0.1875
   71MOL0     H 9582   9.043   9.936   8.185  3.4782  3.3040  0.3836
   71MOL0     H 9583   8.806   9.697   8.442 -0.8026 -0.3200 -0.4879
   71MOL0     H 9584   9.480  10.084   8.040 -0.2522 -1.9165 -0.2504
   71MOL0     H 9585   9.696  10.063   7.952 -1.8980  0.4501 -0.7811
   72MOL0     O 9586   4.705   5.496  10.344  0.6558  0.9855  0.0056
   72MOL0     C 9587   4.736   5.577  10.261 -0.8791 -0.5282  0.0742
   72MOL0     O 9588   4.679   5.591  10.144  0.0078  0.1097  0.5391
   72MOL0     C 9589   4.575   5.521  10.103  0.8310  0.0850  0.0515
   72MOL0     C 9590   4.575   5.439   9.990 -0.8194 -0.7718 -0.0095
   72MOL0     C 9591   4.460   5.374   9.940  0.3186  0.7134  1.1135
   72MOL0     C 9592   4.345   5.386  10.010 -0.6199  0.2121  0.7316
   72MOL0     O 9593   4.237   5.311   9.980 -1.0804 -0.1278  0.5119
   72MOL0     C 9594   4.118   5.370   9.937  0.7047 -0.0988  0.5482
   72MOL0     C 9595   4.133   5.391   9.784  0.4192  0.4415 -0.1780
   72MOL0     C 9596   4.074   5.280   9.699 -0.6780 -0.0699 -0.1156
   72MOL0     C 9597   4.162   5.165   9.670 -0.5202  0.6068  0.5092
   72MOL0     C 9598   4.113   5.074   9.549 -0.1189 -0.4643 -0.5345
   72MOL0     C 9599   4.120   5.132   9.405  0.2160 -0.4998 -1.1542
   72MOL0     C 9600   4.259   5.152   9.355  0.4765 -0.9017  0.7774
   72MOL0     C 9601   4.253   5.202   9.208 -0.1486  0.6348 -0.0816
   72MOL0     N 9602   4.389   5.249   9.153 -0.6396 -0.0835 -0.6369
   72MOL0     C 9603   4.423   5.380   9.133 -0.4224  0.7362  0.0623
   72MOL0     C 9604   4.557   5.367   9.099  0.9290 -0.1492 -0.7296
   72MOL0     C 9605   4.644   5.482   9.065 -0.2774  0.0425 -0.0009
   72MOL0     C 9606   4.638   5.521   8.915  0.1092 -0.0270 -1.2658
   72MOL0     C 9607   4.571   5.655   8.898 -0.1417  0.6218  0.3228
   72MOL0     C 9608   4.610   5.778   8.989 -0.0611 -0.3925  0.5985
   72MOL0     O 9609   4.748   5.808   8.958  0.3125  0.7237 -0.1683
   72MOL0     C 9610   4.783   5.939   8.974  0.5706 -0.1226  0.4564
   72MOL0     C 9611   4.716   6.034   9.057 -0.6680  0.2492  0.1530
   72MOL0     C 9612   4.754   6.169   9.060 -0.0275  1.1352  0.0568
   72MOL0     C 9613   4.664   6.271   9.123  1.0886  0.6371  0.1425
   72MOL0     C 9614   4.868   6.208   8.984 -0.5188 -0.7303 -0.3322
   72MOL0     C 9615   4.917   6.347   8.980  0.5279 -0.3084  0.0620
   72MOL0     O 9616   5.004   6.382   8.876  0.0897  1.0731 -0.4484
   72MOL0     C 9617   5.050   6.510   8.897 -0.3809 -0.0258  0.8154
   72MOL0     C 9618   4.998   6.614   8.823  0.2645 -0.1134 -0.0868
   72MOL0     C 9619   5.054   6.750   8.832 -0.7663 -0.4939 -0.6557
   72MOL0     C 9620   5.167   6.782   8.909 -0.8470  0.5612  0.5277
   72MOL0     O 9621   5.240   6.903   8.912  0.4265  0.4248  0.1165
   72MOL0     C 9622   5.209   7.006   8.819 -0.6815  0.8245 -0.0523
   72MOL0     C 9623   5.296   6.996   8.686 -0.8374  0.0629 -0.1769
   72MOL0     C 9624   5.443   7.017   8.734  0.3226  1.0912 -0.1399
   72MOL0     C 9625   5.489   7.163   8.740 -0.3937 -1.2931 -0.3552
   72MOL0     C 9626   5.638   7.170   8.762 -0.0934 -0.6559 -0.0296
   72MOL0     C 9627   5.707   7.138   8.629 -0.7613 -0.1689 -0.6870
   72MOL0     C 9628   5.860   7.145   8.644 -0.3588  0.5492  0.6331
   72MOL0     C 9629   5.930   7.114   8.506  0.1769 -0.1827  0.1662
   72MOL0    Cl 9630   5.918   7.250   8.394  0.4380  0.1871 -0.5025
   72MOL0     C 9631   5.231   6.672   8.963 -0.6571 -0.4357 -0.2267
   72MOL0     C 9632   5.176   6.535   8.957 -0.5699 -0.8971  0.7801
   72MOL0     O 9633   4.893   6.419   9.080 -0.2898 -0.7604 -0.3673
   72MOL0     C 9634   4.940   6.107   8.910 -0.3827 -0.3198  0.1267
   72MOL0     C 9635   4.892   5.981   8.899 -0.2640 -0.6908 -0.7045
   72MOL0     N 9636   4.598   5.241   9.106 -0.0250  0.1179 -0.1376
   72MOL0     N 9637   4.501   5.162   9.146 -0.0938  0.4551 -0.5338
   72MOL0     C 9638   4.339   5.471  10.124  0.7043  0.5395  0.3167
   72MOL0     C 9639   4.449   5.541  10.174 -0.4382  0.8604  0.5383
   72MOL0     C 9640   4.839   5.677  10.309  0.2547 -0.1666  0.5680
   72MOL0     C 9641   4.901   5.773  10.225 -0.1682  0.6930 -0.1590
   72MOL0     C 9642   4.996   5.866  10.263  0.5771 -0.0295 -0.4900
   72MOL0     C 9643   5.034   5.873  10.398 -0.4325 -1.4051 -0.0452
   72MOL0     O 9644   5.127   5.979  10.420 -0.3132 -0.5281  0.1881
   72MOL0     C 9645   5.168   6.021  10.550 -0.4045 -0.3584  0.0316
   72MOL0     C 9646   5.264   5.933  10.627 -0.1659  0.3508  0.5076
   72MOL0     C 9647   5.363   5.844  10.550 -0.4455  0.1341 -1.0866
   72MOL0     C 9648   5.466   5.915  10.464 -1.1832 -0.5715  0.1639
   72MOL0     C 9649   5.591   5.833  10.442  0.9608 -0.4949 -0.7841
   72MOL0     C 9650   5.690   5.769  10.430 -0.4286  0.1380 -0.3855
   72MOL0     C 9651   4.966   5.793  10.498 -0.6845 -0.3562 -0.6480
   72MOL0     C 9652   4.878   5.694  10.447  0.6791 -1.0705  0.3915
   72MOL0     H 9653   4.664   5.415   9.932  0.2259 -0.9645  1.6243
   72MOL0     H 9654   4.469   5.316   9.849 -0.6280  1.9814  0.1890
   72MOL0     H 9655   4.034   5.305   9.961  1.5737 -1.3929  0.2285
   72MOL0     H 9656   4.083   5.467   9.972 -3.4161 -1.2878  0.2740
   72MOL0     H 9657   4.078   5.485   9.776 -0.0645  0.6142  3.4552
   72MOL0     H 9658   4.234   5.422   9.755  0.9897 -0.6755  0.5363
   72MOL0     H 9659   3.981   5.250   9.749  0.8836  1.3835  4.1394
   72MOL0     H 9660   4.046   5.326   9.604 -2.4650 -0.9445 -0.0566
   72MOL0     H 9661   4.262   5.202   9.648  0.0358  0.3498  2.4127
   72MOL0     H 9662   4.178   5.105   9.760  0.0792  2.5156  1.7227
   72MOL0     H 9663   4.177   4.986   9.550 -0.9685 -1.1767  2.2908
   72MOL0     H 9664   4.009   5.047   9.571  0.1268 -0.2314  1.0944
   72MOL0     H 9665   4.075   5.054   9.344  1.2144 -2.8683  0.9810
   72MOL0     H 9666   4.061   5.225   9.400  2.2615  1.0759  1.4453
   72MOL0     H 9667   4.311   5.230   9.411  0.2999  2.3323 -3.0987
   72MOL0     H 9668   4.317   5.059   9.354  2.5215  0.3018 -0.6327
   72MOL0     H 9669   4.176   5.279   9.207 -2.1718 -1.2894 -2.0258
   72MOL0     H 9670   4.219   5.124   9.139  1.2836 -0.4315  0.3653
   72MOL0     H 9671   4.372   5.475   9.148  1.7651  1.7341  1.7462
   72MOL0     H 9672   4.613   5.563   9.132  0.0576  0.4303 -0.3131
   72MOL0     H 9673   4.750   5.465   9.082  0.4855  2.4347 -1.7874
   72MOL0     H 9674   4.582   5.448   8.856  0.9968  0.4829 -2.8122
   72MOL0     H 9675   4.739   5.527   8.872  0.3159  0.7772 -0.6843
   72MOL0     H 9676   4.465   5.632   8.911  0.2728 -0.4534  2.1364
   72MOL0     H 9677   4.581   5.690   8.794 -1.3901  1.7828  0.5714
   72MOL0     H 9678   4.589   5.762   9.095 -0.1990 -0.2802  0.5885
   72MOL0     H 9679   4.542   5.849   8.940  1.2433  0.6226  0.1765
   72MOL0     H 9680   4.622   6.018   9.108 -2.9993  2.4263 -3.1017
   72MOL0     H 9681   4.655   6.359   9.059  1.8593  0.6225  0.0057
   72MOL0     H 9682   4.564   6.226   9.125  1.4936 -0.9591 -4.5407
   72MOL0     H 9683   4.688   6.288   9.228  1.9471  1.1543 -0.1281
   72MOL0     H 9684   4.911   6.583   8.766  0.9527 -1.2851 -0.5444
   72MOL0     H 9685   5.001   6.830   8.781  2.9780  4.7415  2.6318
   72MOL0     H 9686   5.103   7.010   8.793 -0.8777 -0.5410  0.4390
   72MOL0     H 9687   5.248   7.101   8.858  2.3600 -0.3237 -0.0246
   72MOL0     H 9688   5.274   6.901   8.638  0.3449 -1.9257  2.8610
   72MOL0     H 9689   5.269   7.069   8.610 -1.2883  0.2886  0.1972
   72MOL0     H 9690   5.509   6.960   8.669  0.4745  2.7373 -1.4921
   72MOL0     H 9691   5.465   6.972   8.831  0.8131  1.9927  0.1817
   72MOL0     H 9692   5.480   7.222   8.649  1.7695  4.4073  2.6489
   72MOL0     H 9693   5.437   7.213   8.822  0.3639 -3.0606  1.2965
   72MOL0     H 9694   5.668   7.109   8.848 -1.2185 -0.2339  0.6810
   72MOL0     H 9695   5.660   7.275   8.780  1.1140 -1.1027  1.3062
   72MOL0     H 9696   5.678   7.038   8.595  0.1361 -0.1149 -1.6471
   72MOL0     H 9697   5.683   7.210   8.550 -1.3407  1.4804  0.9006
   72MOL0     H 9698   5.901   7.072   8.715  0.0519 -0.3974 -0.5329
   72MOL0     H 9699   5.897   7.243   8.674 -2.9121  1.4701  1.0126
   72MOL0     H 9700   5.874   7.026   8.472 -1.6718 -0.7581  4.1328
   72MOL0     H 9701   6.036   7.099   8.528 -0.1256  1.1560  2.9979
   72MOL0     H 9702   5.332   6.682   9.002  1.2245 -3.1452 -3.7879
   72MOL0     H 9703   5.225   6.446   8.995  3.5368  0.9567  0.3075
   72MOL0     H 9704   5.034   6.139   8.866  0.2567 -1.4112  0.6568
   72MOL0     H 9705   4.948   5.912   8.838  1.6901  2.1764 -2.4142
   72MOL0     H 9706   4.244   5.482  10.175  0.4489  0.4276 -0.1354
   72MOL0     H 9707   4.451   5.618  10.251 -2.0165  0.1168  1.3624
   72MOL0     H 9708   4.858   5.788  10.126 -4.4926 -0.4357  1.3286
   72MOL0     H 9709   5.028   5.937  10.188  1.3419 -0.0250 -0.1776
   72MOL0     H 9710   5.207   6.122  10.530 -1.9929  0.7549  2.1595
   72MOL0     H 9711   5.082   6.044  10.613 -0.0184  0.1162  0.3932
   72MOL0     H 9712   5.198   5.864  10.680  2.0950  0.0388  3.2006
   72MOL0     H 9713   5.313   6.003  10.696 -1.3600  1.9913 -0.2378
   72MOL0     H 9714   5.310   5.770  10.490  0.1865 -2.3480  1.1763
   72MOL0     H 9715   5.415   5.800  10.636  1.8961  1.2785 -1.8293
   72MOL0     H 9716   5.516   5.991  10.525  1.8273 -2.2058 -0.0874
   72MOL0     H 9717   5.417   5.959  10.377 -4.3800  0.9376  2.5174
   72MOL0     H 9718   5.784   5.719  10.418  1.2422  2.9412  0.0916
   72MOL0     H 9719   4.969   5.825  10.602  2.4804  1.8238 -1.2482
   72MOL0     H 9720   4.829   5.627  10.517 -0.4416 -2.3706 -1.5310
   73MOL0     O 9721   5.563  10.490   6.603  0.7214  0.1184 -0.5070
   73MOL0     C 9722   5.446  10.512   6.603  1.0242 -0.8608 -0.2678
   73MOL0     O 9723   5.371  10.551   6.716 -0.0601 -0.2481  0.1559
   73MOL0     C 9724   5.428  10.641   6.806 -0.1418  0.7808 -0.0239
   73MOL0     C 9725   5.362  10.650   6.924 -0.3346 -0.0956  0.6094
   73MOL0     C 9726   5.402  10.746   7.019 -0.3707  0.8181 -0.0815
   73MOL0     C 9727   5.520  10.822   7.005  0.2244  0.8211 -0.4099
   73MOL0     O 9728   5.576  10.908   7.102 -0.0241  0.0556 -0.0217
   73MOL0     C 9729   5.505  10.917   7.224 -0.5086  0.1923  0.1123
   73MOL0     C 9730   5.563  11.040   7.293  0.5648 -0.4648 -0.1858
   73MOL0     C 9731   5.718  11.053   7.302  0.3210  0.6825 -0.6503
   73MOL0     C 9732   5.759  11.192   7.352 -1.0870  0.7021 -0.2838
   73MOL0     C 9733   5.893  11.240   7.304 -0.0241 -0.0655 -0.9153
   73MOL0     C 9734   5.935  11.372   7.356  0.7124 -0.5959  0.0199
   73MOL0     C 9735   6.078  11.410   7.327 -1.0274  0.0489 -0.4816
   73MOL0     C 9736   6.097  11.557   7.362 -0.0760  0.2877 -0.4075
   73MOL0     N 9737   6.244  11.595   7.367  0.3961  1.0062  0.0181
   73MOL0     C 9738   6.324  11.583   7.478 -0.3234 -0.0589 -0.3757
   73MOL0     C 9739   6.439  11.645   7.446 -0.7692 -0.1263  1.1669
   73MOL0     C 9740   6.545  11.668   7.540 -0.0522 -0.8134 -0.5878
   73MOL0     C 9741   6.503  11.752   7.671  0.1138  1.3184  0.6779
   73MOL0     C 9742   6.418  11.876   7.650  0.1283  0.0774  0.5004
   73MOL0     C 9743   6.467  11.982   7.544  0.5985 -0.0027 -0.0582
   73MOL0     O 9744   6.388  12.101   7.549  0.0825  0.4095  0.0008
   73MOL0     C 9745   6.286  12.123   7.462  0.2237 -0.0122  0.6225
   73MOL0     C 9746   6.237  12.253   7.442 -0.5239  0.7475 -0.5101
   73MOL0     C 9747   6.123  12.279   7.362  0.9340  0.0973 -0.9022
   73MOL0     C 9748   6.084  12.423   7.367 -0.4228  0.5126 -0.0960
   73MOL0     C 9749   6.054  12.169   7.306 -0.5062 -0.1141 -0.1790
   73MOL0     C 9750   5.928  12.171   7.239  0.2601  0.9564 -0.0596
   73MOL0     O 9751   5.929  12.078   7.132 -0.5774 -0.5679 -0.3582
   73MOL0     C 9752   5.821  12.081   7.042 -0.2912 -0.5617  0.9671
   73MOL0     C 9753   5.765  11.955   7.009 -0.0082  0.4038  0.3659
   73MOL0     C 9754   5.663  11.934   6.921 -0.5377  0.4048  0.0825
   73MOL0     C 9755   5.604  12.053   6.863 -0.1401 -0.7332  0.2139
   73MOL0     O 9756   5.491  12.034   6.789  1.3533  0.0485  0.0958
   73MOL0     C 9757   5.491  12.048   6.652 -0.1049  0.1077  0.1996
   73MOL0     C 9758   5.509  11.915   6.589 -0.3621  0.9271 -1.2299
   73MOL0     C 9759   5.510  11.926   6.443 -0.0279  0.5686  0.6947
   73MOL0     C 9760   5.434  11.809   6.363 -0.1994 -1.0778 -0.2574
   73MOL0     C 9761   5.498  11.669   6.398  1.0121 -0.3655 -0.8905
   73MOL0     C 9762   5.451  11.561   6.305  0.4993 -0.0502  1.3787
   73MOL0     C 9763   5.518  11.429   6.347  0.3152  0.4284  0.4277
   73MOL0     C 9764   5.481  11.313   6.259 -0.1412  0.3294  0.0810
   73MOL0    Cl 9765   5.528  11.329   6.089  0.1549 -0.2353 -0.3003
   73MOL0     C 9766   5.666  12.177   6.878 -0.8389 -0.0633  0.5812
   73MOL0     C 9767   5.768  12.192   6.975  0.4022 -0.2575 -0.4041
   73MOL0     O 9768   5.834  12.242   7.277  0.0502  0.3689 -0.3780
   73MOL0     C 9769   6.101  12.039   7.334 -0.0846 -0.3425  0.4482
   73MOL0     C 9770   6.212  12.025   7.402 -0.2113 -0.0587  0.2087
   73MOL0     N 9771   6.427  11.692   7.319 -0.0835 -0.7660  1.0371
   73MOL0     N 9772   6.316  11.663   7.268  0.6078 -0.0353 -0.4650
   73MOL0     C 9773   5.588  10.792   6.890 -0.3975 -0.5623 -0.7540
   73MOL0     C 9774   5.539  10.710   6.790  0.4233 -0.1451 -0.0412
   73MOL0     C 9775   5.370  10.479   6.490 -0.3416  0.2315  0.5623
   73MOL0     C 9776   5.231  10.466   6.501  0.3492  0.0364  0.7917
   73MOL0     C 9777   5.165  10.415   6.386 -0.1866 -0.8418  0.1144
   73MOL0     C 9778   5.232  10.381   6.264 -0.1571  0.1018  0.2115
   73MOL0     O 9779   5.178  10.323   6.157 -0.1330  0.5436  0.2919
   73MOL0     C 9780   5.040  10.305   6.155  0.4199  0.1364 -0.6510
   73MOL0     C 9781   4.988  10.309   6.020  1.4562 -1.2212  0.3915
   73MOL0     C 9782   5.021  10.433   5.944 -1.5524  0.2453  1.0694
   73MOL0     C 9783   5.030  10.566   6.014 -0.5395 -0.1147 -0.8613
   73MOL0     C 9784   4.897  10.596   6.074 -0.2644 -0.3605 -0.6757
   73MOL0     C 9785   4.791  10.644   6.120 -0.4031  0.3533 -0.7136
   73MOL0     C 9786   5.370  10.377   6.263  0.8880 -0.4646 -0.1692
   73MOL0     C 9787   5.434  10.434   6.371 -0.3016 -0.0770 -0.1460
   73MOL0     H 9788   5.268  10.596   6.934 -1.2403  1.3942  0.3970
   73MOL0     H 9789   5.362  10.759   7.118  3.4297  0.6318  1.6683
   73MOL0     H 9790   5.396  10.922   7.220 -0.4352  0.7539 -2.4652
   73MOL0     H 9791   5.515  10.827   7.286 -0.6475 -0.7386 -1.1694
   73MOL0     H 9792   5.517  11.127   7.244 -1.2320 -0.1411  1.8978
   73MOL0     H 9793   5.527  11.043   7.397  2.4816  4.1420  0.6167
   73MOL0     H 9794   5.756  10.969   7.361 -3.2752 -1.9151 -1.6708
   73MOL0     H 9795   5.744  11.042   7.197 -2.8380 -1.8935 -1.3388
   73MOL0     H 9796   5.700  11.276   7.314 -0.0758  1.5061 -0.1381
   73MOL0     H 9797   5.757  11.186   7.461  0.9477 -2.4538 -0.2861
   73MOL0     H 9798   5.971  11.171   7.338  1.2844  1.8664  0.2297
   73MOL0     H 9799   5.897  11.231   7.195  1.7735 -0.8738 -0.8058
   73MOL0     H 9800   5.876  11.452   7.311  1.1069 -0.2839  0.0474
   73MOL0     H 9801   5.921  11.374   7.464 -0.2239  0.9934 -0.0941
   73MOL0     H 9802   6.149  11.345   7.379 -0.3445  0.9462 -0.2727
   73MOL0     H 9803   6.099  11.403   7.220  0.6158 -1.5667 -0.1077
   73MOL0     H 9804   6.054  11.588   7.457 -1.2968  2.8172 -1.6805
   73MOL0     H 9805   6.056  11.630   7.290  0.0579  2.8436  1.9525
   73MOL0     H 9806   6.308  11.537   7.575  0.2916 -0.9034 -0.6623
   73MOL0     H 9807   6.590  11.574   7.572 -2.7036 -1.4613  1.6304
   73MOL0     H 9808   6.629  11.723   7.497  0.6100 -1.1899  0.1909
   73MOL0     H 9809   6.592  11.775   7.731  2.6090  1.4738 -2.7775
   73MOL0     H 9810   6.437  11.682   7.722  0.2893  1.0580  0.5480
   73MOL0     H 9811   6.412  11.932   7.744  0.5798  0.9680  0.0230
   73MOL0     H 9812   6.316  11.845   7.627  0.6758 -1.4612  0.0885
   73MOL0     H 9813   6.454  11.929   7.449 -0.2814 -2.2256  1.2223
   73MOL0     H 9814   6.575  11.998   7.553  0.2766  1.6409  1.2769
   73MOL0     H 9815   6.299  12.320   7.500 -2.3979  0.7647  1.6536
   73MOL0     H 9816   6.056  12.465   7.270  1.5751  0.2131 -0.8344
   73MOL0     H 9817   5.987  12.427   7.418  0.4300  0.6585  1.5730
   73MOL0     H 9818   6.151  12.491   7.420  1.1484  1.1878 -2.7862
   73MOL0     H 9819   5.804  11.871   7.065 -5.4963 -3.2195 -0.4678
   73MOL0     H 9820   5.610  11.839   6.920  1.2623 -0.6299 -1.2987
   73MOL0     H 9821   5.414  12.111   6.607  0.5096 -1.2891 -3.0943
   73MOL0     H 9822   5.580  12.103   6.622  0.9537 -2.5045 -1.8616
   73MOL0     H 9823   5.596  11.857   6.622 -1.6742 -0.1827  0.4579
   73MOL0     H 9824   5.416  11.858   6.606 -0.2395  0.6133 -1.5846
   73MOL0     H 9825   5.611  11.939   6.404 -0.3573 -1.4940 -1.0596
   73MOL0     H 9826   5.456  12.019   6.422 -1.8559 -0.5436  0.2404
   73MOL0     H 9827   5.327  11.810   6.384 -0.0981  0.1663  0.2723
   73MOL0     H 9828   5.443  11.840   6.258 -0.8468  4.0382  0.9521
   73MOL0     H 9829   5.480  11.640   6.502  1.8583 -3.0977 -1.4116
   73MOL0     H 9830   5.606  11.683   6.405  0.4189  6.5531  2.1506
   73MOL0     H 9831   5.341  11.561   6.310  0.2693 -3.5638 -0.3998
   73MOL0     H 9832   5.456  11.591   6.200 -0.2358  1.5408  1.7509
   73MOL0     H 9833   5.508  11.404   6.453 -0.7569 -1.1310  0.0056
   73MOL0     H 9834   5.621  11.460   6.331  0.0368  0.5043 -1.3838
   73MOL0     H 9835   5.375  11.287   6.248 -0.1291 -1.3984  3.0948
   73MOL0     H 9836   5.530  11.227   6.304  0.0195 -0.4768 -1.5724
   73MOL0     H 9837   5.622  12.266   6.833 -0.0017 -0.9225 -2.1111
   73MOL0     H 9838   5.812  12.288   6.997  1.2092 -0.7263  0.0543
   73MOL0     H 9839   6.043  11.954   7.301  0.5444 -1.0845  1.1918
   73MOL0     H 9840   6.235  11.925   7.436  0.3536 -0.0193 -0.0546
   73MOL0     H 9841   5.681  10.846   6.877 -1.0134  0.2488 -1.9637
   73MOL0     H 9842   5.598  10.696   6.700  1.1773  2.6646 -0.0985
   73MOL0     H 9843   5.163  10.515   6.571 -1.0626 -0.3870 -0.2359
   73MOL0     H 9844   5.058  10.424   6.396  0.0599  1.1843  1.7295
   73MOL0     H 9845   5.020  10.206   6.197  1.1533 -0.9037 -2.5953
   73MOL0     H 9846   4.990  10.381   6.215  1.1195 -0.4489  0.7349
   73MOL0     H 9847   4.880  10.320   6.030  1.6742 -0.4554  2.3258
   73MOL0     H 9848   5.017  10.221   5.962 -2.9960 -0.0861 -4.2534
   73MOL0     H 9849   4.940  10.442   5.871 -0.1882 -0.5841 -0.6274
   73MOL0     H 9850   5.113  10.414   5.887 -0.0236  0.9731  3.1523
   73MOL0     H 9851   5.039  10.644   5.938  1.2071 -2.8711 -3.7265
   73MOL0     H 9852   5.106  10.570   6.093 -0.5552 -2.2447 -0.6758
   73MOL0     H 9853   4.696  10.663   6.166  0.4071  1.7486  0.4706
   73MOL0     H 9854   5.421  10.346   6.172 -0.3449 -0.6153 -0.8232
   73MOL0     H 9855   5.542  10.446   6.362 -0.2848 -1.6446 -4.0252
   74MOL0     O 9856   8.682   1.545  10.215 -0.3300  0.0767 -0.1644
   74MOL0     C 9857   8.622   1.640  10.157 -0.2556 -0.0923  0.9389
   74MOL0     O 9858   8.529   1.720  10.222 -0.0120 -0.2222  0.4305
   74MOL0     C 9859   8.534   1.712  10.362  0.0488 -0.5672  0.4409
   74MOL0     C 9860   8.619   1.794  10.433  0.2572 -0.4260 -0.4767
   74MOL0     C 9861   8.609   1.806  10.573 -0.0584 -0.3713 -0.9958
   74MOL0     C 9862   8.528   1.709  10.638  0.7844  0.9991 -0.7494
   74MOL0     O 9863   8.516   1.685  10.769  0.0272 -0.6658 -0.0372
   74MOL0     C 9864   8.577   1.784  10.858  0.3364 -0.7434 -0.1492
   74MOL0     C 9865   8.571   1.737  11.006 -0.1147 -0.0968  0.6432
   74MOL0     C 9866   8.707   1.773  11.076 -1.0277 -0.2287 -1.1458
   74MOL0     C 9867   8.681   1.762  11.231  0.6959 -0.5803  0.1053
   74MOL0     C 9868   8.800   1.774  11.331 -0.5950 -0.2122  0.5313
   74MOL0     C 9869   8.854   1.918  11.325 -0.3808 -0.2028 -0.0612
   74MOL0     C 9870   8.983   1.940  11.405  0.1833  0.0151 -0.0329
   74MOL0     C 9871   9.042   2.078  11.386  0.6184 -0.2523  0.7228
   74MOL0     N 9872   9.183   2.061  11.415 -0.0300  0.6188  0.0130
   74MOL0     C 9873   9.263   2.015  11.311  0.1826  0.0626  0.0766
   74MOL0     C 9874   9.388   1.990  11.358 -0.7580  1.0405 -0.4733
   74MOL0     C 9875   9.499   1.938  11.259 -0.4147  1.2394 -0.5912
   74MOL0     C 9876   9.484   1.787  11.224  1.1533  0.0286 -0.1825
   74MOL0     C 9877   9.556   1.735  11.101  0.2859 -0.6296 -1.1047
   74MOL0     C 9878   9.698   1.779  11.113  0.4739  1.0053  0.2650
   74MOL0     O 9879   9.743   1.753  10.986 -0.5207 -1.0207  0.2687
   74MOL0     C 9880   9.874   1.782  10.957  0.7962  0.3878  0.3068
   74MOL0     C 9881   9.938   1.899  11.000 -0.4206 -0.3693 -0.1093
   74MOL0     C 9882  10.056   1.946  10.950 -0.7231 -0.5241 -0.0889
   74MOL0     C 9883  10.119   2.071  11.004 -0.0906 -0.2295 -0.7369
   74MOL0     C 9884  10.126   1.863  10.849  1.2519 -0.3827 -0.1633
   74MOL0     C 9885  10.254   1.899  10.786 -0.2001 -0.7645 -0.9866
   74MOL0     O 9886  10.332   1.797  10.759 -0.7610  0.6314 -0.6347
   74MOL0     C 9887  10.452   1.790  10.694  0.3084 -0.1335 -0.5244
   74MOL0     C 9888  10.503   1.659  10.691  0.2470  0.0344 -0.2581
   74MOL0     C 9889  10.622   1.638  10.634  0.0437  0.4228 -0.0957
   74MOL0     C 9890  10.702   1.744  10.590 -0.1659 -1.4273 -0.1120
   74MOL0     O 9891  10.829   1.724  10.557 -0.5553 -0.0263 -0.1855
   74MOL0     C 9892  10.918   1.693  10.667  0.1925 -0.3612 -0.7112
   74MOL0     C 9893  10.924   1.814  10.758  0.1725  0.0988  0.0246
   74MOL0     C 9894  11.051   1.808  10.849  0.9953  0.4874 -0.8384
   74MOL0     C 9895  11.048   1.889  10.972  0.2835  0.0833 -0.4575
   74MOL0     C 9896  11.098   2.030  10.941 -0.5682 -0.9650 -0.8241
   74MOL0     C 9897  11.102   2.099  11.076  0.1186  0.1809 -0.1032
   74MOL0     C 9898  11.146   2.247  11.064  0.2037 -0.1875  0.6433
   74MOL0     C 9899  11.157   2.314  11.196 -0.4202  1.1877  0.3665
   74MOL0    Cl 9900  10.988   2.328  11.264  0.7688  0.0938 -0.1992
   74MOL0     C 9901  10.657   1.872  10.599 -0.2897  0.0763  0.1967
   74MOL0     C 9902  10.521   1.899  10.630 -0.4563  0.9388  0.4512
   74MOL0     O 9903  10.280   2.015  10.747  0.6302  0.0346  0.2468
   74MOL0     C 9904  10.057   1.744  10.807 -0.2384 -0.1154  0.1986
   74MOL0     C 9905   9.935   1.700  10.867  0.5933  0.2881 -0.4626
   74MOL0     N 9906   9.385   2.024  11.496 -0.1814  0.1074  0.3583
   74MOL0     N 9907   9.265   2.064  11.529  0.1035  0.5024  0.2584
   74MOL0     C 9908   8.452   1.618  10.563 -0.3044  0.0382  0.2446
   74MOL0     C 9909   8.452   1.622  10.425 -0.2559  0.9424  1.0227
   74MOL0     C 9910   8.626   1.660  10.011 -0.3448  0.5143 -0.8711
   74MOL0     C 9911   8.579   1.780   9.954  0.5070  0.4512 -0.1257
   74MOL0     C 9912   8.583   1.806   9.817  0.7652 -0.5224  0.8940
   74MOL0     C 9913   8.656   1.717   9.735  0.6095  0.4530  0.6261
   74MOL0     O 9914   8.699   1.751   9.607  0.1605 -0.1484  0.7602
   74MOL0     C 9915   8.617   1.843   9.537 -0.1791 -0.1958 -0.9735
   74MOL0     C 9916   8.615   1.820   9.378 -0.1679 -0.5755 -0.8608
   74MOL0     C 9917   8.748   1.778   9.316 -0.1275  0.0411  0.6716
   74MOL0     C 9918   8.776   1.857   9.198 -0.5799 -0.3548  0.1705
   74MOL0     C 9919   8.805   1.996   9.220 -0.0856  0.2474  0.8738
   74MOL0     C 9920   8.867   2.104   9.234  1.8926  0.6706  0.0659
   74MOL0     C 9921   8.712   1.600   9.794  0.5275 -0.0142  0.6891
   74MOL0     C 9922   8.689   1.569   9.927  0.9767  0.2111  0.7593
   74MOL0     H 9923   8.697   1.847  10.380  0.9375  0.5232  1.3774
   74MOL0     H 9924   8.661   1.886  10.625 -0.6670 -0.0183 -0.9175
   74MOL0     H 9925   8.683   1.785  10.831 -0.0046 -1.8034 -1.6426
   74MOL0     H 9926   8.524   1.879  10.856  0.8655 -0.4139  0.8155
   74MOL0     H 9927   8.487   1.792  11.050 -2.3030 -0.1906 -3.0101
   74MOL0     H 9928   8.537   1.634  11.017 -4.8821  1.4132  2.9676
   74MOL0     H 9929   8.777   1.698  11.040  0.7976  1.1918 -0.7236
   74MOL0     H 9930   8.746   1.874  11.058 -1.9540  0.6243  1.1902
   74MOL0     H 9931   8.607   1.838  11.260 -1.5782 -2.5824 -0.1511
   74MOL0     H 9932   8.632   1.665  11.239  0.0970 -0.3474 -0.6441
   74MOL0     H 9933   8.777   1.742  11.432 -1.2585  0.3405  0.5696
   74MOL0     H 9934   8.873   1.703  11.291  0.7579  0.8705  0.9880
   74MOL0     H 9935   8.880   1.941  11.221 -0.3235  0.6127  0.1265
   74MOL0     H 9936   8.766   1.976  11.351 -0.1384  1.5345 -2.7125
   74MOL0     H 9937   8.963   1.929  11.513  0.8094 -1.9304 -0.0752
   74MOL0     H 9938   9.051   1.859  11.379 -1.8108 -2.2207  1.2347
   74MOL0     H 9939   8.997   2.147  11.459  1.8826  0.6223  0.7085
   74MOL0     H 9940   9.020   2.121  11.288  2.7220 -2.1906 -0.6839
   74MOL0     H 9941   9.242   1.985  11.209  1.0329  1.0878 -0.4134
   74MOL0     H 9942   9.485   2.000  11.170  2.4833  2.5360 -0.2658
   74MOL0     H 9943   9.597   1.968  11.296 -0.7808  1.2310  0.4132
   74MOL0     H 9944   9.380   1.762  11.204  0.7388  2.3177 -1.2110
   74MOL0     H 9945   9.516   1.734  11.314 -2.6092  2.1577  2.7096
   74MOL0     H 9946   9.499   1.759  11.011  1.3960 -0.2918 -1.7235
   74MOL0     H 9947   9.567   1.626  11.097  0.8436 -0.6384  0.1283
   74MOL0     H 9948   9.756   1.715  11.180 -0.9987 -1.8768 -1.0489
   74MOL0     H 9949   9.710   1.887  11.124 -4.6036  1.6598  2.1298
   74MOL0     H 9950   9.898   1.952  11.086  1.2930 -0.3525  0.7323
   74MOL0     H 9951  10.198   2.041  11.074 -2.8602 -0.7676  2.3893
   74MOL0     H 9952  10.159   2.136  10.925 -0.7255 -1.2318 -1.9253
   74MOL0     H 9953  10.042   2.125  11.059  1.5532  1.5578 -0.0685
   74MOL0     H 9954  10.446   1.575  10.730  0.4661 -1.1550 -2.3732
   74MOL0     H 9955  10.656   1.535  10.626 -2.3071 -0.3938 -0.5942
   74MOL0     H 9956  10.875   1.605  10.716  1.6370 -0.9287 -0.4012
   74MOL0     H 9957  11.018   1.669  10.628  0.7524  2.3186 -1.1249
   74MOL0     H 9958  10.929   1.902  10.692  0.5446  0.3317  0.3581
   74MOL0     H 9959  10.844   1.815  10.831 -0.0774  1.9405 -0.2231
   74MOL0     H 9960  11.145   1.828  10.796  0.8579  2.0444 -0.5413
   74MOL0     H 9961  11.056   1.703  10.880 -3.6848  0.5248  0.8924
   74MOL0     H 9962  10.948   1.884  11.016  0.2933 -0.8361 -0.5193
   74MOL0     H 9963  11.114   1.838  11.043  1.7554  0.9701 -1.1390
   74MOL0     H 9964  11.038   2.086  10.869 -0.1149  0.3525 -0.2115
   74MOL0     H 9965  11.199   2.027  10.900  0.6096  2.7319  1.3317
   74MOL0     H 9966  11.001   2.092  11.117  0.8227  0.5136  1.7801
   74MOL0     H 9967  11.171   2.052  11.147  2.0224  1.3275 -1.1093
   74MOL0     H 9968  11.078   2.302  10.998  0.7475 -1.2213 -0.8461
   74MOL0     H 9969  11.243   2.240  11.014  0.9186  3.0694  1.3224
   74MOL0     H 9970  11.205   2.411  11.182  1.7401  0.0807 -0.4520
   74MOL0     H 9971  11.225   2.264  11.266  1.4578  2.1842 -0.6734
   74MOL0     H 9972  10.725   1.953  10.574  0.7321 -1.0359 -0.6764
   74MOL0     H 9973  10.481   2.000  10.631 -1.1654  0.7857 -2.5608
   74MOL0     H 9974  10.092   1.677  10.729 -0.2674 -2.8070  2.3442
   74MOL0     H 9975   9.878   1.618  10.825  1.3015 -0.9816  0.9974
   74MOL0     H 9976   8.394   1.547  10.621  1.6409 -0.3739  1.8049
   74MOL0     H 9977   8.380   1.560  10.372 -0.1985 -1.1015  3.1608
   74MOL0     H 9978   8.545   1.862  10.016  0.8325  1.4109 -1.1756
   74MOL0     H 9979   8.557   1.906   9.783 -3.3857 -1.4574  0.8148
   74MOL0     H 9980   8.514   1.846   9.574 -0.2205 -2.2608 -0.8257
   74MOL0     H 9981   8.662   1.940   9.556 -1.9508  0.0985  2.6797
   74MOL0     H 9982   8.583   1.915   9.334  1.1964  1.8752  2.8445
   74MOL0     H 9983   8.540   1.746   9.350 -0.5066 -1.3453  1.8029
   74MOL0     H 9984   8.741   1.671   9.294  1.4293 -0.0679  0.6058
   74MOL0     H 9985   8.829   1.794   9.388 -0.1663 -0.0338  0.7340
   74MOL0     H 9986   8.703   1.845   9.118 -0.0816 -1.5360 -0.1353
   74MOL0     H 9987   8.867   1.817   9.154 -0.3717  3.0326 -2.8795
   74MOL0     H 9988   8.906   2.200   9.261  0.5419  0.8153  1.5985
   74MOL0     H 9989   8.788   1.541   9.745  0.1644  0.1268 -0.0567
   74MOL0     H 9990   8.742   1.482   9.962  2.7114  1.4435  1.3134
   75MOL0     O 9991   7.638   1.749   4.251 -0.2339 -0.1862  0.3629
   75MOL0     C 9992   7.591   1.646   4.204 -1.1898 -0.4092 -0.4307
   75MOL0     O 9993   7.654   1.531   4.179  0.1146  0.3787 -0.2606
   75MOL0     C 9994   7.783   1.520   4.192  0.0141 -0.1612  0.5383
   75MOL0     C 9995   7.856   1.474   4.084 -0.6217  0.3450 -0.6679
   75MOL0     C 9996   8.002   1.461   4.092  0.2380 -0.4172  0.2802
   75MOL0     C 9997   8.071   1.506   4.207  0.7043  0.5328  0.7187
   75MOL0     O 9998   8.205   1.518   4.209  0.1187  0.2986  0.4058
   75MOL0     C 9999   8.288   1.432   4.131 -0.0673 -0.9253  0.4194
   75MOL0     C10000   8.434   1.465   4.162 -0.2696  0.5197  1.3512
   75MOL0     C10001   8.539   1.354   4.113  0.2074  0.1878 -0.7373
   75MOL0     C10002   8.678   1.404   4.155 -0.6992 -0.0840 -0.5277
   75MOL0     C10003   8.788   1.329   4.089  0.5148 -0.2762 -0.5098
   75MOL0     C10004   8.927   1.400   4.094 -0.6289  0.0773  0.5796
   75MOL0     C10005   9.025   1.308   4.013  0.6098  0.4993 -0.4946
   75MOL0     C10006   9.165   1.363   4.045 -0.3719 -0.1304 -0.5282
   75MOL0     N10007   9.262   1.342   3.943 -0.9267 -0.0188  0.2743
   75MOL0     C10008   9.279   1.226   3.870 -0.1842  0.5486 -0.8084
   75MOL0     C10009   9.404   1.223   3.818 -0.4963 -0.4812  0.0301
   75MOL0     C10010   9.476   1.112   3.742 -0.2975 -0.2990 -1.0234
   75MOL0     C10011   9.422   1.089   3.604  0.4559 -0.0608  0.0479
   75MOL0     C10012   9.494   0.970   3.533 -0.0076 -0.4632 -0.0027
   75MOL0     C10013   9.426   0.928   3.406 -0.4274  0.0063 -0.9610
   75MOL0     O10014   9.499   0.843   3.317  0.1586 -0.9733 -0.2331
   75MOL0     C10015   9.456   0.810   3.190 -0.0900  0.1649  0.3619
   75MOL0     C10016   9.541   0.725   3.120  0.4334 -0.1636  0.4802
   75MOL0     C10017   9.507   0.698   2.985 -0.0872  0.0218  0.3103
   75MOL0     C10018   9.594   0.591   2.930 -0.4742 -0.0720 -0.1860
   75MOL0     C10019   9.400   0.763   2.918 -0.0528  0.2126  1.1177
   75MOL0     C10020   9.369   0.758   2.771 -0.3018 -0.3752 -0.3720
   75MOL0     O10021   9.301   0.862   2.727  0.2258  0.0515 -0.6249
   75MOL0     C10022   9.203   0.851   2.632  0.5145 -0.1758 -0.4714
   75MOL0     C10023   9.146   0.971   2.594  0.1498  0.3205 -0.1294
   75MOL0     C10024   9.036   0.984   2.504  0.4219  0.1909  0.5998
   75MOL0     C10025   8.980   0.865   2.452 -0.0030  0.7181  0.2786
   75MOL0     O10026   8.884   0.855   2.354  0.1787  0.5033  0.3779
   75MOL0     C10027   8.922   0.916   2.232  0.2602 -0.0255 -0.0061
   75MOL0     C10028   8.805   0.895   2.132 -0.1396 -0.9107  0.7555
   75MOL0     C10029   8.770   0.744   2.105 -0.5830 -0.3630  0.6783
   75MOL0     C10030   8.637   0.713   2.152  0.0754 -0.3847  0.6764
   75MOL0     C10031   8.602   0.569   2.110 -0.8752 -0.5325  0.1314
   75MOL0     C10032   8.469   0.534   2.177 -0.1552  1.0655 -0.2972
   75MOL0     C10033   8.424   0.387   2.163  0.7118 -0.4422 -0.4419
   75MOL0     C10034   8.267   0.374   2.168 -0.4504  0.0991  0.3101
   75MOL0    Cl10035   8.198   0.401   2.003 -0.3106  0.2177 -0.2342
   75MOL0     C10036   9.051   0.744   2.492 -0.7395 -0.2033  0.7440
   75MOL0     C10037   9.154   0.737   2.580  0.5039  0.8196  0.0150
   75MOL0     O10038   9.404   0.670   2.697 -0.1000 -0.0543 -0.0320
   75MOL0     C10039   9.320   0.843   2.994  0.5044  0.3618  0.2627
   75MOL0     C10040   9.340   0.860   3.133  1.3650  0.2069  0.1214
   75MOL0     N10041   9.459   1.340   3.856  0.2237  0.5153 -0.5085
   75MOL0     N10042   9.380   1.410   3.926 -0.0460 -0.0285  0.1673
   75MOL0     C10043   7.993   1.558   4.308 -0.0677 -0.5594  0.1787
   75MOL0     C10044   7.857   1.570   4.305 -0.4997 -0.2790 -0.3658
   75MOL0     C10045   7.457   1.666   4.147  0.3848 -0.1263 -0.3490
   75MOL0     C10046   7.400   1.794   4.136  0.1992  0.3811  0.1311
   75MOL0     C10047   7.273   1.799   4.073 -0.3867 -0.4108 -0.1417
   75MOL0     C10048   7.209   1.683   4.021  0.4978 -1.2841 -1.2346
   75MOL0     O10049   7.096   1.669   3.950  0.2643 -0.3372  0.4920
   75MOL0     C10050   7.026   1.793   3.921  0.8542 -0.3134 -0.6059
   75MOL0     C10051   6.978   1.789   3.778 -0.2783  0.3861  0.4852
   75MOL0     C10052   7.087   1.764   3.676 -0.2004  0.8827 -0.5757
   75MOL0     C10053   7.185   1.873   3.650 -0.4998 -0.8815  0.3443
   75MOL0     C10054   7.109   1.976   3.573 -0.5428  0.7662  0.2838
   75MOL0     C10055   7.054   2.071   3.520  0.2887 -0.1116  0.6576
   75MOL0     C10056   7.273   1.560   4.045 -0.3871 -0.1179  0.4855
   75MOL0     C10057   7.392   1.552   4.114 -0.7350  1.2060  0.3439
   75MOL0     H10058   7.809   1.445   3.991 -2.5088  1.2911 -0.0565
   75MOL0     H10059   8.034   1.410   4.002 -4.4127 -1.4031 -1.0864
   75MOL0     H10060   8.259   1.327   4.142 -2.7715 -0.0551  2.7140
   75MOL0     H10061   8.273   1.439   4.023 -1.3677 -1.8265  0.5334
   75MOL0     H10062   8.458   1.562   4.118 -2.1678 -0.0472 -1.1745
   75MOL0     H10063   8.438   1.479   4.271 -2.3344 -0.8008  1.6536
   75MOL0     H10064   8.525   1.263   4.172  0.1415  0.4123 -0.3993
   75MOL0     H10065   8.526   1.318   4.011 -0.8833 -0.6334 -0.3357
   75MOL0     H10066   8.688   1.506   4.119 -0.1851 -0.1852 -0.6842
   75MOL0     H10067   8.695   1.394   4.263  5.3005 -3.3533 -1.3266
   75MOL0     H10068   8.783   1.228   4.129 -0.5704  0.5666  1.6861
   75MOL0     H10069   8.763   1.328   3.983  3.0278 -1.3215 -1.1452
   75MOL0     H10070   8.904   1.492   4.040 -3.4799 -1.7505 -1.5872
   75MOL0     H10071   8.955   1.421   4.198 -2.2361 -1.6608  1.4379
   75MOL0     H10072   9.016   1.204   4.044 -1.4526  0.9281  0.5427
   75MOL0     H10073   9.001   1.310   3.906  2.9158 -2.0000 -1.1540
   75MOL0     H10074   9.196   1.307   4.133 -1.5386  0.8633  0.5454
   75MOL0     H10075   9.179   1.469   4.070  2.0787 -0.4028 -0.4523
   75MOL0     H10076   9.199   1.152   3.869 -3.2839  3.6078  0.5579
   75MOL0     H10077   9.582   1.134   3.727 -0.5079  1.4317 -0.2670
   75MOL0     H10078   9.475   1.026   3.809  0.3014  0.6196  0.2040
   75MOL0     H10079   9.438   1.188   3.561 -3.3271  1.4299  1.6946
   75MOL0     H10080   9.314   1.074   3.599 -0.0463  2.5007  1.3663
   75MOL0     H10081   9.500   0.891   3.608 -3.2979 -0.0894  0.7854
   75MOL0     H10082   9.600   0.989   3.516  0.5322 -1.8035  1.5732
   75MOL0     H10083   9.415   1.025   3.357  1.4842 -0.1343 -1.7606
   75MOL0     H10084   9.330   0.877   3.424  0.1178 -1.3352 -1.7029
   75MOL0     H10085   9.623   0.671   3.164  2.0241  2.0022  0.3415
   75MOL0     H10086   9.544   0.500   2.897  2.0271 -2.1242  1.2927
   75MOL0     H10087   9.640   0.625   2.836 -0.6425 -0.8289 -0.5550
   75MOL0     H10088   9.680   0.563   2.992  0.1520  0.7866 -0.6450
   75MOL0     H10089   9.203   1.054   2.634 -0.8329  2.6658 -3.1908
   75MOL0     H10090   8.994   1.080   2.478 -0.4448  0.3278  2.3333
   75MOL0     H10091   8.921   1.024   2.249 -1.8304 -0.2816  1.9288
   75MOL0     H10092   9.022   0.879   2.207  1.0621  1.7233  0.4730
   75MOL0     H10093   8.722   0.941   2.185 -0.5805 -1.6150  0.6970
   75MOL0     H10094   8.827   0.949   2.039  3.7477 -0.6496  1.6553
   75MOL0     H10095   8.836   0.674   2.157  1.6541  1.3655  0.3724
   75MOL0     H10096   8.789   0.726   1.999  2.0373 -0.6457  1.1322
   75MOL0     H10097   8.637   0.707   2.261 -1.3378  0.8372  0.7663
   75MOL0     H10098   8.563   0.783   2.111 -1.7175 -2.2578  0.5349
   75MOL0     H10099   8.674   0.492   2.137  1.2007  1.8949  1.9745
   75MOL0     H10100   8.597   0.575   2.001  1.2648  0.9166  0.0583
   75MOL0     H10101   8.459   0.554   2.284  2.1861 -0.3168  0.2491
   75MOL0     H10102   8.390   0.597   2.134 -1.9205  0.6367  2.1062
   75MOL0     H10103   8.464   0.329   2.247  1.7591 -0.1104 -0.6913
   75MOL0     H10104   8.456   0.342   2.069 -0.7601  1.8793 -2.1617
   75MOL0     H10105   8.213   0.445   2.232  0.9068  1.4513  0.0123
   75MOL0     H10106   8.237   0.271   2.192  1.2430 -0.9975 -1.9482
   75MOL0     H10107   9.015   0.653   2.446  2.2796 -1.0007 -0.2367
   75MOL0     H10108   9.182   0.637   2.612 -0.1510  0.4513 -0.5313
   75MOL0     H10109   9.245   0.903   2.944  2.5201  1.8635 -1.1563
   75MOL0     H10110   9.266   0.928   3.173  3.5901  2.1718  1.1610
   75MOL0     H10111   8.038   1.595   4.401  2.3665 -0.3794 -0.9777
   75MOL0     H10112   7.813   1.612   4.395  2.9352 -1.0613  1.8708
   75MOL0     H10113   7.436   1.888   4.176  0.5340 -0.2839  1.4760
   75MOL0     H10114   7.240   1.901   4.060 -2.1872 -0.9657 -0.2984
   75MOL0     H10115   6.936   1.806   3.981  2.2224 -3.0136  2.3519
   75MOL0     H10116   7.087   1.883   3.933 -0.4066  0.4777  0.1314
   75MOL0     H10117   6.921   1.879   3.750 -0.6043  0.0313  0.0078
   75MOL0     H10118   6.911   1.704   3.767  0.8986 -0.5453  0.3666
   75MOL0     H10119   7.037   1.732   3.584 -0.8765 -0.8788  0.3622
   75MOL0     H10120   7.139   1.674   3.711 -0.0680  0.9506 -0.5956
   75MOL0     H10121   7.276   1.846   3.597  1.2628  0.2130  2.6283
   75MOL0     H10122   7.230   1.912   3.742 -1.4463 -3.6438  2.0864
   75MOL0     H10123   6.985   2.147   3.489  0.6932 -0.6031 -1.6916
   75MOL0     H10124   7.229   1.478   3.989 -0.4970  0.2428  0.0377
   75MOL0     H10125   7.436   1.455   4.132 -0.4302  0.5803 -3.0547
   76MOL0     O10126   6.625   9.050   6.316  0.4831 -0.0120  0.3500
   76MOL0     C10127   6.738   9.046   6.363 -0.3301 -0.2441 -0.4112
   76MOL0     O10128   6.837   9.128   6.336 -0.2821  0.1864  0.4579
   76MOL0     C10129   6.814   9.239   6.255 -0.5757 -0.2453  0.2814
   76MOL0     C10130   6.790   9.359   6.322 -0.7039  0.3291  0.9777
   76MOL0     C10131   6.754   9.483   6.254 -0.7054 -0.0197  0.2792
   76MOL0     C10132   6.745   9.493   6.121  1.0535 -0.1825  0.3046
   76MOL0     O10133   6.677   9.601   6.075 -0.2231 -0.0818 -0.7980
   76MOL0     C10134   6.740   9.693   5.970 -0.3551 -0.5852 -0.2437
   76MOL0     C10135   6.671   9.827   5.991  0.4384 -0.4871 -0.9562
   76MOL0     C10136   6.725   9.891   6.126 -0.1276 -0.7306  0.1253
   76MOL0     C10137   6.707  10.040   6.125 -0.7117  0.1648  0.5047
   76MOL0     C10138   6.766  10.097   6.255 -0.4900 -0.0493 -0.3686
   76MOL0     C10139   6.776  10.251   6.267  1.0292 -0.2262  0.9101
   76MOL0     C10140   6.633  10.307   6.274  0.4037 -1.2659  0.0373
   76MOL0     C10141   6.639  10.453   6.337 -0.1287 -0.1176 -0.5372
   76MOL0     N10142   6.612  10.551   6.237 -0.2161 -0.8662  0.5769
   76MOL0     C10143   6.501  10.631   6.219  0.3664 -0.2422  0.6746
   76MOL0     C10144   6.531  10.729   6.133 -0.6951  0.3631  0.7899
   76MOL0     C10145   6.435  10.835   6.099 -0.6222  1.3482  0.4021
   76MOL0     C10146   6.500  10.974   6.079  0.4141  0.2686 -1.7788
   76MOL0     C10147   6.407  11.094   6.119  0.2092 -0.4981 -0.2786
   76MOL0     C10148   6.295  11.109   6.010  0.1233  0.1181  0.6525
   76MOL0     O10149   6.348  11.183   5.896  0.1147 -0.5023 -0.3233
   76MOL0     C10150   6.286  11.165   5.779  0.2096  0.7576  0.6474
   76MOL0     C10151   6.339  11.214   5.662 -0.7555 -0.8248  0.5186
   76MOL0     C10152   6.274  11.229   5.536 -0.1424 -0.6469 -0.0125
   76MOL0     C10153   6.337  11.312   5.421  0.2635 -0.0660 -0.0553
   76MOL0     C10154   6.147  11.166   5.522 -0.6534  0.7291  0.2065
   76MOL0     C10155   6.075  11.132   5.393 -0.4228 -0.4670  0.3198
   76MOL0     O10156   6.014  11.016   5.388  0.1540 -0.1883 -0.1333
   76MOL0     C10157   5.963  10.977   5.262 -0.4175  0.7695  0.4152
   76MOL0     C10158   6.049  10.947   5.156 -0.1079  0.3077 -0.2130
   76MOL0     C10159   6.004  10.879   5.041 -1.6418  0.0173 -0.2309
   76MOL0     C10160   5.870  10.857   5.025 -0.4936  0.8268 -0.6037
   76MOL0     O10161   5.831  10.791   4.911  0.3748 -0.7061  0.5594
   76MOL0     C10162   5.701  10.806   4.865 -0.7973 -0.8753 -0.8140
   76MOL0     C10163   5.611  10.699   4.917  0.1360 -0.8370 -0.4870
   76MOL0     C10164   5.478  10.705   4.846 -0.0112 -0.7103 -0.7820
   76MOL0     C10165   5.427  10.563   4.814  0.4943 -1.1008  0.2038
   76MOL0     C10166   5.292  10.569   4.730  1.0175 -0.5511 -0.4421
   76MOL0     C10167   5.243  10.425   4.736  0.0952 -0.1234 -0.1239
   76MOL0     C10168   5.111  10.423   4.652  0.6137  0.3396  1.2679
   76MOL0     C10169   5.062  10.275   4.642 -0.2419 -1.0716 -0.1052
   76MOL0    Cl10170   5.196  10.154   4.600 -0.2674  0.0716  0.4380
   76MOL0     C10171   5.784  10.880   5.132 -0.8539 -0.0568  0.3813
   76MOL0     C10172   5.832  10.944   5.239  0.9327  0.1018 -0.1342
   76MOL0     O10173   6.069  11.223   5.313 -0.6456 -0.1076  0.5456
   76MOL0     C10174   6.106  11.093   5.634  0.7155  0.0862  0.6497
   76MOL0     C10175   6.166  11.097   5.760  0.0323 -0.5130 -1.5904
   76MOL0     N10176   6.667  10.712   6.107 -0.7622 -0.1744 -0.2269
   76MOL0     N10177   6.714  10.600   6.167 -0.4222 -0.6554  1.7765
   76MOL0     C10178   6.775   9.382   6.044  1.2762 -0.1669  0.4019
   76MOL0     C10179   6.800   9.252   6.112  0.4671  0.3564  0.3855
   76MOL0     C10180   6.774   8.946   6.467 -0.3470  1.3673 -0.7876
   76MOL0     C10181   6.713   8.818   6.487 -0.4310  0.5374 -0.1572
   76MOL0     C10182   6.751   8.734   6.594 -0.3463 -0.9822  0.2736
   76MOL0     C10183   6.846   8.775   6.692  0.0813 -0.2877  1.2709
   76MOL0     O10184   6.889   8.700   6.792  0.0191  0.4682  0.0176
   76MOL0     C10185   6.839   8.567   6.806  0.3785  0.5387  0.9333
   76MOL0     C10186   6.894   8.501   6.932 -1.6033 -0.2369  0.0418
   76MOL0     C10187   6.843   8.357   6.947 -0.9395  0.2207  0.0449
   76MOL0     C10188   6.792   8.336   7.087 -0.4506 -1.1697 -0.7438
   76MOL0     C10189   6.738   8.199   7.104  0.1553 -0.0346 -0.1852
   76MOL0     C10190   6.705   8.083   7.110  0.7280  0.7376 -0.1307
   76MOL0     C10191   6.903   8.901   6.676 -0.6882  0.5899 -0.1593
   76MOL0     C10192   6.866   8.986   6.573 -0.1455 -0.0095  0.1329
   76MOL0     H10193   6.826   9.363   6.424 -0.1188 -0.3727  0.8013
   76MOL0     H10194   6.725   9.566   6.317 -1.4176  1.8793 -2.4228
   76MOL0     H10195   6.847   9.689   5.995 -0.6292  0.9691  1.3762
   76MOL0     H10196   6.730   9.655   5.868  0.2259  2.1116 -1.3911
   76MOL0     H10197   6.689   9.892   5.905 -1.9495 -1.4250 -2.2444
   76MOL0     H10198   6.563   9.812   5.982  0.5964 -0.4085 -3.9247
   76MOL0     H10199   6.660   9.856   6.206 -2.0814 -0.4222 -1.2435
   76MOL0     H10200   6.831   9.876   6.149 -0.2466  1.1891  2.3213
   76MOL0     H10201   6.758  10.083   6.037 -0.1830  0.8143  1.1164
   76MOL0     H10202   6.603  10.074   6.121  0.0486  2.6565 -0.3214
   76MOL0     H10203   6.715  10.048   6.338 -0.4976  1.1765  0.3730
   76MOL0     H10204   6.872  10.073   6.271 -0.1947  2.2809  1.7488
   76MOL0     H10205   6.828  10.274   6.360 -1.0431  1.2539  1.7877
   76MOL0     H10206   6.828  10.283   6.176 -0.6283  0.8942  0.3012
   76MOL0     H10207   6.580  10.311   6.179 -2.0532 -0.9546  1.3367
   76MOL0     H10208   6.569  10.248   6.340 -1.3339 -0.5214 -0.9134
   76MOL0     H10209   6.735  10.478   6.383 -1.5496 -0.5399  2.9526
   76MOL0     H10210   6.570  10.468   6.420 -0.2832  1.9121 -0.9872
   76MOL0     H10211   6.409  10.621   6.275 -0.2349  4.4499  0.9254
   76MOL0     H10212   6.391  10.795   6.007 -0.6374 -1.8240  1.6654
   76MOL0     H10213   6.356  10.834   6.174 -0.0458  0.4098  1.0157
   76MOL0     H10214   6.549  10.986   5.982  2.0020 -2.3526 -1.3973
   76MOL0     H10215   6.581  10.980   6.152 -2.9750 -1.6540  2.5901
   76MOL0     H10216   6.477  11.177   6.136 -0.4373  0.1598 -0.7413
   76MOL0     H10217   6.362  11.076   6.217  0.7546 -0.8724 -0.0932
   76MOL0     H10218   6.221  11.172   6.059 -2.1665  0.3378 -2.6900
   76MOL0     H10219   6.247  11.012   5.996 -1.7492  0.7282  2.4042
   76MOL0     H10220   6.429  11.274   5.673  1.2784 -2.9286 -2.8498
   76MOL0     H10221   6.373  11.246   5.341  1.7710  0.9644 -0.2686
   76MOL0     H10222   6.261  11.379   5.381  1.2924  0.3260 -1.4622
   76MOL0     H10223   6.424  11.365   5.462 -0.3136  2.1326 -1.4742
   76MOL0     H10224   6.156  10.964   5.160 -0.0812 -0.0520  1.1521
   76MOL0     H10225   6.078  10.863   4.963 -0.8544 -0.9689  0.6973
   76MOL0     H10226   5.673  10.907   4.896  1.2145 -1.0975  1.9994
   76MOL0     H10227   5.703  10.797   4.756 -2.4879 -3.1763 -0.7258
   76MOL0     H10228   5.664  10.608   4.889  2.7385  0.3586  0.2004
   76MOL0     H10229   5.592  10.704   5.024 -2.6763  0.8336 -0.9680
   76MOL0     H10230   5.494  10.765   4.756  1.4824  0.2789  0.1017
   76MOL0     H10231   5.406  10.744   4.918  1.0689 -1.0229  0.5095
   76MOL0     H10232   5.498  10.503   4.756  1.7552  0.6820 -0.1844
   76MOL0     H10233   5.398  10.517   4.909  0.3849  2.5630  2.1045
   76MOL0     H10234   5.308  10.611   4.630 -1.3673  0.1097 -0.6104
   76MOL0     H10235   5.213  10.628   4.778 -2.6297 -5.4410  0.3491
   76MOL0     H10236   5.315  10.357   4.690 -1.1549 -1.3734 -0.3321
   76MOL0     H10237   5.215  10.395   4.838 -1.8202 -3.1883 -1.4071
   76MOL0     H10238   5.136  10.454   4.551  0.9351  0.2719  1.3247
   76MOL0     H10239   5.031  10.476   4.704 -3.0085 -2.6724 -0.7877
   76MOL0     H10240   4.982  10.275   4.568  0.0196  1.2849 -0.4721
   76MOL0     H10241   5.026  10.254   4.743  1.8155 -0.4728  0.8129
   76MOL0     H10242   5.678  10.855   5.136 -0.5930 -1.6701 -1.3158
   76MOL0     H10243   5.772  10.980   5.322 -0.9610 -2.7419 -0.1457
   76MOL0     H10244   6.007  11.048   5.625 -0.0434  2.0274 -4.4095
   76MOL0     H10245   6.107  11.047   5.835 -0.1105  2.6943  0.6585
   76MOL0     H10246   6.775   9.381   5.936 -4.3277 -0.9218  0.0766
   76MOL0     H10247   6.795   9.176   6.035  0.5392  2.6917 -2.0957
   76MOL0     H10248   6.644   8.783   6.411  0.2565  1.9511 -1.4829
   76MOL0     H10249   6.700   8.640   6.612 -1.2317 -0.3752  1.0168
   76MOL0     H10250   6.731   8.561   6.824  0.5685  1.2639  2.4144
   76MOL0     H10251   6.848   8.504   6.717 -2.2318  1.8171 -0.3681
   76MOL0     H10252   6.873   8.559   7.022 -0.2754  0.7401 -0.2541
   76MOL0     H10253   7.002   8.503   6.915 -1.7421 -2.1838 -1.4783
   76MOL0     H10254   6.912   8.283   6.907 -0.3845  0.7233  0.0540
   76MOL0     H10255   6.760   8.345   6.877  0.3167 -1.4289 -1.2416
   76MOL0     H10256   6.708   8.406   7.092  0.0852 -0.5458 -0.3272
   76MOL0     H10257   6.867   8.360   7.164 -1.9261  1.5398 -0.0333
   76MOL0     H10258   6.676   7.980   7.119 -1.8006  1.0108 -3.5105
   76MOL0     H10259   6.984   8.941   6.736  0.0702 -1.5852  0.3844
   76MOL0     H10260   6.903   9.088   6.581  2.7544 -1.0944  5.2944
   77MOL0     O10261   6.605   1.763   5.269  0.7025 -0.5434  1.4969
   77MOL0     C10262   6.525   1.749   5.173 -0.5615 -0.3904  0.0890
   77MOL0     O10263   6.414   1.826   5.138  0.5701 -0.3816  0.2948
   77MOL0     C10264   6.414   1.955   5.194  0.7241 -0.1459  0.7820
   77MOL0     C10265   6.363   1.963   5.320 -0.3776 -0.1722  0.2290
   77MOL0     C10266   6.350   2.088   5.378  0.2700  0.2080 -0.8587
   77MOL0     C10267   6.385   2.211   5.307 -0.1323 -0.9502  0.2070
   77MOL0     O10268   6.369   2.337   5.360  0.3513  0.6127 -1.0117
   77MOL0     C10269   6.473   2.432   5.377 -0.2039  0.5882 -0.6460
   77MOL0     C10270   6.561   2.391   5.494  0.5896  0.5410  1.2948
   77MOL0     C10271   6.490   2.363   5.632 -0.7258 -0.8202 -0.0566
   77MOL0     C10272   6.595   2.331   5.738  0.2693 -0.0747  0.1810
   77MOL0     C10273   6.614   2.179   5.742  0.3571  0.6632  0.5441
   77MOL0     C10274   6.747   2.125   5.697  0.1141 -0.6334 -1.3834
   77MOL0     C10275   6.746   1.979   5.657  0.0956 -0.3244  0.8035
   77MOL0     C10276   6.711   1.864   5.761 -0.4683  0.0392 -0.0341
   77MOL0     N10277   6.700   1.729   5.714 -0.4524  0.0029 -0.0531
   77MOL0     C10278   6.639   1.695   5.592  0.6236  1.0201  0.4707
   77MOL0     C10279   6.680   1.566   5.572 -0.0444 -0.1392 -0.2556
   77MOL0     C10280   6.649   1.476   5.457 -1.5227 -0.6702 -0.2114
   77MOL0     C10281   6.635   1.331   5.493 -0.4917 -0.2844  1.4334
   77MOL0     C10282   6.565   1.255   5.378 -0.1280  0.6874  0.0398
   77MOL0     C10283   6.483   1.138   5.432 -0.1780 -0.1667  0.6555
   77MOL0     O10284   6.408   1.068   5.333  0.0474  0.2415  0.2109
   77MOL0     C10285   6.449   0.951   5.279 -0.0489 -0.0057 -0.6742
   77MOL0     C10286   6.585   0.913   5.279 -1.2023 -0.4243  0.6058
   77MOL0     C10287   6.621   0.783   5.240 -0.1464 -0.2134  0.1648
   77MOL0     C10288   6.771   0.747   5.261  0.2453 -0.3738  0.3113
   77MOL0     C10289   6.534   0.700   5.168  1.0036 -1.2277 -0.0461
   77MOL0     C10290   6.580   0.568   5.111  0.8986 -0.5993 -0.0647
   77MOL0     O10291   6.711   0.554   5.096  0.3850  0.1915 -1.1845
   77MOL0     C10292   6.772   0.436   5.072  0.4307 -0.3566 -0.7953
   77MOL0     C10293   6.883   0.433   4.980 -0.0233 -0.1465 -0.7013
   77MOL0     C10294   6.966   0.317   4.969 -0.3338 -0.1104  0.0996
   77MOL0     C10295   6.941   0.201   5.046  0.8725 -0.8023 -0.0614
   77MOL0     O10296   7.038   0.107   5.054 -0.0654  0.5231 -0.0465
   77MOL0     C10297   7.016  -0.030   5.018  0.1835 -0.5534  0.3824
   77MOL0     C10298   7.060  -0.056   4.871  0.8252 -0.1971  0.2186
   77MOL0     C10299   7.061  -0.216   4.846  0.0477 -0.1495 -0.0673
   77MOL0     C10300   7.128  -0.238   4.703  0.4209  0.9942 -0.5400
   77MOL0     C10301   7.141  -0.383   4.659 -0.0860  0.0530  0.3040
   77MOL0     C10302   7.013  -0.468   4.664  0.2237 -0.1672 -0.3911
   77MOL0     C10303   7.021  -0.609   4.609  0.3333  0.7001 -0.6371
   77MOL0     C10304   7.041  -0.611   4.467 -0.5760 -0.3158  0.1571
   77MOL0    Cl10305   7.002  -0.774   4.425  0.1947 -0.3959  0.0392
   77MOL0     C10306   6.834   0.210   5.134  0.0862  0.3046  0.5948
   77MOL0     C10307   6.745   0.321   5.142 -0.3495 -0.3693 -0.0327
   77MOL0     O10308   6.491   0.486   5.089 -1.1441 -0.3794 -0.0158
   77MOL0     C10309   6.396   0.735   5.156  1.0089 -0.0935  0.4014
   77MOL0     C10310   6.357   0.855   5.226 -0.0730 -0.6150  0.4310
   77MOL0     N10311   6.756   1.532   5.683  0.0113  0.7667  0.2347
   77MOL0     N10312   6.763   1.622   5.766 -0.0784 -0.4756  0.0969
   77MOL0     C10313   6.432   2.203   5.176 -0.5691  0.1464  0.7513
   77MOL0     C10314   6.452   2.067   5.120 -0.2523 -0.3420 -0.4428
   77MOL0     C10315   6.527   1.617   5.110  0.5287 -0.1653 -0.2412
   77MOL0     C10316   6.394   1.559   5.086 -0.4083  0.0936  0.1704
   77MOL0     C10317   6.377   1.445   5.014  1.1887 -0.3677 -0.1860
   77MOL0     C10318   6.488   1.381   4.958 -0.1532  0.0861  0.4216
   77MOL0     O10319   6.473   1.265   4.879  0.3809  0.5091  0.1701
   77MOL0     C10320   6.391   1.154   4.936 -0.7854  1.1091  1.0574
   77MOL0     C10321   6.465   1.023   4.900 -0.6137  0.3249 -0.1766
   77MOL0     C10322   6.493   1.008   4.747 -0.4490  0.1450 -0.3874
   77MOL0     C10323   6.406   0.914   4.674  0.1158 -0.5029  0.1864
   77MOL0     C10324   6.412   0.775   4.712 -0.2251  0.0497 -0.2131
   77MOL0     C10325   6.425   0.659   4.740  0.8795  0.6063  0.0245
   77MOL0     C10326   6.614   1.434   4.991 -0.9373  0.3648 -0.2410
   77MOL0     C10327   6.639   1.544   5.074 -0.9454 -1.0998  0.0934
   77MOL0     H10328   6.316   1.881   5.373 -0.6695  1.0018  1.8780
   77MOL0     H10329   6.303   2.099   5.475  1.9358  0.1367 -0.0141
   77MOL0     H10330   6.539   2.428   5.290  0.2759 -1.3501 -0.2502
   77MOL0     H10331   6.429   2.530   5.393  0.6567  1.1319 -1.5053
   77MOL0     H10332   6.607   2.296   5.465 -1.5543 -0.1485 -0.0676
   77MOL0     H10333   6.638   2.466   5.515  1.2369  0.2623  0.0646
   77MOL0     H10334   6.428   2.450   5.659 -0.0720 -0.5041  0.4426
   77MOL0     H10335   6.429   2.274   5.613  0.6610 -1.6444 -0.8022
   77MOL0     H10336   6.688   2.387   5.724 -0.8205  1.2642 -2.2638
   77MOL0     H10337   6.551   2.363   5.832  0.5755  0.4731  0.1428
   77MOL0     H10338   6.608   2.155   5.848 -0.9769 -0.1254  0.3183
   77MOL0     H10339   6.532   2.127   5.691  2.5859 -1.5475 -1.0172
   77MOL0     H10340   6.766   2.195   5.615  0.4081  3.5113  1.9034
   77MOL0     H10341   6.825   2.165   5.763 -1.9418 -0.9200  1.3796
   77MOL0     H10342   6.662   1.982   5.587  0.6168  1.3040  0.1943
   77MOL0     H10343   6.839   1.960   5.604 -0.6194  3.0843 -2.0245
   77MOL0     H10344   6.616   1.904   5.799  0.4818  3.1739 -0.6606
   77MOL0     H10345   6.778   1.879   5.847  0.0592  4.5491 -0.9746
   77MOL0     H10346   6.570   1.742   5.523 -2.0091 -1.7217  1.0364
   77MOL0     H10347   6.556   1.515   5.416 -1.0924  1.2977  0.5634
   77MOL0     H10348   6.732   1.495   5.388  0.7973  0.2065  2.6254
   77MOL0     H10349   6.569   1.333   5.580  0.3724 -3.2009  2.2440
   77MOL0     H10350   6.732   1.281   5.499  0.5145  0.9708 -1.8248
   77MOL0     H10351   6.647   1.228   5.311  0.0852 -0.3249  0.6793
   77MOL0     H10352   6.500   1.322   5.322  4.9176  1.0095 -6.6135
   77MOL0     H10353   6.415   1.174   5.510 -0.1783  0.3620  0.4117
   77MOL0     H10354   6.555   1.068   5.476  1.9458 -0.0919 -2.3765
   77MOL0     H10355   6.664   0.973   5.322 -3.1017  2.8956 -0.2077
   77MOL0     H10356   6.822   0.731   5.165 -0.6109  1.3930 -0.4702
   77MOL0     H10357   6.827   0.835   5.295 -0.7989  1.0049 -1.3963
   77MOL0     H10358   6.770   0.660   5.328  0.0821  0.7097  1.7788
   77MOL0     H10359   6.907   0.517   4.917  0.7950 -1.4426 -2.1895
   77MOL0     H10360   7.058   0.316   4.913  1.5791 -0.2516  3.0238
   77MOL0     H10361   7.069  -0.093   5.090 -1.2562 -2.2087  0.0687
   77MOL0     H10362   6.910  -0.055   5.020 -0.4724  0.9174 -3.9698
   77MOL0     H10363   6.985  -0.027   4.796  0.8273 -5.0968 -2.1040
   77MOL0     H10364   7.156  -0.006   4.855  2.0599 -1.7129  2.3775
   77MOL0     H10365   6.970  -0.276   4.856  0.1599 -0.9269 -2.9081
   77MOL0     H10366   7.132  -0.254   4.920  1.3349 -0.8819 -1.6315
   77MOL0     H10367   7.074  -0.183   4.625  2.0543  4.1567  0.3882
   77MOL0     H10368   7.225  -0.188   4.701  1.7279 -1.4134 -1.1836
   77MOL0     H10369   7.228  -0.424   4.711 -0.7981 -0.4585  1.1094
   77MOL0     H10370   7.172  -0.388   4.554  1.4715 -3.1496  0.7849
   77MOL0     H10371   6.977  -0.489   4.765 -0.2854 -2.8986 -1.0502
   77MOL0     H10372   6.939  -0.411   4.607  1.2029  0.3969 -1.1303
   77MOL0     H10373   6.931  -0.664   4.635  0.9103  0.3249  0.6599
   77MOL0     H10374   7.102  -0.662   4.660  0.6587 -0.8190 -2.6144
   77MOL0     H10375   7.146  -0.595   4.442 -0.4474  3.5230  2.3307
   77MOL0     H10376   6.979  -0.543   4.409 -1.6842 -1.5529 -0.1577
   77MOL0     H10377   6.831   0.131   5.209  1.5262 -1.3178 -0.9692
   77MOL0     H10378   6.669   0.323   5.219  0.5264  1.6303  0.8505
   77MOL0     H10379   6.323   0.682   5.096 -2.2324  1.6908  2.4483
   77MOL0     H10380   6.253   0.881   5.212  0.6614  1.8940 -0.8207
   77MOL0     H10381   6.472   2.289   5.123  0.0942 -0.2474  0.5974
   77MOL0     H10382   6.500   2.060   5.023  2.6653 -1.6501  0.9552
   77MOL0     H10383   6.314   1.620   5.126  0.8001  0.6588  1.8476
   77MOL0     H10384   6.273   1.429   4.987  1.0975 -1.2749  0.6406
   77MOL0     H10385   6.399   1.158   5.045 -3.4844 -3.1550  1.6475
   77MOL0     H10386   6.287   1.155   4.899 -1.3855 -1.2271  2.4795
   77MOL0     H10387   6.423   0.928   4.933  0.0630 -0.5776 -1.7960
   77MOL0     H10388   6.558   1.025   4.957 -0.6570 -1.1421 -0.0315
   77MOL0     H10389   6.589   0.958   4.731  2.1053  4.9731 -2.3205
   77MOL0     H10390   6.497   1.105   4.696  0.8170 -1.2458 -3.1306
   77MOL0     H10391   6.420   0.921   4.565  0.0391 -0.4231  0.1817
   77MOL0     H10392   6.304   0.954   4.681 -0.1155 -0.8928 -0.6883
   77MOL0     H10393   6.433   0.557   4.771 -2.0231  0.0515 -0.6657
   77MOL0     H10394   6.698   1.389   4.939 -0.1862 -1.0740  2.0605
   77MOL0     H10395   6.737   1.577   5.109 -1.2107 -1.2420  1.0022
   78MOL0     O10396   6.304   8.182   3.578  0.6102 -0.4314 -0.7864
   78MOL0     C10397   6.222   8.105   3.534  0.3507  0.3968 -0.1091
   78MOL0     O10398   6.223   7.968   3.571  0.2479 -0.7998 -0.0538
   78MOL0     C10399   6.306   7.916   3.661 -0.8090  1.0952 -0.5497
   78MOL0     C10400   6.255   7.809   3.740 -0.3318 -1.1608 -0.2374
   78MOL0     C10401   6.335   7.731   3.816  0.0761  0.4160 -0.4071
   78MOL0     C10402   6.473   7.760   3.823  0.1407  0.6001  0.7446
   78MOL0     O10403   6.553   7.680   3.896  0.2046  0.2558 -0.3983
   78MOL0     C10404   6.513   7.583   3.989 -0.3992  0.0769 -0.5579
   78MOL0     C10405   6.627   7.530   4.075  0.4884 -0.0275 -0.3285
   78MOL0     C10406   6.627   7.607   4.214 -0.4208  0.8518  0.3419
   78MOL0     C10407   6.688   7.523   4.324 -0.1569  0.6648 -1.1395
   78MOL0     C10408   6.727   7.607   4.441 -0.0950 -1.3736  0.3968
   78MOL0     C10409   6.737   7.516   4.567 -1.4433 -0.5251  0.4497
   78MOL0     C10410   6.781   7.583   4.694  0.4610  0.4698  0.2958
   78MOL0     C10411   6.923   7.611   4.716 -0.1728  0.6605  0.7998
   78MOL0     N10412   6.919   7.660   4.858 -0.7776  0.2617  0.7604
   78MOL0     C10413   6.861   7.774   4.899  0.6709 -0.3315 -0.4427
   78MOL0     C10414   6.835   7.766   5.033 -0.9595 -0.3939  0.2498
   78MOL0     C10415   6.758   7.862   5.110  0.3581 -0.1167  0.1579
   78MOL0     C10416   6.607   7.860   5.068 -0.9002  0.5334  0.1228
   78MOL0     C10417   6.570   7.924   4.935 -0.9334 -0.7854  0.6918
   78MOL0     C10418   6.408   7.932   4.920 -0.3064  0.3045  0.2016
   78MOL0     O10419   6.354   7.919   4.786  0.0254  1.0082 -0.8684
   78MOL0     C10420   6.338   7.787   4.737  0.1385  1.7069  0.0688
   78MOL0     C10421   6.275   7.679   4.810 -0.2961 -0.3210  0.4037
   78MOL0     C10422   6.276   7.541   4.761  0.1962 -0.2636  1.0540
   78MOL0     C10423   6.209   7.434   4.839  0.7528 -0.4030  0.5652
   78MOL0     C10424   6.320   7.516   4.626  0.2294 -0.7699 -0.0181
   78MOL0     C10425   6.335   7.384   4.547  0.5906  0.0816  1.1737
   78MOL0     O10426   6.332   7.378   4.409  0.2626  0.4595  0.6008
   78MOL0     C10427   6.364   7.272   4.326 -1.0327  0.0076  0.1225
   78MOL0     C10428   6.418   7.149   4.371  0.3226  0.1343  0.2070
   78MOL0     C10429   6.445   7.038   4.281 -0.4866 -0.3389 -0.0808
   78MOL0     C10430   6.411   7.044   4.149  0.6283 -0.4568 -0.2992
   78MOL0     O10431   6.427   6.936   4.063 -0.1405  0.2212  0.2572
   78MOL0     C10432   6.423   6.800   4.116 -0.1623  0.4763  0.2683
   78MOL0     C10433   6.284   6.746   4.124  0.5411  0.3025  0.5935
   78MOL0     C10434   6.235   6.681   3.996 -0.2464  0.1717  0.2507
   78MOL0     C10435   6.095   6.613   3.997 -0.2130  0.1031  0.4668
   78MOL0     C10436   6.070   6.521   3.872 -0.0019 -1.2807  0.7168
   78MOL0     C10437   6.165   6.389   3.858 -0.2842  0.5855  0.1382
   78MOL0     C10438   6.169   6.316   3.994 -0.0697  1.2481 -0.0508
   78MOL0     C10439   6.026   6.246   4.014  0.3614 -0.1189  0.8325
   78MOL0    Cl10440   6.001   6.123   3.888 -0.6805 -0.3278  0.1843
   78MOL0     C10441   6.371   7.171   4.109 -0.3302 -0.5910  0.7610
   78MOL0     C10442   6.344   7.283   4.188 -0.3342 -1.6274  0.0433
   78MOL0     O10443   6.370   7.291   4.615 -0.1078  0.1017  0.1908
   78MOL0     C10444   6.369   7.637   4.555 -0.6199 -0.2365 -1.2667
   78MOL0     C10445   6.382   7.755   4.611  0.2307 -0.1872 -0.2444
   78MOL0     N10446   6.878   7.635   5.074  0.9461 -0.7690 -0.6711
   78MOL0     N10447   6.938   7.589   4.972 -0.3643  0.4432 -0.1185
   78MOL0     C10448   6.529   7.871   3.760 -0.5687  0.3229  0.6554
   78MOL0     C10449   6.451   7.945   3.679  1.1853 -0.8529  0.0788
   78MOL0     C10450   6.113   8.153   3.444 -0.5380  0.6610 -0.7530
   78MOL0     C10451   6.020   8.062   3.401  0.7349  0.4216  0.5256
   78MOL0     C10452   5.914   8.106   3.309 -0.9897  0.7547  0.0707
   78MOL0     C10453   5.902   8.240   3.277 -0.5681  0.8611  0.1437
   78MOL0     O10454   5.809   8.283   3.185 -0.0745 -0.5032  0.0359
   78MOL0     C10455   5.732   8.194   3.111  0.3239 -0.1418 -0.3134
   78MOL0     C10456   5.799   8.111   3.002 -0.5560 -0.2658  0.5179
   78MOL0     C10457   5.720   7.996   2.986  1.1796  0.0477  0.7546
   78MOL0     C10458   5.780   7.896   2.890 -0.9374 -0.8644 -0.0055
   78MOL0     C10459   5.915   7.854   2.919 -0.2118  0.2344  1.5049
   78MOL0     C10460   6.016   7.805   2.960 -0.7558  0.0786 -0.4715
   78MOL0     C10461   6.001   8.328   3.328  1.0760  0.0251 -0.3635
   78MOL0     C10462   6.099   8.288   3.419  0.1825  0.0345  1.1036
   78MOL0     H10463   6.153   7.778   3.716  0.0100 -0.2110 -3.2880
   78MOL0     H10464   6.291   7.652   3.877 -1.5481  1.7898  0.2671
   78MOL0     H10465   6.423   7.613   4.043  0.4859 -1.2896  1.8038
   78MOL0     H10466   6.483   7.497   3.928 -1.3253  1.6770 -2.4901
   78MOL0     H10467   6.587   7.430   4.095 -2.1129  0.5398 -2.1678
   78MOL0     H10468   6.722   7.527   4.021  0.0389  0.9089 -1.2097
   78MOL0     H10469   6.681   7.700   4.194  2.0774 -0.7809 -0.9504
   78MOL0     H10470   6.523   7.624   4.244 -0.8710 -1.3391  0.1754
   78MOL0     H10471   6.626   7.444   4.366 -1.7157  1.3767 -2.0203
   78MOL0     H10472   6.778   7.473   4.286 -2.0701 -3.6579 -0.5432
   78MOL0     H10473   6.818   7.661   4.413 -1.6812  0.3931 -1.6523
   78MOL0     H10474   6.649   7.683   4.450  1.0607 -0.1915  0.8405
   78MOL0     H10475   6.639   7.472   4.589 -1.5837 -1.2488 -1.4490
   78MOL0     H10476   6.809   7.435   4.553  0.7739  1.1698  1.4031
   78MOL0     H10477   6.712   7.666   4.710 -1.5299 -1.3756  1.7882
   78MOL0     H10478   6.766   7.508   4.772  1.4181  1.6959  1.7014
   78MOL0     H10479   6.958   7.689   4.648 -0.7720  1.2706  1.1698
   78MOL0     H10480   6.986   7.523   4.701 -1.3388 -0.1145  0.3461
   78MOL0     H10481   6.844   7.862   4.838  1.7941  1.0457  1.1320
   78MOL0     H10482   6.774   7.848   5.218  1.2639  4.5017  0.8183
   78MOL0     H10483   6.801   7.961   5.091  2.3591 -0.6646  1.4660
   78MOL0     H10484   6.548   7.908   5.146 -2.3351  3.1877 -2.3641
   78MOL0     H10485   6.586   7.753   5.060 -1.8125  0.7479 -0.6897
   78MOL0     H10486   6.607   7.877   4.843 -3.1029 -0.3940 -0.4384
   78MOL0     H10487   6.618   8.022   4.939 -1.0065 -0.7268  0.1917
   78MOL0     H10488   6.383   8.031   4.959  2.1844  2.3764 -2.9142
   78MOL0     H10489   6.365   7.855   4.984 -1.9409  0.1804 -0.9984
   78MOL0     H10490   6.225   7.697   4.905 -3.3336 -1.2812 -0.8803
   78MOL0     H10491   6.191   7.343   4.780 -4.2246  1.8280 -2.0254
   78MOL0     H10492   6.272   7.409   4.925  2.1550 -0.2768 -0.3910
   78MOL0     H10493   6.113   7.475   4.872  1.2725  1.3565 -0.0277
   78MOL0     H10494   6.447   7.133   4.474  3.1644  0.1151 -0.5188
   78MOL0     H10495   6.489   6.954   4.334 -3.6957 -2.0237  0.1450
   78MOL0     H10496   6.483   6.737   4.050 -0.0682  1.1385 -0.2889
   78MOL0     H10497   6.469   6.783   4.214  0.9420 -1.7716 -0.5731
   78MOL0     H10498   6.298   6.665   4.196  1.8631 -1.2387 -1.2794
   78MOL0     H10499   6.220   6.825   4.162 -0.6818  1.5312 -3.5289
   78MOL0     H10500   6.307   6.602   3.970  0.3425  1.2469 -1.5523
   78MOL0     H10501   6.239   6.757   3.918  0.0081  0.8768  0.9299
   78MOL0     H10502   6.083   6.557   4.090 -1.7023  0.0062  0.2330
   78MOL0     H10503   6.026   6.697   3.992 -0.0695  0.1334 -2.2332
   78MOL0     H10504   6.087   6.587   3.787 -2.4566 -0.3548  0.8631
   78MOL0     H10505   5.966   6.490   3.874 -0.6866  0.8049 -0.1181
   78MOL0     H10506   6.126   6.329   3.776  0.3875  2.0002 -1.2735
   78MOL0     H10507   6.266   6.419   3.830  0.1737 -0.3328  0.7321
   78MOL0     H10508   6.173   6.372   4.088 -3.7777 -2.2047  2.5086
   78MOL0     H10509   6.256   6.249   3.994  0.8852  2.3999 -2.1296
   78MOL0     H10510   5.940   6.313   4.018 -0.9612 -1.8325  2.5736
   78MOL0     H10511   6.038   6.189   4.106  1.1041 -2.0366 -0.3779
   78MOL0     H10512   6.329   7.179   4.009  2.1341  1.8102 -0.2021
   78MOL0     H10513   6.282   7.365   4.152  0.2926 -0.7771  0.8449
   78MOL0     H10514   6.386   7.624   4.449  0.7424 -0.8925 -0.9858
   78MOL0     H10515   6.430   7.830   4.548 -0.2769 -1.7205 -2.5550
   78MOL0     H10516   6.636   7.884   3.768 -0.9089  4.3110  0.6563
   78MOL0     H10517   6.492   8.021   3.614 -2.5824 -1.2748 -3.2485
   78MOL0     H10518   6.021   7.955   3.421  0.3095  0.6200  1.6995
   78MOL0     H10519   5.855   8.022   3.273  2.1459 -1.5301 -0.1901
   78MOL0     H10520   5.661   8.145   3.178 -2.2183  1.0430 -1.9917
   78MOL0     H10521   5.655   8.260   3.070 -1.0827 -1.1831  0.5405
   78MOL0     H10522   5.898   8.092   3.044 -1.5661 -3.5769  1.6854
   78MOL0     H10523   5.805   8.171   2.910 -1.0635 -1.0391 -0.0320
   78MOL0     H10524   5.616   8.015   2.958  0.8130 -1.3785  1.0936
   78MOL0     H10525   5.714   7.955   3.087  1.3644 -1.7920  0.0575
   78MOL0     H10526   5.774   7.938   2.789  0.3382 -1.2428 -0.2560
   78MOL0     H10527   5.716   7.808   2.890  0.9881 -2.3456 -1.0179
   78MOL0     H10528   6.110   7.762   2.989 -0.0442  2.0789  0.3895
   78MOL0     H10529   6.004   8.435   3.308  0.7090 -0.0788 -0.9937
   78MOL0     H10530   6.149   8.362   3.481 -0.5942  0.5270  1.1696
   79MOL0     O10531   5.534   8.081   4.740 -0.6339 -0.8979 -0.9961
   79MOL0     C10532   5.436   8.036   4.799  0.3767 -0.1045 -0.2644
   79MOL0     O10533   5.317   8.106   4.805 -0.1199 -0.2673 -0.1699
   79MOL0     C10534   5.285   8.224   4.730  0.5757  0.0330 -0.9119
   79MOL0     C10535   5.341   8.268   4.611  0.1070  0.7923 -0.9531
   79MOL0     C10536   5.287   8.385   4.558  0.5426 -0.3775  0.5481
   79MOL0     C10537   5.174   8.458   4.610 -0.5256 -0.3718  0.5891
   79MOL0     O10538   5.121   8.563   4.548 -0.4719 -0.0982 -0.3697
   79MOL0     C10539   5.194   8.685   4.571 -0.3037 -0.3332 -0.2597
   79MOL0     C10540   5.137   8.800   4.492 -0.1654 -0.3995 -0.0533
   79MOL0     C10541   5.002   8.841   4.550 -0.3284  0.9558  0.0503
   79MOL0     C10542   4.960   8.972   4.491  0.1453 -0.4322  0.0139
   79MOL0     C10543   4.857   9.054   4.559 -0.0527  0.8701  0.1264
   79MOL0     C10544   4.847   9.186   4.489 -0.0399 -0.3675 -0.2889
   79MOL0     C10545   4.749   9.291   4.557  0.2613 -0.4784 -0.0999
   79MOL0     C10546   4.603   9.224   4.528  0.0111 -0.6400  0.0518
   79MOL0     N10547   4.497   9.321   4.553 -0.4511 -0.3332  0.0536
   79MOL0     C10548   4.446   9.340   4.684  1.1153 -0.3025  0.0403
   79MOL0     C10549   4.343   9.429   4.659  0.0089  0.8889  0.8715
   79MOL0     C10550   4.263   9.503   4.762 -0.6833 -0.3810 -0.0603
   79MOL0     C10551   4.140   9.432   4.814 -0.6842  0.8382 -0.5501
   79MOL0     C10552   4.011   9.463   4.723 -0.6996 -0.5133 -0.4643
   79MOL0     C10553   3.958   9.605   4.728 -0.4472  0.3144  0.1083
   79MOL0     O10554   4.044   9.675   4.636 -0.1818 -0.8172 -0.1086
   79MOL0     C10555   3.976   9.755   4.558  0.1290 -0.5132  0.0813
   79MOL0     C10556   3.895   9.855   4.613 -0.5790 -0.0862  0.8363
   79MOL0     C10557   3.821   9.949   4.532  0.4112  0.3168  0.5454
   79MOL0     C10558   3.739  10.069   4.588  0.3995 -0.2683 -0.3404
   79MOL0     C10559   3.821   9.922   4.379  0.4396 -0.1040  0.1485
   79MOL0     C10560   3.752  10.012   4.288 -0.7182  0.4556 -0.2546
   79MOL0     O10561   3.840  10.096   4.206  0.4999 -0.1493 -0.1210
   79MOL0     C10562   3.765  10.162   4.123 -0.3858  0.0227 -0.7778
   79MOL0     C10563   3.749  10.101   3.996  0.3403 -1.0207 -0.2359
   79MOL0     C10564   3.659  10.155   3.901 -0.7083  0.7992  0.3530
   79MOL0     C10565   3.594  10.273   3.923  0.7942 -0.3980  0.4182
   79MOL0     O10566   3.490  10.324   3.852 -0.2089 -0.0505  0.7789
   79MOL0     C10567   3.527  10.363   3.719  0.0168  0.2727 -0.5734
   79MOL0     C10568   3.554  10.515   3.705 -0.3220 -0.2116  0.1128
   79MOL0     C10569   3.460  10.599   3.786  0.6653  0.1532  0.6869
   79MOL0     C10570   3.485  10.749   3.766 -0.6507 -0.1054  0.4067
   79MOL0     C10571   3.548  10.803   3.894 -0.5013  0.8073  0.2363
   79MOL0     C10572   3.622  10.940   3.872  0.4650  0.3452  0.0322
   79MOL0     C10573   3.497  11.042   3.856 -0.0285 -0.0379  0.7106
   79MOL0     C10574   3.544  11.191   3.862  0.3817  1.8551  0.2591
   79MOL0    Cl10575   3.498  11.247   4.028  0.4090  0.0554  0.2779
   79MOL0     C10576   3.630  10.342   4.040  0.2749  0.3459  0.1606
   79MOL0     C10577   3.715  10.291   4.142 -0.3651  0.1689  1.0943
   79MOL0     O10578   3.631  10.014   4.293  0.5129  0.3466 -0.1071
   79MOL0     C10579   3.907   9.830   4.333  0.3228 -0.0519 -0.3348
   79MOL0     C10580   3.986   9.747   4.417 -0.5648  0.0139  0.7043
   79MOL0     N10581   4.350   9.468   4.527 -0.0698 -0.4390 -0.1884
   79MOL0     N10582   4.449   9.408   4.464 -0.7200 -0.4175 -0.7744
   79MOL0     C10583   5.118   8.401   4.726  0.7146  0.3425  0.4852
   79MOL0     C10584   5.171   8.286   4.783  0.2190 -0.2426  0.0266
   79MOL0     C10585   5.458   7.902   4.872 -0.0690 -0.2465 -0.1286
   79MOL0     C10586   5.582   7.836   4.874 -0.3997 -0.5946  0.8498
   79MOL0     C10587   5.603   7.721   4.948  0.3082 -0.0532 -0.6780
   79MOL0     C10588   5.493   7.659   5.007  0.2461 -0.0759  0.2000
   79MOL0     O10589   5.501   7.547   5.078  0.0569  0.7158 -0.3650
   79MOL0     C10590   5.611   7.460   5.067  0.6692 -1.7724  0.2106
   79MOL0     C10591   5.618   7.391   4.925  0.1021 -0.0663 -0.1548
   79MOL0     C10592   5.492   7.382   4.839 -0.3675  0.4292  0.2567
   79MOL0     C10593   5.519   7.310   4.709  1.2588 -0.2022 -0.7444
   79MOL0     C10594   5.399   7.281   4.629  0.3427 -0.5976  0.2691
   79MOL0     C10595   5.311   7.255   4.549  0.2570  0.1199 -0.1915
   79MOL0     C10596   5.364   7.718   4.989 -0.3752 -0.3288 -0.5810
   79MOL0     C10597   5.348   7.837   4.916  0.4438  0.1510  0.1666
   79MOL0     H10598   5.431   8.225   4.569 -1.0072 -2.9205  0.0730
   79MOL0     H10599   5.328   8.422   4.465  0.8788 -0.6693  0.5791
   79MOL0     H10600   5.170   8.712   4.674  0.3949  1.3825 -0.5198
   79MOL0     H10601   5.302   8.686   4.557 -0.1576 -0.7885  0.7774
   79MOL0     H10602   5.211   8.880   4.500  1.6561 -1.9170 -1.1846
   79MOL0     H10603   5.126   8.761   4.391  1.5108 -2.3759  0.4784
   79MOL0     H10604   4.934   8.758   4.531  1.7980 -1.0434  0.6351
   79MOL0     H10605   5.009   8.863   4.657 -0.4975  1.6454 -0.0717
   79MOL0     H10606   5.048   9.037   4.494  0.4858 -0.7628 -1.6844
   79MOL0     H10607   4.936   8.954   4.386 -1.6161 -0.4761  0.3987
   79MOL0     H10608   4.764   8.999   4.539  1.9206 -3.7178  2.2062
   79MOL0     H10609   4.872   9.060   4.667 -1.1639  0.4982  0.3192
   79MOL0     H10610   4.944   9.235   4.479  0.2844  0.0500  3.4521
   79MOL0     H10611   4.814   9.177   4.385  2.2751 -0.9298 -1.0153
   79MOL0     H10612   4.780   9.305   4.661  1.5960 -0.3707 -0.5027
   79MOL0     H10613   4.762   9.389   4.510 -0.9308  0.1231  0.7541
   79MOL0     H10614   4.606   9.153   4.612  1.0414 -2.9559 -1.8088
   79MOL0     H10615   4.598   9.182   4.427 -0.1594  0.1901 -0.2857
   79MOL0     H10616   4.474   9.301   4.782  0.6995  2.6307  1.4438
   79MOL0     H10617   4.326   9.500   4.851 -2.3176  0.1719  1.1639
   79MOL0     H10618   4.242   9.606   4.733 -2.1152 -0.2927  1.1486
   79MOL0     H10619   4.119   9.457   4.918 -0.5195  1.7265 -0.7244
   79MOL0     H10620   4.145   9.323   4.825 -1.1700  0.5843 -2.3551
   79MOL0     H10621   3.931   9.392   4.743 -2.0350 -0.0389 -3.5602
   79MOL0     H10622   4.030   9.439   4.618 -2.6365  0.2394 -1.0266
   79MOL0     H10623   3.946   9.657   4.823 -4.2499 -0.6225  0.2968
   79MOL0     H10624   3.858   9.596   4.684  0.0104 -2.0182 -0.6174
   79MOL0     H10625   3.900   9.875   4.719  1.2385  1.3379  0.5300
   79MOL0     H10626   3.741  10.073   4.697 -2.5844 -0.8341 -0.1953
   79MOL0     H10627   3.777  10.161   4.542  0.7011 -0.8173 -1.2227
   79MOL0     H10628   3.635  10.058   4.556  0.4498 -1.7309 -0.0637
   79MOL0     H10629   3.805  10.008   4.001  1.6723 -0.1949  2.0848
   79MOL0     H10630   3.638  10.084   3.822  1.6382  1.3769 -0.8829
   79MOL0     H10631   3.616  10.311   3.683 -1.2055 -1.2353 -1.5606
   79MOL0     H10632   3.443  10.336   3.655  0.5349 -2.8761 -0.0868
   79MOL0     H10633   3.652  10.541   3.747 -0.4832  1.1757 -0.3130
   79MOL0     H10634   3.560  10.538   3.598  1.0161  0.7071  0.3533
   79MOL0     H10635   3.477  10.569   3.890 -0.9103  0.6903  1.1277
   79MOL0     H10636   3.355  10.586   3.757  0.8597 -1.5547  0.6678
   79MOL0     H10637   3.540  10.751   3.672  0.2463 -0.1661  0.9182
   79MOL0     H10638   3.391  10.805   3.756 -0.0090  1.5126  2.6800
   79MOL0     H10639   3.634  10.744   3.925  0.6600  3.3723  2.2199
   79MOL0     H10640   3.483  10.795   3.982  1.5544 -0.8739  1.6900
   79MOL0     H10641   3.680  10.977   3.957  0.5026  1.8916 -0.6392
   79MOL0     H10642   3.684  10.929   3.783  1.2563 -0.6755  0.6846
   79MOL0     H10643   3.416  11.026   3.927  0.3124 -3.6447  0.4560
   79MOL0     H10644   3.464  11.020   3.754  2.4787 -1.6818  0.1677
   79MOL0     H10645   3.493  11.252   3.787 -3.1943 -0.5867  0.4353
   79MOL0     H10646   3.652  11.202   3.875  0.0666  1.6752  4.0866
   79MOL0     H10647   3.565  10.427   4.054  0.0087 -0.0012  1.0934
   79MOL0     H10648   3.740  10.357   4.224 -0.5301  2.4465 -0.5904
   79MOL0     H10649   3.915   9.829   4.225 -0.5436 -0.1623 -0.4053
   79MOL0     H10650   4.042   9.666   4.372 -3.8959 -1.5973 -0.8616
   79MOL0     H10651   5.024   8.437   4.765 -2.0586 -3.0166 -2.3212
   79MOL0     H10652   5.115   8.259   4.871  0.5659  0.2323  0.3975
   79MOL0     H10653   5.659   7.900   4.832  0.2418 -0.4500  2.2022
   79MOL0     H10654   5.705   7.685   4.954  0.8293  1.0113 -2.3413
   79MOL0     H10655   5.703   7.518   5.074  0.0511 -0.8728  1.3173
   79MOL0     H10656   5.607   7.384   5.145  2.4160  0.1150  2.2792
   79MOL0     H10657   5.659   7.292   4.946  1.3966 -0.0123 -2.1873
   79MOL0     H10658   5.689   7.449   4.865 -2.4865 -0.3699 -3.8278
   79MOL0     H10659   5.460   7.480   4.803  1.2373 -0.3457 -3.8468
   79MOL0     H10660   5.407   7.325   4.879  0.2846 -1.0371 -0.3867
   79MOL0     H10661   5.577   7.220   4.729  0.3056 -0.3642  1.6045
   79MOL0     H10662   5.584   7.384   4.661  1.7835 -1.0168 -1.3163
   79MOL0     H10663   5.239   7.215   4.480  0.6974  0.9242 -1.1384
   79MOL0     H10664   5.283   7.656   5.028  0.3566 -0.0023  1.5732
   79MOL0     H10665   5.250   7.878   4.892 -0.9593 -1.8240  2.1359
   80MOL0     O10666  10.510   2.258  10.522  0.2464 -0.0791 -1.1029
   80MOL0     C10667  10.498   2.355  10.441  0.7341 -0.2653  0.1908
   80MOL0     O10668  10.438   2.476  10.466  0.1975 -0.4209  0.5551
   80MOL0     C10669  10.362   2.489  10.577 -0.2118 -0.2192 -0.6846
   80MOL0     C10670  10.328   2.623  10.614 -1.2671 -0.0294  0.5087
   80MOL0     C10671  10.252   2.641  10.728  0.0141  0.7695 -0.0271
   80MOL0     C10672  10.192   2.532  10.798  0.4060  0.3430  0.3936
   80MOL0     O10673  10.117   2.542  10.917  0.9300 -0.3838  0.1457
   80MOL0     C10674  10.111   2.677  10.971  0.1286  0.3492 -0.4606
   80MOL0     C10675  10.013   2.670  11.090 -0.9647  0.0542  0.1247
   80MOL0     C10676   9.882   2.601  11.035 -0.0654 -0.7729 -0.0025
   80MOL0     C10677   9.760   2.638  11.125  0.4869  0.3585 -0.0512
   80MOL0     C10678   9.625   2.595  11.067 -0.2959 -0.2950 -0.9806
   80MOL0     C10679   9.502   2.598  11.151 -0.4549 -0.4925 -0.9082
   80MOL0     C10680   9.500   2.507  11.278 -0.0458 -0.0931 -0.3416
   80MOL0     C10681   9.533   2.362  11.250 -0.4528 -0.9043 -0.2906
   80MOL0     N10682   9.449   2.310  11.140 -0.3750 -0.7749 -0.6985
   80MOL0     C10683   9.497   2.277  11.017 -0.5843 -0.4711  0.2201
   80MOL0     C10684   9.395   2.207  10.966  0.4585 -0.9527 -0.5916
   80MOL0     C10685   9.401   2.171  10.816 -0.3814  0.8489 -0.0241
   80MOL0     C10686   9.450   2.029  10.808  0.0791  0.5734  0.0043
   80MOL0     C10687   9.513   1.997  10.670  0.5134 -0.3573 -1.1537
   80MOL0     C10688   9.590   1.860  10.676 -0.2581 -0.2878  0.0024
   80MOL0     O10689   9.499   1.754  10.697 -0.3749  0.7252  0.1111
   80MOL0     C10690   9.547   1.625  10.673 -0.4791 -0.6364 -0.0533
   80MOL0     C10691   9.687   1.589  10.635  0.1351  0.7214  0.1577
   80MOL0     C10692   9.729   1.454  10.618 -0.0476  0.5557  1.1368
   80MOL0     C10693   9.874   1.435  10.577  0.5728  0.0947  0.0642
   80MOL0     C10694   9.625   1.353  10.625  0.2336 -0.7623  0.1142
   80MOL0     C10695   9.662   1.217  10.589  0.5862 -0.4208 -0.7896
   80MOL0     O10696   9.601   1.122  10.663  0.2280 -0.1475  0.6891
   80MOL0     C10697   9.608   0.988  10.616  0.5978 -1.0515 -0.7736
   80MOL0     C10698   9.689   0.908  10.692  0.8655 -0.5820 -0.9550
   80MOL0     C10699   9.701   0.766  10.655 -0.8444  0.0426 -0.5177
   80MOL0     C10700   9.630   0.708  10.550 -0.0652 -0.9980 -0.6629
   80MOL0     O10701   9.648   0.570  10.521  0.1648  0.5772 -0.2389
   80MOL0     C10702   9.591   0.515  10.405 -0.3513  0.3836 -0.2361
   80MOL0     C10703   9.633   0.368  10.401 -0.1386  0.2778 -0.2288
   80MOL0     C10704   9.770   0.358  10.346 -0.2777  0.8980  1.4817
   80MOL0     C10705   9.789   0.422  10.204 -0.2813 -0.0505  0.1805
   80MOL0     C10706   9.894   0.357  10.123 -0.3346  0.3385  0.1193
   80MOL0     C10707  10.034   0.401  10.165  0.0998  0.7831  0.3116
   80MOL0     C10708  10.142   0.319  10.100 -0.1814 -0.7704  0.6207
   80MOL0     C10709  10.285   0.369  10.124  0.3033 -0.0236  0.2298
   80MOL0    Cl10710  10.317   0.530  10.057  0.1668 -0.0398 -0.0704
   80MOL0     C10711   9.554   0.791  10.463  0.8299  0.1206 -0.7803
   80MOL0     C10712   9.537   0.935  10.508  0.5212 -0.3701  0.4717
   80MOL0     O10713   9.747   1.195  10.500 -0.7566  0.0513  0.1741
   80MOL0     C10714   9.497   1.386  10.655 -0.5247  0.5696 -0.0754
   80MOL0     C10715   9.457   1.516  10.680  0.9089  0.1482 -0.1163
   80MOL0     N10716   9.297   2.188  11.053  0.4282  0.3298  0.5193
   80MOL0     N10717   9.336   2.246  11.159  0.4523  0.1485 -0.3336
   80MOL0     C10718  10.212   2.405  10.750  0.2836  0.3032 -0.1484
   80MOL0     C10719  10.284   2.386  10.634  0.5583  0.7421 -0.2549
   80MOL0     C10720  10.551   2.333  10.309  0.0874  0.5561 -0.2771
   80MOL0     C10721  10.509   2.413  10.201 -0.3609  0.3554 -0.6554
   80MOL0     C10722  10.565   2.405  10.065 -0.0171 -0.3099 -0.6692
   80MOL0     C10723  10.657   2.304  10.041 -0.0462 -0.2510 -0.1150
   80MOL0     O10724  10.701   2.298   9.910  0.5221  0.0796  0.4854
   80MOL0     C10725  10.797   2.192   9.896 -0.5961  0.4346  0.5600
   80MOL0     C10726  10.739   2.061   9.822  0.0804 -1.2630  0.4032
   80MOL0     C10727  10.609   2.012   9.878 -0.9899  0.0139  0.5805
   80MOL0     C10728  10.561   1.889   9.799  0.2837 -0.9431 -0.7458
   80MOL0     C10729  10.426   1.841   9.857 -0.2937 -0.2995 -0.1038
   80MOL0     C10730  10.330   1.800   9.916 -0.2342  0.1567  0.5754
   80MOL0     C10731  10.694   2.217  10.148  0.0586  0.2013  0.2708
   80MOL0     C10732  10.646   2.233  10.278  0.4208  0.0054  0.2995
   80MOL0     H10733  10.362   2.711  10.561 -6.1451 -1.1734 -5.5654
   80MOL0     H10734  10.239   2.746  10.755 -0.2807  0.7429 -0.0624
   80MOL0     H10735  10.204   2.712  11.015 -0.1811  0.3429  0.2118
   80MOL0     H10736  10.068   2.744  10.895  0.2362  0.8371 -0.0951
   80MOL0     H10737  10.073   2.612  11.161  1.4411  0.0972 -1.7489
   80MOL0     H10738   9.986   2.771  11.123 -2.3588  0.7322 -2.7802
   80MOL0     H10739   9.864   2.655  10.941  2.2497  1.1947  0.5860
   80MOL0     H10740   9.887   2.495  11.007 -3.4153 -0.6197 -1.6283
   80MOL0     H10741   9.762   2.589  11.222 -1.7832 -1.1272 -0.6761
   80MOL0     H10742   9.754   2.743  11.155 -0.3284  0.0180  1.0498
   80MOL0     H10743   9.604   2.659  10.980  3.5437 -0.7423 -2.4256
   80MOL0     H10744   9.641   2.493  11.030 -0.4831 -0.1802 -1.3839
   80MOL0     H10745   9.492   2.699  11.190  0.2107 -0.7646  0.0338
   80MOL0     H10746   9.421   2.578  11.081 -1.0803  1.4057 -0.7776
   80MOL0     H10747   9.573   2.541  11.352  0.7478 -1.3507 -0.5127
   80MOL0     H10748   9.402   2.508  11.325  1.8419  0.5393  4.0601
   80MOL0     H10749   9.532   2.314  11.348 -0.6346  4.8494  2.9620
   80MOL0     H10750   9.639   2.362  11.224  0.6834  2.7175  3.2816
   80MOL0     H10751   9.585   2.307  10.962 -1.5632  0.5502 -0.8380
   80MOL0     H10752   9.304   2.170  10.765 -0.6222 -1.5712  0.3409
   80MOL0     H10753   9.468   2.242  10.768  2.8209  0.0631  2.8776
   80MOL0     H10754   9.375   1.953  10.829 -0.2419  0.0312 -2.7056
   80MOL0     H10755   9.533   2.030  10.879 -0.2743 -1.1471  0.4933
   80MOL0     H10756   9.589   2.073  10.645 -0.0149  0.8909  0.8557
   80MOL0     H10757   9.436   1.988  10.593  0.0570  0.2100 -0.7685
   80MOL0     H10758   9.664   1.853  10.756 -0.3982  2.0725  0.4156
   80MOL0     H10759   9.640   1.841  10.580  0.6267  0.1618  0.3667
   80MOL0     H10760   9.772   1.657  10.640 -0.3785  1.3634  0.2205
   80MOL0     H10761   9.933   1.510  10.630  1.7942  0.3678 -1.6138
   80MOL0     H10762   9.898   1.332  10.606  0.5174 -0.2559 -1.0848
   80MOL0     H10763   9.886   1.451  10.470  1.1432  1.5465  0.3279
   80MOL0     H10764   9.748   0.961  10.766 -0.0252 -1.2727  0.2851
   80MOL0     H10765   9.774   0.699  10.700 -0.6578  1.4393  1.3842
   80MOL0     H10766   9.482   0.521  10.411 -0.2611  1.1150  3.9936
   80MOL0     H10767   9.610   0.574  10.315  0.7632  4.1566  2.2538
   80MOL0     H10768   9.642   0.335  10.504  2.3902  0.4526 -0.3414
   80MOL0     H10769   9.556   0.306  10.353 -2.2392  1.9582  0.8314
   80MOL0     H10770   9.780   0.249  10.354  0.0612  1.0478  4.3522
   80MOL0     H10771   9.838   0.415  10.410  0.4609  0.1661  1.3730
   80MOL0     H10772   9.695   0.418  10.148  0.0259  0.8169 -0.4109
   80MOL0     H10773   9.816   0.528  10.205 -0.8572  0.2280 -3.0431
   80MOL0     H10774   9.882   0.395  10.022  0.7845 -1.8488 -0.8959
   80MOL0     H10775   9.871   0.250  10.122  1.1785 -0.0867  2.6213
   80MOL0     H10776  10.046   0.505  10.136  0.6553 -0.2149 -3.5366
   80MOL0     H10777  10.046   0.397  10.274  0.3688 -0.3895  0.2521
   80MOL0     H10778  10.131   0.316   9.991 -1.1041  3.0855  0.4700
   80MOL0     H10779  10.149   0.215  10.131  0.1132 -1.1097 -0.5336
   80MOL0     H10780  10.353   0.298  10.077  0.2048 -1.7306  2.4861
   80MOL0     H10781  10.306   0.378  10.231 -2.1248  1.6812  0.6591
   80MOL0     H10782   9.507   0.752  10.373 -1.6448  1.4135 -0.1579
   80MOL0     H10783   9.476   1.001  10.447  2.4303  1.2042  0.1774
   80MOL0     H10784   9.417   1.313  10.651 -1.5024  1.6562 -0.7750
   80MOL0     H10785   9.352   1.536  10.699  1.5819  1.9837  2.1224
   80MOL0     H10786  10.177   2.320  10.808  3.1909 -0.7144  0.2847
   80MOL0     H10787  10.289   2.281  10.610  2.2801 -0.5863  4.7273
   80MOL0     H10788  10.427   2.482  10.218 -0.5643  0.2949 -1.3532
   80MOL0     H10789  10.532   2.480   9.994  0.8194  1.4629  0.7536
   80MOL0     H10790  10.873   2.236   9.832 -3.0822  1.1836 -2.1340
   80MOL0     H10791  10.855   2.172   9.986  0.1161 -3.6386 -0.5991
   80MOL0     H10792  10.818   1.985   9.823  3.1046  1.5508 -2.6900
   80MOL0     H10793  10.737   2.081   9.714  0.8588 -1.7563  0.2943
   80MOL0     H10794  10.536   2.091   9.857 -2.0948 -1.0870  0.1777
   80MOL0     H10795  10.605   1.994   9.986 -2.8052  0.9078  0.7116
   80MOL0     H10796  10.631   1.806   9.790 -1.5718 -2.7104  0.2657
   80MOL0     H10797  10.551   1.925   9.696  1.0045 -0.3548 -0.6158
   80MOL0     H10798  10.246   1.745   9.953 -0.0273 -2.2455 -2.1663
   80MOL0     H10799  10.757   2.129  10.148 -0.1565  0.0286 -0.9810
   80MOL0     H10800  10.676   2.160  10.352  0.0478 -0.6420 -0.1814
   81MOL0     O10801   2.330   5.060   3.152  0.2340  0.4938 -0.0118
   81MOL0     C10802   2.308   5.102   3.260 -0.4580  0.4430  0.0545
   81MOL0     O10803   2.222   5.208   3.294  0.0821  0.3944 -0.1260
   81MOL0     C10804   2.136   5.269   3.199  0.9011  0.1491  0.0644
   81MOL0     C10805   2.149   5.255   3.053  0.3558 -0.1351 -0.4878
   81MOL0     C10806   2.045   5.298   2.967  0.7320 -0.2163  0.5683
   81MOL0     C10807   1.931   5.368   3.020 -0.0418 -0.2806  0.5818
   81MOL0     O10808   1.831   5.426   2.947 -0.2794 -0.2163  0.2397
   81MOL0     C10809   1.813   5.367   2.824 -0.4187  0.3866  0.4576
   81MOL0     C10810   1.693   5.428   2.768  0.3634 -1.5607  0.5196
   81MOL0     C10811   1.562   5.370   2.834  0.9149  0.0155 -0.3283
   81MOL0     C10812   1.437   5.446   2.832  0.0829  0.4565  0.3151
   81MOL0     C10813   1.308   5.399   2.909 -0.1748 -0.2335  0.9413
   81MOL0     C10814   1.184   5.456   2.837  0.7003  0.2382  0.0132
   81MOL0     C10815   1.062   5.408   2.917  0.5299 -0.0140  0.0181
   81MOL0     C10816   1.022   5.476   3.055 -0.2381  0.6364  0.7928
   81MOL0     N10817   0.986   5.619   3.034  0.9096  0.0374  0.0066
   81MOL0     C10818   0.856   5.679   3.047  0.6891 -0.0859  0.4668
   81MOL0     C10819   0.871   5.810   3.026 -0.2002  0.5929 -0.3453
   81MOL0     C10820   0.764   5.913   3.024 -0.1031 -0.0044 -0.1954
   81MOL0     C10821   0.791   6.033   3.120 -0.0745 -0.3317  0.3915
   81MOL0     C10822   0.820   5.984   3.262  0.3086  0.1802  1.6612
   81MOL0     C10823   0.806   6.097   3.362  0.3084 -0.2866 -0.0043
   81MOL0     O10824   0.881   6.206   3.304 -0.2826 -0.3436  0.0747
   81MOL0     C10825   0.808   6.317   3.277 -0.0713  0.2037  0.8499
   81MOL0     C10826   0.797   6.365   3.143 -0.2266  0.1611 -0.0896
   81MOL0     C10827   0.712   6.477   3.117  0.0428  0.5814  0.3483
   81MOL0     C10828   0.714   6.518   2.967  0.2355  0.3910  0.1227
   81MOL0     C10829   0.633   6.529   3.220 -0.5342 -0.1302  0.1464
   81MOL0     C10830   0.536   6.637   3.203 -0.9554 -0.6987  0.8601
   81MOL0     O10831   0.464   6.666   3.310  0.0084  0.1490 -0.0841
   81MOL0     C10832   0.381   6.774   3.320  1.1281 -0.7817  0.2301
   81MOL0     C10833   0.416   6.882   3.403  0.0926  1.4149  0.0068
   81MOL0     C10834   0.323   6.985   3.439  0.5720 -0.2876  0.3493
   81MOL0     C10835   0.201   6.994   3.372  0.2661 -0.4350  0.0246
   81MOL0     O10836   0.114   7.098   3.398 -0.2017  0.6794  1.1290
   81MOL0     C10837   0.003   7.066   3.484  0.1368  0.3679 -0.6192
   81MOL0     C10838  -0.041   7.187   3.558  0.2819 -0.4069 -0.6170
   81MOL0     C10839  -0.116   7.153   3.690 -0.6003  0.0107 -0.6901
   81MOL0     C10840  -0.246   7.081   3.650  0.4457  0.2873 -0.4476
   81MOL0     C10841  -0.326   7.006   3.756 -0.4644 -0.4602 -0.6140
   81MOL0     C10842  -0.469   6.968   3.713 -0.6322 -0.0286  0.2643
   81MOL0     C10843  -0.537   6.871   3.800  0.7599  0.5503 -0.5369
   81MOL0     C10844  -0.657   6.803   3.746  0.2941  0.9557  0.4375
   81MOL0    Cl10845  -0.616   6.702   3.614 -0.3759  0.0070  0.3596
   81MOL0     C10846   0.173   6.893   3.282  0.3320 -0.4516  0.1527
   81MOL0     C10847   0.260   6.787   3.250  0.7143 -0.7098 -0.4546
   81MOL0     O10848   0.527   6.691   3.095  1.2171  0.6718 -0.5760
   81MOL0     C10849   0.650   6.480   3.344 -0.1565 -0.3726  0.8445
   81MOL0     C10850   0.738   6.373   3.378 -0.3204  0.5737 -1.2282
   81MOL0     N10851   1.006   5.829   3.001  0.1457 -0.2168 -0.3875
   81MOL0     N10852   1.071   5.714   2.999  0.2563 -0.3094 -0.4801
   81MOL0     C10853   1.938   5.395   3.159  0.2205 -0.0767 -1.5853
   81MOL0     C10854   2.036   5.351   3.252 -0.5730  0.0607  0.4016
   81MOL0     C10855   2.393   5.054   3.375 -0.2453  0.2839 -0.1353
   81MOL0     C10856   2.484   4.945   3.360  0.9089  0.0652  0.5963
   81MOL0     C10857   2.547   4.897   3.481  0.0370  0.4199  0.0440
   81MOL0     C10858   2.519   4.953   3.606 -0.8388  0.9485  0.6191
   81MOL0     O10859   2.570   4.904   3.725 -0.3012  0.0408  0.1206
   81MOL0     C10860   2.671   4.979   3.790  0.6552 -0.5210  0.3357
   81MOL0     C10861   2.612   5.041   3.915 -0.3355 -0.6797 -0.1582
   81MOL0     C10862   2.556   4.936   4.018  0.1771 -0.2724  0.0404
   81MOL0     C10863   2.664   4.824   4.052  0.3344  0.2572 -0.8975
   81MOL0     C10864   2.790   4.878   4.103  0.2285 -0.8351  0.0070
   81MOL0     C10865   2.886   4.930   4.149 -0.1458 -0.8720 -0.9428
   81MOL0     C10866   2.442   5.064   3.608  0.3852  0.3523 -0.1244
   81MOL0     C10867   2.376   5.113   3.496 -0.6971  0.1357 -0.4790
   81MOL0     H10868   2.232   5.215   2.995 -0.5312 -0.7873 -1.3306
   81MOL0     H10869   2.046   5.278   2.860 -1.2169  3.3234 -0.2533
   81MOL0     H10870   1.891   5.390   2.751 -1.6542  0.9788 -0.7399
   81MOL0     H10871   1.800   5.258   2.827  0.1133  0.3443  2.8483
   81MOL0     H10872   1.701   5.535   2.784 -1.6366 -1.2177 -0.3887
   81MOL0     H10873   1.684   5.408   2.660  0.4123 -1.6402  0.5298
   81MOL0     H10874   1.549   5.266   2.805  1.6908 -0.2845  0.3585
   81MOL0     H10875   1.595   5.359   2.938 -0.8909 -2.4846  0.0674
   81MOL0     H10876   1.456   5.542   2.879  3.7794 -1.4714  3.3407
   81MOL0     H10877   1.427   5.452   2.723  2.6389 -0.7496 -0.0560
   81MOL0     H10878   1.301   5.289   2.908  0.5534 -0.3270 -1.6514
   81MOL0     H10879   1.308   5.435   3.012 -1.4036  2.7078 -0.0096
   81MOL0     H10880   1.209   5.562   2.832 -1.9914  0.8609 -3.0933
   81MOL0     H10881   1.176   5.414   2.736  3.0839 -0.6204  0.1057
   81MOL0     H10882   0.971   5.412   2.855  1.1218 -4.7613 -1.5477
   81MOL0     H10883   1.068   5.304   2.951 -2.6118  0.6881  3.3170
   81MOL0     H10884   1.106   5.472   3.125 -0.0413  2.2690  0.6861
   81MOL0     H10885   0.934   5.429   3.100 -1.9838  2.4302 -0.6002
   81MOL0     H10886   0.765   5.621   3.054  1.4527 -1.2049  1.6523
   81MOL0     H10887   0.753   5.947   2.921  5.5025 -0.5943 -1.3305
   81MOL0     H10888   0.676   5.862   3.064  1.2434 -1.2788  1.2761
   81MOL0     H10889   0.702   6.093   3.141 -1.2742 -1.4587 -1.1750
   81MOL0     H10890   0.863   6.102   3.076  1.1555 -1.1384  1.0761
   81MOL0     H10891   0.925   5.951   3.257 -0.5486 -2.9381  2.0814
   81MOL0     H10892   0.754   5.904   3.297  1.2124 -0.6756  1.4760
   81MOL0     H10893   0.861   6.070   3.452 -0.1189 -2.0590 -0.2436
   81MOL0     H10894   0.709   6.134   3.395  1.5641  2.2539  1.1804
   81MOL0     H10895   0.856   6.312   3.069  1.9912 -1.3459  2.5429
   81MOL0     H10896   0.626   6.493   2.907  1.7450  0.2253 -2.1410
   81MOL0     H10897   0.743   6.623   2.962  1.8607 -0.0567 -0.7689
   81MOL0     H10898   0.797   6.473   2.912  1.7654  1.1410  1.7108
   81MOL0     H10899   0.519   6.880   3.435  0.9837 -1.1368 -2.6227
   81MOL0     H10900   0.347   7.058   3.516 -2.3385  0.5971  0.5566
   81MOL0     H10901  -0.079   7.018   3.429  1.7441 -0.4651 -2.3995
   81MOL0     H10902   0.037   6.996   3.560 -0.7153  0.3567 -0.2371
   81MOL0     H10903   0.042   7.258   3.570 -2.1093  2.2323  1.4787
   81MOL0     H10904  -0.099   7.247   3.488  0.2194 -1.6213 -1.6602
   81MOL0     H10905  -0.148   7.242   3.745 -1.9771 -0.4366 -0.7407
   81MOL0     H10906  -0.043   7.091   3.744 -0.2937  2.5514  2.1240
   81MOL0     H10907  -0.311   7.154   3.602  1.4692  1.7279  0.2937
   81MOL0     H10908  -0.228   7.008   3.571 -0.0734  1.9854 -2.1844
   81MOL0     H10909  -0.328   7.065   3.848 -0.9887 -2.4035  0.6794
   81MOL0     H10910  -0.277   6.908   3.763 -0.2293 -0.3562 -0.7973
   81MOL0     H10911  -0.535   7.055   3.705  1.8402  1.8719 -0.8779
   81MOL0     H10912  -0.449   6.933   3.612 -2.8620 -1.2129  0.1769
   81MOL0     H10913  -0.574   6.917   3.892  1.4485  2.2328 -1.0534
   81MOL0     H10914  -0.471   6.786   3.814 -0.4765 -1.2284 -4.1549
   81MOL0     H10915  -0.739   6.868   3.714 -1.3594 -1.6140 -0.9269
   81MOL0     H10916  -0.696   6.738   3.825 -0.2207  2.2403  1.2652
   81MOL0     H10917   0.074   6.898   3.238  0.2255  2.3089  0.4841
   81MOL0     H10918   0.236   6.714   3.174 -1.0618  0.2314 -0.8445
   81MOL0     H10919   0.587   6.530   3.417  0.8242  1.5530  0.4295
   81MOL0     H10920   0.752   6.353   3.484 -1.4983  1.7163 -0.8326
   81MOL0     H10921   1.863   5.460   3.204  0.0856 -0.9617 -0.4901
   81MOL0     H10922   2.026   5.372   3.358 -1.6805 -3.0407  1.0192
   81MOL0     H10923   2.518   4.911   3.262  1.2368  1.0423  0.3640
   81MOL0     H10924   2.633   4.831   3.472 -0.5667 -0.2347 -1.1552
   81MOL0     H10925   2.750   4.911   3.824  0.1523 -0.5212  1.5624
   81MOL0     H10926   2.697   5.064   3.726  1.5557 -2.2649 -1.7115
   81MOL0     H10927   2.541   5.120   3.888  0.7449  0.0944 -0.8527
   81MOL0     H10928   2.698   5.095   3.956 -0.9297 -1.7839  2.7795
   81MOL0     H10929   2.464   4.890   3.982 -0.1655 -0.2351  0.8489
   81MOL0     H10930   2.530   4.994   4.107 -0.2190  0.9218 -0.8369
   81MOL0     H10931   2.687   4.757   3.969 -0.6621 -4.8391  2.4567
   81MOL0     H10932   2.643   4.748   4.128 -2.2700 -0.1575 -1.9441
   81MOL0     H10933   2.982   4.953   4.191 -0.7680  0.8239 -0.3562
   81MOL0     H10934   2.405   5.115   3.696 -0.2194  0.4388 -0.4172
   81MOL0     H10935   2.312   5.198   3.519 -1.6710 -0.3613 -1.2734
   82MOL0     O10936   4.763   7.159   5.527 -0.2950  0.7760  0.3690
   82MOL0     C10937   4.792   7.053   5.583  0.1765 -0.6352 -0.2695
   82MOL0     O10938   4.892   6.969   5.547 -0.1713  0.3703 -0.4286
   82MOL0     C10939   4.977   6.985   5.440  0.8950  0.0920  0.5775
   82MOL0     C10940   4.956   7.066   5.327  0.3163 -0.3151  0.3404
   82MOL0     C10941   5.047   7.074   5.221 -0.2470 -0.0971  0.6878
   82MOL0     C10942   5.161   6.986   5.219 -0.7118  0.4994 -0.1816
   82MOL0     O10943   5.248   6.977   5.111 -0.4576 -0.4544  0.0873
   82MOL0     C10944   5.215   7.009   4.972  0.4108 -0.5750 -0.3998
   82MOL0     C10945   5.296   6.935   4.863 -0.7684 -0.8980 -0.1035
   82MOL0     C10946   5.445   6.943   4.877 -1.1782 -0.6816 -0.2363
   82MOL0     C10947   5.514   6.847   4.772 -0.9624 -0.6420  0.0329
   82MOL0     C10948   5.650   6.797   4.800 -0.3620  0.5331  0.5788
   82MOL0     C10949   5.675   6.675   4.711 -0.2282 -0.5508  0.3833
   82MOL0     C10950   5.814   6.621   4.721  0.3744  0.6604  0.2506
   82MOL0     C10951   5.839   6.582   4.867 -0.5601  0.2733 -0.3530
   82MOL0     N10952   5.918   6.460   4.876 -0.7208 -0.3317 -0.3624
   82MOL0     C10953   6.056   6.445   4.871 -0.8432 -0.2729  0.4627
   82MOL0     C10954   6.083   6.312   4.875 -1.5593 -0.7416  0.4899
   82MOL0     C10955   6.232   6.254   4.855  0.4868 -0.6532 -0.6168
   82MOL0     C10956   6.229   6.119   4.790  0.2714  0.0834  0.1358
   82MOL0     C10957   6.204   6.008   4.902 -0.3520  0.0188 -0.0918
   82MOL0     C10958   6.302   6.014   5.015  0.1716 -0.3063  0.0109
   82MOL0     O10959   6.430   5.969   4.965 -0.7103 -0.1459  0.6467
   82MOL0     C10960   6.510   5.895   5.053 -0.2623  0.4813 -0.7314
   82MOL0     C10961   6.510   5.910   5.196 -0.0527  0.4869 -0.2761
   82MOL0     C10962   6.590   5.834   5.287  0.6872 -0.2078  0.0056
   82MOL0     C10963   6.582   5.876   5.437 -0.0237  0.4800  1.3348
   82MOL0     C10964   6.662   5.728   5.228 -0.5095 -0.1602 -0.2253
   82MOL0     C10965   6.755   5.640   5.315 -0.1420  0.3502  0.2580
   82MOL0     O10966   6.752   5.622   5.455 -1.1335  0.3482 -0.1465
   82MOL0     C10967   6.848   5.552   5.520 -0.4319  0.2167 -0.1960
   82MOL0     C10968   6.869   5.415   5.504  0.5605 -0.8259  0.4307
   82MOL0     C10969   6.982   5.354   5.572  0.2182  0.5312 -0.5048
   82MOL0     C10970   7.074   5.429   5.635  0.1289  0.0235  0.3048
   82MOL0     O10971   7.195   5.377   5.677 -0.5635 -0.3757  1.1084
   82MOL0     C10972   7.285   5.447   5.764  0.7705  0.1524 -0.3633
   82MOL0     C10973   7.349   5.343   5.850  0.1226  0.1087 -0.9388
   82MOL0     C10974   7.288   5.316   5.988 -0.1839 -0.8343 -0.0637
   82MOL0     C10975   7.359   5.238   6.097  0.0112 -0.3970  0.1956
   82MOL0     C10976   7.409   5.103   6.050 -0.6801 -0.2840 -0.0558
   82MOL0     C10977   7.302   5.022   5.978 -0.0457  0.0730  0.1327
   82MOL0     C10978   7.388   4.899   5.921  0.8674  0.2462  0.0987
   82MOL0     C10979   7.288   4.811   5.839  0.1414 -0.4946  0.3759
   82MOL0    Cl10980   7.153   4.721   5.920 -0.1435  0.0835 -0.3102
   82MOL0     C10981   7.069   5.567   5.624  1.1708 -0.3473  0.0591
   82MOL0     C10982   6.949   5.629   5.572  0.8981 -1.0099  0.8290
   82MOL0     O10983   6.845   5.591   5.246 -0.0620  0.3034  0.0023
   82MOL0     C10984   6.661   5.707   5.084 -0.2389  0.2421 -0.3389
   82MOL0     C10985   6.590   5.792   5.002 -0.5518 -1.0844  0.7236
   82MOL0     N10986   5.963   6.239   4.862  0.3954 -0.5705 -0.9881
   82MOL0     N10987   5.866   6.333   4.876 -0.9257  0.3035 -0.2859
   82MOL0     C10988   5.184   6.899   5.327  0.3599 -0.1870  1.1002
   82MOL0     C10989   5.086   6.905   5.436 -0.4219  0.9058  0.4243
   82MOL0     C10990   4.714   7.026   5.709  0.0867  0.2287  0.6006
   82MOL0     C10991   4.735   6.909   5.784  0.0248  0.0976  0.1499
   82MOL0     C10992   4.658   6.874   5.894  0.8783 -0.1792  0.0544
   82MOL0     C10993   4.541   6.941   5.930  0.9153  0.6127  0.6386
   82MOL0     O10994   4.460   6.919   6.039  0.1942  0.0039  0.2633
   82MOL0     C10995   4.493   6.818   6.143  0.5916 -0.2455  0.0279
   82MOL0     C10996   4.490   6.877   6.289 -0.5260 -0.2808  0.1855
   82MOL0     C10997   4.354   6.927   6.330  0.3736  0.4318 -0.1469
   82MOL0     C10998   4.351   6.971   6.472  0.3565  0.4361  0.9687
   82MOL0     C10999   4.422   7.098   6.476 -0.1766 -0.5170 -0.3437
   82MOL0     C11000   4.481   7.196   6.480 -0.9287  0.8957  0.0882
   82MOL0     C11001   4.509   7.056   5.850  0.2817 -0.2114 -0.3766
   82MOL0     C11002   4.599   7.100   5.748  0.2153 -0.1461 -0.5905
   82MOL0     H11003   4.867   7.126   5.316  2.3258  2.7244 -0.8059
   82MOL0     H11004   5.033   7.145   5.140  1.0850  0.5022  0.9447
   82MOL0     H11005   5.109   6.985   4.963  0.4446 -0.5759 -0.7915
   82MOL0     H11006   5.231   7.117   4.960 -1.4115 -0.0825  1.1866
   82MOL0     H11007   5.269   6.831   4.883  1.1496 -0.9170  2.8614
   82MOL0     H11008   5.261   6.974   4.766 -0.7470 -0.4121  0.0788
   82MOL0     H11009   5.466   7.048   4.859 -2.2959 -0.4923 -0.4601
   82MOL0     H11010   5.487   6.912   4.973  2.6206  2.1001 -0.7738
   82MOL0     H11011   5.448   6.761   4.753  0.5091 -1.2455 -2.9541
   82MOL0     H11012   5.506   6.903   4.678 -2.3195 -1.2388 -0.2446
   82MOL0     H11013   5.719   6.872   4.762 -1.7746 -0.6126 -5.1729
   82MOL0     H11014   5.655   6.772   4.907 -3.5288  0.8393  0.9137
   82MOL0     H11015   5.603   6.599   4.739 -2.3195  1.8806  2.0914
   82MOL0     H11016   5.653   6.709   4.609 -1.2568  2.3346  1.4539
   82MOL0     H11017   5.816   6.527   4.665 -2.3509 -1.5171  3.3372
   82MOL0     H11018   5.884   6.700   4.691  0.9497 -0.4279 -1.4171
   82MOL0     H11019   5.750   6.570   4.928  0.2713  1.2848  1.1110
   82MOL0     H11020   5.899   6.654   4.923 -1.8356 -0.0685  1.5304
   82MOL0     H11021   6.131   6.523   4.859 -3.3574  2.1909 -0.1918
   82MOL0     H11022   6.283   6.316   4.780  3.2166 -0.8560  0.9738
   82MOL0     H11023   6.284   6.264   4.951 -3.5380  2.2851  1.5910
   82MOL0     H11024   6.325   6.107   4.738 -1.0227 -1.9107 -2.0223
   82MOL0     H11025   6.153   6.117   4.711 -1.3139 -2.1969  1.5851
   82MOL0     H11026   6.209   5.908   4.858 -0.9445 -2.3096  4.5258
   82MOL0     H11027   6.102   6.018   4.941  0.5389 -0.7131  2.6548
   82MOL0     H11028   6.260   5.944   5.088  0.8914 -1.6135 -0.7934
   82MOL0     H11029   6.303   6.111   5.067 -0.7667  1.1251 -2.4653
   82MOL0     H11030   6.450   5.987   5.243  0.0187  1.1761 -1.2952
   82MOL0     H11031   6.673   5.923   5.476  1.5071 -1.0102 -0.2720
   82MOL0     H11032   6.501   5.949   5.449  0.6791  1.6117 -0.4443
   82MOL0     H11033   6.573   5.788   5.502  0.3502 -1.7818 -1.4883
   82MOL0     H11034   6.791   5.360   5.451  0.5104  0.2007 -0.5958
   82MOL0     H11035   6.989   5.246   5.578 -0.7912  0.5217  4.3080
   82MOL0     H11036   7.359   5.511   5.714 -1.4540  2.6425 -0.7553
   82MOL0     H11037   7.226   5.502   5.837  3.0415 -0.1455  1.8181
   82MOL0     H11038   7.359   5.250   5.793 -1.7688 -0.1908 -0.8570
   82MOL0     H11039   7.449   5.380   5.873 -1.0350  3.0111 -0.0311
   82MOL0     H11040   7.184   5.281   5.985  1.0931 -5.2931  1.1784
   82MOL0     H11041   7.286   5.418   6.028 -3.0584  0.5541 -3.2112
   82MOL0     H11042   7.448   5.289   6.132  1.0255 -0.7454 -1.7003
   82MOL0     H11043   7.299   5.232   6.188  1.0118  2.8695  1.2047
   82MOL0     H11044   7.458   5.057   6.137  0.2770  2.8082  1.1653
   82MOL0     H11045   7.484   5.125   5.973 -1.6853  0.6112 -0.8068
   82MOL0     H11046   7.227   4.985   6.049 -2.0115 -0.0370 -1.8875
   82MOL0     H11047   7.251   5.072   5.894  0.1014 -1.3271 -0.8370
   82MOL0     H11048   7.435   4.842   6.002 -0.3255  0.8240  1.2230
   82MOL0     H11049   7.461   4.942   5.852  1.6822 -1.0478  0.1118
   82MOL0     H11050   7.358   4.734   5.804 -1.5723 -2.2994  0.7307
   82MOL0     H11051   7.246   4.869   5.756 -0.9766 -0.7130  0.7756
   82MOL0     H11052   7.143   5.639   5.657  0.2752 -0.4297  2.4825
   82MOL0     H11053   6.924   5.735   5.578 -0.4750 -1.3765  4.9000
   82MOL0     H11054   6.716   5.623   5.043 -3.0166 -0.5647 -2.6675
   82MOL0     H11055   6.574   5.771   4.897 -1.0774 -0.9384  0.7704
   82MOL0     H11056   5.268   6.832   5.315 -1.2286 -1.9255 -1.0406
   82MOL0     H11057   5.101   6.839   5.521  3.8738  0.9436 -0.1148
   82MOL0     H11058   4.818   6.844   5.759  0.3855  1.2899 -1.9508
   82MOL0     H11059   4.692   6.780   5.938  0.7156 -0.3284 -0.1344
   82MOL0     H11060   4.412   6.743   6.139 -1.3905  1.7266  1.0967
   82MOL0     H11061   4.590   6.774   6.119  0.4163 -2.0730  2.3007
   82MOL0     H11062   4.557   6.964   6.289 -0.2733 -0.4724 -0.1655
   82MOL0     H11063   4.531   6.795   6.349  0.5040 -0.5426 -0.8438
   82MOL0     H11064   4.283   6.845   6.317  1.9464 -1.1184  0.7352
   82MOL0     H11065   4.323   7.006   6.260 -2.0702 -2.4223 -2.5720
   82MOL0     H11066   4.400   6.905   6.544  0.6070  1.1021  1.4149
   82MOL0     H11067   4.246   6.978   6.504  0.0140  0.1953 -0.0705
   82MOL0     H11068   4.527   7.292   6.478 -3.1754  2.0592 -2.4125
   82MOL0     H11069   4.419   7.112   5.872 -1.0655 -0.3125 -4.7573
   82MOL0     H11070   4.571   7.182   5.682  0.3916 -0.6730 -1.3265
   83MOL0     O11071   2.749  11.233   6.128 -0.6192  0.5959 -0.1666
   83MOL0     C11072   2.692  11.262   6.027 -0.0713 -1.1160 -0.0062
   83MOL0     O11073   2.620  11.386   6.012  0.7220 -0.0600  0.5538
   83MOL0     C11074   2.673  11.508   6.067 -0.1760 -0.7225  0.7395
   83MOL0     C11075   2.582  11.617   6.063 -0.3892 -0.0177 -0.0946
   83MOL0     C11076   2.619  11.747   6.101  0.0726 -0.6149  1.4632
   83MOL0     C11077   2.745  11.766   6.160  0.3125  0.0704  0.9063
   83MOL0     O11078   2.761  11.899   6.196 -0.0823  0.6134 -0.1554
   83MOL0     C11079   2.883  11.935   6.263  0.7290 -0.2408  0.0321
   83MOL0     C11080   3.002  11.941   6.163  0.1093  0.2224  0.8004
   83MOL0     C11081   2.960  12.025   6.045  1.5984  0.7175  0.3181
   83MOL0     C11082   3.073  12.073   5.962 -0.9801  0.1141 -0.7404
   83MOL0     C11083   3.028  12.116   5.818  0.6077  0.7426 -0.4745
   83MOL0     C11084   3.143  12.177   5.739 -0.4686  0.2372  0.3937
   83MOL0     C11085   3.202  12.315   5.779 -0.1419 -0.2556 -0.5213
   83MOL0     C11086   3.106  12.432   5.768 -0.3490 -0.1469 -0.7143
   83MOL0     N11087   3.045  12.451   5.636 -0.8323  0.1081 -0.3397
   83MOL0     C11088   3.121  12.471   5.527 -0.4016 -0.4649  0.7747
   83MOL0     C11089   3.026  12.487   5.426 -0.9884 -0.8320 -0.4592
   83MOL0     C11090   3.043  12.487   5.276 -0.4709  0.1118 -0.6425
   83MOL0     C11091   3.085  12.614   5.205 -0.8435 -1.3803 -0.5493
   83MOL0     C11092   3.188  12.704   5.273  1.2131  0.8715  0.1577
   83MOL0     C11093   3.320  12.616   5.292  0.3284 -0.1276 -0.6118
   83MOL0     O11094   3.394  12.666   5.404  0.9831  0.0986  0.0069
   83MOL0     C11095   3.504  12.595   5.441 -0.5752  0.0413 -1.4053
   83MOL0     C11096   3.526  12.574   5.581  0.1273 -0.1014 -0.3719
   83MOL0     C11097   3.641  12.500   5.635  0.6310 -0.1034  0.2842
   83MOL0     C11098   3.646  12.494   5.791 -0.6107  0.2050  0.4333
   83MOL0     C11099   3.745  12.464   5.539  0.8052  0.1609 -0.1722
   83MOL0     C11100   3.877  12.420   5.574 -0.3083  0.5734  0.8871
   83MOL0     O11101   3.961  12.406   5.467 -0.1367 -0.4930 -0.4094
   83MOL0     C11102   4.092  12.379   5.490 -0.1471  0.0363  0.4596
   83MOL0     C11103   4.187  12.481   5.442 -0.2309  1.2203 -0.0103
   83MOL0     C11104   4.321  12.486   5.495  0.3291  0.5374 -0.9812
   83MOL0     C11105   4.368  12.375   5.571  0.7956  0.0485  0.1445
   83MOL0     O11106   4.496  12.377   5.618 -0.7424  0.7893  0.7168
   83MOL0     C11107   4.595  12.413   5.529  0.4570 -0.2506  0.9533
   83MOL0     C11108   4.731  12.398   5.613  1.1047  0.4487  0.6644
   83MOL0     C11109   4.751  12.513   5.714  0.2575  0.3959  0.4253
   83MOL0     C11110   4.888  12.503   5.785  0.5297 -1.0439  0.0822
   83MOL0     C11111   4.891  12.623   5.877 -0.2257  0.4773  0.2464
   83MOL0     C11112   5.029  12.658   5.939 -0.2217  0.0578  0.0379
   83MOL0     C11113   5.010  12.741   6.069  0.9787 -0.1778  0.0367
   83MOL0     C11114   4.981  12.677   6.198 -0.8390  0.0576 -0.0405
   83MOL0    Cl11115   5.109  12.557   6.231 -0.5358 -0.1751  0.4300
   83MOL0     C11116   4.275  12.276   5.605 -0.2568 -0.0760  0.8287
   83MOL0     C11117   4.139  12.278   5.573 -0.9900 -0.0047 -0.4047
   83MOL0     O11118   3.906  12.387   5.690  0.0226  0.3777  0.3129
   83MOL0     C11119   3.711  12.464   5.409 -0.1716 -1.1955  0.0977
   83MOL0     C11120   3.602  12.529   5.363  0.6142  0.5561 -0.5298
   83MOL0     N11121   2.905  12.471   5.481 -0.0097 -0.0537 -0.1050
   83MOL0     N11122   2.914  12.447   5.609  0.1636  0.3190  1.0480
   83MOL0     C11123   2.831  11.651   6.180 -0.4922  0.3688 -0.6254
   83MOL0     C11124   2.799  11.528   6.130 -0.5109 -0.1104  0.1503
   83MOL0     C11125   2.688  11.158   5.927 -0.3658 -0.0445 -0.0897
   83MOL0     C11126   2.647  11.182   5.796 -0.4500  0.2237  0.0279
   83MOL0     C11127   2.646  11.086   5.707 -0.5977  0.1965 -0.1744
   83MOL0     C11128   2.683  10.951   5.746  0.1324  0.7877 -0.4855
   83MOL0     O11129   2.673  10.843   5.668  0.5017  0.4722  0.2295
   83MOL0     C11130   2.630  10.859   5.536 -0.1812 -0.3289 -0.8000
   83MOL0     C11131   2.631  10.725   5.453  0.3017  0.1284  0.2604
   83MOL0     C11132   2.517  10.647   5.505 -0.3751  0.1404  0.0850
   83MOL0     C11133   2.498  10.508   5.443  0.1319 -0.5648  0.0521
   83MOL0     C11134   2.472  10.526   5.300  0.2359 -0.3847 -0.0363
   83MOL0     C11135   2.441  10.533   5.184 -0.6557 -0.6820 -0.9206
   83MOL0     C11136   2.733  10.933   5.880  0.4184  0.4350  0.5753
   83MOL0     C11137   2.724  11.034   5.969 -0.1136  0.0827  0.0445
   83MOL0     H11138   2.482  11.609   6.022 -0.3311 -1.9926  0.0420
   83MOL0     H11139   2.548  11.826   6.078 -1.3553 -1.8368  1.5184
   83MOL0     H11140   2.860  12.029   6.314  0.5516 -1.5034  2.4174
   83MOL0     H11141   2.895  11.868   6.348 -0.4310 -2.0084 -1.1337
   83MOL0     H11142   3.101  11.967   6.202  1.2253 -1.3544 -0.8001
   83MOL0     H11143   3.011  11.841   6.118 -3.8954 -0.1482  0.4829
   83MOL0     H11144   2.898  11.968   5.975  0.8969  1.1645  0.5593
   83MOL0     H11145   2.899  12.113   6.069  0.0822 -0.4430  0.9166
   83MOL0     H11146   3.122  12.159   6.008  2.4173 -2.5710  1.1981
   83MOL0     H11147   3.152  11.996   5.955 -0.7688  0.4613 -2.7340
   83MOL0     H11148   2.983  12.036   5.760  1.2323 -0.5756  0.7765
   83MOL0     H11149   2.951  12.194   5.821  1.0769  1.2005  0.1021
   83MOL0     H11150   3.226  12.107   5.723  0.0972  1.4329 -2.4915
   83MOL0     H11151   3.097  12.192   5.641 -0.6646 -1.4663  0.1863
   83MOL0     H11152   3.230  12.299   5.883  0.5125 -2.7253 -1.0104
   83MOL0     H11153   3.288  12.335   5.713 -1.8688 -3.1480 -4.0510
   83MOL0     H11154   3.164  12.518   5.802 -1.0730 -0.9261  2.9841
   83MOL0     H11155   3.033  12.402   5.844  1.4329 -1.2918  0.6638
   83MOL0     H11156   3.229  12.471   5.522 -0.4412  0.1952 -2.3348
   83MOL0     H11157   3.124  12.416   5.254  0.6173  1.1650 -0.1861
   83MOL0     H11158   2.955  12.462   5.217 -0.9443  0.9989 -0.3182
   83MOL0     H11159   2.992  12.672   5.199  0.2120  0.7124  1.7403
   83MOL0     H11160   3.127  12.584   5.109  5.1284 -2.1764  1.8506
   83MOL0     H11161   3.141  12.742   5.364  0.1827  2.9668 -1.1485
   83MOL0     H11162   3.227  12.792   5.221 -2.3075  2.4665 -0.0622
   83MOL0     H11163   3.378  12.608   5.199 -0.6278  2.9641 -1.6160
   83MOL0     H11164   3.306  12.510   5.313  2.5128 -0.0391  1.6624
   83MOL0     H11165   3.436  12.611   5.629 -1.2051 -0.8824 -2.1314
   83MOL0     H11166   3.691  12.403   5.833 -1.3642 -0.6100 -0.4620
   83MOL0     H11167   3.701  12.583   5.822 -0.1481  0.4295 -0.9584
   83MOL0     H11168   3.545  12.490   5.831 -0.1568  0.9632  1.7005
   83MOL0     H11169   4.132  12.557   5.386 -0.8477 -0.4254 -1.7341
   83MOL0     H11170   4.388  12.571   5.485  5.0325 -2.7173 -0.3366
   83MOL0     H11171   4.609  12.342   5.448 -1.8564  2.9457 -2.5935
   83MOL0     H11172   4.583  12.517   5.496  2.9950 -0.3698 -0.5704
   83MOL0     H11173   4.739  12.302   5.665 -2.8141 -1.9893 -2.6465
   83MOL0     H11174   4.810  12.393   5.538 -0.7190 -1.0872 -1.2757
   83MOL0     H11175   4.666  12.511   5.783 -1.3051 -0.3622 -1.4349
   83MOL0     H11176   4.738  12.604   5.655  1.0792  0.4812  0.3569
   83MOL0     H11177   4.905  12.409   5.837  0.8095 -0.2274  1.5265
   83MOL0     H11178   4.954  12.498   5.698 -1.1673 -1.7301 -1.2331
   83MOL0     H11179   4.827  12.613   5.966 -0.7491  0.9484 -0.0699
   83MOL0     H11180   4.861  12.719   5.834  0.5869  0.7484  0.2812
   83MOL0     H11181   5.077  12.566   5.975 -0.3652  1.0094  2.9644
   83MOL0     H11182   5.089  12.713   5.866 -0.9282 -0.4755 -0.9696
   83MOL0     H11183   4.943  12.824   6.045 -1.6349 -2.7221 -2.2326
   83MOL0     H11184   5.108  12.787   6.084  2.4330 -1.7592 -3.4985
   83MOL0     H11185   4.887  12.623   6.197  0.2542 -1.9357 -0.0150
   83MOL0     H11186   4.994  12.744   6.284 -0.3203  0.5707 -0.5040
   83MOL0     H11187   4.306  12.191   5.665 -0.0037 -0.0357  0.7530
   83MOL0     H11188   4.070  12.204   5.612  0.5623 -2.5320 -2.1689
   83MOL0     H11189   3.782  12.425   5.336  1.1981 -1.4529  1.5191
   83MOL0     H11190   3.590  12.535   5.255 -0.0665 -3.0438 -0.7784
   83MOL0     H11191   2.929  11.663   6.224  0.1577 -2.1187 -1.2442
   83MOL0     H11192   2.866  11.444   6.138  0.4514  0.7287  1.1704
   83MOL0     H11193   2.609  11.280   5.768 -1.0372  0.4142  1.3960
   83MOL0     H11194   2.608  11.130   5.615 -1.0928 -0.1509 -0.1425
   83MOL0     H11195   2.529  10.902   5.540  1.1582  3.0324  2.1386
   83MOL0     H11196   2.683  10.940   5.486 -0.0652 -1.0125 -1.8174
   83MOL0     H11197   2.725  10.671   5.471 -0.2165 -0.5581  0.9917
   83MOL0     H11198   2.616  10.750   5.348 -0.5504 -3.2248 -0.5384
   83MOL0     H11199   2.425  10.703   5.484  0.0946  0.5594 -0.9339
   83MOL0     H11200   2.536  10.618   5.609  2.6144  0.4030 -0.2763
   83MOL0     H11201   2.422  10.453   5.498 -0.4566  1.0957  0.9735
   83MOL0     H11202   2.596  10.460   5.454 -0.6527 -2.1355  0.4553
   83MOL0     H11203   2.425  10.545   5.079 -3.0991 -0.7374 -0.6144
   83MOL0     H11204   2.764  10.832   5.903 -1.2194 -0.6609 -1.5668
   83MOL0     H11205   2.756  11.016   6.072 -0.2780  1.5698  0.3719
   84MOL0     O11206  10.551   5.112   3.879  0.2311  0.0531 -0.2021
   84MOL0     C11207  10.619   5.217   3.901  0.6247  0.0158  0.4530
   84MOL0     O11208  10.726   5.268   3.831 -0.5930  0.2973 -0.7399
   84MOL0     C11209  10.782   5.206   3.722  0.3407  0.3308 -0.6824
   84MOL0     C11210  10.810   5.280   3.611  0.1491 -0.2764  0.5009
   84MOL0     C11211  10.876   5.216   3.500  0.0087  0.6392  0.4370
   84MOL0     C11212  10.916   5.089   3.508 -0.4079  0.4692  0.0860
   84MOL0     O11213  10.991   5.023   3.421 -0.1942 -0.1965  0.0461
   84MOL0     C11214  11.056   5.089   3.307 -0.9394  0.3099 -0.9177
   84MOL0     C11215  10.965   5.101   3.185 -1.0351 -0.4726  0.0493
   84MOL0     C11216  10.895   4.974   3.146 -0.0014 -1.1001 -1.0575
   84MOL0     C11217  10.971   4.873   3.077 -0.7489 -0.1035  0.2178
   84MOL0     C11218  10.954   4.869   2.923 -0.3059 -0.5724 -0.0779
   84MOL0     C11219  11.052   4.782   2.855  0.1695  0.2460 -0.5568
   84MOL0     C11220  11.014   4.727   2.720  0.2514 -0.0870  0.5383
   84MOL0     C11221  11.122   4.620   2.689  0.7440  0.6560  0.5487
   84MOL0     N11222  11.251   4.682   2.649  1.3791  0.4963  0.0998
   84MOL0     C11223  11.296   4.665   2.526 -0.0994  0.7737  0.5072
   84MOL0     C11224  11.434   4.665   2.540  0.5040  0.3581  0.8758
   84MOL0     C11225  11.530   4.634   2.430 -0.4350  1.2798  0.9238
   84MOL0     C11226  11.609   4.754   2.381 -0.5384  0.5526 -0.1193
   84MOL0     C11227  11.650   4.851   2.496  0.4207 -0.0237  0.3251
   84MOL0     C11228  11.731   4.969   2.450  0.0433  0.6961  0.6757
   84MOL0     O11229  11.646   5.073   2.399 -0.0620  1.1082 -1.3198
   84MOL0     C11230  11.668   5.199   2.430  0.0473  0.0986 -0.2792
   84MOL0     C11231  11.655   5.243   2.558  0.5072 -0.2916 -0.2147
   84MOL0     C11232  11.673   5.376   2.592 -0.1829 -0.5370  0.2098
   84MOL0     C11233  11.603   5.426   2.720 -0.6836 -0.1229  0.3225
   84MOL0     C11234  11.722   5.466   2.489 -0.0341 -0.1379  0.3938
   84MOL0     C11235  11.755   5.612   2.515  0.3519 -0.0189 -0.0579
   84MOL0     O11236  11.728   5.665   2.641  0.0379  0.5306 -0.4243
   84MOL0     C11237  11.761   5.791   2.671 -1.0722 -0.2475 -0.6473
   84MOL0     C11238  11.674   5.884   2.646  0.1961 -0.5590  0.0057
   84MOL0     C11239  11.689   6.015   2.684  0.1550 -1.1863 -0.0420
   84MOL0     C11240  11.805   6.043   2.761 -0.3187 -0.3237  0.0840
   84MOL0     O11241  11.820   6.176   2.790  0.0778  0.3185  0.9593
   84MOL0     C11242  11.758   6.291   2.703 -0.5405  0.2737  0.5911
   84MOL0     C11243  11.817   6.425   2.747 -0.0300  0.0180  0.1394
   84MOL0     C11244  11.768   6.541   2.662 -0.8959 -0.2274  0.0315
   84MOL0     C11245  11.870   6.665   2.651  0.4872  0.1815 -0.0575
   84MOL0     C11246  11.792   6.791   2.694  0.3420  0.0491 -1.1500
   84MOL0     C11247  11.753   6.797   2.838 -0.8608  0.0788 -0.3200
   84MOL0     C11248  11.681   6.928   2.863 -0.2940  0.3503 -0.4506
   84MOL0     C11249  11.543   6.941   2.815 -1.2754  0.8454  0.6043
   84MOL0    Cl11250  11.473   7.088   2.906  0.0444  0.6800  0.2887
   84MOL0     C11251  11.899   5.948   2.805  0.1395  0.0494 -0.2538
   84MOL0     C11252  11.874   5.818   2.760 -0.5201 -1.0300 -0.5909
   84MOL0     O11253  11.787   5.682   2.419  0.1150  0.6902 -0.2885
   84MOL0     C11254  11.754   5.407   2.366  1.1005 -0.8745 -0.1189
   84MOL0     C11255  11.728   5.277   2.338  0.5766  0.4038 -0.0529
   84MOL0     N11256  11.460   4.693   2.670 -0.3903  0.4692  0.1962
   84MOL0     N11257  11.358   4.696   2.735  0.2083  0.1842 -0.8558
   84MOL0     C11258  10.885   5.011   3.627 -0.6582 -0.3692  0.2523
   84MOL0     C11259  10.825   5.072   3.733  0.6106  0.1556 -0.0901
   84MOL0     C11260  10.576   5.293   4.019  0.8060  0.4694  0.4994
   84MOL0     C11261  10.544   5.426   4.015 -1.1185  0.4704  1.1255
   84MOL0     C11262  10.489   5.485   4.134  0.0105  0.0446 -0.2680
   84MOL0     C11263  10.485   5.414   4.255 -0.1139 -0.2971  0.1417
   84MOL0     O11264  10.448   5.479   4.368 -0.9036  0.0191 -0.0343
   84MOL0     C11265  10.542   5.585   4.397 -0.4682 -0.4053 -0.4871
   84MOL0     C11266  10.665   5.521   4.454  0.4681  0.4601 -1.1967
   84MOL0     C11267  10.635   5.474   4.600  0.1820  0.2210  0.5539
   84MOL0     C11268  10.758   5.438   4.665 -0.6726  0.0718 -0.3840
   84MOL0     C11269  10.817   5.314   4.602 -0.5131 -1.2174 -0.8223
   84MOL0     C11270  10.883   5.221   4.564 -0.4437 -0.2013 -0.1804
   84MOL0     C11271  10.534   5.285   4.265 -1.0311  0.5647  0.0652
   84MOL0     C11272  10.576   5.224   4.145  1.1065 -0.2167 -0.1680
   84MOL0     H11273  10.786   5.385   3.597  4.3206  0.5322 -2.5828
   84MOL0     H11274  10.903   5.260   3.405  2.0940 -0.3746  0.4886
   84MOL0     H11275  11.120   5.172   3.337  0.9851 -2.1089  2.2334
   84MOL0     H11276  11.125   5.006   3.287  0.7617  1.2080  0.8952
   84MOL0     H11277  10.899   5.189   3.187  1.0390  1.4171 -3.4412
   84MOL0     H11278  11.025   5.130   3.098 -0.1355  0.8839  1.0893
   84MOL0     H11279  10.860   4.929   3.239  1.0212 -1.0607 -0.6452
   84MOL0     H11280  10.814   5.003   3.078  0.7659 -0.7222 -1.8434
   84MOL0     H11281  11.078   4.885   3.099  0.0099 -3.0926 -1.3529
   84MOL0     H11282  10.937   4.778   3.119 -0.3439 -0.1927  0.3527
   84MOL0     H11283  10.859   4.824   2.894  0.4778 -3.3782  1.3908
   84MOL0     H11284  10.959   4.969   2.879  0.0229 -1.4122 -2.0680
   84MOL0     H11285  11.149   4.833   2.858  0.1018  0.3371  0.9939
   84MOL0     H11286  11.062   4.699   2.926  2.8421  0.7545 -0.2234
   84MOL0     H11287  10.909   4.697   2.718 -0.9557  3.7014 -0.5605
   84MOL0     H11288  11.026   4.802   2.641  1.5284 -2.3964 -1.6299
   84MOL0     H11289  11.077   4.553   2.615  2.8450  0.2638 -0.4281
   84MOL0     H11290  11.154   4.550   2.767  2.7770  0.0909 -0.7346
   84MOL0     H11291  11.244   4.639   2.434 -0.0753  1.4772  0.2873
   84MOL0     H11292  11.590   4.552   2.470 -1.1482 -0.2725 -1.0318
   84MOL0     H11293  11.468   4.607   2.344  0.7570  2.4380 -0.3633
   84MOL0     H11294  11.561   4.805   2.297 -0.6571 -0.6894 -0.8201
   84MOL0     H11295  11.697   4.708   2.335 -1.5739  0.1342 -1.7564
   84MOL0     H11296  11.692   4.795   2.580 -1.6461  1.3798  2.4104
   84MOL0     H11297  11.556   4.884   2.541 -1.2353 -2.7967 -0.8211
   84MOL0     H11298  11.808   4.941   2.378  0.1144 -0.5449  1.2211
   84MOL0     H11299  11.776   4.992   2.547  2.0685 -1.4699  0.3271
   84MOL0     H11300  11.607   5.180   2.632 -1.2201  0.4962 -0.6206
   84MOL0     H11301  11.678   5.425   2.800 -1.9351 -0.8103  1.5232
   84MOL0     H11302  11.543   5.516   2.703 -0.1520  0.1912  0.0604
   84MOL0     H11303  11.521   5.358   2.743  0.4811 -1.7336 -0.1523
   84MOL0     H11304  11.584   5.852   2.594  0.6591 -1.1055 -0.4779
   84MOL0     H11305  11.607   6.079   2.653  0.7234  0.3172  1.4203
   84MOL0     H11306  11.775   6.266   2.598 -0.5469  0.1922  0.6096
   84MOL0     H11307  11.649   6.288   2.706 -0.5724 -2.4960 -0.5358
   84MOL0     H11308  11.815   6.436   2.856  2.2151 -2.3481  0.5092
   84MOL0     H11309  11.923   6.408   2.729  0.7772 -1.7359  4.9739
   84MOL0     H11310  11.670   6.564   2.704 -0.0677  0.0743  1.8829
   84MOL0     H11311  11.744   6.521   2.557  0.5458 -2.3353  0.0564
   84MOL0     H11312  11.949   6.649   2.725 -0.7648 -0.0269  1.2889
   84MOL0     H11313  11.907   6.676   2.549  0.2643 -0.8283 -0.2613
   84MOL0     H11314  11.699   6.784   2.636  0.9274 -1.4836 -1.9623
   84MOL0     H11315  11.856   6.877   2.672  4.0009 -1.1772  3.2468
   84MOL0     H11316  11.707   6.703   2.871  0.4159 -0.0658  1.1292
   84MOL0     H11317  11.847   6.811   2.891 -1.1287  1.0657 -0.0936
   84MOL0     H11318  11.728   7.015   2.816  1.1055 -0.0688  0.1195
   84MOL0     H11319  11.683   6.934   2.973  2.8432 -2.4243 -0.1708
   84MOL0     H11320  11.478   6.860   2.852 -2.1938  0.6731 -1.2774
   84MOL0     H11321  11.530   6.939   2.707  1.5063 -2.4089  0.1512
   84MOL0     H11322  11.975   5.991   2.869 -1.8174  3.7028 -0.0851
   84MOL0     H11323  11.945   5.745   2.798 -0.0024  0.7807  2.2486
   84MOL0     H11324  11.814   5.470   2.302 -1.7589 -0.1223 -2.2291
   84MOL0     H11325  11.748   5.219   2.249 -2.0354  2.5389 -2.2073
   84MOL0     H11326  10.920   4.909   3.637 -1.9416 -1.1045 -2.0535
   84MOL0     H11327  10.805   5.012   3.821  2.7648  0.3647  0.5950
   84MOL0     H11328  10.552   5.488   3.926 -2.1742 -1.6754 -0.5529
   84MOL0     H11329  10.461   5.589   4.124 -0.1737  0.2410  1.7585
   84MOL0     H11330  10.546   5.660   4.318 -4.5356 -1.3159 -1.8129
   84MOL0     H11331  10.483   5.634   4.476 -1.4437  0.4794 -1.7294
   84MOL0     H11332  10.745   5.595   4.463  2.4597 -1.6865 -0.2598
   84MOL0     H11333  10.695   5.436   4.392  2.7166 -0.1746  0.6026
   84MOL0     H11334  10.562   5.393   4.589 -0.7416  1.1111 -0.1736
   84MOL0     H11335  10.581   5.548   4.660 -3.3529 -1.7183  0.0329
   84MOL0     H11336  10.747   5.419   4.772  0.9487 -2.2412 -0.5355
   84MOL0     H11337  10.826   5.523   4.664  0.1807 -0.5190  2.0635
   84MOL0     H11338  10.950   5.144   4.535 -0.1239  0.5217 -1.4648
   84MOL0     H11339  10.542   5.230   4.358  2.1395 -2.2482 -1.6269
   84MOL0     H11340  10.613   5.123   4.161 -0.5433 -0.5423  2.0653
   85MOL0     O11341  10.204   4.255   1.207 -0.1175 -0.2840  0.1442
   85MOL0     C11342  10.204   4.281   1.089 -0.1561 -0.5600  0.2000
   85MOL0     O11343  10.309   4.259   0.996  0.8207 -0.9662 -0.4831
   85MOL0     C11344  10.446   4.263   1.032  0.9453  1.0301  0.1595
   85MOL0     C11345  10.532   4.269   0.922  0.1108  0.2185 -0.2612
   85MOL0     C11346  10.669   4.271   0.930  0.3486  0.6239 -0.4023
   85MOL0     C11347  10.722   4.261   1.058 -0.5046 -0.4889  1.0211
   85MOL0     O11348  10.860   4.268   1.067  0.5194 -0.2227  0.8017
   85MOL0     C11349  10.930   4.222   1.187  0.1708  0.0641  0.6362
   85MOL0     C11350  11.068   4.163   1.176 -0.1261  1.2919 -0.0839
   85MOL0     C11351  11.164   4.260   1.113 -0.9454  0.5815 -0.1887
   85MOL0     C11352  11.303   4.206   1.094  0.0819  0.4098  0.5617
   85MOL0     C11353  11.402   4.289   1.023 -0.7530  0.3424 -0.0465
   85MOL0     C11354  11.537   4.223   1.008  0.2356  0.9715  0.7502
   85MOL0     C11355  11.609   4.191   1.142  0.2255 -0.6295  0.3542
   85MOL0     C11356  11.770   4.183   1.126  0.3968  0.1749 -0.3398
   85MOL0     N11357  11.849   4.172   1.253  0.4973  0.7908  0.7744
   85MOL0     C11358  11.805   4.117   1.372 -0.0628 -0.1899 -0.7008
   85MOL0     C11359  11.908   4.100   1.451  0.2252  0.4333 -0.5148
   85MOL0     C11360  11.905   4.056   1.596  0.8019 -1.0218  0.2715
   85MOL0     C11361  11.822   3.934   1.610  0.3215  1.0941  0.3360
   85MOL0     C11362  11.801   3.893   1.761  0.3351 -0.6007  0.7145
   85MOL0     C11363  11.935   3.861   1.837 -0.3191 -0.6864  0.5472
   85MOL0     O11364  11.983   3.970   1.918  0.2887  0.4069  0.3833
   85MOL0     C11365  12.055   3.941   2.025  0.0466  0.0459 -0.2372
   85MOL0     C11366  12.052   4.026   2.124 -1.0101 -0.2019  0.3812
   85MOL0     C11367  12.124   4.001   2.247 -0.1525 -0.3310 -1.0325
   85MOL0     C11368  12.105   4.105   2.352 -0.3699 -0.3281  1.1886
   85MOL0     C11369  12.200   3.870   2.261  0.5265 -0.0152 -0.0269
   85MOL0     C11370  12.282   3.831   2.383  0.5548 -0.7305  0.3803
   85MOL0     O11371  12.334   3.706   2.377  0.5285  0.4152 -0.0574
   85MOL0     C11372  12.435   3.673   2.462  1.6238  0.2350  0.0979
   85MOL0     C11373  12.410   3.589   2.568  0.0316  0.1301  0.3066
   85MOL0     C11374  12.512   3.544   2.657  0.0116  0.6624  0.4911
   85MOL0     C11375  12.643   3.590   2.637 -0.8050 -0.5598 -0.2455
   85MOL0     O11376  12.734   3.539   2.720  0.0366  0.7971  0.3744
   85MOL0     C11377  12.839   3.629   2.772  0.1060  0.0372  0.6638
   85MOL0     C11378  12.967   3.541   2.794 -0.4304  0.3246  0.2654
   85MOL0     C11379  13.101   3.615   2.836 -0.3062  0.3096  0.1329
   85MOL0     C11380  13.097   3.667   2.974 -0.1438  0.1058  0.0650
   85MOL0     C11381  13.231   3.747   3.011 -0.1689 -0.5398 -0.1911
   85MOL0     C11382  13.215   3.830   3.133 -0.8532 -0.0074  1.0418
   85MOL0     C11383  13.179   3.742   3.255 -0.6483  0.0828  0.8903
   85MOL0     C11384  13.238   3.796   3.387 -0.1217  0.0159  0.2314
   85MOL0    Cl11385  13.423   3.813   3.366 -0.1302  0.3441 -0.3033
   85MOL0     C11386  12.669   3.671   2.518 -0.5226 -0.9606 -1.1998
   85MOL0     C11387  12.571   3.716   2.441 -0.4497  0.0149 -0.0722
   85MOL0     O11388  12.291   3.907   2.484  0.8855 -0.6238  0.2856
   85MOL0     C11389  12.209   3.788   2.149  0.2302  0.2104  0.2092
   85MOL0     C11390  12.133   3.823   2.038 -1.0788  0.2090  0.6570
   85MOL0     N11391  12.017   4.153   1.389 -0.2402  0.2498  1.0725
   85MOL0     N11392  11.981   4.190   1.271  1.0634  0.0968 -0.3569
   85MOL0     C11393  10.645   4.261   1.175  0.8265 -0.8801 -0.3477
   85MOL0     C11394  10.509   4.262   1.159  0.4152  0.8665  0.9613
   85MOL0     C11395  10.070   4.307   1.033  0.2197  0.3174 -0.1380
   85MOL0     C11396   9.962   4.231   1.092  0.0585  0.5852  0.2186
   85MOL0     C11397   9.834   4.270   1.047  0.1198 -0.0826 -0.9581
   85MOL0     C11398   9.805   4.362   0.943  0.8709 -0.1369  0.6410
   85MOL0     O11399   9.675   4.393   0.908 -0.2337 -0.2804 -0.2777
   85MOL0     C11400   9.608   4.288   0.840 -0.0751  0.4583  0.3162
   85MOL0     C11401   9.532   4.343   0.715  0.0892 -0.3120  0.5658
   85MOL0     C11402   9.425   4.252   0.663  0.2167  0.3296  0.0776
   85MOL0     C11403   9.498   4.122   0.620  0.1872  0.3038 -0.0573
   85MOL0     C11404   9.407   4.033   0.554  0.7471 -0.1366  0.2664
   85MOL0     C11405   9.329   3.958   0.495  0.4652  0.1169 -0.3094
   85MOL0     C11406   9.915   4.424   0.885  0.1207 -0.4083  0.2325
   85MOL0     C11407  10.047   4.387   0.920  0.2894 -1.0718 -0.6069
   85MOL0     H11408  10.483   4.281   0.826 -1.2961 -2.4374  0.0555
   85MOL0     H11409  10.735   4.283   0.845  1.7349  1.1158  0.7259
   85MOL0     H11410  10.929   4.300   1.264  1.7493 -0.6114  1.3771
   85MOL0     H11411  10.874   4.141   1.235  0.0215  0.0926  0.5118
   85MOL0     H11412  11.100   4.138   1.278  0.0724  1.8142 -0.0161
   85MOL0     H11413  11.063   4.065   1.127 -2.1004  0.8863  0.8036
   85MOL0     H11414  11.118   4.289   1.018 -0.7092  0.5337 -0.3203
   85MOL0     H11415  11.170   4.353   1.170 -0.5281 -0.9971  2.5194
   85MOL0     H11416  11.344   4.181   1.193  0.7689 -2.2734 -0.3207
   85MOL0     H11417  11.302   4.105   1.054  0.8230  0.7279 -0.3020
   85MOL0     H11418  11.365   4.310   0.922  0.1327  1.8145 -0.0871
   85MOL0     H11419  11.404   4.379   1.085 -0.5831  0.0143  0.4299
   85MOL0     H11420  11.526   4.137   0.940 -0.0038  1.9233 -0.4488
   85MOL0     H11421  11.593   4.297   0.950 -0.2139 -0.9919 -2.4435
   85MOL0     H11422  11.590   4.284   1.196  1.6955  0.6316 -1.1887
   85MOL0     H11423  11.570   4.099   1.188 -3.0594  0.7604  0.6468
   85MOL0     H11424  11.802   4.274   1.075 -0.9516  0.2317 -1.1544
   85MOL0     H11425  11.799   4.108   1.052 -1.1553 -1.4781  0.6425
   85MOL0     H11426  11.700   4.110   1.399 -0.2722  3.7878  0.0037
   85MOL0     H11427  12.007   4.035   1.628  1.4377 -0.4901 -1.3090
   85MOL0     H11428  11.858   4.139   1.649  2.4300  1.0135 -1.2833
   85MOL0     H11429  11.865   3.849   1.556  3.2334 -0.9204  5.1609
   85MOL0     H11430  11.722   3.945   1.569 -0.4534  0.5740  2.0108
   85MOL0     H11431  11.734   3.806   1.756 -1.2206  0.4911  1.6319
   85MOL0     H11432  11.745   3.977   1.804  0.8245 -0.6450  1.4459
   85MOL0     H11433  12.005   3.839   1.757 -0.6280 -2.3933  0.7038
   85MOL0     H11434  11.919   3.769   1.894  1.6742 -1.0101  0.6544
   85MOL0     H11435  12.000   4.120   2.108  1.0081  0.6098 -2.1248
   85MOL0     H11436  12.017   4.166   2.333 -0.4578 -0.9826 -0.6087
   85MOL0     H11437  12.091   4.060   2.451 -1.5696 -0.5500  0.9233
   85MOL0     H11438  12.199   4.161   2.352  1.3195 -2.7601  4.9012
   85MOL0     H11439  12.311   3.547   2.585 -0.8692  0.3027 -3.5893
   85MOL0     H11440  12.486   3.479   2.740  0.8038 -0.2549  0.0410
   85MOL0     H11441  12.858   3.704   2.695  1.5682 -0.5324  0.4504
   85MOL0     H11442  12.800   3.684   2.858 -0.9341 -0.1262  0.3166
   85MOL0     H11443  12.945   3.460   2.863  1.2462 -0.5520 -0.1858
   85MOL0     H11444  12.997   3.498   2.698  1.5382  2.0680  0.0242
   85MOL0     H11445  13.122   3.703   2.773  2.2992  1.5615  2.5274
   85MOL0     H11446  13.189   3.551   2.841 -0.6812 -0.2843 -0.5743
   85MOL0     H11447  13.012   3.735   2.970 -0.1243  0.1179 -3.8750
   85MOL0     H11448  13.087   3.578   3.038 -1.4203 -2.2483 -3.1678
   85MOL0     H11449  13.254   3.808   2.923  0.5471 -1.6519 -0.7850
   85MOL0     H11450  13.318   3.681   3.012 -0.9600 -1.7361 -2.2118
   85MOL0     H11451  13.312   3.877   3.150 -0.6855 -0.3801  1.1407
   85MOL0     H11452  13.135   3.900   3.111 -1.4539 -1.3232 -1.3069
   85MOL0     H11453  13.207   3.638   3.238  1.1089  0.2559  2.3763
   85MOL0     H11454  13.070   3.739   3.268 -0.5068 -1.4713  2.0443
   85MOL0     H11455  13.203   3.723   3.461  1.1180 -0.4034  0.4249
   85MOL0     H11456  13.187   3.888   3.417 -0.9451 -0.9576  2.0103
   85MOL0     H11457  12.767   3.697   2.480 -2.3274  1.0822 -5.1162
   85MOL0     H11458  12.598   3.771   2.351  0.8318 -0.1491  0.1880
   85MOL0     H11459  12.264   3.695   2.138  1.8708  1.1983 -0.3656
   85MOL0     H11460  12.128   3.765   1.946 -0.1073 -1.2185  1.4709
   85MOL0     H11461  10.698   4.267   1.270  0.3650  4.2468 -0.1000
   85MOL0     H11462  10.445   4.253   1.246 -0.2534  1.3322  0.5353
   85MOL0     H11463   9.972   4.168   1.179 -2.2448  0.9687  0.8286
   85MOL0     H11464   9.762   4.223   1.114  3.6871 -1.8654  1.9623
   85MOL0     H11465   9.674   4.206   0.810  0.8770  2.2817 -3.0631
   85MOL0     H11466   9.533   4.254   0.912 -0.5218  1.1848  0.2029
   85MOL0     H11467   9.599   4.368   0.633 -0.9136 -1.3424 -0.6149
   85MOL0     H11468   9.473   4.433   0.736 -2.8597 -1.7945 -0.8228
   85MOL0     H11469   9.372   4.288   0.574  1.9876 -0.2610 -1.2772
   85MOL0     H11470   9.345   4.236   0.735 -2.3207 -0.5199 -2.7054
   85MOL0     H11471   9.539   4.067   0.705  1.0671  1.1435  0.0858
   85MOL0     H11472   9.589   4.134   0.561  3.3768 -1.0365  4.0623
   85MOL0     H11473   9.276   3.876   0.450  1.7822 -0.6285 -0.5802
   85MOL0     H11474   9.907   4.512   0.822  1.5360  0.7008  1.5374
   85MOL0     H11475  10.126   4.444   0.872 -1.1058  1.4285 -0.1375
   86MOL0     O11476  11.326   7.645   7.759  0.5972 -0.2711  0.1736
   86MOL0     C11477  11.447   7.625   7.793  0.2044 -0.6810  0.5623
   86MOL0     O11478  11.510   7.677   7.900 -0.5601 -0.4272  0.5637
   86MOL0     C11479  11.427   7.722   7.998 -0.4863 -0.5520  0.4590
   86MOL0     C11480  11.428   7.651   8.121  0.4431 -0.0411  0.1515
   86MOL0     C11481  11.349   7.690   8.233 -0.1291  0.0648 -0.5876
   86MOL0     C11482  11.279   7.809   8.230  0.0532 -0.2027  0.0886
   86MOL0     O11483  11.209   7.857   8.340 -0.1849 -0.1335  0.0703
   86MOL0     C11484  11.227   7.992   8.382 -0.1175  0.1694 -0.0292
   86MOL0     C11485  11.252   7.994   8.536  0.0258  0.3162  0.6450
   86MOL0     C11486  11.122   7.974   8.617  0.7967  0.2600 -0.7871
   86MOL0     C11487  11.141   7.998   8.764  0.8929  0.1080 -0.2894
   86MOL0     C11488  11.010   8.019   8.829  0.0353 -0.1814 -0.0869
   86MOL0     C11489  11.017   8.004   8.976  0.7940 -0.4652 -1.4115
   86MOL0     C11490  10.875   8.009   9.039  0.1842  0.0560 -0.4055
   86MOL0     C11491  10.801   8.145   9.030  0.4517 -0.3018  0.1361
   86MOL0     N11492  10.862   8.254   9.108 -0.0479  0.2596 -0.3781
   86MOL0     C11493  10.950   8.348   9.063  0.0129  0.1113 -0.7151
   86MOL0     C11494  10.991   8.406   9.178  0.4127 -0.3064 -0.4482
   86MOL0     C11495  11.101   8.508   9.175  0.3941 -0.1102  0.8638
   86MOL0     C11496  11.185   8.493   9.302 -0.0698  0.6904  0.6035
   86MOL0     C11497  11.127   8.563   9.422 -0.1298 -0.0264  0.4674
   86MOL0     C11498  11.201   8.523   9.551  0.7312  0.0628  0.3796
   86MOL0     O11499  11.144   8.589   9.666  0.9091 -0.5336 -0.3397
   86MOL0     C11500  11.193   8.555   9.787 -0.6498 -0.1847  0.1625
   86MOL0     C11501  11.312   8.467   9.814  0.3762 -0.4803 -0.1584
   86MOL0     C11502  11.340   8.446   9.948 -0.7715  0.4210  0.4662
   86MOL0     C11503  11.474   8.378   9.973  1.0671  0.5485 -0.1422
   86MOL0     C11504  11.276   8.513  10.055  0.6246  0.0005  0.1536
   86MOL0     C11505  11.330   8.525  10.196  0.2576  0.5614  0.1435
   86MOL0     O11506  11.322   8.637  10.266  0.1661 -0.0103  0.3554
   86MOL0     C11507  11.366   8.648  10.401 -0.2403  0.1278  0.4772
   86MOL0     C11508  11.499   8.626  10.433  0.1072  1.0857  0.9279
   86MOL0     C11509  11.536   8.625  10.563 -1.7019 -0.6888  0.3891
   86MOL0     C11510  11.442   8.642  10.664  0.1588  0.0257 -0.4757
   86MOL0     O11511  11.495   8.639  10.790 -0.3405 -0.4292  0.0752
   86MOL0     C11512  11.424   8.704  10.897  0.5816  0.9838 -0.5060
   86MOL0     C11513  11.502   8.701  11.033 -0.1981 -0.4225  0.0878
   86MOL0     C11514  11.537   8.559  11.060  0.2168 -0.2255 -0.5634
   86MOL0     C11515  11.594   8.534  11.195  1.1442  0.2878 -0.4562
   86MOL0     C11516  11.718   8.621  11.224  0.1234  0.3560 -0.8431
   86MOL0     C11517  11.826   8.590  11.131 -0.4034 -0.5661  0.5299
   86MOL0     C11518  11.909   8.462  11.169  0.7619 -0.0020  0.5518
   86MOL0     C11519  12.031   8.450  11.080  0.0731  0.5486  0.9134
   86MOL0    Cl11520  11.980   8.433  10.910 -0.2120  0.3362 -0.6178
   86MOL0     C11521  11.308   8.672  10.639 -0.7454  0.0867 -0.3002
   86MOL0     C11522  11.273   8.680  10.505  0.3879  0.3192  0.2039
   86MOL0     O11523  11.383   8.427  10.241 -0.2172 -0.2411  0.6080
   86MOL0     C11524  11.168   8.591  10.027 -0.3629  0.2533  0.0449
   86MOL0     C11525  11.120   8.613   9.894 -1.0342 -0.3053 -1.4320
   86MOL0     N11526  10.909   8.363   9.289 -0.0159 -0.1328  0.1077
   86MOL0     N11527  10.837   8.273   9.245 -0.3983  0.3095 -0.4615
   86MOL0     C11528  11.289   7.884   8.117 -0.6168 -0.6739 -0.3859
   86MOL0     C11529  11.352   7.845   8.002 -0.7886 -0.1889  0.0778
   86MOL0     C11530  11.520   7.518   7.710 -0.0619  0.3965 -0.2589
   86MOL0     C11531  11.450   7.398   7.681 -0.4862 -0.3406  0.0781
   86MOL0     C11532  11.525   7.302   7.615  0.3211 -0.1774 -0.6812
   86MOL0     C11533  11.655   7.325   7.565  0.2695  0.6883  0.2976
   86MOL0     O11534  11.734   7.229   7.512 -0.3208 -0.1664  0.7861
   86MOL0     C11535  11.703   7.091   7.537  0.1074 -0.3084  0.1383
   86MOL0     C11536  11.796   6.991   7.455  0.1247 -0.4035  0.5327
   86MOL0     C11537  11.757   6.847   7.477 -0.1715 -0.2203  0.4157
   86MOL0     C11538  11.640   6.804   7.402  0.1526  0.0485 -0.1458
   86MOL0     C11539  11.629   6.821   7.259 -0.7569  0.1803  1.1321
   86MOL0     C11540  11.623   6.841   7.140 -0.1365 -1.1805 -0.2715
   86MOL0     C11541  11.710   7.449   7.597 -1.0410 -0.1975  0.0985
   86MOL0     C11542  11.646   7.550   7.655  0.3458  0.1310  0.9085
   86MOL0     H11543  11.499   7.570   8.112  1.5762  1.0008 -0.6034
   86MOL0     H11544  11.339   7.633   8.325  2.4282 -1.8665 -1.3705
   86MOL0     H11545  11.316   8.033   8.334 -1.1313 -0.8722 -3.0735
   86MOL0     H11546  11.143   8.058   8.359 -2.3358 -1.5773  2.4202
   86MOL0     H11547  11.329   7.919   8.553 -0.1456 -0.0526 -0.1736
   86MOL0     H11548  11.290   8.095   8.557  0.3269 -0.3670  3.9318
   86MOL0     H11549  11.051   8.047   8.578  0.9140  2.9895  3.4501
   86MOL0     H11550  11.094   7.870   8.596  0.4664  0.5846 -2.0198
   86MOL0     H11551  11.183   7.902   8.795 -1.9978 -1.2483 -0.2461
   86MOL0     H11552  11.211   8.082   8.771  1.8152 -0.2490 -3.3866
   86MOL0     H11553  10.976   8.117   8.794 -1.8919 -0.1292  1.7237
   86MOL0     H11554  10.946   7.936   8.798  0.3063 -0.2007 -0.6071
   86MOL0     H11555  11.056   7.905   9.000  1.3211  0.6912  3.7328
   86MOL0     H11556  11.086   8.072   9.027 -0.6731  0.9285 -1.2011
   86MOL0     H11557  10.817   7.928   8.994  1.5452 -0.0300 -2.1044
   86MOL0     H11558  10.874   7.994   9.147 -1.3455 -0.2880 -0.4493
   86MOL0     H11559  10.697   8.135   9.064  0.7113 -0.3303  0.9447
   86MOL0     H11560  10.795   8.182   8.927 -0.6908  1.3157  0.7495
   86MOL0     H11561  10.966   8.367   8.958 -3.5088  0.0019 -1.3754
   86MOL0     H11562  11.163   8.492   9.085 -1.8346 -0.3588 -0.7074
   86MOL0     H11563  11.063   8.609   9.161 -2.1084 -1.1663 -0.6256
   86MOL0     H11564  11.285   8.533   9.280  0.7465 -1.5474 -0.0420
   86MOL0     H11565  11.194   8.386   9.320  2.0420  1.3050  4.2690
   86MOL0     H11566  11.020   8.540   9.419 -0.2689  0.6613 -1.0459
   86MOL0     H11567  11.150   8.670   9.410 -0.7508 -0.0421 -1.1763
   86MOL0     H11568  11.306   8.553   9.553  1.6351 -2.8497  0.3405
   86MOL0     H11569  11.208   8.415   9.559  3.0986 -0.1233 -2.5484
   86MOL0     H11570  11.362   8.410   9.737 -0.7874 -3.1768  0.9504
   86MOL0     H11571  11.506   8.335   9.877 -1.8552  0.1165 -1.0375
   86MOL0     H11572  11.538   8.459  10.008  1.0423  0.8474 -0.7641
   86MOL0     H11573  11.475   8.297  10.046 -0.3820 -0.1034 -0.7789
   86MOL0     H11574  11.569   8.612  10.352 -1.1806  1.6258 -0.3348
   86MOL0     H11575  11.638   8.623  10.600 -1.3789 -0.5532 -0.4865
   86MOL0     H11576  11.391   8.801  10.858  1.6099  0.9650 -1.4898
   86MOL0     H11577  11.339   8.636  10.906 -0.7815  2.1943 -3.0883
   86MOL0     H11578  11.594   8.759  11.025 -1.5474  1.6448 -1.7067
   86MOL0     H11579  11.455   8.747  11.121 -0.7979  2.6598 -1.7151
   86MOL0     H11580  11.599   8.519  10.979 -1.3824 -0.2148 -1.8468
   86MOL0     H11581  11.444   8.502  11.049 -0.2954 -0.1037  2.4056
   86MOL0     H11582  11.519   8.551  11.273  1.8722  1.0255  0.1057
   86MOL0     H11583  11.623   8.429  11.204  1.0992  0.1483 -1.7294
   86MOL0     H11584  11.755   8.598  11.324 -2.5890 -1.9200 -0.2442
   86MOL0     H11585  11.698   8.728  11.220  1.9261  0.8136  0.6812
   86MOL0     H11586  11.789   8.587  11.028  1.8624 -2.2525 -0.3230
   86MOL0     H11587  11.900   8.670  11.133  1.1020 -1.9146  2.2330
   86MOL0     H11588  11.843   8.375  11.164  1.9006 -0.9147  0.9250
   86MOL0     H11589  11.942   8.471  11.273  2.1257  1.2585  0.0418
   86MOL0     H11590  12.103   8.372  11.105  1.8555  2.3156  1.5617
   86MOL0     H11591  12.072   8.551  11.087 -0.3992  0.9592 -1.3691
   86MOL0     H11592  11.237   8.685  10.721  0.2791  1.7208  0.3732
   86MOL0     H11593  11.172   8.694  10.468  0.7643 -0.9722 -1.4104
   86MOL0     H11594  11.123   8.640  10.112  0.3539  2.6704 -0.8916
   86MOL0     H11595  11.037   8.681   9.878 -1.2566 -0.8834 -2.7820
   86MOL0     H11596  11.222   7.969   8.118 -1.8448 -1.5872 -1.2155
   86MOL0     H11597  11.340   7.893   7.905 -1.4073 -3.1360 -1.4227
   86MOL0     H11598  11.345   7.386   7.702 -0.6535  0.7994 -0.0646
   86MOL0     H11599  11.481   7.205   7.597 -1.8995  0.8532 -1.1549
   86MOL0     H11600  11.704   7.068   7.644  0.4151  0.6716  0.3551
   86MOL0     H11601  11.607   7.069   7.489  0.8071 -2.1174 -0.5074
   86MOL0     H11602  11.894   7.004   7.502  1.2519 -4.0813 -0.5012
   86MOL0     H11603  11.818   7.007   7.349  1.4031  1.0483  0.9736
   86MOL0     H11604  11.750   6.822   7.583 -0.2571  2.6669  1.1749
   86MOL0     H11605  11.845   6.790   7.446  0.9092  1.1973  0.7777
   86MOL0     H11606  11.551   6.853   7.443 -1.9607 -1.4873 -2.6588
   86MOL0     H11607  11.634   6.696   7.420  0.6869  0.0695  0.1894
   86MOL0     H11608  11.601   6.880   7.043  0.2525  1.1266  0.5094
   86MOL0     H11609  11.817   7.466   7.591 -0.9800  0.7472  2.7295
   86MOL0     H11610  11.698   7.644   7.668 -1.5816  1.3344  0.3480
   87MOL0     O11611   5.698   4.537   7.770  0.3357  0.0877 -1.2709
   87MOL0     C11612   5.706   4.527   7.889  0.4782  0.2026 -1.2974
   87MOL0     O11613   5.601   4.501   7.973  0.0017  0.5104 -1.2843
   87MOL0     C11614   5.469   4.515   7.927  0.1474 -0.6079  0.9560
   87MOL0     C11615   5.369   4.421   7.972 -0.2459  0.1217  0.0828
   87MOL0     C11616   5.235   4.438   7.939 -0.0811 -0.2173  0.4794
   87MOL0     C11617   5.189   4.551   7.871 -0.5802  0.2826 -0.2471
   87MOL0     O11618   5.054   4.580   7.863 -0.1914 -0.8683 -0.0308
   87MOL0     C11619   4.999   4.524   7.744  0.4928 -1.1787  1.3726
   87MOL0     C11620   4.852   4.502   7.767  0.2011  0.4816 -0.7030
   87MOL0     C11621   4.764   4.638   7.779 -0.3596  0.5286 -0.6893
   87MOL0     C11622   4.634   4.624   7.703  0.3602 -0.4086 -0.3606
   87MOL0     C11623   4.548   4.753   7.718  0.3733  0.0162  0.7615
   87MOL0     C11624   4.621   4.880   7.664 -0.1836  0.9111  0.4152
   87MOL0     C11625   4.528   4.997   7.673  0.3897 -0.5178 -0.2241
   87MOL0     C11626   4.609   5.117   7.626  0.1944 -0.3836  0.1329
   87MOL0     N11627   4.524   5.239   7.630 -0.7361  0.3877  0.1566
   87MOL0     C11628   4.429   5.269   7.535 -0.1610  0.3350 -0.6746
   87MOL0     C11629   4.364   5.382   7.578 -0.4335 -0.2351  0.9488
   87MOL0     C11630   4.244   5.440   7.509 -0.0420 -0.7713  1.7689
   87MOL0     C11631   4.180   5.555   7.572 -0.0229 -0.2144  0.0771
   87MOL0     C11632   4.089   5.515   7.698 -0.6912 -0.7454  0.5475
   87MOL0     C11633   4.028   5.629   7.798 -0.2031 -1.0964 -0.5723
   87MOL0     O11634   3.938   5.568   7.885  0.3309  0.2402  0.3189
   87MOL0     C11635   3.984   5.487   7.984  0.0967 -1.4157  0.0286
   87MOL0     C11636   3.883   5.409   8.041  1.0077 -0.5641  0.1202
   87MOL0     C11637   3.922   5.312   8.136  0.7367  0.8833  0.2913
   87MOL0     C11638   3.810   5.240   8.199 -0.2214 -0.8918  1.1678
   87MOL0     C11639   4.054   5.301   8.191 -0.4942 -0.7008  1.9413
   87MOL0     C11640   4.097   5.218   8.303 -0.0617  0.2429  0.2800
   87MOL0     O11641   4.222   5.166   8.291  0.6026  0.5823 -0.8393
   87MOL0     C11642   4.289   5.089   8.382 -0.5843 -0.2458  0.3521
   87MOL0     C11643   4.262   5.057   8.510  0.3631 -0.0047  0.6805
   87MOL0     C11644   4.337   4.970   8.578 -0.6809  0.5455 -0.1377
   87MOL0     C11645   4.456   4.912   8.524 -0.6993 -0.3098  0.6812
   87MOL0     O11646   4.537   4.830   8.595  0.5183 -0.1778  0.4454
   87MOL0     C11647   4.679   4.839   8.564 -0.9940  0.0280 -0.6991
   87MOL0     C11648   4.767   4.830   8.684  0.3069 -0.0109 -0.1464
   87MOL0     C11649   4.916   4.813   8.649  0.1909  0.4074 -0.1612
   87MOL0     C11650   4.976   4.728   8.759  0.1396  0.0331  0.5983
   87MOL0     C11651   5.123   4.699   8.721  0.4537 -0.1773  0.0205
   87MOL0     C11652   5.177   4.594   8.820 -0.2175 -0.5643 -0.7280
   87MOL0     C11653   5.330   4.581   8.798  0.6519 -0.5962  0.0800
   87MOL0     C11654   5.367   4.449   8.870  1.0701 -0.7342 -0.5561
   87MOL0    Cl11655   5.535   4.400   8.811 -0.1253 -0.1687 -0.0490
   87MOL0     C11656   4.486   4.946   8.387 -0.1887  0.4058 -0.0003
   87MOL0     C11657   4.407   5.042   8.325  0.2270 -0.6959  0.0242
   87MOL0     O11658   4.019   5.195   8.394 -0.0439  0.6988  0.2299
   87MOL0     C11659   4.154   5.382   8.132 -0.4868 -0.5336  0.8223
   87MOL0     C11660   4.122   5.470   8.026 -0.0943 -0.4278  0.0120
   87MOL0     N11661   4.420   5.414   7.703  0.4400 -0.1453  0.6232
   87MOL0     N11662   4.519   5.326   7.728 -0.3784  0.9924 -0.3128
   87MOL0     C11663   5.279   4.646   7.828  0.5819  0.3105 -0.1786
   87MOL0     C11664   5.425   4.625   7.848 -0.3669  0.2820 -0.0894
   87MOL0     C11665   5.841   4.523   7.947 -0.2945  0.7978  0.4661
   87MOL0     C11666   5.952   4.489   7.865 -0.2329  1.1464 -0.7528
   87MOL0     C11667   6.080   4.476   7.918  0.2756 -0.0847  0.2042
   87MOL0     C11668   6.099   4.511   8.054  0.6540  0.7755  0.7916
   87MOL0     O11669   6.222   4.493   8.108  0.0749 -0.7692 -0.0273
   87MOL0     C11670   6.275   4.603   8.179  0.2259 -0.3638  0.6416
   87MOL0     C11671   6.316   4.712   8.086 -0.1103 -0.6654 -1.3679
   87MOL0     C11672   6.381   4.827   8.168  1.3374  0.3784  0.6106
   87MOL0     C11673   6.484   4.918   8.102  0.4585 -0.1274  0.6720
   87MOL0     C11674   6.533   5.025   8.189  0.0272 -0.2379 -0.4576
   87MOL0     C11675   6.576   5.104   8.270 -1.4920 -0.7082 -0.6291
   87MOL0     C11676   5.992   4.540   8.137 -0.0762 -0.4978 -0.1771
   87MOL0     C11677   5.863   4.549   8.084  0.2148 -0.4281 -0.0537
   87MOL0     H11678   5.404   4.325   8.009 -1.0646 -0.7743 -1.4066
   87MOL0     H11679   5.159   4.374   7.983 -1.2026  2.0446  2.0466
   87MOL0     H11680   5.012   4.592   7.659  0.9740 -3.0678 -0.1453
   87MOL0     H11681   5.043   4.426   7.722  0.9403 -0.4753 -1.2822
   87MOL0     H11682   4.811   4.463   7.673  4.2153  3.4742 -4.0480
   87MOL0     H11683   4.840   4.433   7.851  2.9401  0.8102  0.0581
   87MOL0     H11684   4.732   4.656   7.882 -2.1288  4.7449 -1.7658
   87MOL0     H11685   4.826   4.726   7.764 -2.2479  2.1011  0.3076
   87MOL0     H11686   4.631   4.612   7.595 -2.2387 -2.9711 -0.1392
   87MOL0     H11687   4.580   4.541   7.750 -1.7313  2.7551  3.4804
   87MOL0     H11688   4.453   4.746   7.664  0.6184 -0.5396  0.3887
   87MOL0     H11689   4.523   4.764   7.824  0.8534 -1.2828  1.0305
   87MOL0     H11690   4.703   4.902   7.734  0.7719  0.8133 -0.6413
   87MOL0     H11691   4.666   4.859   7.566  0.4693 -3.0802  1.4073
   87MOL0     H11692   4.438   4.983   7.612 -1.6245  1.7999  2.0039
   87MOL0     H11693   4.495   5.011   7.776 -1.2919  2.0702 -1.0252
   87MOL0     H11694   4.645   5.101   7.524  3.0135 -1.5744  1.2142
   87MOL0     H11695   4.701   5.133   7.683 -0.9629 -2.8646  2.9645
   87MOL0     H11696   4.424   5.226   7.436  1.6093 -1.4415 -0.0698
   87MOL0     H11697   4.274   5.475   7.410 -0.9395  0.9825  2.0829
   87MOL0     H11698   4.182   5.351   7.496  1.0688 -1.2633 -0.7196
   87MOL0     H11699   4.118   5.607   7.499  0.5664 -0.9059 -0.9394
   87MOL0     H11700   4.261   5.619   7.606  0.0573 -0.3949  0.2345
   87MOL0     H11701   4.137   5.432   7.751  0.1220 -0.7289 -0.1432
   87MOL0     H11702   4.005   5.457   7.657  2.6468 -5.3661 -0.5190
   87MOL0     H11703   3.967   5.699   7.739 -0.4234  0.6599  1.6146
   87MOL0     H11704   4.109   5.680   7.850 -0.7855 -0.9155  0.1734
   87MOL0     H11705   3.777   5.416   8.017  0.5001  0.1622  2.3768
   87MOL0     H11706   3.726   5.217   8.133 -1.0833  1.0462  1.5035
   87MOL0     H11707   3.846   5.143   8.235  3.1287 -0.4050 -0.4754
   87MOL0     H11708   3.769   5.311   8.272 -0.9401  0.1609 -0.2121
   87MOL0     H11709   4.175   5.091   8.565 -0.3723 -1.5797  0.5629
   87MOL0     H11710   4.311   4.934   8.678  0.7613  0.1114  0.1074
   87MOL0     H11711   4.710   4.760   8.495 -0.6840 -2.5512  2.2034
   87MOL0     H11712   4.703   4.939   8.527 -0.9286  1.1621  2.1369
   87MOL0     H11713   4.761   4.920   8.746  0.2129 -1.8138  2.6097
   87MOL0     H11714   4.740   4.747   8.750  1.5023  0.2524  0.7138
   87MOL0     H11715   4.974   4.905   8.637 -1.2136  1.5024  1.0937
   87MOL0     H11716   4.912   4.747   8.562 -1.8586 -0.9664  0.9101
   87MOL0     H11717   4.979   4.780   8.855  1.5477  1.0915  0.0323
   87MOL0     H11718   4.923   4.634   8.770  2.2311 -1.5809 -1.8110
   87MOL0     H11719   5.176   4.794   8.733 -1.1955  0.5458  2.4361
   87MOL0     H11720   5.127   4.669   8.616  0.3271  1.9274 -0.6216
   87MOL0     H11721   5.156   4.643   8.915 -1.5474  2.5538 -2.4633
   87MOL0     H11722   5.118   4.503   8.808 -1.7958  0.0187  1.8570
   87MOL0     H11723   5.387   4.664   8.841 -0.8653 -0.7070  2.4646
   87MOL0     H11724   5.339   4.563   8.691 -2.1765 -2.2334  0.0123
   87MOL0     H11725   5.293   4.373   8.841 -0.5162  1.4915 -2.7828
   87MOL0     H11726   5.374   4.468   8.977  0.4209  1.1787 -0.8183
   87MOL0     H11727   4.567   4.904   8.328 -2.4679 -1.7466 -1.8105
   87MOL0     H11728   4.437   5.067   8.224 -1.8623  0.4037 -0.3644
   87MOL0     H11729   4.256   5.380   8.168  1.4258 -0.8754 -3.9867
   87MOL0     H11730   4.206   5.532   7.998 -0.3776 -0.3350 -0.6623
   87MOL0     H11731   5.242   4.739   7.785 -2.4335 -1.3606 -1.4669
   87MOL0     H11732   5.489   4.709   7.822 -2.8665  3.4434  2.9186
   87MOL0     H11733   5.931   4.455   7.764 -4.1004  1.1448 -0.0922
   87MOL0     H11734   6.174   4.449   7.871 -0.4171  1.9234 -2.6551
   87MOL0     H11735   6.208   4.648   8.253 -0.4287 -2.2657  1.2695
   87MOL0     H11736   6.356   4.562   8.241  1.5320 -0.7492 -1.2495
   87MOL0     H11737   6.244   4.763   8.022  0.7073  2.3199 -0.0690
   87MOL0     H11738   6.399   4.671   8.029  0.6061  1.2954 -1.8133
   87MOL0     H11739   6.417   4.804   8.268  0.2032  0.8472  1.1520
   87MOL0     H11740   6.288   4.880   8.192 -1.2315 -2.3529 -2.2476
   87MOL0     H11741   6.440   4.964   8.014  3.3148  0.3690 -0.6135
   87MOL0     H11742   6.573   4.866   8.065  0.6098  0.4623  0.1818
   87MOL0     H11743   6.617   5.160   8.351  0.5986 -1.1733 -1.2891
   87MOL0     H11744   5.995   4.568   8.242  2.0196 -1.6609  0.1281
   87MOL0     H11745   5.786   4.573   8.157 -0.4404  1.4792 -1.3054
   88MOL0     O11746   3.899   6.717   7.178  0.5165  0.0745  1.0766
   88MOL0     C11747   3.868   6.630   7.263  0.0152 -0.2228  0.1218
   88MOL0     O11748   3.757   6.644   7.344  0.2595 -0.3976 -0.0136
   88MOL0     C11749   3.692   6.764   7.339  0.5950  0.2760 -0.8705
   88MOL0     C11750   3.625   6.795   7.222 -0.3342  0.1260 -0.3712
   88MOL0     C11751   3.537   6.903   7.214 -0.2258  0.3450 -0.0048
   88MOL0     C11752   3.512   6.977   7.327 -0.7217 -0.4769 -0.4447
   88MOL0     O11753   3.411   7.069   7.334  0.4396 -0.1611  1.0605
   88MOL0     C11754   3.432   7.193   7.265 -0.5259  0.2885 -0.2660
   88MOL0     C11755   3.302   7.231   7.193 -0.1733  0.1620 -0.5239
   88MOL0     C11756   3.269   7.176   7.055  0.6138 -0.3705 -0.3279
   88MOL0     C11757   3.368   7.200   6.942 -0.7720  0.2335 -0.8489
   88MOL0     C11758   3.315   7.151   6.810 -0.3196  0.0749 -0.4826
   88MOL0     C11759   3.413   7.153   6.689  0.8746 -0.5179 -0.5182
   88MOL0     C11760   3.356   7.083   6.573  0.0537 -0.2830  0.8157
   88MOL0     C11761   3.431   7.121   6.438  0.5476  0.2976 -0.1149
   88MOL0     N11762   3.405   7.014   6.337 -0.6637  0.4198 -0.4603
   88MOL0     C11763   3.487   6.907   6.335  0.7244  0.8087  0.6082
   88MOL0     C11764   3.426   6.825   6.241  0.1306 -0.2199  1.0404
   88MOL0     C11765   3.480   6.698   6.179 -0.4999 -0.0906 -0.0620
   88MOL0     C11766   3.377   6.604   6.127  0.6935  0.7193 -0.0461
   88MOL0     C11767   3.427   6.475   6.052 -1.0841  0.3333 -0.1846
   88MOL0     C11768   3.500   6.375   6.135 -0.0391  0.7194 -0.2301
   88MOL0     O11769   3.432   6.343   6.260  0.5803  0.8532  0.6979
   88MOL0     C11770   3.310   6.296   6.262  0.5618  0.1107 -0.3452
   88MOL0     C11771   3.253   6.213   6.164  0.7647  0.3055 -0.4073
   88MOL0     C11772   3.113   6.194   6.164 -0.3847  0.0656  0.2816
   88MOL0     C11773   3.063   6.111   6.053  0.5035 -0.3224 -0.6977
   88MOL0     C11774   3.034   6.229   6.278  0.3867 -0.7730 -0.0852
   88MOL0     C11775   2.893   6.193   6.296 -0.1223  0.3321  1.4430
   88MOL0     O11776   2.845   6.172   6.421  0.1876 -0.3652  0.0736
   88MOL0     C11777   2.709   6.166   6.439  0.2952 -0.9766 -1.1985
   88MOL0     C11778   2.647   6.055   6.490 -0.2020  0.5541  0.0985
   88MOL0     C11779   2.523   6.051   6.557 -0.3394  0.1756  0.4104
   88MOL0     C11780   2.465   6.174   6.566  0.2010  0.1785  0.3895
   88MOL0     O11781   2.354   6.166   6.624  0.4934 -0.0288 -0.9094
   88MOL0     C11782   2.355   6.251   6.742  0.4280  0.3617  1.0725
   88MOL0     C11783   2.389   6.172   6.864 -0.0639  0.1071  0.6299
   88MOL0     C11784   2.356   6.234   6.997 -0.5194  0.3798  0.7117
   88MOL0     C11785   2.202   6.228   7.019 -0.2406 -0.5090 -0.2512
   88MOL0     C11786   2.179   6.245   7.169  0.5328  0.1496  0.5973
   88MOL0     C11787   2.022   6.259   7.188 -0.1934  1.2715 -0.2114
   88MOL0     C11788   2.001   6.245   7.343 -0.2591  0.6579  0.1486
   88MOL0     C11789   1.862   6.296   7.376 -0.4980 -0.1932  0.0672
   88MOL0    Cl11790   1.832   6.282   7.554  0.0908 -0.3741  0.1593
   88MOL0     C11791   2.514   6.288   6.513  0.6497  0.0989  0.4473
   88MOL0     C11792   2.636   6.284   6.445  0.0042  0.7548  0.6764
   88MOL0     O11793   2.827   6.164   6.197 -0.0294 -0.5718 -0.3475
   88MOL0     C11794   3.094   6.302   6.378 -0.3004 -0.7081  0.4922
   88MOL0     C11795   3.229   6.334   6.373 -0.4323 -0.4397  0.1993
   88MOL0     N11796   3.305   6.883   6.204  0.1468  0.2016  0.4022
   88MOL0     N11797   3.299   6.999   6.259 -0.1910  0.2978  1.2136
   88MOL0     C11798   3.583   6.953   7.445 -0.3933 -0.2008  0.1615
   88MOL0     C11799   3.660   6.834   7.459  0.6755  0.0693  0.3190
   88MOL0     C11800   3.948   6.506   7.271  0.0360  0.1189 -0.7335
   88MOL0     C11801   4.077   6.499   7.207  0.6828 -0.1626  1.0701
   88MOL0     C11802   4.137   6.370   7.209  0.4368  0.2618 -1.0053
   88MOL0     C11803   4.086   6.257   7.276 -0.1533 -0.0239 -0.1771
   88MOL0     O11804   4.147   6.142   7.260  0.0379 -1.1676  0.4593
   88MOL0     C11805   4.133   6.060   7.373 -0.1569  0.2675  0.1519
   88MOL0     C11806   4.253   5.956   7.363 -0.2403 -0.4352 -0.0988
   88MOL0     C11807   4.388   6.028   7.382  1.0132 -0.2687  0.1412
   88MOL0     C11808   4.504   5.944   7.315  0.4741 -0.0342  0.0833
   88MOL0     C11809   4.532   5.824   7.395 -1.0114  0.0738 -0.3090
   88MOL0     C11810   4.558   5.721   7.455 -0.3578 -0.6969 -0.9615
   88MOL0     C11811   3.953   6.269   7.329  0.0989 -0.5040 -0.5128
   88MOL0     C11812   3.887   6.391   7.329 -0.2233 -0.5212  0.0561
   88MOL0     H11813   3.641   6.722   7.144  2.5754  1.2007 -0.9054
   88MOL0     H11814   3.477   6.922   7.126  1.3906  5.1319 -0.3565
   88MOL0     H11815   3.441   7.264   7.348  4.1916  2.2111 -2.0593
   88MOL0     H11816   3.517   7.205   7.197 -1.6668 -0.9330 -1.9791
   88MOL0     H11817   3.223   7.203   7.263 -0.2949 -1.4290 -1.2683
   88MOL0     H11818   3.305   7.341   7.197  0.3351  0.1071  1.8055
   88MOL0     H11819   3.270   7.067   7.065 -1.3269 -0.2549  1.7783
   88MOL0     H11820   3.170   7.201   7.016 -0.0506 -3.0030 -0.4835
   88MOL0     H11821   3.386   7.308   6.938 -1.7845  0.6551  2.8230
   88MOL0     H11822   3.455   7.139   6.969  0.1538  0.1495 -3.7039
   88MOL0     H11823   3.278   7.050   6.832  1.0012  0.1253  2.3682
   88MOL0     H11824   3.229   7.213   6.783 -0.7654 -0.5489 -0.5035
   88MOL0     H11825   3.437   7.257   6.664  1.1729 -0.6498 -0.7924
   88MOL0     H11826   3.507   7.103   6.714  2.1263  1.4909 -0.9801
   88MOL0     H11827   3.372   6.977   6.595  4.5907  0.1302  0.6098
   88MOL0     H11828   3.248   7.099   6.571  0.0575 -0.3046  0.5140
   88MOL0     H11829   3.537   7.147   6.449  1.2609 -1.3269 -2.2940
   88MOL0     H11830   3.374   7.211   6.412 -0.7820 -0.1246  1.2204
   88MOL0     H11831   3.579   6.870   6.380  0.5518  0.2302  0.4990
   88MOL0     H11832   3.550   6.729   6.101 -0.5290  2.4527  0.8073
   88MOL0     H11833   3.539   6.654   6.260  0.6685  1.2812 -0.1188
   88MOL0     H11834   3.307   6.664   6.067  2.5979  2.5117 -0.5986
   88MOL0     H11835   3.322   6.561   6.211 -0.1203  0.2086 -0.8159
   88MOL0     H11836   3.498   6.513   5.977  0.8344 -2.1532  0.2194
   88MOL0     H11837   3.344   6.424   6.002  0.1232 -1.5993 -0.3288
   88MOL0     H11838   3.598   6.421   6.153  0.9046 -1.0564 -0.6667
   88MOL0     H11839   3.514   6.283   6.078 -0.2883 -0.9708  2.2915
   88MOL0     H11840   3.316   6.162   6.092 -2.5653 -2.0754 -1.8764
   88MOL0     H11841   3.004   6.172   5.984 -0.2418  0.5981  0.7142
   88MOL0     H11842   3.142   6.074   5.987  0.7533  1.0630 -1.2086
   88MOL0     H11843   3.014   6.023   6.096  0.9366 -0.3553 -0.2714
   88MOL0     H11844   2.717   5.972   6.481 -1.6628 -0.6636 -0.5462
   88MOL0     H11845   2.485   5.961   6.604 -0.0203  0.1520  0.6214
   88MOL0     H11846   2.432   6.329   6.740  2.3339 -1.4336  0.9090
   88MOL0     H11847   2.255   6.295   6.747 -0.4598 -1.2862 -0.7853
   88MOL0     H11848   2.354   6.069   6.852  3.6364 -1.1983 -0.3382
   88MOL0     H11849   2.497   6.153   6.865  0.2536  1.5050 -1.4035
   88MOL0     H11850   2.383   6.340   6.989 -1.4901  0.5814 -0.2316
   88MOL0     H11851   2.412   6.178   7.072 -0.5131 -0.8617 -0.2033
   88MOL0     H11852   2.144   6.308   6.972  1.8579  1.4136  0.2533
   88MOL0     H11853   2.163   6.132   6.986  0.1389 -0.9084  0.4403
   88MOL0     H11854   2.240   6.332   7.199  1.2030  0.8091 -2.3245
   88MOL0     H11855   2.210   6.154   7.220 -0.1888  0.6705  2.0118
   88MOL0     H11856   1.994   6.362   7.167  1.2544  1.6400 -0.4199
   88MOL0     H11857   1.972   6.185   7.124  1.2394  0.0486  0.0280
   88MOL0     H11858   2.072   6.308   7.397  0.3231  1.1492 -1.1602
   88MOL0     H11859   2.009   6.146   7.389 -1.8464  0.5441  0.2327
   88MOL0     H11860   1.781   6.248   7.321 -2.0916  2.2344  0.1465
   88MOL0     H11861   1.863   6.400   7.341 -3.6821 -0.3666 -0.8407
   88MOL0     H11862   2.458   6.380   6.529 -0.6450 -0.9322  2.2622
   88MOL0     H11863   2.675   6.377   6.404 -3.0581  1.9637  0.2445
   88MOL0     H11864   3.059   6.339   6.474  2.3284 -1.3131  1.7734
   88MOL0     H11865   3.265   6.405   6.447 -3.1773 -1.1012  2.3297
   88MOL0     H11866   3.560   7.002   7.539 -3.6027 -0.7348 -0.2299
   88MOL0     H11867   3.694   6.798   7.555 -1.6213  2.7273  2.3297
   88MOL0     H11868   4.131   6.579   7.158 -3.7666  1.4829 -1.7950
   88MOL0     H11869   4.229   6.358   7.152  2.3473  0.2124  1.9060
   88MOL0     H11870   4.136   6.108   7.472 -0.8247  3.0614 -1.0971
   88MOL0     H11871   4.036   6.015   7.355  0.9251 -2.0595 -0.2229
   88MOL0     H11872   4.240   5.919   7.261  0.8470 -0.4882 -0.2238
   88MOL0     H11873   4.247   5.889   7.450  3.8847  0.1734  0.8383
   88MOL0     H11874   4.409   6.047   7.487 -0.2911  0.4844  0.2766
   88MOL0     H11875   4.382   6.127   7.336 -0.6093 -0.1328  0.5949
   88MOL0     H11876   4.596   6.003   7.311 -0.9554  2.2926 -0.6167
   88MOL0     H11877   4.486   5.927   7.209  0.0016  2.3270 -0.2784
   88MOL0     H11878   4.589   5.632   7.506 -1.9063 -0.8036 -0.1358
   88MOL0     H11879   3.904   6.183   7.373  0.8601 -0.6357  0.0874
   88MOL0     H11880   3.781   6.397   7.350  0.5063  0.2953  4.3525
   89MOL0     O11881   2.278   4.721   7.429 -0.1773 -0.4558  0.0242
   89MOL0     C11882   2.349   4.804   7.367  1.4764  0.0763 -0.9794
   89MOL0     O11883   2.478   4.820   7.359  0.0858 -0.2125 -0.1705
   89MOL0     C11884   2.543   4.769   7.471  0.2350  0.2234  0.0934
   89MOL0     C11885   2.570   4.637   7.486  0.2098  0.4867 -0.1070
   89MOL0     C11886   2.649   4.592   7.594  0.3430  0.9189  1.1449
   89MOL0     C11887   2.711   4.684   7.677  0.3307  0.7932  0.5252
   89MOL0     O11888   2.811   4.631   7.759 -0.5395  0.2098 -0.1226
   89MOL0     C11889   2.882   4.723   7.845  0.0120 -1.1238  0.3294
   89MOL0     C11890   2.994   4.637   7.921  0.4937 -0.2173 -0.0572
   89MOL0     C11891   2.934   4.498   7.959 -0.0413  1.0090  0.2256
   89MOL0     C11892   2.805   4.519   8.050  0.0572 -0.2678 -0.4416
   89MOL0     C11893   2.848   4.558   8.197  1.4079 -1.0530 -0.5942
   89MOL0     C11894   2.747   4.525   8.309 -0.2535 -0.2523 -0.7296
   89MOL0     C11895   2.742   4.370   8.355  0.1477 -0.1988  0.6324
   89MOL0     C11896   2.840   4.315   8.455  0.5223  0.7562  0.8424
   89MOL0     N11897   2.783   4.185   8.497 -0.7679 -0.5394 -0.1496
   89MOL0     C11898   2.803   4.064   8.437  0.1117 -0.1858 -0.0142
   89MOL0     C11899   2.705   3.989   8.488  0.7937 -0.6315 -0.1579
   89MOL0     C11900   2.672   3.860   8.438  0.7052  1.3114 -0.3520
   89MOL0     C11901   2.601   3.857   8.293 -0.2536  0.2868 -0.1344
   89MOL0     C11902   2.513   3.737   8.264  0.5491  1.4350  0.2816
   89MOL0     C11903   2.415   3.755   8.151  0.6022  0.0534 -0.5084
   89MOL0     O11904   2.348   3.884   8.161 -0.5260  0.4189 -0.6457
   89MOL0     C11905   2.248   3.897   8.251  0.4591  1.0815 -0.1998
   89MOL0     C11906   2.204   3.797   8.339  1.8411  0.3818 -0.5255
   89MOL0     C11907   2.103   3.819   8.438  0.6641  0.3952 -0.0456
   89MOL0     C11908   2.080   3.718   8.555  0.4133  0.6517 -0.4233
   89MOL0     C11909   2.034   3.942   8.435  0.1365 -1.2140  0.7114
   89MOL0     C11910   1.911   3.979   8.519  0.7222  0.4303 -0.2833
   89MOL0     O11911   1.848   4.101   8.498  0.5715 -0.2007  0.2576
   89MOL0     C11912   1.749   4.152   8.582  0.4749  0.6937  0.5375
   89MOL0     C11913   1.630   4.217   8.541  0.6824 -0.7697  0.1116
   89MOL0     C11914   1.549   4.285   8.642  0.3325 -0.0879  0.5044
   89MOL0     C11915   1.579   4.271   8.777  0.1514  0.1052  0.2099
   89MOL0     O11916   1.493   4.331   8.864  0.2145  0.0886  0.0420
   89MOL0     C11917   1.514   4.328   9.006 -0.0937 -0.0813 -0.1275
   89MOL0     C11918   1.395   4.398   9.085  0.6129  0.4210  1.0327
   89MOL0     C11919   1.337   4.538   9.052 -0.1634  0.2771 -0.1578
   89MOL0     C11920   1.450   4.649   9.066 -0.6988 -0.5495 -0.2079
   89MOL0     C11921   1.503   4.659   9.212 -0.2208  0.5079 -0.1827
   89MOL0     C11922   1.586   4.795   9.238 -1.1111 -0.1830  0.6701
   89MOL0     C11923   1.624   4.817   9.378 -0.2726 -1.4704 -0.3015
   89MOL0     C11924   1.676   4.958   9.408 -0.5230 -0.0663 -0.0560
   89MOL0    Cl11925   1.638   5.004   9.592 -0.5586 -0.4480 -0.2862
   89MOL0     C11926   1.695   4.200   8.807 -0.0984 -0.3596 -0.6342
   89MOL0     C11927   1.787   4.149   8.715  0.8935  0.3563  0.3267
   89MOL0     O11928   1.869   3.898   8.600 -0.2128  0.3677 -0.2723
   89MOL0     C11929   2.082   4.040   8.355  0.5494 -0.2514 -0.0928
   89MOL0     C11930   2.188   4.016   8.264 -0.0120  0.3536  0.8843
   89MOL0     N11931   2.630   4.062   8.580  0.0986  1.1463  0.7055
   89MOL0     N11932   2.681   4.181   8.584 -0.9571 -0.5226  0.3872
   89MOL0     C11933   2.669   4.817   7.666  0.6272 -0.4730 -0.4338
   89MOL0     C11934   2.593   4.856   7.559  0.5065 -0.2643 -0.4467
   89MOL0     C11935   2.285   4.887   7.268  0.6277  0.3379  0.0711
   89MOL0     C11936   2.336   5.008   7.219 -0.6086  0.4927  0.5260
   89MOL0     C11937   2.275   5.088   7.124  0.8376 -0.9247  0.2183
   89MOL0     C11938   2.152   5.057   7.079  0.9396 -0.6794  0.0379
   89MOL0     O11939   2.092   5.148   6.997 -0.4659 -0.1054  0.0156
   89MOL0     C11940   1.986   5.095   6.916  1.1230  0.1484  0.1198
   89MOL0     C11941   1.944   5.194   6.808  0.6433  0.6985  0.0809
   89MOL0     C11942   1.851   5.304   6.853 -0.3250 -0.8230 -0.1196
   89MOL0     C11943   1.834   5.403   6.737 -0.4778 -0.6100 -0.2798
   89MOL0     C11944   1.720   5.482   6.773 -0.1804 -0.2429 -0.1169
   89MOL0     C11945   1.640   5.572   6.793 -1.1722  0.0294  0.7565
   89MOL0     C11946   2.087   4.937   7.129  0.2592 -0.1783  0.0485
   89MOL0     C11947   2.158   4.850   7.216 -1.2125 -0.1104 -0.8347
   89MOL0     H11948   2.511   4.569   7.427 -0.4874 -0.1800  1.3096
   89MOL0     H11949   2.658   4.485   7.609  0.5221  0.4430 -1.7116
   89MOL0     H11950   2.921   4.812   7.795 -0.8687 -1.2534 -0.6196
   89MOL0     H11951   2.814   4.763   7.921  0.9875  2.9920 -0.7183
   89MOL0     H11952   3.083   4.627   7.859 -0.6792  0.7710 -1.9863
   89MOL0     H11953   3.030   4.687   8.011  0.1234  2.9947 -1.5639
   89MOL0     H11954   2.917   4.426   7.878  0.5372  0.6002  0.4556
   89MOL0     H11955   3.008   4.444   8.019 -0.9676  0.6241  1.0391
   89MOL0     H11956   2.727   4.590   8.020 -0.0296  1.0772  2.6019
   89MOL0     H11957   2.750   4.425   8.058 -0.0053 -0.3420 -1.6386
   89MOL0     H11958   2.944   4.512   8.224  2.2068  1.4166  1.1749
   89MOL0     H11959   2.865   4.665   8.186  3.0459 -1.1703  0.4561
   89MOL0     H11960   2.759   4.586   8.399  3.5007 -2.4196  0.4381
   89MOL0     H11961   2.650   4.552   8.266 -0.0327  0.5827 -0.7189
   89MOL0     H11962   2.643   4.353   8.398 -0.4054 -1.7966 -1.1133
   89MOL0     H11963   2.727   4.314   8.262  3.1345  2.5957 -1.7635
   89MOL0     H11964   2.867   4.391   8.529  1.8757  0.0958  1.0607
   89MOL0     H11965   2.928   4.294   8.394 -1.8454 -1.5766 -2.0675
   89MOL0     H11966   2.878   4.028   8.367 -0.5670 -0.4204 -0.6379
   89MOL0     H11967   2.761   3.797   8.448 -0.6121 -0.6860 -0.6554
   89MOL0     H11968   2.610   3.818   8.518  0.4977  3.4232  0.6721
   89MOL0     H11969   2.678   3.870   8.215 -2.4887 -0.1363 -2.5405
   89MOL0     H11970   2.539   3.947   8.287 -1.1009 -0.0882  2.0749
   89MOL0     H11971   2.455   3.694   8.346  0.0138  0.2502 -0.6772
   89MOL0     H11972   2.583   3.655   8.247 -0.3761 -0.4954  4.3892
   89MOL0     H11973   2.343   3.672   8.155 -0.4988  0.9846 -0.5492
   89MOL0     H11974   2.454   3.741   8.050 -0.9068 -1.6847 -0.9098
   89MOL0     H11975   2.246   3.697   8.344 -1.8527 -1.3128 -0.1169
   89MOL0     H11976   2.089   3.772   8.650 -2.6654  1.2487 -0.3622
   89MOL0     H11977   1.983   3.668   8.543  1.0062 -1.2118  1.7504
   89MOL0     H11978   2.156   3.639   8.551  2.3884  2.4825 -0.3490
   89MOL0     H11979   1.617   4.226   8.434  0.3417 -0.5653  0.1695
   89MOL0     H11980   1.466   4.347   8.611  1.7048  1.2846 -0.5752
   89MOL0     H11981   1.512   4.225   9.044 -3.4374 -0.5308 -1.1689
   89MOL0     H11982   1.604   4.387   9.025 -0.2354 -0.9149  4.2783
   89MOL0     H11983   1.315   4.323   9.082  0.8548  0.1047  2.0829
   89MOL0     H11984   1.403   4.409   9.194 -0.0600  0.4015  1.0874
   89MOL0     H11985   1.251   4.569   9.112  1.5728  0.9697  2.0842
   89MOL0     H11986   1.326   4.556   8.944  1.5312  1.3023 -0.1859
   89MOL0     H11987   1.539   4.625   9.008 -2.1327 -1.3719 -2.1884
   89MOL0     H11988   1.415   4.744   9.024  2.4231  1.4186  1.3246
   89MOL0     H11989   1.562   4.570   9.237 -1.7863 -0.1335  1.4593
   89MOL0     H11990   1.418   4.650   9.280 -0.5263 -1.0580 -0.7342
   89MOL0     H11991   1.672   4.796   9.170 -1.1881  1.1989  0.5673
   89MOL0     H11992   1.525   4.880   9.206 -0.0390  1.0281  1.7592
   89MOL0     H11993   1.704   4.745   9.398  0.6119 -0.9199 -1.6724
   89MOL0     H11994   1.541   4.795   9.445 -1.1485 -2.5998 -1.7174
   89MOL0     H11995   1.643   5.041   9.346 -0.5339  3.7860  4.4914
   89MOL0     H11996   1.783   4.964   9.388  0.1589  1.9365  3.4091
   89MOL0     H11997   1.712   4.190   8.914 -1.6217  1.6009 -0.1534
   89MOL0     H11998   1.880   4.100   8.740  0.3750 -0.5015  0.6186
   89MOL0     H11999   2.029   4.134   8.359  0.6052 -0.2546  2.9602
   89MOL0     H12000   2.232   4.094   8.202  0.6159  0.4830  1.4769
   89MOL0     H12001   2.702   4.894   7.735 -1.1584 -0.5109  0.5221
   89MOL0     H12002   2.565   4.959   7.539 -1.5316 -1.0823 -2.2260
   89MOL0     H12003   2.432   5.032   7.262  0.2108 -0.6677 -0.5814
   89MOL0     H12004   2.334   5.174   7.094  1.6842 -1.9988 -1.3349
   89MOL0     H12005   2.007   5.005   6.856  0.6656 -0.2623  0.5616
   89MOL0     H12006   1.899   5.086   6.981 -0.5541  1.8551 -1.7515
   89MOL0     H12007   1.903   5.135   6.725  1.3603  1.3029 -0.7261
   89MOL0     H12008   2.031   5.225   6.750  0.3707  1.1350 -0.1029
   89MOL0     H12009   1.914   5.351   6.929  1.4574 -0.2773 -1.8485
   89MOL0     H12010   1.760   5.267   6.901  0.0580 -2.3315 -0.5065
   89MOL0     H12011   1.806   5.351   6.644 -4.2616  0.6021 -0.0005
   89MOL0     H12012   1.917   5.467   6.705 -1.6919  0.5562 -1.2545
   89MOL0     H12013   1.562   5.645   6.796 -2.3727 -1.1398 -0.4128
   89MOL0     H12014   1.982   4.914   7.117 -0.0768  0.7318  1.0611
   89MOL0     H12015   2.100   4.771   7.262 -0.4746 -0.1139  0.1317
   90MOL0     O12016   8.511   8.494   0.550 -1.2040  0.5848 -0.1081
   90MOL0     C12017   8.627   8.524   0.532 -0.8889 -0.6550  0.2439
   90MOL0     O12018   8.703   8.498   0.417 -0.0941  0.1707  0.6346
   90MOL0     C12019   8.666   8.389   0.340 -0.0908 -0.3328 -0.6941
   90MOL0     C12020   8.601   8.274   0.383  0.0588 -0.2116 -0.3380
   90MOL0     C12021   8.564   8.169   0.292 -1.0782  0.1179  0.2850
   90MOL0     C12022   8.592   8.186   0.162 -0.8322  0.6104  0.9578
   90MOL0     O12023   8.561   8.085   0.066  0.1301 -0.7655 -0.7387
   90MOL0     C12024   8.419   8.051   0.055 -0.1299 -0.6986 -0.7911
   90MOL0     C12025   8.342   8.154  -0.027  0.8957 -0.4519  0.8487
   90MOL0     C12026   8.191   8.104  -0.022 -0.7857  0.4874 -0.3703
   90MOL0     C12027   8.144   8.010  -0.129 -0.5509 -0.5803 -0.4721
   90MOL0     C12028   8.006   7.970  -0.102  0.5515  0.0326 -0.7123
   90MOL0     C12029   7.959   7.878  -0.207  0.1102 -0.4289  0.4847
   90MOL0     C12030   7.825   7.801  -0.168 -0.5304  0.0449  0.1952
   90MOL0     C12031   7.795   7.691  -0.281  0.1682  0.1840 -0.2891
   90MOL0     N12032   7.749   7.759  -0.402 -0.1384 -0.2511 -0.8538
   90MOL0     C12033   7.643   7.831  -0.426  0.5137 -0.4641  0.6694
   90MOL0     C12034   7.644   7.846  -0.567  0.5391  0.4665 -0.2381
   90MOL0     C12035   7.531   7.896  -0.651 -1.0405  0.8305  0.2120
   90MOL0     C12036   7.509   8.044  -0.638 -0.1829 -1.5231 -0.3406
   90MOL0     C12037   7.386   8.101  -0.710 -0.0192  0.5020 -0.5752
   90MOL0     C12038   7.369   8.249  -0.665  0.1314  0.2692 -1.1283
   90MOL0     O12039   7.320   8.323  -0.777 -0.2542 -0.0905  0.2593
   90MOL0     C12040   7.242   8.436  -0.753  0.9653  0.0053 -0.0335
   90MOL0     C12041   7.124   8.455  -0.830  0.5496 -0.3885  0.1021
   90MOL0     C12042   7.024   8.548  -0.792  0.1432 -1.1244  0.1173
   90MOL0     C12043   6.895   8.527  -0.864  0.5284 -0.5540 -0.0099
   90MOL0     C12044   7.052   8.649  -0.698  1.2927 -0.0382  0.4025
   90MOL0     C12045   6.958   8.757  -0.663 -0.6996  0.1763 -0.7374
   90MOL0     O12046   6.940   8.785  -0.531  0.9759  0.0175  0.1832
   90MOL0     C12047   6.842   8.875  -0.505  0.3098  0.5199  0.5362
   90MOL0     C12048   6.738   8.836  -0.419 -1.4002  0.6083  0.5109
   90MOL0     C12049   6.647   8.924  -0.368 -1.0050  0.2640  0.2786
   90MOL0     C12050   6.645   9.053  -0.410  0.4616 -0.1909 -0.7238
   90MOL0     O12051   6.568   9.163  -0.366 -0.0666 -0.3195  0.4955
   90MOL0     C12052   6.431   9.137  -0.326  0.1843  0.2822 -0.7116
   90MOL0     C12053   6.390   9.263  -0.267  0.1935 -0.2498 -0.0569
   90MOL0     C12054   6.254   9.252  -0.204 -0.7621 -0.7438 -0.4241
   90MOL0     C12055   6.199   9.364  -0.121 -0.0901  0.3727 -0.5944
   90MOL0     C12056   6.070   9.320  -0.053 -0.2554  0.0305  0.5150
   90MOL0     C12057   6.057   9.387   0.085 -0.5588 -1.2043 -0.0951
   90MOL0     C12058   5.933   9.328   0.157  1.3555 -0.4227 -0.7085
   90MOL0     C12059   5.932   9.346   0.308 -0.1162 -0.5077 -0.3623
   90MOL0    Cl12060   6.037   9.214   0.381 -0.1796 -0.5026 -0.3084
   90MOL0     C12061   6.743   9.098  -0.503  0.5565  0.1847 -0.3628
   90MOL0     C12062   6.846   9.008  -0.554  0.7697 -0.3423  0.3066
   90MOL0     O12063   6.895   8.808  -0.756  1.0725  0.3403 -0.0807
   90MOL0     C12064   7.177   8.643  -0.631 -0.4582  0.5249 -0.2626
   90MOL0     C12065   7.271   8.533  -0.655 -0.0709 -0.9132 -0.2934
   90MOL0     N12066   7.769   7.815  -0.609  1.1291 -0.5705 -0.0788
   90MOL0     N12067   7.835   7.767  -0.515  0.7151  0.0833 -0.2146
   90MOL0     C12068   8.660   8.294   0.124  0.2982  0.3297  0.1675
   90MOL0     C12069   8.695   8.398   0.208 -0.0932  0.6720 -0.3637
   90MOL0     C12070   8.675   8.635   0.609 -0.2702  0.6805  0.6488
   90MOL0     C12071   8.790   8.705   0.571 -0.0052  0.9405 -0.0655
   90MOL0     C12072   8.861   8.791   0.663 -0.1164 -0.2773  0.2367
   90MOL0     C12073   8.808   8.824   0.788  1.1557 -0.5925  0.1953
   90MOL0     O12074   8.871   8.910   0.881  0.1373 -0.9744 -0.0437
   90MOL0     C12075   8.962   9.014   0.828 -0.5744 -0.2937 -0.7766
   90MOL0     C12076   9.113   8.989   0.853 -0.3404  0.8011  0.9276
   90MOL0     C12077   9.206   9.105   0.807 -0.8635  0.3102 -0.1395
   90MOL0     C12078   9.353   9.072   0.829  0.3879  0.3247 -0.4421
   90MOL0     C12079   9.391   9.087   0.970  0.3208 -0.6428 -0.1584
   90MOL0     C12080   9.433   9.090   1.085 -0.1469 -0.2665  0.3532
   90MOL0     C12081   8.696   8.745   0.824 -0.2328  0.2044  1.0113
   90MOL0     C12082   8.622   8.653   0.735 -0.2145 -1.2596  0.3523
   90MOL0     H12083   8.576   8.276   0.489  0.6195 -2.6124 -0.1133
   90MOL0     H12084   8.520   8.079   0.334  1.3626 -1.5134 -0.5083
   90MOL0     H12085   8.410   7.951   0.012  1.7806  0.1232 -3.3398
   90MOL0     H12086   8.362   8.039   0.148 -1.9550 -2.2355 -2.0183
   90MOL0     H12087   8.361   8.254   0.011 -2.4536  1.7866 -2.5355
   90MOL0     H12088   8.375   8.160  -0.131 -0.7046  2.4751  0.3796
   90MOL0     H12089   8.172   8.065   0.079  0.6699 -2.5073 -1.1347
   90MOL0     H12090   8.128   8.193  -0.026  0.1319  1.0957 -2.1502
   90MOL0     H12091   8.150   8.073  -0.218 -3.0242  2.3148  1.2116
   90MOL0     H12092   8.203   7.922  -0.158 -1.8648 -2.5370  2.2843
   90MOL0     H12093   8.008   7.925  -0.002 -0.6197 -1.3601 -1.2796
   90MOL0     H12094   7.941   8.058  -0.102 -0.1905 -0.4224 -3.1447
   90MOL0     H12095   7.938   7.934  -0.299 -2.2449 -0.6730  0.8202
   90MOL0     H12096   8.039   7.806  -0.230 -0.5834 -1.1288  0.2089
   90MOL0     H12097   7.841   7.750  -0.073  0.0420 -1.6136 -0.7598
   90MOL0     H12098   7.738   7.867  -0.160 -1.2555 -0.9016  0.2991
   90MOL0     H12099   7.724   7.616  -0.246  0.9590 -0.3831  0.1328
   90MOL0     H12100   7.885   7.639  -0.316  0.2604 -0.3974  0.7568
   90MOL0     H12101   7.553   7.835  -0.366  0.5681 -3.4417  1.1037
   90MOL0     H12102   7.550   7.875  -0.757  3.6688 -1.0879  1.2170
   90MOL0     H12103   7.450   7.824  -0.634  1.5197 -2.2811  0.1503
   90MOL0     H12104   7.593   8.106  -0.672 -1.4182 -0.4241 -1.5066
   90MOL0     H12105   7.499   8.056  -0.530  1.2490  0.4728 -0.3575
   90MOL0     H12106   7.298   8.043  -0.683  1.7070 -1.6544  0.7512
   90MOL0     H12107   7.419   8.102  -0.814  0.4491 -1.2579 -0.4767
   90MOL0     H12108   7.456   8.294  -0.616 -1.0664 -0.0602  1.4643
   90MOL0     H12109   7.294   8.262  -0.587 -0.7876  1.0694 -2.1275
   90MOL0     H12110   7.112   8.383  -0.911 -1.9003  1.0789 -0.9714
   90MOL0     H12111   6.808   8.579  -0.823  1.5554  0.6538  0.7552
   90MOL0     H12112   6.902   8.560  -0.968 -0.5274  0.7001  0.2816
   90MOL0     H12113   6.865   8.422  -0.867 -2.0998  0.1538 -1.1393
   90MOL0     H12114   6.749   8.736  -0.380  0.8673  1.7408  3.1927
   90MOL0     H12115   6.574   8.886  -0.297 -0.7427  0.1396  0.4853
   90MOL0     H12116   6.387   9.128  -0.426  2.0146  2.4939 -1.8375
   90MOL0     H12117   6.424   9.051  -0.259  1.1358  0.3186 -0.5495
   90MOL0     H12118   6.470   9.286  -0.196  3.1691  0.7822 -3.4633
   90MOL0     H12119   6.402   9.334  -0.349  2.0735  0.1674  0.5220
   90MOL0     H12120   6.256   9.156  -0.152  2.1106 -0.9546 -0.7553
   90MOL0     H12121   6.193   9.245  -0.295 -0.7954  2.1219 -0.7087
   90MOL0     H12122   6.271   9.393  -0.044 -0.1528  1.1122 -0.8103
   90MOL0     H12123   6.178   9.454  -0.179  0.9124  0.5179 -0.7531
   90MOL0     H12124   6.063   9.214  -0.025 -4.4471 -0.3428 -1.1352
   90MOL0     H12125   5.987   9.338  -0.122 -1.2499 -2.1948  1.0220
   90MOL0     H12126   6.147   9.360   0.141  0.2477  0.3396 -0.5803
   90MOL0     H12127   6.048   9.496   0.074 -0.1206 -1.1354  0.2114
   90MOL0     H12128   5.919   9.222   0.138 -3.0029 -0.4857  1.6462
   90MOL0     H12129   5.845   9.372   0.109  2.3462 -0.5631 -2.7598
   90MOL0     H12130   5.828   9.326   0.336  0.0052  0.6461  1.0828
   90MOL0     H12131   5.956   9.450   0.333  1.2117 -0.6504 -0.9574
   90MOL0     H12132   6.740   9.203  -0.530  1.6245  0.0466 -1.0633
   90MOL0     H12133   6.926   9.035  -0.622 -0.8603 -1.6005 -2.2506
   90MOL0     H12134   7.208   8.724  -0.566 -4.0385  4.8339 -3.3270
   90MOL0     H12135   7.369   8.518  -0.610  1.0446  0.7964 -1.9812
   90MOL0     H12136   8.664   8.316   0.017  0.4438 -1.3586 -0.2064
   90MOL0     H12137   8.732   8.494   0.176 -0.1521  2.2610  3.7639
   90MOL0     H12138   8.833   8.687   0.473 -2.7759 -0.6233 -1.1001
   90MOL0     H12139   8.963   8.824   0.645 -0.1696 -0.1715  0.1320
   90MOL0     H12140   8.946   9.025   0.720  5.1336  0.1832 -1.8698
   90MOL0     H12141   8.932   9.103   0.885 -1.2199 -2.1476  1.9519
   90MOL0     H12142   9.148   8.893   0.814  0.6015  2.4415 -2.6874
   90MOL0     H12143   9.127   8.972   0.960  0.2453  4.5232  1.5998
   90MOL0     H12144   9.172   9.194   0.861 -3.3605 -2.1662  2.7701
   90MOL0     H12145   9.187   9.129   0.702 -1.2649 -1.6789 -0.5547
   90MOL0     H12146   9.412   9.136   0.763  0.7902 -0.7834 -1.1883
   90MOL0     H12147   9.382   8.973   0.795  2.0899 -0.0230  1.8050
   90MOL0     H12148   9.468   9.101   1.186 -1.0021  1.5751  0.4915
   90MOL0     H12149   8.654   8.762   0.923 -1.7464 -2.5027  0.9201
   90MOL0     H12150   8.536   8.597   0.771 -0.9725 -0.2147  0.2177
   91MOL0     O12151   1.213   0.345   5.698 -0.4116  0.4377 -0.7591
   91MOL0     C12152   1.250   0.374   5.810  0.4465  0.1987 -0.2295
   91MOL0     O12153   1.341   0.479   5.839  0.1056  0.2729  0.1877
   91MOL0     C12154   1.364   0.584   5.751  0.4970 -0.2318  0.4258
   91MOL0     C12155   1.502   0.620   5.743 -1.7271  0.4636  1.1771
   91MOL0     C12156   1.537   0.733   5.677 -0.6321 -0.5588  0.4913
   91MOL0     C12157   1.446   0.813   5.611 -0.6564 -0.1086 -0.3647
   91MOL0     O12158   1.482   0.936   5.558  0.1437  0.4844 -0.2633
   91MOL0     C12159   1.594   0.941   5.468 -0.8005  0.1944  0.2202
   91MOL0     C12160   1.602   1.069   5.382  0.0730 -0.1078  1.0933
   91MOL0     C12161   1.478   1.071   5.273  0.3651 -0.2004  0.4772
   91MOL0     C12162   1.367   1.183   5.311 -0.4226 -1.3032 -0.2665
   91MOL0     C12163   1.229   1.122   5.263 -0.0839  0.4522  0.7828
   91MOL0     C12164   1.120   1.215   5.303  0.2172  0.0205 -0.5957
   91MOL0     C12165   0.983   1.164   5.263  0.8811 -1.0977 -1.0838
   91MOL0     C12166   0.874   1.226   5.354  0.3431  0.0354 -0.6076
   91MOL0     N12167   0.735   1.171   5.321 -1.1114 -0.5330 -0.5340
   91MOL0     C12168   0.636   1.141   5.409  0.3902 -0.0856  0.6106
   91MOL0     C12169   0.523   1.137   5.329 -0.0660  0.0087 -0.1803
   91MOL0     C12170   0.377   1.121   5.384 -0.1083 -0.0325 -0.3024
   91MOL0     C12171   0.285   1.246   5.376  0.7951  0.3816 -0.1643
   91MOL0     C12172   0.258   1.298   5.231  0.4080 -0.0830  0.4129
   91MOL0     C12173   0.224   1.191   5.127 -0.8509 -0.4969  0.1993
   91MOL0     O12174   0.120   1.094   5.163  0.3642  0.0576  0.2318
   91MOL0     C12175   0.086   0.996   5.071  0.6385  0.1133 -0.2269
   91MOL0     C12176   0.009   0.892   5.120  0.5579  0.4327  0.1291
   91MOL0     C12177  -0.019   0.784   5.024 -0.1654 -0.0374  0.5574
   91MOL0     C12178  -0.101   0.666   5.058  0.1346 -0.6658  0.2001
   91MOL0     C12179   0.010   0.797   4.884 -0.6127  0.8948  0.3319
   91MOL0     C12180  -0.029   0.704   4.773  0.0482 -0.3038 -0.1305
   91MOL0     O12181   0.049   0.692   4.665 -0.0767  0.6464  0.3291
   91MOL0     C12182  -0.008   0.646   4.552 -0.6564  0.0370  0.3665
   91MOL0     C12183  -0.115   0.702   4.475 -0.2593 -0.6320  0.7378
   91MOL0     C12184  -0.152   0.660   4.350 -0.0889 -1.2464  0.8539
   91MOL0     C12185  -0.104   0.539   4.298 -0.4217 -0.5040  0.0367
   91MOL0     O12186  -0.142   0.486   4.176 -0.6207 -0.2201  0.3504
   91MOL0     C12187  -0.165   0.581   4.065  1.0093  1.0013  0.0149
   91MOL0     C12188  -0.231   0.496   3.953 -0.0809 -0.2046 -0.2657
   91MOL0     C12189  -0.352   0.433   4.001  0.3679  0.3018 -0.2013
   91MOL0     C12190  -0.322   0.285   4.040 -0.0982 -0.6070  0.6059
   91MOL0     C12191  -0.452   0.208   4.086 -0.7433  0.3401  0.0823
   91MOL0     C12192  -0.519   0.264   4.207  0.1092 -0.8088  0.4763
   91MOL0     C12193  -0.437   0.301   4.332 -2.1023  0.8134 -0.3542
   91MOL0     C12194  -0.352   0.184   4.391 -0.3903 -0.3082 -0.0210
   91MOL0    Cl12195  -0.464   0.043   4.421 -0.2197  0.0389  0.0380
   91MOL0     C12196  -0.017   0.467   4.384 -0.2089  0.1540  0.6219
   91MOL0     C12197   0.035   0.522   4.497  0.0313 -0.4937  0.2421
   91MOL0     O12198  -0.147   0.668   4.773 -1.0254 -0.6633  0.5254
   91MOL0     C12199   0.064   0.922   4.838  0.0969  0.0808 -0.7625
   91MOL0     C12200   0.111   1.010   4.933 -0.5312  0.0550 -0.1916
   91MOL0     N12201   0.570   1.158   5.199  0.4231 -0.1500 -0.5471
   91MOL0     N12202   0.690   1.186   5.194  0.3481 -0.1321  1.4006
   91MOL0     C12203   1.310   0.780   5.621  0.9211 -0.2089  0.7668
   91MOL0     C12204   1.271   0.669   5.685  0.2763  0.4772 -1.2999
   91MOL0     C12205   1.225   0.272   5.914 -0.1098  0.2409  0.7510
   91MOL0     C12206   1.293   0.284   6.038 -0.1266  0.0763 -0.0852
   91MOL0     C12207   1.262   0.210   6.144 -0.0163  0.2758  0.3666
   91MOL0     C12208   1.177   0.101   6.126 -0.2942 -0.2241  0.4010
   91MOL0     O12209   1.143   0.003   6.218 -0.0013  0.0263 -0.0180
   91MOL0     C12210   1.191   0.007   6.350  0.3023 -0.2990 -0.5120
   91MOL0     C12211   1.093  -0.082   6.427  0.2159 -0.2421 -0.5772
   91MOL0     C12212   1.111  -0.238   6.408  0.6471  0.0453  0.3994
   91MOL0     C12213   1.025  -0.288   6.288 -0.0962  0.9427 -0.6431
   91MOL0     C12214   0.887  -0.327   6.320  0.1019 -1.1262  0.1895
   91MOL0     C12215   0.780  -0.363   6.358 -0.5121  0.0018 -0.5908
   91MOL0     C12216   1.128   0.073   5.994 -0.0573  0.7235 -0.6810
   91MOL0     C12217   1.144   0.159   5.888 -0.9978 -0.2070  0.2010
   91MOL0     H12218   1.579   0.571   5.802 -0.5725 -0.0416 -0.6685
   91MOL0     H12219   1.639   0.771   5.681 -1.0228  0.4857  0.6406
   91MOL0     H12220   1.684   0.936   5.530 -0.6419 -0.2179 -0.0437
   91MOL0     H12221   1.593   0.849   5.409  2.1148 -0.7842  1.5357
   91MOL0     H12222   1.584   1.152   5.450 -1.0987  1.2285 -0.7551
   91MOL0     H12223   1.698   1.072   5.329 -0.1320 -1.1578  0.6227
   91MOL0     H12224   1.501   1.101   5.171 -2.4891 -1.9663 -0.8048
   91MOL0     H12225   1.436   0.971   5.261  0.5486 -0.7596  3.6643
   91MOL0     H12226   1.349   1.196   5.418 -3.6852  0.0140 -0.8579
   91MOL0     H12227   1.385   1.283   5.271 -0.3212 -0.9523  0.6356
   91MOL0     H12228   1.227   1.111   5.154  1.2659  1.5982  0.6099
   91MOL0     H12229   1.205   1.023   5.302 -1.5014  0.8968  1.1177
   91MOL0     H12230   1.126   1.244   5.408 -0.0220  2.5141 -1.2048
   91MOL0     H12231   1.134   1.315   5.262 -0.0617  0.1097 -0.4800
   91MOL0     H12232   0.959   1.178   5.157  1.0513  0.3672 -0.9447
   91MOL0     H12233   0.964   1.057   5.274 -1.9905 -0.5579 -0.1097
   91MOL0     H12234   0.881   1.333   5.332  2.9542 -0.5522 -3.2853
   91MOL0     H12235   0.908   1.215   5.458  0.9349  1.1770 -0.6677
   91MOL0     H12236   0.632   1.136   5.517  0.5560  1.2781  0.7023
   91MOL0     H12237   0.338   1.028   5.342 -1.2619 -2.6394  5.5407
   91MOL0     H12238   0.379   1.090   5.489 -4.1586 -0.5637 -0.2368
   91MOL0     H12239   0.323   1.320   5.447 -1.4035 -1.1634  2.8187
   91MOL0     H12240   0.191   1.210   5.418 -0.0188  0.4335 -1.8654
   91MOL0     H12241   0.345   1.352   5.192  0.4267  1.4589  2.4344
   91MOL0     H12242   0.178   1.373   5.237 -1.5560 -2.1147  1.3592
   91MOL0     H12243   0.308   1.130   5.092 -1.1511 -1.0946  0.5110
   91MOL0     H12244   0.205   1.250   5.037 -3.3030 -1.2885  0.1313
   91MOL0     H12245  -0.017   0.884   5.225 -1.9374  3.4420 -0.1542
   91MOL0     H12246  -0.091   0.638   5.163  1.0547 -1.3354 -0.0567
   91MOL0     H12247  -0.206   0.687   5.034  0.3587 -2.6097 -3.1037
   91MOL0     H12248  -0.078   0.578   4.998 -1.3758 -0.5900 -0.5257
   91MOL0     H12249  -0.149   0.798   4.513  3.4822  0.8172  0.7841
   91MOL0     H12250  -0.229   0.719   4.300  0.6096 -0.3412  0.8129
   91MOL0     H12251  -0.224   0.665   4.101 -0.9874 -0.1774 -0.3484
   91MOL0     H12252  -0.071   0.622   4.028  1.2583 -0.1122 -0.6413
   91MOL0     H12253  -0.258   0.559   3.868  2.3092  0.5996 -0.5128
   91MOL0     H12254  -0.157   0.428   3.910 -0.1901  0.4319 -1.4843
   91MOL0     H12255  -0.423   0.447   3.919 -0.0887 -1.3134 -0.1107
   91MOL0     H12256  -0.391   0.489   4.087 -2.2595 -1.0704 -0.3833
   91MOL0     H12257  -0.275   0.248   3.949  2.8141  0.1113  1.7077
   91MOL0     H12258  -0.240   0.279   4.113 -0.3833  0.7734  1.0648
   91MOL0     H12259  -0.427   0.102   4.094 -2.9829 -0.1305  1.9571
   91MOL0     H12260  -0.523   0.218   4.004  3.3438  0.4837 -3.7864
   91MOL0     H12261  -0.572   0.353   4.172  1.5234  0.4754  1.3786
   91MOL0     H12262  -0.599   0.201   4.246  0.8632 -0.8459  2.0968
   91MOL0     H12263  -0.491   0.354   4.411  0.3962  2.9954  0.0309
   91MOL0     H12264  -0.356   0.369   4.304 -0.3923  0.7783  3.8153
   91MOL0     H12265  -0.293   0.223   4.474  1.3079 -0.5206 -1.0935
   91MOL0     H12266  -0.282   0.134   4.323 -3.2705 -3.1776 -1.1433
   91MOL0     H12267   0.025   0.373   4.348  1.4833  1.4066 -0.8793
   91MOL0     H12268   0.102   0.450   4.543 -1.4424 -1.5922  0.7744
   91MOL0     H12269   0.085   0.942   4.733 -0.2723  0.7975 -0.7000
   91MOL0     H12270   0.159   1.100   4.896 -1.6463  1.4876  1.6809
   91MOL0     H12271   1.238   0.837   5.562  1.7730  0.4943  0.3840
   91MOL0     H12272   1.165   0.643   5.691  0.0759  0.6135 -3.3058
   91MOL0     H12273   1.368   0.361   6.049  0.5480 -0.2039 -2.3296
   91MOL0     H12274   1.301   0.220   6.245  0.5333  0.5820  0.1275
   91MOL0     H12275   1.296  -0.021   6.362  0.1686 -0.3172  0.6926
   91MOL0     H12276   1.181   0.108   6.391 -1.9408  0.1586 -1.9887
   91MOL0     H12277   0.992  -0.040   6.414  0.6258  1.2857  0.7611
   91MOL0     H12278   1.112  -0.054   6.531  2.2024 -1.4937 -0.5599
   91MOL0     H12279   1.093  -0.287   6.504 -1.9073  2.1213  1.1067
   91MOL0     H12280   1.216  -0.260   6.389  0.1359 -1.6682 -0.6327
   91MOL0     H12281   1.078  -0.377   6.252 -1.5832 -0.7870  1.2342
   91MOL0     H12282   1.022  -0.215   6.206 -0.8928  1.8649  0.1831
   91MOL0     H12283   0.679  -0.385   6.386 -1.2048  3.5416  0.1311
   91MOL0     H12284   1.073  -0.019   5.981  0.2507  0.1552  1.5069
   91MOL0     H12285   1.094   0.146   5.793  0.9693 -0.5860 -0.8392
   92MOL0     O12286   9.420   8.315   8.568 -1.5761  0.3779 -0.1477
   92MOL0     C12287   9.525   8.363   8.521  0.2600 -0.0241 -0.7631
   92MOL0     O12288   9.647   8.377   8.582  0.1082 -0.5029  0.2985
   92MOL0     C12289   9.638   8.344   8.712  0.0820  0.0853  0.0517
   92MOL0     C12290   9.630   8.457   8.801  0.4425  0.5680  0.2135
   92MOL0     C12291   9.628   8.447   8.940  0.8544  0.2023  0.8120
   92MOL0     C12292   9.629   8.317   8.995 -0.6046 -0.1981  0.1185
   92MOL0     O12293   9.623   8.282   9.129  0.3049  0.3106 -0.1662
   92MOL0     C12294   9.528   8.346   9.204  0.5751  0.1161 -0.1573
   92MOL0     C12295   9.501   8.257   9.331  0.3312  0.3866 -0.1206
   92MOL0     C12296   9.374   8.287   9.404 -0.3575 -0.2822 -0.8697
   92MOL0     C12297   9.369   8.436   9.446 -1.0616 -0.3939  0.4424
   92MOL0     C12298   9.225   8.461   9.481 -0.3442  0.8946  0.2675
   92MOL0     C12299   9.197   8.602   9.475  0.0339 -1.3077 -0.9416
   92MOL0     C12300   9.071   8.632   9.564 -0.6008 -0.9223 -0.0244
   92MOL0     C12301   9.014   8.773   9.551 -0.1945  0.5613  0.0410
   92MOL0     N12302   9.124   8.873   9.567  0.1443 -0.3280 -0.7309
   92MOL0     C12303   9.160   8.946   9.677  0.1285  0.2582  0.1606
   92MOL0     C12304   9.256   9.033   9.628  0.6844 -0.0726  0.1529
   92MOL0     C12305   9.321   9.148   9.697  0.6034  0.2360 -0.1442
   92MOL0     C12306   9.261   9.176   9.832  0.2633  0.0745 -0.6628
   92MOL0     C12307   9.133   9.253   9.841 -0.2065 -0.7263 -0.0340
   92MOL0     C12308   9.087   9.273   9.983 -0.4223 -0.2219 -1.1100
   92MOL0     O12309   8.977   9.357   9.976 -0.4728 -0.0695  0.3970
   92MOL0     C12310   8.898   9.391  10.082  0.0638 -0.4244  0.0869
   92MOL0     C12311   8.951   9.413  10.210 -0.2641 -1.3964 -0.3978
   92MOL0     C12312   8.871   9.439  10.322  0.2655 -0.5345  0.0292
   92MOL0     C12313   8.943   9.461  10.445 -0.3908 -0.2782  0.2217
   92MOL0     C12314   8.728   9.477  10.292 -0.6928 -1.0176 -1.1279
   92MOL0     C12315   8.624   9.513  10.397 -0.3392  0.2107 -0.2190
   92MOL0     O12316   8.521   9.583  10.348  0.1920 -0.2774 -0.1472
   92MOL0     C12317   8.444   9.646  10.449  1.2035  0.1020 -0.8792
   92MOL0     C12318   8.490   9.763  10.510 -0.6524 -0.1339  0.0748
   92MOL0     C12319   8.419   9.835  10.613 -0.2337 -0.1171 -0.1223
   92MOL0     C12320   8.288   9.789  10.650  0.8230  0.0300  0.6171
   92MOL0     O12321   8.207   9.852  10.723  0.4630 -0.5485  0.3572
   92MOL0     C12322   8.251   9.965  10.798 -0.0443  0.6646  0.3367
   92MOL0     C12323   8.150  10.011  10.895  0.1005  0.4984  0.1820
   92MOL0     C12324   8.168  10.158  10.939 -0.4827 -0.2461 -0.1318
   92MOL0     C12325   8.320  10.205  10.973  0.0516 -0.2653  0.8739
   92MOL0     C12326   8.325  10.357  10.990  0.3542  0.4802  0.5748
   92MOL0     C12327   8.398  10.432  10.873 -0.4559  1.3298 -0.2203
   92MOL0     C12328   8.391  10.582  10.884  0.4786 -0.4470 -1.4072
   92MOL0     C12329   8.494  10.653  10.789  1.5520  0.2413 -0.2988
   92MOL0    Cl12330   8.465  10.829  10.794  0.1890  0.0928  0.3645
   92MOL0     C12331   8.247   9.660  10.590 -0.0593 -0.3492  0.0349
   92MOL0     C12332   8.315   9.595  10.484 -0.1354 -0.3947  0.1952
   92MOL0     O12333   8.636   9.483  10.522 -0.4077  0.0760 -0.2247
   92MOL0     C12334   8.684   9.476  10.156 -0.2959  0.1320  1.1671
   92MOL0     C12335   8.765   9.427  10.049  0.3843 -0.1002  0.3863
   92MOL0     N12336   9.273   9.008   9.493  0.3620  0.5962 -0.6643
   92MOL0     N12337   9.195   8.920   9.458  0.4175 -0.5076  0.6770
   92MOL0     C12338   9.627   8.200   8.899  0.2664 -0.8982 -1.0137
   92MOL0     C12339   9.633   8.213   8.763  0.2347 -0.9760 -0.8448
   92MOL0     C12340   9.511   8.411   8.387 -0.3443 -0.5218 -0.1880
   92MOL0     C12341   9.386   8.418   8.323 -0.8137  0.7793 -0.1441
   92MOL0     C12342   9.373   8.472   8.194 -1.0168 -0.8427  0.1118
   92MOL0     C12343   9.484   8.528   8.127  0.2529  0.9878 -0.8636
   92MOL0     O12344   9.463   8.591   8.007 -0.1370  0.2004  0.2660
   92MOL0     C12345   9.565   8.579   7.908  0.5050 -1.1237  0.0141
   92MOL0     C12346   9.497   8.558   7.769  0.6565  0.2635  0.4001
   92MOL0     C12347   9.544   8.660   7.657 -0.5160 -0.0166 -0.5194
   92MOL0     C12348   9.495   8.606   7.526 -0.5434 -0.0964 -0.2238
   92MOL0     C12349   9.512   8.700   7.410  0.0970 -0.1286  0.4346
   92MOL0     C12350   9.510   8.776   7.314 -1.2797 -0.1604  0.2941
   92MOL0     C12351   9.608   8.521   8.196  0.1774 -0.6421  0.5828
   92MOL0     C12352   9.626   8.462   8.321  1.2287  0.2198 -0.1359
   92MOL0     H12353   9.613   8.556   8.758 -0.2853  0.5845  0.5207
   92MOL0     H12354   9.623   8.533   9.005  1.0047  0.7663  0.0862
   92MOL0     H12355   9.580   8.439   9.228  0.8298  1.0420 -3.7563
   92MOL0     H12356   9.436   8.357   9.145  0.6649 -0.3350 -0.3813
   92MOL0     H12357   9.504   8.153   9.298  0.8660 -0.3418  2.0158
   92MOL0     H12358   9.578   8.258   9.409  0.0947 -0.7147  0.1399
   92MOL0     H12359   9.294   8.251   9.339 -3.5659  2.4623  1.2151
   92MOL0     H12360   9.370   8.224   9.492 -1.0005 -0.0201 -0.7032
   92MOL0     H12361   9.442   8.469   9.521 -0.2939  1.8062 -1.1868
   92MOL0     H12362   9.412   8.498   9.367 -1.9381  1.4691  1.3738
   92MOL0     H12363   9.155   8.414   9.412 -0.4575 -0.3551  1.1970
   92MOL0     H12364   9.199   8.414   9.577 -1.3772 -0.0853 -0.4661
   92MOL0     H12365   9.279   8.659   9.520  0.0718  0.0046 -2.5588
   92MOL0     H12366   9.161   8.638   9.377  1.3697  4.7696  0.3479
   92MOL0     H12367   8.991   8.558   9.554 -0.1821 -1.4405  0.3419
   92MOL0     H12368   9.104   8.614   9.667  0.1748 -2.2607 -0.4782
   92MOL0     H12369   8.941   8.791   9.631 -0.9125 -0.8759 -0.2592
   92MOL0     H12370   8.953   8.772   9.461  2.5883 -1.1189 -2.0109
   92MOL0     H12371   9.118   8.944   9.777 -0.6599 -0.8955 -0.1723
   92MOL0     H12372   9.427   9.124   9.713  0.5976  1.2949  1.7624
   92MOL0     H12373   9.331   9.231   9.626 -0.5419  0.1670 -0.3955
   92MOL0     H12374   9.339   9.226   9.891  1.9312  0.2957 -2.9128
   92MOL0     H12375   9.248   9.080   9.885 -3.4286 -0.0790 -1.6236
   92MOL0     H12376   9.060   9.202   9.777 -0.6611  0.1591 -0.2320
   92MOL0     H12377   9.148   9.351   9.796  1.7573 -0.1618  1.7187
   92MOL0     H12378   9.170   9.308  10.045 -0.8438 -0.5623 -0.3378
   92MOL0     H12379   9.050   9.179  10.025  5.0911 -0.8209  3.7303
   92MOL0     H12380   9.058   9.427  10.209 -0.6951  4.0836  0.3923
   92MOL0     H12381   8.911   9.556  10.489 -1.2928 -0.4657 -0.0016
   92MOL0     H12382   8.930   9.379  10.515 -0.6521 -1.4283 -1.1338
   92MOL0     H12383   9.049   9.469  10.421 -0.8682 -0.1291 -2.1364
   92MOL0     H12384   8.593   9.789  10.486 -1.3092  1.4805 -1.1602
   92MOL0     H12385   8.468   9.922  10.656  2.2187 -1.0432 -0.8782
   92MOL0     H12386   8.341   9.940  10.854  1.2445  3.5275 -0.2482
   92MOL0     H12387   8.287  10.047  10.735  1.8791 -1.5036 -1.5933
   92MOL0     H12388   8.048  10.004  10.855 -0.2348  1.5869  0.8111
   92MOL0     H12389   8.157   9.951  10.986  1.8652 -1.0539 -0.9021
   92MOL0     H12390   8.107  10.184  11.026 -2.8193  2.1326 -2.2882
   92MOL0     H12391   8.126  10.219  10.858 -2.0099 -0.2458  0.6376
   92MOL0     H12392   8.361  10.142  11.052 -2.4316 -2.0655  0.8570
   92MOL0     H12393   8.381  10.171  10.889 -0.4222 -2.5972  1.3861
   92MOL0     H12394   8.373  10.375  11.087  2.5622  2.3605 -0.7749
   92MOL0     H12395   8.222  10.393  10.993 -0.7110 -2.2787  0.5909
   92MOL0     H12396   8.501  10.394  10.873 -0.8362  0.2216 -1.3453
   92MOL0     H12397   8.347  10.385  10.788  0.0352 -1.7959  1.0408
   92MOL0     H12398   8.404  10.614  10.988  0.2636  0.9112 -1.7732
   92MOL0     H12399   8.292  10.619  10.854  0.9097  0.6753 -1.4952
   92MOL0     H12400   8.477  10.617  10.687  2.4763 -2.0382  0.2923
   92MOL0     H12401   8.595  10.625  10.819  0.2936 -2.0986  2.1726
   92MOL0     H12402   8.149   9.620  10.612  0.5146 -2.2907 -0.6778
   92MOL0     H12403   8.277   9.503  10.442 -0.6644 -1.5248  2.9048
   92MOL0     H12404   8.586   9.515  10.132 -0.9471 -1.8082  0.5173
   92MOL0     H12405   8.735   9.419   9.945  2.8060 -2.3239 -0.2614
   92MOL0     H12406   9.626   8.111   8.960  0.6669 -0.7086 -0.7196
   92MOL0     H12407   9.630   8.131   8.691  3.1395 -1.2460 -0.7734
   92MOL0     H12408   9.301   8.383   8.380  0.5515  0.6343  1.9152
   92MOL0     H12409   9.280   8.467   8.138 -0.5769  2.0315 -1.0845
   92MOL0     H12410   9.608   8.679   7.915 -1.9270  0.0552 -0.8591
   92MOL0     H12411   9.654   8.517   7.925 -0.3887 -2.5376 -0.2998
   92MOL0     H12412   9.388   8.562   7.782  0.1431  1.4265 -3.1093
   92MOL0     H12413   9.531   8.464   7.725  0.4432  0.2657  0.2272
   92MOL0     H12414   9.653   8.669   7.659 -0.6574  2.1231  0.1273
   92MOL0     H12415   9.505   8.760   7.678  1.6543  0.3521  2.3539
   92MOL0     H12416   9.392   8.575   7.546 -0.8646  0.5984 -0.7431
   92MOL0     H12417   9.547   8.513   7.501 -1.1383 -0.1327 -1.3965
   92MOL0     H12418   9.538   8.840   7.233 -5.8790 -1.2086 -2.4234
   92MOL0     H12419   9.698   8.556   8.148 -0.6803 -2.7105 -2.8925
   92MOL0     H12420   9.725   8.476   8.363  1.1392 -1.2288  0.6163
   93MOL0     O12421   1.453   3.642   1.840  0.5582  0.8762  0.3217
   93MOL0     C12422   1.496   3.660   1.954 -0.3164  0.8922  0.7319
   93MOL0     O12423   1.432   3.637   2.071  0.0222  0.1587  0.0165
   93MOL0     C12424   1.319   3.564   2.076 -0.2868 -0.7391  0.6976
   93MOL0     C12425   1.322   3.430   2.104 -0.4039 -0.1486  0.0861
   93MOL0     C12426   1.202   3.360   2.112  0.6022 -0.1570 -0.3624
   93MOL0     C12427   1.074   3.425   2.100 -0.3429 -0.9939 -0.1739
   93MOL0     O12428   0.954   3.355   2.087  0.1687 -0.7771  0.1007
   93MOL0     C12429   0.913   3.274   2.198  0.7042  0.0825  0.6170
   93MOL0     C12430   0.821   3.356   2.286 -0.0066  0.1555  0.5770
   93MOL0     C12431   0.763   3.274   2.403  0.0466  0.8890 -0.1478
   93MOL0     C12432   0.858   3.219   2.506 -0.3301  0.3012  0.7633
   93MOL0     C12433   0.777   3.157   2.616  0.3486 -0.5993 -0.2307
   93MOL0     C12434   0.866   3.064   2.700  0.4197  0.1060 -0.5703
   93MOL0     C12435   0.849   2.909   2.674  0.7971 -0.5960  0.6866
   93MOL0     C12436   0.704   2.849   2.687  0.7590  0.7696  1.3132
   93MOL0     N12437   0.707   2.703   2.713 -0.1320 -0.0500  0.4441
   93MOL0     C12438   0.670   2.657   2.829 -0.9374  0.5936 -0.4272
   93MOL0     C12439   0.670   2.523   2.800 -0.3081 -0.1480 -0.3345
   93MOL0     C12440   0.637   2.426   2.920  0.5897  0.1452  1.4431
   93MOL0     C12441   0.499   2.361   2.885 -1.3681 -0.3788  0.6937
   93MOL0     C12442   0.480   2.218   2.947 -0.0488 -0.0120  0.0879
   93MOL0     C12443   0.373   2.144   2.879 -0.0338  1.0365 -1.0624
   93MOL0     O12444   0.262   2.179   2.953  0.7439  0.3928  0.2757
   93MOL0     C12445   0.142   2.137   2.899  0.2282  0.6478 -0.2442
   93MOL0     C12446   0.066   2.050   2.984  0.1628 -0.2728  0.0558
   93MOL0     C12447  -0.057   2.008   2.943  0.1510  0.2699  0.4407
   93MOL0     C12448  -0.123   1.902   3.035  0.7346 -0.7191 -0.3351
   93MOL0     C12449  -0.109   2.039   2.819  0.5735  0.3692  0.9087
   93MOL0     C12450  -0.249   1.991   2.771 -0.8962  0.3309  0.1083
   93MOL0     O12451  -0.348   1.949   2.856  0.5238 -0.6649  0.0630
   93MOL0     C12452  -0.470   1.877   2.830  0.0650  0.2380  0.4605
   93MOL0     C12453  -0.514   1.842   2.703  1.1907 -0.8398  1.0578
   93MOL0     C12454  -0.634   1.762   2.686  0.2348  0.3607 -0.3573
   93MOL0     C12455  -0.692   1.698   2.798  0.6858  0.1938  0.4462
   93MOL0     O12456  -0.793   1.609   2.776  0.0268  0.0647 -0.5764
   93MOL0     C12457  -0.760   1.510   2.683 -0.1562 -0.9707  0.1808
   93MOL0     C12458  -0.738   1.375   2.734  0.4048 -0.2667 -0.3371
   93MOL0     C12459  -0.689   1.267   2.638 -1.0136 -0.0295  0.0703
   93MOL0     C12460  -0.532   1.258   2.634 -0.1905 -0.0358  0.3368
   93MOL0     C12461  -0.495   1.127   2.577  0.2768 -0.1018  0.7362
   93MOL0     C12462  -0.345   1.110   2.555 -0.9284  0.3022 -0.3750
   93MOL0     C12463  -0.263   1.127   2.691 -0.7254 -0.2698 -0.3249
   93MOL0     C12464  -0.142   1.031   2.686 -0.6093 -0.1405 -0.4554
   93MOL0    Cl12465  -0.015   1.113   2.587 -0.1277  0.4622  0.2867
   93MOL0     C12466  -0.646   1.732   2.920  0.2844 -0.3292 -0.7647
   93MOL0     C12467  -0.533   1.815   2.935  0.1657 -0.2163 -0.1372
   93MOL0     O12468  -0.257   1.986   2.649  0.1095 -0.6690  0.8233
   93MOL0     C12469  -0.035   2.124   2.729  0.8441  0.2046 -0.0172
   93MOL0     C12470   0.084   2.173   2.775 -0.4097  0.6846  0.2225
   93MOL0     N12471   0.708   2.498   2.670 -0.3246 -0.5371 -0.6015
   93MOL0     N12472   0.733   2.612   2.615 -0.7962  1.0972  0.0448
   93MOL0     C12473   1.079   3.554   2.060 -0.2721 -0.8989  0.1469
   93MOL0     C12474   1.201   3.626   2.056  0.2183  1.1723 -0.2461
   93MOL0     C12475   1.632   3.714   1.958  0.0976  0.1082  0.3338
   93MOL0     C12476   1.738   3.645   1.910  0.3829  0.4984 -0.2128
   93MOL0     C12477   1.871   3.686   1.926 -0.0554 -0.8270 -1.1581
   93MOL0     C12478   1.896   3.799   2.012 -0.3139 -0.5717  0.0186
   93MOL0     O12479   2.033   3.828   2.042 -0.6195 -0.1118  0.6038
   93MOL0     C12480   2.063   3.955   2.093  1.3573  0.2892 -0.1726
   93MOL0     C12481   2.221   3.961   2.097 -0.4115  0.6986 -1.0643
   93MOL0     C12482   2.282   3.848   2.196 -0.6540 -0.1440 -0.4407
   93MOL0     C12483   2.235   3.863   2.339  0.2099  0.1376  1.2239
   93MOL0     C12484   2.356   3.902   2.419 -0.9040  0.4112  0.7124
   93MOL0     C12485   2.448   3.901   2.493 -0.8364 -0.3407 -1.5135
   93MOL0     C12486   1.783   3.866   2.075  0.3337 -0.2469  0.7874
   93MOL0     C12487   1.662   3.818   2.055  0.5653 -0.2169  0.1029
   93MOL0     H12488   1.416   3.382   2.131  1.6002  1.0271 -3.9622
   93MOL0     H12489   1.186   3.257   2.141 -1.7527  0.3122  0.1710
   93MOL0     H12490   0.854   3.187   2.166  1.3561  0.1797 -0.9561
   93MOL0     H12491   0.995   3.226   2.252  0.6017 -2.2007 -1.0842
   93MOL0     H12492   0.865   3.454   2.309 -1.0195  0.9324 -0.6789
   93MOL0     H12493   0.739   3.375   2.216  0.6141 -2.2284 -0.9273
   93MOL0     H12494   0.679   3.337   2.435 -1.2211 -0.4830 -0.6695
   93MOL0     H12495   0.715   3.182   2.369  0.6467  0.5786 -0.1605
   93MOL0     H12496   0.933   3.156   2.458  0.8390  3.0701 -1.3355
   93MOL0     H12497   0.929   3.290   2.548  0.3296 -0.6213  1.2500
   93MOL0     H12498   0.729   3.231   2.681 -0.2726 -1.1418 -0.0648
   93MOL0     H12499   0.694   3.102   2.572 -0.2458 -0.2489  0.4409
   93MOL0     H12500   0.969   3.083   2.668  0.1775 -0.3968 -1.6830
   93MOL0     H12501   0.855   3.088   2.807  0.8996  0.6384 -0.6372
   93MOL0     H12502   0.886   2.886   2.574 -0.1073  3.6519 -0.8560
   93MOL0     H12503   0.918   2.855   2.740  3.9888 -0.1554 -2.0281
   93MOL0     H12504   0.658   2.850   2.587 -0.4744  0.4902  1.8640
   93MOL0     H12505   0.640   2.912   2.749  2.2806  1.7520  1.9388
   93MOL0     H12506   0.654   2.705   2.925  2.4140 -0.9991  1.0717
   93MOL0     H12507   0.713   2.348   2.920 -0.1003 -0.6380 -1.1978
   93MOL0     H12508   0.635   2.480   3.015 -1.0905 -0.1195  1.5896
   93MOL0     H12509   0.492   2.362   2.776  2.2919  1.7777  0.3071
   93MOL0     H12510   0.417   2.422   2.925 -1.1193 -0.8659  2.0185
   93MOL0     H12511   0.462   2.234   3.054 -1.0131  1.4248 -0.2536
   93MOL0     H12512   0.574   2.165   2.933 -1.2936 -1.5767 -3.5605
   93MOL0     H12513   0.396   2.038   2.886 -1.5650  0.7518  0.3236
   93MOL0     H12514   0.378   2.172   2.773 -1.0939  0.8581 -1.1766
   93MOL0     H12515   0.097   2.046   3.087 -1.0006 -1.1473  0.3979
   93MOL0     H12516  -0.042   1.870   3.102  0.5648  0.4978  0.4841
   93MOL0     H12517  -0.198   1.959   3.091  0.9537 -0.7260 -0.0357
   93MOL0     H12518  -0.180   1.820   2.988  0.6242 -0.6075 -0.3965
   93MOL0     H12519  -0.466   1.870   2.609 -2.8277  0.0634 -0.9278
   93MOL0     H12520  -0.666   1.744   2.584  0.4148  1.1788 -0.5614
   93MOL0     H12521  -0.847   1.515   2.616  1.6597 -1.5975 -2.3696
   93MOL0     H12522  -0.676   1.540   2.620 -1.3685  1.8723 -0.2396
   93MOL0     H12523  -0.675   1.376   2.823  0.9629  1.9581 -0.7090
   93MOL0     H12524  -0.838   1.350   2.770  0.4395 -1.3039 -0.9239
   93MOL0     H12525  -0.732   1.290   2.541 -1.5949 -1.4800 -0.0501
   93MOL0     H12526  -0.727   1.169   2.670 -2.4084  0.4281 -0.1000
   93MOL0     H12527  -0.500   1.337   2.566  0.0951 -0.2077  0.2732
   93MOL0     H12528  -0.481   1.267   2.730  2.4144 -0.3039 -0.9311
   93MOL0     H12529  -0.549   1.122   2.481 -0.9369  0.6978  1.3480
   93MOL0     H12530  -0.536   1.065   2.657 -0.9980 -1.7163 -1.0685
   93MOL0     H12531  -0.328   1.010   2.516 -0.8752  0.4837 -0.8194
   93MOL0     H12532  -0.304   1.179   2.480 -3.6348  0.1892 -2.0533
   93MOL0     H12533  -0.327   1.094   2.773  1.3034  0.2044  1.5645
   93MOL0     H12534  -0.237   1.232   2.705 -1.0403 -0.1459 -0.6580
   93MOL0     H12535  -0.170   0.931   2.651 -2.3441  1.0418 -2.7091
   93MOL0     H12536  -0.105   1.015   2.788  0.8688 -0.9639 -1.0841
   93MOL0     H12537  -0.695   1.693   3.009  0.0066  2.2268  0.2861
   93MOL0     H12538  -0.514   1.834   3.040  3.0464  0.1371 -0.6457
   93MOL0     H12539  -0.084   2.162   2.640 -4.1546 -1.1600  1.7828
   93MOL0     H12540   0.145   2.254   2.736  0.8744  1.3732  3.3756
   93MOL0     H12541   0.986   3.610   2.051  1.9273  2.9971 -0.7197
   93MOL0     H12542   1.189   3.733   2.065 -2.8687  0.8848  0.0055
   93MOL0     H12543   1.726   3.548   1.863 -0.8415  1.0307 -1.0582
   93MOL0     H12544   1.945   3.628   1.872  2.2683  0.2044  0.7511
   93MOL0     H12545   2.011   4.031   2.034  0.2740  1.2770  1.9311
   93MOL0     H12546   2.015   3.963   2.191 -0.6764  1.2147 -1.1867
   93MOL0     H12547   2.250   4.062   2.127  0.9727  0.1438 -0.4624
   93MOL0     H12548   2.261   3.944   1.996  1.7458  2.6148 -0.6216
   93MOL0     H12549   2.391   3.856   2.195 -0.4018 -2.8522 -1.4289
   93MOL0     H12550   2.262   3.747   2.159 -2.8986 -0.1696  0.6958
   93MOL0     H12551   2.199   3.763   2.364 -1.9605 -0.4110 -3.0856
   93MOL0     H12552   2.161   3.943   2.347  0.8010  1.1151 -1.6870
   93MOL0     H12553   2.539   3.893   2.549 -2.9540 -1.7316  2.0890
   93MOL0     H12554   1.802   3.953   2.137  3.4431  1.1807 -1.8678
   93MOL0     H12555   1.580   3.854   2.115  0.2142 -1.5771  0.4642
   94MOL0     O12556   7.997   1.302   6.429  0.0875 -0.2798  0.1607
   94MOL0     C12557   8.023   1.285   6.546  0.1487  0.1494 -0.7291
   94MOL0     O12558   8.112   1.198   6.601 -0.5279  0.0731 -0.4094
   94MOL0     C12559   8.203   1.143   6.512  0.6565 -0.4744 -0.2803
   94MOL0     C12560   8.283   1.222   6.427 -0.4489  0.4164  0.0972
   94MOL0     C12561   8.390   1.153   6.351 -0.3194 -0.8695  0.4138
   94MOL0     C12562   8.414   1.014   6.366 -0.1142 -1.2317  0.5638
   94MOL0     O12563   8.528   0.970   6.290 -0.5044  0.0390  1.2556
   94MOL0     C12564   8.532   0.828   6.275  1.0055  0.5556  0.1488
   94MOL0     C12565   8.668   0.801   6.204 -1.1358 -1.0697 -0.5006
   94MOL0     C12566   8.681   0.838   6.058 -0.7880 -0.2235 -0.4761
   94MOL0     C12567   8.791   0.786   5.977 -0.4258  0.0547 -0.9458
   94MOL0     C12568   8.788   0.829   5.830 -0.5537 -0.4615  0.9960
   94MOL0     C12569   8.885   0.735   5.745  0.0803  0.1792  0.5558
   94MOL0     C12570   8.884   0.786   5.599  0.2171 -0.6451 -0.2531
   94MOL0     C12571   8.750   0.798   5.529  0.2153  0.9518  0.0057
   94MOL0     N12572   8.678   0.668   5.516 -0.7235  0.0416 -0.2573
   94MOL0     C12573   8.604   0.607   5.609  0.3437 -1.0202 -0.4555
   94MOL0     C12574   8.560   0.499   5.550 -0.5177 -0.3702  1.2915
   94MOL0     C12575   8.463   0.401   5.602  1.0110  0.1946 -0.5887
   94MOL0     C12576   8.513   0.257   5.606  0.2861  0.2314  0.4070
   94MOL0     C12577   8.437   0.169   5.710 -0.2800 -0.2447 -0.0541
   94MOL0     C12578   8.464   0.019   5.688  0.0181 -0.1172 -0.5027
   94MOL0     O12579   8.416  -0.051   5.813 -0.2250 -0.1917  0.7750
   94MOL0     C12580   8.500  -0.061   5.922  0.4157 -0.2296  0.3528
   94MOL0     C12581   8.601  -0.155   5.933  0.1666 -0.0893  0.1463
   94MOL0     C12582   8.671  -0.183   6.053 -0.3870  0.6906  0.2994
   94MOL0     C12583   8.773  -0.299   6.041 -0.5265  0.0611  0.0781
   94MOL0     C12584   8.644  -0.099   6.161  0.5558  0.6377 -0.8392
   94MOL0     C12585   8.717  -0.115   6.293  0.8519  1.2312 -0.3068
   94MOL0     O12586   8.655  -0.043   6.396 -0.4400 -0.1278 -0.6004
   94MOL0     C12587   8.695  -0.065   6.523  0.0480 -0.3303 -0.0479
   94MOL0     C12588   8.763   0.039   6.588  0.7206 -0.4779  0.2090
   94MOL0     C12589   8.810   0.035   6.722 -0.2677  0.1429  0.5534
   94MOL0     C12590   8.817  -0.092   6.787 -0.1259  0.3817 -0.6079
   94MOL0     O12591   8.860  -0.116   6.917 -0.2368 -0.7733  0.2749
   94MOL0     C12592   8.856  -0.012   7.015 -0.6218 -0.8146  0.2658
   94MOL0     C12593   8.877  -0.072   7.153  0.2678  0.1244 -0.4437
   94MOL0     C12594   8.776  -0.176   7.193  0.2978 -1.1489  0.0328
   94MOL0     C12595   8.631  -0.120   7.195  0.1460 -1.5519  0.1843
   94MOL0     C12596   8.538  -0.234   7.224 -1.2319  1.0589 -0.7146
   94MOL0     C12597   8.412  -0.205   7.137  1.2574 -0.1856 -0.2447
   94MOL0     C12598   8.321  -0.087   7.169 -0.3774  0.6844  0.2306
   94MOL0     C12599   8.373   0.048   7.113 -0.4892  0.0147  0.0456
   94MOL0    Cl12600   8.394   0.037   6.934 -0.1468  0.3090 -0.2294
   94MOL0     C12601   8.764  -0.202   6.711 -0.2372  0.1775 -0.2829
   94MOL0     C12602   8.702  -0.192   6.579 -1.0406 -0.0331 -0.0195
   94MOL0     O12603   8.828  -0.168   6.287 -0.3340 -0.2522  0.2506
   94MOL0     C12604   8.543  -0.006   6.149  0.0196  0.2880  0.4617
   94MOL0     C12605   8.481   0.022   6.029 -0.1837  0.2129  0.0436
   94MOL0     N12606   8.622   0.492   5.422 -0.2851  0.0745 -0.5634
   94MOL0     N12607   8.690   0.599   5.405  0.3209 -0.0556 -0.5172
   94MOL0     C12608   8.327   0.938   6.447  0.3727 -0.0161 -0.2937
   94MOL0     C12609   8.229   1.005   6.518  0.2460  0.9518 -0.4643
   94MOL0     C12610   7.935   1.361   6.640 -1.4593 -0.6598 -0.3572
   94MOL0     C12611   7.819   1.426   6.605  1.2415  0.6792  0.1107
   94MOL0     C12612   7.732   1.482   6.706 -0.2842  0.3489  0.2665
   94MOL0     C12613   7.784   1.499   6.838  0.7487 -1.4869 -0.2781
   94MOL0     O12614   7.720   1.587   6.931 -0.0458 -1.0684  0.1135
   94MOL0     C12615   7.575   1.603   6.928 -0.2160  0.4649 -0.2491
   94MOL0     C12616   7.516   1.465   6.965 -0.1912 -0.5366 -0.0708
   94MOL0     C12617   7.368   1.475   6.984 -1.0412  1.1831 -0.6999
   94MOL0     C12618   7.294   1.344   6.993 -0.0973 -0.5545  0.6773
   94MOL0     C12619   7.148   1.355   6.978 -0.7168  0.1943 -0.4957
   94MOL0     C12620   7.040   1.396   6.990 -0.9319  0.1349  0.0188
   94MOL0     C12621   7.915   1.455   6.866 -0.0146 -0.4295 -0.2973
   94MOL0     C12622   7.988   1.381   6.773  0.2190 -0.7039  0.2554
   94MOL0     H12623   8.265   1.327   6.409 -2.4689  0.2123  0.7095
   94MOL0     H12624   8.456   1.211   6.287  0.2542 -1.4493  0.4733
   94MOL0     H12625   8.522   0.770   6.367  0.0120  1.8876  0.9135
   94MOL0     H12626   8.449   0.798   6.210  1.6568 -1.5065  0.1958
   94MOL0     H12627   8.752   0.844   6.259 -1.0391  3.2136 -3.5137
   94MOL0     H12628   8.675   0.691   6.204  1.6874 -0.9782  0.9649
   94MOL0     H12629   8.586   0.815   6.011 -1.7005  2.3999 -0.1014
   94MOL0     H12630   8.698   0.946   6.055 -3.8107  0.3181 -1.4494
   94MOL0     H12631   8.878   0.833   6.022 -1.9077  3.5630 -1.4350
   94MOL0     H12632   8.785   0.676   5.980  0.9368 -0.0364 -0.9522
   94MOL0     H12633   8.687   0.846   5.791  1.9509  4.2563 -4.8193
   94MOL0     H12634   8.816   0.934   5.835 -3.3945  0.3434  3.4949
   94MOL0     H12635   8.984   0.742   5.791 -0.2261  5.4585  1.0490
   94MOL0     H12636   8.846   0.634   5.758  3.3109 -1.0068  2.1169
   94MOL0     H12637   8.923   0.888   5.608 -5.1108  1.6015  1.3195
   94MOL0     H12638   8.952   0.730   5.534  0.2057 -1.0428  0.0771
   94MOL0     H12639   8.764   0.843   5.430  4.7593  3.2921  1.3863
   94MOL0     H12640   8.691   0.869   5.588 -2.5673 -1.1749 -0.0645
   94MOL0     H12641   8.590   0.634   5.714  1.5218 -0.4152 -0.4374
   94MOL0     H12642   8.415   0.428   5.697  2.4449 -1.5870  0.7105
   94MOL0     H12643   8.387   0.392   5.524  1.3321  0.0597 -0.8866
   94MOL0     H12644   8.617   0.268   5.639  0.4226  1.5833 -0.4236
   94MOL0     H12645   8.492   0.210   5.510  2.6654  1.0636 -0.5774
   94MOL0     H12646   8.329   0.181   5.719  0.0392  4.7684 -0.0357
   94MOL0     H12647   8.482   0.203   5.804 -1.5696 -0.2472  0.5786
   94MOL0     H12648   8.569   0.003   5.663 -0.0293  0.4120 -1.0739
   94MOL0     H12649   8.395  -0.012   5.610 -2.0069 -0.5367  1.3525
   94MOL0     H12650   8.609  -0.225   5.850 -0.3724  1.1024 -0.9357
   94MOL0     H12651   8.877  -0.270   6.060 -1.0146  0.2206  2.9529
   94MOL0     H12652   8.750  -0.362   6.127  5.3071 -0.9154  1.3855
   94MOL0     H12653   8.772  -0.363   5.953  1.3181 -1.5681  1.1440
   94MOL0     H12654   8.767   0.129   6.527  1.3663 -0.0393  0.8820
   94MOL0     H12655   8.841   0.128   6.769  1.5513  1.1028 -2.2911
   94MOL0     H12656   8.931   0.060   6.982 -2.1389 -0.0203 -1.6371
   94MOL0     H12657   8.760   0.039   7.007  0.0035  0.7768  2.3095
   94MOL0     H12658   8.968  -0.133   7.146  0.0938 -0.4304  1.6189
   94MOL0     H12659   8.881  -0.004   7.239 -3.8653 -1.3252  1.1223
   94MOL0     H12660   8.802  -0.207   7.294  1.3247  0.3014  0.2410
   94MOL0     H12661   8.784  -0.260   7.123 -1.2997  1.4249 -3.5312
   94MOL0     H12662   8.623  -0.033   7.260  2.2364  1.2905 -2.9828
   94MOL0     H12663   8.616  -0.075   7.096  0.2261  2.4100  1.8091
   94MOL0     H12664   8.511  -0.239   7.330  0.2493  2.1596 -0.2597
   94MOL0     H12665   8.583  -0.333   7.213  1.3682  1.7033  2.5346
   94MOL0     H12666   8.439  -0.200   7.031  0.8585  2.6280 -0.2970
   94MOL0     H12667   8.346  -0.292   7.150 -1.6128  2.1386  2.2677
   94MOL0     H12668   8.324  -0.075   7.278 -0.4164 -2.1753  0.6025
   94MOL0     H12669   8.225  -0.103   7.118 -0.6611  1.0148  0.6546
   94MOL0     H12670   8.467   0.072   7.163 -0.1423 -3.2956  1.2597
   94MOL0     H12671   8.313   0.136   7.137  0.7285  0.6601  0.7859
   94MOL0     H12672   8.769  -0.298   6.761 -0.7295 -1.0868 -2.5210
   94MOL0     H12673   8.664  -0.281   6.531 -0.0935  0.9304 -2.7307
   94MOL0     H12674   8.512   0.053   6.235 -1.7200  1.6024 -0.9704
   94MOL0     H12675   8.399   0.093   6.032  1.0039  1.9277 -3.1114
   94MOL0     H12676   8.346   0.831   6.445 -0.5590 -0.2946  1.9042
   94MOL0     H12677   8.169   0.938   6.580  0.5083 -1.0202 -2.2389
   94MOL0     H12678   7.780   1.431   6.504  2.8947 -0.4145 -0.6236
   94MOL0     H12679   7.641   1.532   6.677 -2.2452 -1.7741  2.3314
   94MOL0     H12680   7.531   1.670   7.003 -2.7585 -2.7923  1.4531
   94MOL0     H12681   7.545   1.641   6.829 -0.8096  0.0538 -0.2354
   94MOL0     H12682   7.565   1.428   7.055 -0.3313  0.4440  0.4252
   94MOL0     H12683   7.534   1.388   6.890  2.2063 -1.0333  0.9217
   94MOL0     H12684   7.324   1.524   6.896  2.4013  3.3621 -1.4176
   94MOL0     H12685   7.346   1.535   7.073  2.8584  1.1910  0.4356
   94MOL0     H12686   7.334   1.318   7.091  1.1467  0.4381  0.4734
   94MOL0     H12687   7.335   1.269   6.925  2.8486 -0.3799  2.1069
   94MOL0     H12688   6.943   1.438   7.006 -1.4230 -0.8230 -0.3957
   94MOL0     H12689   7.963   1.490   6.957 -1.5958 -0.1921  0.4918
   94MOL0     H12690   8.087   1.345   6.800  0.9439  0.6752 -0.4854
   95MOL0     O12691   7.745   1.115  10.189  0.2301 -0.0194 -0.2557
   95MOL0     C12692   7.678   1.052  10.267  0.5037  0.0193  0.2676
   95MOL0     O12693   7.542   1.021  10.254 -0.1796  0.8460 -0.0367
   95MOL0     C12694   7.484   1.038  10.126 -0.9620  0.4298 -0.7130
   95MOL0     C12695   7.431   0.927  10.073 -0.2634  0.9478 -0.4524
   95MOL0     C12696   7.382   0.920   9.946 -0.8088  0.2415  0.1860
   95MOL0     C12697   7.366   1.043   9.870 -0.4652  0.3746 -0.0783
   95MOL0     O12698   7.292   1.025   9.754  0.5421 -0.3813 -0.4118
   95MOL0     C12699   7.240   1.149   9.688 -0.2586  0.2362 -0.6024
   95MOL0     C12700   7.316   1.188   9.553 -0.9735  0.1039 -0.7145
   95MOL0     C12701   7.250   1.304   9.472  0.0036  0.3865 -0.5360
   95MOL0     C12702   7.144   1.241   9.386  1.2021 -0.3165 -0.3495
   95MOL0     C12703   7.102   1.334   9.268  0.2729  0.4510 -0.7197
   95MOL0     C12704   7.024   1.265   9.153  0.4500 -0.2738  0.0168
   95MOL0     C12705   7.017   1.335   9.025  0.6834 -0.1817 -0.5214
   95MOL0     C12706   6.870   1.403   9.024 -0.1197  0.2226  0.2027
   95MOL0     N12707   6.866   1.495   8.910  0.2181 -0.5770  0.5540
   95MOL0     C12708   6.794   1.617   8.918 -0.0686 -0.6685 -0.5363
   95MOL0     C12709   6.834   1.674   8.806  0.4715  0.0622  0.9525
   95MOL0     C12710   6.784   1.813   8.790  0.4574 -0.6025 -0.3866
   95MOL0     C12711   6.628   1.816   8.787 -0.3696  0.2228  0.4134
   95MOL0     C12712   6.592   1.960   8.752 -0.0638 -0.2207 -0.7298
   95MOL0     C12713   6.441   1.981   8.753 -0.6309 -0.8052  0.2763
   95MOL0     O12714   6.391   1.944   8.887 -0.3698  0.0535 -0.2713
   95MOL0     C12715   6.257   1.965   8.914  0.5111  0.6878 -1.0976
   95MOL0     C12716   6.218   1.954   9.046  0.2108  0.9371  0.5917
   95MOL0     C12717   6.093   1.939   9.095  0.2300 -0.1252  0.0132
   95MOL0     C12718   6.075   1.880   9.233 -0.0655  0.0283  1.0567
   95MOL0     C12719   5.988   1.976   9.010 -0.3947 -0.0102 -0.4094
   95MOL0     C12720   5.836   1.983   9.054  0.4545 -1.2318  0.0645
   95MOL0     O12721   5.739   1.984   8.950  0.3795 -0.1395 -0.0908
   95MOL0     C12722   5.602   1.983   8.979 -0.3114  0.9697  1.4514
   95MOL0     C12723   5.532   2.052   8.882  0.1853  0.1120  0.3675
   95MOL0     C12724   5.391   2.033   8.875 -0.1664  0.0844  0.0242
   95MOL0     C12725   5.322   1.949   8.977  0.8820  0.4656  0.5276
   95MOL0     O12726   5.185   1.918   8.986  0.3047 -0.3654 -0.5378
   95MOL0     C12727   5.095   1.980   8.894 -0.3649  0.2074 -0.0386
   95MOL0     C12728   4.942   1.937   8.923  0.4959 -0.2902  1.0968
   95MOL0     C12729   4.918   1.781   8.910  1.1083 -0.1013 -0.0667
   95MOL0     C12730   4.771   1.743   8.942  0.5858  0.0426 -0.1006
   95MOL0     C12731   4.774   1.594   8.947  0.1482 -0.0375 -0.3832
   95MOL0     C12732   4.621   1.537   8.939 -0.2211 -0.6678 -0.8923
   95MOL0     C12733   4.544   1.592   8.820  1.3295  0.6851 -0.6770
   95MOL0     C12734   4.438   1.480   8.792 -0.4531 -0.3389  0.8388
   95MOL0    Cl12735   4.337   1.545   8.655 -0.0912 -0.0749 -0.6282
   95MOL0     C12736   5.403   1.879   9.062  0.7348  1.4874  0.3492
   95MOL0     C12737   5.538   1.905   9.076 -0.5586 -1.0251 -0.0831
   95MOL0     O12738   5.817   2.009   9.176  1.0616  0.5981  0.3316
   95MOL0     C12739   6.025   1.999   8.872 -0.6533  0.3050  0.8982
   95MOL0     C12740   6.159   1.994   8.828  0.8915  0.6229  0.4600
   95MOL0     N12741   6.923   1.595   8.730  0.7264 -0.2008  0.0347
   95MOL0     N12742   6.948   1.495   8.806 -0.4061  0.2848 -0.0594
   95MOL0     C12743   7.420   1.164   9.925  0.2522  0.2013  0.2207
   95MOL0     C12744   7.490   1.159  10.045  0.8413  0.7825 -0.3043
   95MOL0     C12745   7.738   0.992  10.390  0.5373 -0.1551  0.3365
   95MOL0     C12746   7.880   1.000  10.399  0.5120 -1.2226  0.5260
   95MOL0     C12747   7.940   0.965  10.521 -1.0290 -0.1084 -0.0116
   95MOL0     C12748   7.864   0.906  10.625 -1.0349  0.8342 -0.2417
   95MOL0     O12749   7.915   0.857  10.745 -0.2192  0.0781  0.1206
   95MOL0     C12750   7.939   0.715  10.741  0.2911  0.8435  0.4287
   95MOL0     C12751   8.076   0.669  10.678 -0.1729  1.0513  0.6715
   95MOL0     C12752   8.199   0.745  10.739 -0.1572 -0.1892 -0.4458
   95MOL0     C12753   8.205   0.731  10.896 -0.0316  0.0453 -0.5625
   95MOL0     C12754   8.231   0.590  10.948 -0.5726 -0.9519  0.2285
   95MOL0     C12755   8.256   0.478  10.991  0.1597 -0.2226 -0.7786
   95MOL0     C12756   7.723   0.909  10.614 -0.1246  0.9110 -0.7087
   95MOL0     C12757   7.660   0.949  10.492  0.4482  0.7493  0.0738
   95MOL0     H12758   7.450   0.833  10.124 -2.5897  1.2045  1.0089
   95MOL0     H12759   7.368   0.825   9.895  1.4176  0.2048 -0.4287
   95MOL0     H12760   7.136   1.122   9.667 -1.1523  2.6019  0.3747
   95MOL0     H12761   7.234   1.234   9.756  0.7317 -0.0809 -0.1026
   95MOL0     H12762   7.417   1.224   9.574 -1.3178  0.1211  1.0544
   95MOL0     H12763   7.332   1.093   9.501  3.0578 -1.8478  3.3567
   95MOL0     H12764   7.220   1.389   9.534 -1.1954  0.5652 -1.3202
   95MOL0     H12765   7.333   1.331   9.405  1.5069 -3.6026 -0.5615
   95MOL0     H12766   7.193   1.160   9.331  2.8771 -0.5053  1.3132
   95MOL0     H12767   7.054   1.207   9.438  1.5267 -1.4421 -0.4866
   95MOL0     H12768   7.028   1.408   9.302 -3.7124 -2.0754 -2.9927
   95MOL0     H12769   7.196   1.372   9.228  0.5221  1.1140  0.4489
   95MOL0     H12770   7.090   1.179   9.137  0.8978  0.1681 -0.5532
   95MOL0     H12771   6.929   1.232   9.195  1.6209 -0.9640  2.2457
   95MOL0     H12772   7.109   1.394   9.012 -0.1551  1.2427 -0.1788
   95MOL0     H12773   7.015   1.264   8.942 -3.6034  1.4453 -2.0673
   95MOL0     H12774   6.863   1.468   9.111  0.5673  0.8950 -0.2314
   95MOL0     H12775   6.788   1.330   9.024  0.6773 -0.7113 -0.5908
   95MOL0     H12776   6.720   1.647   8.991 -2.1797 -2.2174 -1.9431
   95MOL0     H12777   6.819   1.876   8.872 -2.1990 -0.5133  0.7530
   95MOL0     H12778   6.829   1.847   8.696 -0.3269 -2.9275 -1.6932
   95MOL0     H12779   6.588   1.798   8.887  0.3646 -0.5291  0.5858
   95MOL0     H12780   6.589   1.742   8.717  0.0773 -0.3476  0.7456
   95MOL0     H12781   6.632   1.984   8.653  0.8987 -1.4786 -0.6817
   95MOL0     H12782   6.644   2.012   8.833  2.2584  0.2886 -2.4359
   95MOL0     H12783   6.386   1.937   8.670  2.4799 -2.2276 -1.1990
   95MOL0     H12784   6.429   2.090   8.757  0.0088 -0.5884 -2.0118
   95MOL0     H12785   6.308   1.922   9.098  2.3389 -0.3960 -3.4569
   95MOL0     H12786   6.037   1.962   9.295  1.0125  1.8841 -0.6015
   95MOL0     H12787   5.999   1.802   9.233 -1.8593  1.6399 -0.8489
   95MOL0     H12788   6.171   1.846   9.274 -1.4639 -1.6078  3.2152
   95MOL0     H12789   5.582   2.102   8.801 -0.0491 -3.5255 -2.2599
   95MOL0     H12790   5.342   2.065   8.784  0.6143 -0.0739 -0.4595
   95MOL0     H12791   5.106   2.089   8.899  0.3528  0.0802  3.6143
   95MOL0     H12792   5.129   1.950   8.794  1.0800  0.5847  0.3156
   95MOL0     H12793   4.910   1.961   9.025 -4.4285 -3.7473  0.7280
   95MOL0     H12794   4.885   1.994   8.850  3.2810 -1.2324 -2.0803
   95MOL0     H12795   4.987   1.730   8.978  0.9214  0.7269  0.7661
   95MOL0     H12796   4.931   1.759   8.804 -0.5822  4.1189 -1.3593
   95MOL0     H12797   4.748   1.789   9.038  1.0669 -1.6935  0.8786
   95MOL0     H12798   4.709   1.792   8.866  0.2919 -1.9743 -1.2307
   95MOL0     H12799   4.817   1.568   9.044 -0.0659  1.9009  0.2634
   95MOL0     H12800   4.823   1.547   8.862  2.3780  1.0052  0.2502
   95MOL0     H12801   4.634   1.429   8.935  0.5138 -0.5679 -1.7723
   95MOL0     H12802   4.561   1.574   9.022 -0.9115 -3.3892 -0.0767
   95MOL0     H12803   4.607   1.600   8.730  1.3877 -0.7282 -0.7808
   95MOL0     H12804   4.493   1.688   8.837 -0.2931  0.0028 -1.4491
   95MOL0     H12805   4.370   1.459   8.875 -3.8516  0.4201 -1.5462
   95MOL0     H12806   4.477   1.383   8.759  1.3300  1.3107 -2.3979
   95MOL0     H12807   5.361   1.812   9.135  0.0837  1.1972 -0.2716
   95MOL0     H12808   5.591   1.844   9.148  1.3664  2.9390  2.1806
   95MOL0     H12809   5.945   2.018   8.800 -0.7116  1.9659  1.3741
   95MOL0     H12810   6.188   2.011   8.725  0.7278 -0.3861  0.2286
   95MOL0     H12811   7.409   1.265   9.888  0.9323 -0.8759 -3.2258
   95MOL0     H12812   7.528   1.256  10.077 -0.5227  1.0184  0.6889
   95MOL0     H12813   7.945   1.042  10.323  1.0294 -1.4359  0.8504
   95MOL0     H12814   8.048   0.972  10.517 -1.1577  2.7406 -2.2574
   95MOL0     H12815   7.931   0.680  10.844  1.7090  1.8063  0.9080
   95MOL0     H12816   7.871   0.672  10.668 -0.6236 -0.2965  1.9029
   95MOL0     H12817   8.069   0.689  10.571 -1.9035  1.2494  0.7989
   95MOL0     H12818   8.085   0.560  10.686  3.5642  0.7123 -3.8838
   95MOL0     H12819   8.180   0.852  10.721  1.0338  0.6316  2.5346
   95MOL0     H12820   8.292   0.707  10.695  0.4859  0.6122  0.1695
   95MOL0     H12821   8.112   0.776  10.931 -0.2106 -1.2282  0.6763
   95MOL0     H12822   8.284   0.789  10.946 -0.0228  0.1054 -0.6442
   95MOL0     H12823   8.270   0.375  11.018 -0.6305  0.5752  3.2223
   95MOL0     H12824   7.660   0.866  10.691  1.2683  0.1237  0.0103
   95MOL0     H12825   7.552   0.944  10.485  0.4316 -0.6041  0.8805
   96MOL0     O12826   3.403   2.810   2.929  0.1494 -0.2918  0.8621
   96MOL0     C12827   3.425   2.858   3.035  0.1180 -1.4714 -0.8435
   96MOL0     O12828   3.351   2.844   3.156  0.6289  0.4872  0.2973
   96MOL0     C12829   3.241   2.759   3.163 -0.2188 -0.3126 -0.8084
   96MOL0     C12830   3.241   2.619   3.127  0.8247 -0.6859  0.4749
   96MOL0     C12831   3.121   2.550   3.128  0.9473  0.6198 -0.3079
   96MOL0     C12832   2.998   2.613   3.173 -0.5969  0.3371 -1.6331
   96MOL0     O12833   2.875   2.565   3.173 -0.1167  0.6073  0.3503
   96MOL0     C12834   2.870   2.423   3.212  0.7392 -0.0818  0.3549
   96MOL0     C12835   2.720   2.396   3.226  0.2901  0.6325 -0.3842
   96MOL0     C12836   2.690   2.277   3.313  0.1190  0.5644  0.4686
   96MOL0     C12837   2.541   2.259   3.306 -1.4282 -0.5202 -0.4220
   96MOL0     C12838   2.508   2.137   3.387  0.2474 -0.5307 -0.0377
   96MOL0     C12839   2.543   2.012   3.323 -0.9670  0.2896  0.1669
   96MOL0     C12840   2.474   1.894   3.385 -0.5699 -0.4073  0.0840
   96MOL0     C12841   2.323   1.885   3.371  0.0675 -0.0413 -0.1798
   96MOL0     N12842   2.275   1.792   3.469 -0.3813 -0.1488  0.0752
   96MOL0     C12843   2.274   1.812   3.601 -0.9691 -0.5511  0.1034
   96MOL0     C12844   2.245   1.692   3.654 -0.1964 -0.4154  0.1916
   96MOL0     C12845   2.228   1.674   3.808 -0.4158 -0.0824  0.0204
   96MOL0     C12846   2.224   1.531   3.856 -0.6418  0.7026  0.0874
   96MOL0     C12847   2.356   1.448   3.831  0.2164  0.0954 -0.2325
   96MOL0     C12848   2.345   1.299   3.885 -0.0930 -0.0583  1.2001
   96MOL0     O12849   2.246   1.222   3.804 -0.3514 -0.3707  0.3829
   96MOL0     C12850   2.150   1.160   3.881  0.7741 -0.7131  0.0211
   96MOL0     C12851   2.204   1.079   3.983 -0.1441  0.1952 -0.7419
   96MOL0     C12852   2.120   1.018   4.072  0.5161  0.0416 -0.2277
   96MOL0     C12853   2.166   0.936   4.189  0.3761  0.4576  0.0368
   96MOL0     C12854   1.978   1.028   4.050 -1.0520  0.2420 -0.1039
   96MOL0     C12855   1.878   0.967   4.138  0.3502  0.4007 -0.1116
   96MOL0     O12856   1.882   0.831   4.146  0.3583 -0.0558 -0.0485
   96MOL0     C12857   1.783   0.758   4.212  0.9131  0.2934  0.6419
   96MOL0     C12858   1.831   0.651   4.292 -0.2956 -0.4044 -0.1739
   96MOL0     C12859   1.745   0.575   4.376  0.7125 -0.3589  0.7498
   96MOL0     C12860   1.607   0.592   4.371  0.2988  0.1542 -0.1643
   96MOL0     O12861   1.523   0.523   4.455 -0.5801  0.6872  0.1085
   96MOL0     C12862   1.554   0.395   4.508  0.5345  0.3294 -0.8311
   96MOL0     C12863   1.453   0.348   4.611  0.6270  0.1560 -0.3695
   96MOL0     C12864   1.481   0.207   4.659 -0.1075 -0.3602 -0.2643
   96MOL0     C12865   1.374   0.164   4.756  0.1459  0.3867  1.1910
   96MOL0     C12866   1.239   0.149   4.691  0.0193 -0.4037  0.6660
   96MOL0     C12867   1.135   0.050   4.762 -0.6833 -0.0949 -0.6700
   96MOL0     C12868   1.079   0.138   4.884 -0.5691 -0.1257  0.2691
   96MOL0     C12869   0.973   0.061   4.953 -0.3415 -0.3088 -0.0137
   96MOL0    Cl12870   1.024  -0.027   5.107  0.2494 -0.0436 -0.2198
   96MOL0     C12871   1.555   0.697   4.295  0.6727 -0.0987 -0.2691
   96MOL0     C12872   1.641   0.775   4.212  0.9240 -0.3143 -0.1494
   96MOL0     O12873   1.788   1.034   4.175  0.2423  0.8963 -0.1857
   96MOL0     C12874   1.924   1.109   3.948  0.0884  0.3431  0.3618
   96MOL0     C12875   2.008   1.184   3.865  1.4915 -0.3561  0.9626
   96MOL0     N12876   2.230   1.607   3.556  1.3514 -0.1406  1.2268
   96MOL0     N12877   2.248   1.668   3.438 -0.0305  0.2056  0.3790
   96MOL0     C12878   2.999   2.742   3.220 -0.3262  0.5330  1.4008
   96MOL0     C12879   3.118   2.820   3.200  0.2728 -1.0595 -0.0564
   96MOL0     C12880   3.549   2.937   3.054 -0.2913 -0.3326 -0.0421
   96MOL0     C12881   3.553   3.030   3.157 -1.3238  0.0163  0.0509
   96MOL0     C12882   3.683   3.081   3.190 -0.0861  0.2995  0.7478
   96MOL0     C12883   3.792   3.048   3.111 -1.0817 -0.2947 -0.8176
   96MOL0     O12884   3.929   3.093   3.140 -0.6214 -0.6779  0.6750
   96MOL0     C12885   3.987   3.200   3.058 -0.1198  0.8175 -0.5212
   96MOL0     C12886   4.111   3.275   3.111 -0.1811 -0.1611 -0.4942
   96MOL0     C12887   4.243   3.201   3.080  0.0360  0.6308  0.2077
   96MOL0     C12888   4.249   3.059   3.146 -0.5507 -0.0021  0.2651
   96MOL0     C12889   4.393   3.043   3.144  0.2625  0.1516 -0.0425
   96MOL0     C12890   4.514   3.035   3.126  0.2863  1.1117 -0.2828
   96MOL0     C12891   3.780   2.971   3.000 -0.5821 -0.3810  0.0253
   96MOL0     C12892   3.658   2.906   2.970 -0.2774 -0.9759  0.6862
   96MOL0     H12893   3.336   2.585   3.087 -0.1109 -0.3024 -2.3181
   96MOL0     H12894   3.113   2.447   3.095 -2.4130  1.4087 -2.5227
   96MOL0     H12895   2.929   2.356   3.148  0.4220  1.4096 -1.5936
   96MOL0     H12896   2.920   2.408   3.308  0.9351 -3.5205 -0.1461
   96MOL0     H12897   2.661   2.480   3.264 -0.6619 -0.1548 -0.0803
   96MOL0     H12898   2.689   2.372   3.124  1.0710  0.8521 -0.6762
   96MOL0     H12899   2.745   2.188   3.284  1.2507  1.7422 -1.1827
   96MOL0     H12900   2.720   2.303   3.415  2.1403 -3.2241  1.0259
   96MOL0     H12901   2.489   2.344   3.352  1.1037 -0.3838  2.5061
   96MOL0     H12902   2.512   2.246   3.202  3.0982 -0.2767 -1.9366
   96MOL0     H12903   2.556   2.154   3.484 -0.1518  0.0654  0.0589
   96MOL0     H12904   2.400   2.137   3.400  0.3228  1.0557  0.8903
   96MOL0     H12905   2.523   2.017   3.215 -1.1808 -1.7470  0.0817
   96MOL0     H12906   2.652   2.003   3.329 -0.9417 -2.2710 -2.0653
   96MOL0     H12907   2.523   1.804   3.345 -0.3917 -0.5655  0.6455
   96MOL0     H12908   2.502   1.897   3.490  0.7787  2.0631 -0.2601
   96MOL0     H12909   2.303   1.834   3.276  3.5302  2.5957 -2.6093
   96MOL0     H12910   2.266   1.978   3.368 -1.3463 -0.8219 -4.2357
   96MOL0     H12911   2.281   1.912   3.643  1.4050 -0.0573 -1.3213
   96MOL0     H12912   2.289   1.725   3.884 -2.6411 -0.9041  2.5255
   96MOL0     H12913   2.133   1.721   3.837 -1.1228 -2.5878  2.1140
   96MOL0     H12914   2.155   1.484   3.785 -0.2143 -0.8292  0.6317
   96MOL0     H12915   2.174   1.516   3.952  1.5198  1.9473  1.4964
   96MOL0     H12916   2.445   1.478   3.886 -0.5180  1.6470  0.1515
   96MOL0     H12917   2.380   1.450   3.724 -2.6201 -0.7829 -0.9700
   96MOL0     H12918   2.327   1.291   3.993  2.5491 -0.0204  1.6966
   96MOL0     H12919   2.443   1.258   3.860  0.1721  0.7793  0.8627
   96MOL0     H12920   2.312   1.079   3.998 -0.1116  6.0176  2.0542
   96MOL0     H12921   2.179   0.830   4.165 -1.9678  0.0071  0.5319
   96MOL0     H12922   2.268   0.963   4.220  1.0480  0.8045 -2.2932
   96MOL0     H12923   2.093   0.947   4.269 -2.4957  1.2488 -2.5220
   96MOL0     H12924   1.937   0.633   4.306 -0.1441 -0.6094 -1.5005
   96MOL0     H12925   1.796   0.501   4.436  5.2156  1.6710 -0.1789
   96MOL0     H12926   1.554   0.322   4.426 -1.8806 -1.2524  0.4681
   96MOL0     H12927   1.649   0.398   4.562  0.5667  5.0738 -0.7844
   96MOL0     H12928   1.451   0.422   4.691  0.9740  0.6441 -0.8077
   96MOL0     H12929   1.354   0.340   4.566  0.4944 -1.1069  0.1024
   96MOL0     H12930   1.574   0.205   4.717  0.2133 -1.1919 -0.7987
   96MOL0     H12931   1.480   0.143   4.571  0.1787 -1.0943  0.2609
   96MOL0     H12932   1.386   0.061   4.791  0.5655 -0.7668 -2.0367
   96MOL0     H12933   1.376   0.220   4.850 -0.4845  0.6905  1.0350
   96MOL0     H12934   1.249   0.121   4.586  0.9613  0.5692  0.4835
   96MOL0     H12935   1.194   0.246   4.669  1.7726 -0.1218 -2.1174
   96MOL0     H12936   1.049   0.028   4.700 -0.0594 -1.4163 -1.0974
   96MOL0     H12937   1.189  -0.037   4.801  2.2117  2.5764  1.8917
   96MOL0     H12938   1.038   0.236   4.857 -0.5611  0.1451  1.1768
   96MOL0     H12939   1.167   0.151   4.948  1.3603  0.4557 -2.3389
   96MOL0     H12940   0.915  -0.003   4.886  1.8980 -2.0100 -0.4204
   96MOL0     H12941   0.898   0.136   4.982  0.0625  0.0923  0.0031
   96MOL0     H12942   1.453   0.730   4.312  0.8558  0.4495 -0.2165
   96MOL0     H12943   1.587   0.852   4.157 -0.3560 -1.5691 -0.7349
   96MOL0     H12944   1.818   1.116   3.928  0.3142  1.9193 -0.5150
   96MOL0     H12945   1.963   1.245   3.787 -1.3987 -0.0262  2.7495
   96MOL0     H12946   2.904   2.793   3.213  0.0914  1.1972 -4.8817
   96MOL0     H12947   3.118   2.926   3.221  1.0260 -0.4897 -2.4984
   96MOL0     H12948   3.475   3.061   3.225  3.1787  3.7737  4.2716
   96MOL0     H12949   3.684   3.146   3.277  2.7774  2.3505 -0.6527
   96MOL0     H12950   4.012   3.169   2.956 -0.6943 -1.9422  0.0862
   96MOL0     H12951   3.905   3.271   3.040 -0.2262  0.2159 -2.6862
   96MOL0     H12952   4.103   3.292   3.218 -2.8122 -1.5159 -0.3863
   96MOL0     H12953   4.122   3.378   3.075 -0.2915 -0.4687 -1.4471
   96MOL0     H12954   4.326   3.265   3.111 -2.0473  3.4154  0.4218
   96MOL0     H12955   4.238   3.192   2.971  0.8818  0.2775  0.1880
   96MOL0     H12956   4.206   2.980   3.085  0.0327  1.5074 -2.2263
   96MOL0     H12957   4.212   3.073   3.248 -0.0254 -0.9380  0.6024
   96MOL0     H12958   4.617   3.023   3.100  0.0090  2.6732 -2.3108
   96MOL0     H12959   3.865   2.954   2.935 -4.0161 -2.6302 -4.4232
   96MOL0     H12960   3.656   2.845   2.880  1.3407  0.1477 -0.1624
   97MOL0     O12961   2.722   6.284   9.383  0.1841  0.3384  0.4006
   97MOL0     C12962   2.814   6.330   9.311 -0.2027  0.0757 -0.3257
   97MOL0     O12963   2.823   6.339   9.170  0.5668  0.0933  0.7191
   97MOL0     C12964   2.712   6.290   9.107  0.0811 -0.5006  0.8626
   97MOL0     C12965   2.582   6.329   9.126 -0.1713 -0.6215  0.1231
   97MOL0     C12966   2.477   6.276   9.048 -1.4957 -0.0430  0.3271
   97MOL0     C12967   2.497   6.186   8.951 -0.4587  0.4919  0.6898
   97MOL0     O12968   2.401   6.140   8.868 -0.0671 -0.5805 -0.6365
   97MOL0     C12969   2.274   6.089   8.921  0.0635  0.6841  0.0541
   97MOL0     C12970   2.147   6.132   8.831 -0.2075  0.6306  0.0239
   97MOL0     C12971   2.150   6.274   8.781  1.1758  0.9687  0.1417
   97MOL0     C12972   2.022   6.314   8.687 -0.1613  0.0117 -0.2940
   97MOL0     C12973   2.006   6.466   8.661 -0.4495 -0.0421 -0.0786
   97MOL0     C12974   2.141   6.526   8.612  0.0678  0.3468 -0.2843
   97MOL0     C12975   2.159   6.498   8.464 -0.5995 -0.8737  1.4405
   97MOL0     C12976   2.270   6.580   8.392  0.4343  1.0710  0.0535
   97MOL0     N12977   2.261   6.569   8.244 -0.0208 -0.7136 -0.1020
   97MOL0     C12978   2.188   6.478   8.161 -0.9094 -0.7955 -0.3597
   97MOL0     C12979   2.224   6.522   8.037 -0.0780 -0.4255 -0.8153
   97MOL0     C12980   2.184   6.451   7.912  0.1502 -0.9819 -0.7388
   97MOL0     C12981   2.196   6.307   7.916 -0.3260  0.4212 -1.0858
   97MOL0     C12982   2.183   6.228   7.782 -0.0777  0.3827 -0.6523
   97MOL0     C12983   2.288   6.235   7.674  0.6943  1.7594  0.5611
   97MOL0     O12984   2.410   6.168   7.728 -0.3277 -0.4595  0.1195
   97MOL0     C12985   2.491   6.094   7.640 -0.0478 -0.0957 -0.5109
   97MOL0     C12986   2.481   6.083   7.500  1.0917  0.1580  0.1436
   97MOL0     C12987   2.586   6.014   7.434  0.2208  0.1259  0.2287
   97MOL0     C12988   2.563   6.004   7.281 -0.6179  0.3555  0.0673
   97MOL0     C12989   2.699   5.965   7.501 -0.0288  0.7097  0.2423
   97MOL0     C12990   2.807   5.879   7.429 -0.0443 -1.0353  1.0699
   97MOL0     O12991   2.925   5.861   7.495  0.8768  0.0828 -1.0440
   97MOL0     C12992   3.025   5.771   7.468  0.4149 -0.0192  0.8784
   97MOL0     C12993   3.008   5.654   7.397  0.3545  0.5719  0.2989
   97MOL0     C12994   3.109   5.569   7.378  0.4486 -0.2640 -1.3183
   97MOL0     C12995   3.233   5.592   7.437  0.1518 -0.5480 -0.4373
   97MOL0     O12996   3.337   5.504   7.422 -0.1832  0.3630 -0.8124
   97MOL0     C12997   3.442   5.553   7.341  0.5333 -0.3563 -0.2384
   97MOL0     C12998   3.402   5.548   7.194  0.2664  0.0781 -0.1211
   97MOL0     C12999   3.408   5.411   7.139  1.3558  0.4374 -0.1875
   97MOL0     C13000   3.289   5.385   7.046  0.2388  0.3335  0.3431
   97MOL0     C13001   3.272   5.231   7.034  0.1559  0.7167  0.2398
   97MOL0     C13002   3.188   5.185   6.917 -0.5739  0.2575 -0.0721
   97MOL0     C13003   3.144   5.038   6.939 -0.3463 -0.4079 -0.0638
   97MOL0     C13004   3.042   4.988   6.832  0.0111 -0.5100 -0.8433
   97MOL0    Cl13005   3.090   4.852   6.715  0.0693 -0.2719 -0.1386
   97MOL0     C13006   3.251   5.714   7.513 -0.2255  0.6870  0.1944
   97MOL0     C13007   3.146   5.798   7.532  0.2876  0.1826  0.7112
   97MOL0     O13008   2.785   5.832   7.312  0.7092  0.4045 -0.8098
   97MOL0     C13009   2.699   5.993   7.635 -0.3989 -0.4798  0.4340
   97MOL0     C13010   2.596   6.039   7.713 -0.0963  0.3100 -0.0368
   97MOL0     N13011   2.307   6.635   8.049  0.4836  0.1735 -0.1184
   97MOL0     N13012   2.315   6.669   8.172  0.4280 -0.6977 -0.3526
   97MOL0     C13013   2.636   6.148   8.923  0.5838 -0.3028 -0.4909
   97MOL0     C13014   2.741   6.205   8.997 -0.4532 -0.8352  0.3446
   97MOL0     C13015   2.937   6.379   9.390  0.9071  0.4127  1.1037
   97MOL0     C13016   3.044   6.433   9.320  0.5414 -0.0499  0.0744
   97MOL0     C13017   3.157   6.469   9.390 -0.5982  0.5294  0.0275
   97MOL0     C13018   3.159   6.452   9.525 -0.7075 -0.2047 -0.0677
   97MOL0     O13019   3.277   6.481   9.586  0.0235 -0.7834 -0.1339
   97MOL0     C13020   3.275   6.453   9.726  0.4608  0.3540  0.0730
   97MOL0     C13021   3.415   6.473   9.780  0.2597 -0.0378  0.3460
   97MOL0     C13022   3.524   6.381   9.722  0.5339 -0.0225  0.6118
   97MOL0     C13023   3.670   6.432   9.754  0.5900  0.1380 -0.1373
   97MOL0     C13024   3.708   6.423   9.896 -0.4953  0.3633  1.0938
   97MOL0     C13025   3.742   6.422  10.013  0.3291 -0.4628 -0.7535
   97MOL0     C13026   3.044   6.410   9.597 -0.4403 -0.1713  1.0571
   97MOL0     C13027   2.929   6.383   9.525 -0.2317  0.5875  0.2973
   97MOL0     H13028   2.563   6.417   9.186 -0.1906 -0.3068 -0.3416
   97MOL0     H13029   2.380   6.320   9.067 -0.4128  1.9968  1.5417
   97MOL0     H13030   2.275   5.980   8.923 -1.1093  0.6470  2.6837
   97MOL0     H13031   2.252   6.122   9.022  1.7359 -0.3611  0.8015
   97MOL0     H13032   2.139   6.071   8.741 -0.2840 -0.6282  0.8614
   97MOL0     H13033   2.059   6.112   8.894 -1.0623 -1.7501 -1.7503
   97MOL0     H13034   2.156   6.334   8.873  0.8413 -0.8587  1.4255
   97MOL0     H13035   2.241   6.272   8.720  3.2638 -0.4583  3.0438
   97MOL0     H13036   2.047   6.273   8.589  1.6928 -3.1291  1.3432
   97MOL0     H13037   1.926   6.283   8.729  0.0536 -1.0667 -0.5572
   97MOL0     H13038   1.925   6.485   8.590  0.8450  1.9660 -1.0958
   97MOL0     H13039   1.985   6.504   8.761  0.0948 -1.6040  0.6586
   97MOL0     H13040   2.139   6.633   8.630 -1.3236  0.1403  0.9707
   97MOL0     H13041   2.226   6.487   8.668 -1.7954 -1.5587  1.4257
   97MOL0     H13042   2.178   6.391   8.458 -3.2388 -1.3788  0.9098
   97MOL0     H13043   2.067   6.522   8.410 -1.4418  0.8942  3.4731
   97MOL0     H13044   2.367   6.541   8.424 -1.2404 -0.7698  3.4537
   97MOL0     H13045   2.269   6.687   8.416 -1.6431  1.2718 -0.7442
   97MOL0     H13046   2.136   6.387   8.191  1.9681 -1.9930  1.4069
   97MOL0     H13047   2.089   6.486   7.871  0.3704 -0.2051 -0.6058
   97MOL0     H13048   2.257   6.479   7.834  2.0990 -0.5986  1.1197
   97MOL0     H13049   2.113   6.276   7.979  0.1789  1.8580  0.3512
   97MOL0     H13050   2.288   6.272   7.963 -0.8532  0.4236 -0.0290
   97MOL0     H13051   2.089   6.261   7.738 -1.8250 -2.2396  0.8277
   97MOL0     H13052   2.174   6.121   7.806  0.4680  1.0715  3.2517
   97MOL0     H13053   2.320   6.335   7.643  1.4305  1.1370 -0.7646
   97MOL0     H13054   2.261   6.182   7.582  1.3181 -1.8259  2.2855
   97MOL0     H13055   2.408   6.136   7.440  1.4369 -0.1363 -0.5451
   97MOL0     H13056   2.649   6.035   7.221 -1.5661  1.3642 -0.7993
   97MOL0     H13057   2.549   5.897   7.266  0.5931 -0.2510  2.6265
   97MOL0     H13058   2.477   6.065   7.254 -1.0573 -0.5391 -0.6118
   97MOL0     H13059   2.919   5.632   7.339  0.5637 -0.9221  0.5035
   97MOL0     H13060   3.104   5.487   7.307  0.3912 -1.8588  0.4508
   97MOL0     H13061   3.476   5.652   7.375  0.4860  0.3195 -2.0876
   97MOL0     H13062   3.523   5.482   7.361 -0.9307 -1.2347  3.4311
   97MOL0     H13063   3.299   5.583   7.186  0.2443 -0.2513 -1.6383
   97MOL0     H13064   3.463   5.609   7.127 -2.6325 -0.0774 -3.1674
   97MOL0     H13065   3.391   5.340   7.221 -2.6210  1.2823 -0.0639
   97MOL0     H13066   3.502   5.400   7.084  1.8643  0.3176  0.6871
   97MOL0     H13067   3.193   5.432   7.071 -0.6339 -1.2039 -0.0008
   97MOL0     H13068   3.325   5.426   6.950  3.9591  1.7887  2.1379
   97MOL0     H13069   3.216   5.192   7.120  1.3840 -1.5326  0.1081
   97MOL0     H13070   3.370   5.184   7.047  0.8531  2.7804  3.7528
   97MOL0     H13071   3.098   5.247   6.926 -0.0085  1.2112 -0.7913
   97MOL0     H13072   3.233   5.206   6.819 -1.2267  2.1648 -0.0007
   97MOL0     H13073   3.088   5.051   7.031  0.4942  2.4404  0.1351
   97MOL0     H13074   3.235   4.977   6.948 -0.1364 -0.2946 -1.2593
   97MOL0     H13075   3.017   5.079   6.776 -1.3428 -0.2375  0.1527
   97MOL0     H13076   2.952   4.953   6.882  0.0173  1.5738  0.7954
   97MOL0     H13077   3.347   5.737   7.558 -0.0787  0.0694  0.2058
   97MOL0     H13078   3.164   5.884   7.597 -0.3982  1.1103 -0.2901
   97MOL0     H13079   2.794   5.965   7.680  0.3952 -0.0051 -0.8966
   97MOL0     H13080   2.603   6.052   7.820  2.6446  1.3230 -0.2684
   97MOL0     H13081   2.652   6.080   8.839  1.4987  0.5562 -1.0340
   97MOL0     H13082   2.846   6.178   8.985 -0.1597  0.0060  0.9797
   97MOL0     H13083   3.049   6.441   9.212 -0.5335  0.2003  0.0339
   97MOL0     H13084   3.233   6.521   9.333 -2.8096  0.1715 -3.5547
   97MOL0     H13085   3.202   6.514   9.780  0.4772  1.8040 -1.4831
   97MOL0     H13086   3.259   6.348   9.753  1.1769  0.7560  2.3307
   97MOL0     H13087   3.407   6.469   9.889  2.8961  0.9095  0.6495
   97MOL0     H13088   3.438   6.579   9.765  1.8784 -0.2978  0.7395
   97MOL0     H13089   3.511   6.369   9.614 -2.5181  1.3488  0.7080
   97MOL0     H13090   3.517   6.279   9.760 -2.7144  0.9630  3.1906
   97MOL0     H13091   3.681   6.538   9.729 -0.9076  0.1395 -0.8336
   97MOL0     H13092   3.746   6.386   9.689  1.3838  2.2679 -0.7954
   97MOL0     H13093   3.764   6.422  10.118 -1.6447  0.7435 -0.2928
   97MOL0     H13094   3.033   6.376   9.699 -4.2183 -0.4782  0.7208
   97MOL0     H13095   2.843   6.361   9.586 -1.1638 -2.1534 -1.7899
   98MOL0     O13096  10.182   2.717   7.435  0.5073 -0.1895 -0.2185
   98MOL0     C13097  10.294   2.738   7.407 -1.5349 -0.4883  0.6456
   98MOL0     O13098  10.375   2.649   7.338  0.8995  0.0801 -0.3461
   98MOL0     C13099  10.311   2.546   7.276  0.5427 -0.6467 -0.4108
   98MOL0     C13100  10.325   2.547   7.133  0.0889  0.3382 -0.0760
   98MOL0     C13101  10.282   2.432   7.060 -1.0919 -0.3805 -0.4916
   98MOL0     C13102  10.199   2.340   7.119 -0.5378  0.0710 -0.3286
   98MOL0     O13103  10.146   2.241   7.042  0.4273  0.6615  0.1783
   98MOL0     C13104  10.211   2.183   6.928 -0.5843 -0.1189 -0.5581
   98MOL0     C13105  10.355   2.133   6.960 -0.0058  0.0717  0.2709
   98MOL0     C13106  10.406   2.026   6.858 -0.2638  0.4450 -0.8885
   98MOL0     C13107  10.539   1.957   6.907  0.3461  0.0785  0.6418
   98MOL0     C13108  10.530   1.878   7.034  0.3184  0.3595 -0.5702
   98MOL0     C13109  10.644   1.775   7.047 -0.1898  0.4558  0.3834
   98MOL0     C13110  10.618   1.684   7.168 -0.6037 -0.0960  0.2331
   98MOL0     C13111  10.499   1.576   7.158  0.2172  0.1124 -0.0179
   98MOL0     N13112  10.502   1.477   7.043  0.8281  0.2400  0.1600
   98MOL0     C13113  10.602   1.375   7.024 -0.5750 -0.7200 -0.2154
   98MOL0     C13114  10.595   1.347   6.891 -0.0856 -0.4544  0.0873
   98MOL0     C13115  10.674   1.241   6.821 -0.5458 -0.4970 -0.0488
   98MOL0     C13116  10.595   1.152   6.714  0.5932  0.3896 -0.6218
   98MOL0     C13117  10.693   1.049   6.650  0.0085  1.2755  0.5463
   98MOL0     C13118  10.681   1.035   6.500  0.8155  0.7159  0.5759
   98MOL0     O13119  10.753   1.142   6.431  0.1199 -0.4956 -0.1079
   98MOL0     C13120  10.755   1.140   6.301  0.3706  0.1634 -0.2901
   98MOL0     C13121  10.674   1.065   6.211 -0.5373  0.0780 -0.6589
   98MOL0     C13122  10.675   1.089   6.078  0.3060 -0.7365  0.0589
   98MOL0     C13123  10.576   1.011   5.998  0.2863  0.0751 -0.5475
   98MOL0     C13124  10.775   1.184   6.024  0.4758  0.9519  0.7053
   98MOL0     C13125  10.796   1.208   5.876  0.4547  0.7453  0.3702
   98MOL0     O13126  10.700   1.176   5.782  0.1533 -0.3160  0.5974
   98MOL0     C13127  10.716   1.230   5.666 -0.0002 -0.5080  0.1507
   98MOL0     C13128  10.661   1.356   5.643  0.1678  0.4162 -0.0617
   98MOL0     C13129  10.631   1.388   5.510  0.1068 -0.1499  0.3577
   98MOL0     C13130  10.669   1.305   5.397 -0.5707  0.8111  0.0970
   98MOL0     O13131  10.647   1.348   5.269  1.3641 -0.1171  0.4938
   98MOL0     C13132  10.550   1.267   5.207  0.1979 -0.9294  0.0373
   98MOL0     C13133  10.540   1.312   5.057  0.0367 -0.1619  0.4675
   98MOL0     C13134  10.662   1.282   4.965 -0.9748  0.1254 -0.1329
   98MOL0     C13135  10.674   1.370   4.842 -0.0558  0.4831  0.1309
   98MOL0     C13136  10.794   1.328   4.753 -0.9014 -0.3030  0.0802
   98MOL0     C13137  10.765   1.196   4.680 -0.0995  0.1000 -0.6971
   98MOL0     C13138  10.882   1.156   4.579 -0.2236 -0.0775  0.3216
   98MOL0     C13139  10.843   1.059   4.466  0.7724 -0.0109  0.4190
   98MOL0    Cl13140  10.702   0.956   4.498 -0.0736  0.0027  0.0552
   98MOL0     C13141  10.737   1.180   5.424 -0.8115  0.4005  0.2089
   98MOL0     C13142  10.744   1.145   5.560 -0.9723 -0.0144  0.4157
   98MOL0     O13143  10.912   1.246   5.847 -0.4415 -1.4239 -0.0836
   98MOL0     C13144  10.861   1.248   6.117  0.1123  0.6991 -0.7761
   98MOL0     C13145  10.843   1.226   6.254 -0.7265  0.1296 -0.5907
   98MOL0     N13146  10.486   1.415   6.839 -0.1610 -0.3481 -0.3003
   98MOL0     N13147  10.435   1.500   6.926 -0.2525 -0.0119  0.2038
   98MOL0     C13148  10.178   2.344   7.252  0.2035 -0.1300  0.3116
   98MOL0     C13149  10.243   2.439   7.338 -0.2905 -0.2113  0.2025
   98MOL0     C13150  10.363   2.867   7.436  0.6658 -0.5165  0.1958
   98MOL0     C13151  10.500   2.861   7.458  0.0749 -0.4314 -0.8237
   98MOL0     C13152  10.554   2.977   7.522  0.3525 -0.3404  1.0046
   98MOL0     C13153  10.491   3.094   7.542 -0.4742 -0.7159  0.3150
   98MOL0     O13154  10.556   3.194   7.606  0.3885 -0.9559 -0.5004
   98MOL0     C13155  10.485   3.250   7.723  0.2752  0.1471  0.5703
   98MOL0     C13156  10.512   3.180   7.856 -0.0839 -0.0448 -0.3817
   98MOL0     C13157  10.384   3.150   7.930  0.0443 -0.6316 -0.2253
   98MOL0     C13158  10.415   3.033   8.024  0.6100 -0.1123  0.5730
   98MOL0     C13159  10.295   3.000   8.103 -1.0727  0.0453 -0.0702
   98MOL0     C13160  10.193   3.000   8.175 -0.0502 -0.4025 -0.4109
   98MOL0     C13161  10.359   3.091   7.503  0.5118 -0.0146  0.4471
   98MOL0     C13162  10.297   2.983   7.451  1.0247 -0.8885 -0.9467
   98MOL0     H13163  10.386   2.623   7.084 -0.5542 -1.4462 -4.0028
   98MOL0     H13164  10.308   2.428   6.955  3.0632  0.1852  0.3367
   98MOL0     H13165  10.158   2.097   6.887 -3.8904  1.6797 -0.3888
   98MOL0     H13166  10.220   2.261   6.851  0.1613 -1.9176 -2.3639
   98MOL0     H13167  10.418   2.222   6.957 -0.6019  0.5037 -3.0246
   98MOL0     H13168  10.364   2.084   7.057 -1.8378 -3.0318 -0.9824
   98MOL0     H13169  10.323   1.957   6.845  0.5184 -1.3645  2.4309
   98MOL0     H13170  10.427   2.079   6.765 -0.2633  2.2638  0.1075
   98MOL0     H13171  10.568   1.896   6.821 -0.1402  1.8016 -0.8183
   98MOL0     H13172  10.622   2.026   6.925  1.3738 -0.7320 -0.7732
   98MOL0     H13173  10.524   1.930   7.130 -2.6745 -0.1962 -0.3352
   98MOL0     H13174  10.431   1.830   7.034  0.4110  0.1617 -1.1759
   98MOL0     H13175  10.638   1.714   6.956 -3.1186  1.0253  0.1039
   98MOL0     H13176  10.742   1.825   7.054  0.2080 -0.2324 -0.1679
   98MOL0     H13177  10.705   1.619   7.182 -0.4039  0.3065  0.9076
   98MOL0     H13178  10.612   1.737   7.264  1.0746  0.6571 -0.0484
   98MOL0     H13179  10.400   1.624   7.159  1.2918  2.5675 -1.3582
   98MOL0     H13180  10.500   1.507   7.243 -1.3076  0.2268  0.1179
   98MOL0     H13181  10.674   1.327   7.090  0.9918  1.4132 -0.2826
   98MOL0     H13182  10.757   1.288   6.768  2.3030 -2.9106  1.9019
   98MOL0     H13183  10.724   1.174   6.892  1.0211 -0.9500 -1.5172
   98MOL0     H13184  10.547   1.204   6.631 -1.6301  2.4243  1.7856
   98MOL0     H13185  10.518   1.102   6.773  0.8211  0.9186  0.1485
   98MOL0     H13186  10.670   0.955   6.702 -0.7429 -1.9637 -4.7854
   98MOL0     H13187  10.799   1.070   6.669  0.7190 -0.5504 -0.9654
   98MOL0     H13188  10.578   1.039   6.464  1.1988 -0.3041 -0.6923
   98MOL0     H13189  10.724   0.939   6.471  0.1357  1.0626 -1.7946
   98MOL0     H13190  10.602   0.993   6.250  2.1168 -1.3662  2.0127
   98MOL0     H13191  10.622   0.913   5.979 -2.8771 -1.5832 -0.3179
   98MOL0     H13192  10.498   0.982   6.069 -0.9618 -1.2751 -2.3765
   98MOL0     H13193  10.544   1.057   5.904  1.5724 -4.9685 -3.8346
   98MOL0     H13194  10.647   1.431   5.720 -1.9491  1.1378 -1.0698
   98MOL0     H13195  10.585   1.475   5.464  1.8277  0.5486 -0.0954
   98MOL0     H13196  10.579   1.161   5.209  1.2818 -0.6597 -0.3021
   98MOL0     H13197  10.455   1.271   5.261  0.8733  0.4406  1.1729
   98MOL0     H13198  10.458   1.267   5.001  0.7112  2.5960 -3.1793
   98MOL0     H13199  10.516   1.418   5.047 -0.0210 -0.3664 -2.3761
   98MOL0     H13200  10.650   1.176   4.942 -1.9620 -0.3802  2.3265
   98MOL0     H13201  10.753   1.288   5.025 -2.9633  2.2517  3.0136
   98MOL0     H13202  10.594   1.354   4.770  0.2096 -2.8799  0.4105
   98MOL0     H13203  10.688   1.474   4.874  1.4982  1.5851 -3.5848
   98MOL0     H13204  10.884   1.326   4.815 -1.1715 -0.1604  0.4871
   98MOL0     H13205  10.811   1.402   4.675  2.1466 -1.8298 -0.8448
   98MOL0     H13206  10.735   1.121   4.753 -2.2806  2.3618  0.8752
   98MOL0     H13207  10.676   1.199   4.616 -1.0625  0.3748  0.6134
   98MOL0     H13208  10.952   1.094   4.637  2.0537  0.7843 -1.3778
   98MOL0     H13209  10.930   1.242   4.533 -3.8194  1.7889 -0.2705
   98MOL0     H13210  10.930   1.003   4.428 -0.3531 -3.1264  2.0599
   98MOL0     H13211  10.816   1.134   4.391  2.3930 -0.5021 -0.7369
   98MOL0     H13212  10.749   1.104   5.348  1.9964 -2.2346  2.9713
   98MOL0     H13213  10.761   1.042   5.591  1.6225  0.6578  1.4951
   98MOL0     H13214  10.945   1.311   6.087  0.3750  1.4793  1.3863
   98MOL0     H13215  10.913   1.270   6.324  3.3090 -3.0869 -2.1659
   98MOL0     H13216  10.118   2.264   7.295  0.5338 -1.2631 -1.2457
   98MOL0     H13217  10.220   2.438   7.444  2.0093  2.2686  0.8443
   98MOL0     H13218  10.562   2.772   7.453 -0.1840 -1.0339  3.2562
   98MOL0     H13219  10.653   2.970   7.565 -0.9681 -1.6043  4.1365
   98MOL0     H13220  10.508   3.356   7.734 -1.2594  0.4905  0.7173
   98MOL0     H13221  10.378   3.248   7.699  0.7491 -1.3286 -1.8546
   98MOL0     H13222  10.573   3.234   7.929  0.1663 -5.1516  3.7013
   98MOL0     H13223  10.555   3.086   7.821  3.0709  2.0481 -2.6856
   98MOL0     H13224  10.301   3.142   7.860 -1.4070  0.9888  1.2130
   98MOL0     H13225  10.374   3.243   7.988  0.0896  2.0386 -4.1131
   98MOL0     H13226  10.494   3.064   8.093  0.9768 -1.3143  0.7054
   98MOL0     H13227  10.447   2.947   7.965  0.7166  0.6049 -0.4451
   98MOL0     H13228  10.101   2.982   8.227  0.3664 -2.1573 -0.1907
   98MOL0     H13229  10.302   3.184   7.508  0.4789  0.0470 -0.6740
   98MOL0     H13230  10.191   2.993   7.430  0.8537 -0.3434  0.1015
   99MOL0     O13231   7.422   9.946   1.909  0.0695 -0.0295  0.7831
   99MOL0     C13232   7.397  10.062   1.939  0.2099 -0.0014 -0.6601
   99MOL0     O13233   7.313  10.147   1.873  0.4729  0.1734  0.7566
   99MOL0     C13234   7.222  10.095   1.782 -0.4624  0.2645 -0.1212
   99MOL0     C13235   7.095  10.049   1.823 -0.4259 -0.4380 -0.9136
   99MOL0     C13236   6.999   9.996   1.727  0.3381  0.6569  0.5085
   99MOL0     C13237   7.028   9.998   1.595  0.9588  0.0476  0.0072
   99MOL0     O13238   6.948   9.960   1.488  0.6920  0.1942 -0.2661
   99MOL0     C13239   6.808   9.947   1.513 -0.3138  0.3121 -0.1580
   99MOL0     C13240   6.733  10.080   1.487 -0.7709 -0.5382  0.7981
   99MOL0     C13241   6.786  10.141   1.360 -1.0211  0.5635  0.1573
   99MOL0     C13242   6.744  10.289   1.342 -0.3980 -0.0183  0.5290
   99MOL0     C13243   6.629  10.292   1.241  0.5915 -0.1813  0.0699
   99MOL0     C13244   6.488  10.247   1.285 -0.9611  0.6643 -0.1968
   99MOL0     C13245   6.427  10.330   1.402  0.4345  0.1388  0.2059
   99MOL0     C13246   6.420  10.483   1.388 -0.1367  0.2437 -0.7973
   99MOL0     N13247   6.341  10.528   1.274 -0.6781  0.0833  0.0124
   99MOL0     C13248   6.211  10.490   1.237 -0.3325 -0.1789  0.0742
   99MOL0     C13249   6.213  10.504   1.103 -0.6746 -0.4352 -0.2172
   99MOL0     C13250   6.094  10.489   1.020  0.0911  0.9308 -0.4540
   99MOL0     C13251   6.094  10.349   0.951  0.4231 -0.5498  0.4920
   99MOL0     C13252   6.197  10.325   0.834  0.2652  1.0302  2.0407
   99MOL0     C13253   6.316  10.234   0.878 -0.0065 -0.5163  0.9385
   99MOL0     O13254   6.291  10.108   0.928 -0.1798  0.0033  0.8168
   99MOL0     C13255   6.387  10.009   0.904  0.4993 -0.0830  0.9236
   99MOL0     C13256   6.458   9.967   1.016 -0.4748 -0.3989 -0.0768
   99MOL0     C13257   6.556   9.864   1.012 -1.1999  0.0289 -0.4466
   99MOL0     C13258   6.635   9.834   1.142 -0.2588 -0.3618 -0.4554
   99MOL0     C13259   6.567   9.794   0.889  0.0051  0.5837  0.0967
   99MOL0     C13260   6.671   9.677   0.861 -0.6044 -0.8073 -0.9034
   99MOL0     O13261   6.758   9.647   0.957 -0.1490 -0.2827  0.0031
   99MOL0     C13262   6.802   9.519   0.952  0.0439  0.2251 -0.8777
   99MOL0     C13263   6.933   9.491   0.903 -0.0933  0.4626 -1.1694
   99MOL0     C13264   6.983   9.358   0.906 -0.3417 -0.3468 -0.0751
   99MOL0     C13265   6.897   9.252   0.953 -0.3368  0.1225 -0.8698
   99MOL0     O13266   6.939   9.117   0.952  0.5682 -0.4134 -0.6116
   99MOL0     C13267   7.065   9.091   1.015 -0.0932 -0.5409 -0.2712
   99MOL0     C13268   7.063   8.964   1.106 -0.5796 -0.2364  0.1426
   99MOL0     C13269   6.969   8.982   1.231  0.2485 -0.6939  0.8891
   99MOL0     C13270   6.833   8.898   1.233  0.4211  0.2688 -0.7458
   99MOL0     C13271   6.770   8.908   1.369  0.9722 -0.6945  0.6028
   99MOL0     C13272   6.653   8.818   1.395 -0.0569 -0.1418  0.4145
   99MOL0     C13273   6.696   8.662   1.382  0.6937 -0.5600  0.4579
   99MOL0     C13274   6.578   8.591   1.452  0.0002  0.3117 -0.2558
   99MOL0    Cl13275   6.575   8.608   1.633  0.0108 -0.1045 -0.3829
   99MOL0     C13276   6.764   9.275   0.988  0.6051  1.1815  0.8587
   99MOL0     C13277   6.716   9.406   0.980  0.0479  0.6493 -0.4734
   99MOL0     O13278   6.682   9.630   0.752  0.0847 -0.5938  0.6167
   99MOL0     C13279   6.495   9.830   0.778  0.0256 -0.1193  0.0969
   99MOL0     C13280   6.403   9.935   0.791 -0.4931 -0.6698 -0.2909
   99MOL0     N13281   6.334  10.552   1.061  0.7543 -0.4085  0.1507
   99MOL0     N13282   6.414  10.559   1.161 -0.6448 -0.1178 -0.0135
   99MOL0     C13283   7.156  10.043   1.558  1.4149 -0.1018  0.4715
   99MOL0     C13284   7.259  10.087   1.646 -0.9086  0.3784  0.4334
   99MOL0     C13285   7.456  10.108   2.069  0.4132 -0.0335  0.7059
   99MOL0     C13286   7.472  10.243   2.100  0.0099 -0.3481 -0.3961
   99MOL0     C13287   7.519  10.291   2.220 -0.2176  0.3503 -0.0020
   99MOL0     C13288   7.554  10.197   2.326 -0.2890  0.2651  0.0324
   99MOL0     O13289   7.593  10.242   2.447 -1.7013  0.1721  0.1618
   99MOL0     C13290   7.596  10.172   2.571  0.4157 -0.1527  0.1947
   99MOL0     C13291   7.744  10.183   2.617 -0.8855  0.1321  0.8605
   99MOL0     C13292   7.762  10.093   2.737  0.6890 -0.0600  0.3097
   99MOL0     C13293   7.907  10.097   2.779 -0.2909  1.2468 -1.0018
   99MOL0     C13294   7.921   9.986   2.883 -0.5988 -0.2598  0.3465
   99MOL0     C13295   7.924   9.896   2.966  0.3882 -0.7276 -0.9721
   99MOL0     C13296   7.547  10.057   2.293 -1.5342 -0.1323 -0.6331
   99MOL0     C13297   7.502  10.015   2.168  0.7225 -0.1402 -0.9350
   99MOL0     H13298   7.081  10.047   1.931 -4.7467  0.6905 -1.2455
   99MOL0     H13299   6.905   9.959   1.766 -0.0029  1.4112  0.4135
   99MOL0     H13300   6.776   9.870   1.444  3.0022 -1.1772 -0.2138
   99MOL0     H13301   6.782   9.904   1.610 -0.2276 -3.3022 -1.6191
   99MOL0     H13302   6.624  10.066   1.481 -0.7820  0.0345 -0.6473
   99MOL0     H13303   6.745  10.152   1.568 -0.7331  0.2605  0.0897
   99MOL0     H13304   6.895  10.148   1.366 -1.0901  1.5145  0.3175
   99MOL0     H13305   6.766  10.073   1.276 -0.0834 -0.6543  0.8725
   99MOL0     H13306   6.719  10.331   1.439  1.5702  2.1542  0.1965
   99MOL0     H13307   6.825  10.352   1.303  0.7575 -0.6704  1.8218
   99MOL0     H13308   6.623  10.395   1.204  0.6739  0.5007  1.8885
   99MOL0     H13309   6.652  10.226   1.157 -1.4048  1.4230 -1.8574
   99MOL0     H13310   6.425  10.266   1.198 -1.2205  2.8617  0.4041
   99MOL0     H13311   6.481  10.141   1.311  0.5770 -0.8638 -4.9533
   99MOL0     H13312   6.323  10.298   1.411  1.2263 -2.0883  2.5688
   99MOL0     H13313   6.469  10.292   1.496 -0.0747  1.1832  0.8704
   99MOL0     H13314   6.523  10.520   1.395  0.3989 -1.1196 -0.9707
   99MOL0     H13315   6.377  10.521   1.480 -2.3784 -1.4959 -1.0312
   99MOL0     H13316   6.127  10.474   1.304 -0.8823 -0.7408 -0.7216
   99MOL0     H13317   6.003  10.508   1.078  0.5165  1.4068  0.0794
   99MOL0     H13318   6.092  10.559   0.936 -2.1236  1.5661  0.0590
   99MOL0     H13319   5.995  10.336   0.905  0.3766  2.9516 -0.7666
   99MOL0     H13320   6.103  10.274   1.029 -3.2953  0.1728  1.8387
   99MOL0     H13321   6.231  10.421   0.795 -0.9533  0.0045 -2.0167
   99MOL0     H13322   6.132  10.268   0.767  0.3615 -3.5799  5.3683
   99MOL0     H13323   6.384  10.278   0.951  0.2417  0.8008 -0.0515
   99MOL0     H13324   6.381  10.224   0.791  0.5462  1.0077  1.1529
   99MOL0     H13325   6.446  10.017   1.111  1.6921  0.0048  0.0256
   99MOL0     H13326   6.736   9.874   1.139 -0.8805  1.2011 -2.2101
   99MOL0     H13327   6.583   9.875   1.230 -1.3804 -4.2307  0.9321
   99MOL0     H13328   6.630   9.725   1.146 -3.1425 -0.2847  0.8551
   99MOL0     H13329   6.985   9.583   0.879 -1.6167  1.6705 -0.0646
   99MOL0     H13330   7.085   9.348   0.872 -1.4329  1.5082 -4.5964
   99MOL0     H13331   7.131   9.061   0.933 -3.6507 -3.1912 -2.4902
   99MOL0     H13332   7.090   9.176   1.078 -2.9554 -0.8704  1.5123
   99MOL0     H13333   7.031   8.872   1.056  1.8283 -2.4903  2.4519
   99MOL0     H13334   7.165   8.950   1.142 -1.0004  0.4935  1.6871
   99MOL0     H13335   6.952   9.090   1.230 -0.8438 -0.8237  2.5291
   99MOL0     H13336   7.032   8.957   1.317  0.4501  1.4147  1.4045
   99MOL0     H13337   6.764   8.938   1.158 -0.9423  3.2674  1.8797
   99MOL0     H13338   6.857   8.793   1.217  0.8151 -0.4539  3.4453
   99MOL0     H13339   6.743   9.014   1.378 -1.0108 -1.1023 -0.1108
   99MOL0     H13340   6.845   8.882   1.445  2.2576  0.4867 -0.2179
   99MOL0     H13341   6.614   8.831   1.497 -0.9281 -1.2857  0.2490
   99MOL0     H13342   6.567   8.840   1.330  0.9690 -2.9275 -2.0689
   99MOL0     H13343   6.794   8.627   1.415  1.5502  1.0675 -0.2466
   99MOL0     H13344   6.685   8.648   1.275 -0.8020  2.3683  0.1213
   99MOL0     H13345   6.564   8.487   1.424 -2.5417  0.8664 -1.4226
   99MOL0     H13346   6.483   8.632   1.414 -0.7518 -0.3721  0.8208
   99MOL0     H13347   6.700   9.191   1.013 -0.2977  0.9491 -1.8963
   99MOL0     H13348   6.614   9.425   1.011 -0.3753  0.1778 -1.5414
   99MOL0     H13349   6.505   9.773   0.686 -1.1072 -1.5686  0.8107
   99MOL0     H13350   6.333   9.952   0.710 -1.3735 -0.5059  0.4893
   99MOL0     H13351   7.180  10.040   1.452 -1.0301  2.0978 -0.2401
   99MOL0     H13352   7.362  10.099   1.614 -0.5363 -2.9050  0.0758
   99MOL0     H13353   7.444  10.326   2.036 -1.3783  0.1889  0.8595
   99MOL0     H13354   7.531  10.398   2.229  1.3244  0.0711  1.8127
   99MOL0     H13355   7.520  10.219   2.635 -1.3772  0.5842 -2.2930
   99MOL0     H13356   7.558  10.070   2.557 -0.1401  0.3122 -2.1229
   99MOL0     H13357   7.775  10.286   2.636  0.0367 -0.4287  2.5987
   99MOL0     H13358   7.809  10.134   2.545 -2.3353  0.9630 -1.0994
   99MOL0     H13359   7.724   9.992   2.718 -0.6714 -0.1765  3.1384
   99MOL0     H13360   7.703  10.136   2.819  0.4207 -0.3233  0.2550
   99MOL0     H13361   7.930  10.197   2.819 -1.7598  1.8847 -1.7014
   99MOL0     H13362   7.976  10.084   2.695 -1.0342 -2.3743 -1.1863
   99MOL0     H13363   7.935   9.814   3.035  1.5259 -0.1217 -0.4013
   99MOL0     H13364   7.578   9.971   2.352  1.2322  0.0494 -1.6650
   99MOL0     H13365   7.487   9.909   2.149  1.1345 -0.7437  1.7696
  100MOL0     O13366   5.472   3.366   1.892 -0.6539  0.3366  0.8030
  100MOL0     C13367   5.402   3.283   1.951 -0.4092 -0.6943  0.5214
  100MOL0     O13368   5.446   3.160   1.995 -0.1500 -0.4419  0.0596
  100MOL0     C13369   5.588   3.125   1.981  0.9215  0.1625 -0.3092
  100MOL0     C13370   5.649   3.123   1.857  0.0552  0.8811 -0.2588
  100MOL0     C13371   5.779   3.080   1.846  0.4019  0.5673 -0.3795
  100MOL0     C13372   5.856   3.061   1.956 -0.0266 -0.3703 -0.1916
  100MOL0     O13373   5.987   3.020   1.949  0.3401 -0.2402  0.0817
  100MOL0     C13374   6.085   3.095   2.021  0.2579  1.5772 -0.7278
  100MOL0     C13375   6.153   2.988   2.109  0.2728  1.0906  0.5251
  100MOL0     C13376   6.254   3.025   2.227  0.5217  0.1100  0.1006
  100MOL0     C13377   6.171   3.093   2.338 -0.1463  0.0857 -0.2016
  100MOL0     C13378   6.255   3.126   2.468 -0.5750 -0.1965  0.8462
  100MOL0     C13379   6.190   3.217   2.570  0.0609  0.1090 -0.4156
  100MOL0     C13380   6.177   3.360   2.524 -1.2997  0.3042 -0.3095
  100MOL0     C13381   6.097   3.445   2.632  0.2308 -0.2769  0.5723
  100MOL0     N13382   6.192   3.514   2.728  0.3977  0.4163  0.1696
  100MOL0     C13383   6.219   3.651   2.751 -0.1917  0.2248 -0.2354
  100MOL0     C13384   6.313   3.656   2.841  0.3937 -0.3740  0.5511
  100MOL0     C13385   6.379   3.788   2.886  0.4001 -0.8966  0.3817
  100MOL0     C13386   6.357   3.824   3.034 -0.0048 -0.4837  0.7062
  100MOL0     C13387   6.406   3.973   3.053 -0.3672  0.6220  0.1765
  100MOL0     C13388   6.433   4.015   3.199 -0.2111 -0.5735  0.2295
  100MOL0     O13389   6.332   3.965   3.279  0.5041 -0.5231 -0.4397
  100MOL0     C13390   6.229   4.047   3.308  0.1014  0.3567  0.1277
  100MOL0     C13391   6.135   3.996   3.402  0.2304 -0.9220 -0.1874
  100MOL0     C13392   6.024   4.068   3.451  0.5946 -0.3711 -0.4014
  100MOL0     C13393   5.944   4.012   3.562 -0.3777 -0.5532  0.1230
  100MOL0     C13394   5.994   4.185   3.382  0.3506  0.1266  0.0928
  100MOL0     C13395   5.874   4.267   3.426 -0.2516 -1.4398  0.2674
  100MOL0     O13396   5.855   4.308   3.561  0.1734  0.0419  0.1155
  100MOL0     C13397   5.730   4.340   3.607  0.4971  0.3792  0.7751
  100MOL0     C13398   5.607   4.295   3.547  0.0202 -0.3863  0.0823
  100MOL0     C13399   5.486   4.357   3.579  0.3128 -0.9989  0.8491
  100MOL0     C13400   5.474   4.459   3.669  1.0322 -0.0806 -0.1241
  100MOL0     O13401   5.352   4.522   3.702 -0.1470 -0.1062 -0.3995
  100MOL0     C13402   5.316   4.512   3.839  0.0524 -0.1353  0.9262
  100MOL0     C13403   5.165   4.508   3.849 -0.3239  0.8152 -0.1565
  100MOL0     C13404   5.101   4.646   3.800 -0.4590  0.0765 -0.6128
  100MOL0     C13405   5.102   4.767   3.901  0.6176  0.5782 -0.3817
  100MOL0     C13406   5.005   4.883   3.861 -0.3691 -0.0249  0.5816
  100MOL0     C13407   5.019   5.005   3.959 -0.0023 -0.4184 -0.1551
  100MOL0     C13408   4.914   5.114   3.937  0.5339  0.2047 -0.0270
  100MOL0     C13409   4.934   5.252   4.002  0.5858  0.0812  0.0158
  100MOL0    Cl13410   4.962   5.236   4.184 -0.2648  0.1141 -0.0431
  100MOL0     C13411   5.591   4.489   3.738 -0.6640 -0.1835 -0.6333
  100MOL0     C13412   5.717   4.433   3.718 -0.1856 -0.1736 -0.7110
  100MOL0     O13413   5.798   4.284   3.334 -0.2101  0.7363  0.7624
  100MOL0     C13414   6.069   4.231   3.274  0.7633  0.0434  0.4348
  100MOL0     C13415   6.186   4.161   3.238 -0.0195  0.6793  0.5865
  100MOL0     N13416   6.316   3.526   2.896 -1.0714 -1.2397 -0.3394
  100MOL0     N13417   6.260   3.440   2.819  0.7859 -0.2944 -0.3983
  100MOL0     C13418   5.796   3.074   2.082 -0.2561 -0.0457  0.2634
  100MOL0     C13419   5.659   3.097   2.097  0.0685 -0.0887  0.3476
  100MOL0     C13420   5.275   3.327   2.008 -0.2163  0.0590 -0.0926
  100MOL0     C13421   5.206   3.444   1.961  0.0667 -0.2811  0.4550
  100MOL0     C13422   5.083   3.489   2.006  0.2339 -0.1105 -0.0306
  100MOL0     C13423   5.017   3.400   2.094 -0.7379  0.1454 -0.0307
  100MOL0     O13424   4.887   3.426   2.111  0.6294 -0.1374  0.6179
  100MOL0     C13425   4.824   3.385   2.232  0.0556  0.2737 -0.5022
  100MOL0     C13426   4.680   3.339   2.222  0.0337  0.4035 -0.9353
  100MOL0     C13427   4.588   3.441   2.144 -0.7767  0.0779  0.3007
  100MOL0     C13428   4.442   3.475   2.190  0.6862  0.6934  0.0758
  100MOL0     C13429   4.363   3.523   2.080  0.5506 -0.2072  0.1566
  100MOL0     C13430   4.286   3.530   1.983  0.7651  0.3275  0.0403
  100MOL0     C13431   5.077   3.286   2.140  0.1048 -0.0497  0.3139
  100MOL0     C13432   5.197   3.247   2.095 -1.1522 -0.1436  0.6107
  100MOL0     H13433   5.592   3.164   1.775  0.8800  3.6683  0.4501
  100MOL0     H13434   5.819   3.077   1.745  0.3525  0.5401 -0.3984
  100MOL0     H13435   6.154   3.149   1.956  0.5533  0.8025 -1.0659
  100MOL0     H13436   6.040   3.179   2.075 -4.4182 -0.8582 -0.2667
  100MOL0     H13437   6.082   2.921   2.158 -0.6016  1.6393  0.0244
  100MOL0     H13438   6.210   2.925   2.041  0.3515  1.6012  0.1075
  100MOL0     H13439   6.315   2.937   2.248 -0.0212 -1.7244 -4.6476
  100MOL0     H13440   6.322   3.104   2.191 -1.2563  2.7060  2.0856
  100MOL0     H13441   6.117   3.182   2.304 -0.3410 -0.5480 -1.6201
  100MOL0     H13442   6.092   3.021   2.362  2.4289 -2.5591  0.9677
  100MOL0     H13443   6.264   3.025   2.508  1.1314 -1.4669 -2.4628
  100MOL0     H13444   6.352   3.170   2.444 -0.7629 -0.2552 -0.0507
  100MOL0     H13445   6.094   3.170   2.595 -0.7418  0.3133 -2.8748
  100MOL0     H13446   6.242   3.215   2.666 -2.4110 -2.4885  1.0129
  100MOL0     H13447   6.279   3.398   2.517 -1.2896  0.6881  1.5806
  100MOL0     H13448   6.129   3.365   2.426 -1.3642 -0.1388 -0.3043
  100MOL0     H13449   6.020   3.394   2.690 -3.7143 -0.3638 -4.0536
  100MOL0     H13450   6.035   3.523   2.587 -1.3840  0.7444  4.2015
  100MOL0     H13451   6.179   3.735   2.695 -4.1748 -0.6754  0.9550
  100MOL0     H13452   6.485   3.778   2.859  0.2705 -0.3421 -0.3676
  100MOL0     H13453   6.333   3.873   2.835 -0.3654  0.8780  3.7379
  100MOL0     H13454   6.396   3.757   3.111 -2.9793 -0.3741  2.4378
  100MOL0     H13455   6.248   3.820   3.040 -0.0865 -0.4501 -0.5264
  100MOL0     H13456   6.329   4.031   3.001 -0.0053  1.7738  0.8964
  100MOL0     H13457   6.502   3.981   3.003 -1.2015 -0.1453 -1.6360
  100MOL0     H13458   6.454   4.123   3.201  1.8588 -0.9360  1.4106
  100MOL0     H13459   6.528   3.975   3.236  0.6700 -0.8530 -2.1919
  100MOL0     H13460   6.166   3.905   3.453  3.2875 -1.2312 -2.3626
  100MOL0     H13461   6.004   4.011   3.654  0.0331  1.2562 -0.0934
  100MOL0     H13462   5.849   4.063   3.581 -0.3988 -0.9721  1.2720
  100MOL0     H13463   5.910   3.910   3.542  1.5531 -1.0919 -0.6360
  100MOL0     H13464   5.615   4.219   3.469  0.7586 -2.0296  1.6931
  100MOL0     H13465   5.398   4.313   3.534  0.1798 -2.3293  2.3290
  100MOL0     H13466   5.367   4.423   3.876  2.8419  1.5357  1.3860
  100MOL0     H13467   5.345   4.600   3.896  1.7659  1.1978 -1.7826
  100MOL0     H13468   5.116   4.430   3.790 -1.5940  0.1259  1.7380
  100MOL0     H13469   5.132   4.484   3.950 -2.4896  1.2362 -0.7251
  100MOL0     H13470   4.998   4.615   3.779 -0.5084  0.8684 -1.6385
  100MOL0     H13471   5.140   4.680   3.704 -0.2779  1.6778  0.0106
  100MOL0     H13472   5.078   4.725   3.999  3.3745 -0.2167  0.0340
  100MOL0     H13473   5.203   4.806   3.917  1.3306 -1.6728  1.0111
  100MOL0     H13474   4.902   4.847   3.856 -0.6808  0.6984  1.5228
  100MOL0     H13475   5.022   4.918   3.758 -2.7059  1.4902  0.6371
  100MOL0     H13476   5.020   4.971   4.064  0.5211 -0.9899 -0.3377
  100MOL0     H13477   5.119   5.048   3.952  0.9491 -2.2995  0.8744
  100MOL0     H13478   4.818   5.084   3.979 -0.0962 -1.7359 -2.6228
  100MOL0     H13479   4.903   5.119   3.829  1.5767 -2.0343 -0.2849
  100MOL0     H13480   4.846   5.314   3.983 -0.7053 -1.7062 -0.0151
  100MOL0     H13481   5.019   5.289   3.944  1.5045  0.7558  1.7297
  100MOL0     H13482   5.585   4.557   3.822 -2.8999  0.1997 -1.0413
  100MOL0     H13483   5.806   4.446   3.778 -0.9381  0.0195  0.3974
  100MOL0     H13484   6.050   4.319   3.215  1.9594 -1.6367 -2.6992
  100MOL0     H13485   6.247   4.196   3.155  2.2740 -0.1585  1.8150
  100MOL0     H13486   5.842   3.047   2.176  0.4502 -2.6480 -0.7473
  100MOL0     H13487   5.605   3.105   2.191 -1.2926  3.2597 -0.5412
  100MOL0     H13488   5.257   3.497   1.882 -0.6923 -0.1789  0.0307
  100MOL0     H13489   5.036   3.563   1.942  2.3362 -0.4356 -2.1042
  100MOL0     H13490   4.877   3.302   2.281 -1.9874 -1.9998 -1.9057
  100MOL0     H13491   4.821   3.468   2.303 -2.0238 -0.3947  0.2619
  100MOL0     H13492   4.641   3.324   2.323 -2.9984 -2.1575 -2.2906
  100MOL0     H13493   4.672   3.237   2.184  1.1063 -0.4282  0.9673
  100MOL0     H13494   4.589   3.422   2.036 -2.1502 -2.5333  0.6511
  100MOL0     H13495   4.642   3.536   2.145 -3.1336  1.4977  0.3579
  100MOL0     H13496   4.453   3.559   2.261 -1.2968  2.4124 -1.5150
  100MOL0     H13497   4.399   3.385   2.233  2.4111 -0.3040 -0.1899
  100MOL0     H13498   4.229   3.511   1.894 -4.3973 -3.6808  3.5678
  100MOL0     H13499   5.026   3.202   2.185  0.8735 -0.9145 -0.4075
  100MOL0     H13500   5.225   3.143   2.112 -2.7777 -0.5622  0.9160
  101MOL0     O13501   0.706   7.356   7.281  0.4015 -0.1809 -0.1741
  101MOL0     C13502   0.748   7.429   7.186  0.6624 -0.1928 -0.6326
  101MOL0     O13503   0.676   7.536   7.137 -0.4206  0.2083 -0.1190
  101MOL0     C13504   0.569   7.592   7.215  0.2016  0.3190  0.2090
  101MOL0     C13505   0.589   7.724   7.268 -0.2594  1.5481 -1.0735
  101MOL0     C13506   0.489   7.789   7.339 -0.5468  0.7519 -0.7584
  101MOL0     C13507   0.359   7.736   7.353 -0.6500  0.4185  0.6263
  101MOL0     O13508   0.263   7.810   7.408 -1.1885  0.0401 -0.1056
  101MOL0     C13509   0.137   7.823   7.341  0.4177  0.1199  0.0205
  101MOL0     C13510   0.041   7.912   7.411 -0.1118  0.1903  0.0245
  101MOL0     C13511   0.106   8.034   7.474  0.0530  0.8111  0.9661
  101MOL0     C13512  -0.006   8.137   7.499  0.3951  0.4660  0.4405
  101MOL0     C13513   0.008   8.215   7.627 -0.4859  0.3392 -0.9357
  101MOL0     C13514  -0.009   8.119   7.743  0.2099  0.1764 -0.4600
  101MOL0     C13515  -0.105   8.164   7.857 -0.3543 -0.0720 -0.0246
  101MOL0     C13516  -0.079   8.296   7.932 -0.3004  0.4288 -0.1756
  101MOL0     N13517  -0.182   8.320   8.043 -0.1011 -0.6614  0.2238
  101MOL0     C13518  -0.216   8.440   8.100  0.2833 -0.6194 -0.4207
  101MOL0     C13519  -0.293   8.411   8.204  0.8115  0.0523  0.1835
  101MOL0     C13520  -0.381   8.510   8.266 -0.2882  0.1888  0.0572
  101MOL0     C13521  -0.485   8.555   8.162 -0.3186 -0.2114  0.7566
  101MOL0     C13522  -0.567   8.665   8.235 -0.5408  0.0029 -0.9799
  101MOL0     C13523  -0.709   8.661   8.161 -0.5111  0.5308  0.3864
  101MOL0     O13524  -0.774   8.529   8.155 -0.4065 -0.1032 -0.1467
  101MOL0     C13525  -0.836   8.495   8.267  0.3012 -0.1061 -0.2910
  101MOL0     C13526  -0.774   8.384   8.333  0.2676  0.5961  0.4220
  101MOL0     C13527  -0.805   8.347   8.460 -0.2380  0.3945 -1.1063
  101MOL0     C13528  -0.723   8.243   8.533  0.8781 -1.1313  0.1392
  101MOL0     C13529  -0.905   8.415   8.528 -1.1045  0.5106 -0.3378
  101MOL0     C13530  -0.949   8.382   8.668 -0.6205 -0.0484  0.2936
  101MOL0     O13531  -1.032   8.478   8.728  1.2002 -0.0387  0.4449
  101MOL0     C13532  -1.029   8.496   8.863  0.1055  0.3981  1.0837
  101MOL0     C13533  -0.906   8.493   8.929  0.0487  0.4874  0.4417
  101MOL0     C13534  -0.899   8.524   9.065  0.3356  0.3087 -0.0826
  101MOL0     C13535  -1.014   8.564   9.137 -0.2599 -0.9609  0.8525
  101MOL0     O13536  -1.019   8.605   9.268  0.3768  0.0179 -0.7321
  101MOL0     C13537  -0.906   8.563   9.343  0.3687  0.7489 -0.0153
  101MOL0     C13538  -0.909   8.618   9.484 -0.4160  0.7007  0.1909
  101MOL0     C13539  -0.852   8.521   9.579 -0.7575  0.1889  0.7957
  101MOL0     C13540  -0.796   8.591   9.709 -0.8126  1.2018  1.0275
  101MOL0     C13541  -0.917   8.622   9.801  0.0817  0.4957 -0.0052
  101MOL0     C13542  -0.861   8.704   9.933 -0.0582  1.0859  0.2733
  101MOL0     C13543  -0.772   8.630  10.030  0.0257  0.2574  0.0485
  101MOL0     C13544  -0.705   8.724  10.124  0.2149  1.0071  0.1353
  101MOL0    Cl13545  -0.648   8.620  10.257 -0.0126 -0.1449  0.2910
  101MOL0     C13546  -1.135   8.561   9.070 -0.0959 -0.1905  0.2761
  101MOL0     C13547  -1.141   8.527   8.934  0.2005  0.3096 -0.5789
  101MOL0     O13548  -0.923   8.269   8.719 -0.4495 -0.0771  0.1667
  101MOL0     C13549  -0.973   8.521   8.463  0.0296  0.9192 -0.7301
  101MOL0     C13550  -0.932   8.563   8.336 -0.0558 -0.7083 -0.1496
  101MOL0     N13551  -0.317   8.277   8.209  0.5694 -0.1147 -0.6434
  101MOL0     N13552  -0.245   8.230   8.116  0.1303  0.1992 -0.0266
  101MOL0     C13553   0.342   7.610   7.297  0.1805 -0.3047 -1.0815
  101MOL0     C13554   0.440   7.535   7.230 -1.0326  1.1973  0.2219
  101MOL0     C13555   0.853   7.389   7.088  0.6064 -0.0586  0.4320
  101MOL0     C13556   0.881   7.256   7.095 -0.3682 -0.1641 -0.1943
  101MOL0     C13557   0.956   7.194   6.997 -0.4657 -0.4179  0.7907
  101MOL0     C13558   1.021   7.274   6.905 -0.2500  0.0263  0.1519
  101MOL0     O13559   1.100   7.215   6.800  0.2611 -0.0099  0.0919
  101MOL0     C13560   1.215   7.285   6.752  0.5800 -0.6755 -0.9533
  101MOL0     C13561   1.198   7.314   6.601  0.2779  0.2833 -0.4937
  101MOL0     C13562   1.329   7.384   6.559  0.6059 -1.0134 -1.3534
  101MOL0     C13563   1.327   7.396   6.408 -0.5976  0.4406  0.7060
  101MOL0     C13564   1.450   7.442   6.355 -1.4942  0.5889  0.2965
  101MOL0     C13565   1.558   7.476   6.324 -0.4615  0.4497  0.1056
  101MOL0     C13566   1.000   7.413   6.904 -1.2442  0.8708  1.0448
  101MOL0     C13567   0.917   7.476   6.990 -0.5763  0.7410  1.2729
  101MOL0     H13568   0.687   7.766   7.251  1.1207 -0.2979  1.7030
  101MOL0     H13569   0.512   7.876   7.400  2.9527 -0.2613 -0.4150
  101MOL0     H13570   0.150   7.868   7.243  3.4179  1.0228  0.7005
  101MOL0     H13571   0.078   7.732   7.332  0.5554  0.2081 -2.3022
  101MOL0     H13572  -0.031   7.939   7.334  0.8514  1.1192 -0.5804
  101MOL0     H13573  -0.007   7.858   7.493  0.4670 -0.5449 -0.1109
  101MOL0     H13574   0.150   8.008   7.571 -1.1269  1.8487  1.8209
  101MOL0     H13575   0.191   8.072   7.417 -0.2439 -0.3954 -0.3149
  101MOL0     H13576  -0.002   8.204   7.413 -0.3998  0.2770  0.2434
  101MOL0     H13577  -0.100   8.081   7.500 -0.3128  1.4790 -1.8689
  101MOL0     H13578   0.103   8.270   7.635  0.0684 -0.1945 -3.2210
  101MOL0     H13579  -0.078   8.281   7.628 -1.2570 -0.6483 -0.7196
  101MOL0     H13580  -0.050   8.030   7.695 -1.3501  0.8618 -0.4474
  101MOL0     H13581   0.091   8.093   7.778  0.1750 -0.5205 -0.8488
  101MOL0     H13582  -0.209   8.164   7.821 -1.6373  0.4766  3.2865
  101MOL0     H13583  -0.083   8.088   7.933  3.1906  0.8870  0.0464
  101MOL0     H13584  -0.074   8.382   7.864  3.1275  0.1867 -0.3706
  101MOL0     H13585   0.019   8.294   7.981 -1.3006  2.6285  2.1834
  101MOL0     H13586  -0.193   8.541   8.067  0.5054 -0.0189  1.4171
  101MOL0     H13587  -0.431   8.456   8.347 -1.2136  0.4587 -0.3188
  101MOL0     H13588  -0.324   8.596   8.301 -1.0115  0.4470  0.6331
  101MOL0     H13589  -0.546   8.465   8.150 -0.1232 -0.4569  1.5242
  101MOL0     H13590  -0.446   8.590   8.066  1.7560 -4.6778 -0.3164
  101MOL0     H13591  -0.509   8.757   8.222  2.2346 -1.5435 -0.4686
  101MOL0     H13592  -0.570   8.653   8.343  1.2751 -0.3545 -0.9409
  101MOL0     H13593  -0.695   8.685   8.056 -2.4527  0.3717  0.0538
  101MOL0     H13594  -0.779   8.725   8.215 -0.9052  0.7945 -0.4231
  101MOL0     H13595  -0.697   8.330   8.279 -1.9536 -0.9746 -1.3496
  101MOL0     H13596  -0.780   8.151   8.550 -0.1493 -1.0545 -2.4221
  101MOL0     H13597  -0.630   8.226   8.480 -0.2295 -1.0341 -1.9314
  101MOL0     H13598  -0.698   8.284   8.632  1.7803 -3.3956  0.8999
  101MOL0     H13599  -0.817   8.457   8.877  1.8268  2.0249  2.2719
  101MOL0     H13600  -0.796   8.519   9.099  0.1554 -0.7594  0.3439
  101MOL0     H13601  -0.910   8.454   9.349 -0.2330  0.8506  2.3681
  101MOL0     H13602  -0.815   8.605   9.298  0.2512  0.5286 -0.4607
  101MOL0     H13603  -0.848   8.708   9.488  1.9587 -0.8568  2.6287
  101MOL0     H13604  -1.014   8.637   9.508  0.2913  2.9295  1.9195
  101MOL0     H13605  -0.763   8.471   9.541 -0.4264  2.6365 -1.9551
  101MOL0     H13606  -0.922   8.444   9.615  2.4965 -1.9997  3.0498
  101MOL0     H13607  -0.723   8.528   9.760 -2.3462 -0.4532  1.2410
  101MOL0     H13608  -0.746   8.686   9.687 -0.1584  0.6397  0.0292
  101MOL0     H13609  -0.969   8.536   9.846 -1.3200  2.0408  1.4672
  101MOL0     H13610  -0.992   8.685   9.752 -0.0718  0.7494  0.5380
  101MOL0     H13611  -0.813   8.795   9.896  2.2793  0.1448  0.8203
  101MOL0     H13612  -0.948   8.734   9.993 -1.4183 -1.3044 -0.3706
  101MOL0     H13613  -0.685   8.578   9.988  0.3064  0.4293  0.4059
  101MOL0     H13614  -0.831   8.552  10.079  0.5360 -0.4171 -0.3916
  101MOL0     H13615  -0.777   8.800  10.154 -0.7320  0.3101 -0.3339
  101MOL0     H13616  -0.621   8.776  10.077 -0.6678  2.0257 -0.3542
  101MOL0     H13617  -1.224   8.576   9.131 -0.2231 -0.9168  0.2784
  101MOL0     H13618  -1.234   8.524   8.877 -0.0795 -0.6229 -0.0977
  101MOL0     H13619  -1.060   8.572   8.504 -0.2688  0.0701 -0.2906
  101MOL0     H13620  -0.971   8.649   8.282 -1.0028 -1.2669 -0.3910
  101MOL0     H13621   0.246   7.564   7.317 -0.0879 -0.1203 -1.9146
  101MOL0     H13622   0.420   7.433   7.199 -3.0011  1.6679 -0.1786
  101MOL0     H13623   0.846   7.196   7.179  1.4173  0.1421  0.8236
  101MOL0     H13624   0.962   7.086   6.986  1.3838 -0.7023  3.7283
  101MOL0     H13625   1.242   7.369   6.818 -0.1302 -0.2014 -1.2521
  101MOL0     H13626   1.305   7.224   6.763 -0.0387 -1.3683  0.4635
  101MOL0     H13627   1.113   7.382   6.595  1.2650  2.1056  3.3150
  101MOL0     H13628   1.183   7.225   6.540  0.2313 -1.2099  1.5939
  101MOL0     H13629   1.411   7.318   6.588 -0.6425 -2.4613 -0.9755
  101MOL0     H13630   1.338   7.484   6.602 -2.2815 -1.0343 -0.4800
  101MOL0     H13631   1.239   7.450   6.374 -2.7138 -1.2565  3.0799
  101MOL0     H13632   1.318   7.294   6.369  0.3831 -0.7017  3.2543
  101MOL0     H13633   1.656   7.518   6.314  0.1153 -0.2593  2.1587
  101MOL0     H13634   1.037   7.468   6.818  1.4556  0.2972  1.7521
  101MOL0     H13635   0.876   7.576   6.975  2.1293  1.4489 -3.3567
  102MOL0     O13636   3.760   7.076   6.686  0.1744 -0.4335 -0.1447
  102MOL0     C13637   3.868   7.030   6.714 -0.0561  0.5019 -0.8065
  102MOL0     O13638   3.885   6.896   6.754 -0.9314  0.4142 -0.3538
  102MOL0     C13639   3.768   6.820   6.741  0.2116 -0.4558  0.2488
  102MOL0     C13640   3.687   6.785   6.849 -0.2440 -0.3764  0.2183
  102MOL0     C13641   3.573   6.716   6.827 -0.8994 -0.4011  0.4201
  102MOL0     C13642   3.527   6.677   6.700  0.1036 -0.2974 -0.1350
  102MOL0     O13643   3.396   6.625   6.695  0.3366 -0.6568 -0.5346
  102MOL0     C13644   3.337   6.657   6.563  1.0153 -0.0582  0.7283
  102MOL0     C13645   3.186   6.666   6.581 -0.3470 -0.4925  0.1238
  102MOL0     C13646   3.115   6.658   6.445  0.9797 -0.6244  0.0594
  102MOL0     C13647   2.980   6.736   6.453  0.6596  0.1726  0.2066
  102MOL0     C13648   2.893   6.703   6.326 -0.3585 -0.8428  0.1963
  102MOL0     C13649   2.960   6.742   6.198  0.3485 -0.5006  0.5727
  102MOL0     C13650   2.875   6.680   6.090 -0.1598  0.4189 -0.4549
  102MOL0     C13651   2.944   6.683   5.958  0.1931  0.0507 -0.6153
  102MOL0     N13652   2.992   6.819   5.918  0.4393  0.2892  1.1207
  102MOL0     C13653   3.123   6.856   5.919 -0.6087  0.6422  0.1774
  102MOL0     C13654   3.125   6.959   5.830  0.7485  1.3022 -0.6879
  102MOL0     C13655   3.255   7.023   5.793  0.8290 -0.4165 -0.0290
  102MOL0     C13656   3.354   6.930   5.711  1.3581 -0.3839  0.1039
  102MOL0     C13657   3.427   6.823   5.801 -0.2417  0.3697 -0.1465
  102MOL0     C13658   3.524   6.750   5.708  0.1668  0.5987 -0.1814
  102MOL0     O13659   3.611   6.665   5.791  0.4547 -0.2466  0.7379
  102MOL0     C13660   3.676   6.558   5.740 -0.2501  0.1270 -0.1207
  102MOL0     C13661   3.749   6.478   5.834 -0.5533 -0.4992  0.3379
  102MOL0     C13662   3.807   6.355   5.798  0.5685  0.3894  0.8844
  102MOL0     C13663   3.882   6.291   5.915  0.3775  0.5459 -0.2563
  102MOL0     C13664   3.815   6.325   5.661 -0.4014  0.0966  1.1106
  102MOL0     C13665   3.894   6.212   5.615 -0.1231  0.0581  0.2616
  102MOL0     O13666   3.886   6.176   5.476  0.5099 -0.0518 -0.6704
  102MOL0     C13667   3.981   6.082   5.443  0.2610  0.8773  0.8632
  102MOL0     C13668   3.937   5.959   5.404 -0.6224 -0.4411  0.0570
  102MOL0     C13669   4.024   5.855   5.352 -0.2155 -0.6001  0.1111
  102MOL0     C13670   4.161   5.883   5.342  0.4075 -0.9483  0.1456
  102MOL0     O13671   4.236   5.779   5.302  0.6209 -0.1794  0.5042
  102MOL0     C13672   4.384   5.782   5.308  1.4964 -0.1057 -0.1941
  102MOL0     C13673   4.445   5.808   5.171  0.6954 -0.2167 -1.3740
  102MOL0     C13674   4.583   5.767   5.155 -0.6119  0.0684  0.7138
  102MOL0     C13675   4.619   5.774   5.002  0.6210  1.1008  0.1871
  102MOL0     C13676   4.626   5.632   4.932  0.5119  0.3493 -0.8490
  102MOL0     C13677   4.667   5.644   4.786  0.2133 -0.1683 -0.7015
  102MOL0     C13678   4.644   5.509   4.733  0.1504 -0.1205  0.1915
  102MOL0     C13679   4.656   5.504   4.583 -0.2076 -1.1873  0.2222
  102MOL0    Cl13680   4.596   5.346   4.518  0.1008  0.2049  0.0333
  102MOL0     C13681   4.210   6.015   5.373  0.5016 -0.6622  0.3468
  102MOL0     C13682   4.119   6.117   5.425 -0.1026  0.5054  0.2731
  102MOL0     O13683   3.967   6.144   5.693 -0.1994  0.0807 -0.1420
  102MOL0     C13684   3.756   6.414   5.567  1.0388 -0.0746 -0.9398
  102MOL0     C13685   3.695   6.532   5.610 -0.5470 -0.2325  0.3331
  102MOL0     N13686   2.995   6.977   5.782 -0.5471 -0.7002 -0.2531
  102MOL0     N13687   2.913   6.896   5.836  0.3306 -0.0986  0.3158
  102MOL0     C13688   3.614   6.699   6.593  0.5261 -0.2300 -0.1047
  102MOL0     C13689   3.732   6.764   6.609 -0.2373  0.2298 -0.3991
  102MOL0     C13690   3.977   7.117   6.708  0.3742  0.7901  0.0246
  102MOL0     C13691   3.963   7.251   6.667 -0.2466  0.7184  0.3612
  102MOL0     C13692   4.062   7.343   6.680  0.0176 -0.3464  0.3584
  102MOL0     C13693   4.187   7.305   6.736 -0.0424 -0.0281 -0.1436
  102MOL0     O13694   4.297   7.381   6.756 -0.3821  0.0091 -0.3821
  102MOL0     C13695   4.273   7.524   6.737 -0.2208 -0.0102 -0.1286
  102MOL0     C13696   4.389   7.619   6.787  0.3255  0.6661 -0.4156
  102MOL0     C13697   4.531   7.586   6.729  1.2801  0.2981 -0.0628
  102MOL0     C13698   4.622   7.698   6.769 -0.1593 -0.6866  0.3315
  102MOL0     C13699   4.648   7.711   6.913  0.1582 -0.0208 -0.7612
  102MOL0     C13700   4.672   7.716   7.031  0.0539  0.4411  0.1510
  102MOL0     C13701   4.214   7.177   6.747  0.2019 -0.4885  0.3043
  102MOL0     C13702   4.111   7.081   6.743 -0.5664  0.2844 -0.1689
  102MOL0     H13703   3.704   6.821   6.950  1.6383  0.2801 -0.2967
  102MOL0     H13704   3.506   6.696   6.909 -1.3287  0.9150  0.4102
  102MOL0     H13705   3.373   6.754   6.526  0.5937  0.9362  2.7752
  102MOL0     H13706   3.360   6.582   6.487  0.0571  0.3359  0.0245
  102MOL0     H13707   3.160   6.585   6.651 -1.4901 -0.9547 -0.8005
  102MOL0     H13708   3.155   6.756   6.633 -1.2140  1.3000 -3.2275
  102MOL0     H13709   3.166   6.714   6.367 -1.2942 -0.0736 -1.1411
  102MOL0     H13710   3.099   6.557   6.409  1.2138 -0.3586 -0.8044
  102MOL0     H13711   2.920   6.708   6.541  0.2662  0.8522  0.1578
  102MOL0     H13712   3.008   6.841   6.463  0.6199  0.0187  2.4813
  102MOL0     H13713   2.873   6.596   6.335  0.7055 -1.1544 -0.8775
  102MOL0     H13714   2.800   6.760   6.329  1.4168  2.2250  0.8269
  102MOL0     H13715   2.970   6.850   6.183  4.1697 -0.9613 -1.4217
  102MOL0     H13716   3.065   6.714   6.185  0.3171 -1.7436  2.5104
  102MOL0     H13717   2.843   6.577   6.108 -1.2961  0.7541 -0.4641
  102MOL0     H13718   2.781   6.732   6.066  0.3728  1.6082 -0.0555
  102MOL0     H13719   2.866   6.646   5.891  0.5931 -1.3458 -0.3591
  102MOL0     H13720   3.031   6.617   5.971 -0.6466 -0.5018  3.6825
  102MOL0     H13721   3.197   6.807   5.982  0.1868  1.5821  0.0020
  102MOL0     H13722   3.238   7.111   5.730  2.0672  0.9723  1.4828
  102MOL0     H13723   3.296   7.073   5.881 -2.1225  5.2217 -1.3495
  102MOL0     H13724   3.421   7.006   5.667 -1.9261  3.3202  0.9305
  102MOL0     H13725   3.298   6.887   5.628  2.3734 -0.1425 -0.7308
  102MOL0     H13726   3.354   6.755   5.843 -0.5831  0.0538 -1.2176
  102MOL0     H13727   3.476   6.880   5.880  1.4549  2.5903 -2.5996
  102MOL0     H13728   3.578   6.830   5.656  0.3879  3.1776  3.6551
  102MOL0     H13729   3.464   6.693   5.636  0.4254 -0.2871  0.2815
  102MOL0     H13730   3.743   6.505   5.939  0.2010 -0.5026  0.3888
  102MOL0     H13731   3.837   6.319   6.010  0.9393  0.0377  0.1644
  102MOL0     H13732   3.862   6.183   5.913  0.6363  0.4686  0.7643
  102MOL0     H13733   3.989   6.315   5.924  0.4612  0.2340 -0.4093
  102MOL0     H13734   3.831   5.936   5.408 -0.6435 -0.2297  1.7224
  102MOL0     H13735   3.985   5.762   5.313 -3.9883  1.6544 -2.1446
  102MOL0     H13736   4.424   5.853   5.382 -1.4200 -0.8399  2.3129
  102MOL0     H13737   4.418   5.686   5.347 -2.3480 -0.4135  2.9813
  102MOL0     H13738   4.388   5.732   5.117 -1.3349 -0.2692  0.6537
  102MOL0     H13739   4.435   5.915   5.151  2.8685  0.5348  0.9191
  102MOL0     H13740   4.610   5.665   5.183 -0.8214 -0.4503 -0.8948
  102MOL0     H13741   4.639   5.836   5.220 -1.3374  1.7584 -0.3671
  102MOL0     H13742   4.548   5.838   4.949 -0.3420  1.9816  2.4083
  102MOL0     H13743   4.719   5.815   4.990  1.5202 -1.0251  0.0660
  102MOL0     H13744   4.534   5.582   4.962  0.8537  0.4091  0.3337
  102MOL0     H13745   4.716   5.593   4.980  1.0561  2.7421  0.2046
  102MOL0     H13746   4.610   5.723   4.736 -1.7107 -0.8750  0.2789
  102MOL0     H13747   4.775   5.660   4.777  0.1396  0.7553 -0.1295
  102MOL0     H13748   4.544   5.472   4.756 -0.4163  2.0259  1.4656
  102MOL0     H13749   4.728   5.465   4.788  1.7701  2.4162 -0.0744
  102MOL0     H13750   4.762   5.513   4.557 -0.8178 -2.1487 -3.1935
  102MOL0     H13751   4.599   5.587   4.541  4.0604  1.4868 -0.9291
  102MOL0     H13752   4.315   6.038   5.361  0.6340 -2.0087 -1.5607
  102MOL0     H13753   4.156   6.217   5.448 -0.0191  0.7740 -0.9910
  102MOL0     H13754   3.751   6.402   5.459 -1.8531  3.8727 -1.4357
  102MOL0     H13755   3.644   6.593   5.536 -0.5552 -0.3005  0.2822
  102MOL0     H13756   3.584   6.661   6.496  3.0470 -2.5330 -0.0944
  102MOL0     H13757   3.805   6.776   6.529 -0.7916 -1.3088 -1.1789
  102MOL0     H13758   3.868   7.271   6.619 -0.2579 -0.2000 -0.0271
  102MOL0     H13759   4.029   7.442   6.650 -1.4864 -0.2352  2.1829
  102MOL0     H13760   4.259   7.540   6.630 -3.3963 -1.2288  0.0006
  102MOL0     H13761   4.185   7.559   6.791 -0.6389 -0.6827 -0.3610
  102MOL0     H13762   4.393   7.609   6.896 -0.2134  0.8196 -0.3789
  102MOL0     H13763   4.371   7.726   6.776  0.0585  1.2625  3.8281
  102MOL0     H13764   4.537   7.578   6.620  1.4092  1.0362 -0.1145
  102MOL0     H13765   4.568   7.492   6.772  3.4404  1.4073  0.6800
  102MOL0     H13766   4.596   7.793   6.723 -1.5385  0.3033  2.9312
  102MOL0     H13767   4.715   7.688   6.712 -0.5448  0.3792 -0.5256
  102MOL0     H13768   4.708   7.719   7.132 -0.6472  2.6141  0.3971
  102MOL0     H13769   4.316   7.154   6.776 -0.2612 -0.1003  2.3772
  102MOL0     H13770   4.124   6.980   6.781 -0.3355 -0.3900 -1.9126
  103MOL0     O13771   8.046   8.927   9.737 -0.1443 -0.0561  0.0245
  103MOL0     C13772   7.998   8.874   9.838  0.1173  0.2470  0.5362
  103MOL0     O13773   8.078   8.798   9.922 -0.2917 -0.4592 -0.1264
  103MOL0     C13774   8.193   8.734   9.887  1.1685  0.3812  0.6988
  103MOL0     C13775   8.275   8.663   9.981  0.3709 -0.1129 -0.0741
  103MOL0     C13776   8.402   8.614   9.952  0.0688 -0.3344  1.0237
  103MOL0     C13777   8.443   8.624   9.819 -0.5619 -0.5254 -0.2267
  103MOL0     O13778   8.568   8.580   9.773  0.0510 -0.6780 -0.7169
  103MOL0     C13779   8.671   8.563   9.877 -1.1053  0.4908 -0.0586
  103MOL0     C13780   8.803   8.522   9.796 -0.0258  0.5865 -0.6833
  103MOL0     C13781   8.918   8.463   9.878  1.0539 -0.1434  0.8605
  103MOL0     C13782   8.887   8.326   9.933 -0.8021  0.2585  0.1501
  103MOL0     C13783   8.992   8.269  10.024 -0.7505  0.4271  1.0055
  103MOL0     C13784   8.959   8.124  10.039 -0.1395  0.2426 -0.3612
  103MOL0     C13785   8.862   8.085  10.149  0.3235 -0.9013 -0.6033
  103MOL0     C13786   8.859   7.935  10.194  0.4268  0.3330  0.6341
  103MOL0     N13787   8.774   7.916  10.311 -0.1523 -0.1280 -0.1218
  103MOL0     C13788   8.835   7.905  10.438  0.0140  0.9005 -0.5210
  103MOL0     C13789   8.722   7.917  10.522 -0.0059  0.0637 -0.3306
  103MOL0     C13790   8.719   7.939  10.671  0.6682 -0.3321  0.3209
  103MOL0     C13791   8.715   7.798  10.752  0.5368 -1.3359  0.2932
  103MOL0     C13792   8.589   7.724  10.732 -0.8191 -0.1584  0.5153
  103MOL0     C13793   8.580   7.585  10.806  0.5873  0.5466 -0.5078
  103MOL0     O13794   8.635   7.477  10.721 -0.1073  0.1483 -0.3801
  103MOL0     C13795   8.616   7.360  10.771  0.7216 -0.0182  0.7390
  103MOL0     C13796   8.511   7.314  10.866 -0.9009 -1.5202 -0.4053
  103MOL0     C13797   8.496   7.180  10.896 -0.1832 -0.0434  0.4316
  103MOL0     C13798   8.392   7.153  11.014 -0.4371 -0.1027  0.9818
  103MOL0     C13799   8.580   7.082  10.850  0.4131  0.2791 -0.7109
  103MOL0     C13800   8.560   6.937  10.881  0.0635 -0.6671 -0.8820
  103MOL0     O13801   8.433   6.896  10.902 -0.2242  0.5599  0.4750
  103MOL0     C13802   8.421   6.762  10.919 -0.0749  1.1788  0.0549
  103MOL0     C13803   8.432   6.708  11.046  0.1667  0.6356 -0.6202
  103MOL0     C13804   8.450   6.570  11.056  0.4545 -0.6375 -0.5022
  103MOL0     C13805   8.429   6.492  10.938 -0.4308  1.0678 -0.6319
  103MOL0     O13806   8.467   6.356  10.942 -0.6001 -0.1240 -0.5986
  103MOL0     C13807   8.603   6.321  10.912 -0.2256 -0.3591 -1.0425
  103MOL0     C13808   8.632   6.177  10.937  0.0701  0.4730 -0.2158
  103MOL0     C13809   8.537   6.068  10.894 -1.0920  0.1936  0.1385
  103MOL0     C13810   8.577   5.929  10.953  1.1040  0.2125  0.2666
  103MOL0     C13811   8.474   5.820  10.913  0.7420  0.2859 -0.2453
  103MOL0     C13812   8.460   5.721  11.025  0.0239  0.5045  0.3379
  103MOL0     C13813   8.382   5.596  10.989 -0.1559 -0.4202  0.2725
  103MOL0     C13814   8.406   5.489  11.089  0.1123  0.2050 -0.3665
  103MOL0    Cl13815   8.552   5.419  11.042 -0.3326  0.1146 -0.4322
  103MOL0     C13816   8.396   6.542  10.819  1.5055 -0.2373 -0.0043
  103MOL0     C13817   8.387   6.677  10.808 -0.2260 -0.7341 -0.0074
  103MOL0     O13818   8.658   6.867  10.862 -0.6124  0.0820 -1.2441
  103MOL0     C13819   8.691   7.129  10.774  0.5066  0.2246  0.4362
  103MOL0     C13820   8.700   7.260  10.727 -0.0369 -0.0167  0.3593
  103MOL0     N13821   8.611   7.934  10.443  0.5428  0.6410  0.3062
  103MOL0     N13822   8.642   7.931  10.319  0.8684 -0.3382 -0.4481
  103MOL0     C13823   8.357   8.669   9.720 -0.6613 -0.3361  0.2773
  103MOL0     C13824   8.230   8.727   9.754 -0.9516 -1.0158  0.3973
  103MOL0     C13825   7.858   8.911   9.869  0.1694  0.2006  0.1490
  103MOL0     C13826   7.783   8.996   9.788  0.2868 -0.1711  0.1878
  103MOL0     C13827   7.646   9.042   9.829  0.7493  0.2993 -0.0790
  103MOL0     C13828   7.595   9.001   9.950 -0.3369 -0.0756  0.0306
  103MOL0     O13829   7.464   9.028   9.993  0.9796  0.3777 -0.2153
  103MOL0     C13830   7.417   9.154  10.009  0.2436  0.7384  0.7309
  103MOL0     C13831   7.289   9.187   9.942  0.8176 -0.8094 -0.0825
  103MOL0     C13832   7.172   9.130  10.023 -1.1596 -0.4352 -0.6274
  103MOL0     C13833   7.151   8.977  10.029  0.6974 -0.7402  0.7825
  103MOL0     C13834   7.090   8.934   9.904 -0.0980 -0.8798  1.1576
  103MOL0     C13835   7.039   8.907   9.804  0.8702  0.2410 -0.2753
  103MOL0     C13836   7.674   8.930  10.037  0.4866  0.4182 -0.5100
  103MOL0     C13837   7.802   8.884   9.996 -0.0507  0.1772  0.1824
  103MOL0     H13838   8.248   8.664  10.086 -0.8307 -3.5795 -0.2310
  103MOL0     H13839   8.461   8.588  10.039  0.4876  1.4627  1.3336
  103MOL0     H13840   8.697   8.649   9.939 -2.0518  0.8305 -0.1195
  103MOL0     H13841   8.643   8.473   9.933 -1.7639  1.1034  0.6102
  103MOL0     H13842   8.767   8.458   9.715  1.7280 -0.2843 -0.8202
  103MOL0     H13843   8.840   8.606   9.735 -0.4999  0.1841 -1.5455
  103MOL0     H13844   9.004   8.456   9.811  0.3732 -0.3112 -0.0215
  103MOL0     H13845   8.954   8.531   9.955  5.2930  0.1493 -1.1517
  103MOL0     H13846   8.786   8.327   9.975 -2.0617  1.0184 -2.6331
  103MOL0     H13847   8.880   8.264   9.843  2.7142 -0.9658  0.5574
  103MOL0     H13848   9.078   8.267   9.957 -1.8348 -1.9413 -0.4525
  103MOL0     H13849   9.001   8.328  10.115 -2.0937 -0.9448  2.0861
  103MOL0     H13850   8.923   8.070   9.951 -0.1033 -1.4719  0.6266
  103MOL0     H13851   9.056   8.084  10.071 -0.8863  0.2540  2.1172
  103MOL0     H13852   8.894   8.135  10.241  1.8209 -0.6347 -1.2473
  103MOL0     H13853   8.767   8.135  10.129  1.1255  2.9271  3.5736
  103MOL0     H13854   8.958   7.889  10.197  0.9202  1.4223  2.2602
  103MOL0     H13855   8.806   7.876  10.119  2.2018  1.0594 -1.2518
  103MOL0     H13856   8.942   7.897  10.450  0.8931  1.2324 -5.7939
  103MOL0     H13857   8.802   8.001  10.705  1.9923 -2.9565  2.3488
  103MOL0     H13858   8.625   7.985  10.704  1.3122  1.3451 -0.1183
  103MOL0     H13859   8.715   7.813  10.860 -0.3414 -0.2408  0.1641
  103MOL0     H13860   8.804   7.740  10.726  2.9747  2.2422  0.0184
  103MOL0     H13861   8.574   7.707  10.626  3.0566 -1.1817 -0.0048
  103MOL0     H13862   8.502   7.788  10.753 -0.6456  0.1489  0.3102
  103MOL0     H13863   8.473   7.570  10.825  0.4532  0.4972 -1.2737
  103MOL0     H13864   8.639   7.592  10.898  0.4096  0.1079 -0.3546
  103MOL0     H13865   8.454   7.387  10.923  0.1591 -2.1652  1.6097
  103MOL0     H13866   8.387   7.240  11.079  0.1454  1.3417 -0.8381
  103MOL0     H13867   8.298   7.120  10.969  0.9777  0.8569 -3.1116
  103MOL0     H13868   8.425   7.067  11.074 -2.0563 -0.6066  1.1992
  103MOL0     H13869   8.439   6.770  11.135  1.1202 -1.9349  1.2148
  103MOL0     H13870   8.465   6.515  11.148 -1.6105 -2.7749 -1.3497
  103MOL0     H13871   8.615   6.343  10.806 -1.2160  1.2783 -0.8592
  103MOL0     H13872   8.680   6.377  10.967 -0.6423  0.0137 -0.8276
  103MOL0     H13873   8.735   6.162  10.905  0.2818 -2.2788  1.4481
  103MOL0     H13874   8.641   6.182  11.046 -1.8604  1.3397 -0.0555
  103MOL0     H13875   8.522   6.071  10.786 -0.1681  0.4347  0.0140
  103MOL0     H13876   8.447   6.098  10.948  0.5692 -1.9995  4.6213
  103MOL0     H13877   8.680   5.900  10.931  0.7506 -0.4658 -0.5239
  103MOL0     H13878   8.566   5.946  11.061 -3.8166 -1.6710  0.3357
  103MOL0     H13879   8.510   5.759  10.830  0.5260 -1.0643  0.6120
  103MOL0     H13880   8.374   5.863  10.896  0.8402  1.1900  1.2684
  103MOL0     H13881   8.557   5.685  11.059  0.6256 -0.1754 -1.9312
  103MOL0     H13882   8.413   5.765  11.114 -1.3118 -1.6860  0.7960
  103MOL0     H13883   8.396   5.559  10.887  1.0729 -1.7539  0.8898
  103MOL0     H13884   8.274   5.615  10.991 -0.2394 -0.8492 -0.0243
  103MOL0     H13885   8.324   5.417  11.085  1.8847 -2.3270  3.2891
  103MOL0     H13886   8.427   5.528  11.189  3.0625  2.2163 -1.6439
  103MOL0     H13887   8.379   6.473  10.737 -1.3962 -3.1181  2.6858
  103MOL0     H13888   8.391   6.730  10.714  2.4330  1.2208  1.0404
  103MOL0     H13889   8.770   7.056  10.762  0.5284  0.5231 -1.7759
  103MOL0     H13890   8.786   7.290  10.667  1.0729 -0.9090  1.4583
  103MOL0     H13891   8.391   8.651   9.618  3.3436 -2.9033  1.8575
  103MOL0     H13892   8.170   8.760   9.670  1.8980 -1.0373 -1.7808
  103MOL0     H13893   7.819   9.031   9.692 -0.1915 -0.2189 -0.0166
  103MOL0     H13894   7.587   9.107   9.765 -1.0186 -0.2241  0.9534
  103MOL0     H13895   7.407   9.185  10.114 -0.1090  3.6148 -0.0752
  103MOL0     H13896   7.496   9.221   9.973 -0.7675  0.5239 -2.0808
  103MOL0     H13897   7.290   9.144   9.841  1.6148  0.0902 -0.4660
  103MOL0     H13898   7.285   9.296   9.941 -1.6018 -0.8332 -2.1157
  103MOL0     H13899   7.082   9.173   9.977 -0.5380  0.7689 -0.7539
  103MOL0     H13900   7.173   9.167  10.126  0.0817  2.1107 -1.4686
  103MOL0     H13901   7.084   8.956  10.113 -2.5363  2.8180 -0.6004
  103MOL0     H13902   7.246   8.924  10.038  0.8212 -1.0310 -1.4918
  103MOL0     H13903   6.990   8.876   9.714  0.4744 -0.6600  0.2296
  103MOL0     H13904   7.631   8.888  10.127  2.3893  0.0070  0.2593
  103MOL0     H13905   7.854   8.829  10.074  0.8214  0.5674 -0.1088
  104MOL0     O13906   0.395   5.150   1.733 -0.3303  0.4695  0.7328
  104MOL0     C13907   0.394   5.257   1.805  0.1410  1.1931 -0.0099
  104MOL0     O13908   0.428   5.259   1.942  0.3583  0.6501  0.8007
  104MOL0     C13909   0.430   5.148   2.017  0.8927  0.1844 -1.4326
  104MOL0     C13910   0.355   5.022   2.007 -1.3745 -0.6174 -0.5888
  104MOL0     C13911   0.380   4.919   2.093 -0.7450 -0.1809  0.4775
  104MOL0     C13912   0.483   4.933   2.191  0.4566 -0.4503 -0.9011
  104MOL0     O13913   0.514   4.835   2.281 -0.0410 -0.4446  0.4446
  104MOL0     C13914   0.501   4.702   2.233 -0.7082 -0.3778  0.4088
  104MOL0     C13915   0.576   4.609   2.334  0.1308 -0.2569  0.6328
  104MOL0     C13916   0.536   4.640   2.480 -0.2143  0.0046  0.0465
  104MOL0     C13917   0.583   4.536   2.576  0.2515 -0.1449 -0.1240
  104MOL0     C13918   0.565   4.575   2.727 -0.1272 -0.4452 -0.0421
  104MOL0     C13919   0.419   4.577   2.764 -0.0261 -0.0597  0.1980
  104MOL0     C13920   0.404   4.580   2.914  0.2062  0.4689 -0.1225
  104MOL0     C13921   0.264   4.558   2.971 -0.3862  0.8162  0.0935
  104MOL0     N13922   0.255   4.612   3.108  0.1163  0.0788 -0.6298
  104MOL0     C13923   0.271   4.744   3.130  0.7989 -0.2601 -0.1359
  104MOL0     C13924   0.263   4.750   3.263  0.5584  0.0935 -0.7944
  104MOL0     C13925   0.289   4.879   3.338 -0.6200  0.3314 -0.4088
  104MOL0     C13926   0.176   4.986   3.351 -0.2149 -0.2722 -0.4921
  104MOL0     C13927   0.082   4.954   3.467  0.5467  0.3923  0.9286
  104MOL0     C13928  -0.053   4.981   3.413  1.0615  0.7272  0.3789
  104MOL0     O13929  -0.081   5.112   3.365 -1.6508 -0.1837 -0.4257
  104MOL0     C13930  -0.053   5.204   3.456  0.5601 -0.7549 -0.1330
  104MOL0     C13931  -0.151   5.243   3.551  0.0114 -0.0485  0.0894
  104MOL0     C13932  -0.137   5.366   3.635  1.0428 -0.1884 -0.1096
  104MOL0     C13933  -0.247   5.378   3.736 -0.3534 -0.1180 -0.4845
  104MOL0     C13934  -0.031   5.453   3.616 -0.3334  0.1892  0.4080
  104MOL0     C13935  -0.021   5.588   3.670 -0.8228  1.4079  0.0402
  104MOL0     O13936   0.021   5.680   3.584 -0.6877 -0.4689 -0.4902
  104MOL0     C13937   0.029   5.808   3.638 -0.1245  0.9176 -0.0486
  104MOL0     C13938   0.139   5.851   3.717  0.8687  0.7860  0.2254
  104MOL0     C13939   0.150   5.982   3.748 -0.0801 -0.8066 -0.0384
  104MOL0     C13940   0.053   6.082   3.698  1.1297 -0.1205 -0.4094
  104MOL0     O13941   0.054   6.217   3.727 -0.0806 -0.2883  0.0566
  104MOL0     C13942   0.077   6.240   3.868 -0.3256  0.1416  0.4162
  104MOL0     C13943  -0.001   6.357   3.928 -0.1997  0.5785  0.7106
  104MOL0     C13944  -0.110   6.408   3.832 -0.4998  0.6464 -0.1031
  104MOL0     C13945  -0.226   6.473   3.896  0.0151 -0.3132  0.4099
  104MOL0     C13946  -0.204   6.621   3.908  0.5177 -0.1187 -0.0356
  104MOL0     C13947  -0.308   6.691   3.996  0.5330  0.3445  0.0337
  104MOL0     C13948  -0.263   6.684   4.140  0.6234 -0.0878  0.2427
  104MOL0     C13949  -0.367   6.767   4.230 -0.3997  0.2624  0.7198
  104MOL0    Cl13950  -0.301   6.748   4.395  0.2194  0.1219  0.0199
  104MOL0     C13951  -0.049   6.039   3.615 -1.1814 -0.5195 -0.7438
  104MOL0     C13952  -0.063   5.897   3.582  0.0527  0.4805  0.1913
  104MOL0     O13953  -0.065   5.617   3.785 -0.8724 -1.2580 -0.2440
  104MOL0     C13954   0.064   5.414   3.516 -0.0627  0.5578  1.0296
  104MOL0     C13955   0.049   5.293   3.442  0.0292 -0.5483 -0.3270
  104MOL0     N13956   0.259   4.617   3.319  0.2585 -0.3027 -0.0836
  104MOL0     N13957   0.251   4.540   3.221  0.7904 -0.1090 -0.7364
  104MOL0     C13958   0.551   5.050   2.199 -0.4839  0.2912 -0.1347
  104MOL0     C13959   0.529   5.160   2.112 -0.3277  0.8895  0.1349
  104MOL0     C13960   0.403   5.384   1.726  0.1180  0.1518 -0.8438
  104MOL0     C13961   0.410   5.386   1.588  0.6780  0.6081 -0.2397
  104MOL0     C13962   0.404   5.504   1.527  0.5478  0.4060 -0.6261
  104MOL0     C13963   0.378   5.625   1.590 -0.0682 -0.0406 -0.1056
  104MOL0     O13964   0.376   5.735   1.503  1.1519 -0.9276  0.6524
  104MOL0     C13965   0.320   5.854   1.563  0.1850 -0.0091 -0.5775
  104MOL0     C13966   0.287   5.967   1.471  0.5983 -0.0357 -0.1785
  104MOL0     C13967   0.200   6.071   1.552 -0.5309 -0.5863  0.4750
  104MOL0     C13968   0.140   6.173   1.456 -0.2205 -1.0540  0.2544
  104MOL0     C13969   0.253   6.266   1.410 -0.3201 -0.0588 -0.6751
  104MOL0     C13970   0.347   6.326   1.370  0.3853 -1.1389 -0.4303
  104MOL0     C13971   0.377   5.627   1.727 -0.3991  0.1978 -0.3811
  104MOL0     C13972   0.401   5.508   1.795 -0.9897  0.3068  0.1161
  104MOL0     H13973   0.277   5.005   1.934 -1.1233 -2.9087 -0.4026
  104MOL0     H13974   0.304   4.842   2.093 -0.1342 -0.7964 -0.3699
  104MOL0     H13975   0.395   4.680   2.219 -0.8168  0.9874 -1.1471
  104MOL0     H13976   0.547   4.680   2.137 -0.6434 -3.0309  0.9477
  104MOL0     H13977   0.549   4.508   2.302 -0.4459  0.2033 -0.3534
  104MOL0     H13978   0.683   4.628   2.319 -0.0043  0.5830  0.6902
  104MOL0     H13979   0.568   4.744   2.493  1.4910  0.0901 -3.5629
  104MOL0     H13980   0.428   4.656   2.477  0.0423  2.2713  0.5450
  104MOL0     H13981   0.542   4.439   2.545  0.0230  0.5813 -2.2974
  104MOL0     H13982   0.692   4.530   2.566  0.5642  3.4223 -0.0534
  104MOL0     H13983   0.612   4.495   2.784 -0.3465 -2.1070 -2.0501
  104MOL0     H13984   0.625   4.663   2.748 -0.6329 -0.3247  0.9171
  104MOL0     H13985   0.362   4.662   2.723  1.4390  1.1749  0.6040
  104MOL0     H13986   0.374   4.483   2.733  1.1516 -0.6220  0.1538
  104MOL0     H13987   0.469   4.509   2.965  0.4232  1.1763  0.6115
  104MOL0     H13988   0.441   4.680   2.941  1.9888 -0.8747  2.9101
  104MOL0     H13989   0.263   4.449   2.974  0.0344  0.6853 -2.2277
  104MOL0     H13990   0.177   4.595   2.916  0.8346  3.2499 -0.3595
  104MOL0     H13991   0.284   4.821   3.054 -0.1960 -0.3683 -0.4316
  104MOL0     H13992   0.330   4.852   3.436 -1.3814 -0.8685 -0.4016
  104MOL0     H13993   0.370   4.934   3.288 -0.9929  1.2385 -0.0352
  104MOL0     H13994   0.126   4.991   3.254 -1.8871  2.7148  0.4102
  104MOL0     H13995   0.228   5.082   3.362 -0.4310 -0.2600  0.4731
  104MOL0     H13996   0.090   5.007   3.562 -0.6443  2.9398 -0.2904
  104MOL0     H13997   0.097   4.848   3.486 -0.7300 -0.1588 -0.8402
  104MOL0     H13998  -0.129   4.961   3.489 -1.3686  3.2299 -1.1773
  104MOL0     H13999  -0.075   4.906   3.336 -1.6011  0.7186  1.0534
  104MOL0     H14000  -0.240   5.182   3.559  0.0816 -0.3099 -1.0147
  104MOL0     H14001  -0.212   5.368   3.840  0.3029 -2.6109 -0.8693
  104MOL0     H14002  -0.298   5.474   3.722  0.2959  0.2095 -0.6699
  104MOL0     H14003  -0.322   5.300   3.720  0.2626 -0.2441 -3.1017
  104MOL0     H14004   0.207   5.776   3.757 -1.8499 -1.7414  0.4826
  104MOL0     H14005   0.236   6.014   3.806 -1.5896  5.7166 -0.6333
  104MOL0     H14006   0.050   6.148   3.921  0.4958  0.3681  1.2506
  104MOL0     H14007   0.183   6.263   3.876 -0.0767 -0.9727  0.4647
  104MOL0     H14008  -0.048   6.328   4.023  1.5492  2.4562  2.2473
  104MOL0     H14009   0.057   6.443   3.961  1.1148  0.3440 -0.8952
  104MOL0     H14010  -0.147   6.315   3.789  0.5705  0.5510 -0.8668
  104MOL0     H14011  -0.065   6.480   3.763  2.2761 -1.8133 -1.0579
  104MOL0     H14012  -0.308   6.462   3.824 -0.6328  2.0380  0.7118
  104MOL0     H14013  -0.250   6.416   3.986  2.4782 -1.4231  0.4237
  104MOL0     H14014  -0.200   6.661   3.807  2.7369  0.8481  0.3759
  104MOL0     H14015  -0.100   6.631   3.942  2.3480 -2.3355 -4.2213
  104MOL0     H14016  -0.310   6.795   3.962 -0.6580  0.7625  1.2679
  104MOL0     H14017  -0.406   6.642   3.999 -1.6034  4.1532 -1.2305
  104MOL0     H14018  -0.167   6.736   4.142  1.5343 -1.4815 -2.1695
  104MOL0     H14019  -0.260   6.585   4.187  1.0268  0.3479  1.1471
  104MOL0     H14020  -0.467   6.723   4.223 -0.1257 -0.2202 -0.4447
  104MOL0     H14021  -0.366   6.876   4.215  0.1039  0.4691  2.0877
  104MOL0     H14022  -0.110   6.119   3.577 -0.3887  2.2284  3.1394
  104MOL0     H14023  -0.134   5.854   3.512  2.8956 -1.3520 -1.7825
  104MOL0     H14024   0.154   5.473   3.503  0.1777 -0.0253 -0.0546
  104MOL0     H14025   0.129   5.274   3.372  1.5840  4.7710 -0.3755
  104MOL0     H14026   0.623   5.059   2.280 -0.1753 -1.5106 -0.1526
  104MOL0     H14027   0.572   5.260   2.118 -0.6373  1.0038  0.4833
  104MOL0     H14028   0.416   5.300   1.523 -1.1602  1.5260 -1.7110
  104MOL0     H14029   0.405   5.500   1.419 -0.2647 -0.6299 -0.6115
  104MOL0     H14030   0.239   5.831   1.633  2.2937 -1.1890  1.6185
  104MOL0     H14031   0.395   5.915   1.614  0.9484 -0.0367 -1.6463
  104MOL0     H14032   0.221   5.932   1.390 -0.3799 -1.6218  1.2136
  104MOL0     H14033   0.370   6.006   1.412 -0.1764  1.2220 -0.4747
  104MOL0     H14034   0.254   6.110   1.638  2.4003 -0.7821 -1.1522
  104MOL0     H14035   0.110   6.020   1.587 -0.7985  0.6427  1.6388
  104MOL0     H14036   0.068   6.231   1.516  1.2999 -1.8828  3.0483
  104MOL0     H14037   0.077   6.138   1.374 -1.6164  0.6744  0.5156
  104MOL0     H14038   0.431   6.364   1.315  3.7493 -1.9336  3.6425
  104MOL0     H14039   0.365   5.713   1.793 -0.0732 -0.0438 -0.0022
  104MOL0     H14040   0.394   5.515   1.903  0.7326 -1.7408  0.4159
  105MOL0     O14041   4.514   3.392   3.339  0.1916  0.4735 -0.4886
  105MOL0     C14042   4.485   3.430   3.452  0.3690 -0.2357 -0.1802
  105MOL0     O14043   4.565   3.504   3.543 -1.1160  0.9497 -0.7459
  105MOL0     C14044   4.684   3.564   3.498  0.6714 -0.1800  0.7585
  105MOL0     C14045   4.779   3.621   3.587  0.5395  0.6171  0.1444
  105MOL0     C14046   4.889   3.688   3.549 -0.0079  0.5403  0.8605
  105MOL0     C14047   4.921   3.696   3.416 -0.0860  0.6600  0.3245
  105MOL0     O14048   5.032   3.767   3.378 -0.3151  0.0744 -0.1684
  105MOL0     C14049   5.163   3.708   3.408 -0.2064  0.1353  0.0819
  105MOL0     C14050   5.262   3.824   3.436  0.1646 -0.0975 -0.1727
  105MOL0     C14051   5.329   3.884   3.314  1.1205 -0.1232  0.6075
  105MOL0     C14052   5.448   3.963   3.345  1.1587  0.8234 -0.6097
  105MOL0     C14053   5.517   4.038   3.235  0.3876 -0.7969 -0.5519
  105MOL0     C14054   5.431   4.140   3.166  0.9709  0.0450  1.2472
  105MOL0     C14055   5.506   4.239   3.074  0.4523  0.4059 -0.2478
  105MOL0     C14056   5.608   4.159   2.980 -0.3491  0.4154 -0.0087
  105MOL0     N14057   5.702   4.255   2.928  0.4559  0.3617  0.2734
  105MOL0     C14058   5.774   4.342   2.996  0.8712 -0.1011  0.2331
  105MOL0     C14059   5.839   4.410   2.894 -0.4491  0.4592  0.0417
  105MOL0     C14060   5.949   4.496   2.898  0.0168  0.0053 -0.5270
  105MOL0     C14061   6.070   4.419   2.849 -0.0259 -0.4565 -0.3538
  105MOL0     C14062   6.198   4.491   2.822 -1.2240 -0.2919  0.8294
  105MOL0     C14063   6.286   4.525   2.944  0.5172  0.2406 -0.1330
  105MOL0     O14064   6.368   4.424   2.982  0.2564 -0.7508  0.3393
  105MOL0     C14065   6.503   4.438   2.968  0.2627 -0.2570  0.3318
  105MOL0     C14066   6.566   4.398   2.854  0.0167 -0.5981  0.5026
  105MOL0     C14067   6.704   4.429   2.830 -0.0632 -0.2561 -1.2762
  105MOL0     C14068   6.767   4.413   2.693  0.2353 -0.5999  0.3205
  105MOL0     C14069   6.774   4.494   2.936  0.2371  0.6224 -0.4254
  105MOL0     C14070   6.916   4.506   2.941  0.1369 -0.8669 -0.3088
  105MOL0     O14071   6.967   4.625   2.974 -0.3063  0.2273  0.2663
  105MOL0     C14072   6.921   4.739   2.930 -0.1885  0.4654  0.9735
  105MOL0     C14073   6.851   4.769   2.811  0.8041 -0.0805  0.4721
  105MOL0     C14074   6.825   4.900   2.766 -0.2284  0.3335  0.4270
  105MOL0     C14075   6.881   5.008   2.826  0.1059 -0.3654 -0.0185
  105MOL0     O14076   6.834   5.130   2.798 -0.3450  0.0785 -0.0328
  105MOL0     C14077   6.911   5.249   2.833  0.1586  1.0600  0.4471
  105MOL0     C14078   6.849   5.376   2.775 -0.1796  0.1160  0.1622
  105MOL0     C14079   6.707   5.392   2.846 -0.0200 -1.1304 -0.3336
  105MOL0     C14080   6.672   5.545   2.809 -0.0396 -0.4291 -0.3454
  105MOL0     C14081   6.539   5.594   2.880  0.3873  0.5586  0.0667
  105MOL0     C14082   6.497   5.727   2.820  0.1978 -0.5712 -0.2111
  105MOL0     C14083   6.372   5.775   2.894 -0.0128  0.0688  0.4816
  105MOL0     C14084   6.311   5.905   2.830  0.1253 -0.0725 -0.1674
  105MOL0    Cl14085   6.434   6.036   2.848  0.7814 -0.0104  0.2658
  105MOL0     C14086   6.952   4.981   2.944  0.2186  0.1373 -1.0054
  105MOL0     C14087   6.976   4.852   2.990 -0.8852 -0.0856  0.4767
  105MOL0     O14088   6.984   4.413   2.912  0.6532  0.2548  0.3555
  105MOL0     C14089   6.713   4.516   3.060  0.9597  1.5385  0.3679
  105MOL0     C14090   6.576   4.501   3.070 -0.0683 -0.6925  0.2774
  105MOL0     N14091   5.800   4.359   2.767  0.5793 -0.3109 -0.4214
  105MOL0     N14092   5.710   4.270   2.792 -0.0546 -1.3930  0.7296
  105MOL0     C14093   4.830   3.652   3.311  0.1407  0.2928 -0.9453
  105MOL0     C14094   4.705   3.594   3.358  0.4835 -0.4918 -0.2044
  105MOL0     C14095   4.360   3.377   3.504  1.1038  0.0482 -0.5132
  105MOL0     C14096   4.290   3.252   3.474  0.1831 -0.9370 -0.6150
  105MOL0     C14097   4.160   3.221   3.515  0.3431  0.2732  0.0985
  105MOL0     C14098   4.106   3.320   3.610  0.5522  1.0935 -1.3618
  105MOL0     O14099   3.986   3.313   3.680 -0.4242  0.1632 -0.3308
  105MOL0     C14100   3.928   3.180   3.698 -0.5656  0.0369  0.3945
  105MOL0     C14101   3.980   3.118   3.828 -0.5828  0.9431 -1.2879
  105MOL0     C14102   4.069   2.996   3.792  0.3129 -0.9176  0.1487
  105MOL0     C14103   4.164   2.944   3.901 -0.1635  0.5189 -0.6344
  105MOL0     C14104   4.308   2.965   3.901  0.0327 -0.1091  0.2989
  105MOL0     C14105   4.422   2.965   3.890 -0.0271  0.2508 -0.2939
  105MOL0     C14106   4.172   3.441   3.641 -0.4261  0.0800 -0.7749
  105MOL0     C14107   4.300   3.470   3.592  0.7852  0.0121 -0.2830
  105MOL0     H14108   4.763   3.583   3.688 -3.7377  0.5780 -0.3708
  105MOL0     H14109   4.963   3.727   3.618 -1.6175  0.1514  2.9152
  105MOL0     H14110   5.160   3.646   3.498 -0.5413  0.1008  0.0517
  105MOL0     H14111   5.187   3.636   3.329 -2.3637 -1.5990  0.8891
  105MOL0     H14112   5.228   3.907   3.498  0.9367  0.0197  0.1059
  105MOL0     H14113   5.344   3.780   3.493  0.4684 -1.4043 -1.5435
  105MOL0     H14114   5.357   3.808   3.241 -2.7532  0.6843 -2.0061
  105MOL0     H14115   5.262   3.956   3.267  0.5246 -0.9249  0.2141
  105MOL0     H14116   5.414   4.041   3.414 -2.8569  0.1303 -1.5248
  105MOL0     H14117   5.511   3.890   3.397  1.2084  0.4331 -1.2046
  105MOL0     H14118   5.604   4.089   3.279  0.4050 -0.8590 -0.5141
  105MOL0     H14119   5.545   3.959   3.165  0.0594 -2.4239  1.0789
  105MOL0     H14120   5.350   4.091   3.111  0.0312  0.0664  2.5688
  105MOL0     H14121   5.385   4.190   3.251 -2.6762 -3.5050  1.6456
  105MOL0     H14122   5.441   4.312   3.026  0.8457 -0.0067 -1.4445
  105MOL0     H14123   5.550   4.298   3.155 -0.3326 -1.9465  2.0534
  105MOL0     H14124   5.552   4.098   2.909 -0.2249 -1.2853  1.3022
  105MOL0     H14125   5.671   4.103   3.049 -0.3552  1.5464  0.9567
  105MOL0     H14126   5.775   4.356   3.103 -3.8437  0.1092  0.4790
  105MOL0     H14127   5.931   4.583   2.834  1.5554  0.3725 -0.4989
  105MOL0     H14128   5.972   4.524   3.002 -3.5176 -0.8188  0.6308
  105MOL0     H14129   6.039   4.352   2.769 -4.8749 -2.2892  2.6205
  105MOL0     H14130   6.096   4.354   2.933 -0.1603 -2.0834 -1.5134
  105MOL0     H14131   6.179   4.591   2.782 -1.2340 -1.0884 -1.2401
  105MOL0     H14132   6.259   4.437   2.749 -2.2948 -0.2773 -0.0906
  105MOL0     H14133   6.226   4.566   3.026 -1.4040  0.4827 -1.5912
  105MOL0     H14134   6.349   4.612   2.919  0.4553  0.3418  0.0619
  105MOL0     H14135   6.518   4.341   2.775 -0.7161  1.6292 -0.7432
  105MOL0     H14136   6.832   4.325   2.698  0.6564 -0.2346  2.1540
  105MOL0     H14137   6.688   4.402   2.619  1.7058 -1.4874 -1.1697
  105MOL0     H14138   6.832   4.492   2.654 -0.8480  0.1991  0.0605
  105MOL0     H14139   6.811   4.685   2.755  2.5693 -0.4599 -0.3140
  105MOL0     H14140   6.768   4.912   2.674  0.3544  0.1276  0.0315
  105MOL0     H14141   6.932   5.253   2.940  2.1089 -2.5437  0.3617
  105MOL0     H14142   7.012   5.238   2.792 -0.0893  0.2226  0.0422
  105MOL0     H14143   6.915   5.461   2.793 -0.9503  0.7862 -0.1022
  105MOL0     H14144   6.841   5.375   2.666  1.6430 -0.2262  0.0031
  105MOL0     H14145   6.702   5.386   2.955  0.9045  3.4078  0.1416
  105MOL0     H14146   6.633   5.323   2.804  0.6382 -2.8160  1.1305
  105MOL0     H14147   6.743   5.620   2.843  0.0304 -1.2178  1.3303
  105MOL0     H14148   6.661   5.572   2.704 -0.5037 -0.1646 -0.2342
  105MOL0     H14149   6.565   5.592   2.986  0.7970  0.0866 -0.0405
  105MOL0     H14150   6.458   5.524   2.858 -1.7746  0.9000  5.5890
  105MOL0     H14151   6.586   5.791   2.822  0.5267 -0.9806  3.3240
  105MOL0     H14152   6.475   5.726   2.712 -1.6451  2.6739 -0.0178
  105MOL0     H14153   6.388   5.792   3.000 -0.5835  1.1209  0.4056
  105MOL0     H14154   6.313   5.685   2.872  2.4828 -0.8366 -3.6287
  105MOL0     H14155   6.215   5.924   2.880 -1.4208 -2.4955 -1.9469
  105MOL0     H14156   6.304   5.894   2.721  3.4396  0.1561 -0.5027
  105MOL0     H14157   6.975   5.072   2.998 -0.1293  0.5957 -1.6111
  105MOL0     H14158   7.039   4.825   3.075 -1.0834 -0.1017  0.6178
  105MOL0     H14159   6.758   4.569   3.143 -1.5682 -0.7290  3.4787
  105MOL0     H14160   6.522   4.542   3.154  0.0994  0.5010 -0.1765
  105MOL0     H14161   4.857   3.684   3.211  0.5046 -1.0778 -1.3066
  105MOL0     H14162   4.651   3.572   3.266  1.6779 -0.0716 -1.0217
  105MOL0     H14163   4.347   3.189   3.406  1.7845  1.2726 -1.4206
  105MOL0     H14164   4.109   3.134   3.475 -1.8826  1.7976 -0.5645
  105MOL0     H14165   3.819   3.191   3.699 -0.4728  1.2167 -0.0754
  105MOL0     H14166   3.937   3.103   3.621  4.7748 -1.6734  2.3387
  105MOL0     H14167   3.910   3.094   3.908  1.3871  3.6228  1.4143
  105MOL0     H14168   4.052   3.189   3.869  0.6551 -1.6186  1.3573
  105MOL0     H14169   4.131   3.016   3.704 -1.4543 -2.6899 -1.6179
  105MOL0     H14170   4.001   2.912   3.776 -0.0745 -0.7712  0.9724
  105MOL0     H14171   4.146   2.837   3.910 -0.9985  0.4355 -2.6950
  105MOL0     H14172   4.138   2.985   3.999 -0.8401  2.8203 -1.7085
  105MOL0     H14173   4.529   2.966   3.884  0.2677 -3.5851  1.2600
  105MOL0     H14174   4.120   3.514   3.701 -0.7718  1.6172 -2.8385
  105MOL0     H14175   4.337   3.568   3.618 -0.8207  0.9005 -1.1706
  106MOL0     O14176   3.968   0.179   5.125  0.7032  0.1859  0.0190
  106MOL0     C14177   3.965   0.194   5.247  0.5005 -0.3526  0.1886
  106MOL0     O14178   4.030   0.295   5.304  0.0189  0.0537 -0.2959
  106MOL0     C14179   4.080   0.398   5.225  0.8031 -0.5108 -0.0592
  106MOL0     C14180   4.161   0.368   5.109  0.1164 -0.1785  0.9553
  106MOL0     C14181   4.207   0.477   5.035 -0.6633  0.3628  0.4022
  106MOL0     C14182   4.191   0.613   5.068  0.1415  0.1955  0.1245
  106MOL0     O14183   4.230   0.702   4.975 -0.0962  0.2664 -0.5078
  106MOL0     C14184   4.332   0.791   5.027 -0.2189  0.5036 -0.4354
  106MOL0     C14185   4.461   0.758   4.966 -0.2217  0.4841 -0.6060
  106MOL0     C14186   4.476   0.792   4.818  0.2389 -0.1099  0.0150
  106MOL0     C14187   4.614   0.828   4.776 -0.5334  0.1310  0.8278
  106MOL0     C14188   4.630   0.814   4.616  0.5765 -0.6973 -0.3325
  106MOL0     C14189   4.771   0.818   4.551 -0.1614  0.0153  0.4536
  106MOL0     C14190   4.878   0.908   4.623 -0.3703  0.0566  0.3646
  106MOL0     C14191   4.995   0.923   4.529  0.2150 -0.1898  0.3773
  106MOL0     N14192   5.098   1.003   4.595 -0.0329  0.5747 -0.1599
  106MOL0     C14193   5.074   1.141   4.599 -0.8078 -0.0633 -0.0461
  106MOL0     C14194   5.184   1.201   4.642 -0.7508  0.4417 -0.3967
  106MOL0     C14195   5.203   1.348   4.649  0.3967 -0.5711  0.7585
  106MOL0     C14196   5.099   1.431   4.725 -1.4639 -1.0020  0.3079
  106MOL0     C14197   5.065   1.368   4.867 -0.6526  0.6481  0.3773
  106MOL0     C14198   5.173   1.395   4.961 -0.7336 -0.0391 -0.4746
  106MOL0     O14199   5.119   1.368   5.093 -0.9248  0.2755 -0.3934
  106MOL0     C14200   5.155   1.256   5.169  0.5831 -0.4505 -0.6333
  106MOL0     C14201   5.098   1.253   5.298  0.4075 -0.7131 -0.3264
  106MOL0     C14202   5.134   1.167   5.395  0.4204  1.1949  0.3735
  106MOL0     C14203   5.078   1.189   5.535  0.1623  0.0588  0.2904
  106MOL0     C14204   5.225   1.065   5.353  0.0305  0.2870 -0.8195
  106MOL0     C14205   5.275   0.958   5.447 -0.6736  0.7807 -0.4653
  106MOL0     O14206   5.197   0.922   5.556  0.1122  0.2567 -0.4305
  106MOL0     C14207   5.235   0.818   5.646 -0.3996 -0.0647  1.5043
  106MOL0     C14208   5.155   0.711   5.651 -0.5945  0.6914  0.4808
  106MOL0     C14209   5.197   0.600   5.720  0.0353  0.3351  0.1693
  106MOL0     C14210   5.319   0.609   5.794 -0.4588  1.3400 -0.2288
  106MOL0     O14211   5.374   0.505   5.875  0.0497  0.1677  1.0016
  106MOL0     C14212   5.349   0.366   5.843  0.5227 -0.4338 -0.8218
  106MOL0     C14213   5.418   0.278   5.953  0.4637  0.7598 -1.1473
  106MOL0     C14214   5.572   0.320   5.959  0.6948  0.0562 -0.5474
  106MOL0     C14215   5.663   0.204   5.995  0.0340 -0.5022 -0.1835
  106MOL0     C14216   5.805   0.256   5.991  0.7198 -0.5900  0.5341
  106MOL0     C14217   5.898   0.137   5.984 -0.3523  0.0690  0.9061
  106MOL0     C14218   6.046   0.178   5.981 -0.8891 -1.1715 -0.2237
  106MOL0     C14219   6.134   0.074   5.905 -0.5739  0.3184  0.5575
  106MOL0    Cl14220   6.308   0.122   5.898 -0.4987 -0.4790 -0.0430
  106MOL0     C14221   5.383   0.734   5.815  0.0007 -1.5776  0.1265
  106MOL0     C14222   5.347   0.835   5.734  0.4232 -0.7479  0.1963
  106MOL0     O14223   5.379   0.895   5.416  0.9308 -0.1004  0.1381
  106MOL0     C14224   5.277   1.063   5.226 -1.0778 -0.6311  0.5861
  106MOL0     C14225   5.245   1.163   5.140 -1.4845 -0.1221  0.1003
  106MOL0     N14226   5.280   1.098   4.650  0.0345  0.5049  0.3893
  106MOL0     N14227   5.228   0.980   4.633 -0.1004 -0.9475 -0.1161
  106MOL0     C14228   4.115   0.642   5.181  0.3153 -0.1709  0.4401
  106MOL0     C14229   4.058   0.537   5.260  0.6756  0.1932 -0.6317
  106MOL0     C14230   3.891   0.106   5.338  0.1691 -0.5379 -0.2413
  106MOL0     C14231   3.773   0.035   5.289 -0.6540  0.0531  1.1134
  106MOL0     C14232   3.704  -0.050   5.369 -0.5824  0.5678  0.5019
  106MOL0     C14233   3.742  -0.066   5.508 -1.5553 -0.7530  0.8561
  106MOL0     O14234   3.667  -0.155   5.577  0.1453  0.6186 -0.4658
  106MOL0     C14235   3.609  -0.124   5.703 -0.1172 -0.4712  0.1329
  106MOL0     C14236   3.678  -0.216   5.813  0.5767  0.0144  0.6802
  106MOL0     C14237   3.650  -0.369   5.801  0.6026 -1.0122 -0.3245
  106MOL0     C14238   3.760  -0.456   5.865  0.2070  0.8013  0.7916
  106MOL0     C14239   3.797  -0.414   6.001  0.0562  0.0844 -0.0110
  106MOL0     C14240   3.833  -0.397   6.116 -0.2656  0.7754  0.0110
  106MOL0     C14241   3.856   0.001   5.556  1.5875 -0.0837 -0.4178
  106MOL0     C14242   3.924   0.087   5.475 -0.3427 -1.2566  0.2084
  106MOL0     H14243   4.180   0.270   5.067 -0.3628  0.5571 -1.0887
  106MOL0     H14244   4.261   0.456   4.943 -2.0022  1.5063 -0.6991
  106MOL0     H14245   4.292   0.889   4.999 -0.1033  0.0683 -2.2016
  106MOL0     H14246   4.338   0.793   5.137  1.1992 -0.0322 -0.4870
  106MOL0     H14247   4.534   0.816   5.023  1.8988 -3.3327  0.9322
  106MOL0     H14248   4.487   0.655   4.993  0.7462 -0.1768 -3.6385
  106MOL0     H14249   4.443   0.703   4.763  0.1429 -0.6479  0.9117
  106MOL0     H14250   4.409   0.869   4.778  0.7177 -0.6142 -1.8716
  106MOL0     H14251   4.632   0.930   4.810  0.0482 -1.3584  5.7267
  106MOL0     H14252   4.680   0.757   4.826 -0.3886 -0.5958 -0.3546
  106MOL0     H14253   4.598   0.716   4.580 -0.3402 -0.3717 -0.4151
  106MOL0     H14254   4.573   0.898   4.575 -1.7024 -0.7002  2.5633
  106MOL0     H14255   4.816   0.719   4.556  0.6510  0.3452 -0.1174
  106MOL0     H14256   4.750   0.844   4.447 -2.9137 -2.4444  0.2711
  106MOL0     H14257   4.832   1.006   4.638 -1.5096 -0.2136 -1.1634
  106MOL0     H14258   4.907   0.856   4.715 -1.4678  1.8199  1.7617
  106MOL0     H14259   4.967   0.978   4.439  1.1197  0.3408  0.4177
  106MOL0     H14260   5.019   0.821   4.495 -0.1368 -0.2139  0.1936
  106MOL0     H14261   4.985   1.195   4.570  0.6452  3.3608  1.3640
  106MOL0     H14262   5.304   1.374   4.683 -0.2444  2.1500  0.7719
  106MOL0     H14263   5.201   1.375   4.543 -2.1593  0.7629  1.0772
  106MOL0     H14264   5.017   1.452   4.656 -1.2151 -3.0057 -0.6550
  106MOL0     H14265   5.138   1.530   4.749  2.1225 -1.8494 -1.3803
  106MOL0     H14266   5.034   1.264   4.854 -0.3113  0.6549 -0.6079
  106MOL0     H14267   4.978   1.421   4.907 -0.2685  1.3604  0.2820
  106MOL0     H14268   5.183   1.504   4.962  0.8879 -0.1265 -1.9178
  106MOL0     H14269   5.268   1.342   4.947 -1.5774 -1.7535 -0.0300
  106MOL0     H14270   5.034   1.335   5.326  3.9243  1.4007  2.3620
  106MOL0     H14271   5.141   1.142   5.612  3.3185 -1.9072 -3.1453
  106MOL0     H14272   5.068   1.296   5.554  1.0885 -0.2369  2.8536
  106MOL0     H14273   4.980   1.140   5.539 -0.1024  0.2525 -2.3913
  106MOL0     H14274   5.062   0.709   5.594  0.0209 -1.9063 -0.5906
  106MOL0     H14275   5.135   0.514   5.738  0.7286  0.1982  2.1278
  106MOL0     H14276   5.242   0.346   5.849  1.0639 -3.2231  1.2713
  106MOL0     H14277   5.372   0.329   5.742  1.5142  1.0701 -1.1879
  106MOL0     H14278   5.378   0.311   6.049 -1.1736  2.8740 -2.4730
  106MOL0     H14279   5.402   0.171   5.939 -0.4805  0.6365  0.6314
  106MOL0     H14280   5.576   0.393   6.040 -2.2685  0.9713 -1.1142
  106MOL0     H14281   5.603   0.364   5.864  0.0800  0.5085 -0.5409
  106MOL0     H14282   5.639   0.163   6.093 -3.9661  1.6390 -0.0537
  106MOL0     H14283   5.647   0.123   5.923  0.5298 -1.6199  0.9312
  106MOL0     H14284   5.820   0.321   6.078 -3.1394  1.4006 -0.0740
  106MOL0     H14285   5.814   0.316   5.900 -1.2100 -0.8306  0.1573
  106MOL0     H14286   5.880   0.061   6.061 -1.4627 -2.5946 -1.7671
  106MOL0     H14287   5.876   0.094   5.886 -1.1182  2.4797 -0.0450
  106MOL0     H14288   6.082   0.201   6.082  0.5842 -0.5084 -0.8580
  106MOL0     H14289   6.067   0.270   5.925  5.0199 -0.2853  2.5782
  106MOL0     H14290   6.091   0.067   5.805 -1.9980  3.4656  0.8433
  106MOL0     H14291   6.122  -0.028   5.943  1.6096  0.1004  0.8009
  106MOL0     H14292   5.469   0.748   5.879  0.3340 -0.6862 -0.4944
  106MOL0     H14293   5.404   0.926   5.717 -2.0300  0.4257 -2.8123
  106MOL0     H14294   5.356   0.996   5.195 -0.4592  1.1898 -2.1465
  106MOL0     H14295   5.307   1.160   5.050  1.8801  0.9202  2.2055
  106MOL0     H14296   4.086   0.745   5.194 -3.1718 -1.0074  0.3414
  106MOL0     H14297   4.008   0.546   5.356  0.0188 -1.9494 -0.7300
  106MOL0     H14298   3.735   0.060   5.191 -4.6044 -0.9169  2.2103
  106MOL0     H14299   3.617  -0.110   5.343  0.6772 -1.4376  0.6928
  106MOL0     H14300   3.625  -0.019   5.727  0.6797 -0.8938  1.5505
  106MOL0     H14301   3.500  -0.130   5.698 -0.0443 -0.6444 -2.3135
  106MOL0     H14302   3.656  -0.194   5.917 -0.6458 -1.7438  0.8438
  106MOL0     H14303   3.787  -0.206   5.801  0.8693 -2.4432  0.6633
  106MOL0     H14304   3.638  -0.396   5.696 -2.2469  2.1647 -1.0059
  106MOL0     H14305   3.552  -0.377   5.848  1.1116 -0.6613  0.8454
  106MOL0     H14306   3.842  -0.460   5.793 -2.5702  2.0571 -2.7546
  106MOL0     H14307   3.715  -0.555   5.854  0.8088  0.8269 -4.1121
  106MOL0     H14308   3.867  -0.369   6.214  2.4130 -1.4413 -0.1630
  106MOL0     H14309   3.877  -0.024   5.659  0.5052  2.8438  0.6272
  106MOL0     H14310   4.003   0.154   5.509 -2.9961  1.7042  1.0485
  107MOL0     O14311  10.473   4.163   5.608  0.3661  1.0997 -0.8449
  107MOL0     C14312  10.397   4.118   5.526  0.0864  0.0512 -0.7437
  107MOL0     O14313  10.438   4.057   5.417 -0.0533 -0.8751 -0.1873
  107MOL0     C14314  10.561   4.076   5.367 -0.1765  0.3727 -0.2373
  107MOL0     C14315  10.608   3.968   5.282  0.2826 -1.0834  0.6293
  107MOL0     C14316  10.743   3.966   5.223  1.1906  0.2651  1.0202
  107MOL0     C14317  10.831   4.062   5.260  0.3383 -0.2190  0.4447
  107MOL0     O14318  10.961   4.056   5.213  0.4573 -0.3203  0.3593
  107MOL0     C14319  11.046   4.182   5.207  1.0626 -0.0843  0.7727
  107MOL0     C14320  11.162   4.155   5.104  0.1026 -0.1689 -0.0379
  107MOL0     C14321  11.111   4.092   4.973 -0.0947  0.4919  0.8366
  107MOL0     C14322  10.995   4.168   4.902  0.2677  0.9194 -0.3139
  107MOL0     C14323  10.957   4.101   4.762  0.1348  0.0915  0.2537
  107MOL0     C14324  10.847   4.176   4.674 -0.0094  0.5044  0.1767
  107MOL0     C14325  10.775   4.076   4.571  0.1851  0.5621 -0.4352
  107MOL0     C14326  10.673   4.141   4.479 -0.5542 -0.0044 -0.1302
  107MOL0     N14327  10.526   4.128   4.526 -0.0189  0.4647  0.2531
  107MOL0     C14328  10.466   4.202   4.624 -0.0319 -0.5998 -0.5980
  107MOL0     C14329  10.347   4.135   4.642 -0.3123 -0.2158  0.9177
  107MOL0     C14330  10.234   4.179   4.736  0.1954 -0.3157  0.5375
  107MOL0     C14331  10.283   4.199   4.878  0.0953  0.2216 -0.0336
  107MOL0     C14332  10.378   4.097   4.937  0.6717  0.3063 -0.2178
  107MOL0     C14333  10.319   3.962   4.958  0.3714 -0.1045 -0.1393
  107MOL0     O14334  10.408   3.880   5.039  0.8353  0.3531  0.3713
  107MOL0     C14335  10.392   3.747   5.032  0.1833  0.2823  0.6236
  107MOL0     C14336  10.501   3.664   5.047  0.9795  0.2026  0.2237
  107MOL0     C14337  10.490   3.521   5.059 -0.0321  0.5266  0.8571
  107MOL0     C14338  10.619   3.437   5.085  0.3341  0.7941 -0.4034
  107MOL0     C14339  10.367   3.466   5.016 -0.1478  0.2601  1.1557
  107MOL0     C14340  10.350   3.318   4.991 -0.4201 -0.5338 -1.3994
  107MOL0     O14341  10.215   3.269   4.977  0.1390  0.2815  0.5717
  107MOL0     C14342  10.196   3.141   4.953 -0.2470  0.7019  0.2003
  107MOL0     C14343  10.141   3.064   5.052 -0.6741 -0.8000 -1.3970
  107MOL0     C14344  10.118   2.933   5.031  0.0856 -0.0581  0.9097
  107MOL0     C14345  10.136   2.872   4.909  0.7598 -0.3212  0.2161
  107MOL0     O14346  10.077   2.751   4.898 -0.0173  0.3594 -0.9212
  107MOL0     C14347  10.095   2.673   4.774  0.5674 -0.9427  0.2750
  107MOL0     C14348  10.014   2.540   4.793  0.7140  0.1684  0.7908
  107MOL0     C14349  10.070   2.438   4.897 -0.4047 -0.1808 -0.6052
  107MOL0     C14350  10.036   2.281   4.883 -0.6797  0.4093  0.6265
  107MOL0     C14351  10.093   2.196   5.001  0.4136  0.6401  0.0742
  107MOL0     C14352  10.021   2.061   5.006 -1.0022  0.1282 -0.8205
  107MOL0     C14353  10.080   1.979   5.126 -0.3814 -0.3111  0.1153
  107MOL0     C14354  10.035   1.828   5.116 -0.0623 -0.8942 -0.9677
  107MOL0    Cl14355   9.853   1.834   5.136 -0.3679 -0.0225 -0.2850
  107MOL0     C14356  10.190   2.951   4.803  0.5211  0.5960 -0.0960
  107MOL0     C14357  10.223   3.086   4.832 -0.3870  0.0046 -0.4934
  107MOL0     O14358  10.449   3.249   5.013 -0.5173  0.4910  0.0445
  107MOL0     C14359  10.258   3.545   4.996  0.1836  0.1581  0.4573
  107MOL0     C14360  10.267   3.685   5.009  0.5968  0.9898 -0.3828
  107MOL0     N14361  10.344   4.019   4.557  0.1719  0.5712  0.3847
  107MOL0     N14362  10.444   4.027   4.481 -0.5590 -0.7982 -0.1298
  107MOL0     C14363  10.782   4.173   5.322  0.2679 -0.2019  0.1681
  107MOL0     C14364  10.658   4.179   5.370  0.7724  0.1352  0.2022
  107MOL0     C14365  10.246   4.124   5.546 -0.9870 -0.8945  0.8882
  107MOL0     C14366  10.165   4.062   5.451 -1.2467 -0.6290  0.5530
  107MOL0     C14367  10.025   4.083   5.447  0.1153 -0.5047 -0.5122
  107MOL0     C14368   9.967   4.132   5.554 -0.7629 -0.3353 -1.0958
  107MOL0     O14369   9.838   4.147   5.586  0.6938 -0.5298 -0.7351
  107MOL0     C14370   9.728   4.102   5.502 -0.1779  0.0324  0.1819
  107MOL0     C14371   9.605   4.193   5.538 -0.6204  0.5590  0.3776
  107MOL0     C14372   9.493   4.131   5.458 -0.1910  0.6114  0.2945
  107MOL0     C14373   9.415   4.231   5.386 -0.3573 -0.3692 -0.1772
  107MOL0     C14374   9.492   4.309   5.291  0.3466  0.0932  0.0341
  107MOL0     C14375   9.578   4.381   5.248 -0.0552 -1.2558  0.0563
  107MOL0     C14376  10.051   4.170   5.658  0.1825  0.6331 -0.0249
  107MOL0     C14377  10.184   4.174   5.650  0.3853  0.8232 -0.2355
  107MOL0     H14378  10.540   3.888   5.256 -1.5962  0.1766  1.3873
  107MOL0     H14379  10.768   3.877   5.166 -1.5512  0.1609 -0.1773
  107MOL0     H14380  10.976   4.262   5.185  2.1822  0.8649  0.5653
  107MOL0     H14381  11.085   4.197   5.309  1.2771 -0.3227  0.7256
  107MOL0     H14382  11.212   4.252   5.096 -1.8359  1.1172  2.1081
  107MOL0     H14383  11.225   4.078   5.150  1.4313 -0.1289 -1.6815
  107MOL0     H14384  11.201   4.072   4.914 -0.4777  0.8803  0.1096
  107MOL0     H14385  11.073   3.990   4.985  1.0979  0.0400  0.9638
  107MOL0     H14386  10.908   4.180   4.967  0.5349  0.1509  0.1959
  107MOL0     H14387  11.031   4.267   4.871 -0.6792  0.1471 -4.5132
  107MOL0     H14388  11.054   4.098   4.713  0.2605  0.0662  0.5010
  107MOL0     H14389  10.919   4.000   4.780 -2.4124  0.5308 -2.0228
  107MOL0     H14390  10.773   4.207   4.748 -0.7144 -1.9021  0.5482
  107MOL0     H14391  10.886   4.260   4.615  0.5011 -0.8624 -1.5005
  107MOL0     H14392  10.852   4.026   4.513 -0.8576 -2.2938  0.4674
  107MOL0     H14393  10.713   4.004   4.625 -0.0304  0.9866 -0.1050
  107MOL0     H14394  10.685   4.089   4.383  2.8099 -1.5400  0.9996
  107MOL0     H14395  10.688   4.249   4.466 -2.3254  0.1851 -1.0120
  107MOL0     H14396  10.501   4.291   4.675  0.7513  0.5576 -2.9985
  107MOL0     H14397  10.201   4.274   4.694 -0.4511 -1.7414 -2.3941
  107MOL0     H14398  10.152   4.108   4.723 -0.9307  1.3235 -2.2436
  107MOL0     H14399  10.194   4.215   4.940  0.0457 -1.2564  0.3255
  107MOL0     H14400  10.349   4.286   4.875 -0.5483  0.7053 -2.1366
  107MOL0     H14401  10.397   4.126   5.040  0.4011 -0.3532  0.0248
  107MOL0     H14402  10.469   4.084   4.877  1.2999 -3.1910  1.2335
  107MOL0     H14403  10.286   3.919   4.863 -2.0738 -2.0426  1.4435
  107MOL0     H14404  10.230   3.979   5.019 -0.2925 -2.0933 -0.4772
  107MOL0     H14405  10.602   3.702   5.049 -0.7938  6.3303 -1.9557
  107MOL0     H14406  10.708   3.498   5.104 -0.4739  1.3692  1.8626
  107MOL0     H14407  10.606   3.367   5.168 -0.6497 -2.1900 -2.8776
  107MOL0     H14408  10.645   3.388   4.991  2.6054  0.6179  0.2405
  107MOL0     H14409  10.139   3.111   5.150  2.5097  2.9173 -2.8530
  107MOL0     H14410  10.068   2.875   5.108  1.2359 -3.0206 -0.4106
  107MOL0     H14411  10.058   2.729   4.688  0.8311 -0.1927  0.6346
  107MOL0     H14412  10.195   2.647   4.738 -0.4313 -3.2413 -1.0682
  107MOL0     H14413   9.908   2.564   4.804  0.9536  1.3000  0.7477
  107MOL0     H14414  10.026   2.503   4.690  1.8467  0.1051  0.9270
  107MOL0     H14415  10.035   2.474   4.994  3.1760 -0.9666  1.1185
  107MOL0     H14416  10.179   2.441   4.906 -0.1914 -1.4351 -2.2854
  107MOL0     H14417   9.929   2.259   4.877 -0.8138  1.4797 -1.7516
  107MOL0     H14418  10.091   2.244   4.797  1.4512  2.3097  1.0619
  107MOL0     H14419  10.079   2.256   5.092 -1.5160  0.6248 -0.1595
  107MOL0     H14420  10.200   2.178   4.992  0.5852  1.9402 -0.8026
  107MOL0     H14421   9.913   2.065   5.018 -0.8943 -1.0982  0.9467
  107MOL0     H14422  10.047   2.020   4.907  2.2452 -0.0935  0.0098
  107MOL0     H14423  10.051   2.024   5.221 -1.6506 -4.9189  2.2267
  107MOL0     H14424  10.187   1.974   5.105  0.0539  0.0747  2.0353
  107MOL0     H14425  10.077   1.766   5.195 -2.2836  1.2004  2.0901
  107MOL0     H14426  10.069   1.797   5.017 -2.1005 -2.3535 -1.2697
  107MOL0     H14427  10.189   2.925   4.697 -1.1547  0.6827 -0.1350
  107MOL0     H14428  10.283   3.152   4.771  0.0551  1.6228  1.5863
  107MOL0     H14429  10.165   3.492   4.978  0.8990 -1.2334  0.6857
  107MOL0     H14430  10.177   3.744   5.005 -0.1290  0.5017  3.8072
  107MOL0     H14431  10.845   4.257   5.347  1.9873 -0.8676 -1.7219
  107MOL0     H14432  10.623   4.265   5.426  0.9246  0.0442  0.4406
  107MOL0     H14433  10.202   4.037   5.352 -2.9220 -0.9441 -0.0217
  107MOL0     H14434   9.979   4.055   5.353 -0.7015  0.9793 -0.5846
  107MOL0     H14435   9.748   4.103   5.394 -2.7623 -2.2851 -0.4438
  107MOL0     H14436   9.703   3.998   5.525  2.2452 -0.8091 -0.6433
  107MOL0     H14437   9.635   4.294   5.509 -1.4193  0.1022 -2.2427
  107MOL0     H14438   9.563   4.182   5.638 -1.4540  2.2909  0.2456
  107MOL0     H14439   9.425   4.072   5.520  1.2539 -1.8766 -0.3564
  107MOL0     H14440   9.518   4.058   5.380 -1.7205  2.2589 -1.8649
  107MOL0     H14441   9.389   4.306   5.462  0.8451 -1.1982  1.0997
  107MOL0     H14442   9.319   4.194   5.349 -0.9812  0.9612  0.0443
  107MOL0     H14443   9.655   4.446   5.209  0.5718 -2.8782 -1.5488
  107MOL0     H14444  10.003   4.216   5.744 -1.3422  3.3350 -2.1626
  107MOL0     H14445  10.240   4.215   5.734  0.7312 -0.8700  0.3939
  108MOL0     O14446   0.547   9.952   9.582  0.2397 -0.4865 -0.1447
  108MOL0     C14447   0.586  10.063   9.610  0.6887  0.1479 -0.0627
  108MOL0     O14448   0.722  10.097   9.615 -0.9419  0.0978 -0.8414
  108MOL0     C14449   0.819  10.004   9.582 -0.1506 -0.1541 -0.1740
  108MOL0     C14450   0.819   9.900   9.475 -0.6912  0.2398 -0.2581
  108MOL0     C14451   0.935   9.827   9.431  0.0731 -0.1537  0.0208
  108MOL0     C14452   1.054   9.852   9.494  0.3180  0.5833 -0.2240
  108MOL0     O14453   1.165   9.768   9.473  0.3106  1.5228 -0.2234
  108MOL0     C14454   1.195   9.755   9.335 -0.8530  0.4118  0.9602
  108MOL0     C14455   1.174   9.619   9.279 -0.6263  1.2722  0.6351
  108MOL0     C14456   1.237   9.609   9.138 -0.7082  0.0093  1.3565
  108MOL0     C14457   1.397   9.603   9.138  1.2901 -0.7987 -0.2030
  108MOL0     C14458   1.444   9.594   8.994  0.5759  0.8089 -0.3942
  108MOL0     C14459   1.599   9.596   8.979 -0.4219  0.6221 -0.4710
  108MOL0     C14460   1.652   9.457   9.007  0.1321  0.7601 -0.2861
  108MOL0     C14461   1.808   9.445   8.993  0.0425 -0.2972  0.6260
  108MOL0     N14462   1.853   9.479   8.855  0.1174  0.6790 -0.0684
  108MOL0     C14463   1.830   9.415   8.743  0.2299 -0.8370 -0.0354
  108MOL0     C14464   1.846   9.501   8.643 -0.3436  0.9999  0.0187
  108MOL0     C14465   1.827   9.474   8.498  0.9316 -0.6643 -0.1243
  108MOL0     C14466   1.910   9.358   8.445  0.0814 -0.2808 -1.2165
  108MOL0     C14467   1.904   9.362   8.291 -0.5691 -0.1554 -0.2536
  108MOL0     C14468   1.970   9.243   8.223 -1.1854  0.5282 -0.8934
  108MOL0     O14469   1.879   9.129   8.249  0.2208  0.1510 -0.1230
  108MOL0     C14470   1.772   9.092   8.164 -0.9039  0.1893  0.2385
  108MOL0     C14471   1.679   9.005   8.218 -0.0566  0.2284 -0.1031
  108MOL0     C14472   1.582   8.947   8.139  0.7810  0.6157 -1.2903
  108MOL0     C14473   1.498   8.841   8.212 -0.3499  0.6719  0.3843
  108MOL0     C14474   1.562   8.985   8.005  0.1805  0.4342  0.2039
  108MOL0     C14475   1.462   8.921   7.913  0.2622  1.3221  0.2939
  108MOL0     O14476   1.491   8.914   7.775 -0.2147 -0.4371  0.0149
  108MOL0     C14477   1.404   8.848   7.701  0.2909  0.3183 -0.2006
  108MOL0     C14478   1.356   8.717   7.732  0.2233 -0.8832 -0.0213
  108MOL0     C14479   1.266   8.649   7.652 -0.2764 -0.1495 -0.1087
  108MOL0     C14480   1.209   8.714   7.537  0.4433  0.3895  0.3441
  108MOL0     O14481   1.123   8.640   7.458  0.0669 -0.7308 -0.1793
  108MOL0     C14482   1.185   8.591   7.342 -0.0570  0.2168  0.4635
  108MOL0     C14483   1.073   8.529   7.254  0.4930  1.2810  0.3839
  108MOL0     C14484   0.998   8.418   7.333 -0.4462 -0.3734  0.5075
  108MOL0     C14485   0.924   8.316   7.240  0.0726 -0.3221  0.1455
  108MOL0     C14486   0.811   8.241   7.312 -0.0367 -0.4650 -0.0351
  108MOL0     C14487   0.858   8.152   7.423 -0.5197 -0.5578  0.6303
  108MOL0     C14488   0.916   8.016   7.378  0.8274  0.5438 -1.1120
  108MOL0     C14489   1.050   7.979   7.438  0.2419 -0.6508 -0.7183
  108MOL0    Cl14490   1.051   7.949   7.622 -0.1211  0.0239  0.0375
  108MOL0     C14491   1.252   8.848   7.517 -0.7929  0.0236 -0.7595
  108MOL0     C14492   1.338   8.914   7.600 -0.2117 -0.1043  0.7126
  108MOL0     O14493   1.347   8.892   7.959  0.5536  0.7455 -0.8928
  108MOL0     C14494   1.646   9.085   7.956  0.1005 -0.3043 -0.2981
  108MOL0     C14495   1.752   9.134   8.033 -0.4399 -0.0063 -0.1454
  108MOL0     N14496   1.896   9.616   8.694 -0.3874 -0.4158  0.1565
  108MOL0     N14497   1.893   9.609   8.818 -0.5810 -0.0191 -0.5165
  108MOL0     C14498   1.061   9.953   9.599  0.2614  0.2543  0.1743
  108MOL0     C14499   0.945  10.021   9.643 -0.4594  0.4460  0.3504
  108MOL0     C14500   0.492  10.163   9.649  0.9958 -0.0718 -1.3756
  108MOL0     C14501   0.355  10.130   9.662  0.3122  1.1723 -0.6082
  108MOL0     C14502   0.267  10.230   9.706  0.2622 -0.2852 -0.0379
  108MOL0     C14503   0.306  10.366   9.715  0.5099 -0.2765  0.5090
  108MOL0     O14504   0.210  10.454   9.741  0.6231  0.0057  0.2637
  108MOL0     C14505   0.239  10.597   9.758 -0.2731  0.7198 -0.1685
  108MOL0     C14506   0.246  10.615   9.908 -0.4193  0.6991  0.4968
  108MOL0     C14507   0.249  10.756   9.961  0.0944 -0.3332 -0.0139
  108MOL0     C14508   0.255  10.776  10.111 -0.3751  0.7469  0.1066
  108MOL0     C14509   0.230  10.916  10.148  0.7208  0.2724 -0.2834
  108MOL0     C14510   0.205  11.029  10.190 -0.4850 -0.8566  0.4680
  108MOL0     C14511   0.443  10.398   9.693 -0.3134  0.4538  0.2108
  108MOL0     C14512   0.534  10.298   9.658 -0.7102 -0.3376  0.2605
  108MOL0     H14513   0.723   9.894   9.426 -0.9650  0.2246  0.2713
  108MOL0     H14514   0.933   9.754   9.351 -0.0982  1.3488 -1.4064
  108MOL0     H14515   1.142   9.832   9.278 -1.5777 -0.1859  0.8135
  108MOL0     H14516   1.302   9.775   9.325 -0.7338  0.0088  1.4183
  108MOL0     H14517   1.216   9.545   9.348  2.0061 -1.1185 -3.1684
  108MOL0     H14518   1.066   9.603   9.277 -1.1263  3.0256  4.6443
  108MOL0     H14519   1.189   9.523   9.092 -2.7578  1.7982 -0.0724
  108MOL0     H14520   1.200   9.696   9.084  1.4112 -0.8990 -1.8338
  108MOL0     H14521   1.440   9.691   9.189  3.5637 -1.9487  0.0081
  108MOL0     H14522   1.422   9.516   9.198 -0.8976  0.4327  2.7542
  108MOL0     H14523   1.411   9.504   8.942  0.0366 -1.0088  2.8315
  108MOL0     H14524   1.404   9.680   8.939 -1.0462  3.4632  4.2605
  108MOL0     H14525   1.617   9.626   8.876  1.5613 -1.5637 -0.8386
  108MOL0     H14526   1.644   9.676   9.038  2.5845  1.4159 -3.5381
  108MOL0     H14527   1.629   9.415   9.106 -2.1752 -1.1137 -1.5052
  108MOL0     H14528   1.609   9.387   8.935  0.3593  2.8991 -2.6429
  108MOL0     H14529   1.850   9.350   9.026  2.0833 -0.0544 -1.0474
  108MOL0     H14530   1.861   9.519   9.054  1.4307 -0.6441 -0.1292
  108MOL0     H14531   1.796   9.312   8.743  0.7845 -1.0212  0.2032
  108MOL0     H14532   1.722   9.455   8.476  1.0818  0.1826 -1.7869
  108MOL0     H14533   1.856   9.568   8.448 -0.3931  0.7367  1.6140
  108MOL0     H14534   1.881   9.259   8.481 -0.6387 -1.3522 -4.3692
  108MOL0     H14535   2.016   9.374   8.466 -0.1422 -0.0878 -0.1759
  108MOL0     H14536   1.952   9.455   8.259 -0.7235 -0.7394 -2.3188
  108MOL0     H14537   1.803   9.372   8.249  0.1410  0.9550 -1.7461
  108MOL0     H14538   2.071   9.234   8.264 -0.0389  0.8891 -3.4664
  108MOL0     H14539   1.986   9.271   8.119  0.2085  2.9868 -0.1015
  108MOL0     H14540   1.691   8.985   8.324  4.0568  1.3501 -0.1969
  108MOL0     H14541   1.512   8.836   8.320 -1.0301  1.0111  0.4929
  108MOL0     H14542   1.393   8.867   8.197  0.4978  3.2674 -2.0483
  108MOL0     H14543   1.517   8.742   8.170  0.4618  0.2097  1.7787
  108MOL0     H14544   1.413   8.675   7.815 -1.1232  1.1945  2.0763
  108MOL0     H14545   1.236   8.548   7.678  0.6849  0.4559  4.0529
  108MOL0     H14546   1.223   8.678   7.288  1.8748  0.1514  1.6267
  108MOL0     H14547   1.261   8.513   7.356 -0.9967 -0.4022  2.4668
  108MOL0     H14548   1.014   8.612   7.213  3.9685  2.7198 -2.2010
  108MOL0     H14549   1.123   8.482   7.169  1.9301  1.4543  1.0999
  108MOL0     H14550   0.930   8.466   7.404 -0.3633  4.8899 -2.5206
  108MOL0     H14551   1.067   8.367   7.401 -0.2979  1.1060  1.5091
  108MOL0     H14552   0.883   8.359   7.148 -1.9038 -2.8110 -0.2385
  108MOL0     H14553   1.003   8.247   7.208  0.3213 -0.6727  1.4400
  108MOL0     H14554   0.748   8.187   7.240 -0.5628  1.5518 -1.1840
  108MOL0     H14555   0.741   8.317   7.350 -2.1455 -2.1741 -0.2874
  108MOL0     H14556   0.926   8.203   7.492 -0.2617  1.3804 -0.9712
  108MOL0     H14557   0.768   8.124   7.478 -1.0316  0.9271  0.5834
  108MOL0     H14558   0.929   8.018   7.269  2.1798 -0.1102 -0.9751
  108MOL0     H14559   0.853   7.928   7.397  0.2948  1.3214  1.0100
  108MOL0     H14560   1.121   8.061   7.421 -0.0132  0.2561  1.9918
  108MOL0     H14561   1.091   7.892   7.386  0.6183 -0.3018 -1.0139
  108MOL0     H14562   1.200   8.897   7.435 -2.5195 -1.1660 -0.4299
  108MOL0     H14563   1.354   9.020   7.581  4.3596 -0.4727  1.5260
  108MOL0     H14564   1.637   9.124   7.855 -2.7591 -1.1044 -0.4482
  108MOL0     H14565   1.830   9.196   7.990 -0.1484  0.3435  0.8372
  108MOL0     H14566   1.149   9.974   9.660  0.7793 -0.8446 -0.1611
  108MOL0     H14567   0.971  10.099   9.714  2.4095 -0.2755  0.1806
  108MOL0     H14568   0.313  10.032   9.642 -0.2386  1.4586 -0.8854
  108MOL0     H14569   0.163  10.216   9.731 -0.0958  2.2490  0.1880
  108MOL0     H14570   0.333  10.627   9.711 -0.5540  1.2145 -0.4189
  108MOL0     H14571   0.150  10.656   9.735 -1.0034  0.1447  1.0700
  108MOL0     H14572   0.330  10.555   9.945 -0.0790  1.4948  1.0557
  108MOL0     H14573   0.150  10.580   9.946 -0.4247  0.0688 -0.0857
  108MOL0     H14574   0.158  10.805   9.925 -0.1756 -1.0064 -0.2527
  108MOL0     H14575   0.326  10.808   9.903 -0.5781  2.3540  1.3227
  108MOL0     H14576   0.348  10.748  10.162 -0.3607  0.4096 -0.1025
  108MOL0     H14577   0.172  10.717  10.152  1.2624 -0.5316  1.7290
  108MOL0     H14578   0.176  11.129  10.215  4.8896  0.8860  1.0646
  108MOL0     H14579   0.480  10.498   9.709  2.5922 -0.7405  1.8866
  108MOL0     H14580   0.638  10.325   9.642  0.2453 -0.9210  4.5471
  109MOL0     O14581   5.235   1.189  10.435  0.0146 -0.6500 -0.9699
  109MOL0     C14582   5.294   1.096  10.497  0.1864  0.4982  0.0094
  109MOL0     O14583   5.350   1.105  10.622 -0.4018  0.3416 -0.1500
  109MOL0     C14584   5.373   1.220  10.690  1.4778 -0.4401 -0.9381
  109MOL0     C14585   5.456   1.218  10.800  0.1433 -0.5191  0.2965
  109MOL0     C14586   5.486   1.331  10.877  1.0587  0.7943 -1.0757
  109MOL0     C14587   5.428   1.451  10.843 -0.1596 -0.4726  0.7935
  109MOL0     O14588   5.466   1.573  10.904  1.4336 -0.0375 -0.0635
  109MOL0     C14589   5.505   1.565  11.038  0.1109  0.7343  0.4516
  109MOL0     C14590   5.502   1.706  11.093  0.5740 -0.6584  0.2786
  109MOL0     C14591   5.356   1.768  11.111  0.5630 -0.3545  0.2029
  109MOL0     C14592   5.366   1.921  11.130 -0.7645  0.2489  0.5860
  109MOL0     C14593   5.230   1.979  11.167  0.3093 -0.4304  0.0175
  109MOL0     C14594   5.213   2.131  11.122  0.4907  1.1719  0.7969
  109MOL0     C14595   5.059   2.156  11.120  0.0985 -1.3370  0.1262
  109MOL0     C14596   5.006   2.298  11.115 -0.2639  0.8775  0.5414
  109MOL0     N14597   5.054   2.369  10.996 -0.1341  0.6681  0.5824
  109MOL0     C14598   5.180   2.417  10.977  0.2661  0.4770 -0.7213
  109MOL0     C14599   5.175   2.471  10.852  0.1532 -1.0676 -0.9511
  109MOL0     C14600   5.292   2.543  10.791  0.6412  0.5711 -0.3307
  109MOL0     C14601   5.327   2.484  10.654  0.1481  0.2679 -0.8329
  109MOL0     C14602   5.425   2.371  10.653 -0.7605  0.0426 -0.3136
  109MOL0     C14603   5.434   2.298  10.524 -0.0691  0.5854 -0.6902
  109MOL0     O14604   5.549   2.331  10.452 -0.3285 -0.0727  0.3174
  109MOL0     C14605   5.594   2.233  10.369 -0.2891 -0.6818  0.0649
  109MOL0     C14606   5.690   2.139  10.404 -0.9708 -0.7526 -0.6560
  109MOL0     C14607   5.748   2.058  10.312 -0.6369 -0.2117 -0.3274
  109MOL0     C14608   5.849   1.960  10.365  0.2874 -0.3537  0.9474
  109MOL0     C14609   5.724   2.073  10.172 -0.4253 -0.6143  0.6499
  109MOL0     C14610   5.811   2.017  10.068 -0.0617 -0.2231  0.2307
  109MOL0     O14611   5.839   2.089   9.954  0.5308 -0.2867 -0.0152
  109MOL0     C14612   5.964   2.083   9.898  0.6374 -0.1581  0.5222
  109MOL0     C14613   5.965   2.127   9.769 -0.2600  0.0342 -0.2534
  109MOL0     C14614   6.085   2.127   9.699  0.4354  0.0046  0.4865
  109MOL0     C14615   6.205   2.092   9.752 -0.0443  0.1533 -0.3781
  109MOL0     O14616   6.321   2.100   9.688  0.1573  0.2512 -0.8396
  109MOL0     C14617   6.326   2.099   9.546  1.3739 -0.6746  0.4548
  109MOL0     C14618   6.469   2.053   9.514  0.7716 -0.1941 -0.8993
  109MOL0     C14619   6.501   1.978   9.384 -0.7327 -0.3965 -0.8901
  109MOL0     C14620   6.510   2.062   9.264  0.4667  0.0257  0.1025
  109MOL0     C14621   6.638   2.145   9.267 -0.0892  1.2865 -0.4823
  109MOL0     C14622   6.634   2.232   9.137 -0.2646 -0.3096 -0.5293
  109MOL0     C14623   6.777   2.294   9.124 -0.7552  0.1072 -0.8849
  109MOL0     C14624   6.777   2.392   9.009  0.1014 -0.8513  0.7934
  109MOL0    Cl14625   6.759   2.292   8.863  0.3005 -0.1859 -0.1236
  109MOL0     C14626   6.206   2.048   9.886 -0.0387  0.1991 -0.2736
  109MOL0     C14627   6.087   2.047   9.954 -1.0348 -0.0411  0.1874
  109MOL0     O14628   5.820   1.895  10.073  0.2176  0.0445 -0.5046
  109MOL0     C14629   5.633   2.177  10.133  0.6314  0.2732  0.4461
  109MOL0     C14630   5.569   2.251  10.234  0.2624  0.8086  0.4068
  109MOL0     N14631   5.046   2.450  10.803  0.4124  0.4556 -0.3735
  109MOL0     N14632   4.973   2.394  10.888  0.6455  0.2914  1.1617
  109MOL0     C14633   5.340   1.458  10.736  0.7396  0.7415  0.1898
  109MOL0     C14634   5.308   1.344  10.670  0.2928  0.3784 -0.1224
  109MOL0     C14635   5.271   0.958  10.437  0.2089 -0.0072 -0.5574
  109MOL0     C14636   5.175   0.941  10.338  0.3298  0.4263  0.1210
  109MOL0     C14637   5.141   0.820  10.280 -0.1907  0.3565 -0.1101
  109MOL0     C14638   5.206   0.706  10.336  0.0673 -0.0128  0.6568
  109MOL0     O14639   5.193   0.580  10.294 -0.2509  0.0730  0.7650
  109MOL0     C14640   5.110   0.543  10.186 -0.6765  0.5328 -0.0901
  109MOL0     C14641   5.122   0.392  10.176  0.2538  0.1660  0.1553
  109MOL0     C14642   5.029   0.353  10.056 -0.1213  0.4840  0.1303
  109MOL0     C14643   4.985   0.203  10.039 -0.0360  0.5519  0.1897
  109MOL0     C14644   5.063   0.104  10.114 -0.3806 -0.5818 -0.0782
  109MOL0     C14645   5.131   0.028  10.176 -0.0157 -0.8463 -0.4780
  109MOL0     C14646   5.299   0.721  10.448  0.1105  0.9304  0.6593
  109MOL0     C14647   5.331   0.851  10.495  0.0017 -0.7663 -0.6519
  109MOL0     H14648   5.503   1.123  10.824  2.2171 -0.2778 -2.3020
  109MOL0     H14649   5.548   1.327  10.966 -0.9206  2.8512  0.5031
  109MOL0     H14650   5.445   1.501  11.104  0.6250 -0.4053 -0.1653
  109MOL0     H14651   5.609   1.534  11.036 -0.0967  0.0490 -0.2054
  109MOL0     H14652   5.537   1.699  11.196 -1.8751 -0.3052  1.2091
  109MOL0     H14653   5.564   1.766  11.026  0.2832 -2.7335 -2.0195
  109MOL0     H14654   5.290   1.744  11.028 -0.0619  2.4562 -0.2317
  109MOL0     H14655   5.313   1.713  11.196  1.4126 -3.4384 -1.2173
  109MOL0     H14656   5.433   1.935  11.215 -1.5378 -0.7638  1.3924
  109MOL0     H14657   5.412   1.949  11.034 -0.8637 -1.5200 -0.0119
  109MOL0     H14658   5.151   1.926  11.112  0.4509  1.9596 -2.7022
  109MOL0     H14659   5.202   1.984  11.273 -3.7930  0.6968 -0.9434
  109MOL0     H14660   5.267   2.194  11.193  4.2173 -1.1709  0.3035
  109MOL0     H14661   5.264   2.147  11.027  2.9173  1.4087  2.0554
  109MOL0     H14662   5.009   2.101  11.040  2.0135  1.0983 -2.9595
  109MOL0     H14663   5.015   2.113  11.211 -4.5286  0.0230 -1.1774
  109MOL0     H14664   5.027   2.352  11.208 -1.5834  1.5502  0.4719
  109MOL0     H14665   4.898   2.289  11.103  0.0789 -1.0477 -2.0090
  109MOL0     H14666   5.259   2.411  11.052 -2.5176 -0.3098  2.3880
  109MOL0     H14667   5.273   2.650  10.779 -0.4492  0.6288  1.4714
  109MOL0     H14668   5.374   2.537  10.863  0.2023 -1.6747  0.0869
  109MOL0     H14669   5.374   2.568  10.602 -2.1860  1.5967 -0.9438
  109MOL0     H14670   5.243   2.447  10.594  2.7911 -1.0551 -4.0729
  109MOL0     H14671   5.404   2.300  10.734  2.0769 -1.4375 -0.7340
  109MOL0     H14672   5.526   2.414  10.657  0.3317 -1.9183 -3.0908
  109MOL0     H14673   5.348   2.315  10.459  0.9172  1.5298 -1.7898
  109MOL0     H14674   5.435   2.191  10.547 -2.3519  0.2357 -1.9620
  109MOL0     H14675   5.708   2.144  10.511 -2.8513 -2.9006 -0.1464
  109MOL0     H14676   5.833   1.865  10.313 -0.8556  0.3856 -0.1085
  109MOL0     H14677   5.948   1.996  10.336  0.5136  0.1740  2.2938
  109MOL0     H14678   5.853   1.947  10.474  2.4517 -3.2818  0.6524
  109MOL0     H14679   5.881   2.173   9.717 -1.3080 -1.8553 -0.3169
  109MOL0     H14680   6.076   2.181   9.606 -2.1942  2.0269  1.8046
  109MOL0     H14681   6.251   2.028   9.511 -1.6735  0.6463  3.7214
  109MOL0     H14682   6.299   2.196   9.503  0.3819 -0.0322  2.4331
  109MOL0     H14683   6.524   2.148   9.517  0.6719 -0.1646  1.3603
  109MOL0     H14684   6.497   1.977   9.588  2.0078  2.3079  1.3826
  109MOL0     H14685   6.416   1.911   9.368 -0.7816  0.1563 -3.3381
  109MOL0     H14686   6.593   1.924   9.409  0.7463  2.2016 -0.3269
  109MOL0     H14687   6.503   1.996   9.177 -2.6712 -1.5485  1.4124
  109MOL0     H14688   6.427   2.132   9.279  0.6571  0.2980 -0.0978
  109MOL0     H14689   6.723   2.076   9.265 -1.6739 -0.8737 -4.5600
  109MOL0     H14690   6.647   2.205   9.358 -1.2162 -1.3605  1.5494
  109MOL0     H14691   6.620   2.167   9.051  0.6494  0.5822 -1.3771
  109MOL0     H14692   6.559   2.310   9.148 -1.2388 -0.5835 -4.2033
  109MOL0     H14693   6.849   2.213   9.116 -1.5973 -0.9228  1.1618
  109MOL0     H14694   6.794   2.362   9.208 -1.9380 -0.2803 -0.3078
  109MOL0     H14695   6.870   2.449   9.015 -0.4806  0.2104  0.0749
  109MOL0     H14696   6.693   2.463   9.005  1.3030  0.7215  2.0818
  109MOL0     H14697   6.301   2.008   9.920 -0.7154 -2.1742 -0.9415
  109MOL0     H14698   6.087   2.009  10.056 -1.3573  0.5693  0.4169
  109MOL0     H14699   5.615   2.207  10.030 -0.8979 -1.0415  0.2762
  109MOL0     H14700   5.489   2.315  10.200  0.1704  0.4031 -0.1533
  109MOL0     H14701   5.309   1.560  10.714  2.3715  1.3995  0.7072
  109MOL0     H14702   5.225   1.337  10.600  0.9971 -2.8376 -0.8041
  109MOL0     H14703   5.131   1.021  10.280 -3.6401  0.9754  3.3992
  109MOL0     H14704   5.090   0.807  10.184  0.1773  0.4374 -0.3179
  109MOL0     H14705   5.013   0.579  10.222  0.3518  1.5682  1.8475
  109MOL0     H14706   5.137   0.592  10.092 -0.0880  2.2598  0.9275
  109MOL0     H14707   5.092   0.329  10.260 -3.3901  0.1843 -0.9675
  109MOL0     H14708   5.223   0.365  10.144 -0.0673 -1.3286  0.3452
  109MOL0     H14709   5.091   0.383   9.971  1.2405 -1.8117  0.2306
  109MOL0     H14710   4.941   0.417  10.060 -0.5119 -0.0994  1.1776
  109MOL0     H14711   5.007   0.177   9.935  2.0147  1.6141  0.3121
  109MOL0     H14712   4.881   0.178  10.060 -0.1011 -1.2418 -1.8868
  109MOL0     H14713   5.194  -0.038  10.233 -0.1700  2.1988  3.6189
  109MOL0     H14714   5.339   0.627  10.484 -1.1974  0.3301  0.6026
  109MOL0     H14715   5.399   0.865  10.579  1.9641  2.1042 -2.5264
  110MOL0     O14716   9.228  11.239   9.085  0.0132  0.2591  0.1040
  110MOL0     C14717   9.305  11.335   9.091 -0.7433 -0.0858  0.1658
  110MOL0     O14718   9.389  11.354   9.192  0.2923 -0.4288  0.7216
  110MOL0     C14719   9.358  11.295   9.310  0.1081  0.8264  0.5888
  110MOL0     C14720   9.322  11.370   9.420 -0.3890  0.2016  0.3041
  110MOL0     C14721   9.291  11.319   9.544  0.5687 -0.4410 -0.5383
  110MOL0     C14722   9.323  11.192   9.580 -0.5417 -0.1084 -0.5698
  110MOL0     O14723   9.315  11.156   9.714  0.0693  0.9891 -0.0608
  110MOL0     C14724   9.380  11.036   9.756  0.0535 -0.4311  0.5274
  110MOL0     C14725   9.532  11.046   9.765  0.5138 -0.3740  0.3509
  110MOL0     C14726   9.591  10.906   9.786  0.2329  0.3386  0.5649
  110MOL0     C14727   9.597  10.827   9.653  0.0400  0.3532  0.4368
  110MOL0     C14728   9.616  10.674   9.680  0.8143  0.1200 -0.5569
  110MOL0     C14729   9.750  10.636   9.762 -0.0769  0.8376  0.6571
  110MOL0     C14730   9.770  10.481   9.766 -0.3656  0.0463  0.3237
  110MOL0     C14731   9.912  10.459   9.813  0.3304 -0.2374 -0.1860
  110MOL0     N14732   9.949  10.310   9.814  0.1515  1.4498 -0.6155
  110MOL0     C14733  10.009  10.244   9.711  0.2050 -0.3275  0.1230
  110MOL0     C14734  10.044  10.127   9.760 -0.7293  0.3110 -0.0949
  110MOL0     C14735  10.116  10.016   9.687 -0.2286 -0.7210 -0.0603
  110MOL0     C14736  10.120   9.882   9.770  0.1564 -0.3505 -0.1301
  110MOL0     C14737  10.154   9.764   9.685 -1.1666  0.4909  0.4403
  110MOL0     C14738  10.130   9.635   9.746  0.8628  0.1956  0.4782
  110MOL0     O14739  10.204   9.613   9.868  0.8915  0.1376 -0.0017
  110MOL0     C14740  10.194   9.488   9.931  0.4817 -0.5835 -0.7422
  110MOL0     C14741  10.084   9.397   9.910  0.1769 -0.6374  0.2179
  110MOL0     C14742  10.060   9.298   9.990  0.0731 -0.5460  0.0314
  110MOL0     C14743   9.928   9.224   9.964  0.3499  0.4633  0.1047
  110MOL0     C14744  10.149   9.265  10.096  1.0744 -0.1106  0.0223
  110MOL0     C14745  10.126   9.156  10.186  0.1444 -0.5919 -0.4955
  110MOL0     O14746  10.074   9.035  10.143  0.1166 -0.8566 -0.5208
  110MOL0     C14747  10.090   8.924  10.227  0.0727 -0.3898  0.2983
  110MOL0     C14748  10.003   8.818  10.186 -0.3365  0.0232 -0.2535
  110MOL0     C14749   9.999   8.692  10.256 -1.4554  0.1756 -0.8526
  110MOL0     C14750  10.093   8.673  10.362  0.4440 -0.1776  0.5168
  110MOL0     O14751  10.104   8.581  10.458  0.3803  0.5828 -0.2072
  110MOL0     C14752  10.023   8.456  10.446 -1.0834  0.3470  0.4708
  110MOL0     C14753  10.027   8.380  10.318 -0.1945 -0.4317  1.0782
  110MOL0     C14754   9.994   8.232  10.337  0.0062 -0.8498  0.5080
  110MOL0     C14755   9.842   8.222  10.357 -0.2288 -0.1114  0.7387
  110MOL0     C14756   9.783   8.087  10.355 -0.9080  0.3246 -0.2467
  110MOL0     C14757   9.827   8.001  10.464  0.1911  0.8231  0.2879
  110MOL0     C14758   9.748   7.862  10.457  0.1154  0.3580 -0.0109
  110MOL0     C14759   9.817   7.752  10.384  1.5734 -0.4443 -0.1039
  110MOL0    Cl14760   9.928   7.665  10.504  0.0298  0.3560  0.4791
  110MOL0     C14761  10.181   8.782  10.396  0.2887 -0.2641  0.3173
  110MOL0     C14762  10.177   8.905  10.330  0.1428  0.5791 -0.7484
  110MOL0     O14763  10.156   9.187  10.304  0.5291  0.4071  0.5580
  110MOL0     C14764  10.260   9.340  10.114 -0.9966 -0.6475 -0.1904
  110MOL0     C14765  10.284   9.454  10.032 -1.0971  0.4998 -1.1531
  110MOL0     N14766  10.004  10.126   9.895 -0.7992 -0.3087  0.0642
  110MOL0     N14767   9.958  10.242   9.924 -0.1567 -0.0949  0.1726
  110MOL0     C14768   9.359  11.109   9.464  0.6689 -0.4043 -0.1940
  110MOL0     C14769   9.367  11.155   9.328  0.1073  0.5400 -0.6531
  110MOL0     C14770   9.314  11.428   8.981 -0.1488  0.4110  0.5789
  110MOL0     C14771   9.210  11.444   8.887  0.1693  0.2081 -0.2168
  110MOL0     C14772   9.214  11.551   8.798  0.1726  0.4751 -0.6030
  110MOL0     C14773   9.315  11.649   8.796  0.9612 -1.0761 -0.1989
  110MOL0     O14774   9.308  11.767   8.725 -1.0335  0.2202  0.2573
  110MOL0     C14775   9.200  11.801   8.640  1.0310 -0.1458  0.2167
  110MOL0     C14776   9.155  11.956   8.662  0.1501  0.0791 -0.2423
  110MOL0     C14777   9.090  12.002   8.796 -0.2541  0.4707 -0.3453
  110MOL0     C14778   8.983  11.917   8.858 -0.8313  0.0033  0.2597
  110MOL0     C14779   8.869  11.941   8.769  0.0244  0.2935  0.6638
  110MOL0     C14780   8.784  11.939   8.682 -0.4521 -0.3462 -0.5988
  110MOL0     C14781   9.425  11.624   8.878  0.0353 -0.1262  0.7231
  110MOL0     C14782   9.423  11.518   8.964 -0.4970 -0.3530 -0.9206
  110MOL0     H14783   9.296  11.473   9.397 -2.3996 -0.6455 -1.5246
  110MOL0     H14784   9.253  11.388   9.619  2.8979  2.7447 -2.0576
  110MOL0     H14785   9.336  11.027   9.856 -0.0145  0.2088  0.5603
  110MOL0     H14786   9.346  10.953   9.693  1.2371 -0.4304 -0.1469
  110MOL0     H14787   9.577  11.078   9.671 -2.7023 -2.7766 -2.2201
  110MOL0     H14788   9.568  11.098   9.855  2.1207 -3.1893  1.4792
  110MOL0     H14789   9.695  10.909   9.819  0.6432  0.0147 -0.6770
  110MOL0     H14790   9.525  10.852   9.855  0.6188 -3.6412 -1.8824
  110MOL0     H14791   9.512  10.836   9.584  1.0217 -0.7452 -0.9787
  110MOL0     H14792   9.681  10.873   9.600  0.8127  1.5572  2.6183
  110MOL0     H14793   9.527  10.636   9.732  1.9386 -0.1591  1.2532
  110MOL0     H14794   9.618  10.636   9.578  0.9832 -0.2968 -0.3990
  110MOL0     H14795   9.834  10.681   9.709 -1.7741  1.2287 -1.8680
  110MOL0     H14796   9.753  10.660   9.868 -2.3069 -3.2881  1.9078
  110MOL0     H14797   9.699  10.431   9.832  0.1080 -0.1289  0.7050
  110MOL0     H14798   9.758  10.445   9.663 -1.8786  1.8412 -0.1842
  110MOL0     H14799   9.922  10.505   9.912 -0.0449  1.3272 -0.8395
  110MOL0     H14800   9.988  10.509   9.753 -0.9390  3.1918  0.8280
  110MOL0     H14801  10.016  10.289   9.613  1.2884  2.8985  1.5502
  110MOL0     H14802  10.068   9.997   9.590 -2.0230  2.0047  0.1858
  110MOL0     H14803  10.217  10.040   9.653  0.2791 -0.3433  1.6088
  110MOL0     H14804  10.023   9.864   9.817 -0.0545 -1.9973 -1.1306
  110MOL0     H14805  10.196   9.894   9.848 -0.6207  0.4720  0.5262
  110MOL0     H14806  10.259   9.754   9.656 -0.4574  0.8745  2.6535
  110MOL0     H14807  10.086   9.765   9.600  0.3094 -0.3687 -0.8036
  110MOL0     H14808  10.141   9.556   9.671  0.3011  1.1186 -0.6012
  110MOL0     H14809  10.026   9.642   9.779  1.0039  2.2974  0.6387
  110MOL0     H14810  10.012   9.400   9.829  2.5431 -3.1114 -2.1735
  110MOL0     H14811   9.891   9.169  10.052 -0.4969  0.3444 -0.3157
  110MOL0     H14812   9.844   9.280   9.923 -1.2224 -2.3425 -0.7342
  110MOL0     H14813   9.951   9.140   9.898 -1.1020  0.4757 -0.4345
  110MOL0     H14814   9.918   8.839  10.120  0.6250 -0.5050 -1.7261
  110MOL0     H14815   9.913   8.627  10.241 -2.1575  1.4882 -2.9391
  110MOL0     H14816  10.044   8.391  10.532 -0.6080 -1.1655 -0.7379
  110MOL0     H14817   9.918   8.485  10.454 -1.1859  0.2636 -0.5091
  110MOL0     H14818   9.959   8.430  10.248 -2.1737 -2.5111  1.3916
  110MOL0     H14819  10.127   8.383  10.273 -0.4052  3.0054  0.5941
  110MOL0     H14820  10.053   8.184  10.415 -1.2029 -0.0188  1.9884
  110MOL0     H14821  10.018   8.181  10.243  1.1173  1.4277 -0.5141
  110MOL0     H14822   9.805   8.269  10.448  1.7598 -1.5177  2.3578
  110MOL0     H14823   9.801   8.284  10.277 -0.8892  0.0752  1.2113
  110MOL0     H14824   9.811   8.028  10.267 -0.9760 -2.0344  1.2367
  110MOL0     H14825   9.674   8.087  10.348 -0.8887 -1.3202 -1.1426
  110MOL0     H14826   9.931   7.968  10.458 -0.9873 -3.0982 -2.4867
  110MOL0     H14827   9.809   8.042  10.564 -1.3364 -0.6955  0.6878
  110MOL0     H14828   9.644   7.868  10.423  0.2416 -3.8498 -1.8041
  110MOL0     H14829   9.734   7.829  10.560 -2.2211 -0.7072 -0.6054
  110MOL0     H14830   9.871   7.793  10.298  1.5223  1.3559  0.6710
  110MOL0     H14831   9.749   7.678  10.341  1.4501 -0.9735  0.9672
  110MOL0     H14832  10.238   8.765  10.486 -1.3051 -1.7440  1.1264
  110MOL0     H14833  10.240   8.984  10.369  0.6478 -1.0787  2.0711
  110MOL0     H14834  10.315   9.318  10.205 -5.6340  1.7929  3.6204
  110MOL0     H14835  10.381   9.501  10.041 -2.1034  2.5281 -0.2901
  110MOL0     H14836   9.374  11.002   9.471 -1.3679 -0.8598 -1.8254
  110MOL0     H14837   9.397  11.083   9.252 -2.8392  0.9249 -2.3488
  110MOL0     H14838   9.136  11.368   8.868 -1.8565  2.6859 -3.3333
  110MOL0     H14839   9.122  11.566   8.742 -2.7926  1.7326  4.0603
  110MOL0     H14840   9.242  11.788   8.540  3.1331  1.9119  0.7371
  110MOL0     H14841   9.111  11.739   8.653  0.9473  0.4848  3.6984
  110MOL0     H14842   9.090  11.982   8.578 -2.1014 -0.2743  1.3051
  110MOL0     H14843   9.248  12.011   8.645 -0.5746  0.9178 -1.7438
  110MOL0     H14844   9.054  12.105   8.787  0.9194  0.8970 -0.3075
  110MOL0     H14845   9.171  12.000   8.869 -2.9496 -1.1175  2.8953
  110MOL0     H14846   8.949  11.959   8.953 -0.2696 -0.6171  0.7431
  110MOL0     H14847   9.011  11.811   8.863 -0.0287  0.2370  5.2141
  110MOL0     H14848   8.710  11.934   8.605 -3.3152  3.2615  1.6167
  110MOL0     H14849   9.503  11.699   8.877 -1.2612  1.2775  0.4876
  110MOL0     H14850   9.515  11.524   9.020  0.7064 -1.1183 -2.7196
  111MOL0     O14851   2.171   2.725   0.871 -0.1032  0.4558  0.0932
  111MOL0     C14852   2.118   2.615   0.878  0.2159  0.1431  0.1478
  111MOL0     O14853   2.053   2.550   0.777 -0.6937  0.3578 -0.4674
  111MOL0     C14854   2.062   2.579   0.650 -0.5945  0.1454  0.5622
  111MOL0     C14855   2.119   2.696   0.588 -0.3185 -0.1392 -0.0687
  111MOL0     C14856   2.104   2.710   0.444  0.3839  0.4130 -0.2780
  111MOL0     C14857   2.017   2.620   0.372 -0.1959 -0.0972 -0.1322
  111MOL0     O14858   1.980   2.642   0.240 -0.3846 -0.4346 -0.2294
  111MOL0     C14859   2.055   2.736   0.170  1.0733  0.4612  0.4566
  111MOL0     C14860   2.006   2.735   0.022 -0.4362  0.1977  0.7077
  111MOL0     C14861   2.080   2.837  -0.069  0.0949  0.9644 -0.2818
  111MOL0     C14862   2.213   2.790  -0.121 -0.1374 -0.8460  1.0650
  111MOL0     C14863   2.288   2.886  -0.216 -0.5927 -0.2084 -0.9698
  111MOL0     C14864   2.340   2.997  -0.122 -0.0702 -0.2368 -0.4675
  111MOL0     C14865   2.418   3.096  -0.213 -0.1133 -0.3645  0.7316
  111MOL0     C14866   2.481   3.214  -0.137 -1.2331  0.0117 -0.7840
  111MOL0     N14867   2.576   3.304  -0.210 -1.0351 -0.1454 -0.2240
  111MOL0     C14868   2.608   3.303  -0.334 -0.3633 -0.5564 -0.2610
  111MOL0     C14869   2.674   3.419  -0.348 -0.6666  0.1795 -1.2014
  111MOL0     C14870   2.747   3.461  -0.467 -0.4661 -1.0147  0.7658
  111MOL0     C14871   2.885   3.511  -0.428  0.8019  0.6083 -0.2206
  111MOL0     C14872   2.978   3.526  -0.552 -0.4127  0.1719 -0.8388
  111MOL0     C14873   2.987   3.418  -0.654 -0.6444  0.1727 -0.2045
  111MOL0     O14874   2.865   3.422  -0.737  0.3117  1.0193 -0.0004
  111MOL0     C14875   2.811   3.302  -0.773  0.6792 -0.1670  0.5644
  111MOL0     C14876   2.897   3.189  -0.797  0.3521  0.0264 -0.5210
  111MOL0     C14877   2.840   3.064  -0.829 -0.1871 -0.5863  0.9244
  111MOL0     C14878   2.923   2.933  -0.833 -0.1593  0.4403  0.4855
  111MOL0     C14879   2.700   3.056  -0.847 -0.2729  0.3413  0.9854
  111MOL0     C14880   2.624   2.932  -0.892  0.0209 -0.6260  1.0915
  111MOL0     O14881   2.600   2.823  -0.815 -0.3974 -0.1873 -0.1338
  111MOL0     C14882   2.545   2.702  -0.871 -0.3067  0.0451  0.2506
  111MOL0     C14883   2.406   2.673  -0.873 -0.6323 -0.0929 -0.8116
  111MOL0     C14884   2.361   2.554  -0.925  0.6858 -0.6876  0.1953
  111MOL0     C14885   2.446   2.452  -0.974 -0.4109 -0.4970 -0.7450
  111MOL0     O14886   2.390   2.341  -1.016 -0.0538  0.4526  0.7161
  111MOL0     C14887   2.466   2.230  -1.055  0.5122 -0.1859 -0.2369
  111MOL0     C14888   2.378   2.109  -1.087  0.3408  0.9106  0.3922
  111MOL0     C14889   2.273   2.133  -1.195 -0.1116 -0.1290  0.4611
  111MOL0     C14890   2.207   2.011  -1.249  0.2031 -1.0092  0.5708
  111MOL0     C14891   2.087   1.973  -1.177 -0.8418 -0.2018 -0.1276
  111MOL0     C14892   1.989   1.903  -1.262  0.3335 -0.6319 -0.0711
  111MOL0     C14893   1.876   1.850  -1.178  0.1222 -1.2627  1.1040
  111MOL0     C14894   1.735   1.883  -1.224  0.1180  0.6442  0.3086
  111MOL0    Cl14895   1.731   1.768  -1.366  0.0182 -0.3539 -0.0234
  111MOL0     C14896   2.577   2.480  -0.966  0.2281 -0.4110  0.4298
  111MOL0     C14897   2.622   2.606  -0.927 -0.0747  0.3895  0.5899
  111MOL0     O14898   2.586   2.946  -1.010  0.1907 -0.4341 -0.7631
  111MOL0     C14899   2.624   3.169  -0.813 -0.0754  0.2442  0.0890
  111MOL0     C14900   2.676   3.294  -0.780  0.5989  0.5763  0.5915
  111MOL0     N14901   2.665   3.500  -0.233  0.0346  0.1183 -0.0311
  111MOL0     N14902   2.604   3.420  -0.159 -0.8549 -0.3272  0.1095
  111MOL0     C14903   1.967   2.503   0.432 -0.4842  0.0867 -0.3695
  111MOL0     C14904   1.985   2.485   0.572 -0.2667 -1.2417 -0.2343
  111MOL0     C14905   2.122   2.536   1.003 -0.2171  0.1828  0.2953
  111MOL0     C14906   2.223   2.571   1.096  0.4023  0.8851 -0.1843
  111MOL0     C14907   2.234   2.499   1.214  0.2176 -0.1164  1.0443
  111MOL0     C14908   2.156   2.384   1.234 -0.8162  0.1131 -1.0291
  111MOL0     O14909   2.164   2.308   1.353 -1.0099  0.5244  0.1780
  111MOL0     C14910   2.075   2.198   1.384  0.2735 -0.0096 -0.7024
  111MOL0     C14911   2.132   2.109   1.498 -1.1452 -0.0818  0.1814
  111MOL0     C14912   2.170   2.197   1.617  0.2397  0.8336 -0.5534
  111MOL0     C14913   2.203   2.118   1.755  0.0087  0.4583 -0.1552
  111MOL0     C14914   2.225   2.200   1.869 -0.1714  0.3038 -0.3730
  111MOL0     C14915   2.236   2.256   1.975  0.4869  1.3210 -0.8771
  111MOL0     C14916   2.064   2.343   1.137 -0.7376 -0.0862  0.0483
  111MOL0     C14917   2.052   2.414   1.025 -0.2450 -0.5159  0.2306
  111MOL0     H14918   2.190   2.759   0.640 -2.0005  3.6551 -1.9490
  111MOL0     H14919   2.119   2.808   0.400 -1.3605  2.5219  3.3685
  111MOL0     H14920   2.047   2.839   0.203  0.6653  0.9515 -1.0819
  111MOL0     H14921   2.156   2.693   0.180  0.5958 -1.1160 -1.0309
  111MOL0     H14922   2.025   2.638  -0.025 -0.5193  0.3425  0.3694
  111MOL0     H14923   1.898   2.751   0.026 -0.2610  1.0856  2.6681
  111MOL0     H14924   2.018   2.870  -0.153 -3.1327 -0.9731  1.1628
  111MOL0     H14925   2.108   2.925  -0.010 -1.7130  1.8432 -0.6379
  111MOL0     H14926   2.269   2.757  -0.033 -1.9091 -2.4765  1.6645
  111MOL0     H14927   2.210   2.709  -0.195 -2.3788  1.3467 -1.4825
  111MOL0     H14928   2.374   2.829  -0.251 -1.3517 -1.0846 -1.4346
  111MOL0     H14929   2.229   2.914  -0.303 -2.0141 -1.2516 -0.3947
  111MOL0     H14930   2.261   3.059  -0.079  0.6530  0.4087 -0.0336
  111MOL0     H14931   2.407   2.970  -0.039 -0.8121  1.4381  0.7305
  111MOL0     H14932   2.495   3.039  -0.265 -3.1038 -2.2746 -2.0089
  111MOL0     H14933   2.342   3.142  -0.277  0.5361  1.7936  1.4214
  111MOL0     H14934   2.536   3.182  -0.048 -1.1145 -0.2047 -0.9355
  111MOL0     H14935   2.392   3.266  -0.098 -4.1510 -4.6662 -0.4243
  111MOL0     H14936   2.598   3.228  -0.412 -2.2664 -1.2388  0.5716
  111MOL0     H14937   2.753   3.374  -0.534 -0.8822  0.8378 -1.7968
  111MOL0     H14938   2.698   3.546  -0.514 -1.1702 -0.4722  2.3791
  111MOL0     H14939   2.929   3.426  -0.375  0.8324 -0.9049 -2.5601
  111MOL0     H14940   2.880   3.609  -0.379 -2.3810  0.8611 -0.8563
  111MOL0     H14941   3.079   3.548  -0.516 -0.1548  1.4149 -2.2095
  111MOL0     H14942   2.957   3.619  -0.607 -2.7815 -0.0721 -0.4511
  111MOL0     H14943   3.009   3.319  -0.615 -0.3018  1.3831  2.9981
  111MOL0     H14944   3.076   3.451  -0.708 -1.8765  3.7196 -0.3435
  111MOL0     H14945   3.003   3.204  -0.780 -0.4073  3.2528  2.4447
  111MOL0     H14946   3.013   2.971  -0.784 -0.3975  0.9190  0.5544
  111MOL0     H14947   2.879   2.849  -0.778 -3.2091 -0.0072 -2.3003
  111MOL0     H14948   2.946   2.902  -0.935  0.7832  0.5163  0.6727
  111MOL0     H14949   2.341   2.743  -0.821  0.2913 -0.1909  0.5271
  111MOL0     H14950   2.255   2.532  -0.924  0.5741 -0.1511  0.8372
  111MOL0     H14951   2.525   2.266  -1.140  2.5075  1.7988  1.8493
  111MOL0     H14952   2.537   2.205  -0.977 -0.1286  0.9283  0.7378
  111MOL0     H14953   2.447   2.035  -1.129 -0.8705  0.2955 -0.5900
  111MOL0     H14954   2.338   2.062  -0.997  4.4777 -1.5105  1.2238
  111MOL0     H14955   2.333   2.172  -1.278  0.7474 -2.0869  0.1027
  111MOL0     H14956   2.207   2.217  -1.171  1.8788  1.1230  1.8592
  111MOL0     H14957   2.182   2.043  -1.351 -0.8760 -0.1926  1.0727
  111MOL0     H14958   2.283   1.932  -1.252  3.1108  1.5209  1.9404
  111MOL0     H14959   2.028   2.062  -1.151 -1.8950 -0.2128 -2.2504
  111MOL0     H14960   2.115   1.935  -1.078  3.2918  1.6472 -0.3859
  111MOL0     H14961   1.951   1.976  -1.335  2.2732 -0.4471 -0.9585
  111MOL0     H14962   2.040   1.813  -1.297  3.6974 -0.0945  2.8392
  111MOL0     H14963   1.876   1.902  -1.082 -0.2350  0.5087  0.1862
  111MOL0     H14964   1.891   1.743  -1.163 -0.0629 -1.5943 -0.7739
  111MOL0     H14965   1.725   1.986  -1.259 -0.8966  0.2394 -0.6502
  111MOL0     H14966   1.656   1.854  -1.154  0.6678 -2.3628 -0.1620
  111MOL0     H14967   2.653   2.411  -1.001  0.6590 -0.1880  0.9026
  111MOL0     H14968   2.727   2.616  -0.952  0.7334 -3.3344  1.8812
  111MOL0     H14969   2.517   3.158  -0.822 -0.1466  0.2326  0.9187
  111MOL0     H14970   2.614   3.378  -0.750  2.0353  1.4090  1.3333
  111MOL0     H14971   1.917   2.435   0.363  1.3337 -2.2953  0.4920
  111MOL0     H14972   1.952   2.395   0.623  1.7718 -1.5142  0.6894
  111MOL0     H14973   2.290   2.655   1.078  1.9417  0.1686  1.8733
  111MOL0     H14974   2.316   2.511   1.284  0.5415 -0.6975  0.7821
  111MOL0     H14975   1.978   2.239   1.415  2.3348  1.9093  4.2493
  111MOL0     H14976   2.056   2.127   1.303 -0.9027 -0.9934  0.3825
  111MOL0     H14977   2.221   2.048   1.482 -2.6715 -2.6390  0.7250
  111MOL0     H14978   2.059   2.028   1.512 -0.3330 -1.5707 -3.2449
  111MOL0     H14979   2.093   2.275   1.623 -0.0685  0.4588  1.0064
  111MOL0     H14980   2.264   2.251   1.605  0.4327  1.4299  2.7750
  111MOL0     H14981   2.296   2.070   1.724  0.1815  0.4122  0.4321
  111MOL0     H14982   2.126   2.043   1.774 -0.4083  1.2879  1.6048
  111MOL0     H14983   2.250   2.306   2.069  2.3308  0.3790 -0.6105
  111MOL0     H14984   2.004   2.256   1.164  1.6992 -1.3402  1.9454
  111MOL0     H14985   1.975   2.380   0.957  1.7045 -0.7268 -1.9770
  112MOL0     O14986   9.785   1.830   5.587  0.6344 -0.3360 -0.7552
  112MOL0     C14987   9.702   1.758   5.530  0.0705 -1.1687 -0.4032
  112MOL0     O14988   9.715   1.623   5.526 -0.0469 -0.0246  0.9645
  112MOL0     C14989   9.814   1.549   5.584 -0.2395  0.1547 -0.3256
  112MOL0     C14990   9.934   1.537   5.515 -0.0745  0.0445  0.1605
  112MOL0     C14991  10.034   1.462   5.568  0.2429 -0.5441  0.1233
  112MOL0     C14992  10.026   1.404   5.692 -0.8445 -0.1508 -0.0102
  112MOL0     O14993  10.130   1.325   5.736 -0.1525 -0.3279  0.1781
  112MOL0     C14994  10.179   1.325   5.870  0.1050  0.6108 -0.3520
  112MOL0     C14995  10.335   1.306   5.878  0.4765 -0.1011 -0.1013
  112MOL0     C14996  10.378   1.300   6.027 -0.5233 -1.0409  0.1664
  112MOL0     C14997  10.405   1.443   6.088 -0.0440  0.4341  0.0461
  112MOL0     C14998  10.494   1.443   6.208  0.5450 -0.6244  0.3572
  112MOL0     C14999  10.440   1.351   6.316  0.3520  0.1370 -0.4235
  112MOL0     C15000  10.293   1.376   6.378 -0.5267 -0.1608 -0.9751
  112MOL0     C15001  10.284   1.488   6.482  0.0725  0.2674  0.3605
  112MOL0     N15002  10.310   1.631   6.432  0.1368  1.1840 -0.2659
  112MOL0     C15003  10.412   1.718   6.481  0.5568  0.1342 -0.1091
  112MOL0     C15004  10.381   1.835   6.427  0.9492  0.5097 -1.2262
  112MOL0     C15005  10.466   1.956   6.452  0.9176  0.7721  0.4460
  112MOL0     C15006  10.549   1.991   6.325 -0.1586 -0.0184  0.5750
  112MOL0     C15007  10.671   1.898   6.319 -0.4232 -0.2423 -0.1301
  112MOL0     C15008  10.709   1.873   6.176 -0.1319 -0.1445  0.2255
  112MOL0     O15009  10.802   1.762   6.160  0.5380 -0.5827  0.5834
  112MOL0     C15010  10.829   1.727   6.033 -0.6654 -0.4836  1.2724
  112MOL0     C15011  10.779   1.786   5.911  0.4649  0.0807  0.0045
  112MOL0     C15012  10.825   1.759   5.779 -0.0761  0.1393  0.5480
  112MOL0     C15013  10.780   1.846   5.654  0.0261 -0.4033 -0.4958
  112MOL0     C15014  10.918   1.649   5.767  0.5907  0.1440  0.3902
  112MOL0     C15015  10.991   1.614   5.645 -0.5093  0.1092 -0.4155
  112MOL0     O15016  10.930   1.591   5.527  0.0699  0.2005 -0.8251
  112MOL0     C15017  10.977   1.501   5.445 -0.0375 -0.0329  0.2926
  112MOL0     C15018  10.938   1.518   5.314 -1.1785 -0.3964  0.7955
  112MOL0     C15019  10.979   1.423   5.214 -0.5108 -0.3350 -1.0116
  112MOL0     C15020  11.085   1.335   5.241  0.3927 -0.3669  0.4810
  112MOL0     O15021  11.141   1.272   5.128  0.1989 -0.3607 -0.0255
  112MOL0     C15022  11.250   1.190   5.152  0.5724  0.1412  0.7297
  112MOL0     C15023  11.193   1.043   5.192 -1.3712  0.5076  0.0189
  112MOL0     C15024  11.134   0.955   5.074 -0.5465 -0.7649 -1.0211
  112MOL0     C15025  11.019   1.004   4.994  0.7135  0.3475  0.4175
  112MOL0     C15026  10.916   0.895   4.962  0.3921  0.0818 -0.2670
  112MOL0     C15027  10.950   0.817   4.826  0.3885  0.9693  0.0816
  112MOL0     C15028  11.035   0.684   4.846  0.1443  0.5476  0.3477
  112MOL0     C15029  11.068   0.636   4.705  0.0698 -0.4407  0.1329
  112MOL0    Cl15030  10.913   0.630   4.602 -0.3143 -0.1571  0.1481
  112MOL0     C15031  11.103   1.307   5.372  0.1228 -0.2734 -0.5054
  112MOL0     C15032  11.057   1.393   5.467 -0.0879 -0.9902  0.4682
  112MOL0     O15033  11.114   1.594   5.668  0.2898 -1.1066 -0.0052
  112MOL0     C15034  10.958   1.580   5.885  0.2724  0.2391  0.1240
  112MOL0     C15035  10.915   1.619   6.011  0.0156  1.1902 -0.7766
  112MOL0     N15036  10.275   1.826   6.335 -0.6173 -0.7542 -0.4462
  112MOL0     N15037  10.227   1.705   6.344 -0.2663 -0.3535 -0.1265
  112MOL0     C15038   9.904   1.413   5.766 -0.1288  0.9560  0.0714
  112MOL0     C15039   9.807   1.504   5.719 -0.2205  0.2300  0.1109
  112MOL0     C15040   9.622   1.828   5.435 -1.2425 -0.2211 -0.0408
  112MOL0     C15041   9.557   1.752   5.328  0.5049  1.1648  0.4017
  112MOL0     C15042   9.506   1.815   5.216  1.4789 -0.1250 -0.5897
  112MOL0     C15043   9.489   1.955   5.215  0.3096  0.2549 -0.1107
  112MOL0     O15044   9.411   2.014   5.122  0.0725  0.4043 -0.5480
  112MOL0     C15045   9.479   2.086   5.021 -0.4856  0.7780  0.1689
  112MOL0     C15046   9.487   1.997   4.891  0.9895 -0.9522  0.3836
  112MOL0     C15047   9.338   1.926   4.872 -0.2213 -0.1356  0.1942
  112MOL0     C15048   9.335   1.845   4.737 -0.0058 -0.6318 -0.2463
  112MOL0     C15049   9.194   1.799   4.722 -0.6033 -0.3205 -0.3640
  112MOL0     C15050   9.072   1.777   4.709 -0.3085 -0.2327  0.1823
  112MOL0     C15051   9.537   2.030   5.321  0.1423  0.1851 -0.0729
  112MOL0     C15052   9.601   1.968   5.427  0.3376 -0.8095 -1.2046
  112MOL0     H15053   9.940   1.582   5.417 -0.8545  0.0683  0.1156
  112MOL0     H15054  10.120   1.441   5.504  0.3004  1.8691 -0.7066
  112MOL0     H15055  10.163   1.419   5.924  0.7987  0.8816 -0.6045
  112MOL0     H15056  10.110   1.253   5.914 -4.1378  3.4432 -1.7820
  112MOL0     H15057  10.368   1.212   5.832  3.4324 -1.0901  3.5721
  112MOL0     H15058  10.369   1.399   5.832 -2.1702  2.1950  2.2417
  112MOL0     H15059  10.300   1.252   6.086  0.5945 -0.2006  2.4339
  112MOL0     H15060  10.470   1.242   6.036 -0.4155 -1.5370 -2.9325
  112MOL0     H15061  10.445   1.504   6.007  1.0039  0.0527  0.2602
  112MOL0     H15062  10.306   1.482   6.111 -0.8731 -1.3939 -0.2591
  112MOL0     H15063  10.583   1.383   6.187 -0.2384 -2.4133  1.9079
  112MOL0     H15064  10.511   1.543   6.250  1.8138  0.0222 -1.5541
  112MOL0     H15065  10.442   1.246   6.286 -2.4017 -0.4890  1.2054
  112MOL0     H15066  10.496   1.356   6.410  0.5478  5.6394 -0.4945
  112MOL0     H15067  10.209   1.390   6.309 -1.1050 -2.1431 -0.7467
  112MOL0     H15068  10.263   1.285   6.432 -3.1687  2.2986  2.1584
  112MOL0     H15069  10.374   1.476   6.544 -1.8960  3.3771  4.2880
  112MOL0     H15070  10.189   1.491   6.535 -0.1970  4.6914 -0.0377
  112MOL0     H15071  10.487   1.694   6.556  0.1633 -2.9975 -0.5589
  112MOL0     H15072  10.404   2.044   6.474  3.5995  2.4600  1.6829
  112MOL0     H15073  10.520   1.952   6.546  1.1325 -0.3413  0.2923
  112MOL0     H15074  10.587   2.094   6.334  0.0151 -0.1485  1.4426
  112MOL0     H15075  10.493   1.990   6.231  0.6958 -2.2004  0.0352
  112MOL0     H15076  10.652   1.800   6.365  1.5398 -1.1808 -1.1858
  112MOL0     H15077  10.754   1.930   6.382 -0.1726  1.1073 -1.0997
  112MOL0     H15078  10.768   1.956   6.135  1.7064 -2.7281 -2.8627
  112MOL0     H15079  10.625   1.859   6.107  1.2261  1.3160 -1.8484
  112MOL0     H15080  10.718   1.876   5.911 -0.0706 -0.2755  0.3245
  112MOL0     H15081  10.703   1.913   5.693  1.1321 -0.3922  1.8192
  112MOL0     H15082  10.860   1.918   5.636 -0.0318  0.5988  2.6201
  112MOL0     H15083  10.748   1.786   5.568 -0.9372 -0.3822 -0.1693
  112MOL0     H15084  10.856   1.584   5.287 -0.7849 -0.2968 -0.1742
  112MOL0     H15085  10.936   1.431   5.115 -1.5673  1.8409 -0.4403
  112MOL0     H15086  11.316   1.189   5.065 -0.0002  0.7701  0.2828
  112MOL0     H15087  11.312   1.219   5.238 -1.4734  0.4331  2.2046
  112MOL0     H15088  11.272   0.984   5.239  0.9143  1.5249 -2.2746
  112MOL0     H15089  11.126   1.057   5.276 -1.1381  1.2430  0.0930
  112MOL0     H15090  11.117   0.856   5.117  0.5831 -0.3926  0.3654
  112MOL0     H15091  11.208   0.931   4.998 -0.3064 -0.8516 -0.7616
  112MOL0     H15092  10.962   1.070   5.059  1.2277  0.9161  0.3076
  112MOL0     H15093  11.049   1.056   4.902 -0.1320 -1.4174 -0.9172
  112MOL0     H15094  10.829   0.951   4.925  1.2658 -0.1923 -2.9657
  112MOL0     H15095  10.891   0.828   5.045  2.4686  2.0740  2.1348
  112MOL0     H15096  10.854   0.781   4.790 -1.5893  2.3351  3.4271
  112MOL0     H15097  10.985   0.888   4.751  0.6429  1.8730  1.0188
  112MOL0     H15098  10.973   0.608   4.894  0.4480 -0.9954 -1.5617
  112MOL0     H15099  11.119   0.714   4.909 -0.4511 -1.3332  2.1329
  112MOL0     H15100  11.104   0.533   4.703  0.1645 -0.4178 -2.1113
  112MOL0     H15101  11.146   0.697   4.659  1.3855  1.4845  4.4207
  112MOL0     H15102  11.157   1.226   5.419 -0.5348 -0.4341 -0.0209
  112MOL0     H15103  11.086   1.371   5.569 -4.2150 -2.5116  1.5012
  112MOL0     H15104  11.035   1.504   5.879  1.4687  1.5269 -1.4517
  112MOL0     H15105  10.952   1.576   6.103 -2.1528  0.6640 -0.1043
  112MOL0     H15106   9.891   1.369   5.864 -0.6171  0.3678 -0.2550
  112MOL0     H15107   9.719   1.527   5.778  0.3656 -0.5540  1.3332
  112MOL0     H15108   9.550   1.644   5.322  0.9804  1.1032  0.9336
  112MOL0     H15109   9.462   1.759   5.135 -0.7264  1.7983 -0.8102
  112MOL0     H15110   9.420   2.175   4.997 -3.2108 -1.1917 -1.0246
  112MOL0     H15111   9.577   2.122   5.053 -0.2001  0.1709 -0.0078
  112MOL0     H15112   9.572   1.928   4.898  0.3090 -1.9006 -0.5118
  112MOL0     H15113   9.493   2.048   4.795  2.3229 -4.4543 -1.5480
  112MOL0     H15114   9.258   1.999   4.883  0.5791  0.9340 -0.8721
  112MOL0     H15115   9.323   1.844   4.943  2.2606 -1.8127 -1.0279
  112MOL0     H15116   9.414   1.770   4.754  1.9450  1.0878 -1.2481
  112MOL0     H15117   9.376   1.886   4.645 -0.3619 -0.5957 -0.3899
  112MOL0     H15118   8.972   1.750   4.682 -0.2420  0.3667 -0.7056
  112MOL0     H15119   9.525   2.136   5.301  2.2414  0.1582 -1.9339
  112MOL0     H15120   9.636   2.030   5.509  0.8767 -2.6633  0.0333
  113MOL0     O15121   5.943   5.429   5.103 -0.1835 -0.2850 -0.1169
  113MOL0     C15122   5.885   5.516   5.167  0.1008 -0.9967 -0.4150
  113MOL0     O15123   5.855   5.516   5.301 -0.0066 -0.2059 -0.7642
  113MOL0     C15124   5.887   5.412   5.382 -0.4520  0.4139 -0.4868
  113MOL0     C15125   5.784   5.347   5.455 -0.2992 -0.8944  0.2271
  113MOL0     C15126   5.800   5.226   5.516  0.3993 -0.3915 -0.7905
  113MOL0     C15127   5.921   5.165   5.512 -0.3103  0.3421  0.1991
  113MOL0     O15128   5.926   5.034   5.556  0.5317  0.0672 -0.4480
  113MOL0     C15129   5.912   5.003   5.693 -0.0297 -0.1462  1.6819
  113MOL0     C15130   6.008   4.880   5.710 -1.1518  0.1085  0.7685
  113MOL0     C15131   5.955   4.782   5.810 -0.5729 -0.0363 -0.4092
  113MOL0     C15132   5.986   4.844   5.949  0.1136  0.5580 -0.8525
  113MOL0     C15133   5.969   4.747   6.069  0.8129  0.4698 -0.5209
  113MOL0     C15134   5.829   4.685   6.076  0.3695 -0.5378 -0.1931
  113MOL0     C15135   5.834   4.569   6.181  0.1733  0.0443 -0.6374
  113MOL0     C15136   5.696   4.505   6.193  0.3919 -0.4960 -0.0264
  113MOL0     N15137   5.603   4.585   6.276 -0.4507  0.4813  0.6671
  113MOL0     C15138   5.617   4.597   6.407  0.3468 -0.0445 -0.6733
  113MOL0     C15139   5.526   4.692   6.446 -0.2818  0.1057  0.6357
  113MOL0     C15140   5.489   4.766   6.578 -0.1808 -0.4553  0.1888
  113MOL0     C15141   5.524   4.668   6.697 -1.4094 -0.0475  0.4559
  113MOL0     C15142   5.415   4.567   6.737  0.0561 -0.3144 -1.3164
  113MOL0     C15143   5.375   4.470   6.629 -0.1116 -0.4831 -0.2260
  113MOL0     O15144   5.484   4.385   6.598 -0.2055 -0.1830 -0.5235
  113MOL0     C15145   5.465   4.304   6.490  0.5972  0.2521  0.1186
  113MOL0     C15146   5.571   4.237   6.435 -0.0902  0.8111 -0.7932
  113MOL0     C15147   5.560   4.134   6.335 -0.0155  0.4265  0.0290
  113MOL0     C15148   5.696   4.086   6.282 -0.1854 -1.1975 -0.3983
  113MOL0     C15149   5.428   4.097   6.285 -0.4145  0.2100  0.6995
  113MOL0     C15150   5.407   3.983   6.201  0.3397  0.9535  0.7889
  113MOL0     O15151   5.291   3.987   6.135 -0.5410  0.5238  0.5676
  113MOL0     C15152   5.229   3.893   6.057 -0.5971  0.8705  0.1658
  113MOL0     C15153   5.118   3.926   5.976 -0.1610  0.1963  0.2524
  113MOL0     C15154   5.064   3.828   5.890  0.7042  0.3188  1.0240
  113MOL0     C15155   5.124   3.696   5.880  0.6112 -0.4710  0.1393
  113MOL0     O15156   5.071   3.615   5.786 -0.0528 -0.5071 -0.3838
  113MOL0     C15157   4.952   3.543   5.824 -1.1659  0.9658  0.1446
  113MOL0     C15158   4.983   3.413   5.899 -0.1684  1.0081 -0.0327
  113MOL0     C15159   4.866   3.344   5.977  0.5679  0.5244  0.6042
  113MOL0     C15160   4.728   3.318   5.903  0.2575  0.0893 -0.3836
  113MOL0     C15161   4.634   3.235   5.994 -0.2800 -0.5129  0.2271
  113MOL0     C15162   4.671   3.094   5.988  0.3240  0.9067  0.8904
  113MOL0     C15163   4.611   3.003   6.099 -0.9702 -0.1943 -0.5848
  113MOL0     C15164   4.463   2.969   6.096 -0.2571  0.1997 -0.5891
  113MOL0    Cl15165   4.404   2.912   5.944  0.5174 -0.2426 -0.3928
  113MOL0     C15166   5.219   3.656   5.970  0.7879 -0.1686 -0.5950
  113MOL0     C15167   5.282   3.757   6.047  0.4105 -1.0382 -0.2332
  113MOL0     O15168   5.492   3.894   6.202  0.0709  0.9775 -0.8262
  113MOL0     C15169   5.319   4.156   6.341 -0.0516 -0.6564 -0.4595
  113MOL0     C15170   5.340   4.259   6.437 -0.6894 -0.3890 -0.3667
  113MOL0     N15171   5.453   4.719   6.333 -0.0282 -0.5624 -0.3113
  113MOL0     N15172   5.496   4.661   6.232 -0.2000 -0.3222  1.0163
  113MOL0     C15173   6.035   5.230   5.457  0.9414  0.5053  1.1554
  113MOL0     C15174   6.021   5.353   5.387 -0.2211  0.3351  0.9220
  113MOL0     C15175   5.819   5.625   5.095 -1.1729 -0.0736  0.6010
  113MOL0     C15176   5.708   5.694   5.137  0.0998  0.2681 -0.2857
  113MOL0     C15177   5.647   5.794   5.064 -0.2461 -0.6220 -0.4978
  113MOL0     C15178   5.711   5.841   4.945  0.4094  0.0278 -0.4172
  113MOL0     O15179   5.652   5.943   4.878  0.1704  0.6972 -0.6133
  113MOL0     C15180   5.709   5.995   4.761 -0.5921  0.2780 -0.1227
  113MOL0     C15181   5.645   6.129   4.726 -0.3838  0.2516 -0.7428
  113MOL0     C15182   5.511   6.138   4.659  0.2447  0.6943  0.2327
  113MOL0     C15183   5.403   6.057   4.724  0.0947  0.0255  0.2797
  113MOL0     C15184   5.393   6.101   4.867  0.4038 -0.5514  0.7459
  113MOL0     C15185   5.364   6.143   4.977  0.1757 -0.0695  0.7989
  113MOL0     C15186   5.833   5.778   4.905  1.0111 -0.5171 -0.8993
  113MOL0     C15187   5.882   5.669   4.977 -0.4759  0.4504  1.1478
  113MOL0     H15188   5.689   5.399   5.457  0.9030  1.7803 -2.7031
  113MOL0     H15189   5.709   5.186   5.562  1.3990 -0.1599  1.5224
  113MOL0     H15190   5.946   5.091   5.749 -1.8276  1.8377 -0.1233
  113MOL0     H15191   5.803   4.994   5.705 -0.2190  0.1713  0.4255
  113MOL0     H15192   6.014   4.836   5.610  1.6538  3.5157 -0.7616
  113MOL0     H15193   6.113   4.911   5.709 -1.2364  0.4019  0.2840
  113MOL0     H15194   5.849   4.759   5.798 -0.5056 -0.3766 -0.3835
  113MOL0     H15195   6.003   4.683   5.815 -2.7750 -1.1149  0.3689
  113MOL0     H15196   6.090   4.873   5.936 -0.3143  2.1144 -1.0106
  113MOL0     H15197   5.921   4.931   5.966  0.5398  0.4771  1.4165
  113MOL0     H15198   6.031   4.657   6.071 -1.2701 -1.0512 -1.4169
  113MOL0     H15199   5.977   4.806   6.161 -3.9823  2.3395 -1.0082
  113MOL0     H15200   5.759   4.760   6.114  0.7365 -0.7153  0.8437
  113MOL0     H15201   5.794   4.643   5.981 -1.8000  0.3579  0.1372
  113MOL0     H15202   5.911   4.501   6.145  1.0270  0.9544 -0.6002
  113MOL0     H15203   5.872   4.594   6.281  0.1490 -0.7957 -0.4174
  113MOL0     H15204   5.695   4.403   6.232 -2.7191  0.4803  2.9047
  113MOL0     H15205   5.653   4.498   6.092 -2.2827 -1.3451  1.0860
  113MOL0     H15206   5.679   4.544   6.479  1.3187  2.0367  0.1219
  113MOL0     H15207   5.547   4.857   6.599  0.9772 -0.4785 -2.4615
  113MOL0     H15208   5.381   4.778   6.584 -0.0715 -0.1135  3.6116
  113MOL0     H15209   5.538   4.725   6.789  0.3517  0.7937 -0.2899
  113MOL0     H15210   5.625   4.630   6.680 -1.1617 -0.2439  2.1998
  113MOL0     H15211   5.328   4.628   6.760 -0.9387 -2.2417  0.2656
  113MOL0     H15212   5.446   4.520   6.830 -2.1643 -0.2494 -0.4870
  113MOL0     H15213   5.345   4.531   6.544  1.4929  2.2875  1.0598
  113MOL0     H15214   5.291   4.409   6.664 -0.9021 -0.4610 -1.9740
  113MOL0     H15215   5.670   4.261   6.474 -0.0272  0.5082 -0.7684
  113MOL0     H15216   5.691   4.075   6.173  3.4614  0.5802 -0.8817
  113MOL0     H15217   5.777   4.156   6.304  1.5495 -1.9140 -3.7915
  113MOL0     H15218   5.723   3.991   6.329 -0.7008 -0.6966  0.9368
  113MOL0     H15219   5.084   4.028   5.981  2.0269  1.3549 -4.1355
  113MOL0     H15220   4.974   3.842   5.831  0.8799 -0.0337  0.6696
  113MOL0     H15221   4.869   3.594   5.873 -0.4470 -1.8320  4.8324
  113MOL0     H15222   4.919   3.492   5.733 -0.2596 -3.2422  1.9331
  113MOL0     H15223   5.012   3.339   5.824 -4.6713 -0.2659 -0.8372
  113MOL0     H15224   5.065   3.424   5.970  0.1258  0.8754 -0.3501
  113MOL0     H15225   4.850   3.407   6.065 -1.9687  0.2145  0.4160
  113MOL0     H15226   4.906   3.256   6.028 -0.0248  1.1665  2.2390
  113MOL0     H15227   4.681   3.416   5.892  2.1404  1.0819  0.0405
  113MOL0     H15228   4.752   3.268   5.808  1.4003  1.0004 -0.6034
  113MOL0     H15229   4.535   3.255   5.953 -0.0539 -0.5104 -0.3352
  113MOL0     H15230   4.644   3.284   6.091  1.8169  2.0528 -1.1542
  113MOL0     H15231   4.630   3.058   5.893  0.4916  0.0532  1.1401
  113MOL0     H15232   4.780   3.084   5.988  0.1952 -1.6073 -1.1749
  113MOL0     H15233   4.640   3.032   6.200  0.1292 -0.2244 -0.8798
  113MOL0     H15234   4.654   2.903   6.086 -1.8008 -1.0935  2.5365
  113MOL0     H15235   4.417   3.056   6.144  0.2486 -1.1163  2.5727
  113MOL0     H15236   4.452   2.895   6.176 -0.3348  1.8355  0.9857
  113MOL0     H15237   5.263   3.557   5.963 -1.4710 -1.2636 -0.3432
  113MOL0     H15238   5.371   3.736   6.105  1.0792  2.1727  0.0721
  113MOL0     H15239   5.220   4.129   6.306  0.0755  2.0047 -3.2057
  113MOL0     H15240   5.253   4.313   6.472  1.7902  1.4696  3.6729
  113MOL0     H15241   6.129   5.177   5.473  0.5506  0.3362  3.0694
  113MOL0     H15242   6.098   5.417   5.344 -1.8117  2.1912  0.6812
  113MOL0     H15243   5.645   5.657   5.217  0.1720  0.3151 -0.2064
  113MOL0     H15244   5.554   5.844   5.087 -2.1153 -3.7214 -0.7393
  113MOL0     H15245   5.814   6.022   4.771 -0.8532  1.0619  0.6796
  113MOL0     H15246   5.690   5.929   4.676 -0.2690  1.5807 -1.2417
  113MOL0     H15247   5.723   6.186   4.674  0.9203  3.0595  3.7068
  113MOL0     H15248   5.627   6.178   4.823  3.8559 -1.7639  1.3749
  113MOL0     H15249   5.517   6.103   4.556 -2.6423  3.4916 -1.0713
  113MOL0     H15250   5.483   6.244   4.665  0.8134  0.8268  0.6572
  113MOL0     H15251   5.445   5.957   4.735  0.4245  0.2190  0.7988
  113MOL0     H15252   5.304   6.046   4.677  0.0251 -1.3298  0.6946
  113MOL0     H15253   5.331   6.186   5.069 -2.6629 -0.5554  0.0933
  113MOL0     H15254   5.887   5.812   4.818  2.3561 -1.1677 -0.3460
  113MOL0     H15255   5.963   5.611   4.934  0.2139  1.6509  0.7770
  114MOL0     O15256   7.733   9.262   5.442  0.0040 -0.0490  0.1137
  114MOL0     C15257   7.703   9.358   5.511  1.4866  0.6487  0.3718
  114MOL0     O15258   7.588   9.358   5.583  0.5048 -0.6332 -0.0412
  114MOL0     C15259   7.517   9.241   5.592  0.8759  0.9014 -0.2443
  114MOL0     C15260   7.390   9.228   5.530 -1.4748  0.5599 -0.0550
  114MOL0     C15261   7.315   9.108   5.534  0.1947 -0.2446  0.1415
  114MOL0     C15262   7.376   8.992   5.586  0.2551  0.6056 -0.7810
  114MOL0     O15263   7.299   8.879   5.552 -0.4144 -0.2252 -0.8613
  114MOL0     C15264   7.339   8.756   5.624 -0.0429  0.6036 -0.0292
  114MOL0     C15265   7.290   8.737   5.764 -0.2181 -0.6470 -0.3501
  114MOL0     C15266   7.226   8.867   5.813 -0.6279  0.0056  0.3006
  114MOL0     C15267   7.152   8.842   5.948  0.0600 -0.3501 -0.6920
  114MOL0     C15268   7.119   8.980   6.016  1.2374  0.3009 -0.3896
  114MOL0     C15269   7.060   8.966   6.162 -0.4486 -0.1027  0.2036
  114MOL0     C15270   7.130   8.884   6.272 -0.6018 -0.9344 -0.5453
  114MOL0     C15271   7.284   8.904   6.277 -0.4818  0.1051  0.0395
  114MOL0     N15272   7.360   8.822   6.363  0.3428  0.6074  0.2070
  114MOL0     C15273   7.487   8.858   6.409 -0.5326 -0.0282 -0.3339
  114MOL0     C15274   7.505   8.781   6.522 -0.5069  0.0606 -0.3274
  114MOL0     C15275   7.633   8.778   6.608 -0.1854  0.9150 -0.7505
  114MOL0     C15276   7.693   8.911   6.646  0.9764 -0.7936  0.4256
  114MOL0     C15277   7.834   8.903   6.684  0.5699  0.0658  0.1855
  114MOL0     C15278   7.878   9.033   6.757 -0.0672  0.0030 -0.1159
  114MOL0     O15279   7.814   9.017   6.884  1.1908 -0.4576  0.1377
  114MOL0     C15280   7.856   9.088   6.994  0.1420 -0.6761  0.0801
  114MOL0     C15281   7.793   9.059   7.111  0.0175 -0.0737 -0.1788
  114MOL0     C15282   7.828   9.110   7.233 -0.7359  0.2915  0.3610
  114MOL0     C15283   7.750   9.048   7.359 -0.0218  0.1175  0.6942
  114MOL0     C15284   7.927   9.207   7.245  0.0114 -0.1503 -1.0728
  114MOL0     C15285   7.971   9.285   7.372 -0.0465  0.0715  0.1631
  114MOL0     O15286   7.924   9.235   7.488 -0.1131  0.2190 -0.7344
  114MOL0     C15287   7.972   9.280   7.610  0.7237  0.1714  0.0472
  114MOL0     C15288   8.108   9.295   7.638 -0.0155 -0.2871 -0.5047
  114MOL0     C15289   8.154   9.344   7.761  0.7640  0.3092 -0.4010
  114MOL0     C15290   8.062   9.383   7.859 -1.1192  0.2614  0.1452
  114MOL0     O15291   8.118   9.448   7.972 -0.3090 -0.1729  0.5976
  114MOL0     C15292   8.036   9.491   8.080  0.3003 -0.0346 -0.0716
  114MOL0     C15293   8.084   9.391   8.188 -0.3935 -0.0046 -0.2918
  114MOL0     C15294   7.984   9.372   8.309 -0.3102  0.2406  0.7923
  114MOL0     C15295   7.980   9.495   8.397  0.5784  0.2732  0.3350
  114MOL0     C15296   7.900   9.481   8.514  0.6912 -0.0759 -0.1258
  114MOL0     C15297   7.912   9.599   8.608  0.1713  0.1185  0.1573
  114MOL0     C15298   7.810   9.702   8.586  0.1443  0.3966  1.1556
  114MOL0     C15299   7.852   9.836   8.663  0.3408 -1.1440  0.4814
  114MOL0    Cl15300   7.720   9.955   8.673  0.0658  0.0468 -0.0613
  114MOL0     C15301   7.930   9.364   7.835 -0.8494 -0.8191  0.1755
  114MOL0     C15302   7.881   9.317   7.711 -0.8298  1.5610  0.8294
  114MOL0     O15303   8.037   9.396   7.367 -0.1306  0.0641 -0.6151
  114MOL0     C15304   7.989   9.242   7.124  0.7398  1.0973 -0.3032
  114MOL0     C15305   7.964   9.174   6.999 -0.5088 -1.2119 -1.2696
  114MOL0     N15306   7.388   8.712   6.538  0.5875  1.3413 -0.3838
  114MOL0     N15307   7.303   8.735   6.447 -0.4292 -0.2301 -1.0821
  114MOL0     C15308   7.503   9.002   5.649  1.1330 -0.0945 -0.0592
  114MOL0     C15309   7.571   9.119   5.651 -0.0179  0.0691  0.2438
  114MOL0     C15310   7.772   9.481   5.492 -0.5718  0.1745 -0.2135
  114MOL0     C15311   7.903   9.491   5.430  0.2862 -0.1360  0.2541
  114MOL0     C15312   7.982   9.606   5.439 -0.1379  0.6562  0.4097
  114MOL0     C15313   7.931   9.715   5.508 -0.1015  0.8872  0.1566
  114MOL0     O15314   8.007   9.827   5.521 -0.8870 -0.0150 -0.5599
  114MOL0     C15315   7.959   9.935   5.431  0.5000  1.0998  0.1267
  114MOL0     C15316   8.039  10.056   5.467 -0.0746 -0.4763 -0.0105
  114MOL0     C15317   8.065  10.084   5.617  0.9354  0.1593  0.3889
  114MOL0     C15318   7.948  10.057   5.708 -0.4484 -0.0403 -0.3884
  114MOL0     C15319   7.840  10.156   5.687 -0.6454 -0.0398 -0.1845
  114MOL0     C15320   7.754  10.241   5.676  0.1310  0.5138  0.2471
  114MOL0     C15321   7.805   9.712   5.558  0.7935 -0.0840  0.4551
  114MOL0     C15322   7.723   9.594   5.552  0.1011 -0.7890  0.7178
  114MOL0     H15323   7.349   9.317   5.483 -0.9032 -0.5079 -2.7169
  114MOL0     H15324   7.222   9.112   5.477  1.9810  1.9396 -2.9376
  114MOL0     H15325   7.311   8.670   5.563 -0.4575 -0.3201  1.4206
  114MOL0     H15326   7.448   8.753   5.634 -0.1123  1.1303  1.0105
  114MOL0     H15327   7.213   8.661   5.780 -1.6037  1.1809  2.6307
  114MOL0     H15328   7.370   8.697   5.827 -0.2408 -0.2542 -0.0665
  114MOL0     H15329   7.302   8.942   5.838 -2.3123  1.0585  2.6054
  114MOL0     H15330   7.158   8.896   5.733  1.1925  1.0439 -0.9518
  114MOL0     H15331   7.056   8.791   5.934  0.0659 -0.3624 -0.6874
  114MOL0     H15332   7.218   8.791   6.020 -1.8465  1.4831  2.6071
  114MOL0     H15333   7.208   9.043   6.026  0.6384  1.1815 -0.5575
  114MOL0     H15334   7.054   9.028   5.943  0.9466 -0.7653 -0.8559
  114MOL0     H15335   7.058   9.069   6.199  0.5637  0.2400 -0.6484
  114MOL0     H15336   6.958   8.930   6.144  0.0259  0.1056 -3.5630
  114MOL0     H15337   7.094   8.912   6.371  1.9225  1.5051 -0.1995
  114MOL0     H15338   7.109   8.776   6.266  0.4474 -1.4923  3.2461
  114MOL0     H15339   7.311   9.005   6.313  0.6669 -0.8272  2.0071
  114MOL0     H15340   7.329   8.884   6.180 -0.4736 -0.6295  0.1864
  114MOL0     H15341   7.549   8.937   6.370 -2.8043  1.2990 -1.4912
  114MOL0     H15342   7.613   8.712   6.693 -0.7657  0.1965 -1.4265
  114MOL0     H15343   7.697   8.713   6.547 -0.6713  0.0704 -0.3854
  114MOL0     H15344   7.630   8.956   6.722 -1.1543  0.5755 -1.9855
  114MOL0     H15345   7.688   8.983   6.564 -1.8270 -0.9313  0.3963
  114MOL0     H15346   7.898   8.904   6.596  0.1880  0.5466 -0.0903
  114MOL0     H15347   7.852   8.807   6.734 -1.8045 -1.2896 -1.3420
  114MOL0     H15348   7.836   9.120   6.704 -0.2591 -0.1125 -0.1553
  114MOL0     H15349   7.986   9.042   6.770  0.2097  2.0296 -2.9839
  114MOL0     H15350   7.715   8.984   7.102 -2.5306  2.4024  0.0966
  114MOL0     H15351   7.677   9.121   7.394 -0.7959  0.7018 -1.9268
  114MOL0     H15352   7.695   8.959   7.328 -1.2793  0.9210  0.5251
  114MOL0     H15353   7.820   9.018   7.437  0.7801 -0.7296 -0.3105
  114MOL0     H15354   8.178   9.283   7.556  1.8088 -1.2627  1.1068
  114MOL0     H15355   8.261   9.361   7.771  0.8849 -0.4503 -0.3629
  114MOL0     H15356   8.057   9.596   8.101 -3.1489  0.7832 -0.1338
  114MOL0     H15357   7.928   9.481   8.066  0.4396 -1.0643 -0.5662
  114MOL0     H15358   8.087   9.290   8.145  2.1654 -0.0656 -0.0834
  114MOL0     H15359   8.181   9.422   8.226  0.3284  1.5508 -3.1114
  114MOL0     H15360   7.998   9.282   8.370 -2.0468 -0.3170  0.4340
  114MOL0     H15361   7.884   9.364   8.265 -0.2159 -0.7798  0.7570
  114MOL0     H15362   8.081   9.524   8.427  2.2508 -2.7316 -1.9264
  114MOL0     H15363   7.940   9.581   8.343  0.3139  2.0320  3.0794
  114MOL0     H15364   7.926   9.391   8.570  0.1142  0.6444  1.3314
  114MOL0     H15365   7.794   9.475   8.487  0.6123  3.2897 -1.0430
  114MOL0     H15366   7.903   9.555   8.708 -1.7293 -1.8888 -0.8108
  114MOL0     H15367   8.017   9.631   8.606  0.1494  0.2311 -2.0417
  114MOL0     H15368   7.713   9.666   8.621  0.5255 -1.6288  0.2617
  114MOL0     H15369   7.801   9.726   8.480  0.9703 -1.0615  0.7217
  114MOL0     H15370   7.935   9.883   8.610  1.1093 -1.3874  1.4252
  114MOL0     H15371   7.872   9.817   8.769 -2.9095 -1.6970  1.0939
  114MOL0     H15372   7.854   9.389   7.908 -1.7589  1.2717 -1.3790
  114MOL0     H15373   7.781   9.280   7.690 -1.5062  4.2202 -1.0940
  114MOL0     H15374   8.083   9.297   7.136  0.7306  1.1526 -0.4838
  114MOL0     H15375   8.017   9.208   6.911  0.5184  1.6972  0.3085
  114MOL0     H15376   7.553   8.925   5.707  1.7473  1.6596  1.9089
  114MOL0     H15377   7.672   9.111   5.689  1.1753  1.0683 -2.4842
  114MOL0     H15378   7.934   9.406   5.370 -3.9193 -2.2539  0.7191
  114MOL0     H15379   8.082   9.604   5.396  1.1334  1.3670  3.1467
  114MOL0     H15380   7.979   9.891   5.333 -2.3447 -2.9471  1.0796
  114MOL0     H15381   7.853   9.958   5.444 -0.6087  0.6591 -5.3955
  114MOL0     H15382   7.998  10.142   5.413  0.8646  0.1881  0.3172
  114MOL0     H15383   8.142  10.048   5.432  1.6881 -0.0805  4.4266
  114MOL0     H15384   8.089  10.190   5.630  0.8701  0.2983 -0.5577
  114MOL0     H15385   8.161  10.037   5.637  0.3023 -2.0010 -1.2313
  114MOL0     H15386   7.980  10.074   5.811 -0.9297  0.9093 -0.3867
  114MOL0     H15387   7.904   9.957   5.697  0.8468 -0.7679  0.6776
  114MOL0     H15388   7.679  10.317   5.662 -1.9656 -1.2247  1.4612
  114MOL0     H15389   7.761   9.804   5.596  3.6632  1.8365 -0.4794
  114MOL0     H15390   7.633   9.610   5.611 -0.9940 -1.3654 -0.7433
  115MOL0     O15391   2.377   9.306   8.063 -0.6300 -0.1194  0.3950
  115MOL0     C15392   2.358   9.357   8.169  0.1000 -0.0802 -0.3714
  115MOL0     O15393   2.428   9.333   8.290  0.0119 -0.4649 -0.1003
  115MOL0     C15394   2.504   9.221   8.295 -0.0264  0.1932  0.1518
  115MOL0     C15395   2.605   9.183   8.202 -0.4166  0.0363  0.0409
  115MOL0     C15396   2.693   9.074   8.220  0.0855  0.4601 -0.2059
  115MOL0     C15397   2.664   8.977   8.326  0.5526  0.5748 -0.7438
  115MOL0     O15398   2.736   8.862   8.347 -0.4384  0.8948 -0.2967
  115MOL0     C15399   2.778   8.784   8.234 -0.7008 -0.4761 -0.4896
  115MOL0     C15400   2.776   8.633   8.274  0.1253  0.5640  0.1877
  115MOL0     C15401   2.763   8.526   8.163 -0.0373 -0.2204  0.9390
  115MOL0     C15402   2.794   8.385   8.221  0.1132 -0.5931  0.1363
  115MOL0     C15403   2.812   8.288   8.102  0.6902 -0.6336 -0.1679
  115MOL0     C15404   2.790   8.135   8.127 -0.4118  0.8011  0.2720
  115MOL0     C15405   2.902   8.052   8.198 -0.4745 -0.0893  0.2188
  115MOL0     C15406   2.904   8.070   8.351  1.3496  0.9690 -0.2785
  115MOL0     N15407   2.796   7.990   8.419 -0.2744 -0.3744  0.0397
  115MOL0     C15408   2.656   8.007   8.405 -0.9165 -0.0030 -1.1327
  115MOL0     C15409   2.601   7.888   8.432 -0.0015 -0.1029  0.3440
  115MOL0     C15410   2.455   7.866   8.448  0.9039 -0.0535 -0.4957
  115MOL0     C15411   2.401   7.748   8.375 -0.1582  0.5818 -0.2626
  115MOL0     C15412   2.264   7.788   8.315 -0.5763 -1.1915 -1.0033
  115MOL0     C15413   2.166   7.796   8.427  0.3702 -0.6254  0.6455
  115MOL0     O15414   2.060   7.873   8.378  0.4295  0.7235  0.7739
  115MOL0     C15415   1.939   7.878   8.444  0.4199  0.0013 -0.2714
  115MOL0     C15416   1.898   7.793   8.539  0.3259  0.4479  0.3705
  115MOL0     C15417   1.777   7.796   8.606  0.7651  0.4405  0.5045
  115MOL0     C15418   1.746   7.692   8.706 -0.3118  0.6085 -0.3463
  115MOL0     C15419   1.679   7.905   8.570 -1.1772 -0.5235  0.1680
  115MOL0     C15420   1.542   7.920   8.614 -0.2047  1.2650  0.1636
  115MOL0     O15421   1.487   8.048   8.624 -0.1337  0.2359 -0.4837
  115MOL0     C15422   1.352   8.068   8.604 -0.3107  0.0994 -0.4502
  115MOL0     C15423   1.267   7.993   8.528 -0.1887  0.7341  0.3526
  115MOL0     C15424   1.129   7.999   8.527  0.4093 -0.4668 -0.5245
  115MOL0     C15425   1.065   8.084   8.626 -0.8152 -0.1075  0.1432
  115MOL0     O15426   0.930   8.078   8.646 -0.8478 -0.4307  0.5996
  115MOL0     C15427   0.877   8.124   8.769  0.4487 -0.3803  0.1530
  115MOL0     C15428   0.835   8.273   8.753  0.2385 -0.5027 -0.2259
  115MOL0     C15429   0.825   8.344   8.891  0.6668 -0.0385 -0.5295
  115MOL0     C15430   0.789   8.496   8.889  0.0303  0.6549  0.6481
  115MOL0     C15431   0.833   8.557   9.015  0.0549 -0.3578  0.2255
  115MOL0     C15432   0.830   8.718   9.020  0.2381 -0.7622 -0.2761
  115MOL0     C15433   0.908   8.791   8.915 -0.6943 -1.0473  0.6343
  115MOL0     C15434   0.924   8.942   8.944  0.0727 -0.1650  0.7573
  115MOL0    Cl15435   0.842   9.041   8.816 -0.0057 -0.3226  0.0304
  115MOL0     C15436   1.155   8.168   8.699 -0.4535  0.1809  0.3752
  115MOL0     C15437   1.290   8.167   8.683 -0.6190  0.3941  0.3336
  115MOL0     O15438   1.484   7.809   8.631  0.7062  0.9142  0.0890
  115MOL0     C15439   1.740   8.007   8.489  0.2637 -0.0420 -0.1481
  115MOL0     C15440   1.864   7.994   8.425  0.5924  0.5748  0.1484
  115MOL0     N15441   2.699   7.807   8.474  0.4279 -0.2360  0.3788
  115MOL0     N15442   2.809   7.872   8.465  0.3010 -0.2242 -0.9408
  115MOL0     C15443   2.563   9.005   8.416 -0.5622  0.4203 -0.0702
  115MOL0     C15444   2.483   9.122   8.404 -0.1983 -0.2622  0.4531
  115MOL0     C15445   2.251   9.464   8.177 -0.9429  0.3425  0.4500
  115MOL0     C15446   2.240   9.527   8.295  0.0133 -0.1092 -0.2705
  115MOL0     C15447   2.169   9.648   8.302  0.2588  0.1522  0.4981
  115MOL0     C15448   2.110   9.703   8.192 -0.1918 -0.3007  0.9904
  115MOL0     O15449   2.048   9.827   8.183  0.2347  0.1789 -0.5349
  115MOL0     C15450   2.004   9.889   8.310  0.6581 -0.3653  0.3940
  115MOL0     C15451   2.017  10.037   8.275 -0.0709 -0.2643  0.2738
  115MOL0     C15452   2.163  10.061   8.222  0.1967  1.2679 -1.0966
  115MOL0     C15453   2.223  10.189   8.281  0.0685 -0.0578  0.5036
  115MOL0     C15454   2.153  10.309   8.235 -0.6869 -0.3370  0.7575
  115MOL0     C15455   2.087  10.398   8.185 -0.0673  1.2182 -0.2798
  115MOL0     C15456   2.108   9.630   8.078  1.0933 -0.3497  0.3163
  115MOL0     C15457   2.177   9.510   8.076  0.8048  0.8757  0.5479
  115MOL0     H15458   2.641   9.264   8.139  1.2057 -0.9031 -0.3100
  115MOL0     H15459   2.786   9.062   8.164 -2.0915  1.7328 -4.5680
  115MOL0     H15460   2.710   8.795   8.149 -1.6350 -0.7411  0.2168
  115MOL0     H15461   2.875   8.822   8.200 -0.5072 -0.9002 -0.4127
  115MOL0     H15462   2.874   8.621   8.322  0.4187  2.3150  0.0775
  115MOL0     H15463   2.692   8.611   8.339  1.4325 -1.4321  1.3210
  115MOL0     H15464   2.665   8.532   8.115 -0.1128  0.6938  1.1910
  115MOL0     H15465   2.838   8.565   8.094 -0.7127  0.9948  0.8566
  115MOL0     H15466   2.882   8.385   8.286  0.7681 -1.4774 -0.7270
  115MOL0     H15467   2.707   8.335   8.267 -0.2219 -0.9505 -0.8705
  115MOL0     H15468   2.752   8.324   8.018 -0.6045 -1.1169  0.5231
  115MOL0     H15469   2.907   8.298   8.050  0.5846 -0.8067 -0.3988
  115MOL0     H15470   2.697   8.108   8.177 -0.2230 -2.0440 -0.7581
  115MOL0     H15471   2.775   8.108   8.022  1.0174  3.6337 -0.7804
  115MOL0     H15472   2.879   7.947   8.181 -3.0577  0.4409  0.0014
  115MOL0     H15473   3.001   8.067   8.153 -0.6822 -1.6815 -0.8257
  115MOL0     H15474   2.900   8.173   8.387 -2.4052  1.8162 -2.5838
  115MOL0     H15475   2.995   8.023   8.390 -0.0833  0.2734  2.5080
  115MOL0     H15476   2.603   8.094   8.368 -1.5545  0.3617  0.5400
  115MOL0     H15477   2.434   7.847   8.553  3.8428 -0.4227  0.1050
  115MOL0     H15478   2.398   7.949   8.407 -1.2213 -1.8016 -1.3009
  115MOL0     H15479   2.379   7.670   8.448 -0.4891  0.4498 -0.5019
  115MOL0     H15480   2.464   7.715   8.291 -1.3477  0.4218 -1.1113
  115MOL0     H15481   2.237   7.709   8.244 -1.0065  0.2377 -2.4954
  115MOL0     H15482   2.274   7.883   8.260 -2.7067 -1.0664 -1.2776
  115MOL0     H15483   2.207   7.842   8.518 -0.1547 -0.2683  0.7066
  115MOL0     H15484   2.128   7.698   8.458 -2.2941 -0.6177 -2.1254
  115MOL0     H15485   1.965   7.713   8.569  1.0592  1.6286  1.9830
  115MOL0     H15486   1.695   7.742   8.788 -1.7545  0.3856 -1.0724
  115MOL0     H15487   1.678   7.618   8.663  0.3117 -0.9443  1.2481
  115MOL0     H15488   1.839   7.641   8.733 -1.1211 -1.1811 -0.8341
  115MOL0     H15489   1.319   7.909   8.483 -0.9157 -0.4350  1.6215
  115MOL0     H15490   1.071   7.928   8.470 -1.8871  0.6699  0.2939
  115MOL0     H15491   0.786   8.069   8.794 -1.1611  1.2766 -1.6864
  115MOL0     H15492   0.947   8.118   8.853  0.2348  0.5610  0.4139
  115MOL0     H15493   0.901   8.331   8.688 -0.6527 -1.0082 -1.6232
  115MOL0     H15494   0.731   8.279   8.718 -1.3040  0.7205  3.9265
  115MOL0     H15495   0.924   8.329   8.937 -0.5418  0.8663  2.6514
  115MOL0     H15496   0.745   8.299   8.950 -0.7425  0.7831 -1.7714
  115MOL0     H15497   0.821   8.555   8.802 -3.9735  0.9527 -0.8619
  115MOL0     H15498   0.680   8.488   8.885  0.1044 -0.7998  1.1369
  115MOL0     H15499   0.935   8.533   9.044  0.1800 -0.2785 -0.1386
  115MOL0     H15500   0.774   8.505   9.091 -0.4782  0.2908  0.2675
  115MOL0     H15501   0.728   8.751   9.000  1.3097  1.9890 -1.8623
  115MOL0     H15502   0.859   8.744   9.122 -0.3277  0.0849 -0.3173
  115MOL0     H15503   0.857   8.777   8.819  1.2514 -1.1119 -0.4478
  115MOL0     H15504   1.016   8.771   8.915  1.4815  7.0234  2.4051
  115MOL0     H15505   1.032   8.961   8.936 -0.2486  0.8392 -3.4358
  115MOL0     H15506   0.873   8.961   9.039 -1.7567 -2.1555  0.2385
  115MOL0     H15507   1.110   8.242   8.765 -0.4092 -0.1976  0.8426
  115MOL0     H15508   1.357   8.234   8.736 -1.3074  1.5114 -0.1714
  115MOL0     H15509   1.679   8.096   8.477  0.8598  0.4477  0.3986
  115MOL0     H15510   1.901   8.066   8.353  0.8710  1.0833  0.7896
  115MOL0     H15511   2.535   8.924   8.484  0.8649  0.6794  0.8681
  115MOL0     H15512   2.414   9.152   8.482 -2.0987  0.6167 -1.4733
  115MOL0     H15513   2.278   9.504   8.394 -0.4320  0.5261  0.0570
  115MOL0     H15514   2.166   9.711   8.391 -0.5484 -2.2463  2.2631
  115MOL0     H15515   1.904   9.854   8.335 -1.0000  2.2437 -1.9718
  115MOL0     H15516   2.069   9.880   8.397  0.0673  0.2935  0.9088
  115MOL0     H15517   1.986  10.101   8.358  4.1107  4.0494 -1.0760
  115MOL0     H15518   1.946  10.050   8.192 -0.1288  2.6132  0.6724
  115MOL0     H15519   2.174  10.061   8.113  3.6324 -3.5355 -1.0712
  115MOL0     H15520   2.227   9.980   8.258 -0.0608  1.5574  0.0474
  115MOL0     H15521   2.319  10.181   8.229  1.1686 -0.9540  2.5585
  115MOL0     H15522   2.238  10.183   8.389  0.7743 -2.0698  0.3219
  115MOL0     H15523   2.020  10.473   8.149 -2.2458 -2.1820 -4.3021
  115MOL0     H15524   2.036   9.655   8.000 -0.1870 -0.2220  1.5130
  115MOL0     H15525   2.190   9.455   7.983  0.8687 -0.8181  1.5292
  116MOL0     O15526   1.380   4.134   3.664  0.0154 -0.5304  0.3393
  116MOL0     C15527   1.298   4.099   3.747 -0.3306  0.3860  0.9318
  116MOL0     O15528   1.254   4.180   3.845 -0.0687  0.7887  0.2106
  116MOL0     C15529   1.305   4.301   3.872 -0.5096 -0.8817  0.2354
  116MOL0     C15530   1.423   4.372   3.824 -0.1345 -1.2165  0.4108
  116MOL0     C15531   1.463   4.498   3.873 -0.1864 -0.2234 -0.1515
  116MOL0     C15532   1.398   4.561   3.982  0.4201  0.7189  0.3912
  116MOL0     O15533   1.445   4.681   4.020  0.5049 -0.5802 -0.0642
  116MOL0     C15534   1.382   4.745   4.126 -0.5517 -1.5561 -0.7294
  116MOL0     C15535   1.454   4.873   4.166  0.0901 -0.5085 -0.0142
  116MOL0     C15536   1.422   4.923   4.314 -0.3117 -0.3151  0.2549
  116MOL0     C15537   1.514   5.042   4.353  0.6473  0.4902  0.1318
  116MOL0     C15538   1.504   5.179   4.283 -0.1715 -0.7525 -0.2900
  116MOL0     C15539   1.370   5.240   4.309  0.1027 -0.8067 -0.5703
  116MOL0     C15540   1.387   5.388   4.284  0.3720 -0.3176  0.2337
  116MOL0     C15541   1.430   5.419   4.141 -0.0038 -0.3579 -1.0543
  116MOL0     N15542   1.343   5.382   4.032  0.4684 -0.5222 -0.4609
  116MOL0     C15543   1.225   5.456   4.009  0.7792  0.5469 -0.6560
  116MOL0     C15544   1.169   5.379   3.916 -0.2505 -0.1648  0.3616
  116MOL0     C15545   1.036   5.398   3.868  0.7560 -0.1153  0.2025
  116MOL0     C15546   0.930   5.412   3.970  0.0117  0.0805 -0.6984
  116MOL0     C15547   0.908   5.282   4.046  0.2749  0.2786  0.8446
  116MOL0     C15548   0.813   5.287   4.165 -0.1935 -1.0081 -0.1117
  116MOL0     O15549   0.685   5.313   4.110  0.9295 -0.1866  0.3571
  116MOL0     C15550   0.578   5.233   4.153 -0.0686 -0.2813  0.1140
  116MOL0     C15551   0.563   5.203   4.287 -0.3275  0.2414 -0.2739
  116MOL0     C15552   0.459   5.118   4.337  0.6897  0.3274  0.1874
  116MOL0     C15553   0.450   5.101   4.483 -0.4505  0.1787  0.6325
  116MOL0     C15554   0.365   5.060   4.247 -0.1987 -0.0138 -0.2208
  116MOL0     C15555   0.261   4.970   4.287 -0.5676  0.1546  0.5836
  116MOL0     O15556   0.223   4.872   4.190  0.0905  0.1040 -0.6594
  116MOL0     C15557   0.136   4.771   4.229 -0.0664 -0.1888  0.0919
  116MOL0     C15558   0.060   4.698   4.134 -0.0191 -0.5598  0.0107
  116MOL0     C15559  -0.021   4.583   4.177 -0.7887 -0.5870 -0.3636
  116MOL0     C15560  -0.015   4.548   4.312 -0.0839  0.3604 -0.1546
  116MOL0     O15561  -0.077   4.446   4.371 -0.5452 -0.0465 -0.2834
  116MOL0     C15562  -0.204   4.410   4.314 -0.0973  0.8572 -0.1220
  116MOL0     C15563  -0.273   4.312   4.415 -0.0617  0.0094 -0.1009
  116MOL0     C15564  -0.423   4.293   4.393 -0.5937  0.0552 -0.3370
  116MOL0     C15565  -0.504   4.417   4.416  0.1973 -0.6072 -0.7829
  116MOL0     C15566  -0.484   4.483   4.555 -0.2780 -0.2008  0.0920
  116MOL0     C15567  -0.589   4.599   4.568 -0.3030 -0.1851 -0.0603
  116MOL0     C15568  -0.535   4.721   4.644 -0.7435  0.5276  0.0731
  116MOL0     C15569  -0.637   4.826   4.666 -0.8213  1.0666 -0.3961
  116MOL0    Cl15570  -0.563   4.939   4.791  0.2795  0.1459  0.0956
  116MOL0     C15571   0.052   4.621   4.404 -0.3711 -0.8638  0.0231
  116MOL0     C15572   0.126   4.726   4.368 -0.1340  0.1447  1.2599
  116MOL0     O15573   0.200   4.999   4.389 -0.4040  0.2497 -0.1802
  116MOL0     C15574   0.381   5.098   4.111 -1.1353 -0.5225  0.2095
  116MOL0     C15575   0.486   5.184   4.063 -0.5669 -0.1302  0.6255
  116MOL0     N15576   1.255   5.278   3.871  0.0078 -0.1237  0.3171
  116MOL0     N15577   1.360   5.285   3.941 -0.2056  1.2821  0.1969
  116MOL0     C15578   1.301   4.486   4.052 -0.1942 -0.5493  1.3534
  116MOL0     C15579   1.251   4.367   3.990 -0.2584  0.3427  0.5480
  116MOL0     C15580   1.240   3.965   3.718  0.4813  0.4212 -0.1709
  116MOL0     C15581   1.295   3.866   3.630 -0.5213 -0.3302 -0.4448
  116MOL0     C15582   1.230   3.749   3.597 -0.2291  0.5225 -0.3611
  116MOL0     C15583   1.106   3.721   3.657  0.2232  0.2613  0.0423
  116MOL0     O15584   1.026   3.621   3.620  0.9912  0.2760  0.3475
  116MOL0     C15585   0.916   3.648   3.521  0.1994  0.0373  0.1134
  116MOL0     C15586   0.837   3.523   3.511  0.8504  0.5102  0.9464
  116MOL0     C15587   0.805   3.459   3.650  1.4863 -0.9947  0.5705
  116MOL0     C15588   0.752   3.313   3.658  0.0283  0.3877  0.8862
  116MOL0     C15589   0.615   3.288   3.603  0.4007  0.3402  0.1922
  116MOL0     C15590   0.494   3.274   3.574  0.7313 -0.1952 -1.0300
  116MOL0     C15591   1.053   3.817   3.739 -0.2736 -0.1985  0.1755
  116MOL0     C15592   1.115   3.942   3.764  0.9393  0.1194  1.0099
  116MOL0     H15593   1.476   4.338   3.736 -1.3943  2.4027 -1.9357
  116MOL0     H15594   1.535   4.571   3.838  0.6812  0.5858  3.0174
  116MOL0     H15595   1.278   4.778   4.112  0.1131  1.4372  0.5485
  116MOL0     H15596   1.388   4.682   4.214 -1.2069  2.5174  2.5466
  116MOL0     H15597   1.560   4.864   4.143 -0.0860 -0.1502 -1.0123
  116MOL0     H15598   1.414   4.951   4.100  1.9311  0.4722 -0.0426
  116MOL0     H15599   1.329   4.980   4.313  0.6592  1.4689 -2.6784
  116MOL0     H15600   1.435   4.841   4.386  0.6637 -1.3901 -1.0907
  116MOL0     H15601   1.503   5.062   4.460  0.5144 -2.9631  0.8762
  116MOL0     H15602   1.619   5.014   4.336  0.9346  1.8213 -0.4317
  116MOL0     H15603   1.581   5.239   4.333  0.1921  2.3525 -4.1552
  116MOL0     H15604   1.523   5.176   4.175 -4.8452 -0.9555 -1.2987
  116MOL0     H15605   1.293   5.193   4.248  1.0167  1.0813 -3.3592
  116MOL0     H15606   1.346   5.236   4.416  0.7652  0.9541 -0.3115
  116MOL0     H15607   1.289   5.434   4.296 -0.3975 -1.4800 -1.2077
  116MOL0     H15608   1.459   5.435   4.352  0.1473  1.1415 -0.4911
  116MOL0     H15609   1.522   5.370   4.107 -0.4276 -1.2061 -1.0142
  116MOL0     H15610   1.468   5.521   4.145 -0.7212 -0.1336  2.2441
  116MOL0     H15611   1.184   5.537   4.068  2.1103  0.5490  0.3253
  116MOL0     H15612   1.047   5.482   3.799 -1.5471 -0.2682 -0.4232
  116MOL0     H15613   1.006   5.313   3.806  0.4927 -1.5772  2.2283
  116MOL0     H15614   0.840   5.448   3.919 -3.4279 -1.6718  3.4086
  116MOL0     H15615   0.960   5.485   4.046  4.0164 -0.0624 -1.9477
  116MOL0     H15616   1.009   5.265   4.083  1.6144  2.0730 -1.6451
  116MOL0     H15617   0.875   5.199   3.982 -4.7437 -0.1974  3.5207
  116MOL0     H15618   0.831   5.368   4.236 -4.5545  0.7679 -0.7283
  116MOL0     H15619   0.834   5.200   4.228  0.0148 -0.2081  0.9495
  116MOL0     H15620   0.632   5.244   4.359 -0.5284  2.7758 -1.4321
  116MOL0     H15621   0.435   4.995   4.508  1.6301 -0.5434 -0.9367
  116MOL0     H15622   0.545   5.134   4.524  0.8185  1.7456 -3.1247
  116MOL0     H15623   0.367   5.156   4.528  0.0078  0.7009  0.8459
  116MOL0     H15624   0.068   4.736   4.033  0.6723  0.2264  0.3413
  116MOL0     H15625  -0.095   4.538   4.111 -2.7467  0.3579  1.0770
  116MOL0     H15626  -0.260   4.503   4.305  0.8943  1.2893 -2.6709
  116MOL0     H15627  -0.192   4.366   4.215 -2.5700 -0.3104  0.0193
  116MOL0     H15628  -0.226   4.215   4.396 -2.4889 -0.7561 -2.9869
  116MOL0     H15629  -0.250   4.343   4.517  1.7138 -3.3626  0.6671
  116MOL0     H15630  -0.453   4.216   4.465 -1.9920 -2.2995 -3.2331
  116MOL0     H15631  -0.443   4.260   4.291 -1.3153  0.9506 -0.4959
  116MOL0     H15632  -0.483   4.492   4.339 -3.8818 -0.3057 -1.8092
  116MOL0     H15633  -0.610   4.392   4.426 -0.0797  0.7077 -0.1674
  116MOL0     H15634  -0.387   4.529   4.576  0.1404 -1.1000  0.1293
  116MOL0     H15635  -0.495   4.409   4.634 -2.8435  1.9186  1.9447
  116MOL0     H15636  -0.633   4.634   4.474 -1.2706 -1.6209 -0.1716
  116MOL0     H15637  -0.667   4.567   4.638  0.7719 -0.4423  1.0620
  116MOL0     H15638  -0.442   4.759   4.601 -0.5883  1.0315  0.8428
  116MOL0     H15639  -0.508   4.681   4.742  1.7904  0.5717 -0.5378
  116MOL0     H15640  -0.729   4.773   4.691  1.2110 -2.0459  1.2822
  116MOL0     H15641  -0.647   4.882   4.573  2.1731  0.0475 -1.4510
  116MOL0     H15642   0.048   4.584   4.506 -2.6454 -4.2839 -1.1478
  116MOL0     H15643   0.190   4.766   4.446 -1.3740  2.6079  1.1144
  116MOL0     H15644   0.307   5.073   4.036 -4.3613  0.7921  2.6853
  116MOL0     H15645   0.487   5.223   3.962  0.2101 -0.8479  0.3520
  116MOL0     H15646   1.274   4.510   4.154  2.3048 -1.3311  2.2867
  116MOL0     H15647   1.177   4.306   4.040  1.3012 -1.9950  0.1736
  116MOL0     H15648   1.392   3.871   3.580 -0.6515  0.3563 -0.6363
  116MOL0     H15649   1.283   3.677   3.535 -0.4616 -0.1662  0.2279
  116MOL0     H15650   0.864   3.734   3.564  1.1895 -0.0900  1.6147
  116MOL0     H15651   0.967   3.672   3.427  1.5218  0.8123  1.0083
  116MOL0     H15652   0.877   3.450   3.440 -1.6741 -0.3402  0.2799
  116MOL0     H15653   0.738   3.553   3.475  1.1050  3.0561  2.1546
  116MOL0     H15654   0.736   3.520   3.708 -0.7324 -1.9154 -0.9595
  116MOL0     H15655   0.901   3.459   3.702  1.9615  0.2462 -0.2600
  116MOL0     H15656   0.752   3.284   3.764 -0.2614 -2.3072  0.2370
  116MOL0     H15657   0.825   3.255   3.601 -3.2230 -3.3924  0.0944
  116MOL0     H15658   0.387   3.280   3.570  0.4553 -0.5493  2.7374
  116MOL0     H15659   0.957   3.808   3.789 -0.0792  1.5560  0.9446
  116MOL0     H15660   1.067   4.016   3.826 -2.2574 -1.7587  0.9748
  117MOL0     O15661   4.937   7.392   2.050  1.0045  0.0651 -0.7042
  117MOL0     C15662   5.058   7.398   2.066  1.3853 -0.0510  0.4092
  117MOL0     O15663   5.139   7.289   2.046  0.6004  0.2960 -0.0746
  117MOL0     C15664   5.108   7.160   2.069  0.1124 -0.3743 -0.0397
  117MOL0     C15665   5.172   7.077   1.980  0.2560  0.1191 -0.2595
  117MOL0     C15666   5.126   6.945   1.981 -0.4072  0.9344  0.1784
  117MOL0     C15667   5.035   6.897   2.073 -1.0040 -0.2259 -0.4964
  117MOL0     O15668   4.989   6.767   2.056 -0.6972  0.3436  0.5613
  117MOL0     C15669   5.096   6.663   2.036  0.1411 -0.1940 -0.0652
  117MOL0     C15670   5.210   6.666   2.140 -0.1066 -0.1577 -0.4753
  117MOL0     C15671   5.177   6.629   2.282  0.4796 -0.4667 -0.3080
  117MOL0     C15672   5.124   6.491   2.302  0.0290  0.3067 -0.2245
  117MOL0     C15673   5.139   6.451   2.459 -0.6169  1.5553  0.0250
  117MOL0     C15674   5.060   6.320   2.480 -0.6647 -0.3249  0.1967
  117MOL0     C15675   4.928   6.351   2.543  0.1976  0.2149 -0.1354
  117MOL0     C15676   4.869   6.221   2.598  0.2016 -0.2438 -0.1464
  117MOL0     N15677   4.942   6.170   2.714  0.2482 -1.0016  0.2177
  117MOL0     C15678   4.969   6.034   2.725  0.2584 -0.8923 -0.6199
  117MOL0     C15679   5.047   6.030   2.835 -0.0011 -0.4138 -0.8090
  117MOL0     C15680   5.112   5.912   2.897  0.9282  0.7203  0.5987
  117MOL0     C15681   5.252   5.893   2.844 -0.8265  0.3908 -0.0740
  117MOL0     C15682   5.316   5.770   2.911  0.2565  0.1792  0.1668
  117MOL0     C15683   5.459   5.761   2.866 -0.9948  0.9723 -0.0480
  117MOL0     O15684   5.529   5.648   2.916 -0.3433  0.4624  0.7010
  117MOL0     C15685   5.633   5.678   3.001 -0.1480  1.1703 -0.5543
  117MOL0     C15686   5.745   5.733   2.948 -0.7754  0.8550  1.0500
  117MOL0     C15687   5.845   5.785   3.028 -0.6498 -0.8531 -0.0798
  117MOL0     C15688   5.964   5.847   2.958 -0.2289  0.7238  0.7312
  117MOL0     C15689   5.836   5.799   3.174 -0.4913 -0.7039 -0.1500
  117MOL0     C15690   5.948   5.845   3.271  0.3041  1.4523 -0.2771
  117MOL0     O15691   5.931   5.796   3.403 -1.1091 -0.4379 -0.8131
  117MOL0     C15692   6.041   5.800   3.488 -0.4834 -0.2981 -1.3789
  117MOL0     C15693   6.075   5.913   3.571 -0.6499 -0.2565  0.5352
  117MOL0     C15694   6.204   5.926   3.622  1.1434  0.9691  0.6508
  117MOL0     C15695   6.297   5.823   3.624 -0.1086  0.6718 -0.4110
  117MOL0     O15696   6.417   5.846   3.692 -0.0561 -0.4870  0.1924
  117MOL0     C15697   6.511   5.737   3.690 -1.3559  0.8321 -0.1595
  117MOL0     C15698   6.607   5.733   3.811  0.1531  0.3558 -0.0508
  117MOL0     C15699   6.745   5.671   3.793  0.6167  0.4135 -0.4527
  117MOL0     C15700   6.844   5.759   3.719  0.3490 -0.1733  0.6294
  117MOL0     C15701   6.973   5.683   3.703  0.5431 -0.8001 -0.1116
  117MOL0     C15702   7.088   5.775   3.667  0.8260  0.5090  0.4435
  117MOL0     C15703   7.201   5.706   3.587 -0.3183  0.1998 -0.4652
  117MOL0     C15704   7.302   5.811   3.547 -0.0768 -0.2384  0.7655
  117MOL0    Cl15705   7.402   5.733   3.428  0.1626 -0.1352  0.7273
  117MOL0     C15706   6.258   5.708   3.563 -0.1005  0.0468  0.9995
  117MOL0     C15707   6.134   5.693   3.492 -0.0783  0.1348  0.0530
  117MOL0     O15708   6.052   5.896   3.226  0.0020  0.2214  0.6376
  117MOL0     C15709   5.724   5.729   3.226 -0.9123 -0.7907 -0.0143
  117MOL0     C15710   5.623   5.673   3.145  0.7547 -0.2942  0.7569
  117MOL0     N15711   5.055   6.158   2.892 -0.1288  1.0785 -0.4646
  117MOL0     N15712   5.005   6.245   2.811 -0.3760  0.6554  0.5675
  117MOL0     C15713   4.971   6.980   2.163  0.8808 -0.1539  0.9567
  117MOL0     C15714   5.004   7.118   2.155 -0.2092 -0.7984 -0.0863
  117MOL0     C15715   5.115   7.528   2.115 -0.2216  0.5974  0.3796
  117MOL0     C15716   5.036   7.631   2.155  0.7775 -0.0318  0.5942
  117MOL0     C15717   5.086   7.745   2.212  0.5464 -0.3640 -0.4574
  117MOL0     C15718   5.224   7.764   2.213 -0.0955 -0.5562 -0.4472
  117MOL0     O15719   5.256   7.888   2.268  0.3944 -0.2910 -0.3106
  117MOL0     C15720   5.395   7.923   2.267  0.2065  0.2344 -0.0805
  117MOL0     C15721   5.413   8.073   2.289  0.1435 -0.0539  0.0921
  117MOL0     C15722   5.354   8.095   2.427 -0.8133  0.2292 -0.0151
  117MOL0     C15723   5.405   8.221   2.488 -0.9509 -0.5484 -0.0580
  117MOL0     C15724   5.502   8.213   2.606  0.0365  0.6025  1.4347
  117MOL0     C15725   5.589   8.230   2.693  0.3780  0.5204  0.6046
  117MOL0     C15726   5.307   7.654   2.196 -0.1527 -0.2791 -0.3042
  117MOL0     C15727   5.254   7.537   2.137 -0.2056  0.6125 -0.0458
  117MOL0     H15728   5.249   7.102   1.907  0.0699 -1.2663 -0.9703
  117MOL0     H15729   5.170   6.878   1.908 -2.7647 -1.2188  0.6219
  117MOL0     H15730   5.049   6.564   2.040 -2.5723  1.0327  2.4828
  117MOL0     H15731   5.147   6.668   1.940 -2.8003 -0.8476 -1.7749
  117MOL0     H15732   5.275   6.591   2.094 -0.7114 -1.1291  0.2295
  117MOL0     H15733   5.274   6.755   2.139  1.1608 -0.9883 -3.0081
  117MOL0     H15734   5.260   6.655   2.349 -1.7242 -0.2608  2.5632
  117MOL0     H15735   5.098   6.696   2.318  2.8694  1.0792  2.4947
  117MOL0     H15736   5.020   6.485   2.270 -0.3560 -0.1075  1.0238
  117MOL0     H15737   5.178   6.417   2.242 -0.0117 -0.3470  0.5165
  117MOL0     H15738   5.242   6.426   2.487 -2.1589 -1.4630  3.9180
  117MOL0     H15739   5.114   6.531   2.529 -3.1980 -0.7165  1.9250
  117MOL0     H15740   5.075   6.259   2.391  2.6023  2.7364 -1.6096
  117MOL0     H15741   5.115   6.260   2.553 -3.1294  0.9093  3.2989
  117MOL0     H15742   4.933   6.422   2.626 -0.4666  0.7789 -0.5683
  117MOL0     H15743   4.849   6.392   2.480 -0.7272  0.2880  1.0364
  117MOL0     H15744   4.879   6.137   2.528  3.1734 -0.1473  0.0219
  117MOL0     H15745   4.762   6.235   2.616 -0.5227 -0.4171 -3.5579
  117MOL0     H15746   4.934   5.953   2.662 -1.2106  0.4532 -1.6220
  117MOL0     H15747   5.122   5.925   3.005 -0.4734 -0.3546  0.8984
  117MOL0     H15748   5.049   5.823   2.890  0.0626  1.2334  1.6121
  117MOL0     H15749   5.308   5.985   2.861  0.6884 -0.2222 -1.4734
  117MOL0     H15750   5.245   5.859   2.740  1.6805 -4.2221  0.9980
  117MOL0     H15751   5.260   5.683   2.877 -1.0109  1.0264  0.0123
  117MOL0     H15752   5.334   5.777   3.019  2.2597  1.2545 -0.1861
  117MOL0     H15753   5.501   5.844   2.922  0.5009 -0.0842  0.4644
  117MOL0     H15754   5.465   5.773   2.757  1.3634 -2.4179 -0.4702
  117MOL0     H15755   5.758   5.754   2.842  3.6747 -1.4811  0.9050
  117MOL0     H15756   5.974   5.952   2.987  0.8672  0.6842  0.5070
  117MOL0     H15757   6.054   5.786   2.971  0.1541  0.6345 -1.8636
  117MOL0     H15758   5.955   5.845   2.849  3.4816 -0.2340  0.3153
  117MOL0     H15759   6.011   5.997   3.596  0.4172  0.1937  1.9281
  117MOL0     H15760   6.238   6.022   3.659 -0.4423  1.9230 -0.2841
  117MOL0     H15761   6.483   5.632   3.675  2.9313 -0.8316  1.7843
  117MOL0     H15762   6.580   5.756   3.607 -0.2700 -1.4508  0.1419
  117MOL0     H15763   6.627   5.833   3.850 -2.6977  1.3740 -0.9394
  117MOL0     H15764   6.544   5.676   3.880  0.5595  2.9560  2.6674
  117MOL0     H15765   6.721   5.577   3.743 -0.8248 -0.1670  1.2199
  117MOL0     H15766   6.773   5.656   3.897 -1.3586 -0.3474  0.0188
  117MOL0     H15767   6.812   5.777   3.616 -2.3457 -2.0780  1.0146
  117MOL0     H15768   6.866   5.854   3.768  1.2866  0.6961 -1.3502
  117MOL0     H15769   6.974   5.597   3.635  1.8629 -1.2531  0.4421
  117MOL0     H15770   6.992   5.637   3.800 -4.8157 -2.4384  0.4816
  117MOL0     H15771   7.049   5.863   3.615 -0.0204  1.7965  3.0820
  117MOL0     H15772   7.127   5.824   3.756  1.6035  3.0244 -1.1503
  117MOL0     H15773   7.158   5.656   3.499 -1.3363  0.3463 -0.0703
  117MOL0     H15774   7.257   5.637   3.651 -1.2344  0.6417  0.8553
  117MOL0     H15775   7.361   5.855   3.627  0.6332 -1.7192  1.0844
  117MOL0     H15776   7.254   5.896   3.496  2.0922  0.7135  0.1845
  117MOL0     H15777   6.331   5.628   3.557  2.5801  2.4524 -2.6105
  117MOL0     H15778   6.101   5.610   3.431  0.8533 -0.8848  0.8874
  117MOL0     H15779   5.723   5.704   3.332 -1.4914 -0.2115  0.1205
  117MOL0     H15780   5.532   5.622   3.177  2.1064 -1.7426  2.4796
  117MOL0     H15781   4.887   6.938   2.217 -0.5250 -1.2796 -1.8971
  117MOL0     H15782   4.952   7.200   2.203  4.3125  1.8446  0.8661
  117MOL0     H15783   4.928   7.621   2.151  0.9729 -3.5980  0.9148
  117MOL0     H15784   5.024   7.824   2.254  2.1155  0.6504  0.0238
  117MOL0     H15785   5.444   7.866   2.346  1.3680  1.3753  0.0424
  117MOL0     H15786   5.436   7.892   2.171 -4.0101 -0.7489 -1.7859
  117MOL0     H15787   5.353   8.119   2.210  0.7181 -1.4709 -1.2400
  117MOL0     H15788   5.519   8.098   2.276 -0.3031  1.1379 -1.6463
  117MOL0     H15789   5.375   8.010   2.492 -1.4455 -1.2341 -1.6295
  117MOL0     H15790   5.245   8.094   2.424 -0.8743 -0.7325  1.4235
  117MOL0     H15791   5.321   8.285   2.513 -0.2410 -0.6257  2.9498
  117MOL0     H15792   5.466   8.280   2.419 -2.2495  2.5129  1.2507
  117MOL0     H15793   5.658   8.222   2.774 -2.0253 -1.4804  2.6571
  117MOL0     H15794   5.416   7.654   2.192 -0.1023  2.2833 -0.5976
  117MOL0     H15795   5.328   7.461   2.113 -0.0079  0.7265  0.2039
  118MOL0     O15796   5.978   3.403   9.195 -0.0753  0.2293 -1.0595
  118MOL0     C15797   5.965   3.453   9.087 -0.2190 -0.3587  1.4292
  118MOL0     O15798   5.886   3.564   9.060 -0.2021 -0.2528  1.0321
  118MOL0     C15799   5.833   3.640   9.167 -0.1635  0.1234 -0.1487
  118MOL0     C15800   5.908   3.697   9.265 -0.2598 -0.5528 -1.1271
  118MOL0     C15801   5.845   3.763   9.380  0.0358  0.7583  0.1554
  118MOL0     C15802   5.707   3.777   9.383  0.5359  0.4528 -0.6689
  118MOL0     O15803   5.657   3.828   9.505 -0.1149 -0.4501 -0.0422
  118MOL0     C15804   5.510   3.821   9.552  0.0774 -0.4041  0.4672
  118MOL0     C15805   5.495   3.770   9.695 -0.4022 -0.4027 -0.2289
  118MOL0     C15806   5.384   3.838   9.784 -0.0742 -0.3129 -0.1069
  118MOL0     C15807   5.267   3.750   9.762  0.3414 -0.9167  0.4485
  118MOL0     C15808   5.143   3.793   9.838 -0.5387  0.1809  0.4101
  118MOL0     C15809   5.010   3.755   9.763  1.1132  0.4395 -0.4338
  118MOL0     C15810   4.878   3.791   9.820 -0.5585 -0.7470  0.0112
  118MOL0     C15811   4.761   3.692   9.782 -0.0524  0.2783  0.8371
  118MOL0     N15812   4.737   3.701   9.637 -0.1172  0.4150  0.2825
  118MOL0     C15813   4.798   3.634   9.540 -0.1021  0.0828  0.1729
  118MOL0     C15814   4.744   3.676   9.426 -0.7235  0.0224 -0.5550
  118MOL0     C15815   4.822   3.652   9.289  0.3811 -0.1212  0.4931
  118MOL0     C15816   4.923   3.769   9.267  0.0626 -0.6003  0.2508
  118MOL0     C15817   4.992   3.748   9.132  1.1321 -0.5218 -0.2592
  118MOL0     C15818   5.082   3.867   9.113 -1.2422 -0.4146  0.1784
  118MOL0     O15819   5.004   3.992   9.103  0.2308  0.3422 -0.5352
  118MOL0     C15820   4.962   4.018   8.976 -0.2815  0.3529 -0.9711
  118MOL0     C15821   5.043   4.088   8.879  0.1225 -0.1705  0.9519
  118MOL0     C15822   4.988   4.105   8.750  0.0600 -0.1129  0.2585
  118MOL0     C15823   5.076   4.175   8.657 -0.6093  0.2162  0.3494
  118MOL0     C15824   4.856   4.067   8.715 -0.6850  0.3214 -0.0054
  118MOL0     C15825   4.798   4.071   8.574 -0.1485  0.2487 -0.6559
  118MOL0     O15826   4.663   4.091   8.580 -0.2724  0.0347  0.8103
  118MOL0     C15827   4.593   4.090   8.458 -0.0226  0.2042  0.3206
  118MOL0     C15828   4.627   4.033   8.335 -1.0940 -0.3544 -0.3365
  118MOL0     C15829   4.552   4.050   8.226 -0.4045  0.3314  0.2195
  118MOL0     C15830   4.438   4.132   8.220  0.6992 -0.3336 -0.2036
  118MOL0     O15831   4.379   4.144   8.093 -0.9246  0.0936  0.3205
  118MOL0     C15832   4.273   4.236   8.084 -0.4916  0.5056  0.2283
  118MOL0     C15833   4.258   4.261   7.929  0.1584  0.4354 -0.4679
  118MOL0     C15834   4.366   4.344   7.869  0.1758 -0.4539 -0.2267
  118MOL0     C15835   4.345   4.352   7.721  0.2762 -0.2258 -0.0938
  118MOL0     C15836   4.390   4.225   7.649 -0.6962  0.3614  0.4979
  118MOL0     C15837   4.448   4.281   7.510  0.2623 -0.0463  0.8015
  118MOL0     C15838   4.330   4.327   7.419 -0.2016  0.1498  0.4599
  118MOL0     C15839   4.374   4.399   7.285  0.0740  0.5009 -0.0442
  118MOL0    Cl15840   4.391   4.267   7.177  0.0041  0.8014  0.4774
  118MOL0     C15841   4.400   4.184   8.349 -0.1617 -1.6616  0.4908
  118MOL0     C15842   4.474   4.163   8.465 -0.6846 -1.8084  0.4179
  118MOL0     O15843   4.877   4.066   8.480 -0.1349 -0.2623  0.0141
  118MOL0     C15844   4.782   4.003   8.815 -0.1935  0.8123  0.0184
  118MOL0     C15845   4.835   3.973   8.940  0.6066 -0.9651 -0.1574
  118MOL0     N15846   4.664   3.784   9.450  0.1855  0.3505  0.0658
  118MOL0     N15847   4.653   3.791   9.582  0.5127  0.8784  0.0437
  118MOL0     C15848   5.626   3.724   9.280 -0.0210 -0.3762  0.2286
  118MOL0     C15849   5.696   3.660   9.171 -0.2851 -0.0885 -0.0925
  118MOL0     C15850   6.037   3.396   8.979 -1.0340  0.1178  0.4336
  118MOL0     C15851   6.021   3.441   8.848  0.5341  0.8421  1.1813
  118MOL0     C15852   6.096   3.383   8.748 -0.8807 -0.3524  0.6212
  118MOL0     C15853   6.198   3.289   8.777  0.2193 -0.5120  0.7208
  118MOL0     O15854   6.287   3.233   8.687 -0.2828 -0.3798  0.6775
  118MOL0     C15855   6.271   3.260   8.545 -0.7864  0.6188 -0.3047
  118MOL0     C15856   6.348   3.152   8.467  0.2810  0.4523  0.4978
  118MOL0     C15857   6.267   3.015   8.467 -0.0957  0.8522 -0.0052
  118MOL0     C15858   6.125   3.029   8.395  0.1544  0.0599  0.1968
  118MOL0     C15859   6.085   2.905   8.322 -0.9256  0.2318 -0.4889
  118MOL0     C15860   6.063   2.789   8.274 -1.0465  0.2688  0.7664
  118MOL0     C15861   6.201   3.231   8.906 -0.8549  0.3400  0.4062
  118MOL0     C15862   6.127   3.291   9.004  0.5002  0.5916  0.2268
  118MOL0     H15863   6.015   3.682   9.253  0.3880 -0.1540  2.7910
  118MOL0     H15864   5.894   3.795   9.472 -1.5869  4.8868 -0.2363
  118MOL0     H15865   5.470   3.923   9.541  0.4765 -0.4471 -1.7995
  118MOL0     H15866   5.450   3.755   9.489 -0.6495 -3.1991  3.7690
  118MOL0     H15867   5.497   3.661   9.702 -0.9247 -0.3203  2.4132
  118MOL0     H15868   5.589   3.802   9.742 -0.2198  0.0342 -0.8773
  118MOL0     H15869   5.406   3.844   9.890 -2.2303 -0.8747  0.4266
  118MOL0     H15870   5.369   3.938   9.742 -1.8084 -0.7858 -0.6892
  118MOL0     H15871   5.241   3.758   9.656 -2.8070  3.1985  1.2454
  118MOL0     H15872   5.292   3.649   9.794 -2.4076 -0.8482  3.2226
  118MOL0     H15873   5.133   3.741   9.933  5.0558 -2.0664  0.1392
  118MOL0     H15874   5.151   3.902   9.849  3.1301 -0.0024  0.7756
  118MOL0     H15875   5.016   3.782   9.657  2.1701 -0.7991 -0.7196
  118MOL0     H15876   5.012   3.646   9.766 -1.2059  0.3391  3.2052
  118MOL0     H15877   4.894   3.785   9.928  1.9948  1.8329 -0.1042
  118MOL0     H15878   4.857   3.898   9.810 -0.8500 -0.9277 -1.5295
  118MOL0     H15879   4.667   3.720   9.831 -2.3843 -1.9081 -1.9928
  118MOL0     H15880   4.778   3.587   9.810  0.7040  0.2740  0.3769
  118MOL0     H15881   4.875   3.560   9.555 -0.1853 -0.0590 -0.1059
  118MOL0     H15882   4.864   3.551   9.283  0.9364  0.1263  0.2265
  118MOL0     H15883   4.747   3.648   9.209  0.0992  1.3039  0.6594
  118MOL0     H15884   5.002   3.775   9.343  2.1958 -1.8751 -1.7240
  118MOL0     H15885   4.861   3.858   9.254  1.6781  0.2309 -2.5959
  118MOL0     H15886   4.915   3.731   9.056 -0.0461 -2.7098  1.3173
  118MOL0     H15887   5.046   3.653   9.127 -3.6029 -3.8508  3.1744
  118MOL0     H15888   5.123   3.851   9.013 -2.6024 -1.6151 -0.2110
  118MOL0     H15889   5.169   3.874   9.179 -0.2486 -0.3063 -1.1170
  118MOL0     H15890   5.138   4.125   8.915 -0.0891  1.5170 -0.1355
  118MOL0     H15891   5.154   4.232   8.709 -0.4789  1.9497 -1.6044
  118MOL0     H15892   5.136   4.118   8.586 -1.5411 -0.8160  0.3540
  118MOL0     H15893   5.024   4.254   8.601 -0.8808  1.5628  2.3719
  118MOL0     H15894   4.724   3.984   8.332  0.0818  1.8307  0.1673
  118MOL0     H15895   4.582   4.005   8.132  1.2876  5.1814 -1.8612
  118MOL0     H15896   4.183   4.192   8.126 -0.3885 -0.6210 -0.6884
  118MOL0     H15897   4.285   4.329   8.141 -1.0917  0.8939 -0.2604
  118MOL0     H15898   4.257   4.159   7.888 -1.9260  0.9540 -1.8320
  118MOL0     H15899   4.165   4.318   7.921 -0.2306 -0.2001 -0.5310
  118MOL0     H15900   4.466   4.304   7.888  0.8695  1.3175  0.0955
  118MOL0     H15901   4.374   4.445   7.911 -0.3809 -0.6802  0.4400
  118MOL0     H15902   4.239   4.363   7.693  0.7527  3.0523 -0.9783
  118MOL0     H15903   4.393   4.447   7.696  0.4824 -0.7884 -2.0443
  118MOL0     H15904   4.300   4.164   7.646 -0.9250  0.7363 -0.9280
  118MOL0     H15905   4.467   4.161   7.694 -2.7186 -0.3704  3.1291
  118MOL0     H15906   4.531   4.351   7.519 -0.4121  1.0241 -0.7746
  118MOL0     H15907   4.498   4.192   7.471 -1.3383 -0.6456  0.0285
  118MOL0     H15908   4.289   4.409   7.478 -2.0651 -1.2402  1.1991
  118MOL0     H15909   4.266   4.242   7.393 -0.4482 -0.0768  1.7679
  118MOL0     H15910   4.471   4.448   7.292  1.2788 -1.8800  1.3639
  118MOL0     H15911   4.298   4.470   7.248  0.9129  1.4484  0.0233
  118MOL0     H15912   4.311   4.244   8.353  1.3243  0.8176 -1.1529
  118MOL0     H15913   4.451   4.226   8.550  0.3802  2.0955 -1.8981
  118MOL0     H15914   4.690   3.951   8.789  0.9696 -0.8701 -0.9449
  118MOL0     H15915   4.781   3.918   9.016 -3.5619  0.8609 -1.5260
  118MOL0     H15916   5.519   3.738   9.267 -0.2579 -3.1649 -1.9532
  118MOL0     H15917   5.625   3.630   9.094 -1.2802  1.6443  0.1068
  118MOL0     H15918   5.948   3.520   8.836  1.0246  0.9716 -1.3987
  118MOL0     H15919   6.078   3.429   8.652 -0.6289 -0.1958  0.6492
  118MOL0     H15920   6.172   3.276   8.501 -1.0860 -1.1827 -0.3545
  118MOL0     H15921   6.335   3.347   8.524 -0.3473 -0.1527 -2.4307
  118MOL0     H15922   6.437   3.131   8.528 -1.0680  1.7551  3.0998
  118MOL0     H15923   6.365   3.188   8.365  1.6715  1.7384  1.1438
  118MOL0     H15924   6.259   2.975   8.568  1.4255 -3.0183 -1.2603
  118MOL0     H15925   6.323   2.946   8.403  0.9595  3.3957 -2.0402
  118MOL0     H15926   6.123   3.110   8.322  1.0730 -0.5594 -0.5373
  118MOL0     H15927   6.042   3.049   8.464 -0.1502 -0.7478  0.0723
  118MOL0     H15928   6.028   2.694   8.237 -0.3063  0.5269 -0.6481
  118MOL0     H15929   6.272   3.153   8.934 -0.3014  0.6067 -0.2117
  118MOL0     H15930   6.152   3.266   9.107 -3.7982  0.7272  1.4915
  119MOL0     O15931   1.930   5.635   5.981 -0.0251  0.1966  0.3315
  119MOL0     C15932   2.046   5.681   5.954 -0.0942  0.2134 -0.2183
  119MOL0     O15933   2.066   5.815   5.922 -0.3060  0.0767 -0.4899
  119MOL0     C15934   1.955   5.887   5.916  1.1514 -0.5029  0.6536
  119MOL0     C15935   1.911   5.952   6.029  0.0949  0.3508 -1.1953
  119MOL0     C15936   1.784   6.007   6.035 -0.7015 -0.5558 -0.3745
  119MOL0     C15937   1.706   6.008   5.920  0.6646  0.4983  0.2688
  119MOL0     O15938   1.579   6.055   5.920  0.0497  0.3410  0.5069
  119MOL0     C15939   1.486   6.032   6.032  0.2274  0.6361 -0.3243
  119MOL0     C15940   1.466   6.156   6.123 -0.6184  0.1087 -0.4439
  119MOL0     C15941   1.384   6.132   6.256  0.7870 -0.5091  0.2592
  119MOL0     C15942   1.453   6.045   6.362  0.3076  0.0050 -0.4059
  119MOL0     C15943   1.362   5.980   6.473  0.3097 -0.0671 -0.1831
  119MOL0     C15944   1.276   6.077   6.558  0.5277  0.0679 -0.0363
  119MOL0     C15945   1.190   6.006   6.658  0.5765 -0.4992 -0.0988
  119MOL0     C15946   1.073   6.094   6.711  0.5275  0.6473  0.2656
  119MOL0     N15947   0.952   6.131   6.630  0.1419 -0.8144  0.1528
  119MOL0     C15948   0.871   6.236   6.665 -0.2733  0.1268 -0.9767
  119MOL0     C15949   0.814   6.288   6.554  0.0364  0.9487 -0.4945
  119MOL0     C15950   0.720   6.408   6.554  0.1845 -0.1959 -0.5251
  119MOL0     C15951   0.590   6.393   6.646 -0.3342 -0.0799 -0.5325
  119MOL0     C15952   0.506   6.266   6.645 -0.7740 -0.8765 -1.1052
  119MOL0     C15953   0.484   6.217   6.509 -0.1879 -1.0035 -0.3214
  119MOL0     O15954   0.360   6.146   6.510  0.3374  0.6592 -0.1803
  119MOL0     C15955   0.313   6.097   6.400  0.5391 -0.3628 -0.2654
  119MOL0     C15956   0.386   6.054   6.294 -0.5227  0.0123 -1.0215
  119MOL0     C15957   0.326   6.016   6.173 -0.2444  0.2857 -1.1466
  119MOL0     C15958   0.426   6.011   6.056  0.9125 -0.0648 -0.0278
  119MOL0     C15959   0.194   5.997   6.163  1.2813 -0.2637 -0.6473
  119MOL0     C15960   0.110   5.957   6.042  0.2410 -0.1122 -0.2063
  119MOL0     O15961  -0.020   5.947   6.069  0.4995  0.7780 -0.4661
  119MOL0     C15962  -0.113   5.904   5.977  0.3213  1.0725 -0.2666
  119MOL0     C15963  -0.092   5.787   5.901  0.4533  0.0027  0.7578
  119MOL0     C15964  -0.178   5.751   5.797 -0.3460 -0.0465 -0.1255
  119MOL0     C15965  -0.294   5.825   5.771 -0.3276  0.2904 -0.2982
  119MOL0     O15966  -0.374   5.783   5.670 -0.4957 -0.0364  0.3842
  119MOL0     C15967  -0.439   5.886   5.586 -0.1746 -0.8078 -0.0246
  119MOL0     C15968  -0.456   5.832   5.446 -0.0612  0.4066  0.8928
  119MOL0     C15969  -0.565   5.900   5.353 -0.1864  0.1594 -0.1068
  119MOL0     C15970  -0.550   5.835   5.221  0.2996  0.0999 -0.0495
  119MOL0     C15971  -0.690   5.828   5.152 -0.3107  0.3315 -0.4820
  119MOL0     C15972  -0.673   5.757   5.017  0.0088  0.0401  0.2763
  119MOL0     C15973  -0.623   5.867   4.919  0.4234 -0.5339 -1.5280
  119MOL0     C15974  -0.635   5.822   4.778 -0.9819  0.5369  0.8165
  119MOL0    Cl15975  -0.808   5.795   4.715  0.1222 -0.2870  0.2706
  119MOL0     C15976  -0.309   5.951   5.844  0.3541  0.2721 -0.3343
  119MOL0     C15977  -0.219   5.985   5.947  0.5028  0.3747  0.1494
  119MOL0     O15978   0.167   5.924   5.934  0.3894  0.2673  0.8149
  119MOL0     C15979   0.119   6.025   6.279  0.1875 -0.7167  0.2728
  119MOL0     C15980   0.175   6.089   6.392 -0.3184 -0.0701  0.8021
  119MOL0     N15981   0.853   6.201   6.456  0.2020  1.1766 -0.3754
  119MOL0     N15982   0.933   6.111   6.491 -0.6357  0.5022 -0.6498
  119MOL0     C15983   1.752   5.959   5.803  0.2829 -0.2266  0.3278
  119MOL0     C15984   1.879   5.898   5.798  0.3067  0.2664 -0.8226
  119MOL0     C15985   2.165   5.587   5.953  0.9225 -0.1437  0.0041
  119MOL0     C15986   2.290   5.632   5.955  0.6521 -1.1063  0.3793
  119MOL0     C15987   2.401   5.546   5.966  0.0874  0.5776  0.0037
  119MOL0     C15988   2.389   5.402   5.984 -0.9029 -0.2879 -0.0863
  119MOL0     O15989   2.490   5.303   5.992  0.1662  0.5997 -0.3908
  119MOL0     C15990   2.624   5.335   6.002 -0.9196  0.3340  0.2066
  119MOL0     C15991   2.710   5.252   5.911 -0.0760 -0.0048  0.0635
  119MOL0     C15992   2.846   5.216   5.969 -0.6138  0.6806 -0.9832
  119MOL0     C15993   2.928   5.341   6.029  0.6163 -0.2596 -0.1660
  119MOL0     C15994   2.948   5.447   5.929 -0.3170  0.1955 -0.1855
  119MOL0     C15995   2.977   5.538   5.854 -0.4254 -0.0389 -0.3191
  119MOL0     C15996   2.255   5.356   5.982  0.8741 -1.1374 -0.4988
  119MOL0     C15997   2.140   5.449   5.966 -0.4734 -0.4176 -0.0287
  119MOL0     H15998   1.974   5.951   6.118  1.2725 -0.9631 -2.0013
  119MOL0     H15999   1.753   6.042   6.133 -2.7049 -1.9154 -0.4743
  119MOL0     H16000   1.385   6.018   5.993 -0.2234  0.1875  0.9569
  119MOL0     H16001   1.513   5.938   6.081 -1.8980 -0.3671 -0.9491
  119MOL0     H16002   1.562   6.193   6.162 -1.3785  0.3122  1.3413
  119MOL0     H16003   1.428   6.243   6.070 -2.4509 -0.6142 -0.3996
  119MOL0     H16004   1.353   6.223   6.307 -1.1823 -0.1579 -1.4649
  119MOL0     H16005   1.294   6.080   6.222 -0.9095  2.4133 -0.0047
  119MOL0     H16006   1.504   5.962   6.314  1.5447 -0.6502  1.9052
  119MOL0     H16007   1.530   6.109   6.407 -1.0115  2.8728 -1.9262
  119MOL0     H16008   1.308   5.891   6.441  1.0615 -2.2299  3.8861
  119MOL0     H16009   1.438   5.943   6.543 -0.8094  0.8417  1.5906
  119MOL0     H16010   1.339   6.158   6.596  0.3896 -0.0089  0.3697
  119MOL0     H16011   1.201   6.138   6.507  2.4951  1.4340 -1.4357
  119MOL0     H16012   1.147   5.914   6.618 -2.7288  1.3206 -1.0884
  119MOL0     H16013   1.262   5.981   6.737 -2.2058 -0.1851  2.7601
  119MOL0     H16014   1.115   6.188   6.750 -1.6013  1.4193  0.8435
  119MOL0     H16015   1.031   6.037   6.794 -0.8087 -1.9455 -2.0637
  119MOL0     H16016   0.861   6.275   6.765 -3.5743 -1.4838 -0.5341
  119MOL0     H16017   0.794   6.482   6.586  1.3132 -0.1665 -2.9813
  119MOL0     H16018   0.698   6.419   6.447  0.2926 -0.8752 -0.6197
  119MOL0     H16019   0.526   6.479   6.624 -1.5931 -0.9029 -0.1579
  119MOL0     H16020   0.622   6.418   6.747  1.6525  1.1058 -1.3894
  119MOL0     H16021   0.408   6.305   6.673 -2.0013 -2.7896 -2.5331
  119MOL0     H16022   0.546   6.193   6.716 -0.0904  1.7206  1.3841
  119MOL0     H16023   0.577   6.173   6.473  1.9191  1.8928  1.0909
  119MOL0     H16024   0.474   6.301   6.439  1.3208 -0.9915 -0.5559
  119MOL0     H16025   0.493   6.071   6.283 -0.3830 -0.1681  0.0056
  119MOL0     H16026   0.493   5.925   6.071  1.0029 -0.4295 -2.1916
  119MOL0     H16027   0.373   5.997   5.961 -0.2527  1.4762  0.3626
  119MOL0     H16028   0.485   6.103   6.059  0.8348  0.0226  3.9719
  119MOL0     H16029  -0.002   5.727   5.909  2.0085  1.7718 -1.8712
  119MOL0     H16030  -0.174   5.662   5.735 -3.6690 -1.7439  1.8256
  119MOL0     H16031  -0.538   5.902   5.630 -0.4887 -1.1237 -0.6051
  119MOL0     H16032  -0.374   5.974   5.583 -1.5370  0.2542  0.0823
  119MOL0     H16033  -0.357   5.839   5.401 -0.0726 -1.9760  0.3668
  119MOL0     H16034  -0.465   5.724   5.460  0.7637  0.1427 -0.4870
  119MOL0     H16035  -0.547   6.007   5.356  0.6767  0.0099  0.7264
  119MOL0     H16036  -0.663   5.877   5.395  0.6063  0.6649  2.1851
  119MOL0     H16037  -0.484   5.900   5.162  1.9123 -0.0821  1.4767
  119MOL0     H16038  -0.485   5.747   5.221  3.1433  2.0039 -2.0637
  119MOL0     H16039  -0.756   5.915   5.144 -0.9531  0.1850  2.2665
  119MOL0     H16040  -0.751   5.775   5.226 -4.8370  1.4575 -3.0146
  119MOL0     H16041  -0.600   5.677   5.030  0.6145  0.1932 -1.8188
  119MOL0     H16042  -0.764   5.711   4.978  0.4262 -1.4634  1.0183
  119MOL0     H16043  -0.518   5.892   4.934  0.1893 -0.0856 -0.5574
  119MOL0     H16044  -0.685   5.957   4.929  1.3247 -0.1401  2.0825
  119MOL0     H16045  -0.577   5.731   4.763 -1.3450  0.2199  1.3157
  119MOL0     H16046  -0.598   5.908   4.720 -2.8837 -0.2617 -1.7801
  119MOL0     H16047  -0.394   6.013   5.817  0.0247 -0.6893 -1.6408
  119MOL0     H16048  -0.232   6.084   5.988  0.2229  0.8637 -1.0808
  119MOL0     H16049   0.011   6.014   6.287 -0.1304  0.5290 -1.5736
  119MOL0     H16050   0.110   6.120   6.473 -2.1832 -0.3748 -0.5260
  119MOL0     H16051   1.693   5.955   5.712  2.1483  0.3622 -0.9701
  119MOL0     H16052   1.918   5.856   5.706 -2.0505  0.4271 -1.9842
  119MOL0     H16053   2.304   5.739   5.953 -4.7062 -0.1472 -2.0550
  119MOL0     H16054   2.504   5.578   5.982 -0.2786  1.9841 -0.3798
  119MOL0     H16055   2.648   5.436   5.968  1.5723 -0.2379  0.0794
  119MOL0     H16056   2.660   5.320   6.104  3.1239  0.5450 -1.0089
  119MOL0     H16057   2.708   5.293   5.810 -4.4378 -1.0182 -0.4599
  119MOL0     H16058   2.663   5.154   5.898  0.3532 -0.0867 -0.9598
  119MOL0     H16059   2.907   5.182   5.885 -1.5251 -0.6611 -1.1226
  119MOL0     H16060   2.843   5.129   6.036 -0.5275  0.1014 -1.7228
  119MOL0     H16061   3.029   5.306   6.052  0.9166 -0.5623 -1.8047
  119MOL0     H16062   2.882   5.387   6.117  0.8832  3.4050 -1.7726
  119MOL0     H16063   2.989   5.606   5.772  2.2954  0.2821  0.2774
  119MOL0     H16064   2.236   5.249   5.992  2.2176 -1.1660  2.9327
  119MOL0     H16065   2.034   5.430   5.960 -0.6456  0.8377 -1.5290
  120MOL0     O16066   7.050   5.970  11.382  0.6122 -0.4718 -0.0663
  120MOL0     C16067   6.971   5.875  11.364  0.5477 -0.9206  1.1767
  120MOL0     O16068   6.864   5.876  11.272  0.1172 -0.1999 -0.5428
  120MOL0     C16069   6.842   5.986  11.188 -0.6545  0.4706 -1.0654
  120MOL0     C16070   6.796   5.957  11.058 -0.3369 -0.2372  0.3343
  120MOL0     C16071   6.757   6.063  10.965  0.6983 -0.1755  0.0170
  120MOL0     C16072   6.759   6.195  11.007  0.4239  0.6254  0.1445
  120MOL0     O16073   6.736   6.302  10.930  0.1643  0.3985 -0.0106
  120MOL0     C16074   6.606   6.308  10.882  0.2759  0.2104 -0.2018
  120MOL0     C16075   6.596   6.404  10.762 -0.8880  0.0997  0.2888
  120MOL0     C16076   6.464   6.476  10.744  0.4194 -0.1949  0.6209
  120MOL0     C16077   6.487   6.591  10.638 -0.4156  0.3906 -0.1003
  120MOL0     C16078   6.397   6.716  10.652  0.4071 -0.2694  0.1821
  120MOL0     C16079   6.240   6.712  10.610  0.4109 -0.4948  0.4962
  120MOL0     C16080   6.167   6.846  10.610  0.5997  0.2524 -0.7099
  120MOL0     C16081   6.242   6.957  10.533 -0.4017 -0.4210 -0.0208
  120MOL0     N16082   6.156   7.073  10.500  0.2278 -0.2753 -0.2747
  120MOL0     C16083   6.116   7.108  10.370 -0.3043 -0.4430 -0.7255
  120MOL0     C16084   6.029   7.210  10.395  0.4418  0.0403  0.2228
  120MOL0     C16085   5.937   7.284  10.297 -0.4096  0.3436  0.5182
  120MOL0     C16086   5.933   7.212  10.151 -0.0255  0.0956  0.1533
  120MOL0     C16087   5.949   7.296  10.024  0.3741  0.4731 -0.2395
  120MOL0     C16088   5.828   7.383  10.009 -0.5744  0.3410 -0.6816
  120MOL0     O16089   5.705   7.313  10.014 -0.5994 -0.4479 -0.3105
  120MOL0     C16090   5.609   7.368  10.097  0.4156  0.3114 -0.8795
  120MOL0     C16091   5.553   7.496  10.077  0.0002 -0.3486  0.4853
  120MOL0     C16092   5.461   7.549  10.166 -0.7970 -0.5180 -0.1132
  120MOL0     C16093   5.431   7.692  10.137  0.1271 -0.1768  0.4411
  120MOL0     C16094   5.407   7.471  10.274  0.8294 -0.0670 -0.2519
  120MOL0     C16095   5.310   7.508  10.377  0.6212 -0.1381  0.4862
  120MOL0     O16096   5.298   7.425  10.484  0.0197  0.1872  0.1696
  120MOL0     C16097   5.179   7.435  10.555 -0.5904  0.2052  0.7699
  120MOL0     C16098   5.172   7.552  10.642 -0.6427 -0.3822  0.0011
  120MOL0     C16099   5.068   7.559  10.725 -0.4285  0.7995 -0.6207
  120MOL0     C16100   4.982   7.447  10.747 -0.5606 -0.1539  0.0822
  120MOL0     O16101   4.903   7.433  10.860 -0.3823  0.6367  0.0887
  120MOL0     C16102   4.955   7.494  10.979  0.0179  0.7545 -0.3952
  120MOL0     C16103   4.873   7.453  11.108 -0.3850  0.3666  0.2243
  120MOL0     C16104   4.888   7.303  11.129 -0.7552  0.3565  0.4936
  120MOL0     C16105   4.980   7.277  11.245  0.1068 -0.0265 -0.8943
  120MOL0     C16106   5.126   7.282  11.204  0.7772  0.1308 -0.0735
  120MOL0     C16107   5.239   7.286  11.312 -0.7131  0.0121 -0.2368
  120MOL0     C16108   5.374   7.295  11.240  0.4496  0.5645 -0.0603
  120MOL0     C16109   5.475   7.364  11.332 -0.9148  0.4054 -0.4597
  120MOL0    Cl16110   5.490   7.296  11.501  0.1447 -0.0656  0.6302
  120MOL0     C16111   4.982   7.355  10.647  0.4317 -0.5011 -1.0326
  120MOL0     C16112   5.082   7.345  10.559  0.0946 -0.2576  0.4037
  120MOL0     O16113   5.241   7.597  10.345  0.6230  0.0754  0.2489
  120MOL0     C16114   5.452   7.337  10.287 -0.2962  0.7547  1.0678
  120MOL0     C16115   5.545   7.294  10.202 -0.4837  0.6462  0.5779
  120MOL0     N16116   6.022   7.242  10.526  0.7459 -0.3492 -0.0664
  120MOL0     N16117   6.092   7.152  10.588  0.1148  0.1978  0.4203
  120MOL0     C16118   6.781   6.218  11.144  0.3042  0.4099  0.6758
  120MOL0     C16119   6.840   6.115  11.228  0.0745 -0.2458  0.3305
  120MOL0     C16120   6.985   5.745  11.432 -0.8127  0.5654 -1.4582
  120MOL0     C16121   7.071   5.739  11.537  0.7632  0.6772  0.4886
  120MOL0     C16122   7.092   5.613  11.608  0.2350 -0.1746  0.3964
  120MOL0     C16123   7.011   5.496  11.579 -1.2089 -0.6344  0.6475
  120MOL0     O16124   7.018   5.373  11.635 -0.6291 -0.1280  0.1461
  120MOL0     C16125   7.065   5.356  11.762  0.6309  0.4796 -0.6325
  120MOL0     C16126   6.995   5.231  11.837  0.8773 -0.8132  0.3081
  120MOL0     C16127   6.836   5.261  11.831 -0.8367 -0.2682  0.0923
  120MOL0     C16128   6.770   5.116  11.815  0.5870 -0.4346  0.4637
  120MOL0     C16129   6.793   5.053  11.682 -0.3396  0.7435 -0.5100
  120MOL0     C16130   6.790   5.047  11.558 -0.5321 -1.1739  0.3017
  120MOL0     C16131   6.906   5.515  11.492  0.0811  0.0893  0.2033
  120MOL0     C16132   6.909   5.630  11.411  0.3841  0.1463  0.6256
  120MOL0     H16133   6.801   5.851  11.035  3.0672 -0.1851  0.2451
  120MOL0     H16134   6.724   6.031  10.867  0.3939  0.7013 -0.1778
  120MOL0     H16135   6.576   6.206  10.858 -0.8012  0.4285  0.1743
  120MOL0     H16136   6.539   6.347  10.960 -0.1816  1.9375 -1.4052
  120MOL0     H16137   6.677   6.474  10.785  0.9322 -2.3623  1.8619
  120MOL0     H16138   6.622   6.342  10.675 -1.0578  0.8166 -0.2872
  120MOL0     H16139   6.381   6.409  10.720 -1.7092  3.2579 -2.7723
  120MOL0     H16140   6.441   6.518  10.842 -0.2537  2.2158 -0.4735
  120MOL0     H16141   6.593   6.613  10.628 -0.5399 -0.0407 -3.9694
  120MOL0     H16142   6.476   6.561  10.533  1.3280 -1.2128  0.1240
  120MOL0     H16143   6.407   6.735  10.760  0.7453 -2.5897  0.6075
  120MOL0     H16144   6.443   6.793  10.589 -2.3261  0.1164 -1.5223
  120MOL0     H16145   6.262   6.675  10.509  3.0267  2.3468 -0.1255
  120MOL0     H16146   6.183   6.643  10.673  0.8413 -0.2728  1.1335
  120MOL0     H16147   6.079   6.826  10.549 -0.4869  0.2522  0.8135
  120MOL0     H16148   6.141   6.882  10.710 -0.0064  1.5174 -1.3032
  120MOL0     H16149   6.276   6.916  10.438 -1.0177  0.8303 -0.8041
  120MOL0     H16150   6.329   7.000  10.584 -0.6708 -1.1491  1.1064
  120MOL0     H16151   6.138   7.060  10.274  6.1759  0.1611 -0.0332
  120MOL0     H16152   5.836   7.290  10.340  0.1541 -2.1524  2.4792
  120MOL0     H16153   5.977   7.384  10.283  0.4714 -0.0714  0.0559
  120MOL0     H16154   5.861   7.130  10.158  1.3665 -1.2625 -0.7056
  120MOL0     H16155   6.026   7.154  10.146  0.2153  0.3644  1.1800
  120MOL0     H16156   5.954   7.223   9.942  1.8909  1.4955 -1.1078
  120MOL0     H16157   6.038   7.360  10.031  0.9638 -0.5075  4.2239
  120MOL0     H16158   5.835   7.438   9.915  2.3046  2.0656  0.4337
  120MOL0     H16159   5.821   7.470  10.075 -1.6093 -0.7284  0.7021
  120MOL0     H16160   5.587   7.560   9.996 -1.1527 -2.2520 -1.6166
  120MOL0     H16161   5.448   7.753  10.226  1.9036 -0.3553  0.2448
  120MOL0     H16162   5.488   7.734  10.054 -1.9026 -0.9151 -1.4225
  120MOL0     H16163   5.325   7.703  10.110 -0.0481  0.8903  1.4939
  120MOL0     H16164   5.251   7.626  10.631 -0.2680 -0.8711 -0.6624
  120MOL0     H16165   5.070   7.646  10.790 -0.7096 -0.0929  0.6153
  120MOL0     H16166   5.062   7.469  10.980 -0.7689 -3.2281  1.8169
  120MOL0     H16167   4.956   7.602  10.962 -0.1000  0.7974 -0.1318
  120MOL0     H16168   4.913   7.523  11.182 -0.4256  2.8509 -1.9766
  120MOL0     H16169   4.769   7.474  11.082  0.2571  1.2167 -1.7991
  120MOL0     H16170   4.919   7.242  11.044  0.5268  0.4635  0.8562
  120MOL0     H16171   4.793   7.272  11.173 -0.3075 -1.0219  0.5258
  120MOL0     H16172   4.961   7.341  11.332  2.0579 -0.0062 -0.4409
  120MOL0     H16173   4.960   7.175  11.279  0.7082  0.1332 -0.0176
  120MOL0     H16174   5.138   7.363  11.131 -1.3957 -0.5185 -1.2308
  120MOL0     H16175   5.142   7.203  11.131  2.4206  0.7807 -0.4608
  120MOL0     H16176   5.232   7.376  11.374  2.8939  0.7500 -0.6781
  120MOL0     H16177   5.238   7.193  11.369  1.3340  0.0944 -0.0108
  120MOL0     H16178   5.364   7.341  11.141  1.8733  1.0711  0.0102
  120MOL0     H16179   5.408   7.194  11.218  1.8299  0.7479  1.1128
  120MOL0     H16180   5.454   7.471  11.341 -2.2592  0.0811  0.5853
  120MOL0     H16181   5.570   7.354  11.278 -1.7112  0.0446 -1.8700
  120MOL0     H16182   4.898   7.286  10.651 -0.5240  0.5181 -2.3777
  120MOL0     H16183   5.068   7.262  10.490 -3.8771  0.3965  0.1831
  120MOL0     H16184   5.417   7.262  10.357 -0.9936  1.1723  1.1777
  120MOL0     H16185   5.586   7.194  10.208 -1.7313  0.1029  0.1815
  120MOL0     H16186   6.779   6.322  11.173 -1.8000  1.6592 -3.2552
  120MOL0     H16187   6.880   6.152  11.323  4.7043 -2.9944 -0.2117
  120MOL0     H16188   7.130   5.820  11.580  1.9608 -0.6076  1.4069
  120MOL0     H16189   7.162   5.604  11.690 -1.2912  0.2647  1.7950
  120MOL0     H16190   7.170   5.323  11.758  0.1044 -1.2460 -0.8583
  120MOL0     H16191   7.057   5.452  11.814 -1.1192  0.0451 -0.0465
  120MOL0     H16192   7.024   5.243  11.942  0.3261  4.3681  0.1372
  120MOL0     H16193   7.016   5.137  11.787 -1.9524 -1.1415 -0.4718
  120MOL0     H16194   6.802   5.325  11.748 -2.5689  0.9088  1.6296
  120MOL0     H16195   6.809   5.303  11.928 -0.8725 -0.5534  0.2053
  120MOL0     H16196   6.663   5.136  11.830 -0.1223 -2.4497 -1.3387
  120MOL0     H16197   6.803   5.055  11.900 -0.2822  0.2353  1.3158
  120MOL0     H16198   6.784   5.023  11.454  1.0820 -1.9871  0.3657
  120MOL0     H16199   6.851   5.422  11.476  3.5125 -2.1714  0.4297
  120MOL0     H16200   6.841   5.630  11.327  0.3619 -3.1836  0.4856
  121MOL0     O16201  10.662   2.420   8.452  0.5624 -0.9065  0.8811
  121MOL0     C16202  10.668   2.311   8.507 -0.7513 -0.0211 -0.1669
  121MOL0     O16203  10.554   2.229   8.547  0.9715  0.3667  0.1095
  121MOL0     C16204  10.430   2.253   8.487  0.0497  0.3180  0.2213
  121MOL0     C16205  10.318   2.287   8.567  0.4234  0.5761 -0.4016
  121MOL0     C16206  10.201   2.319   8.502 -0.4844  0.2591  0.5484
  121MOL0     C16207  10.190   2.331   8.364  1.0334  0.1699  0.5236
  121MOL0     O16208  10.068   2.361   8.304 -0.4782  0.3775  0.3539
  121MOL0     C16209  10.033   2.278   8.199 -0.1835  1.1331  0.0432
  121MOL0     C16210   9.892   2.239   8.206 -0.1337 -0.6549 -0.5582
  121MOL0     C16211   9.837   2.166   8.088  0.0139 -0.2973  0.5368
  121MOL0     C16212   9.682   2.147   8.089  0.8374  0.5418 -0.3591
  121MOL0     C16213   9.650   2.040   7.992  0.0204 -0.2746  0.8035
  121MOL0     C16214   9.557   2.112   7.893  0.0880  0.1993 -0.3177
  121MOL0     C16215   9.624   2.205   7.793  0.1247 -0.1908 -0.7551
  121MOL0     C16216   9.554   2.216   7.660  0.4481  0.2675 -0.3113
  121MOL0     N16217   9.582   2.103   7.576  0.1356 -0.1902  0.3324
  121MOL0     C16218   9.706   2.040   7.559  0.1989 -0.4087 -0.5541
  121MOL0     C16219   9.673   1.919   7.506 -0.4762  1.0060 -1.0877
  121MOL0     C16220   9.778   1.816   7.476  0.0293 -1.4328  0.0585
  121MOL0     C16221   9.794   1.799   7.324  0.6656 -0.3505 -0.5110
  121MOL0     C16222   9.680   1.723   7.258  0.1160  0.3398 -0.2857
  121MOL0     C16223   9.650   1.582   7.311  0.8375 -0.3615  0.2193
  121MOL0     O16224   9.601   1.522   7.197  0.9987 -0.3208 -0.8212
  121MOL0     C16225   9.578   1.386   7.199 -0.1465 -0.0799  0.4813
  121MOL0     C16226   9.557   1.323   7.071  0.9798 -0.5737 -1.1723
  121MOL0     C16227   9.517   1.198   7.053 -0.1066  0.1013  0.0882
  121MOL0     C16228   9.480   1.151   6.913  0.1020 -0.2096  0.7367
  121MOL0     C16229   9.523   1.104   7.159 -0.8525 -0.0533 -0.8995
  121MOL0     C16230   9.500   0.962   7.147  0.2292 -0.4813  0.1642
  121MOL0     O16231   9.458   0.897   7.264 -1.1806 -0.5144  0.5138
  121MOL0     C16232   9.458   0.760   7.260  0.0084 -1.3629  0.9185
  121MOL0     C16233   9.564   0.683   7.314  0.3939  0.6348  0.1081
  121MOL0     C16234   9.554   0.544   7.317  1.1502  0.2090  1.2635
  121MOL0     C16235   9.444   0.470   7.269 -0.0202 -0.3734 -0.2310
  121MOL0     O16236   9.450   0.328   7.272 -0.5887 -0.9795  0.8362
  121MOL0     C16237   9.320   0.265   7.290  0.0071 -0.2317 -0.5067
  121MOL0     C16238   9.263   0.294   7.436  0.8974  0.1547 -0.0209
  121MOL0     C16239   9.311   0.206   7.550  0.3246 -0.2454  0.0562
  121MOL0     C16240   9.254   0.066   7.550  0.0552  0.7092 -0.0775
  121MOL0     C16241   9.326  -0.031   7.648  0.3016 -0.5808 -0.0285
  121MOL0     C16242   9.242  -0.166   7.660  0.3061 -0.5900 -0.8861
  121MOL0     C16243   9.306  -0.265   7.760  0.8817  0.3726 -0.4748
  121MOL0     C16244   9.310  -0.215   7.911  0.7459 -0.0890 -0.2379
  121MOL0    Cl16245   9.156  -0.240   8.012 -0.0068  0.5440  0.1751
  121MOL0     C16246   9.356   0.547   7.193 -0.4408 -0.0259 -0.3721
  121MOL0     C16247   9.355   0.690   7.186 -0.2957 -1.4382 -0.2833
  121MOL0     O16248   9.509   0.906   7.036 -0.4819 -0.1943 -0.5928
  121MOL0     C16249   9.566   1.154   7.289  0.8198  0.8982 -0.8024
  121MOL0     C16250   9.587   1.296   7.309 -1.1797  1.5159 -0.0031
  121MOL0     N16251   9.540   1.906   7.499 -0.0390 -0.1667  0.6359
  121MOL0     N16252   9.482   2.015   7.530  0.3339 -0.5073  0.2826
  121MOL0     C16253  10.300   2.307   8.288 -0.1281  0.3818  0.9618
  121MOL0     C16254  10.426   2.273   8.346 -0.2432 -0.8791 -0.1500
  121MOL0     C16255  10.803   2.240   8.521  0.3989 -0.7524  0.6924
  121MOL0     C16256  10.813   2.110   8.571  0.1528 -0.9093  0.1832
  121MOL0     C16257  10.939   2.058   8.611 -0.1592  0.0277  0.3072
  121MOL0     C16258  11.063   2.121   8.595  0.1114 -0.2147 -0.7358
  121MOL0     O16259  11.170   2.068   8.660 -0.6351  0.0659 -0.4096
  121MOL0     C16260  11.281   2.148   8.716  0.0116 -1.1873 -0.6645
  121MOL0     C16261  11.413   2.078   8.773 -0.2772 -0.9811  1.4319
  121MOL0     C16262  11.385   1.961   8.864 -0.7111 -0.6039 -0.3508
  121MOL0     C16263  11.507   1.869   8.892  0.3514  0.5033 -0.6081
  121MOL0     C16264  11.635   1.946   8.922 -0.5888 -0.4196  0.6267
  121MOL0     C16265  11.741   2.004   8.923  0.3580  0.4503 -0.4205
  121MOL0     C16266  11.053   2.247   8.535  0.4804 -0.1791 -0.8139
  121MOL0     C16267  10.926   2.307   8.494 -0.1892 -0.3280 -0.0411
  121MOL0     H16268  10.338   2.283   8.674  2.3488  4.3243 -0.4139
  121MOL0     H16269  10.117   2.338   8.568 -1.7666  1.3530 -1.3124
  121MOL0     H16270  10.053   2.331   8.105  0.1334  0.6209 -0.1866
  121MOL0     H16271  10.097   2.189   8.195  0.1450  1.2689  1.7725
  121MOL0     H16272   9.867   2.192   8.302 -1.9884  4.0993  1.6152
  121MOL0     H16273   9.834   2.332   8.205  0.8201 -0.0417 -0.7409
  121MOL0     H16274   9.873   2.214   7.996  1.9747 -1.7458  0.4649
  121MOL0     H16275   9.870   2.062   8.096 -0.3172 -0.2594  3.0498
  121MOL0     H16276   9.646   2.110   8.185  2.0675 -1.9960 -0.8037
  121MOL0     H16277   9.631   2.243   8.070 -2.0071 -0.0909  3.0199
  121MOL0     H16278   9.742   2.008   7.943  0.6380 -2.5639  3.2339
  121MOL0     H16279   9.590   1.965   8.045 -3.6798  1.4052 -0.6373
  121MOL0     H16280   9.489   2.040   7.846  0.6341 -0.7491  0.3220
  121MOL0     H16281   9.491   2.172   7.956 -0.0375 -1.8748  1.6829
  121MOL0     H16282   9.612   2.305   7.836 -4.6190 -0.7642 -0.1686
  121MOL0     H16283   9.730   2.180   7.781  0.9535 -0.4421  4.6072
  121MOL0     H16284   9.594   2.306   7.614  0.1711 -0.1735 -1.4340
  121MOL0     H16285   9.445   2.219   7.673  0.6039  1.4388  1.0331
  121MOL0     H16286   9.794   2.102   7.572 -0.2357  0.1398 -0.1966
  121MOL0     H16287   9.877   1.844   7.513 -0.3983  0.0535  0.1662
  121MOL0     H16288   9.757   1.719   7.522  1.3172 -2.3305 -1.1660
  121MOL0     H16289   9.884   1.742   7.302 -0.6291 -1.8692 -2.1892
  121MOL0     H16290   9.807   1.891   7.266 -0.9028 -0.5456 -1.2208
  121MOL0     H16291   9.712   1.713   7.154  0.7350 -1.4738  0.0452
  121MOL0     H16292   9.583   1.774   7.266 -0.4924 -0.9255  0.5891
  121MOL0     H16293   9.574   1.589   7.389 -2.7129 -2.1546 -2.7696
  121MOL0     H16294   9.742   1.542   7.354 -0.9891 -1.6749  3.1868
  121MOL0     H16295   9.555   1.377   6.976  1.1426  0.5144 -0.5693
  121MOL0     H16296   9.459   1.241   6.854 -0.0655 -1.1799 -0.7236
  121MOL0     H16297   9.570   1.108   6.869 -0.1130  0.9867 -0.9477
  121MOL0     H16298   9.393   1.085   6.901 -0.3525  0.7392 -1.8288
  121MOL0     H16299   9.656   0.731   7.344  1.3747 -0.3296 -1.2463
  121MOL0     H16300   9.627   0.476   7.360 -0.5555 -1.8138  1.1502
  121MOL0     H16301   9.246   0.314   7.226  0.2686  2.6202  1.2165
  121MOL0     H16302   9.321   0.155   7.288  0.6507 -0.4720  3.7052
  121MOL0     H16303   9.273   0.398   7.467  0.5912 -0.9931  4.5862
  121MOL0     H16304   9.157   0.269   7.422  2.0197 -4.2058 -2.6475
  121MOL0     H16305   9.287   0.257   7.644  1.3590 -2.3401  1.5508
  121MOL0     H16306   9.419   0.192   7.542  0.0822 -6.0297  1.7045
  121MOL0     H16307   9.152   0.064   7.588 -0.0616 -0.9744 -0.4344
  121MOL0     H16308   9.273   0.021   7.452 -2.0951 -4.4262  1.5596
  121MOL0     H16309   9.344   0.007   7.749  2.7527 -1.2652 -0.1594
  121MOL0     H16310   9.422  -0.059   7.604  1.1907  1.6466  0.3817
  121MOL0     H16311   9.143  -0.129   7.688  1.3426  0.8609  1.1091
  121MOL0     H16312   9.228  -0.213   7.562 -2.0807  0.0979 -0.9410
  121MOL0     H16313   9.408  -0.273   7.720  2.2630  2.7413  2.1818
  121MOL0     H16314   9.263  -0.365   7.758 -2.2013  1.5781 -0.1580
  121MOL0     H16315   9.338  -0.109   7.901 -1.6828  0.4598 -2.3538
  121MOL0     H16316   9.384  -0.275   7.965 -0.8109 -3.0699 -1.2428
  121MOL0     H16317   9.275   0.493   7.144 -1.8359  1.4324  0.2119
  121MOL0     H16318   9.278   0.747   7.134  1.5608  2.4110  0.8121
  121MOL0     H16319   9.565   1.094   7.379 -3.0777  3.0798  0.8832
  121MOL0     H16320   9.636   1.334   7.398  5.2401  0.1723 -2.3824
  121MOL0     H16321  10.294   2.323   8.180 -1.8328  1.9731  1.2311
  121MOL0     H16322  10.513   2.263   8.282 -1.5482 -2.5724 -1.7619
  121MOL0     H16323  10.718   2.060   8.579 -0.3847 -0.5315 -2.7639
  121MOL0     H16324  10.946   1.960   8.657  5.2220  1.1492  2.6701
  121MOL0     H16325  11.309   2.220   8.638 -2.0606 -1.7398 -2.0065
  121MOL0     H16326  11.230   2.207   8.793  2.0787  1.6329 -1.2630
  121MOL0     H16327  11.464   2.161   8.823 -0.7003  1.8338 -2.3460
  121MOL0     H16328  11.483   2.056   8.691 -0.6073 -2.1763  1.4566
  121MOL0     H16329  11.310   1.895   8.819 -2.2077  1.6502 -1.3404
  121MOL0     H16330  11.350   1.995   8.962 -0.4352  0.1062 -0.4945
  121MOL0     H16331  11.518   1.804   8.804  0.6282 -1.5897  0.8861
  121MOL0     H16332  11.479   1.801   8.973 -2.7000  2.8642  0.4960
  121MOL0     H16333  11.829   2.065   8.928  1.3519 -0.8497 -1.3704
  121MOL0     H16334  11.141   2.310   8.530  1.3650 -1.3665 -0.7334
  121MOL0     H16335  10.911   2.404   8.448 -3.3045 -0.8384 -0.2828
  122MOL0     O16336  10.140   1.012   3.293  0.7489 -0.1044 -0.6126
  122MOL0     C16337  10.042   1.032   3.218  1.0256 -0.0076  0.5778
  122MOL0     O16338  10.035   0.989   3.093 -0.0512  0.2105 -0.0557
  122MOL0     C16339  10.133   0.906   3.039  0.0267  0.7218  0.3245
  122MOL0     C16340  10.273   0.934   3.036 -0.4502 -0.0910 -0.3403
  122MOL0     C16341  10.360   0.852   2.962 -0.4687  0.1699  0.8039
  122MOL0     C16342  10.321   0.737   2.905  0.4407 -0.8596  0.4947
  122MOL0     O16343  10.412   0.652   2.840 -0.7199 -0.1220  0.4846
  122MOL0     C16344  10.445   0.533   2.921  0.6461 -0.1131  0.4004
  122MOL0     C16345  10.580   0.475   2.900 -0.3051 -0.3829 -0.2631
  122MOL0     C16346  10.699   0.575   2.919  0.2012  0.5899 -0.1459
  122MOL0     C16347  10.824   0.487   2.906 -0.6459 -0.9960  0.0344
  122MOL0     C16348  10.955   0.567   2.955 -0.4868  0.8647 -0.4202
  122MOL0     C16349  11.074   0.468   2.957 -0.2767  0.2744 -0.8169
  122MOL0     C16350  11.215   0.530   2.982  0.8689 -0.2547  1.1385
  122MOL0     C16351  11.297   0.526   2.851 -0.0365  0.6859  0.7767
  122MOL0     N16352  11.233   0.577   2.732  0.6667  0.1577  0.8971
  122MOL0     C16353  11.165   0.497   2.645  0.8690 -0.9365 -0.1940
  122MOL0     C16354  11.120   0.578   2.560 -0.7993 -0.4169 -0.0054
  122MOL0     C16355  11.013   0.552   2.457  0.3427  0.0825  1.1716
  122MOL0     C16356  10.876   0.525   2.511 -1.0644  0.4117  0.0398
  122MOL0     C16357  10.776   0.481   2.401  0.6020  0.0992 -0.1149
  122MOL0     C16358  10.662   0.438   2.494  0.1612  0.3820  0.6378
  122MOL0     O16359  10.552   0.429   2.400  0.1571 -0.1194 -0.0893
  122MOL0     C16360  10.421   0.414   2.467 -0.6173  0.2271 -0.0219
  122MOL0     C16361  10.318   0.486   2.408  0.6481  0.1850  0.0649
  122MOL0     C16362  10.190   0.483   2.472  0.1623  0.1984 -0.1026
  122MOL0     C16363  10.084   0.575   2.420 -0.0031  0.0156  1.0589
  122MOL0     C16364  10.162   0.411   2.591  0.3967 -0.2955 -0.4970
  122MOL0     C16365  10.024   0.400   2.654 -0.3680  0.2071  0.1520
  122MOL0     O16366   9.959   0.288   2.625  0.6161  0.2543 -0.5907
  122MOL0     C16367   9.816   0.292   2.615  0.0961  0.3852 -0.2126
  122MOL0     C16368   9.726   0.402   2.586 -0.2179  0.8522 -1.5317
  122MOL0     C16369   9.592   0.381   2.590 -0.2306 -0.6735 -0.7026
  122MOL0     C16370   9.535   0.258   2.600 -0.2109  0.5982 -0.1523
  122MOL0     O16371   9.398   0.235   2.596  0.3862  0.4139 -0.7253
  122MOL0     C16372   9.312   0.346   2.606  0.3892 -0.2916  0.4214
  122MOL0     C16373   9.265   0.413   2.470 -0.5633  0.8489  0.1013
  122MOL0     C16374   9.239   0.298   2.374  0.1689 -1.1522  0.5871
  122MOL0     C16375   9.111   0.201   2.413 -0.5519  0.6969  0.0985
  122MOL0     C16376   9.161   0.054   2.415  0.1016  0.1848  0.0625
  122MOL0     C16377   9.053  -0.044   2.428 -0.1614 -0.6009 -0.0408
  122MOL0     C16378   8.964  -0.019   2.548 -0.1715 -0.0249  0.7542
  122MOL0     C16379   8.854  -0.123   2.584  0.6683 -0.2367 -0.3422
  122MOL0    Cl16380   8.909  -0.290   2.561 -0.1607  0.3611 -0.0967
  122MOL0     C16381   9.613   0.153   2.622 -0.0041 -0.4096 -0.2301
  122MOL0     C16382   9.756   0.166   2.637  1.1674  0.0875  0.1278
  122MOL0     O16383   9.980   0.495   2.720  0.2475  0.3199  0.6412
  122MOL0     C16384  10.269   0.334   2.635  0.5380 -0.8582  0.2540
  122MOL0     C16385  10.401   0.339   2.587  0.0094 -1.3212 -0.0021
  122MOL0     N16386  11.185   0.705   2.580 -0.0791 -0.1709  0.2761
  122MOL0     N16387  11.256   0.704   2.686 -0.7208 -0.2800 -0.0267
  122MOL0     C16388  10.194   0.699   2.923 -0.2151 -0.1945 -0.4440
  122MOL0     C16389  10.093   0.782   2.988  0.8463 -0.0165  0.5103
  122MOL0     C16390   9.933   1.106   3.274 -0.8334 -0.3835  0.6330
  122MOL0     C16391   9.817   1.137   3.200  1.1284  0.6972  0.3843
  122MOL0     C16392   9.716   1.216   3.235 -0.7497  0.2142  0.6754
  122MOL0     C16393   9.729   1.275   3.357 -0.6152 -1.1521 -1.3555
  122MOL0     O16394   9.630   1.366   3.404 -0.1967  0.2640  0.9156
  122MOL0     C16395   9.678   1.505   3.383 -0.7818  0.0421  0.4178
  122MOL0     C16396   9.663   1.553   3.236  0.5035 -0.2568  0.0069
  122MOL0     C16397   9.511   1.558   3.205 -1.5028  0.3228  0.1742
  122MOL0     C16398   9.493   1.586   3.054  0.7146 -0.2275 -0.2614
  122MOL0     C16399   9.354   1.631   3.029 -0.5650  0.3645  0.2154
  122MOL0     C16400   9.253   1.691   3.017 -0.0155 -0.7534 -0.0084
  122MOL0     C16401   9.836   1.249   3.439  0.5600 -0.8866 -0.8519
  122MOL0     C16402   9.933   1.164   3.398  0.9864  0.7390 -0.5342
  122MOL0     H16403  10.319   1.021   3.081  1.2346 -0.2740 -1.6042
  122MOL0     H16404  10.465   0.873   2.942 -1.2106  2.3445 -1.4212
  122MOL0     H16405  10.417   0.553   3.025 -1.6460  1.4330 -0.4228
  122MOL0     H16406  10.366   0.459   2.901 -1.4770  2.2088 -0.3809
  122MOL0     H16407  10.595   0.388   2.964  5.0246 -1.6745 -2.7320
  122MOL0     H16408  10.591   0.432   2.800  1.4897  0.1479 -0.3214
  122MOL0     H16409  10.695   0.656   2.845  2.0853 -0.2711 -1.2938
  122MOL0     H16410  10.703   0.620   3.018 -0.2070  2.1253 -0.7936
  122MOL0     H16411  10.810   0.398   2.968  0.6915 -1.2909 -0.0452
  122MOL0     H16412  10.823   0.449   2.804 -0.4850  2.2989 -1.3157
  122MOL0     H16413  10.983   0.644   2.884  0.1994  2.8256  1.8536
  122MOL0     H16414  10.949   0.609   3.056  1.8320 -1.9304  1.0383
  122MOL0     H16415  11.045   0.404   3.040 -2.2438  1.0662 -0.8431
  122MOL0     H16416  11.075   0.406   2.867 -3.1507 -1.8778  0.4756
  122MOL0     H16417  11.197   0.633   3.015 -0.4515 -0.1892  0.2831
  122MOL0     H16418  11.267   0.495   3.071 -0.7093 -2.3648  1.3097
  122MOL0     H16419  11.316   0.420   2.836 -0.3496  0.7488 -0.1396
  122MOL0     H16420  11.391   0.582   2.855 -0.7287  1.8909  0.6022
  122MOL0     H16421  11.145   0.391   2.657  0.5029 -1.3961 -3.7581
  122MOL0     H16422  10.995   0.629   2.382  3.0951  1.9940  2.2934
  122MOL0     H16423  11.036   0.461   2.400 -5.4428 -0.1684 -1.5346
  122MOL0     H16424  10.839   0.613   2.566 -0.6504  1.1075 -0.7651
  122MOL0     H16425  10.877   0.436   2.574  2.4176  0.3908  0.1502
  122MOL0     H16426  10.806   0.398   2.336  3.7791  1.5883 -0.7800
  122MOL0     H16427  10.765   0.575   2.346  3.9545  2.7270  3.1807
  122MOL0     H16428  10.641   0.514   2.569 -1.2973  2.2474 -1.5072
  122MOL0     H16429  10.683   0.344   2.546  4.5569  1.5528  1.3438
  122MOL0     H16430  10.335   0.555   2.326 -0.1653 -0.8423 -0.9989
  122MOL0     H16431  10.032   0.619   2.506  1.7882 -0.2378  2.3343
  122MOL0     H16432  10.128   0.662   2.371 -2.5071  0.5598 -0.4076
  122MOL0     H16433  10.019   0.527   2.346  2.6466  0.3819 -1.6656
  122MOL0     H16434   9.772   0.500   2.576 -0.3620  1.0585 -0.3172
  122MOL0     H16435   9.538   0.474   2.575  1.8821  0.2969 -3.0264
  122MOL0     H16436   9.224   0.303   2.656  1.2675 -0.7636  1.6016
  122MOL0     H16437   9.348   0.430   2.667 -4.7231  1.4308  1.6028
  122MOL0     H16438   9.171   0.459   2.502 -0.5726  0.7952  0.1464
  122MOL0     H16439   9.352   0.470   2.435  0.4916 -0.7811 -0.0731
  122MOL0     H16440   9.331   0.245   2.349  0.4854 -0.3939  0.0943
  122MOL0     H16441   9.211   0.344   2.278  2.5962 -1.2386 -0.2404
  122MOL0     H16442   9.069   0.232   2.509 -0.6502  5.1820 -1.1739
  122MOL0     H16443   9.023   0.213   2.349 -0.2570 -0.8089 -0.6527
  122MOL0     H16444   9.235   0.042   2.495  2.7362  0.1330 -2.2232
  122MOL0     H16445   9.219   0.026   2.326  1.3183  1.3300  0.4606
  122MOL0     H16446   8.982  -0.060   2.346  0.5614 -2.7583 -0.2961
  122MOL0     H16447   9.108  -0.136   2.449 -0.8437 -1.1687 -0.6660
  122MOL0     H16448   8.910   0.076   2.538 -0.3546 -0.1031  0.9715
  122MOL0     H16449   9.020  -0.010   2.642 -2.0255 -0.5408  1.9697
  122MOL0     H16450   8.763  -0.116   2.523  0.3770 -3.7568 -0.5397
  122MOL0     H16451   8.824  -0.117   2.689 -1.1194 -2.0318 -0.6786
  122MOL0     H16452   9.568   0.055   2.634  0.5749 -0.4724  1.8264
  122MOL0     H16453   9.823   0.082   2.657 -0.4205 -1.1623  0.3481
  122MOL0     H16454  10.261   0.267   2.720 -0.0260 -0.7575  0.2870
  122MOL0     H16455  10.483   0.300   2.646  1.0838  0.4688 -0.2278
  122MOL0     H16456  10.166   0.599   2.892 -0.4538  0.4591 -2.4702
  122MOL0     H16457   9.993   0.742   2.997  1.0614 -0.6009  0.3522
  122MOL0     H16458   9.805   1.109   3.096 -3.5592 -4.4822  1.8408
  122MOL0     H16459   9.633   1.238   3.169 -0.7053  0.2951  0.6464
  122MOL0     H16460   9.610   1.574   3.435 -0.2301  0.5691  0.4441
  122MOL0     H16461   9.782   1.514   3.416 -0.7036 -2.8243  1.1861
  122MOL0     H16462   9.704   1.483   3.162  2.8895 -0.3100  1.2986
  122MOL0     H16463   9.711   1.650   3.222 -2.3110  1.6247  2.1359
  122MOL0     H16464   9.474   1.646   3.260 -2.1663  0.7655 -0.9450
  122MOL0     H16465   9.449   1.475   3.238  0.4344 -1.7912 -1.2437
  122MOL0     H16466   9.518   1.493   3.002 -1.7730 -0.9925 -0.1974
  122MOL0     H16467   9.553   1.676   3.040  0.1101  0.5922  1.9228
  122MOL0     H16468   9.158   1.738   3.031 -0.4516 -1.3888 -0.7691
  122MOL0     H16469   9.853   1.295   3.536  0.5213  0.1076 -1.3063
  122MOL0     H16470  10.013   1.143   3.469  0.6570  2.8627  0.5737
  123MOL0     O16471   7.726   0.751   5.680  0.3591  0.2961 -0.1618
  123MOL0     C16472   7.789   0.809   5.766  0.0231 -0.5810 -0.0282
  123MOL0     O16473   7.924   0.840   5.763 -0.9755  0.0390 -0.5605
  123MOL0     C16474   7.994   0.806   5.645 -0.1369  0.4439 -0.2374
  123MOL0     C16475   7.951   0.871   5.531 -0.4586 -0.3349 -0.0529
  123MOL0     C16476   8.023   0.852   5.407  0.7234  0.1331  0.4271
  123MOL0     C16477   8.135   0.769   5.406 -0.4430  0.0851  0.4873
  123MOL0     O16478   8.190   0.721   5.281 -0.3700 -0.1738 -0.0870
  123MOL0     C16479   8.315   0.650   5.280 -0.1223 -0.2837 -0.1102
  123MOL0     C16480   8.363   0.648   5.136  0.7519 -0.9685  0.8803
  123MOL0     C16481   8.411   0.788   5.092 -0.1793  1.6303  0.6764
  123MOL0     C16482   8.481   0.787   4.963 -0.1213 -0.5277 -0.0751
  123MOL0     C16483   8.527   0.926   4.913 -0.6835 -0.8009 -0.1450
  123MOL0     C16484   8.601   0.947   4.773 -0.1235  0.2444  0.1310
  123MOL0     C16485   8.575   0.836   4.671  0.5867 -0.7509 -0.1195
  123MOL0     C16486   8.600   0.880   4.530  0.7540 -0.2524  0.4798
  123MOL0     N16487   8.499   0.991   4.487 -0.3487  0.3885 -0.1642
  123MOL0     C16488   8.363   1.005   4.509  0.5720  0.0736 -0.5711
  123MOL0     C16489   8.343   1.131   4.449 -0.4438  0.1761 -0.2179
  123MOL0     C16490   8.209   1.198   4.447  0.2054 -0.9170  0.8066
  123MOL0     C16491   8.141   1.228   4.588 -0.4597  0.6743  0.3609
  123MOL0     C16492   8.210   1.338   4.664  0.1175  0.1369  0.2768
  123MOL0     C16493   8.344   1.299   4.735  0.4870 -0.5832 -0.6717
  123MOL0     O16494   8.372   1.395   4.839  0.0210  0.5702  0.3508
  123MOL0     C16495   8.308   1.382   4.960 -0.3557  0.5456 -0.0302
  123MOL0     C16496   8.217   1.284   4.993 -0.1582  0.0585 -0.5365
  123MOL0     C16497   8.182   1.266   5.130  0.8354 -0.3507 -0.5527
  123MOL0     C16498   8.080   1.159   5.163  0.5343  0.0037  0.0045
  123MOL0     C16499   8.243   1.344   5.240 -0.1135  1.0057 -0.0180
  123MOL0     C16500   8.220   1.329   5.387 -0.4338 -0.0104  0.3711
  123MOL0     O16501   8.100   1.281   5.418 -0.9887  0.7450 -0.2295
  123MOL0     C16502   8.070   1.276   5.553 -0.5923  0.2212 -0.1413
  123MOL0     C16503   8.100   1.165   5.633  0.3176 -0.0259  0.0249
  123MOL0     C16504   8.077   1.167   5.768 -0.0907 -0.5012  0.3793
  123MOL0     C16505   8.033   1.286   5.837  0.0594 -0.3780  1.2179
  123MOL0     O16506   8.012   1.270   5.969 -0.2990 -0.1760 -0.7607
  123MOL0     C16507   7.973   1.388   6.046 -1.2093 -0.8772 -0.0266
  123MOL0     C16508   7.827   1.399   6.074 -0.4121  0.1615 -0.2011
  123MOL0     C16509   7.812   1.535   6.146  0.8039  0.1830  0.5723
  123MOL0     C16510   7.832   1.643   6.040 -0.6756 -0.0668  0.5710
  123MOL0     C16511   7.790   1.783   6.084  0.8317 -0.9049  1.3268
  123MOL0     C16512   7.781   1.876   5.953 -0.9939  0.4457  0.0004
  123MOL0     C16513   7.921   1.929   5.914 -0.4859 -0.0958 -0.7407
  123MOL0     C16514   7.902   2.034   5.800  0.3659  0.2675 -0.3498
  123MOL0    Cl16515   7.862   2.209   5.860  0.2148 -0.0450 -0.2637
  123MOL0     C16516   8.007   1.399   5.760  0.0902  0.7957 -0.3663
  123MOL0     C16517   8.022   1.394   5.624 -1.1828 -0.0956 -0.0844
  123MOL0     O16518   8.298   1.382   5.466  0.1372  0.1723  1.0408
  123MOL0     C16519   8.340   1.438   5.194 -0.3905 -0.1950 -0.7176
  123MOL0     C16520   8.365   1.461   5.062 -0.3583  0.0460  0.0255
  123MOL0     N16521   8.461   1.177   4.398 -0.4128  0.0981 -0.3054
  123MOL0     N16522   8.541   1.082   4.404 -0.6440 -0.5593 -0.5741
  123MOL0     C16523   8.175   0.697   5.522 -0.1508 -0.5174 -0.6342
  123MOL0     C16524   8.109   0.727   5.643 -0.4477  0.1523  0.4994
  123MOL0     C16525   7.716   0.848   5.881  1.1890  0.2392 -0.0844
  123MOL0     C16526   7.780   0.861   6.006 -0.3647 -0.2466  0.5379
  123MOL0     C16527   7.722   0.940   6.103  0.6873 -0.1762  0.4749
  123MOL0     C16528   7.602   0.999   6.083 -0.4862  0.7000 -0.7821
  123MOL0     O16529   7.566   1.098   6.175 -0.1818  0.2370 -0.8315
  123MOL0     C16530   7.440   1.170   6.163 -0.7656 -0.2584 -0.5955
  123MOL0     C16531   7.412   1.272   6.279  0.5456 -0.2061  1.2714
  123MOL0     C16532   7.422   1.187   6.408 -0.5103  0.5653 -0.9948
  123MOL0     C16533   7.491   1.265   6.510 -0.4088 -0.0128  0.2572
  123MOL0     C16534   7.416   1.386   6.545  0.7798 -0.1548  0.3956
  123MOL0     C16535   7.345   1.480   6.580 -0.0239  0.7000 -0.4393
  123MOL0     C16536   7.526   0.965   5.972  0.5068 -0.3607  0.2860
  123MOL0     C16537   7.577   0.890   5.870 -0.6418  0.8057  0.5402
  123MOL0     H16538   7.857   0.925   5.524 -1.3079 -1.8783 -1.2994
  123MOL0     H16539   7.970   0.888   5.320 -0.9507 -0.5447  1.1395
  123MOL0     H16540   8.383   0.691   5.355 -1.5979  0.2686  0.9887
  123MOL0     H16541   8.293   0.550   5.317  5.6170 -2.0861 -0.6905
  123MOL0     H16542   8.438   0.569   5.128  0.3448 -1.3219  0.4947
  123MOL0     H16543   8.279   0.603   5.083 -0.6023 -1.3058  3.1824
  123MOL0     H16544   8.326   0.858   5.094 -0.8085  0.8925  0.3640
  123MOL0     H16545   8.484   0.824   5.165  2.7109 -2.2642  0.0035
  123MOL0     H16546   8.570   0.724   4.969  1.2671  0.9197 -3.3069
  123MOL0     H16547   8.409   0.746   4.892 -2.4383  0.9723  1.2787
  123MOL0     H16548   8.431   0.977   4.898 -1.1812 -1.5279  0.4748
  123MOL0     H16549   8.580   0.972   4.996  0.1967 -2.8057  0.4608
  123MOL0     H16550   8.557   1.040   4.733  0.3014 -0.4243 -2.0513
  123MOL0     H16551   8.708   0.956   4.794 -0.5225 -2.7771  4.8936
  123MOL0     H16552   8.628   0.744   4.699  1.6826  0.2502  1.2313
  123MOL0     H16553   8.467   0.828   4.683  0.2651  2.4383 -0.2092
  123MOL0     H16554   8.595   0.797   4.459 -0.1302  1.1630 -1.1948
  123MOL0     H16555   8.705   0.912   4.524  0.8888 -0.9008 -2.4950
  123MOL0     H16556   8.300   0.938   4.566  2.9535 -0.2659  1.9103
  123MOL0     H16557   8.212   1.299   4.405 -2.1747 -0.3668  1.7969
  123MOL0     H16558   8.141   1.137   4.387  2.2443 -1.7886 -0.7795
  123MOL0     H16559   8.144   1.138   4.651 -2.4220 -1.1310 -1.9412
  123MOL0     H16560   8.034   1.246   4.572  0.0502  3.1471 -0.5837
  123MOL0     H16561   8.136   1.382   4.732 -0.1573 -0.6029  0.4686
  123MOL0     H16562   8.242   1.420   4.600  3.1300 -1.5778 -0.6171
  123MOL0     H16563   8.431   1.293   4.670  2.5422  1.4552  1.6686
  123MOL0     H16564   8.336   1.203   4.788  0.9542  1.2332  3.0361
  123MOL0     H16565   8.176   1.215   4.920  1.0751 -2.0380  0.6322
  123MOL0     H16566   8.131   1.089   5.231  0.2113  0.0534  0.2992
  123MOL0     H16567   7.994   1.201   5.215  1.2882  0.2530  1.0843
  123MOL0     H16568   8.030   1.103   5.084 -2.1141 -0.4918  1.8868
  123MOL0     H16569   8.140   1.073   5.591 -1.4102  0.1633 -2.1758
  123MOL0     H16570   8.078   1.072   5.820 -5.5349  0.1992  2.4558
  123MOL0     H16571   8.034   1.392   6.136  2.1785  2.6010 -2.1901
  123MOL0     H16572   8.005   1.485   6.009 -2.7992  0.7006  2.4405
  123MOL0     H16573   7.779   1.396   5.975 -2.6704 -0.2103  0.8389
  123MOL0     H16574   7.794   1.321   6.143  1.3104  1.5781  2.3948
  123MOL0     H16575   7.885   1.551   6.226 -1.6029  3.2476  2.4124
  123MOL0     H16576   7.710   1.556   6.182 -0.4862  0.8719 -2.9753
  123MOL0     H16577   7.935   1.662   6.009 -1.1794  1.7768 -0.0578
  123MOL0     H16578   7.766   1.621   5.956 -0.6835  1.9982 -0.0113
  123MOL0     H16579   7.864   1.822   6.155  3.0093  2.1872 -2.2861
  123MOL0     H16580   7.696   1.782   6.139 -0.4861  1.4800 -0.6531
  123MOL0     H16581   7.744   1.813   5.872 -1.7219 -0.5255  1.0473
  123MOL0     H16582   7.715   1.961   5.976 -0.6027  0.3686  1.5469
  123MOL0     H16583   7.995   1.853   5.886 -0.1076 -0.3344  0.8353
  123MOL0     H16584   7.958   1.978   6.004  1.4337 -1.0637 -0.9617
  123MOL0     H16585   7.823   2.001   5.732  0.1856 -0.9897  0.4331
  123MOL0     H16586   7.992   2.040   5.739 -1.0312  0.9544 -2.4484
  123MOL0     H16587   7.979   1.493   5.807  1.6479  0.5833  1.0670
  123MOL0     H16588   8.020   1.484   5.565 -1.6246 -0.9589 -1.4393
  123MOL0     H16589   8.405   1.488   5.265 -2.8195  0.7452  0.9794
  123MOL0     H16590   8.434   1.535   5.022 -1.6758 -0.0922 -2.7632
  123MOL0     H16591   8.258   0.627   5.514 -1.6207 -2.1508 -2.8646
  123MOL0     H16592   8.151   0.679   5.731  1.8138  0.2774 -0.4387
  123MOL0     H16593   7.879   0.818   6.001  0.3659  1.4494 -0.4823
  123MOL0     H16594   7.772   0.963   6.196  0.7084 -0.8170  0.6265
  123MOL0     H16595   7.423   1.222   6.068  1.7710  2.0788  0.1021
  123MOL0     H16596   7.361   1.094   6.163 -1.1456  0.0555 -2.9317
  123MOL0     H16597   7.307   1.303   6.276  0.6514  0.5207  3.6516
  123MOL0     H16598   7.472   1.363   6.265 -1.6779  1.7442  3.4402
  123MOL0     H16599   7.475   1.091   6.406 -0.6853  0.4188  0.3166
  123MOL0     H16600   7.327   1.161   6.456 -0.1399 -0.2237 -0.6736
  123MOL0     H16601   7.592   1.294   6.479  0.1413  0.3091  2.1738
  123MOL0     H16602   7.501   1.203   6.599 -1.5368 -1.9430 -0.8928
  123MOL0     H16603   7.286   1.565   6.609 -2.2620  0.0388 -2.6884
  123MOL0     H16604   7.431   1.009   5.942  0.0807 -1.7846 -0.6057
  123MOL0     H16605   7.519   0.874   5.779  1.6442 -3.1361 -0.4521
  124MOL0     O16606   8.299   4.491   3.246  0.6480 -0.6494  0.0245
  124MOL0     C16607   8.251   4.384   3.272  0.1784 -0.1011  0.1099
  124MOL0     O16608   8.122   4.340   3.251 -0.2813 -0.0710  0.0620
  124MOL0     C16609   8.029   4.436   3.217  0.2773 -0.2838 -0.6010
  124MOL0     C16610   7.941   4.494   3.305  0.1691  0.2524  0.0023
  124MOL0     C16611   7.849   4.603   3.281  1.0079  0.1328 -0.8535
  124MOL0     C16612   7.834   4.633   3.146  0.7147 -0.0230 -0.6204
  124MOL0     O16613   7.740   4.732   3.118  0.6460  0.0597 -1.1476
  124MOL0     C16614   7.695   4.754   2.982  0.0492 -0.9271  1.4278
  124MOL0     C16615   7.590   4.659   2.945 -0.4542 -0.9527 -0.1886
  124MOL0     C16616   7.510   4.708   2.825  0.4477  1.1992 -0.2412
  124MOL0     C16617   7.403   4.599   2.782 -0.0124 -0.8882 -0.0544
  124MOL0     C16618   7.332   4.644   2.651  0.2388 -0.8796  0.2341
  124MOL0     C16619   7.210   4.734   2.663  0.8789 -0.1525  0.9058
  124MOL0     C16620   7.162   4.787   2.515  0.1993  0.4055  0.4969
  124MOL0     C16621   7.064   4.693   2.430  0.7254 -0.6936 -1.8345
  124MOL0     N16622   7.013   4.740   2.300  0.9445 -0.4830 -0.5554
  124MOL0     C16623   7.097   4.743   2.190 -0.3588  0.1897 -0.3790
  124MOL0     C16624   7.018   4.782   2.090  0.3327 -0.6390  0.9475
  124MOL0     C16625   7.063   4.793   1.950 -1.6046  0.1051  0.8360
  124MOL0     C16626   7.102   4.936   1.922  0.1658 -1.2161 -1.2573
  124MOL0     C16627   7.141   4.967   1.775  0.1250  0.4112  0.7208
  124MOL0     C16628   7.020   4.985   1.699  0.1142 -0.1015  0.7270
  124MOL0     O16629   7.060   4.986   1.561  0.4756 -0.0554  0.0646
  124MOL0     C16630   6.962   4.972   1.469  0.3492 -0.9199  0.0060
  124MOL0     C16631   6.864   5.071   1.436  0.1247  0.8839 -0.2866
  124MOL0     C16632   6.753   5.038   1.352  0.5055 -1.1391 -1.3314
  124MOL0     C16633   6.653   5.159   1.340  0.2342  0.0353 -0.0129
  124MOL0     C16634   6.739   4.922   1.271 -0.3205 -1.1717 -0.8315
  124MOL0     C16635   6.613   4.881   1.190 -0.1772 -0.3820 -0.4107
  124MOL0     O16636   6.640   4.805   1.081 -0.0382 -0.2683 -0.6053
  124MOL0     C16637   6.529   4.746   1.034  0.3675 -0.0924 -0.7632
  124MOL0     C16638   6.486   4.771   0.902 -1.2312  0.6490  1.2821
  124MOL0     C16639   6.377   4.704   0.856  0.6888  0.1149  1.6119
  124MOL0     C16640   6.306   4.603   0.926  0.1386 -0.9034 -1.3718
  124MOL0     O16641   6.194   4.540   0.870 -0.2094  0.4089  0.5399
  124MOL0     C16642   6.172   4.408   0.919 -0.3030  0.0130 -0.2308
  124MOL0     C16643   6.089   4.318   0.839  0.8749  0.3026 -0.3857
  124MOL0     C16644   5.943   4.368   0.820 -0.0397  0.6665 -0.7029
  124MOL0     C16645   5.856   4.340   0.946 -0.0418  0.2137  0.4191
  124MOL0     C16646   5.704   4.342   0.905 -0.4414 -1.0994 -0.3754
  124MOL0     C16647   5.621   4.286   1.014 -0.0466  0.2949 -0.3027
  124MOL0     C16648   5.471   4.296   0.986  0.2927 -0.8431 -1.0868
  124MOL0     C16649   5.419   4.432   0.929  0.1933 -0.2902 -1.3939
  124MOL0    Cl16650   5.260   4.451   0.992 -0.0348 -0.1674  0.0213
  124MOL0     C16651   6.339   4.584   1.057  0.1413 -0.4084  0.1386
  124MOL0     C16652   6.456   4.646   1.108 -0.9924 -0.3470 -0.2145
  124MOL0     O16653   6.501   4.933   1.208  0.3863 -0.3034  0.1101
  124MOL0     C16654   6.844   4.830   1.305 -0.1094 -0.4539  0.4599
  124MOL0     C16655   6.946   4.851   1.395 -0.9399 -0.3222  0.1969
  124MOL0     N16656   6.888   4.811   2.148  0.6375  0.4086 -0.2723
  124MOL0     N16657   6.885   4.783   2.274  0.2408 -0.1291  0.9640
  124MOL0     C16658   7.908   4.558   3.050  0.6045  0.0803  0.8252
  124MOL0     C16659   7.998   4.462   3.086 -0.2508  0.6512 -0.2907
  124MOL0     C16660   8.350   4.286   3.323 -1.2255 -0.4706  0.3770
  124MOL0     C16661   8.468   4.320   3.395 -0.0666  0.6169 -0.0358
  124MOL0     C16662   8.565   4.229   3.443  1.4118  0.0298 -0.0265
  124MOL0     C16663   8.537   4.092   3.444 -0.7427  0.7777 -0.4110
  124MOL0     O16664   8.623   4.011   3.519 -0.6460  0.1757 -0.6950
  124MOL0     C16665   8.644   3.868   3.507 -0.1226 -0.2167  0.8469
  124MOL0     C16666   8.787   3.851   3.451  0.1839  0.8758  0.0652
  124MOL0     C16667   8.812   3.708   3.378 -0.0124 -0.2827 -0.2938
  124MOL0     C16668   8.922   3.708   3.277 -0.1671  0.4250 -1.2777
  124MOL0     C16669   8.974   3.564   3.249  0.8412 -0.7745 -0.7947
  124MOL0     C16670   9.033   3.465   3.221 -1.1212 -0.4094 -0.1493
  124MOL0     C16671   8.423   4.049   3.378  1.0916 -1.1559 -0.8228
  124MOL0     C16672   8.336   4.147   3.309  0.6367 -0.7315 -0.6945
  124MOL0     H16673   7.963   4.439   3.396  0.1753 -1.4762 -1.0055
  124MOL0     H16674   7.790   4.634   3.367 -4.1460 -1.3488 -3.4332
  124MOL0     H16675   7.654   4.855   2.970  2.0335  0.0149  2.0726
  124MOL0     H16676   7.781   4.749   2.915 -0.1775  0.4966  1.0005
  124MOL0     H16677   7.646   4.566   2.927 -0.4318 -1.0260  0.2500
  124MOL0     H16678   7.535   4.642   3.038 -0.0380 -1.4868 -0.0317
  124MOL0     H16679   7.456   4.800   2.850 -0.3258  0.0077  3.1210
  124MOL0     H16680   7.579   4.730   2.744 -0.4872  0.0947 -1.3830
  124MOL0     H16681   7.449   4.504   2.753  0.3025  0.0660 -2.9720
  124MOL0     H16682   7.335   4.573   2.863 -0.4932 -1.0680 -0.5084
  124MOL0     H16683   7.410   4.687   2.588  0.1881  1.0384  1.3841
  124MOL0     H16684   7.288   4.556   2.604 -2.0168 -0.4180  1.3048
  124MOL0     H16685   7.134   4.694   2.730  1.3317 -0.6479  1.1312
  124MOL0     H16686   7.256   4.821   2.711  2.3786  1.4711 -3.0184
  124MOL0     H16687   7.099   4.875   2.532 -2.1171 -0.6834 -1.7387
  124MOL0     H16688   7.235   4.832   2.446 -1.9524  1.0403 -1.4949
  124MOL0     H16689   6.979   4.697   2.499  2.5736  0.7865  0.5170
  124MOL0     H16690   7.097   4.589   2.421  0.4597 -1.1198  1.0368
  124MOL0     H16691   7.202   4.721   2.171 -0.5738  0.5456 -2.2009
  124MOL0     H16692   7.151   4.729   1.945 -0.7623  1.0680  2.3388
  124MOL0     H16693   6.987   4.747   1.887 -1.5548 -2.0125  2.2218
  124MOL0     H16694   7.187   4.969   1.983 -0.9233  0.8973 -0.7722
  124MOL0     H16695   7.017   4.998   1.951 -0.4399 -1.2771 -2.8303
  124MOL0     H16696   7.209   4.889   1.740  0.5930  2.3336 -3.1834
  124MOL0     H16697   7.192   5.064   1.769 -0.3512  0.5696 -1.2998
  124MOL0     H16698   6.959   5.074   1.713  2.9376  2.6995 -2.8860
  124MOL0     H16699   6.947   4.904   1.709 -1.2830  0.8276 -1.3156
  124MOL0     H16700   6.871   5.165   1.488  1.1380 -0.0242  1.2846
  124MOL0     H16701   6.563   5.143   1.400  0.9701 -0.9085  0.8815
  124MOL0     H16702   6.681   5.261   1.370  1.0972 -1.1117  3.6756
  124MOL0     H16703   6.619   5.160   1.236 -1.0238 -0.0018  0.3834
  124MOL0     H16704   6.528   4.847   0.837  0.7738 -2.3974 -1.2616
  124MOL0     H16705   6.345   4.729   0.755 -1.4472 -0.1468  2.1582
  124MOL0     H16706   6.271   4.361   0.918  1.1288  2.8073  0.3611
  124MOL0     H16707   6.137   4.406   1.023  1.6327  0.7309  0.4683
  124MOL0     H16708   6.129   4.315   0.737 -1.5999  0.4817 -1.4392
  124MOL0     H16709   6.076   4.221   0.888  0.4036  0.6843  0.2652
  124MOL0     H16710   5.900   4.317   0.734  1.0730 -0.2417 -0.7571
  124MOL0     H16711   5.948   4.477   0.815 -0.2485  0.6509 -1.2457
  124MOL0     H16712   5.879   4.241   0.988 -0.7156 -0.9958 -1.8966
  124MOL0     H16713   5.874   4.413   1.025  1.3230  0.8984 -0.4746
  124MOL0     H16714   5.692   4.287   0.811 -0.8502  1.5669 -1.9805
  124MOL0     H16715   5.700   4.450   0.892  1.6068 -0.9256  0.1345
  124MOL0     H16716   5.645   4.180   1.021  0.5237  0.3219 -1.6040
  124MOL0     H16717   5.651   4.340   1.105  2.3955 -1.0990 -0.2068
  124MOL0     H16718   5.423   4.279   1.083  1.0103 -0.2308 -0.6213
  124MOL0     H16719   5.438   4.229   0.906  2.5186 -1.9967 -1.1147
  124MOL0     H16720   5.426   4.425   0.820  3.0114 -0.1598 -1.2817
  124MOL0     H16721   5.481   4.517   0.956  0.3908 -1.3435  2.0444
  124MOL0     H16722   6.274   4.534   1.128 -2.9803  3.1345  0.0696
  124MOL0     H16723   6.488   4.633   1.211 -0.2402 -1.9203 -0.6089
  124MOL0     H16724   6.846   4.738   1.248  1.2007  2.1239 -4.1572
  124MOL0     H16725   7.011   4.766   1.415  0.2441  0.6939  0.8149
  124MOL0     H16726   7.898   4.580   2.944  1.5957 -0.4483  0.6059
  124MOL0     H16727   8.052   4.410   3.008  2.9394  0.4137  1.9143
  124MOL0     H16728   8.486   4.427   3.399  2.2137  0.4277 -2.1594
  124MOL0     H16729   8.653   4.272   3.490  1.4980 -0.8026  0.5965
  124MOL0     H16730   8.647   3.833   3.610  2.8708  0.5832  1.1344
  124MOL0     H16731   8.567   3.815   3.450 -1.0486  0.4208  1.4714
  124MOL0     H16732   8.857   3.857   3.536 -1.8583  1.0335  1.8229
  124MOL0     H16733   8.805   3.925   3.374 -1.1255  0.5695 -0.5537
  124MOL0     H16734   8.720   3.677   3.328 -1.3258  1.6306  0.7965
  124MOL0     H16735   8.830   3.639   3.462  0.9622 -1.1640 -1.2029
  124MOL0     H16736   9.012   3.750   3.323  1.5119 -3.9218 -0.0196
  124MOL0     H16737   8.904   3.770   3.189  4.6242  0.4517 -2.5562
  124MOL0     H16738   9.061   3.364   3.198 -2.9860 -1.4833  1.8909
  124MOL0     H16739   8.382   3.950   3.395 -2.9855  0.4102 -0.4532
  124MOL0     H16740   8.249   4.121   3.250 -0.7315  1.2977  0.2885
  125MOL0     O16741   0.295  11.038   0.384 -0.0157 -0.1511  0.7275
  125MOL0     C16742   0.241  10.980   0.476 -0.4502 -0.0017  0.0259
  125MOL0     O16743   0.113  10.956   0.489  0.1216 -0.0305 -0.0137
  125MOL0     C16744   0.037  11.026   0.403  0.4153 -0.0949  0.0593
  125MOL0     C16745  -0.040  11.126   0.454  0.0664 -0.0218 -0.0872
  125MOL0     C16746  -0.105  11.215   0.365  1.2091  0.0085  0.6081
  125MOL0     C16747  -0.115  11.199   0.225  0.0526  0.9829 -0.0478
  125MOL0     O16748  -0.177  11.301   0.148  0.2735  0.6643  0.0012
  125MOL0     C16749  -0.155  11.298  -0.004  0.7605  1.1571 -0.0811
  125MOL0     C16750  -0.215  11.425  -0.060 -0.5074  0.2429  0.0184
  125MOL0     C16751  -0.362  11.404  -0.094 -0.6725  0.0446 -0.1891
  125MOL0     C16752  -0.456  11.341   0.008  0.0519 -0.0298  0.0818
  125MOL0     C16753  -0.603  11.402  -0.020 -0.2506 -0.5952  0.1904
  125MOL0     C16754  -0.628  11.545   0.026 -0.3816 -0.5502  0.2287
  125MOL0     C16755  -0.584  11.585   0.166 -0.7377  0.3250  0.1528
  125MOL0     C16756  -0.615  11.728   0.208  0.0008 -0.2215 -0.3846
  125MOL0     N16757  -0.756  11.746   0.189  0.6878 -1.1575 -0.2166
  125MOL0     C16758  -0.853  11.701   0.274 -1.0883  0.1226 -0.3189
  125MOL0     C16759  -0.963  11.757   0.238 -0.1591 -0.3575  0.3083
  125MOL0     C16760  -1.087  11.729   0.315  0.1900 -0.5519  0.1107
  125MOL0     C16761  -1.104  11.832   0.429 -0.2264  0.6058  0.0912
  125MOL0     C16762  -1.250  11.835   0.491  1.7357 -0.0575 -0.5924
  125MOL0     C16763  -1.296  11.949   0.585  0.2098  0.0039  0.4598
  125MOL0     O16764  -1.405  11.911   0.659  0.1844  0.1813  0.0226
  125MOL0     C16765  -1.526  11.912   0.600 -0.8197 -0.4606  0.5036
  125MOL0     C16766  -1.578  11.789   0.559 -0.2029 -0.2165  0.5659
  125MOL0     C16767  -1.707  11.784   0.495  0.1277 -0.4274  0.7697
  125MOL0     C16768  -1.746  11.643   0.447 -0.1956 -0.0689  0.0311
  125MOL0     C16769  -1.779  11.906   0.477  0.0111 -0.4056  0.7559
  125MOL0     C16770  -1.902  11.901   0.398 -0.5058 -0.2508 -0.3329
  125MOL0     O16771  -2.009  11.983   0.435  0.1323 -0.1435  0.3192
  125MOL0     C16772  -2.130  11.930   0.399 -0.3399  0.4326 -0.0992
  125MOL0     C16773  -2.224  12.006   0.338  0.4349 -0.0943  1.7666
  125MOL0     C16774  -2.345  11.954   0.300 -0.1661 -0.6129  0.3099
  125MOL0     C16775  -2.382  11.827   0.339  0.3026 -0.7030 -0.0094
  125MOL0     O16776  -2.512  11.779   0.304  0.2503  0.2498 -0.4071
  125MOL0     C16777  -2.594  11.728   0.417  0.1614 -0.5615  0.1185
  125MOL0     C16778  -2.737  11.781   0.419  0.8222  0.9051  0.0610
  125MOL0     C16779  -2.733  11.932   0.439  0.2098 -0.4742 -0.3028
  125MOL0     C16780  -2.867  11.984   0.498  0.0627 -0.3174 -0.0391
  125MOL0     C16781  -2.959  12.045   0.389 -0.1429 -0.3783 -0.2384
  125MOL0     C16782  -3.078  11.958   0.347 -0.8342  0.2729 -0.3936
  125MOL0     C16783  -3.188  12.053   0.302  0.2823 -0.0322  1.4066
  125MOL0     C16784  -3.302  11.979   0.237  0.3460  0.2810  0.9516
  125MOL0    Cl16785  -3.466  12.062   0.263  0.2151 -0.0216 -0.1933
  125MOL0     C16786  -2.295  11.751   0.416  0.5137  0.9379 -0.4765
  125MOL0     C16787  -2.166  11.797   0.440  0.4564 -0.0485  1.1392
  125MOL0     O16788  -1.899  11.819   0.305  0.7917  0.6474  0.5313
  125MOL0     C16789  -1.725  12.026   0.530  0.7611 -0.0833 -0.2640
  125MOL0     C16790  -1.598  12.026   0.576 -0.2942 -0.0340 -0.5772
  125MOL0     N16791  -0.948  11.839   0.128 -0.5433  0.0596  0.3488
  125MOL0     N16792  -0.816  11.831   0.108  0.7577  0.0569  0.1002
  125MOL0     C16793  -0.039  11.093   0.176 -0.3973 -0.0131 -0.0544
  125MOL0     C16794   0.031  11.004   0.266 -0.0786 -0.2518  1.1223
  125MOL0     C16795   0.345  10.925   0.573  0.2072 -0.7916  0.7127
  125MOL0     C16796   0.294  10.856   0.682  0.3283 -0.5012  0.4553
  125MOL0     C16797   0.371  10.795   0.781 -0.3532 -0.5795 -1.0453
  125MOL0     C16798   0.504  10.827   0.782  0.1371 -0.8200 -0.3618
  125MOL0     O16799   0.596  10.757   0.864  0.0483  0.1054  0.2147
  125MOL0     C16800   0.554  10.757   0.999  0.6108  0.0670 -0.0134
  125MOL0     C16801   0.671  10.782   1.091  0.4222  0.1086 -0.5405
  125MOL0     C16802   0.599  10.825   1.220  1.0534 -0.9289  0.4189
  125MOL0     C16803   0.676  10.834   1.352 -1.2229 -0.5837 -0.5186
  125MOL0     C16804   0.798  10.916   1.318  0.2816  0.1055  0.3969
  125MOL0     C16805   0.886  10.988   1.276  0.3443  0.3100 -0.4595
  125MOL0     C16806   0.562  10.905   0.682  0.2332  0.1948  0.7715
  125MOL0     C16807   0.482  10.950   0.574  0.2478  0.2985 -0.6925
  125MOL0     H16808  -0.032  11.152   0.559  0.0172 -1.2751  0.2475
  125MOL0     H16809  -0.158  11.304   0.397 -2.7162 -2.2851  1.1437
  125MOL0     H16810  -0.048  11.300  -0.022  1.3981 -3.3938  1.8644
  125MOL0     H16811  -0.199  11.212  -0.055 -1.8715  1.6190  1.2246
  125MOL0     H16812  -0.199  11.513   0.004  0.2277 -1.9344  3.0879
  125MOL0     H16813  -0.156  11.444  -0.150 -0.1088 -0.9363  0.0116
  125MOL0     H16814  -0.395  11.507  -0.112  1.9739  0.6450 -2.2760
  125MOL0     H16815  -0.380  11.339  -0.180 -2.6588 -0.2976  0.4363
  125MOL0     H16816  -0.464  11.235  -0.016 -0.2714 -0.4687  1.9736
  125MOL0     H16817  -0.420  11.352   0.111  3.0020  1.5567 -0.9796
  125MOL0     H16818  -0.622  11.391  -0.127 -1.0426 -0.0839  0.2721
  125MOL0     H16819  -0.666  11.326   0.029  4.0990 -4.1151  0.9898
  125MOL0     H16820  -0.586  11.613  -0.047 -0.5639 -2.3709 -1.6832
  125MOL0     H16821  -0.738  11.545   0.030 -0.4800 -2.4430 -0.9889
  125MOL0     H16822  -0.632  11.512   0.232 -0.9830 -1.2449 -1.6722
  125MOL0     H16823  -0.476  11.568   0.164 -0.9228 -1.0156 -2.2303
  125MOL0     H16824  -0.566  11.799   0.141 -1.2871 -0.4286 -1.6022
  125MOL0     H16825  -0.588  11.754   0.311 -4.1471 -1.4622  1.2227
  125MOL0     H16826  -0.840  11.634   0.359 -2.1807  3.4302  2.7239
  125MOL0     H16827  -1.176  11.731   0.250 -1.0194  0.5584  1.7345
  125MOL0     H16828  -1.095  11.626   0.352  0.1361 -1.3614 -2.0099
  125MOL0     H16829  -1.080  11.933   0.396 -2.0221  0.3959 -2.0992
  125MOL0     H16830  -1.034  11.790   0.501 -1.9810 -1.6094  0.6118
  125MOL0     H16831  -1.257  11.743   0.550 -0.5249 -0.1174 -0.8898
  125MOL0     H16832  -1.322  11.836   0.409 -1.8940 -1.7461  2.2974
  125MOL0     H16833  -1.316  12.032   0.517 -0.6240 -2.0689 -1.9918
  125MOL0     H16834  -1.229  11.993   0.660 -0.8034  2.0121  0.2588
  125MOL0     H16835  -1.520  11.698   0.557  1.3535  0.6617 -3.3101
  125MOL0     H16836  -1.680  11.566   0.487  1.9658  0.2658 -2.5473
  125MOL0     H16837  -1.850  11.634   0.478 -0.5525 -0.9239 -1.3384
  125MOL0     H16838  -1.732  11.627   0.339 -1.9134 -1.0712 -0.0654
  125MOL0     H16839  -2.191  12.106   0.312 -0.3181  0.3415  2.4482
  125MOL0     H16840  -2.419  12.010   0.244  2.2694  0.7372 -1.7830
  125MOL0     H16841  -2.618  11.622   0.401  1.4596 -1.5508  3.5655
  125MOL0     H16842  -2.539  11.752   0.509  2.2229 -0.7681 -0.9929
  125MOL0     H16843  -2.798  11.762   0.330  1.2893  1.2881 -0.3453
  125MOL0     H16844  -2.783  11.727   0.502  0.3016  0.5997 -0.4117
  125MOL0     H16845  -2.704  11.972   0.341 -4.1333 -3.7856 -3.3516
  125MOL0     H16846  -2.656  11.956   0.513  0.0041  0.0225 -0.2459
  125MOL0     H16847  -2.921  11.902   0.544 -1.4659  0.1827 -0.8577
  125MOL0     H16848  -2.848  12.060   0.575 -1.1508 -3.2799  3.4496
  125MOL0     H16849  -2.894  12.072   0.305  1.5487 -4.2123 -0.3752
  125MOL0     H16850  -2.994  12.136   0.440 -1.3575 -0.6943 -0.4789
  125MOL0     H16851  -3.047  11.896   0.262 -0.0082 -0.7072  0.5932
  125MOL0     H16852  -3.097  11.881   0.423 -0.9153  0.2493 -0.4374
  125MOL0     H16853  -3.142  12.125   0.233  0.2295 -2.2723 -1.1570
  125MOL0     H16854  -3.232  12.107   0.386 -0.9079  0.5166  0.4640
  125MOL0     H16855  -3.319  11.881   0.281 -0.0127  0.1103  0.4519
  125MOL0     H16856  -3.279  11.967   0.131 -0.8026 -1.1217  0.8341
  125MOL0     H16857  -2.327  11.661   0.467 -2.7947  3.4950  2.5375
  125MOL0     H16858  -2.109  11.723   0.495 -1.6695 -0.2567  3.2316
  125MOL0     H16859  -1.788  12.111   0.506 -0.8678 -1.0326  0.4188
  125MOL0     H16860  -1.555  12.121   0.606 -0.8235  0.1414 -0.3698
  125MOL0     H16861  -0.035  11.065   0.071  0.1525 -1.1501  0.2482
  125MOL0     H16862   0.087  10.924   0.219 -0.0188  0.5820 -0.2830
  125MOL0     H16863   0.186  10.842   0.683  0.4349 -1.3549  0.3907
  125MOL0     H16864   0.324  10.743   0.864  3.1340  2.7001  3.4794
  125MOL0     H16865   0.476  10.832   1.019  1.8191  1.9748 -2.0894
  125MOL0     H16866   0.523  10.655   1.024  4.1128 -1.4967 -1.4010
  125MOL0     H16867   0.718  10.872   1.053  0.1766  0.0387 -1.0172
  125MOL0     H16868   0.743  10.701   1.108  2.0887  1.9463  1.8843
  125MOL0     H16869   0.518  10.755   1.241  4.3108 -3.8049  5.7187
  125MOL0     H16870   0.562  10.927   1.207  0.9377 -1.2430 -2.0850
  125MOL0     H16871   0.714  10.738   1.385  2.6125  0.2712 -1.9692
  125MOL0     H16872   0.613  10.875   1.432  0.9780 -1.2789  1.6629
  125MOL0     H16873   0.945  11.071   1.243 -1.3867  2.6748  1.9005
  125MOL0     H16874   0.670  10.914   0.673  0.0702  1.2347 -0.6042
  125MOL0     H16875   0.534  11.015   0.505  5.1092  1.0093  3.1089
  126MOL0     O16876   8.944   5.355   7.950  0.2487  0.3189  1.6582
  126MOL0     C16877   8.953   5.404   8.065  0.0687 -0.1253  1.5338
  126MOL0     O16878   8.849   5.442   8.148  0.1487 -0.1371  0.4802
  126MOL0     C16879   8.717   5.452   8.103 -0.1067 -0.3720  1.8259
  126MOL0     C16880   8.644   5.544   8.168  0.1415 -1.8647  0.3835
  126MOL0     C16881   8.508   5.577   8.139 -0.1199  0.9479  1.0740
  126MOL0     C16882   8.440   5.500   8.040 -0.1545 -0.2812  0.1964
  126MOL0     O16883   8.316   5.537   7.999 -0.3114  0.2290 -0.0849
  126MOL0     C16884   8.222   5.427   7.960 -0.5976 -0.0170 -0.5119
  126MOL0     C16885   8.080   5.482   7.969 -0.5172  0.0370  0.0240
  126MOL0     C16886   8.010   5.448   8.112  1.1160  0.0319 -0.6965
  126MOL0     C16887   8.070   5.533   8.226 -0.3554 -1.1287  0.1690
  126MOL0     C16888   8.016   5.484   8.368 -0.2215  0.3497  0.1533
  126MOL0     C16889   8.043   5.593   8.468 -0.4555 -0.2904 -0.2755
  126MOL0     C16890   7.950   5.716   8.480  0.9061  0.2990 -0.6953
  126MOL0     C16891   7.794   5.688   8.468  0.6457  0.2284 -0.3922
  126MOL0     N16892   7.725   5.668   8.597 -0.1306  0.4716 -0.2728
  126MOL0     C16893   7.698   5.549   8.655 -0.7006 -0.1998 -1.1834
  126MOL0     C16894   7.633   5.572   8.767 -0.6149 -0.2820 -0.0875
  126MOL0     C16895   7.592   5.468   8.869  0.2496  0.3534  0.5728
  126MOL0     C16896   7.675   5.492   9.000  0.0008  0.2400  1.5103
  126MOL0     C16897   7.675   5.358   9.072 -0.0223 -0.2683  0.0943
  126MOL0     C16898   7.544   5.288   9.105 -0.8241 -0.1006  0.1971
  126MOL0     O16899   7.488   5.225   8.983  0.1173  0.7795 -0.3948
  126MOL0     C16900   7.545   5.108   8.923  0.5607  0.2112  1.0545
  126MOL0     C16901   7.519   5.083   8.788  0.7148 -0.1081 -0.1407
  126MOL0     C16902   7.549   4.961   8.722 -0.5932  0.5142 -0.0168
  126MOL0     C16903   7.507   4.949   8.578  0.1959  0.0451 -1.0504
  126MOL0     C16904   7.606   4.858   8.793 -1.2055 -0.8184  0.3187
  126MOL0     C16905   7.648   4.734   8.725  0.2495 -0.3837 -0.8274
  126MOL0     O16906   7.651   4.615   8.805  0.4398 -0.1800  0.5808
  126MOL0     C16907   7.721   4.507   8.766 -1.0479 -0.0804 -0.0060
  126MOL0     C16908   7.856   4.517   8.727  0.3482  0.0382  0.6019
  126MOL0     C16909   7.916   4.405   8.675 -0.0198  0.5141 -0.0247
  126MOL0     C16910   7.855   4.281   8.651  0.1572 -0.5991 -0.6207
  126MOL0     O16911   7.935   4.182   8.603 -0.8891 -0.2517 -1.2909
  126MOL0     C16912   7.886   4.052   8.608  0.5800  0.5544  0.3004
  126MOL0     C16913   7.968   3.957   8.520 -0.2445 -0.0131 -0.0873
  126MOL0     C16914   8.115   3.940   8.574 -0.3464 -0.3892 -0.6522
  126MOL0     C16915   8.209   3.866   8.485 -0.9250 -0.2960  0.3541
  126MOL0     C16916   8.281   3.951   8.387  0.1407  0.2417  0.4369
  126MOL0     C16917   8.400   3.882   8.308  0.2740  0.1323 -0.3745
  126MOL0     C16918   8.510   3.984   8.304 -0.1427  1.2179 -0.1158
  126MOL0     C16919   8.468   4.108   8.217  0.0585  0.2540  0.4847
  126MOL0    Cl16920   8.459   4.064   8.044  0.2052 -0.4375 -0.1126
  126MOL0     C16921   7.727   4.270   8.695  0.9944  0.6739 -0.9415
  126MOL0     C16922   7.655   4.383   8.750  0.0781 -0.2522 -0.1325
  126MOL0     O16923   7.680   4.737   8.606  0.3763  0.3938 -0.9907
  126MOL0     C16924   7.650   4.881   8.924  0.4465  1.0268  0.5945
  126MOL0     C16925   7.613   5.004   8.992  0.1170 -0.0531  0.8520
  126MOL0     N16926   7.605   5.710   8.778  0.2999 -0.2194 -0.0057
  126MOL0     N16927   7.649   5.764   8.658 -0.3507 -1.2104  1.0747
  126MOL0     C16928   8.516   5.408   7.964 -0.0702  0.0210 -0.1456
  126MOL0     C16929   8.659   5.385   7.993  1.2479 -0.2003  0.0584
  126MOL0     C16930   9.086   5.429   8.118 -0.3458  0.0550  0.4393
  126MOL0     C16931   9.113   5.434   8.254  0.0926  0.1079 -0.7307
  126MOL0     C16932   9.247   5.444   8.298 -1.3138  0.0798 -0.6440
  126MOL0     C16933   9.360   5.435   8.208  1.0815 -0.3259  0.0671
  126MOL0     O16934   9.485   5.457   8.249 -0.4810 -0.1441  0.4964
  126MOL0     C16935   9.516   5.434   8.391  0.4019  0.0715 -0.4273
  126MOL0     C16936   9.661   5.462   8.424 -0.3595 -0.4979 -0.6680
  126MOL0     C16937   9.678   5.474   8.578 -0.1633  0.3707 -0.0652
  126MOL0     C16938   9.665   5.620   8.622  0.2152 -1.0905  0.3039
  126MOL0     C16939   9.779   5.713   8.594 -0.6980 -0.9718  0.5065
  126MOL0     C16940   9.866   5.794   8.577  0.5203 -0.2730 -0.5054
  126MOL0     C16941   9.324   5.428   8.077  0.1003 -0.2617 -0.2757
  126MOL0     C16942   9.196   5.417   8.028 -0.8140 -0.9236 -0.3625
  126MOL0     H16943   8.695   5.605   8.243 -0.9931  2.3461 -1.9549
  126MOL0     H16944   8.446   5.646   8.195 -2.0639  0.2176 -0.0739
  126MOL0     H16945   8.249   5.399   7.857 -0.8478 -1.8253 -0.1148
  126MOL0     H16946   8.214   5.334   8.016  1.9145  1.2578  2.2018
  126MOL0     H16947   8.089   5.591   7.965  1.4449 -0.1056 -0.9214
  126MOL0     H16948   8.022   5.445   7.884  0.4774  0.4409 -0.8476
  126MOL0     H16949   7.903   5.471   8.103  1.5379  1.4956 -2.5767
  126MOL0     H16950   8.021   5.342   8.136  0.4573 -0.3237 -1.8810
  126MOL0     H16951   8.178   5.540   8.207 -0.8503  2.0472 -2.2596
  126MOL0     H16952   8.033   5.635   8.218 -0.8559 -1.1783  1.6163
  126MOL0     H16953   7.911   5.468   8.343  0.7580 -2.8133 -2.7160
  126MOL0     H16954   8.062   5.388   8.394  3.8342  1.1625 -3.0478
  126MOL0     H16955   8.039   5.544   8.566  0.4508  1.9673  0.9598
  126MOL0     H16956   8.147   5.625   8.464 -0.8542  1.7014  2.3467
  126MOL0     H16957   7.973   5.773   8.570 -1.6137 -1.1889  1.0094
  126MOL0     H16958   7.984   5.772   8.392  1.1794 -2.6026 -2.5842
  126MOL0     H16959   7.768   5.606   8.401  0.5338 -1.1000  1.1932
  126MOL0     H16960   7.753   5.785   8.437  3.8945  1.6983 -0.5528
  126MOL0     H16961   7.711   5.446   8.624 -1.5546 -0.8067  0.3332
  126MOL0     H16962   7.484   5.479   8.885 -0.1480 -2.0550 -0.1257
  126MOL0     H16963   7.621   5.368   8.835  0.2078  0.4365  0.2890
  126MOL0     H16964   7.638   5.573   9.063 -1.4812 -0.1091  1.1233
  126MOL0     H16965   7.774   5.526   8.967 -0.2391  1.3667  1.8974
  126MOL0     H16966   7.745   5.364   9.156 -1.7314 -1.9454  1.7447
  126MOL0     H16967   7.731   5.290   9.007  2.4527  2.2197 -0.5876
  126MOL0     H16968   7.477   5.332   9.180  1.8451 -1.2280  3.5140
  126MOL0     H16969   7.592   5.209   9.164 -0.6078  0.5167  0.8602
  126MOL0     H16970   7.474   5.171   8.743 -1.3100  0.6995  3.1023
  126MOL0     H16971   7.446   4.860   8.555 -2.5454  0.9762  1.9267
  126MOL0     H16972   7.456   5.037   8.538  0.8344  0.3741 -1.1573
  126MOL0     H16973   7.598   4.959   8.519 -0.0088  0.8947 -1.2289
  126MOL0     H16974   7.929   4.597   8.742  4.1291 -2.6619 -1.6168
  126MOL0     H16975   8.024   4.417   8.666  0.1588  0.1011  1.4125
  126MOL0     H16976   7.873   4.013   8.709  0.7589 -3.3220 -0.9968
  126MOL0     H16977   7.787   4.052   8.559  0.7666  2.1535 -0.1447
  126MOL0     H16978   7.927   3.856   8.511  3.3242 -1.7993  1.3456
  126MOL0     H16979   7.970   3.997   8.418 -3.6341  1.8006  0.4227
  126MOL0     H16980   8.114   3.878   8.664 -2.7874 -0.8319 -0.9046
  126MOL0     H16981   8.162   4.033   8.606  0.5544 -1.5044  1.4603
  126MOL0     H16982   8.290   3.825   8.545 -1.0233  0.5298  1.0764
  126MOL0     H16983   8.161   3.793   8.420  1.6289 -0.6739 -1.2397
  126MOL0     H16984   8.316   4.037   8.445 -0.9948 -1.0823  3.2842
  126MOL0     H16985   8.209   3.995   8.317  0.6863 -2.9447 -2.3795
  126MOL0     H16986   8.431   3.797   8.369  0.5216  1.6409  1.7144
  126MOL0     H16987   8.372   3.850   8.207 -2.8383 -2.4444  1.1259
  126MOL0     H16988   8.600   3.934   8.266  0.3574  2.3360 -0.4448
  126MOL0     H16989   8.540   4.008   8.406 -0.5502 -0.0049  0.3094
  126MOL0     H16990   8.538   4.191   8.229  0.6626 -0.1246 -0.3324
  126MOL0     H16991   8.371   4.148   8.248 -0.1745 -1.4840  2.2393
  126MOL0     H16992   7.674   4.175   8.689  2.8805 -0.7884  2.5213
  126MOL0     H16993   7.547   4.381   8.753  0.0774  0.4866  2.3834
  126MOL0     H16994   7.718   4.803   8.958  0.0987 -0.3287 -1.5908
  126MOL0     H16995   7.656   5.013   9.091  0.8034 -0.6139  0.6134
  126MOL0     H16996   8.473   5.349   7.883 -1.9107 -1.7021  1.9596
  126MOL0     H16997   8.715   5.314   7.934  0.1845 -1.2611  0.2710
  126MOL0     H16998   9.033   5.453   8.324  0.9653  0.0411  0.3092
  126MOL0     H16999   9.251   5.455   8.406 -1.7298 -3.1235 -0.2172
  126MOL0     H17000   9.453   5.491   8.460 -1.8879 -3.8049  1.0228
  126MOL0     H17001   9.484   5.331   8.411 -2.2665  1.0769  0.9739
  126MOL0     H17002   9.697   5.555   8.377 -1.4470  0.0871 -0.3732
  126MOL0     H17003   9.728   5.384   8.386  4.0085  1.0558  2.9273
  126MOL0     H17004   9.782   5.441   8.591 -1.2100 -3.3986 -0.0582
  126MOL0     H17005   9.614   5.405   8.633 -1.5507 -1.7252 -3.9187
  126MOL0     H17006   9.657   5.634   8.730  2.2140  0.7129  0.2918
  126MOL0     H17007   9.578   5.658   8.568  0.1658 -2.1706 -0.4083
  126MOL0     H17008   9.944   5.866   8.561 -1.7078  3.0636  2.2455
  126MOL0     H17009   9.401   5.430   8.000  2.7578 -1.9088  2.1230
  126MOL0     H17010   9.185   5.395   7.922 -1.3901 -1.1454 -0.2571
  127MOL0     O17011  10.427  10.939  10.088  1.0343  0.3825 -0.4808
  127MOL0     C17012  10.474  11.013  10.009 -0.0414  0.2557  0.0985
  127MOL0     O17013  10.606  10.997   9.964  0.5260 -0.0491  0.7287
  127MOL0     C17014  10.678  10.895  10.015  0.1537  1.0490 -0.0804
  127MOL0     C17015  10.804  10.923  10.067 -0.8143  0.2904 -0.1704
  127MOL0     C17016  10.887  10.818  10.094  0.1267  0.3447  0.8387
  127MOL0     C17017  10.868  10.688  10.047  0.6526 -0.3933  0.3895
  127MOL0     O17018  10.964  10.599  10.061  0.4528  0.0812 -0.0269
  127MOL0     C17019  10.982  10.491   9.966 -0.7056  0.1575 -0.3003
  127MOL0     C17020  10.948  10.359  10.036  0.1587  0.2973 -0.2407
  127MOL0     C17021  10.903  10.244   9.944 -0.8944  0.1549  0.1481
  127MOL0     C17022  10.997  10.130   9.966 -0.1392  1.5176  0.5790
  127MOL0     C17023  10.948  10.014   9.880 -0.1440  0.6724 -0.3371
  127MOL0     C17024  11.047   9.884   9.867  0.1045 -1.0132  0.3453
  127MOL0     C17025  11.184   9.945   9.833  0.1560 -0.1248  0.2034
  127MOL0     C17026  11.275   9.824   9.806  0.7624  0.4678  0.3006
  127MOL0     N17027  11.390   9.853   9.724  0.4455  0.2582 -0.2293
  127MOL0     C17028  11.407   9.809   9.594 -0.7530  0.8367  0.3143
  127MOL0     C17029  11.529   9.850   9.568  0.3076  0.4026 -0.4246
  127MOL0     C17030  11.603   9.804   9.440  0.0852 -0.3289 -0.4804
  127MOL0     C17031  11.743   9.767   9.484  0.0943  1.0177 -0.1112
  127MOL0     C17032  11.832   9.715   9.368  0.2018 -0.1768 -0.2777
  127MOL0     C17033  11.965   9.666   9.419 -0.2821  0.2822 -0.2693
  127MOL0     O17034  12.029   9.576   9.326  0.0254  0.6211  0.0369
  127MOL0     C17035  12.115   9.616   9.226  0.0444  0.0362  1.0139
  127MOL0     C17036  12.121   9.747   9.186 -0.2125 -0.5151  0.3500
  127MOL0     C17037  12.221   9.787   9.092  0.6861  0.2647 -0.6914
  127MOL0     C17038  12.219   9.924   9.055  0.0608 -0.3205 -0.2273
  127MOL0     C17039  12.295   9.683   9.030  0.1232  0.0279  0.8510
  127MOL0     C17040  12.384   9.711   8.919  0.8049 -0.6419  0.6190
  127MOL0     O17041  12.512   9.664   8.929  0.4957 -0.1031  0.3601
  127MOL0     C17042  12.606   9.664   8.822 -0.3565 -0.5771  0.1194
  127MOL0     C17043  12.691   9.551   8.808  0.2572 -0.4703  0.2122
  127MOL0     C17044  12.804   9.548   8.714 -1.2925  0.1368 -0.5724
  127MOL0     C17045  12.832   9.662   8.642  0.0444  0.0522  0.0697
  127MOL0     O17046  12.926   9.672   8.544 -0.6276  0.6434 -0.2082
  127MOL0     C17047  13.055   9.705   8.598  0.8706  0.0280  0.0994
  127MOL0     C17048  13.145   9.732   8.470 -0.0299  0.8290  0.3009
  127MOL0     C17049  13.120   9.861   8.397 -0.5529  0.0803 -0.1576
  127MOL0     C17050  12.988   9.847   8.300  0.0190  0.4854  0.9131
  127MOL0     C17051  12.963   9.981   8.227  1.0834 -0.6531  0.0242
  127MOL0     C17052  12.900  10.088   8.311 -0.3194 -0.6313  0.4892
  127MOL0     C17053  12.865  10.215   8.236 -0.1542 -0.3722  0.4890
  127MOL0     C17054  12.736  10.279   8.281  0.0748 -0.0175 -1.3064
  127MOL0    Cl17055  12.586  10.170   8.281  0.0144 -0.2735  0.1335
  127MOL0     C17056  12.754   9.782   8.652 -0.8665  0.6277  0.7550
  127MOL0     C17057  12.636   9.776   8.737  0.0841 -1.2411 -0.0668
  127MOL0     O17058  12.344   9.781   8.827  0.0394  0.6568  0.3237
  127MOL0     C17059  12.270   9.550   9.055  0.6185  0.1748  0.1544
  127MOL0     C17060  12.183   9.522   9.162 -0.4066  1.2664  0.4159
  127MOL0     N17061  11.577   9.913   9.678 -0.2506 -0.3990 -0.5686
  127MOL0     N17062  11.497   9.911   9.773  0.3267  0.4227 -0.7361
  127MOL0     C17063  10.749  10.664   9.986  0.3236  0.5519  0.4340
  127MOL0     C17064  10.654  10.757   9.973  1.3698 -1.2426  0.6011
  127MOL0     C17065  10.393  11.116   9.936  0.7853  0.8062  0.0273
  127MOL0     C17066  10.458  11.198   9.846  0.2333 -1.3668 -0.2170
  127MOL0     C17067  10.387  11.306   9.788  0.2740  0.0870 -0.1975
  127MOL0     C17068  10.258  11.320   9.820  1.1461  0.2397 -0.1406
  127MOL0     O17069  10.178  11.427   9.767 -0.0672  1.2032  0.2076
  127MOL0     C17070  10.236  11.524   9.669  0.0587  0.8473 -0.1134
  127MOL0     C17071  10.119  11.619   9.623 -0.6187  0.9536  0.4326
  127MOL0     C17072  10.052  11.695   9.738 -0.6318 -0.6801  0.4746
  127MOL0     C17073   9.902  11.729   9.720  0.3026  0.0408  1.0349
  127MOL0     C17074   9.880  11.850   9.630 -0.5566  0.0934  0.0321
  127MOL0     C17075   9.858  11.952   9.580  0.4566 -0.2938 -0.4542
  127MOL0     C17076  10.195  11.230   9.909  1.2326 -0.3973  0.3977
  127MOL0     C17077  10.253  11.125   9.964 -0.6742 -0.5593 -0.2665
  127MOL0     H17078  10.832  11.027  10.077 -0.1729  0.0649  0.5453
  127MOL0     H17079  10.991  10.841  10.116  0.6882  0.8907 -2.0891
  127MOL0     H17080  10.925  10.529   9.880  2.8247  1.7003 -2.1922
  127MOL0     H17081  11.085  10.489   9.928  0.3935  1.8301  2.2897
  127MOL0     H17082  11.015  10.332  10.118 -1.4055  2.1182  1.7621
  127MOL0     H17083  10.866  10.388  10.102 -0.6195 -0.8529 -0.6758
  127MOL0     H17084  10.801  10.219   9.974 -0.8823  0.0642  0.1140
  127MOL0     H17085  10.904  10.273   9.839 -1.3892  0.3813  0.2074
  127MOL0     H17086  11.091  10.168   9.924  0.7136  0.1962  1.2484
  127MOL0     H17087  11.017  10.100  10.069 -0.5075 -1.8062 -0.2280
  127MOL0     H17088  10.849   9.985   9.919  0.3761 -4.1482 -1.8650
  127MOL0     H17089  10.925  10.040   9.777  3.7283 -0.4529 -1.6309
  127MOL0     H17090  11.044   9.823   9.958  2.0439 -2.1141 -0.2733
  127MOL0     H17091  11.013   9.828   9.779  1.2827  0.6192 -1.2148
  127MOL0     H17092  11.165  10.007   9.745  0.1618 -0.3575  0.0398
  127MOL0     H17093  11.222  10.002   9.918 -1.2341 -0.9288  1.4226
  127MOL0     H17094  11.228   9.737   9.759  0.3368  1.7987 -1.9175
  127MOL0     H17095  11.312   9.794   9.904  3.2631 -3.7088 -1.6789
  127MOL0     H17096  11.349   9.746   9.527  1.9078  1.5331 -2.8690
  127MOL0     H17097  11.541   9.719   9.410 -2.0096  0.0286  2.4077
  127MOL0     H17098  11.614   9.870   9.353  2.4331 -0.2299 -0.1747
  127MOL0     H17099  11.740   9.682   9.553 -2.3991 -0.0105 -1.3505
  127MOL0     H17100  11.790   9.850   9.537 -2.7957  1.0156  2.8200
  127MOL0     H17101  11.857   9.797   9.301 -1.7005 -1.3310 -2.5401
  127MOL0     H17102  11.787   9.633   9.311 -0.7757 -0.1364  0.4079
  127MOL0     H17103  11.944   9.618   9.515 -0.1189  1.7176  0.5021
  127MOL0     H17104  12.027   9.751   9.448  0.7993 -1.4811  3.0977
  127MOL0     H17105  12.055   9.823   9.227  0.9041 -0.1368  1.5459
  127MOL0     H17106  12.169   9.988   9.128  1.6868  1.5291 -0.6476
  127MOL0     H17107  12.314   9.972   9.029 -1.0602  2.6860  0.8103
  127MOL0     H17108  12.165   9.935   8.960  0.3426  0.9942 -0.2546
  127MOL0     H17109  12.667   9.468   8.874 -1.6957  0.0018  0.1335
  127MOL0     H17110  12.882   9.473   8.720 -1.9153 -0.4701  4.4681
  127MOL0     H17111  13.052   9.791   8.665 -1.1559 -1.1740  1.6447
  127MOL0     H17112  13.092   9.617   8.652  1.9555 -0.5695 -1.5461
  127MOL0     H17113  13.242   9.733   8.521  0.0448 -0.1859  0.2152
  127MOL0     H17114  13.142   9.647   8.400 -0.3406 -0.1618  1.4826
  127MOL0     H17115  13.212   9.870   8.340  0.9334 -2.5080  1.6314
  127MOL0     H17116  13.125   9.936   8.476  2.9317 -0.0110 -0.1468
  127MOL0     H17117  13.022   9.772   8.227  2.3048  1.7534  0.5582
  127MOL0     H17118  12.903   9.808   8.355 -1.8464  0.0481 -2.0628
  127MOL0     H17119  12.897   9.965   8.141 -3.3369 -1.3952  3.2218
  127MOL0     H17120  13.061  10.012   8.188  0.6818  0.1620 -0.3442
  127MOL0     H17121  12.808  10.046   8.354 -0.0680 -0.5488  1.1191
  127MOL0     H17122  12.963  10.106   8.399 -1.5577 -1.0235  1.4853
  127MOL0     H17123  12.858  10.197   8.128 -0.9549  1.1239  0.2812
  127MOL0     H17124  12.946  10.288   8.248  0.5136 -0.8135 -1.0620
  127MOL0     H17125  12.714  10.369   8.223  2.3925  2.0647  0.7995
  127MOL0     H17126  12.747  10.311   8.385  0.8072 -2.1356 -0.6933
  127MOL0     H17127  12.783   9.867   8.592  0.2791 -1.9241 -2.6418
  127MOL0     H17128  12.582   9.869   8.749 -1.7924 -2.2175 -0.6430
  127MOL0     H17129  12.336   9.474   9.016  1.2140 -0.2907  2.0033
  127MOL0     H17130  12.172   9.415   9.176  1.1382  0.9048 -0.8836
  127MOL0     H17131  10.733  10.569   9.936  1.8720  1.0212 -1.0508
  127MOL0     H17132  10.551  10.726   9.954  0.3632  1.3966  1.2315
  127MOL0     H17133  10.564  11.204   9.823  0.0816 -0.3410 -0.6757
  127MOL0     H17134  10.428  11.381   9.721 -2.4187  0.8307 -1.1396
  127MOL0     H17135  10.306  11.593   9.717  1.6716  0.2778 -1.5461
  127MOL0     H17136  10.263  11.473   9.576 -1.9383 -2.9783  1.2067
  127MOL0     H17137  10.045  11.553   9.576  2.1616 -1.1529 -1.3228
  127MOL0     H17138  10.148  11.700   9.555 -1.9156  1.6650  0.6891
  127MOL0     H17139  10.113  11.783   9.760 -1.9557  0.5049 -0.4095
  127MOL0     H17140  10.056  11.628   9.824  0.9375 -1.0091  0.1804
  127MOL0     H17141   9.868  11.766   9.817 -4.2426  2.1768 -1.0598
  127MOL0     H17142   9.837  11.645   9.694 -0.2358  1.2296 -1.8731
  127MOL0     H17143   9.839  12.046   9.531  3.0662 -0.8301 -2.7121
  127MOL0     H17144  10.087  11.233   9.923  0.8956  2.6820 -1.8742
  127MOL0     H17145  10.200  11.062  10.035 -0.0237 -0.0039  0.7248
  128MOL0     O17146   4.158   4.283  11.119  0.1037  0.4935 -0.7817
  128MOL0     C17147   4.273   4.302  11.080  0.5811  0.1995  1.0783
  128MOL0     O17148   4.301   4.315  10.945 -0.3366  0.6897  0.0467
  128MOL0     C17149   4.200   4.376  10.876  0.2631 -1.3364  0.9010
  128MOL0     C17150   4.181   4.512  10.886 -0.2531 -0.4157 -0.1037
  128MOL0     C17151   4.078   4.579  10.809  0.2047 -0.6035 -0.2907
  128MOL0     C17152   3.982   4.496  10.733 -0.1088  0.4460 -0.3128
  128MOL0     O17153   3.878   4.557  10.675  0.2760 -0.4231 -0.2496
  128MOL0     C17154   3.888   4.667  10.589  0.3392 -0.7421  0.4604
  128MOL0     C17155   3.750   4.711  10.533 -0.9163 -0.0162 -0.1551
  128MOL0     C17156   3.680   4.810  10.624  0.1580  0.3326  0.0095
  128MOL0     C17157   3.543   4.821  10.585  0.4734  0.7642  0.0109
  128MOL0     C17158   3.461   4.923  10.663 -1.0115  0.1915 -1.2033
  128MOL0     C17159   3.431   4.888  10.812 -0.2713  0.1604  0.0974
  128MOL0     C17160   3.327   4.982  10.878 -0.7232 -0.0895  0.1715
  128MOL0     C17161   3.289   4.943  11.018 -0.0439  0.7863  0.9850
  128MOL0     N17162   3.403   4.925  11.103 -0.5040 -0.4014 -0.1396
  128MOL0     C17163   3.453   4.811  11.147 -0.9343  0.8364 -0.5718
  128MOL0     C17164   3.545   4.849  11.242 -0.4587 -0.5271 -0.1253
  128MOL0     C17165   3.658   4.786  11.326  0.8493 -0.2950 -0.3448
  128MOL0     C17166   3.703   4.867  11.453  0.1603 -1.1631  0.1049
  128MOL0     C17167   3.764   4.759  11.551  0.5510 -0.7695  1.0985
  128MOL0     C17168   3.855   4.822  11.653 -1.0525 -0.3560 -0.4879
  128MOL0     O17169   3.783   4.917  11.724  0.1577  1.2863  1.1240
  128MOL0     C17170   3.840   4.968  11.834  0.0454 -1.0199 -0.0102
  128MOL0     C17171   3.764   5.057  11.905 -0.3146 -0.8273  0.6700
  128MOL0     C17172   3.816   5.121  12.011  0.9143 -0.4650 -0.6866
  128MOL0     C17173   3.732   5.198  12.108  0.9734 -0.0654  0.9884
  128MOL0     C17174   3.954   5.113  12.043  1.0625 -0.7195  1.2472
  128MOL0     C17175   4.005   5.186  12.164 -0.7556  0.2132  0.4651
  128MOL0     O17176   4.107   5.265  12.133  0.8785  1.0519  0.5697
  128MOL0     C17177   4.162   5.364  12.219  1.1194 -0.7954 -0.5422
  128MOL0     C17178   4.188   5.345  12.353 -0.4450 -0.6063 -0.3102
  128MOL0     C17179   4.248   5.457  12.420 -0.4807  0.2129  0.1515
  128MOL0     C17180   4.289   5.565  12.351  0.0543  0.4464 -1.1040
  128MOL0     O17181   4.353   5.664  12.411 -0.1027 -0.4102 -0.4528
  128MOL0     C17182   4.270   5.774  12.427 -0.4363  0.0180 -0.6555
  128MOL0     C17183   4.171   5.759  12.549 -0.1225  0.9096 -0.1455
  128MOL0     C17184   4.247   5.724  12.679  0.3997  0.1582  1.1808
  128MOL0     C17185   4.160   5.786  12.788  0.1269 -0.8028 -0.2973
  128MOL0     C17186   4.189   5.933  12.826 -0.4529 -0.5799 -0.0483
  128MOL0     C17187   4.342   5.940  12.876 -0.4072 -0.3988  0.0660
  128MOL0     C17188   4.365   6.089  12.919 -0.0407  0.2797 -0.1134
  128MOL0     C17189   4.497   6.124  12.983 -0.8826 -0.5665 -0.0432
  128MOL0    Cl17190   4.505   6.069  13.157 -0.3040  0.0436 -0.2076
  128MOL0     C17191   4.263   5.578  12.228 -0.4243 -0.2395 -0.2808
  128MOL0     C17192   4.199   5.480  12.159  0.4578 -1.1901  0.2394
  128MOL0     O17193   3.968   5.149  12.275  0.6849  0.4432  0.2513
  128MOL0     C17194   4.043   5.037  11.964 -0.3153  0.3012 -0.1497
  128MOL0     C17195   3.981   4.958  11.855  0.4426 -0.1358 -0.3823
  128MOL0     N17196   3.556   4.984  11.233 -0.5568 -0.7485 -0.1921
  128MOL0     N17197   3.467   5.031  11.163 -0.0225 -0.0703 -0.2128
  128MOL0     C17198   4.002   4.361  10.738  0.7619 -0.0667  0.7033
  128MOL0     C17199   4.115   4.299  10.797 -0.3836  0.5048 -0.8022
  128MOL0     C17200   4.385   4.295  11.172 -0.5047  0.2302 -0.6099
  128MOL0     C17201   4.518   4.262  11.138  0.8389 -1.0676 -0.2650
  128MOL0     C17202   4.623   4.253  11.233 -0.2265  0.7080  1.0666
  128MOL0     C17203   4.592   4.281  11.369 -0.4095  0.6206 -0.6846
  128MOL0     O17204   4.698   4.298  11.441 -0.1364 -0.1282 -0.0790
  128MOL0     C17205   4.687   4.382  11.565 -0.5735 -0.2499  0.4238
  128MOL0     C17206   4.830   4.418  11.616  0.5152  0.0589  0.7428
  128MOL0     C17207   4.927   4.298  11.620 -0.0233 -0.4118 -0.4261
  128MOL0     C17208   4.871   4.160  11.666 -0.2583 -0.5753  0.2869
  128MOL0     C17209   4.985   4.067  11.669  0.3857  0.2456 -0.2871
  128MOL0     C17210   5.070   3.977  11.653 -0.5942 -0.3073  0.9735
  128MOL0     C17211   4.463   4.320  11.412 -0.2222  0.7536 -0.2928
  128MOL0     C17212   4.366   4.327  11.308  0.0751 -0.0423  0.0266
  128MOL0     H17213   4.253   4.550  10.957 -0.4433  2.1362 -1.1533
  128MOL0     H17214   4.062   4.686  10.819 -1.9201 -0.0670 -5.9800
  128MOL0     H17215   3.936   4.756  10.631 -0.0528  0.0222 -0.6539
  128MOL0     H17216   3.954   4.627  10.511  1.9055 -4.9825  3.5781
  128MOL0     H17217   3.765   4.761  10.437 -1.2759  1.5483  0.5728
  128MOL0     H17218   3.686   4.624  10.515 -0.3819 -0.3302 -0.5958
  128MOL0     H17219   3.688   4.781  10.729 -0.7772 -1.5192 -0.4010
  128MOL0     H17220   3.726   4.909  10.611 -1.5639  1.1284 -0.1929
  128MOL0     H17221   3.541   4.847  10.478  2.9084  1.4432  0.0850
  128MOL0     H17222   3.497   4.722  10.600  1.4607  0.3409  0.3049
  128MOL0     H17223   3.519   5.016  10.654  1.1381 -1.0723 -1.0214
  128MOL0     H17224   3.365   4.931  10.610 -2.1952 -3.5250  0.0936
  128MOL0     H17225   3.403   4.783  10.823  1.6810 -0.4809 -0.5880
  128MOL0     H17226   3.529   4.898  10.860  0.3595  0.4935 -1.2050
  128MOL0     H17227   3.361   5.086  10.875  1.2717 -0.7110 -0.8813
  128MOL0     H17228   3.240   4.973  10.813  0.0027  0.5453 -0.9322
  128MOL0     H17229   3.236   4.847  11.010 -1.1926  1.5352 -3.7185
  128MOL0     H17230   3.222   5.019  11.059 -0.0508  0.3447  1.8068
  128MOL0     H17231   3.434   4.707  11.120  0.1556  0.3279  0.4990
  128MOL0     H17232   3.632   4.685  11.357  3.9489  0.3677  6.1147
  128MOL0     H17233   3.738   4.770  11.254 -0.7712 -0.4673 -2.2041
  128MOL0     H17234   3.629   4.941  11.484 -0.8116 -0.7664 -2.8644
  128MOL0     H17235   3.785   4.923  11.407 -1.2538 -0.0395 -1.1630
  128MOL0     H17236   3.818   4.682  11.496 -1.7163 -2.3385  0.9182
  128MOL0     H17237   3.674   4.720  11.601 -0.4001  1.1652  0.9951
  128MOL0     H17238   3.936   4.873  11.601 -0.5879  2.7607  2.9021
  128MOL0     H17239   3.908   4.756  11.723  0.0984  0.7890 -0.2421
  128MOL0     H17240   3.660   5.083  11.887 -0.3395 -0.9632  0.6147
  128MOL0     H17241   3.633   5.214  12.063  1.4718 -2.4757 -1.1321
  128MOL0     H17242   3.706   5.166  12.210 -1.4952  2.5157  1.2957
  128MOL0     H17243   3.763   5.302  12.117  7.1666 -1.5274  0.5952
  128MOL0     H17244   4.139   5.260  12.399 -1.4594  0.4967  0.7320
  128MOL0     H17245   4.251   5.455  12.528 -2.2938  5.1796  0.5610
  128MOL0     H17246   4.330   5.852  12.474 -3.0396  1.8170 -0.1086
  128MOL0     H17247   4.216   5.794  12.334  2.4168 -3.1863 -3.2737
  128MOL0     H17248   4.119   5.855  12.556 -1.2593  0.2578  0.6905
  128MOL0     H17249   4.094   5.683  12.532 -0.5946  1.5340 -0.8720
  128MOL0     H17250   4.346   5.769  12.689  0.0244  1.2810  0.0191
  128MOL0     H17251   4.259   5.615  12.684  0.3617 -0.0193 -1.3801
  128MOL0     H17252   4.054   5.782  12.759  0.8841 -0.6702 -3.5005
  128MOL0     H17253   4.178   5.738  12.885 -0.5031  3.0981  1.9393
  128MOL0     H17254   4.114   5.967  12.898 -1.8081 -1.3186 -1.0686
  128MOL0     H17255   4.165   6.004  12.747 -1.7720  2.9551  3.2008
  128MOL0     H17256   4.349   5.886  12.970 -4.5186 -0.0570  0.7295
  128MOL0     H17257   4.412   5.930  12.792 -1.7395  1.1417 -1.3300
  128MOL0     H17258   4.282   6.114  12.987  1.6403  0.7575  1.8777
  128MOL0     H17259   4.352   6.155  12.833 -2.5607  2.1916  1.5811
  128MOL0     H17260   4.514   6.229  12.958 -1.5271 -0.5419 -0.4056
  128MOL0     H17261   4.575   6.065  12.933 -2.6652 -2.3154 -0.9032
  128MOL0     H17262   4.303   5.661  12.172 -0.7430 -1.3103 -2.2009
  128MOL0     H17263   4.187   5.488  12.052 -2.1097  0.3327  0.5615
  128MOL0     H17264   4.150   5.030  11.979  0.3297  1.3769 -3.4271
  128MOL0     H17265   4.044   4.897  11.790  3.4552  4.3350 -2.1774
  128MOL0     H17266   3.918   4.302  10.702  0.4307  0.1764  1.0591
  128MOL0     H17267   4.145   4.194  10.795  5.1341  1.5510  2.7748
  128MOL0     H17268   4.546   4.237  11.037  0.9113  1.7206 -1.0074
  128MOL0     H17269   4.725   4.238  11.199 -0.2424  4.1877 -0.8989
  128MOL0     H17270   4.627   4.470  11.539  1.6379  1.1204 -0.3277
  128MOL0     H17271   4.647   4.337  11.656  1.6713  0.8085  2.0030
  128MOL0     H17272   4.825   4.475  11.709  3.9160  0.8362  0.5654
  128MOL0     H17273   4.871   4.486  11.541  0.3456 -1.1228 -0.4592
  128MOL0     H17274   5.013   4.330  11.679 -0.3162  1.3380 -0.8955
  128MOL0     H17275   4.972   4.293  11.520  0.5642  2.4082 -0.3767
  128MOL0     H17276   4.787   4.130  11.603 -0.9828  0.7586  0.5751
  128MOL0     H17277   4.816   4.173  11.760 -4.9440 -1.8259 -1.9692
  128MOL0     H17278   5.142   3.898  11.649  0.5249  0.6924  0.9989
  128MOL0     H17279   4.432   4.313  11.515 -0.4085 -2.2356 -0.4603
  128MOL0     H17280   4.269   4.348  11.352 -1.6696 -3.7900 -1.5765
  129MOL0     O17281   8.275   5.679   5.526  0.1276  0.0652  0.5117
  129MOL0     C17282   8.199   5.620   5.605 -0.3813 -0.7181  0.1176
  129MOL0     O17283   8.062   5.617   5.601 -0.3634 -0.1085  1.4472
  129MOL0     C17284   7.992   5.717   5.529 -0.0796 -0.5803  0.5194
  129MOL0     C17285   7.909   5.687   5.428 -0.1249  0.5086  0.5325
  129MOL0     C17286   7.834   5.783   5.363 -0.2554 -0.0760 -0.1414
  129MOL0     C17287   7.842   5.921   5.403 -0.7267  0.3440  1.0830
  129MOL0     O17288   7.771   6.023   5.344  0.0595  0.4356 -0.7797
  129MOL0     C17289   7.663   5.967   5.272 -0.0385  0.6561  0.1755
  129MOL0     C17290   7.543   6.069   5.272 -0.5482 -0.9798  0.0928
  129MOL0     C17291   7.592   6.195   5.182 -0.3433 -0.0331  0.4147
  129MOL0     C17292   7.478   6.285   5.148 -0.3056 -0.2659  1.1878
  129MOL0     C17293   7.522   6.429   5.102  0.7690  1.3477 -0.0916
  129MOL0     C17294   7.415   6.503   5.021  0.4359 -0.0735  0.2307
  129MOL0     C17295   7.475   6.639   4.973  0.9558 -0.0247  0.0917
  129MOL0     C17296   7.363   6.718   4.908 -0.4631  0.1242  0.5702
  129MOL0     N17297   7.360   6.863   4.918  0.0619  0.3877 -0.4054
  129MOL0     C17298   7.473   6.942   4.927  0.3594  1.3867  0.4448
  129MOL0     C17299   7.429   7.061   4.939  1.1732  0.2706  0.1616
  129MOL0     C17300   7.524   7.178   4.944 -0.8614  0.3078  0.0098
  129MOL0     C17301   7.548   7.259   4.813  0.0723  0.4222 -1.0531
  129MOL0     C17302   7.407   7.312   4.770 -0.1004  1.9252  0.8463
  129MOL0     C17303   7.402   7.368   4.631  0.1236 -0.0522 -0.3801
  129MOL0     O17304   7.275   7.413   4.597  0.4282  0.1095  0.6170
  129MOL0     C17305   7.257   7.443   4.462  0.7613 -0.3391  0.9802
  129MOL0     C17306   7.366   7.444   4.366  0.3064 -0.0169 -0.0369
  129MOL0     C17307   7.347   7.473   4.230 -0.0227 -0.4921  0.5371
  129MOL0     C17308   7.471   7.464   4.143  0.2790 -0.5211  0.7685
  129MOL0     C17309   7.214   7.492   4.182 -0.8933 -0.3149 -0.2406
  129MOL0     C17310   7.171   7.488   4.038 -0.9967 -0.1041  1.0913
  129MOL0     O17311   7.039   7.507   4.012  0.0455  0.0277  0.4790
  129MOL0     C17312   6.990   7.532   3.889  0.3389  0.1541 -1.1951
  129MOL0     C17313   6.956   7.664   3.833 -0.6753  0.0893  0.1635
  129MOL0     C17314   6.903   7.679   3.701 -0.7774 -1.3124 -0.0119
  129MOL0     C17315   6.875   7.574   3.616  0.4213  0.6507 -0.1909
  129MOL0     O17316   6.806   7.605   3.496  0.4963  0.5050  0.2616
  129MOL0     C17317   6.805   7.491   3.405 -0.1033  0.5546 -0.3520
  129MOL0     C17318   6.677   7.414   3.420 -0.5082 -0.8142  0.6451
  129MOL0     C17319   6.563   7.511   3.475  0.3490  1.1818 -0.5381
  129MOL0     C17320   6.433   7.470   3.408 -0.1668 -0.1400  0.2012
  129MOL0     C17321   6.304   7.550   3.449 -0.2472 -0.9187 -0.1036
  129MOL0     C17322   6.175   7.505   3.381  0.5480 -0.3205  0.2797
  129MOL0     C17323   6.088   7.629   3.378 -0.6282 -0.3124 -0.0458
  129MOL0     C17324   5.944   7.607   3.328  0.4621 -0.0851  0.8734
  129MOL0    Cl17325   5.851   7.763   3.291 -0.3235  0.1930  0.3750
  129MOL0     C17326   6.894   7.448   3.671  0.0502 -0.7193 -0.0921
  129MOL0     C17327   6.956   7.426   3.800  1.0962 -0.0552 -0.3822
  129MOL0     O17328   7.257   7.452   3.950 -0.3028  0.1377  0.8107
  129MOL0     C17329   7.113   7.504   4.281 -0.6098 -0.4826 -0.3392
  129MOL0     C17330   7.130   7.467   4.414  0.3133 -0.7164  0.6653
  129MOL0     N17331   7.290   7.059   4.953  0.3698 -0.0374 -0.8242
  129MOL0     N17332   7.247   6.940   4.944  0.6314 -0.9782 -0.3355
  129MOL0     C17333   7.938   5.956   5.502  0.5097  0.2657  0.4353
  129MOL0     C17334   8.007   5.853   5.566  0.6292 -0.7270 -0.0808
  129MOL0     C17335   8.268   5.556   5.712 -0.2287  0.1119 -1.0933
  129MOL0     C17336   8.202   5.536   5.831  1.3647 -0.7045  0.5736
  129MOL0     C17337   8.267   5.477   5.931 -0.3824 -0.3648  0.0047
  129MOL0     C17338   8.385   5.407   5.918 -0.7004 -0.2335  1.2837
  129MOL0     O17339   8.441   5.355   6.030  0.4509 -0.6663 -0.3930
  129MOL0     C17340   8.479   5.217   6.035 -0.0649 -0.4177 -0.1598
  129MOL0     C17341   8.468   5.167   6.174 -1.0947  0.5210 -0.6085
  129MOL0     C17342   8.478   5.016   6.175 -0.2140 -0.7810  0.6676
  129MOL0     C17343   8.494   4.946   6.304 -0.0356  0.5118 -0.4560
  129MOL0     C17344   8.586   4.832   6.290  0.6627 -0.4792 -0.7777
  129MOL0     C17345   8.670   4.748   6.275  0.6563 -0.6481  0.3342
  129MOL0     C17346   8.442   5.406   5.787 -0.5705  0.1957  0.3792
  129MOL0     C17347   8.389   5.489   5.692  0.1610  0.1950 -0.3726
  129MOL0     H17348   7.903   5.585   5.391 -0.8297  0.9480 -0.6390
  129MOL0     H17349   7.788   5.750   5.270 -1.6794  0.6106  0.2973
  129MOL0     H17350   7.691   5.944   5.169  2.0077  0.7180  0.6785
  129MOL0     H17351   7.613   5.883   5.322 -1.0726  1.4187  0.4413
  129MOL0     H17352   7.449   6.027   5.235 -1.1141  1.4369 -1.4719
  129MOL0     H17353   7.527   6.111   5.371  2.7516 -1.0663  0.7848
  129MOL0     H17354   7.670   6.256   5.230  0.0641  0.7479 -1.1892
  129MOL0     H17355   7.638   6.159   5.090 -0.9827  3.5096 -1.4579
  129MOL0     H17356   7.442   6.228   5.062 -4.0513 -0.5402  2.7640
  129MOL0     H17357   7.393   6.277   5.216 -2.7219 -2.7722 -1.8059
  129MOL0     H17358   7.557   6.484   5.190 -2.3529  1.0769  1.4568
  129MOL0     H17359   7.611   6.431   5.038 -0.4495  1.5403 -1.8392
  129MOL0     H17360   7.375   6.441   4.941 -2.3445 -0.6822  1.9733
  129MOL0     H17361   7.328   6.528   5.083  1.1900 -1.1158  1.7686
  129MOL0     H17362   7.511   6.697   5.059 -1.5942  0.7016  0.7657
  129MOL0     H17363   7.550   6.630   4.894  1.1325  1.4995  0.0534
  129MOL0     H17364   7.270   6.681   4.951 -0.5481 -2.8049 -1.7289
  129MOL0     H17365   7.369   6.690   4.802  1.5552  0.3964  0.5698
  129MOL0     H17366   7.575   6.905   4.929 -0.3289 -0.6405  2.2347
  129MOL0     H17367   7.496   7.237   5.031  0.7465  0.0659  0.7418
  129MOL0     H17368   7.626   7.150   4.974  0.4075  2.2316 -2.1798
  129MOL0     H17369   7.593   7.198   4.734  1.7044  1.8270 -1.2522
  129MOL0     H17370   7.618   7.340   4.833 -0.1791  0.1032  1.5114
  129MOL0     H17371   7.382   7.385   4.848 -1.2149 -0.3942  2.7712
  129MOL0     H17372   7.330   7.237   4.786 -1.5342  3.4518  1.3758
  129MOL0     H17373   7.435   7.290   4.563 -1.2699 -0.4728 -0.6139
  129MOL0     H17374   7.471   7.452   4.643  0.3469 -0.3046  0.1486
  129MOL0     H17375   7.465   7.409   4.395 -0.3936 -3.2051 -1.0951
  129MOL0     H17376   7.558   7.499   4.199  2.0105 -2.8565 -0.3006
  129MOL0     H17377   7.489   7.359   4.119  0.6968  0.2358 -2.6706
  129MOL0     H17378   7.457   7.524   4.053 -1.5796 -2.3965 -0.2809
  129MOL0     H17379   6.959   7.758   3.886  0.7447 -0.8533  1.8306
  129MOL0     H17380   6.891   7.777   3.655 -2.4595 -2.0831 -1.3592
  129MOL0     H17381   6.802   7.540   3.307 -0.9303 -2.4840 -1.9524
  129MOL0     H17382   6.891   7.424   3.412 -0.0238  0.7367  0.4727
  129MOL0     H17383   6.660   7.379   3.318 -0.3611 -0.5342  0.5217
  129MOL0     H17384   6.684   7.327   3.485 -0.4696 -0.6269  0.8955
  129MOL0     H17385   6.573   7.612   3.433  3.1888 -0.0171 -3.1555
  129MOL0     H17386   6.556   7.496   3.583 -1.1308 -1.4849 -0.9275
  129MOL0     H17387   6.438   7.461   3.299 -1.0002  2.7292 -0.1441
  129MOL0     H17388   6.411   7.369   3.446  2.4725 -1.6231 -1.8321
  129MOL0     H17389   6.319   7.655   3.421 -1.5217 -0.9238 -0.8963
  129MOL0     H17390   6.297   7.551   3.558 -3.8717  0.6055 -0.1915
  129MOL0     H17391   6.206   7.463   3.285 -4.1934 -1.6920 -0.8887
  129MOL0     H17392   6.122   7.437   3.448  2.5330  0.2983  2.6385
  129MOL0     H17393   6.144   7.702   3.318  3.4447 -0.7964  2.7809
  129MOL0     H17394   6.082   7.657   3.484  0.2172 -3.1018  0.8148
  129MOL0     H17395   5.874   7.556   3.396 -0.0801 -0.5594 -0.0250
  129MOL0     H17396   5.932   7.550   3.236 -0.0014  1.3558  0.0040
  129MOL0     H17397   6.870   7.358   3.615  1.0257  1.1105 -3.8095
  129MOL0     H17398   6.967   7.323   3.831  1.4026  0.2354  0.4977
  129MOL0     H17399   7.011   7.529   4.252 -0.0763  1.6354 -0.5442
  129MOL0     H17400   7.043   7.483   4.478  0.1489 -0.7296  0.4454
  129MOL0     H17401   7.961   6.062   5.514 -2.8350  1.1892 -0.1360
  129MOL0     H17402   8.066   5.878   5.653 -1.4158 -1.7453  1.6838
  129MOL0     H17403   8.097   5.554   5.850  1.0874 -0.8389 -0.6884
  129MOL0     H17404   8.218   5.469   6.028  0.1099  0.6946  0.3546
  129MOL0     H17405   8.397   5.170   5.980 -0.4375  1.5751 -1.4214
  129MOL0     H17406   8.568   5.190   5.977 -1.1166 -1.1367 -1.5239
  129MOL0     H17407   8.374   5.194   6.223  0.0825  1.5803  1.1699
  129MOL0     H17408   8.542   5.210   6.241 -2.9027 -0.4277  2.1796
  129MOL0     H17409   8.568   4.984   6.121 -1.0914  0.9555 -2.0146
  129MOL0     H17410   8.403   4.967   6.113  4.0176 -4.0293 -2.5664
  129MOL0     H17411   8.397   4.902   6.332 -0.4497  2.8775  2.2627
  129MOL0     H17412   8.524   5.011   6.386  3.2322 -1.3792  0.0076
  129MOL0     H17413   8.747   4.674   6.273  0.4045 -0.8906 -0.4025
  129MOL0     H17414   8.528   5.343   5.765 -0.9038 -0.3759  0.7085
  129MOL0     H17415   8.435   5.490   5.594 -1.2470  3.7517 -1.1646
  130MOL0     O17416   0.926   9.037   6.728 -0.1350  0.3655  0.3731
  130MOL0     C17417   0.809   9.029   6.782 -0.5197  0.0366 -0.4690
  130MOL0     O17418   0.782   9.066   6.916 -0.6384 -0.1205 -0.1978
  130MOL0     C17419   0.869   9.143   6.977 -0.6017 -0.8667  0.3139
  130MOL0     C17420   0.848   9.279   6.970 -0.0843 -0.8720  0.1535
  130MOL0     C17421   0.928   9.366   7.048  0.0005  0.3390  1.5355
  130MOL0     C17422   1.027   9.317   7.133  0.2052 -0.1650 -1.0533
  130MOL0     O17423   1.110   9.404   7.199  0.4445 -0.2282 -0.2711
  130MOL0     C17424   1.142   9.520   7.133  0.5756 -0.4569  0.4297
  130MOL0     C17425   1.242   9.583   7.220  0.4136  0.9773 -0.0115
  130MOL0     C17426   1.289   9.713   7.148 -0.6635  0.1767 -0.6806
  130MOL0     C17427   1.381   9.790   7.240 -0.0964 -0.7718 -0.6913
  130MOL0     C17428   1.374   9.947   7.216 -0.6316  0.4984 -0.0356
  130MOL0     C17429   1.493  10.029   7.285  1.1145 -0.4165  1.2032
  130MOL0     C17430   1.454  10.065   7.431 -0.9704 -0.5011  0.3244
  130MOL0     C17431   1.558  10.162   7.492  0.6469 -0.3735 -0.3912
  130MOL0     N17432   1.681  10.099   7.541  0.1211  0.3840  0.1976
  130MOL0     C17433   1.782  10.158   7.602  0.2474 -0.3593  0.6392
  130MOL0     C17434   1.868  10.062   7.632  0.4390 -1.0567  0.3079
  130MOL0     C17435   2.010  10.077   7.674  0.1121  0.2094 -0.0002
  130MOL0     C17436   2.071   9.941   7.720 -0.0779  0.3990 -0.5027
  130MOL0     C17437   2.222   9.918   7.692  0.0242 -0.0411 -0.6595
  130MOL0     C17438   2.267   9.788   7.761  0.2644  0.3894  0.8153
  130MOL0     O17439   2.394   9.764   7.711  0.7625  0.1409 -0.2531
  130MOL0     C17440   2.419   9.625   7.700  0.0021 -0.8344  0.1405
  130MOL0     C17441   2.396   9.564   7.579 -0.7570 -0.0720  0.0600
  130MOL0     C17442   2.426   9.426   7.557  0.0254  0.7728 -0.3437
  130MOL0     C17443   2.399   9.374   7.423  0.3338  0.3152  0.5212
  130MOL0     C17444   2.490   9.352   7.659 -0.0183  0.4149 -0.6921
  130MOL0     C17445   2.527   9.207   7.655  0.1585  0.0627  0.6011
  130MOL0     O17446   2.585   9.150   7.767 -0.6160 -0.5868 -0.3047
  130MOL0     C17447   2.632   9.014   7.762  1.1635  0.1654 -0.5488
  130MOL0     C17448   2.730   8.981   7.670  0.1225  1.0338  0.5848
  130MOL0     C17449   2.781   8.855   7.659  0.8055  0.4086 -0.1691
  130MOL0     C17450   2.725   8.754   7.741  0.2280  0.1138  0.6468
  130MOL0     O17451   2.789   8.638   7.716  0.0018  0.5827  0.2115
  130MOL0     C17452   2.711   8.518   7.719 -0.1432 -0.7304 -0.6405
  130MOL0     C17453   2.812   8.399   7.673  0.4664 -0.8381 -0.2584
  130MOL0     C17454   2.927   8.392   7.765  0.4439  0.3908 -0.4308
  130MOL0     C17455   2.984   8.250   7.758  1.5155 -0.1675 -0.2538
  130MOL0     C17456   3.114   8.245   7.826 -0.8301  0.4674 -0.3770
  130MOL0     C17457   3.183   8.109   7.825 -0.6053  0.4832  0.3340
  130MOL0     C17458   3.325   8.109   7.897 -0.4815  0.2654 -0.1161
  130MOL0     C17459   3.403   7.986   7.860 -0.1264  0.4394  0.8008
  130MOL0    Cl17460   3.572   8.028   7.850 -0.6172  0.2609 -0.2561
  130MOL0     C17461   2.619   8.775   7.830  0.1746 -0.7383 -0.2299
  130MOL0     C17462   2.575   8.906   7.840 -0.0550 -0.1231  0.1470
  130MOL0     O17463   2.510   9.148   7.550 -0.0229 -0.5729  0.6839
  130MOL0     C17464   2.512   9.414   7.786  0.0498 -0.3574 -0.0008
  130MOL0     C17465   2.479   9.557   7.806  0.1018  0.3619  0.3102
  130MOL0     N17466   1.811   9.945   7.602 -0.4400  1.0188 -0.0655
  130MOL0     N17467   1.702   9.969   7.545 -0.0775 -0.1287  0.2277
  130MOL0     C17468   1.044   9.172   7.141  0.4196 -0.8542  0.8024
  130MOL0     C17469   0.972   9.089   7.060  0.0970  0.4981 -0.1246
  130MOL0     C17470   0.697   8.981   6.716 -0.0356  0.3075  0.3671
  130MOL0     C17471   0.574   8.966   6.788  0.7387  0.2075 -0.8285
  130MOL0     C17472   0.464   8.922   6.719  0.3380  0.1670 -0.4148
  130MOL0     C17473   0.466   8.911   6.587  1.3861 -0.2071  0.5295
  130MOL0     O17474   0.349   8.863   6.517  0.5540  0.2203 -0.6601
  130MOL0     C17475   0.366   8.758   6.424  0.2905 -0.1717 -0.4246
  130MOL0     C17476   0.389   8.807   6.270 -0.2549  1.0722 -0.6484
  130MOL0     C17477   0.358   8.679   6.188  0.0896 -0.4367 -0.1783
  130MOL0     C17478   0.215   8.648   6.143  0.6192 -0.2096  0.6224
  130MOL0     C17479   0.227   8.528   6.061 -0.6482 -0.2637 -0.4645
  130MOL0     C17480   0.245   8.448   5.975  0.1856  0.3235  0.7373
  130MOL0     C17481   0.579   8.946   6.510 -0.3776  0.4439 -0.2776
  130MOL0     C17482   0.699   8.974   6.578 -0.0365 -0.4537 -0.3608
  130MOL0     H17483   0.771   9.318   6.904  0.7155 -0.5014 -0.5800
  130MOL0     H17484   0.914   9.472   7.031  0.9883 -0.1593 -5.5590
  130MOL0     H17485   1.186   9.501   7.035  0.3962  0.4081  0.1705
  130MOL0     H17486   1.063   9.596   7.133  0.6669 -0.3624  0.1348
  130MOL0     H17487   1.186   9.613   7.310  1.4921  1.8339  0.3944
  130MOL0     H17488   1.332   9.526   7.244 -0.2353 -0.2382 -0.3691
  130MOL0     H17489   1.342   9.689   7.055 -1.3807  0.2543 -1.1137
  130MOL0     H17490   1.196   9.764   7.123  0.1317  2.3257  0.4967
  130MOL0     H17491   1.365   9.768   7.346  0.9308 -1.2271 -0.6251
  130MOL0     H17492   1.482   9.752   7.224  0.1958 -1.5105  2.2815
  130MOL0     H17493   1.384   9.958   7.107 -2.1840  0.0615 -0.2414
  130MOL0     H17494   1.273   9.981   7.237 -0.5088 -0.5840  2.5832
  130MOL0     H17495   1.588   9.975   7.293 -0.6428 -3.8677  0.9858
  130MOL0     H17496   1.503  10.119   7.224  3.0432 -0.5033  1.3274
  130MOL0     H17497   1.352  10.102   7.420 -1.5533 -1.8701  0.9456
  130MOL0     H17498   1.445   9.971   7.486  0.8235 -0.4786  0.7169
  130MOL0     H17499   1.512  10.222   7.572  0.7679 -1.7467  0.7663
  130MOL0     H17500   1.591  10.238   7.421 -1.7039 -0.0184 -1.2035
  130MOL0     H17501   1.799  10.265   7.608  1.3982 -0.5208  0.4631
  130MOL0     H17502   2.066  10.112   7.587  0.1753 -0.1029 -0.0840
  130MOL0     H17503   2.021  10.154   7.752  2.9352  0.0534 -0.1437
  130MOL0     H17504   2.030   9.864   7.655  0.8088  2.8898 -4.3362
  130MOL0     H17505   2.047   9.927   7.826  0.9693 -0.7780 -0.4015
  130MOL0     H17506   2.282  10.000   7.730 -0.1897 -1.6734  3.7051
  130MOL0     H17507   2.224   9.900   7.584 -2.1716  0.8372 -0.9022
  130MOL0     H17508   2.205   9.705   7.726  0.8566 -0.2818  1.3365
  130MOL0     H17509   2.260   9.794   7.870  0.5348  2.2527  0.7553
  130MOL0     H17510   2.363   9.633   7.503 -3.0534 -2.0562 -0.8593
  130MOL0     H17511   2.485   9.316   7.387 -0.6973  0.6819 -2.8131
  130MOL0     H17512   2.316   9.303   7.432  1.9180 -1.7397 -0.2858
  130MOL0     H17513   2.377   9.441   7.340  0.5784 -2.6885 -2.1911
  130MOL0     H17514   2.771   9.054   7.602  0.9715 -1.8612 -2.2550
  130MOL0     H17515   2.868   8.836   7.596  2.3185 -1.1815  2.1979
  130MOL0     H17516   2.690   8.500   7.824 -1.3474 -0.5928 -0.8457
  130MOL0     H17517   2.618   8.523   7.662 -0.2663 -0.3026 -0.4033
  130MOL0     H17518   2.756   8.305   7.678 -1.5057  0.3535  1.5948
  130MOL0     H17519   2.844   8.418   7.571 -2.2505 -3.3996 -1.7629
  130MOL0     H17520   2.895   8.421   7.866  0.7422 -0.8264  0.0424
  130MOL0     H17521   3.005   8.463   7.740 -0.5887  1.0664 -1.8803
  130MOL0     H17522   2.913   8.182   7.805  1.1174 -0.1028 -0.7528
  130MOL0     H17523   2.985   8.205   7.658 -0.6807 -0.6166 -0.1236
  130MOL0     H17524   3.104   8.281   7.929 -1.5195 -1.2843  0.2053
  130MOL0     H17525   3.188   8.308   7.777  2.5634 -2.7609  0.1562
  130MOL0     H17526   3.119   8.033   7.871 -1.7656  2.1902  1.7076
  130MOL0     H17527   3.187   8.084   7.719 -1.4728 -1.0388  0.6355
  130MOL0     H17528   3.305   8.109   8.005 -0.9794 -1.8025 -0.1642
  130MOL0     H17529   3.382   8.198   7.873  1.2537  0.2531  3.3111
  130MOL0     H17530   3.369   7.931   7.772 -1.7793  4.2335 -1.1586
  130MOL0     H17531   3.391   7.926   7.951  0.2497  0.7449  1.0529
  130MOL0     H17532   2.582   8.694   7.892  1.2290 -1.1929 -0.1556
  130MOL0     H17533   2.500   8.928   7.915  1.1519  0.7036  1.1532
  130MOL0     H17534   2.544   9.356   7.872  1.5918  0.4750  0.0350
  130MOL0     H17535   2.507   9.600   7.901  2.6654 -3.2174  1.4232
  130MOL0     H17536   1.129   9.155   7.207  1.8695  1.2796 -0.3720
  130MOL0     H17537   0.979   8.981   7.056  0.5962  0.5196  0.0402
  130MOL0     H17538   0.561   8.994   6.892 -1.7921  1.4078 -1.3870
  130MOL0     H17539   0.371   8.902   6.770 -0.1107  0.4314 -1.1085
  130MOL0     H17540   0.439   8.685   6.459 -0.7065 -1.1533 -0.3350
  130MOL0     H17541   0.272   8.702   6.419  0.1843  0.0308 -0.7283
  130MOL0     H17542   0.491   8.840   6.250 -0.2453  2.2819  1.1238
  130MOL0     H17543   0.318   8.885   6.244 -0.4275  1.0764 -0.1826
  130MOL0     H17544   0.396   8.592   6.242  0.1397 -0.0669  0.3901
  130MOL0     H17545   0.419   8.680   6.097 -0.1231 -0.6228 -0.3230
  130MOL0     H17546   0.182   8.731   6.081  0.6585 -1.2275 -0.8087
  130MOL0     H17547   0.159   8.634   6.236  3.5055 -3.4533  2.1262
  130MOL0     H17548   0.259   8.379   5.894 -0.2559 -2.1808  2.6474
  130MOL0     H17549   0.587   8.950   6.401  1.1441  0.0797 -0.2070
  130MOL0     H17550   0.797   8.991   6.535  1.9778  0.1332  3.9071
  131MOL0     O17551   2.604   3.734   9.579 -0.4673  0.1418 -0.6537
  131MOL0     C17552   2.638   3.618   9.591  0.7826 -0.5847 -0.4772
  131MOL0     O17553   2.577   3.524   9.676  0.0763 -0.2121  0.2024
  131MOL0     C17554   2.450   3.536   9.734  0.2052  0.1902 -0.2039
  131MOL0     C17555   2.368   3.635   9.712  0.3469  0.5975  0.0528
  131MOL0     C17556   2.246   3.633   9.774 -0.2699 -0.3895 -0.6365
  131MOL0     C17557   2.196   3.517   9.844 -0.6274  0.1134  0.5831
  131MOL0     O17558   2.071   3.505   9.906  0.0606  0.2733  0.0971
  131MOL0     C17559   2.002   3.625   9.922  0.7165  0.5138 -0.8233
  131MOL0     C17560   1.859   3.583   9.954 -0.2816  0.4904  0.1005
  131MOL0     C17561   1.794   3.487   9.859 -0.1667 -0.0601  0.6649
  131MOL0     C17562   1.641   3.506   9.873 -0.1192  0.2282  0.1574
  131MOL0     C17563   1.579   3.486  10.015  0.6390  0.8190 -0.7409
  131MOL0     C17564   1.615   3.357  10.093 -0.0084  0.9432  0.0646
  131MOL0     C17565   1.513   3.319  10.199 -0.8742 -0.6452 -0.6019
  131MOL0     C17566   1.494   3.397  10.328 -0.2228 -0.9231  0.2139
  131MOL0     N17567   1.614   3.413  10.411  0.4775  0.0895  0.5773
  131MOL0     C17568   1.644   3.348  10.537  0.4102 -0.7495 -0.0112
  131MOL0     C17569   1.767   3.389  10.574  0.1399 -0.1296 -0.3441
  131MOL0     C17570   1.862   3.333  10.679 -1.0115 -0.4026  1.0085
  131MOL0     C17571   1.800   3.246  10.790 -0.4688  0.0318  0.3196
  131MOL0     C17572   1.692   3.314  10.878  0.6028 -0.1730  0.4794
  131MOL0     C17573   1.727   3.445  10.943 -0.1886 -0.2019  0.2528
  131MOL0     O17574   1.837   3.416  11.035 -0.4239  0.1240  1.0733
  131MOL0     C17575   1.837   3.506  11.138 -0.6304 -0.2176 -0.0592
  131MOL0     C17576   1.919   3.615  11.126 -0.7906 -0.1669 -0.4021
  131MOL0     C17577   1.896   3.726  11.212 -0.1418 -0.4026 -0.5965
  131MOL0     C17578   1.965   3.850  11.192 -0.2282 -0.0857  0.5307
  131MOL0     C17579   1.821   3.711  11.327  0.1811  0.2457  0.0050
  131MOL0     C17580   1.804   3.811  11.439  0.2427  0.1007 -0.1816
  131MOL0     O17581   1.847   3.778  11.567  0.5934  0.1718  0.0237
  131MOL0     C17582   1.817   3.855  11.676 -0.0177  0.4586  0.4530
  131MOL0     C17583   1.856   3.989  11.691 -0.1413 -1.0318  0.7747
  131MOL0     C17584   1.817   4.064  11.802  0.1980  0.2802  0.9115
  131MOL0     C17585   1.743   4.000  11.908 -0.3863 -0.0922  0.1792
  131MOL0     O17586   1.721   4.068  12.025 -0.6527  0.7397  0.2815
  131MOL0     C17587   1.585   4.116  12.037  0.7833  0.6545 -0.2829
  131MOL0     C17588   1.567   4.181  12.179 -0.1430  0.5220 -0.0505
  131MOL0     C17589   1.688   4.268  12.211  0.8773 -0.9933  0.4542
  131MOL0     C17590   1.668   4.338  12.350  0.1473  0.1156 -0.7509
  131MOL0     C17591   1.682   4.234  12.468  0.2212 -0.0446 -0.4052
  131MOL0     C17592   1.830   4.195  12.487  1.0695  0.0814 -0.1585
  131MOL0     C17593   1.849   4.113  12.622 -0.6962  0.1895 -1.2832
  131MOL0     C17594   1.994   4.110  12.661  0.4636 -0.6115  0.6746
  131MOL0    Cl17595   2.009   4.021  12.811  0.4021  0.2889 -0.4851
  131MOL0     C17596   1.696   3.868  11.883 -0.3293 -0.2977  0.0938
  131MOL0     C17597   1.726   3.797  11.765 -0.5765 -0.2595 -0.2899
  131MOL0     O17598   1.761   3.924  11.416 -0.4083  0.1183  0.3549
  131MOL0     C17599   1.743   3.598  11.339  0.2327  0.9196  0.3276
  131MOL0     C17600   1.746   3.497  11.240  0.4417  0.6938 -0.1574
  131MOL0     N17601   1.788   3.491  10.487 -0.0541  0.0802 -0.1704
  131MOL0     N17602   1.703   3.513  10.400 -0.0084  0.5939 -0.2238
  131MOL0     C17603   2.286   3.406   9.857 -0.3839  0.1192  0.7301
  131MOL0     C17604   2.419   3.421   9.815  0.9898  0.5205  0.6179
  131MOL0     C17605   2.750   3.567   9.511  0.7549  0.6969  0.3398
  131MOL0     C17606   2.803   3.642   9.417 -0.4478 -0.6793 -0.2504
  131MOL0     C17607   2.921   3.604   9.359  0.0749 -0.1470  0.0722
  131MOL0     C17608   2.988   3.481   9.387 -0.3160 -0.9835 -0.0721
  131MOL0     O17609   3.110   3.459   9.325  0.0959  0.1107  0.2893
  131MOL0     C17610   3.201   3.354   9.370  0.0184 -0.1455  0.5206
  131MOL0     C17611   3.196   3.215   9.301 -0.1878 -0.0749  0.1077
  131MOL0     C17612   3.056   3.159   9.304  0.3622 -0.6611 -0.0464
  131MOL0     C17613   3.042   3.035   9.213  0.5305 -0.0579  0.0187
  131MOL0     C17614   3.071   3.048   9.076 -1.2307 -0.1468  1.5637
  131MOL0     C17615   3.114   3.045   8.962 -0.8885 -1.4188 -0.3985
  131MOL0     C17616   2.926   3.401   9.483 -0.3054 -0.7092  0.1386
  131MOL0     C17617   2.818   3.449   9.549 -0.3384 -1.2246  0.4085
  131MOL0     H17618   2.387   3.727   9.658  4.0663 -0.2498 -0.4086
  131MOL0     H17619   2.188   3.722   9.755 -0.4424  0.0302  1.5544
  131MOL0     H17620   2.051   3.694   9.993 -0.4987  0.3828  0.1697
  131MOL0     H17621   2.002   3.671   9.822  1.8544 -0.0988 -1.1320
  131MOL0     H17622   1.856   3.533  10.051  0.3720 -1.4274 -0.8244
  131MOL0     H17623   1.796   3.673   9.953 -1.0679 -0.0549 -1.2574
  131MOL0     H17624   1.820   3.504   9.754 -3.0183  1.7788  0.1424
  131MOL0     H17625   1.816   3.384   9.888 -1.5675 -0.5561  0.0300
  131MOL0     H17626   1.620   3.607   9.838 -0.0618 -0.4184 -1.8624
  131MOL0     H17627   1.585   3.433   9.813  0.9363 -2.4613  2.2078
  131MOL0     H17628   1.625   3.562  10.079  1.9738 -0.0454 -0.6415
  131MOL0     H17629   1.471   3.499  10.028  0.6709 -0.3194  0.9936
  131MOL0     H17630   1.616   3.271  10.024 -1.2602  2.8311 -2.5011
  131MOL0     H17631   1.714   3.356  10.138  1.6103  3.2733 -3.0370
  131MOL0     H17632   1.421   3.317  10.140 -1.0039  2.1064 -0.5871
  131MOL0     H17633   1.531   3.218  10.239 -1.0730 -0.9080 -1.1592
  131MOL0     H17634   1.411   3.366  10.391  0.8678  0.2935  2.3648
  131MOL0     H17635   1.462   3.499  10.305 -2.2979 -1.3837  0.9165
  131MOL0     H17636   1.592   3.265  10.584 -0.2369  0.2531  1.1258
  131MOL0     H17637   1.926   3.261  10.627  0.9573  3.6893 -2.9473
  131MOL0     H17638   1.922   3.416  10.717  0.5674 -2.5298  3.4921
  131MOL0     H17639   1.871   3.214  10.867 -1.1604  1.4338  1.5915
  131MOL0     H17640   1.757   3.163  10.734  0.0609 -1.5549  2.1597
  131MOL0     H17641   1.663   3.259  10.969 -0.9833  1.8964  1.3099
  131MOL0     H17642   1.605   3.335  10.815  1.9997  0.0847 -1.4322
  131MOL0     H17643   1.640   3.480  10.999  0.0767 -0.1667  0.6387
  131MOL0     H17644   1.763   3.509  10.862  0.5128 -2.1350 -1.0388
  131MOL0     H17645   1.978   3.634  11.037 -1.0336 -2.0496 -1.0103
  131MOL0     H17646   1.913   3.894  11.107 -2.5854 -1.9809  0.8688
  131MOL0     H17647   1.971   3.921  11.275 -1.3847  2.3931 -1.3920
  131MOL0     H17648   2.068   3.818  11.169  0.7444  1.3364  2.6141
  131MOL0     H17649   1.918   4.029  11.611  0.4908  0.7539  2.1168
  131MOL0     H17650   1.859   4.164  11.810  0.1326  0.2735  1.3511
  131MOL0     H17651   1.567   4.188  11.956 -1.9991  1.7139  1.1596
  131MOL0     H17652   1.520   4.028  12.028  3.5626 -1.5360 -0.4533
  131MOL0     H17653   1.472   4.235  12.188  0.2905  1.1519  0.8428
  131MOL0     H17654   1.562   4.093  12.245 -0.1829  0.3511 -0.2807
  131MOL0     H17655   1.684   4.342  12.130  0.6008 -0.7061  0.7279
  131MOL0     H17656   1.787   4.222  12.202  0.2766 -2.0008 -1.2845
  131MOL0     H17657   1.740   4.419  12.364 -0.4226  0.3208  1.2561
  131MOL0     H17658   1.567   4.378  12.358 -0.1290 -0.9468  3.2058
  131MOL0     H17659   1.621   4.146  12.444  0.0670  0.3202 -1.3918
  131MOL0     H17660   1.636   4.282  12.555  4.2717  0.0043  1.9522
  131MOL0     H17661   1.877   4.131  12.412  3.9447  4.3236 -2.4338
  131MOL0     H17662   1.889   4.287  12.488  1.1919  0.0046  0.9751
  131MOL0     H17663   1.833   4.005  12.619  0.6608 -0.0068 -2.3801
  131MOL0     H17664   1.797   4.166  12.703 -0.0769 -0.7188 -0.2667
  131MOL0     H17665   2.023   4.215  12.663 -1.0374 -0.1313 -0.7798
  131MOL0     H17666   2.053   4.067  12.579 -1.9658  0.8868 -2.0166
  131MOL0     H17667   1.631   3.846  11.967 -1.9638  2.0189 -0.4493
  131MOL0     H17668   1.682   3.699  11.750  1.0325 -1.8273  3.6918
  131MOL0     H17669   1.688   3.599  11.432 -3.5927 -2.2305 -1.6240
  131MOL0     H17670   1.678   3.413  11.253  1.5088 -0.0041  1.1187
  131MOL0     H17671   2.247   3.310   9.887 -1.5784 -0.0625 -1.2484
  131MOL0     H17672   2.491   3.345   9.844 -0.9899 -0.9459  1.9255
  131MOL0     H17673   2.753   3.737   9.401  1.4479  1.0126  2.9161
  131MOL0     H17674   2.968   3.659   9.278  2.3844  1.2743  2.2332
  131MOL0     H17675   3.301   3.391   9.349  0.5478 -1.3745  0.7642
  131MOL0     H17676   3.188   3.352   9.479 -0.8467 -1.4105  0.4280
  131MOL0     H17677   3.265   3.141   9.343 -0.7207 -1.2664 -1.0191
  131MOL0     H17678   3.217   3.233   9.195 -0.3739  1.8404  0.3639
  131MOL0     H17679   2.985   3.229   9.260 -2.0164 -1.9561  1.5092
  131MOL0     H17680   3.010   3.145   9.403 -0.3272  1.3888 -0.0121
  131MOL0     H17681   2.937   3.009   9.226 -0.4440  3.8605  1.4302
  131MOL0     H17682   3.105   2.952   9.247  0.5789  0.3678  0.9947
  131MOL0     H17683   3.164   3.026   8.868 -2.6932 -0.0348 -1.7065
  131MOL0     H17684   2.970   3.311   9.526 -1.2004 -0.3649  1.8670
  131MOL0     H17685   2.775   3.386   9.626 -4.7476 -2.4243 -2.6333
  132MOL0     O17686  10.266   4.949   4.874 -0.5416 -0.6148 -0.5532
  132MOL0     C17687  10.375   5.016   4.880 -0.4942 -0.4670  0.4452
  132MOL0     O17688  10.452   5.072   4.778  0.5288 -0.0943  0.7648
  132MOL0     C17689  10.418   5.035   4.644  0.9580  0.7366 -0.1464
  132MOL0     C17690  10.498   4.965   4.558 -0.0485  0.4763 -0.5450
  132MOL0     C17691  10.469   4.924   4.425 -0.1252  0.1992 -0.1487
  132MOL0     C17692  10.359   4.976   4.366  0.7563  1.0072  0.6319
  132MOL0     O17693  10.314   4.946   4.238 -0.4677 -0.4538 -0.4842
  132MOL0     C17694  10.303   5.056   4.143 -0.1580 -0.8306  0.0566
  132MOL0     C17695  10.169   5.062   4.073  0.3918  0.9943  0.0187
  132MOL0     C17696  10.176   5.131   3.938 -0.0151 -1.2720 -0.1401
  132MOL0     C17697  10.040   5.168   3.874 -0.9382 -0.0525 -0.0721
  132MOL0     C17698   9.925   5.229   3.948 -0.0827  0.4213 -0.1793
  132MOL0     C17699   9.805   5.245   3.870  0.3929  0.2977 -0.1608
  132MOL0     C17700   9.811   5.378   3.781  0.1943 -0.6349  0.2960
  132MOL0     C17701   9.737   5.488   3.841  0.5002  0.4584 -0.3650
  132MOL0     N17702   9.729   5.605   3.751 -0.5549  0.2652  0.1774
  132MOL0     C17703   9.673   5.615   3.622 -0.0455  0.0206  0.1371
  132MOL0     C17704   9.697   5.737   3.576 -0.2016  0.4797 -0.6170
  132MOL0     C17705   9.694   5.795   3.435 -0.0882  0.0220  0.1528
  132MOL0     C17706   9.769   5.728   3.317 -0.1165 -0.2662 -0.4225
  132MOL0     C17707   9.728   5.588   3.285 -0.0167  0.4744  0.3597
  132MOL0     C17708   9.586   5.583   3.228  0.3667  1.1938  0.2966
  132MOL0     O17709   9.552   5.454   3.175  0.8866 -0.4358  0.0472
  132MOL0     C17710   9.447   5.449   3.086  0.1060  0.0169 -0.2971
  132MOL0     C17711   9.456   5.351   2.976  0.2807 -0.4171  0.0107
  132MOL0     C17712   9.354   5.332   2.893 -0.8854 -0.5048  1.0376
  132MOL0     C17713   9.384   5.223   2.794  0.8165 -0.6531 -0.1874
  132MOL0     C17714   9.238   5.409   2.904  0.0783 -0.9926 -0.7299
  132MOL0     C17715   9.121   5.394   2.817 -0.5143  0.1004 -0.5674
  132MOL0     O17716   9.001   5.422   2.875 -0.0997 -0.5041 -0.4453
  132MOL0     C17717   8.893   5.425   2.791  0.0348 -0.7643 -0.4373
  132MOL0     C17718   8.784   5.342   2.827  0.5896  0.6172  0.9526
  132MOL0     C17719   8.675   5.328   2.739  1.3158 -0.7509 -0.5904
  132MOL0     C17720   8.674   5.394   2.616  0.3016  0.5428 -0.6158
  132MOL0     O17721   8.559   5.389   2.534  0.1964 -0.1552  0.0009
  132MOL0     C17722   8.496   5.261   2.503  0.3339 -0.6060  1.0166
  132MOL0     C17723   8.532   5.219   2.358 -0.2952 -0.4510 -0.4289
  132MOL0     C17724   8.450   5.106   2.293  0.0993  0.0463 -0.0701
  132MOL0     C17725   8.474   5.101   2.137 -0.3381 -0.4166  0.4433
  132MOL0     C17726   8.392   4.986   2.073 -0.5567 -0.6606  0.4635
  132MOL0     C17727   8.249   5.029   2.026 -0.0670 -0.9924  0.3223
  132MOL0     C17728   8.193   4.937   1.925 -0.6429 -0.5782  1.0112
  132MOL0     C17729   8.041   4.950   1.923  0.0151 -0.7759  0.5829
  132MOL0    Cl17730   8.000   5.120   1.919 -0.2115 -0.0965  0.3670
  132MOL0     C17731   8.775   5.484   2.592  0.1339 -0.1726  0.6679
  132MOL0     C17732   8.886   5.499   2.669  0.2040  0.8932 -0.2292
  132MOL0     O17733   9.135   5.350   2.699 -0.5540 -0.2320 -0.1625
  132MOL0     C17734   9.230   5.504   3.012 -0.0579  0.5756 -0.1656
  132MOL0     C17735   9.333   5.526   3.095 -0.3419  0.0918 -0.6443
  132MOL0     N17736   9.774   5.797   3.669 -0.3102 -0.7853 -0.6726
  132MOL0     N17737   9.790   5.723   3.767 -0.2175 -0.0755  0.1217
  132MOL0     C17738  10.278   5.066   4.447 -0.5445 -0.4139  0.7186
  132MOL0     C17739  10.306   5.088   4.585  0.7690  0.4261  0.2063
  132MOL0     C17740  10.425   5.063   5.015 -0.7259 -0.4686 -0.7782
  132MOL0     C17741  10.341   5.057   5.126  1.1037 -0.5414  0.5480
  132MOL0     C17742  10.390   5.112   5.244 -0.0374 -0.7730 -1.5395
  132MOL0     C17743  10.517   5.156   5.271  1.1299 -0.1378  0.2652
  132MOL0     O17744  10.568   5.199   5.399  0.5149  0.0722  0.4321
  132MOL0     C17745  10.487   5.216   5.515 -0.4810 -0.0857 -0.5442
  132MOL0     C17746  10.430   5.093   5.584  0.7929 -0.5423  0.4031
  132MOL0     C17747  10.317   5.119   5.682 -0.4755 -0.4942  0.6076
  132MOL0     C17748  10.290   4.997   5.778  0.3172  0.5427 -0.3692
  132MOL0     C17749  10.189   5.035   5.883 -0.0472 -0.4052  0.4866
  132MOL0     C17750  10.109   5.060   5.972  0.3044 -1.1622 -0.3989
  132MOL0     C17751  10.611   5.137   5.160 -0.1616 -0.6925 -0.0438
  132MOL0     C17752  10.563   5.098   5.032 -0.0133  0.7785 -0.2279
  132MOL0     H17753  10.584   4.927   4.613  0.3585  3.3290  1.0071
  132MOL0     H17754  10.535   4.859   4.369 -0.4842 -0.2254 -0.0802
  132MOL0     H17755  10.322   5.151   4.194 -1.0490  1.0441 -2.8236
  132MOL0     H17756  10.378   5.047   4.063  1.6507 -0.9809  1.6874
  132MOL0     H17757  10.133   4.961   4.056  2.0724  0.8695 -3.8089
  132MOL0     H17758  10.103   5.112   4.145 -1.7141 -1.1884 -0.2958
  132MOL0     H17759  10.247   5.213   3.956  1.7467 -2.7855  0.0732
  132MOL0     H17760  10.228   5.058   3.876  2.0670  1.6524 -2.1481
  132MOL0     H17761  10.069   5.233   3.791 -1.2897  0.1191 -0.0597
  132MOL0     H17762  10.007   5.072   3.835 -0.8086 -0.7295  1.4045
  132MOL0     H17763   9.881   5.150   4.010  0.1042 -1.6536 -2.5297
  132MOL0     H17764   9.960   5.317   4.004 -1.6336  1.7677 -1.2394
  132MOL0     H17765   9.796   5.165   3.796  1.8356  1.0031 -1.1528
  132MOL0     H17766   9.718   5.251   3.936 -0.3739  0.5996 -1.1809
  132MOL0     H17767   9.915   5.411   3.775 -0.1770  1.4882  3.2210
  132MOL0     H17768   9.773   5.353   3.682 -4.1450  2.4255  0.8935
  132MOL0     H17769   9.786   5.509   3.936 -0.6044 -0.7241  0.4962
  132MOL0     H17770   9.631   5.468   3.858  0.4227  0.8331 -0.3997
  132MOL0     H17771   9.628   5.533   3.567 -1.5378 -1.2093  2.9376
  132MOL0     H17772   9.591   5.815   3.404  0.6310  5.3474  0.2686
  132MOL0     H17773   9.739   5.893   3.455  1.8983 -0.4367 -1.6995
  132MOL0     H17774   9.874   5.724   3.348  0.0419  2.5754 -0.3636
  132MOL0     H17775   9.755   5.798   3.235  0.5214  0.9302  0.4556
  132MOL0     H17776   9.728   5.517   3.369 -0.7429 -0.4497 -0.3845
  132MOL0     H17777   9.798   5.541   3.215 -0.8399 -2.0061  1.1034
  132MOL0     H17778   9.581   5.662   3.152  1.1460  2.5414  1.5799
  132MOL0     H17779   9.511   5.599   3.306 -0.7918  0.4684 -0.6426
  132MOL0     H17780   9.546   5.291   2.978  0.0829 -0.7808 -1.1933
  132MOL0     H17781   9.459   5.151   2.829  2.4036  2.1672  2.6696
  132MOL0     H17782   9.296   5.159   2.777  2.4316 -3.3996  1.0363
  132MOL0     H17783   9.419   5.272   2.703 -1.1157 -0.4680 -0.8747
  132MOL0     H17784   8.773   5.293   2.924  1.2375  0.5982  1.0213
  132MOL0     H17785   8.589   5.265   2.761  0.3102 -0.5559 -3.6098
  132MOL0     H17786   8.511   5.191   2.586 -1.9320  2.5816  4.4807
  132MOL0     H17787   8.389   5.283   2.490  1.0597  3.1326  0.1290
  132MOL0     H17788   8.525   5.306   2.293  0.8318  0.0878  0.1403
  132MOL0     H17789   8.638   5.191   2.362 -0.2618 -0.2641  0.1430
  132MOL0     H17790   8.341   5.117   2.298 -0.1492 -1.6248 -1.1289
  132MOL0     H17791   8.473   5.007   2.335  0.0218  0.3386  0.6861
  132MOL0     H17792   8.450   5.198   2.093  0.4078  1.0750  3.0842
  132MOL0     H17793   8.574   5.064   2.116 -1.1154 -2.1686 -0.3897
  132MOL0     H17794   8.386   4.903   2.144  1.0853 -1.2548 -0.0612
  132MOL0     H17795   8.452   4.943   1.993 -0.3181  1.0191 -0.3005
  132MOL0     H17796   8.189   5.051   2.114  3.3036  1.5798  2.1874
  132MOL0     H17797   8.258   5.130   1.987  1.8102 -0.4276  2.0713
  132MOL0     H17798   8.211   4.831   1.947 -1.3904 -1.4063 -1.8730
  132MOL0     H17799   8.233   4.955   1.825  0.7087  0.2465  1.6805
  132MOL0     H17800   7.988   4.902   2.006  1.8195 -0.2490  2.1082
  132MOL0     H17801   8.001   4.901   1.833 -1.2748  0.7247  0.3009
  132MOL0     H17802   8.763   5.527   2.493 -1.7128  2.5422  1.9412
  132MOL0     H17803   8.961   5.572   2.641 -0.9212  2.8087  1.4313
  132MOL0     H17804   9.138   5.561   3.013 -0.1799  0.3874  1.6768
  132MOL0     H17805   9.315   5.601   3.172  0.4645  1.0281 -1.3409
  132MOL0     H17806  10.200   5.122   4.397 -0.8464 -2.1430 -0.8522
  132MOL0     H17807  10.250   5.164   4.638 -3.1080 -2.3034  0.4319
  132MOL0     H17808  10.243   5.012   5.119 -1.1229  3.9967 -1.5111
  132MOL0     H17809  10.324   5.125   5.329  1.0554  2.1810 -1.0111
  132MOL0     H17810  10.552   5.265   5.588 -2.6184  3.4086 -0.8007
  132MOL0     H17811  10.405   5.285   5.495 -0.6543 -0.4090 -0.9666
  132MOL0     H17812  10.507   5.046   5.647  0.3484  0.1138  1.4763
  132MOL0     H17813  10.385   5.021   5.516 -2.5265  0.1021  1.7290
  132MOL0     H17814  10.222   5.133   5.630 -0.4826  2.9817  1.3170
  132MOL0     H17815  10.338   5.208   5.741  1.4364 -1.1443  0.9791
  132MOL0     H17816  10.379   4.964   5.832 -1.0173 -2.0271  0.4411
  132MOL0     H17817  10.268   4.906   5.722 -0.0143  0.1422  0.3893
  132MOL0     H17818  10.036   5.081   6.048 -0.4776 -0.0791 -1.4225
  132MOL0     H17819  10.717   5.158   5.173 -0.5082  1.1764 -0.0130
  132MOL0     H17820  10.635   5.108   4.952 -0.8564  4.7443 -0.6823
  133MOL0     O17821   5.624   3.394   8.603  0.2356  0.8802  0.2720
  133MOL0     C17822   5.713   3.317   8.648 -0.2320 -0.0758 -0.4723
  133MOL0     O17823   5.828   3.280   8.587  0.3129  0.4933 -0.1427
  133MOL0     C17824   5.852   3.318   8.466  0.6133  0.6117 -0.3207
  133MOL0     C17825   5.845   3.236   8.357  0.5934 -0.9942  0.2411
  133MOL0     C17826   5.874   3.286   8.231 -0.6630  0.0898 -0.4816
  133MOL0     C17827   5.899   3.417   8.215 -0.0356 -0.7481 -0.5356
  133MOL0     O17828   5.940   3.445   8.087 -0.0308  0.6384  0.6028
  133MOL0     C17829   5.880   3.566   8.036 -0.8807  0.2802  0.4075
  133MOL0     C17830   5.729   3.566   8.022 -0.2228 -0.0911  0.6770
  133MOL0     C17831   5.678   3.680   7.945 -0.8476 -0.8760  1.0247
  133MOL0     C17832   5.521   3.670   7.921  0.7849 -0.2200 -0.0769
  133MOL0     C17833   5.476   3.557   7.821 -1.1352 -0.1355 -0.2527
  133MOL0     C17834   5.529   3.579   7.675  0.4168  0.1235 -0.1805
  133MOL0     C17835   5.515   3.443   7.601  0.2664 -0.2832 -0.5538
  133MOL0     C17836   5.525   3.463   7.455 -0.4726  0.3997  0.2109
  133MOL0     N17837   5.518   3.337   7.378  0.1607  0.3511 -0.3391
  133MOL0     C17838   5.430   3.238   7.402  0.6789  0.0828 -0.3838
  133MOL0     C17839   5.455   3.135   7.311 -0.8997  0.3987 -0.4080
  133MOL0     C17840   5.390   2.996   7.297 -0.8401 -0.0495  0.2923
  133MOL0     C17841   5.240   3.019   7.273  0.1684  0.3730 -0.7470
  133MOL0     C17842   5.203   3.105   7.148  0.3924 -0.3375  0.0351
  133MOL0     C17843   5.058   3.131   7.142 -0.1672 -0.7689  0.8885
  133MOL0     O17844   4.998   3.216   7.242 -0.0756  0.1151 -0.2839
  133MOL0     C17845   5.058   3.339   7.265  0.1761  0.0551  0.2690
  133MOL0     C17846   5.078   3.369   7.398  0.0357  0.6313  0.3909
  133MOL0     C17847   5.126   3.492   7.436  0.6998 -0.6841 -0.6426
  133MOL0     C17848   5.147   3.508   7.591  0.0342 -0.5689  0.0218
  133MOL0     C17849   5.158   3.593   7.333 -0.4914 -0.5135 -1.6868
  133MOL0     C17850   5.220   3.724   7.365  0.3297 -0.1281 -0.1926
  133MOL0     O17851   5.257   3.796   7.260  0.2331 -0.2157  0.3894
  133MOL0     C17852   5.392   3.819   7.259 -0.4659 -0.8637  0.1049
  133MOL0     C17853   5.441   3.830   7.128 -0.0766  0.0681 -0.0934
  133MOL0     C17854   5.579   3.865   7.107  0.1698  0.0237 -0.4226
  133MOL0     C17855   5.658   3.895   7.213 -0.6350 -0.4947 -0.3102
  133MOL0     O17856   5.786   3.938   7.198  0.7446 -0.0633  0.2332
  133MOL0     C17857   5.783   4.079   7.150  0.5178  0.0874  0.2007
  133MOL0     C17858   5.918   4.142   7.147  0.1319 -0.0511 -0.2642
  133MOL0     C17859   6.010   4.097   7.024  0.1763  0.6168 -0.2574
  133MOL0     C17860   6.138   4.191   7.016 -0.1684 -0.2353 -0.5829
  133MOL0     C17861   6.192   4.178   6.874 -0.1521  0.2810  0.6386
  133MOL0     C17862   6.335   4.245   6.863  0.1244  0.0795  0.4823
  133MOL0     C17863   6.380   4.261   6.718 -0.9137 -0.1047 -0.3693
  133MOL0     C17864   6.307   4.385   6.655  0.2978  0.0802  0.5367
  133MOL0    Cl17865   6.325   4.539   6.759 -0.2647 -0.3707  0.2784
  133MOL0     C17866   5.612   3.884   7.348 -0.1600  0.7145 -0.6406
  133MOL0     C17867   5.482   3.849   7.372  0.1312  0.4482 -0.4964
  133MOL0     O17868   5.198   3.778   7.474 -0.3194 -0.0021 -0.7851
  133MOL0     C17869   5.147   3.558   7.196  0.6478  0.8029 -0.0703
  133MOL0     C17870   5.097   3.424   7.170 -0.0441 -0.1918  1.0668
  133MOL0     N17871   5.556   3.184   7.229  0.5848  0.1643  0.1483
  133MOL0     N17872   5.598   3.297   7.271  0.3550  0.4656 -0.0486
  133MOL0     C17873   5.904   3.500   8.319  1.3309 -0.8777 -0.0552
  133MOL0     C17874   5.883   3.445   8.446  0.0120  0.2091 -0.5369
  133MOL0     C17875   5.694   3.286   8.791  0.0260 -1.0948  0.3073
  133MOL0     C17876   5.766   3.185   8.852  0.8768  0.1632 -0.0769
  133MOL0     C17877   5.754   3.165   8.988 -0.1397  0.1388  0.3717
  133MOL0     C17878   5.664   3.235   9.068  0.4886  0.0075 -0.0361
  133MOL0     O17879   5.640   3.198   9.196  0.1013  0.3408  0.0102
  133MOL0     C17880   5.615   3.308   9.284  1.0022 -0.1529 -0.0163
  133MOL0     C17881   5.624   3.242   9.423  1.0741 -0.1532  0.0634
  133MOL0     C17882   5.611   3.340   9.532 -0.7096  0.2666 -0.7849
  133MOL0     C17883   5.733   3.424   9.564  0.8272 -0.8068  0.4949
  133MOL0     C17884   5.837   3.341   9.616 -0.3248  0.1859  0.1670
  133MOL0     C17885   5.943   3.279   9.655  0.4383 -0.1391 -0.0285
  133MOL0     C17886   5.589   3.334   9.000  0.3895 -0.1981  0.1946
  133MOL0     C17887   5.605   3.364   8.870 -0.2352 -0.4079 -0.1371
  133MOL0     H17888   5.822   3.132   8.377  0.1408 -0.5106  2.5120
  133MOL0     H17889   5.875   3.213   8.151  2.4176  1.2564 -1.6443
  133MOL0     H17890   5.916   3.660   8.079  0.1217 -0.3517  0.9883
  133MOL0     H17891   5.917   3.573   7.934 -1.7762 -0.1347  0.0485
  133MOL0     H17892   5.699   3.466   7.988 -1.8386  0.3495  0.7384
  133MOL0     H17893   5.686   3.568   8.122 -2.8542  4.2438 -0.2877
  133MOL0     H17894   5.701   3.774   7.996  1.7452 -1.1802  0.5693
  133MOL0     H17895   5.732   3.683   7.850  1.5580  0.4797  2.3490
  133MOL0     H17896   5.471   3.646   8.015 -2.4394  0.2115 -1.5339
  133MOL0     H17897   5.479   3.765   7.886  0.0625 -1.4075 -2.7092
  133MOL0     H17898   5.520   3.466   7.863 -0.8975  0.6112  1.1848
  133MOL0     H17899   5.367   3.548   7.819 -1.0674 -0.8322 -1.4284
  133MOL0     H17900   5.474   3.658   7.623 -0.1157 -0.8029 -1.0575
  133MOL0     H17901   5.633   3.611   7.678  0.2668  0.5381  1.5739
  133MOL0     H17902   5.590   3.366   7.624 -1.9592 -2.8614 -1.3510
  133MOL0     H17903   5.418   3.402   7.630  0.3543  0.7345  1.3689
  133MOL0     H17904   5.624   3.505   7.434 -0.6618  0.1454 -1.3263
  133MOL0     H17905   5.453   3.537   7.418  0.1936  1.6805  1.3923
  133MOL0     H17906   5.355   3.245   7.480 -0.1249  0.9644 -1.2110
  133MOL0     H17907   5.422   2.942   7.208 -2.0426  2.1145 -1.5817
  133MOL0     H17908   5.418   2.949   7.391 -1.0056  3.2947  2.2076
  133MOL0     H17909   5.193   3.066   7.360  1.2069 -1.3458  0.8247
  133MOL0     H17910   5.187   2.924   7.265 -1.3165  1.0218  0.7266
  133MOL0     H17911   5.236   3.054   7.057  0.5016  2.4485 -1.6223
  133MOL0     H17912   5.257   3.200   7.140 -1.6549  0.8742 -0.3558
  133MOL0     H17913   5.002   3.037   7.145 -1.7681  0.1433  0.9136
  133MOL0     H17914   5.041   3.183   7.048 -0.3371 -0.5215  1.0535
  133MOL0     H17915   5.055   3.287   7.465  0.9796 -0.5066 -0.6298
  133MOL0     H17916   5.207   3.594   7.623 -1.5425 -0.4487  3.0635
  133MOL0     H17917   5.050   3.506   7.641  0.7063  0.0007  1.4127
  133MOL0     H17918   5.199   3.419   7.629  1.2865  0.6137  1.2374
  133MOL0     H17919   5.367   3.809   7.052  2.9293 -2.3080 -2.6455
  133MOL0     H17920   5.614   3.889   7.006  2.4402  1.7258  0.6664
  133MOL0     H17921   5.740   4.091   7.050 -0.0332  1.5670  0.5764
  133MOL0     H17922   5.719   4.147   7.209 -4.5821 -1.7695 -2.5365
  133MOL0     H17923   5.912   4.250   7.137  0.4460 -0.0071 -0.0029
  133MOL0     H17924   5.982   4.122   7.233  0.0293  0.2440 -0.1189
  133MOL0     H17925   5.954   4.103   6.930  0.4243  1.8777 -0.3388
  133MOL0     H17926   6.045   3.995   7.043  3.6971  0.9896 -3.6107
  133MOL0     H17927   6.126   4.299   7.033  1.9376  0.0740 -0.8205
  133MOL0     H17928   6.211   4.165   7.092 -1.5821  0.9083  1.2579
  133MOL0     H17929   6.117   4.232   6.816 -0.3665 -0.1574  0.4997
  133MOL0     H17930   6.194   4.079   6.827 -0.8520  0.1750  0.8196
  133MOL0     H17931   6.339   4.339   6.918  1.9927  1.3012 -1.5732
  133MOL0     H17932   6.404   4.173   6.908  1.2388 -1.0596 -2.7878
  133MOL0     H17933   6.366   4.168   6.662 -0.6645 -0.3351 -0.0512
  133MOL0     H17934   6.488   4.275   6.706 -1.1166  2.1241  0.0782
  133MOL0     H17935   6.203   4.353   6.641  0.9515 -2.4921  0.9435
  133MOL0     H17936   6.356   4.403   6.559  0.9812 -0.4417  0.7781
  133MOL0     H17937   5.669   3.915   7.435 -1.4971 -0.6933  0.7892
  133MOL0     H17938   5.459   3.848   7.478 -2.3140  0.9980 -0.9656
  133MOL0     H17939   5.174   3.616   7.108 -3.2483  0.5170 -1.6367
  133MOL0     H17940   5.072   3.388   7.071 -2.7859 -0.8596  1.9039
  133MOL0     H17941   5.925   3.606   8.305 -1.0684 -0.4165 -0.8101
  133MOL0     H17942   5.900   3.507   8.534  2.2251 -1.7333  0.5197
  133MOL0     H17943   5.826   3.115   8.794 -0.1485 -0.8190  0.0122
  133MOL0     H17944   5.787   3.074   9.038 -3.2935 -0.6977  1.1435
  133MOL0     H17945   5.673   3.400   9.281 -0.6640  0.9068 -2.1240
  133MOL0     H17946   5.508   3.329   9.274  0.9381 -1.0716 -1.6381
  133MOL0     H17947   5.720   3.191   9.434  1.3136  0.3526  0.2973
  133MOL0     H17948   5.541   3.170   9.420  0.8828  0.0776 -0.2571
  133MOL0     H17949   5.599   3.300   9.633 -0.9551 -0.2326 -1.0082
  133MOL0     H17950   5.525   3.404   9.508 -1.0415  0.3419  0.5577
  133MOL0     H17951   5.728   3.501   9.641  2.3317 -2.3296  2.2036
  133MOL0     H17952   5.783   3.470   9.478  1.8834  0.7311  1.8801
  133MOL0     H17953   6.035   3.241   9.694  0.4129  1.3265  1.5528
  133MOL0     H17954   5.509   3.389   9.049  1.4306  1.2231  0.3492
  133MOL0     H17955   5.533   3.429   8.822 -3.3183 -2.3184  1.5679
  134MOL0     O17956   9.748  10.828   8.973 -0.1585 -0.1378 -0.4653
  134MOL0     C17957   9.788  10.782   8.868  0.6107  0.1299 -0.0225
  134MOL0     O17958   9.916  10.785   8.823  0.3982  0.2327  0.2325
  134MOL0     C17959   9.992  10.856   8.910  0.1762  0.7271 -0.5701
  134MOL0     C17960  10.086  10.810   9.000  0.2463  0.3848 -0.1993
  134MOL0     C17961  10.187  10.896   9.062  0.2193 -0.7433  0.2031
  134MOL0     C17962  10.170  11.034   9.055  0.7523 -0.5405  0.2394
  134MOL0     O17963  10.236  11.120   9.141 -0.3906 -0.3226  0.1992
  134MOL0     C17964  10.178  11.247   9.177 -0.0606 -0.3273 -1.2657
  134MOL0     C17965  10.235  11.364   9.092  0.0553  0.0140  0.8590
  134MOL0     C17966  10.385  11.375   9.111  0.4081  0.7074  0.6254
  134MOL0     C17967  10.448  11.504   9.046  0.0768 -0.5223 -0.3691
  134MOL0     C17968  10.604  11.488   9.049 -0.5042  0.1763 -0.1616
  134MOL0     C17969  10.649  11.552   9.189  0.3072  0.3549  1.2379
  134MOL0     C17970  10.797  11.543   9.216 -0.5987  0.4044  0.0162
  134MOL0     C17971  10.872  11.410   9.255 -0.2460  0.2343 -1.3369
  134MOL0     N17972  11.016  11.438   9.266 -0.2274 -0.3228 -0.3275
  134MOL0     C17973  11.090  11.459   9.386 -0.5661 -0.0089  0.2700
  134MOL0     C17974  11.218  11.454   9.345  0.1430 -1.3117 -0.8534
  134MOL0     C17975  11.335  11.472   9.435 -0.8814 -0.1267  1.0749
  134MOL0     C17976  11.340  11.377   9.550  0.3899  0.1967  0.5601
  134MOL0     C17977  11.373  11.230   9.504  0.1331  0.7772  0.5361
  134MOL0     C17978  11.480  11.207   9.399 -0.4834  0.2362 -0.3636
  134MOL0     O17979  11.603  11.275   9.433 -0.0775 -0.2913 -0.0521
  134MOL0     C17980  11.717  11.202   9.456  0.1695 -0.9589 -1.2541
  134MOL0     C17981  11.737  11.157   9.593  0.5806 -0.1016 -0.3025
  134MOL0     C17982  11.845  11.088   9.634  0.7423 -0.0275 -0.9964
  134MOL0     C17983  11.859  11.072   9.783  0.3576 -0.4597  0.0279
  134MOL0     C17984  11.934  11.041   9.536  0.1285  0.0572 -0.1361
  134MOL0     C17985  12.045  10.952   9.560 -0.1840  0.1303 -0.9878
  134MOL0     O17986  12.148  10.946   9.473  0.1877  0.0797  0.0325
  134MOL0     C17987  12.249  10.849   9.462  0.4421  0.0749  0.0327
  134MOL0     C17988  12.253  10.738   9.541 -0.3037  0.7299 -0.1021
  134MOL0     C17989  12.348  10.629   9.516  0.1396  0.1265 -0.2527
  134MOL0     C17990  12.449  10.642   9.431  0.2761  0.0538 -0.5002
  134MOL0     O17991  12.537  10.536   9.414  0.6718  0.6633  0.0804
  134MOL0     C17992  12.662  10.558   9.348  0.3093  0.3034 -1.2399
  134MOL0     C17993  12.779  10.468   9.409  1.1428 -1.1016 -0.7654
  134MOL0     C17994  12.791  10.461   9.569  0.0186  0.1748  0.4598
  134MOL0     C17995  12.914  10.373   9.602  0.0482  0.2189 -0.3178
  134MOL0     C17996  12.866  10.229   9.602  0.7921  0.2111 -0.2826
  134MOL0     C17997  12.969  10.133   9.669  0.2046 -1.0547 -0.5840
  134MOL0     C17998  13.081  10.109   9.572 -0.8540 -0.7573  0.6471
  134MOL0     C17999  13.176  10.003   9.626 -0.3322  0.0906 -0.0712
  134MOL0    Cl18000  13.319   9.995   9.517  0.4320 -0.0262 -0.2146
  134MOL0     C18001  12.457  10.761   9.350  0.1911 -0.2567  0.6250
  134MOL0     C18002  12.353  10.857   9.356  0.6051  0.0039  0.9100
  134MOL0     O18003  12.016  10.862   9.642  0.7700 -0.0794  0.0629
  134MOL0     C18004  11.917  11.085   9.404  1.0336 -1.0064  0.2544
  134MOL0     C18005  11.814  11.174   9.367  1.3457  0.2573  0.2183
  134MOL0     N18006  11.227  11.450   9.210  1.1114 -0.4493 -0.4963
  134MOL0     N18007  11.107  11.446   9.166  0.2995 -0.6697  0.1546
  134MOL0     C18008  10.068  11.083   8.968 -0.6328 -0.7812 -0.2135
  134MOL0     C18009   9.997  10.995   8.892  0.3500 -0.3172 -0.2049
  134MOL0     C18010   9.682  10.729   8.778 -0.1480  0.0103  0.9432
  134MOL0     C18011   9.551  10.718   8.824  0.1589 -0.7469  0.2411
  134MOL0     C18012   9.448  10.661   8.753 -0.4257 -0.4180  0.0557
  134MOL0     C18013   9.471  10.613   8.624  0.6667 -0.3542 -0.1756
  134MOL0     O18014   9.371  10.583   8.539  0.3498  0.3626  0.8943
  134MOL0     C18015   9.225  10.599   8.575 -0.9808 -0.3756  0.2720
  134MOL0     C18016   9.130  10.610   8.462  0.1219  0.5512  0.0013
  134MOL0     C18017   9.116  10.495   8.368 -0.0000 -0.5461  0.5070
  134MOL0     C18018   8.983  10.490   8.296 -0.8304 -0.1805 -0.1133
  134MOL0     C18019   8.948  10.626   8.249  0.0848 -0.0755 -0.2277
  134MOL0     C18020   8.915  10.732   8.192  0.4683 -0.7967 -0.3154
  134MOL0     C18021   9.599  10.627   8.573  0.7741  0.0053  0.1676
  134MOL0     C18022   9.705  10.679   8.650 -0.1146 -0.4077 -0.4692
  134MOL0     H18023  10.096  10.704   9.023 -2.3729  0.4260  1.5645
  134MOL0     H18024  10.259  10.853   9.131 -0.6133  1.5755  2.6930
  134MOL0     H18025  10.071  11.236   9.160 -0.6814  0.6215  1.5043
  134MOL0     H18026  10.192  11.264   9.285  2.4302 -2.6619 -1.1082
  134MOL0     H18027  10.227  11.338   8.986  0.3538 -1.8993  1.2768
  134MOL0     H18028  10.180  11.455   9.120 -2.0642 -1.0828  0.4674
  134MOL0     H18029  10.415  11.364   9.216 -0.8924 -2.7248  0.7547
  134MOL0     H18030  10.425  11.285   9.063  0.6169 -0.3032  2.5853
  134MOL0     H18031  10.409  11.511   8.944 -3.3106 -2.7213  0.6058
  134MOL0     H18032  10.421  11.591   9.106  2.8962  0.9945 -1.1337
  134MOL0     H18033  10.629  11.383   9.032  1.2935  0.5780 -0.1907
  134MOL0     H18034  10.657  11.539   8.968 -1.0796  2.5841  0.8954
  134MOL0     H18035  10.632  11.658   9.165 -1.3867 -0.7873 -3.8724
  134MOL0     H18036  10.591  11.515   9.273 -0.3515 -2.4952 -0.3493
  134MOL0     H18037  10.846  11.581   9.126  0.9625 -0.0634  0.6355
  134MOL0     H18038  10.826  11.598   9.306 -3.5794 -0.9076  1.9484
  134MOL0     H18039  10.852  11.339   9.174  0.3057 -1.4009 -0.0993
  134MOL0     H18040  10.831  11.381   9.353  0.9921 -0.0211 -0.8815
  134MOL0     H18041  11.058  11.481   9.487 -1.4790 -4.2588  1.0965
  134MOL0     H18042  11.430  11.464   9.381 -0.6887  2.6572  0.8710
  134MOL0     H18043  11.336  11.577   9.467 -1.7980  1.7760 -4.0431
  134MOL0     H18044  11.251  11.381   9.614  2.0333  1.2879  2.9330
  134MOL0     H18045  11.420  11.405   9.619 -1.5950  0.2001  3.0070
  134MOL0     H18046  11.285  11.185   9.458  1.0820 -1.8054  1.0730
  134MOL0     H18047  11.399  11.165   9.588 -3.2627 -2.8489 -0.9157
  134MOL0     H18048  11.438  11.245   9.306  2.9057  1.0595 -1.7230
  134MOL0     H18049  11.506  11.101   9.397  0.4536  0.3206  2.4686
  134MOL0     H18050  11.661  11.193   9.661 -1.1024  0.2732 -2.2980
  134MOL0     H18051  11.959  11.044   9.816 -0.1226 -0.8993  1.1548
  134MOL0     H18052  11.833  11.166   9.833  0.9569  0.5920 -1.5387
  134MOL0     H18053  11.783  10.998   9.810  0.7108 -1.2580 -1.0959
  134MOL0     H18054  12.180  10.703   9.613  2.1005  0.1449  2.1918
  134MOL0     H18055  12.343  10.540   9.578  0.0592 -1.2283 -2.1348
  134MOL0     H18056  12.650  10.546   9.240  2.6444 -1.4908 -1.3824
  134MOL0     H18057  12.699  10.660   9.363 -0.8741  0.3715  2.1425
  134MOL0     H18058  12.763  10.365   9.374  3.4884 -1.0105 -2.3428
  134MOL0     H18059  12.872  10.506   9.367  0.7582 -0.4156 -1.0116
  134MOL0     H18060  12.696  10.429   9.612  0.5118  0.2396  1.6542
  134MOL0     H18061  12.817  10.561   9.605  0.8685 -0.6578  2.3308
  134MOL0     H18062  12.993  10.401   9.532 -3.1671  4.5374 -2.7139
  134MOL0     H18063  12.950  10.407   9.700  3.5765 -0.9542 -1.0577
  134MOL0     H18064  12.858  10.199   9.497 -3.0379  1.1649 -0.3983
  134MOL0     H18065  12.768  10.212   9.646  0.9516 -2.9651 -0.9286
  134MOL0     H18066  13.011  10.174   9.761 -0.2625 -0.9491 -0.4116
  134MOL0     H18067  12.907  10.048   9.700 -0.0404 -1.3181 -1.7479
  134MOL0     H18068  13.137  10.203   9.567  0.7043 -1.4310  3.4242
  134MOL0     H18069  13.043  10.067   9.478 -1.5314 -3.1587  1.9235
  134MOL0     H18070  13.119   9.911   9.616  0.2936 -0.6580  2.5987
  134MOL0     H18071  13.203  10.011   9.731  2.1658  0.6058 -0.6786
  134MOL0     H18072  12.537  10.769   9.278 -2.0454 -1.6455 -2.2365
  134MOL0     H18073  12.358  10.947   9.296  0.2711  1.4854  2.9754
  134MOL0     H18074  11.992  11.057   9.331  0.1925 -2.3103 -0.1406
  134MOL0     H18075  11.804  11.193   9.261 -3.3714  2.0670  0.7546
  134MOL0     H18076  10.060  11.188   8.944 -1.6455 -1.8518 -6.0596
  134MOL0     H18077   9.925  11.045   8.829  0.1166  0.1806  0.4389
  134MOL0     H18078   9.525  10.748   8.925 -0.3425 -1.4269  0.3162
  134MOL0     H18079   9.351  10.659   8.801 -1.3617 -1.2071 -1.7721
  134MOL0     H18080   9.194  10.525   8.649  3.5196 -1.2572  1.5491
  134MOL0     H18081   9.225  10.698   8.620  1.6343  2.4197 -4.8872
  134MOL0     H18082   9.160  10.692   8.396  0.6721 -0.4282 -0.9829
  134MOL0     H18083   9.030  10.620   8.506  0.1803 -1.0052  0.5204
  134MOL0     H18084   9.116  10.397   8.418 -3.2005  1.0646  4.2041
  134MOL0     H18085   9.196  10.514   8.296  2.1071 -0.8515  2.6202
  134MOL0     H18086   8.896  10.457   8.354 -0.0582  3.9834  3.9942
  134MOL0     H18087   9.005  10.423   8.212 -0.6121  0.8362 -0.8930
  134MOL0     H18088   8.883  10.822   8.143  0.4992 -0.8509 -0.4334
  134MOL0     H18089   9.617  10.580   8.477 -1.5286 -1.5983  0.4482
  134MOL0     H18090   9.808  10.665   8.617  0.1926 -0.7077  0.5695
  135MOL0     O18091   0.926   7.878   0.193 -0.2015  0.1023  0.8799
  135MOL0     C18092   0.928   7.817   0.083  0.5870 -0.2206 -0.5202
  135MOL0     O18093   0.949   7.686   0.062  1.2252  0.1004  0.0370
  135MOL0     C18094   0.984   7.608   0.164  0.0007 -0.4404 -0.0384
  135MOL0     C18095   1.117   7.587   0.194 -0.3266  0.3966 -0.0321
  135MOL0     C18096   1.158   7.509   0.299  0.2814 -0.3662 -0.5432
  135MOL0     C18097   1.063   7.470   0.392  0.3205 -0.0572 -0.0913
  135MOL0     O18098   1.107   7.399   0.500 -0.1773 -0.1493 -0.3912
  135MOL0     C18099   1.050   7.440   0.623  0.6769  0.3592 -0.8673
  135MOL0     C18100   1.133   7.391   0.744  0.5949  0.1597  0.6705
  135MOL0     C18101   1.275   7.465   0.743  1.4028 -0.0324  0.0508
  135MOL0     C18102   1.350   7.429   0.881  0.1258 -0.3432 -0.7093
  135MOL0     C18103   1.462   7.529   0.905 -0.3900 -0.7970  0.6051
  135MOL0     C18104   1.546   7.474   1.012 -0.7908 -0.0628 -0.2999
  135MOL0     C18105   1.671   7.566   1.047  0.0447 -0.1729 -0.1579
  135MOL0     C18106   1.753   7.533   1.164  0.0725  0.0796  0.6229
  135MOL0     N18107   1.833   7.403   1.164  0.0553 -0.4863 -0.3160
  135MOL0     C18108   1.822   7.319   1.260 -0.1402  0.1535 -0.0021
  135MOL0     C18109   1.838   7.195   1.212  0.3204 -0.6174  1.1715
  135MOL0     C18110   1.834   7.058   1.275  0.6411  0.3706 -0.2162
  135MOL0     C18111   1.685   7.015   1.284 -0.2546  0.5895  0.1601
  135MOL0     C18112   1.599   7.035   1.152 -1.1541 -0.0945 -0.3342
  135MOL0     C18113   1.645   6.946   1.036  0.8488 -0.0877  1.2623
  135MOL0     O18114   1.541   6.965   0.937  0.2865 -0.6159  0.2690
  135MOL0     C18115   1.550   7.056   0.834  0.7272 -0.2106  0.2996
  135MOL0     C18116   1.663   7.138   0.809  0.4025  0.1592  0.2322
  135MOL0     C18117   1.675   7.219   0.689 -0.0123  0.0688 -0.3403
  135MOL0     C18118   1.800   7.298   0.666 -1.7951  0.1158 -0.8153
  135MOL0     C18119   1.572   7.219   0.589  0.2921 -0.0607 -0.4293
  135MOL0     C18120   1.585   7.288   0.457 -0.7849 -0.1145  0.6067
  135MOL0     O18121   1.514   7.235   0.353 -0.1913  0.0785  0.2467
  135MOL0     C18122   1.543   7.269   0.218 -0.6322  0.9626 -0.4308
  135MOL0     C18123   1.438   7.271   0.132  0.4297 -0.5100  0.5108
  135MOL0     C18124   1.440   7.329   0.003 -0.3154 -0.0058  0.3794
  135MOL0     C18125   1.563   7.364  -0.056  0.2567  0.2991 -0.9682
  135MOL0     O18126   1.578   7.425  -0.178  0.5219 -0.2487 -1.1036
  135MOL0     C18127   1.465   7.465  -0.257 -0.3094 -0.2829 -0.1326
  135MOL0     C18128   1.520   7.547  -0.370 -0.6697  0.4849 -0.2479
  135MOL0     C18129   1.551   7.687  -0.334  0.5935 -0.2137 -0.1640
  135MOL0     C18130   1.567   7.770  -0.469  0.9579  0.5299  0.2473
  135MOL0     C18131   1.592   7.911  -0.433 -0.3091  0.5184  1.0808
  135MOL0     C18132   1.711   7.937  -0.343  0.2167 -0.3287  0.0423
  135MOL0     C18133   1.732   8.094  -0.341 -0.7700 -0.1900  0.2943
  135MOL0     C18134   1.812   8.133  -0.221 -0.2880  0.1181 -0.9075
  135MOL0    Cl18135   1.979   8.083  -0.232  0.0264 -0.4039 -0.3725
  135MOL0     C18136   1.672   7.358   0.035 -1.6066  0.5896 -0.4618
  135MOL0     C18137   1.659   7.315   0.168  0.0252  0.2578  0.0954
  135MOL0     O18138   1.648   7.397   0.451 -0.1871 -0.0009 -0.0916
  135MOL0     C18139   1.457   7.142   0.620 -0.1654  0.9154  0.2729
  135MOL0     C18140   1.447   7.063   0.740 -0.7451  0.7615  0.9567
  135MOL0     N18141   1.894   7.221   1.085 -0.3845  0.2600  0.0854
  135MOL0     N18142   1.877   7.346   1.051  0.1635 -0.3296 -0.3903
  135MOL0     C18143   0.924   7.491   0.369  0.1750  0.5882  1.1712
  135MOL0     C18144   0.885   7.558   0.246 -0.4795  0.1583  0.2782
  135MOL0     C18145   0.876   7.896  -0.021  0.4038 -0.3542  0.2282
  135MOL0     C18146   0.823   7.841  -0.133 -0.5747  0.7523 -0.2498
  135MOL0     C18147   0.766   7.918  -0.235 -0.2607 -0.8224 -0.4334
  135MOL0     C18148   0.768   8.058  -0.231 -0.1048  0.7357  0.4463
  135MOL0     O18149   0.724   8.142  -0.336  0.5507 -1.1545 -0.0296
  135MOL0     C18150   0.681   8.095  -0.463  0.2828  0.8142  0.0959
  135MOL0     C18151   0.809   8.057  -0.543 -0.6116  0.4969  0.0700
  135MOL0     C18152   0.866   8.167  -0.635 -0.1333 -0.5265 -0.1634
  135MOL0     C18153   0.962   8.256  -0.560  0.2587 -0.0539  0.1742
  135MOL0     C18154   0.972   8.393  -0.619  0.0243  0.0574 -0.8232
  135MOL0     C18155   0.983   8.490  -0.682  0.4450  0.0020 -0.0052
  135MOL0     C18156   0.825   8.126  -0.117 -0.7811  0.3736  0.0723
  135MOL0     C18157   0.873   8.043  -0.014 -0.5108 -0.2975  0.6251
  135MOL0     H18158   1.193   7.638   0.135  1.4679 -0.0365  1.8041
  135MOL0     H18159   1.266   7.499   0.307  0.4952  0.2405 -2.2724
  135MOL0     H18160   1.044   7.549   0.632 -0.9879  0.3189 -1.0532
  135MOL0     H18161   0.945   7.407   0.629  0.4354  1.3171  1.6952
  135MOL0     H18162   1.081   7.417   0.837 -1.9057 -0.2147 -0.5329
  135MOL0     H18163   1.149   7.283   0.739 -0.3168  0.0691 -1.4378
  135MOL0     H18164   1.323   7.435   0.650 -0.1922  0.0105 -0.8100
  135MOL0     H18165   1.265   7.574   0.747 -0.3908 -0.2039  1.4195
  135MOL0     H18166   1.278   7.431   0.962  1.3700  0.2757  0.4183
  135MOL0     H18167   1.385   7.327   0.860 -2.2889 -0.8332 -2.8133
  135MOL0     H18168   1.512   7.559   0.813 -2.9566  1.8290 -0.0821
  135MOL0     H18169   1.444   7.630   0.943  0.0264 -0.2931 -0.4867
  135MOL0     H18170   1.483   7.469   1.101  0.3904 -0.5671  0.5345
  135MOL0     H18171   1.585   7.374   0.992  0.4461  0.1181  1.0117
  135MOL0     H18172   1.733   7.576   0.957 -1.4301  0.2573 -1.1744
  135MOL0     H18173   1.643   7.670   1.062  1.7656  0.5394 -1.5528
  135MOL0     H18174   1.683   7.527   1.248 -1.5451 -1.5791 -0.7496
  135MOL0     H18175   1.826   7.614   1.171 -0.2829  0.7530 -2.2027
  135MOL0     H18176   1.783   7.335   1.360 -1.6021 -0.4569 -0.4478
  135MOL0     H18177   1.891   6.979   1.226 -0.3714 -0.8771  0.5809
  135MOL0     H18178   1.875   7.064   1.376  0.7953 -1.4632 -0.1402
  135MOL0     H18179   1.638   7.065   1.370 -1.0626  4.5760 -2.3251
  135MOL0     H18180   1.678   6.908   1.306 -0.8205  0.3176 -1.2196
  135MOL0     H18181   1.596   7.142   1.129 -3.9918 -0.2590 -1.1085
  135MOL0     H18182   1.498   6.996   1.172 -0.1751 -2.7826 -0.1541
  135MOL0     H18183   1.643   6.841   1.064 -3.5360  0.0516  2.1111
  135MOL0     H18184   1.748   6.973   1.010  0.7740 -0.5984  0.3895
  135MOL0     H18185   1.742   7.139   0.883 -2.6647 -2.1522  3.9717
  135MOL0     H18186   1.841   7.282   0.566  2.3630  0.8181  0.5499
  135MOL0     H18187   1.789   7.404   0.693  1.6739  0.7173 -1.2814
  135MOL0     H18188   1.886   7.269   0.728 -0.6507  1.8382 -1.5199
  135MOL0     H18189   1.334   7.272   0.162  1.0221 -0.5306  2.7583
  135MOL0     H18190   1.347   7.351  -0.049 -0.3066  1.6152  1.0090
  135MOL0     H18191   1.398   7.384  -0.289 -2.5865  0.7346  1.7754
  135MOL0     H18192   1.406   7.524  -0.187  1.0135  2.7964 -1.4422
  135MOL0     H18193   1.608   7.494  -0.407  0.7297  1.3240  1.6979
  135MOL0     H18194   1.455   7.545  -0.458 -1.4129  1.8843  0.2424
  135MOL0     H18195   1.636   7.694  -0.267  0.8531 -0.2177 -0.4908
  135MOL0     H18196   1.461   7.722  -0.282  0.1689 -3.1002  1.2767
  135MOL0     H18197   1.644   7.729  -0.534  2.4465  2.3248  0.7684
  135MOL0     H18198   1.469   7.764  -0.517  0.7769  1.1977  0.5207
  135MOL0     H18199   1.497   7.959  -0.408 -1.5231 -0.3546 -1.4906
  135MOL0     H18200   1.626   7.949  -0.529  1.0662 -0.6644  1.0644
  135MOL0     H18201   1.708   7.896  -0.241  0.0012  0.9632  0.5674
  135MOL0     H18202   1.802   7.890  -0.381 -1.2551 -2.9057 -0.5241
  135MOL0     H18203   1.642   8.153  -0.363  0.7227  2.3443  0.5582
  135MOL0     H18204   1.789   8.122  -0.430 -0.8489  0.5957  0.4798
  135MOL0     H18205   1.774   8.089  -0.128 -2.1044  1.9323 -0.7114
  135MOL0     H18206   1.815   8.242  -0.209  0.7506 -0.1125  1.5321
  135MOL0     H18207   1.770   7.386  -0.002 -1.9933  0.4760 -1.6155
  135MOL0     H18208   1.745   7.321   0.233 -1.3206 -1.3058  2.1415
  135MOL0     H18209   1.372   7.132   0.554 -2.8110 -0.4015  3.6330
  135MOL0     H18210   1.361   7.004   0.769  1.9268 -1.8793  4.3457
  135MOL0     H18211   0.851   7.474   0.447 -2.4305  1.1689 -0.9415
  135MOL0     H18212   0.778   7.579   0.239 -1.2482 -0.3777  5.8419
  135MOL0     H18213   0.812   7.733  -0.145  0.2026  0.3449  2.1918
  135MOL0     H18214   0.751   7.863  -0.327  6.0990  0.1043 -2.5042
  135MOL0     H18215   0.608   8.013  -0.461  0.2606  0.7310 -1.9658
  135MOL0     H18216   0.618   8.168  -0.515 -0.1496  0.6550  0.3859
  135MOL0     H18217   0.789   7.972  -0.609  3.4805 -1.8992  1.5316
  135MOL0     H18218   0.888   8.021  -0.477 -0.7965  0.1656  0.1154
  135MOL0     H18219   0.780   8.219  -0.679 -0.1836 -3.9720 -5.0114
  135MOL0     H18220   0.909   8.130  -0.729 -1.8084 -1.6546 -0.5213
  135MOL0     H18221   1.060   8.212  -0.544  0.0238  0.2524  2.8193
  135MOL0     H18222   0.902   8.273  -0.470 -4.0439  4.5231 -2.9788
  135MOL0     H18223   0.979   8.583  -0.734 -2.4689 -0.6691 -1.2070
  135MOL0     H18224   0.822   8.233  -0.098 -0.2065  0.0265  2.3094
  135MOL0     H18225   0.925   8.080   0.074 -1.8498 -0.7461  1.6413
  136MOL0     O18226   6.851   5.822   0.679  0.0101  0.8630 -0.7768
  136MOL0     C18227   6.941   5.898   0.715  0.2988  0.8205 -0.8100
  136MOL0     O18228   6.979   6.018   0.659 -0.2266 -0.1054  0.2251
  136MOL0     C18229   6.898   6.104   0.598  0.1689  0.1677 -0.3837
  136MOL0     C18230   6.947   6.181   0.490  0.1276  0.4316 -0.3385
  136MOL0     C18231   6.863   6.273   0.433  0.1104 -0.0141 -0.4062
  136MOL0     C18232   6.729   6.286   0.468  0.7956  0.7786  0.3871
  136MOL0     O18233   6.660   6.390   0.420  0.7194 -0.2798  0.2222
  136MOL0     C18234   6.520   6.350   0.397  0.5899  0.4096  0.6261
  136MOL0     C18235   6.438   6.479   0.360 -0.6556  0.4416  0.2994
  136MOL0     C18236   6.482   6.562   0.237 -0.3241  0.4330  0.3622
  136MOL0     C18237   6.418   6.702   0.269 -0.0028 -0.0886  0.2375
  136MOL0     C18238   6.525   6.808   0.271  0.4003 -0.2476 -0.6665
  136MOL0     C18239   6.485   6.946   0.332  0.9475 -0.5252 -0.7641
  136MOL0     C18240   6.596   7.062   0.337  0.1362  0.3515 -0.4435
  136MOL0     C18241   6.683   7.059   0.208  0.4278 -1.1832 -0.2274
  136MOL0     N18242   6.604   7.106   0.092  0.1433 -0.4148 -0.7409
  136MOL0     C18243   6.593   7.236   0.056 -0.1583  0.6067 -0.6976
  136MOL0     C18244   6.505   7.231  -0.051  0.1379 -0.6061  0.3462
  136MOL0     C18245   6.448   7.341  -0.140 -0.0520  0.7817 -0.3128
  136MOL0     C18246   6.512   7.349  -0.277  0.1025  0.8397  0.4136
  136MOL0     C18247   6.445   7.466  -0.358  0.7757 -0.3585  0.1101
  136MOL0     C18248   6.525   7.592  -0.332 -0.5186  0.4740 -0.0202
  136MOL0     O18249   6.480   7.710  -0.401 -0.0936  0.3033  0.0218
  136MOL0     C18250   6.538   7.753  -0.520 -0.4442  0.2502  0.6069
  136MOL0     C18251   6.496   7.880  -0.570 -0.5593  0.6421 -0.6481
  136MOL0     C18252   6.554   7.939  -0.681 -0.1633 -0.2245 -0.9826
  136MOL0     C18253   6.505   8.077  -0.731 -0.3316 -0.3376 -0.8865
  136MOL0     C18254   6.646   7.860  -0.745 -0.1457  0.1901 -0.1892
  136MOL0     C18255   6.708   7.896  -0.882  0.2672 -0.3911 -0.5180
  136MOL0     O18256   6.829   7.850  -0.902 -0.3741  0.3173 -0.0727
  136MOL0     C18257   6.913   7.905  -0.997 -0.3525 -0.2470 -0.6154
  136MOL0     C18258   6.963   8.041  -0.999 -1.0680  0.3521 -0.0115
  136MOL0     C18259   7.057   8.079  -1.096  0.6520  0.0076  0.2301
  136MOL0     C18260   7.102   7.987  -1.193  0.5468 -2.1150  0.5814
  136MOL0     O18261   7.193   8.029  -1.286 -0.6678  0.0657  0.3044
  136MOL0     C18262   7.161   8.108  -1.399  0.4826 -0.5432  0.7717
  136MOL0     C18263   7.074   8.027  -1.498  0.0117  0.3470 -0.4599
  136MOL0     C18264   6.999   8.110  -1.604  0.4840 -1.1505 -0.1354
  136MOL0     C18265   6.861   8.168  -1.542 -0.3715 -0.0693 -0.3455
  136MOL0     C18266   6.811   8.311  -1.582  0.7641  0.4302 -1.0408
  136MOL0     C18267   6.823   8.334  -1.731 -0.4778  0.1417 -0.0745
  136MOL0     C18268   6.789   8.475  -1.773  0.0035 -0.9595 -0.4094
  136MOL0     C18269   6.812   8.500  -1.926  0.1137 -0.9654 -0.1200
  136MOL0    Cl18270   6.794   8.676  -1.946 -0.1587 -0.3610 -0.5289
  136MOL0     C18271   7.061   7.854  -1.190 -0.6329 -0.2651 -0.3386
  136MOL0     C18272   6.965   7.819  -1.092  0.1310  0.8715 -0.1325
  136MOL0     O18273   6.646   7.960  -0.966 -0.1002 -0.1352  0.4946
  136MOL0     C18274   6.681   7.736  -0.709  0.3417  0.4013  0.3797
  136MOL0     C18275   6.636   7.678  -0.589 -0.4543 -0.4874  0.0057
  136MOL0     N18276   6.479   7.107  -0.089 -0.3271 -0.4971 -0.0087
  136MOL0     N18277   6.544   7.032  -0.006 -0.6049  0.3507 -0.4122
  136MOL0     C18278   6.671   6.197   0.566 -0.6723 -0.1544  0.3066
  136MOL0     C18279   6.762   6.116   0.640  0.1081 -0.0809 -0.1674
  136MOL0     C18280   7.026   5.854   0.835  0.3485 -0.6686  0.5977
  136MOL0     C18281   7.088   5.946   0.903 -0.2889  0.0087 -0.8388
  136MOL0     C18282   7.185   5.909   0.998 -0.6861 -0.0394 -0.4087
  136MOL0     C18283   7.219   5.774   1.015 -0.2746  0.8805 -0.2572
  136MOL0     O18284   7.313   5.735   1.105  0.8626  0.3187 -0.3291
  136MOL0     C18285   7.421   5.814   1.152 -0.4859 -0.4473  0.0043
  136MOL0     C18286   7.473   5.766   1.289  0.2782  0.9109 -0.0970
  136MOL0     C18287   7.367   5.815   1.398  0.2294  0.4455 -0.4610
  136MOL0     C18288   7.426   5.770   1.533 -0.5145  0.7046  0.3150
  136MOL0     C18289   7.558   5.814   1.571 -1.2631  0.7486  0.0458
  136MOL0     C18290   7.665   5.842   1.633  1.0657 -0.3546  0.8891
  136MOL0     C18291   7.154   5.674   0.933 -0.8085 -0.0375 -0.3596
  136MOL0     C18292   7.061   5.721   0.842 -0.8949 -0.2115  0.0408
  136MOL0     H18293   7.051   6.170   0.459  0.8671 -0.6529  2.2939
  136MOL0     H18294   6.892   6.344   0.356  0.4248  0.6665  0.3337
  136MOL0     H18295   6.514   6.267   0.326 -0.5922 -2.2995  3.6643
  136MOL0     H18296   6.466   6.306   0.481 -1.4926 -0.9176 -1.2976
  136MOL0     H18297   6.341   6.437   0.330  0.1805 -0.1136 -1.7829
  136MOL0     H18298   6.425   6.536   0.453 -0.4656 -0.3305  0.8060
  136MOL0     H18299   6.588   6.578   0.217 -0.6464  1.6531 -0.4972
  136MOL0     H18300   6.437   6.534   0.141 -0.8256  0.3819  0.6075
  136MOL0     H18301   6.348   6.729   0.190  1.3108  2.2300 -0.2101
  136MOL0     H18302   6.351   6.705   0.355 -1.0631  0.7505 -0.5914
  136MOL0     H18303   6.597   6.772   0.345  1.3360  1.5842 -0.6052
  136MOL0     H18304   6.583   6.815   0.178 -1.3354 -2.6655 -2.0612
  136MOL0     H18305   6.403   6.985   0.272  1.6377  0.8306 -0.8592
  136MOL0     H18306   6.438   6.932   0.430  2.7249  0.6286  0.3238
  136MOL0     H18307   6.551   7.161   0.348  0.9013  0.5521  1.1882
  136MOL0     H18308   6.646   7.040   0.431 -1.2803  0.2183  0.3102
  136MOL0     H18309   6.724   6.960   0.185 -0.8988 -1.7346 -0.3634
  136MOL0     H18310   6.777   7.111   0.227  0.5956 -1.9133  1.0951
  136MOL0     H18311   6.643   7.321   0.100 -3.3878  2.3379 -0.0330
  136MOL0     H18312   6.341   7.331  -0.157 -0.7523  4.2036  1.1415
  136MOL0     H18313   6.463   7.436  -0.088  1.0022 -0.1392  1.1395
  136MOL0     H18314   6.487   7.258  -0.333 -0.5640 -0.4838  2.7206
  136MOL0     H18315   6.619   7.372  -0.275 -0.1405  2.1297 -0.4950
  136MOL0     H18316   6.343   7.493  -0.330  0.5357  2.7002 -2.9686
  136MOL0     H18317   6.440   7.440  -0.464 -0.2142  0.6409 -0.1136
  136MOL0     H18318   6.633   7.581  -0.343 -0.4406  1.1716  0.0082
  136MOL0     H18319   6.521   7.605  -0.223  1.6090  5.2242 -0.2904
  136MOL0     H18320   6.415   7.933  -0.521 -1.8303 -1.4754 -0.3603
  136MOL0     H18321   6.457   8.122  -0.643 -1.0023  0.2054 -1.5138
  136MOL0     H18322   6.581   8.148  -0.764  0.5929 -1.5912 -1.4954
  136MOL0     H18323   6.425   8.060  -0.804 -0.3546 -2.6388 -0.4195
  136MOL0     H18324   6.922   8.112  -0.928  0.3966  0.9806  0.2344
  136MOL0     H18325   7.077   8.185  -1.108 -0.2070 -0.1039 -2.9749
  136MOL0     H18326   7.103   8.200  -1.381  0.4385 -0.1550 -1.0966
  136MOL0     H18327   7.253   8.137  -1.451 -1.2371  1.2935 -1.4765
  136MOL0     H18328   7.143   7.975  -1.565  2.2047  2.7602 -0.2285
  136MOL0     H18329   7.009   7.954  -1.448  1.7837 -2.4554 -1.9900
  136MOL0     H18330   6.984   8.046  -1.691 -1.8705 -2.6841  1.3074
  136MOL0     H18331   7.061   8.194  -1.636  0.7348 -1.5177 -0.6233
  136MOL0     H18332   6.791   8.093  -1.580  0.9241 -3.7045  3.6079
  136MOL0     H18333   6.855   8.154  -1.433  1.6053  0.5963 -0.1112
  136MOL0     H18334   6.851   8.387  -1.514  0.3790 -0.4155  0.1801
  136MOL0     H18335   6.705   8.307  -1.555  1.2379  0.1506  0.9888
  136MOL0     H18336   6.921   8.302  -1.768 -0.3875  0.7171 -0.3495
  136MOL0     H18337   6.745   8.272  -1.777  0.4628 -1.4954  0.4786
  136MOL0     H18338   6.853   8.543  -1.716 -3.0192  0.2423  1.8781
  136MOL0     H18339   6.690   8.503  -1.734 -0.0141 -1.9970  0.3036
  136MOL0     H18340   6.745   8.454  -2.000  0.3366  1.3752 -1.9067
  136MOL0     H18341   6.917   8.471  -1.941  0.7633  0.5998  1.1499
  136MOL0     H18342   7.095   7.779  -1.260 -1.3433  0.8520 -1.9262
  136MOL0     H18343   6.915   7.722  -1.093  1.1100  0.3539  0.0244
  136MOL0     H18344   6.745   7.674  -0.771 -1.1130  1.2721 -2.1455
  136MOL0     H18345   6.655   7.578  -0.551  0.2975 -0.5366 -0.4758
  136MOL0     H18346   6.566   6.188   0.590 -1.2785  0.5246 -1.8416
  136MOL0     H18347   6.720   6.058   0.721  0.4085 -4.9377 -3.1127
  136MOL0     H18348   7.065   6.052   0.897  0.8232  0.2627 -0.8977
  136MOL0     H18349   7.226   5.988   1.061  4.3164 -0.9941 -2.0137
  136MOL0     H18350   7.500   5.812   1.076  1.5567 -3.2133  1.9787
  136MOL0     H18351   7.390   5.919   1.160 -2.8756 -0.9432 -1.6788
  136MOL0     H18352   7.577   5.801   1.283  0.9647 -1.0826 -0.8601
  136MOL0     H18353   7.477   5.659   1.310 -1.6062  1.0910  1.4152
  136MOL0     H18354   7.273   5.760   1.400 -0.2754  1.3038 -0.1754
  136MOL0     H18355   7.346   5.923   1.394  1.4473  0.7917  1.1996
  136MOL0     H18356   7.428   5.662   1.549 -0.7191  0.6362 -0.1164
  136MOL0     H18357   7.360   5.819   1.605  3.5189  5.1795  1.5187
  136MOL0     H18358   7.745   5.874   1.697 -0.3151 -0.6174  2.8553
  136MOL0     H18359   7.182   5.570   0.945 -0.8376  0.1067  1.1593
  136MOL0     H18360   7.002   5.643   0.797 -2.5841  0.6625  0.6692
  137MOL0     O18361   1.072   1.553   3.994 -0.4226 -0.9999  0.3192
  137MOL0     C18362   1.193   1.548   3.959  0.7727 -0.4351  0.0220
  137MOL0     O18363   1.290   1.637   3.998 -0.3181 -0.0363 -0.3748
  137MOL0     C18364   1.250   1.736   4.082 -0.0583  0.6329  0.4803
  137MOL0     C18365   1.149   1.840   4.061 -0.5945 -0.0415  0.2575
  137MOL0     C18366   1.122   1.932   4.161  0.1978 -0.5408 -1.1330
  137MOL0     C18367   1.195   1.937   4.286 -0.0031 -0.5050  0.5211
  137MOL0     O18368   1.169   2.016   4.395 -0.1568 -0.0501  0.1919
  137MOL0     C18369   1.046   1.980   4.449  1.4506  0.6477  0.4368
  137MOL0     C18370   1.028   2.049   4.590 -0.1398  0.0036 -0.6458
  137MOL0     C18371   1.042   2.198   4.575  0.6360 -0.4897 -0.5242
  137MOL0     C18372   1.058   2.247   4.719 -0.4817  0.0689 -0.4899
  137MOL0     C18373   1.051   2.401   4.732  0.2207  0.7540  0.6477
  137MOL0     C18374   1.078   2.452   4.871  0.1420  0.6780 -0.3935
  137MOL0     C18375   1.049   2.361   4.994 -0.6148 -1.4077  0.6787
  137MOL0     C18376   1.048   2.463   5.110  0.2133 -1.0593  0.1069
  137MOL0     N18377   1.020   2.393   5.227 -0.9013  0.2542 -0.4151
  137MOL0     C18378   0.924   2.290   5.248  0.8097 -0.6255  0.0150
  137MOL0     C18379   0.944   2.235   5.366 -0.4492 -1.1043 -0.3829
  137MOL0     C18380   0.862   2.122   5.427  0.7616  0.7956  0.0569
  137MOL0     C18381   0.793   2.160   5.560 -0.1715  0.2035  0.1249
  137MOL0     C18382   0.737   2.055   5.647 -0.1415  0.0635  0.9785
  137MOL0     C18383   0.617   1.988   5.587 -0.0078  0.0222  0.6241
  137MOL0     O18384   0.529   1.949   5.683  0.3577 -0.8774  0.2563
  137MOL0     C18385   0.554   1.841   5.766  1.1359  0.6284 -0.4252
  137MOL0     C18386   0.470   1.816   5.876 -0.7070 -0.1154  0.0347
  137MOL0     C18387   0.497   1.705   5.969  0.0087  0.2577  0.4469
  137MOL0     C18388   0.389   1.682   6.066 -0.1720 -0.2035 -0.0150
  137MOL0     C18389   0.615   1.623   5.952  0.7588 -0.3966 -1.1807
  137MOL0     C18390   0.641   1.507   6.046 -0.4122 -0.2852  0.1106
  137MOL0     O18391   0.561   1.480   6.148 -0.1355  0.5647 -0.3786
  137MOL0     C18392   0.576   1.382   6.242 -1.0318 -0.6097  1.1904
  137MOL0     C18393   0.459   1.328   6.293 -0.0780  0.5109  0.3916
  137MOL0     C18394   0.464   1.214   6.371 -1.6958  0.4366  0.0203
  137MOL0     C18395   0.587   1.157   6.410  0.9423  0.1742 -1.3953
  137MOL0     O18396   0.596   1.039   6.481 -0.4200 -0.0762  0.3374
  137MOL0     C18397   0.486   0.986   6.559 -0.2346 -1.0906 -1.8327
  137MOL0     C18398   0.568   0.919   6.675  0.5829 -1.1798  0.3374
  137MOL0     C18399   0.644   0.786   6.636  0.2002 -0.4195  0.8377
  137MOL0     C18400   0.557   0.671   6.590  0.3552 -0.3375  0.8709
  137MOL0     C18401   0.651   0.541   6.575  0.2215  0.1482 -0.2467
  137MOL0     C18402   0.741   0.528   6.447  0.9881  0.2707  0.5533
  137MOL0     C18403   0.686   0.419   6.349  0.1365  0.5569  0.2291
  137MOL0     C18404   0.776   0.390   6.233 -0.0161 -0.0905 -0.1688
  137MOL0    Cl18405   0.938   0.338   6.275  0.0765 -0.1328 -0.0591
  137MOL0     C18406   0.705   1.219   6.368 -0.1269  1.0703 -0.8095
  137MOL0     C18407   0.706   1.323   6.271  0.9818 -0.4124  0.8947
  137MOL0     O18408   0.738   1.436   6.020  0.0576 -0.3957 -0.0844
  137MOL0     C18409   0.696   1.650   5.839 -0.2138  0.1886  0.2453
  137MOL0     C18410   0.664   1.757   5.746 -0.2233 -0.9895 -0.9422
  137MOL0     N18411   1.049   2.312   5.422  0.7425  0.4604  0.1350
  137MOL0     N18412   1.090   2.416   5.344 -0.3141 -0.5932 -0.2121
  137MOL0     C18413   1.313   1.857   4.295  0.7962  0.3140 -0.0241
  137MOL0     C18414   1.334   1.761   4.197  0.3124 -0.1345 -0.6074
  137MOL0     C18415   1.242   1.451   3.863  0.3334  0.8880  0.3158
  137MOL0     C18416   1.150   1.362   3.795  0.8658  0.3769 -0.6827
  137MOL0     C18417   1.202   1.276   3.695 -0.1300  0.1274  0.0865
  137MOL0     C18418   1.338   1.267   3.660 -0.1579  0.1278  0.1047
  137MOL0     O18419   1.381   1.176   3.565  0.2571  0.8742 -0.0027
  137MOL0     C18420   1.524   1.155   3.546  0.2986  0.3845 -0.3455
  137MOL0     C18421   1.584   1.080   3.666 -0.6593  0.2860 -0.4363
  137MOL0     C18422   1.529   0.933   3.685  0.7875 -0.3519  0.8403
  137MOL0     C18423   1.559   0.825   3.574 -0.6889  1.0495 -0.3131
  137MOL0     C18424   1.702   0.782   3.572  0.0594  0.5696 -0.4237
  137MOL0     C18425   1.816   0.754   3.582  0.6471  0.1266  0.7784
  137MOL0     C18426   1.418   1.356   3.734  0.2850  0.1218  1.1760
  137MOL0     C18427   1.371   1.447   3.830  0.5177 -0.5463 -0.2266
  137MOL0     H18428   1.080   1.835   3.977 -0.4592  1.0815  0.0662
  137MOL0     H18429   1.031   1.990   4.150  2.2262  3.5068  1.0734
  137MOL0     H18430   0.965   2.009   4.381  2.7343  0.9996 -0.9967
  137MOL0     H18431   1.052   1.872   4.467  0.8320  0.4388 -0.5451
  137MOL0     H18432   0.927   2.032   4.627  0.1152  1.6796  0.9274
  137MOL0     H18433   1.111   2.016   4.654  0.0743  1.3172 -0.2237
  137MOL0     H18434   1.133   2.226   4.522  0.4709  0.2641 -0.4292
  137MOL0     H18435   0.955   2.235   4.520 -0.3064 -1.2090  0.4523
  137MOL0     H18436   0.976   2.203   4.777 -0.6914  1.7979  0.6018
  137MOL0     H18437   1.148   2.221   4.774 -0.5796  3.1182  1.3797
  137MOL0     H18438   1.126   2.440   4.662 -0.2486  1.5659  0.5815
  137MOL0     H18439   0.955   2.434   4.691  0.9104  4.3254  1.5646
  137MOL0     H18440   1.184   2.477   4.879  0.5938 -1.3581  0.8489
  137MOL0     H18441   1.021   2.544   4.886  0.3178  0.4708  1.9887
  137MOL0     H18442   0.953   2.310   4.982 -0.9661 -0.4046 -1.2047
  137MOL0     H18443   1.134   2.294   5.003 -0.6853 -1.4656  0.9152
  137MOL0     H18444   0.977   2.545   5.101 -1.5807 -2.3230  1.8537
  137MOL0     H18445   1.144   2.513   5.122 -1.1263  1.3313  1.6824
  137MOL0     H18446   0.860   2.253   5.169  0.8923 -1.4866  0.3389
  137MOL0     H18447   0.798   2.082   5.348  3.1487 -2.0064 -0.6129
  137MOL0     H18448   0.933   2.041   5.446  1.7591  1.5864 -0.1909
  137MOL0     H18449   0.717   2.237   5.548 -1.8916 -1.6705 -1.7886
  137MOL0     H18450   0.876   2.205   5.614  0.6749 -1.3726  0.1959
  137MOL0     H18451   0.719   2.101   5.744 -0.8966  0.3144  0.7269
  137MOL0     H18452   0.812   1.979   5.669  2.0377  1.0888 -2.1179
  137MOL0     H18453   0.650   1.904   5.525  0.5892 -0.4607  1.5746
  137MOL0     H18454   0.562   2.061   5.527 -1.2041 -0.5977  0.9486
  137MOL0     H18455   0.380   1.877   5.881 -0.0893  0.9765 -1.3207
  137MOL0     H18456   0.415   1.685   6.173 -2.9485  1.6627  0.7174
  137MOL0     H18457   0.312   1.757   6.049 -1.0149 -0.4964  2.2061
  137MOL0     H18458   0.344   1.585   6.044 -1.1616  0.0893  0.6769
  137MOL0     H18459   0.368   1.361   6.245  1.5400  2.2139 -1.7200
  137MOL0     H18460   0.378   1.157   6.406  0.0192 -1.4704  1.3560
  137MOL0     H18461   0.420   1.062   6.601  1.6937 -0.4533  0.2543
  137MOL0     H18462   0.431   0.909   6.505 -0.6738  0.8953 -4.3957
  137MOL0     H18463   0.648   0.977   6.721 -0.9537  0.9386  0.4527
  137MOL0     H18464   0.500   0.898   6.758  1.0037 -2.5434  0.3771
  137MOL0     H18465   0.703   0.753   6.721  0.2361  1.1634  1.4672
  137MOL0     H18466   0.713   0.799   6.552  0.4947 -0.0859  1.1279
  137MOL0     H18467   0.481   0.649   6.666  1.8852 -3.3877  1.6784
  137MOL0     H18468   0.495   0.693   6.502  4.0985 -2.5335 -2.6974
  137MOL0     H18469   0.590   0.450   6.573  1.4451 -0.6862 -0.3103
  137MOL0     H18470   0.711   0.543   6.666  0.3289  0.4250 -0.3234
  137MOL0     H18471   0.755   0.618   6.386  0.2767 -0.0588 -0.0989
  137MOL0     H18472   0.842   0.504   6.482  0.7891  1.0006  1.6880
  137MOL0     H18473   0.585   0.454   6.327  0.7661  2.7601  0.5865
  137MOL0     H18474   0.672   0.324   6.402  1.0743  0.1400 -0.2402
  137MOL0     H18475   0.788   0.486   6.181  0.2447 -1.1173 -2.0854
  137MOL0     H18476   0.730   0.322   6.161 -0.2258  1.0233 -1.1057
  137MOL0     H18477   0.798   1.173   6.398 -0.5668  0.7662  0.1296
  137MOL0     H18478   0.802   1.357   6.233 -1.1890  2.0866 -2.9729
  137MOL0     H18479   0.777   1.581   5.820  0.7414  1.8038 -1.9899
  137MOL0     H18480   0.726   1.768   5.657 -1.2344 -0.1353 -1.5684
  137MOL0     H18481   1.369   1.853   4.387 -1.4130 -1.0305  1.3594
  137MOL0     H18482   1.416   1.692   4.216  0.8141  0.1484 -1.6953
  137MOL0     H18483   1.044   1.365   3.819  1.2992 -0.8829  1.7070
  137MOL0     H18484   1.139   1.213   3.631 -0.9676  2.0406 -1.0619
  137MOL0     H18485   1.548   1.120   3.445  2.1329 -0.0292  0.2067
  137MOL0     H18486   1.582   1.248   3.549  0.8142  0.0921 -0.9452
  137MOL0     H18487   1.579   1.132   3.762  1.6350  0.8333 -0.5612
  137MOL0     H18488   1.692   1.074   3.648 -0.5758 -1.2802  0.3898
  137MOL0     H18489   1.421   0.949   3.690  0.4722 -0.8865 -2.3218
  137MOL0     H18490   1.564   0.890   3.779 -0.7474 -0.0094  1.5878
  137MOL0     H18491   1.533   0.876   3.481  0.4868  0.0661 -1.2172
  137MOL0     H18492   1.501   0.736   3.598  3.2524 -1.3469  1.2516
  137MOL0     H18493   1.916   0.720   3.595  0.3301 -1.6744 -1.0154
  137MOL0     H18494   1.525   1.363   3.716 -0.3540  2.0283 -2.9354
  137MOL0     H18495   1.445   1.514   3.873 -1.2302  0.8102  0.8591
  138MOL0     O18496   2.100   9.413   2.785 -0.3229 -0.0971  1.6881
  138MOL0     C18497   2.186   9.375   2.706  0.1776  0.7930 -0.8463
  138MOL0     O18498   2.294   9.312   2.750  0.1329 -0.7837  0.3072
  138MOL0     C18499   2.322   9.344   2.879  0.5505 -0.1139 -0.2817
  138MOL0     C18500   2.386   9.463   2.916 -0.0574 -0.0952 -0.7615
  138MOL0     C18501   2.400   9.504   3.049  0.4342  0.5460 -0.6672
  138MOL0     C18502   2.369   9.412   3.152  1.1668 -0.1299  0.2432
  138MOL0     O18503   2.359   9.469   3.278  0.7307 -0.5067  0.4573
  138MOL0     C18504   2.346   9.401   3.403  0.1062  0.3509  0.5257
  138MOL0     C18505   2.219   9.377   3.486 -0.9606  0.3573 -0.6471
  138MOL0     C18506   2.092   9.324   3.414 -0.5609 -0.6984 -0.0882
  138MOL0     C18507   1.966   9.363   3.499  0.7924  0.0887  0.1718
  138MOL0     C18508   1.838   9.336   3.422  0.5576  0.3730  0.8318
  138MOL0     C18509   1.722   9.411   3.468  0.9822  0.2825  0.5162
  138MOL0     C18510   1.600   9.378   3.378  0.9313  1.0985 -0.7695
  138MOL0     C18511   1.612   9.448   3.237 -0.2976  0.9877  0.1643
  138MOL0     N18512   1.573   9.595   3.250  0.0715  0.1168  0.6752
  138MOL0     C18513   1.451   9.636   3.291 -0.0213  0.4711 -0.1611
  138MOL0     C18514   1.465   9.774   3.321 -0.4933  1.0187  0.5709
  138MOL0     C18515   1.354   9.867   3.353 -0.1178 -0.1116  0.7546
  138MOL0     C18516   1.320   9.855   3.497 -0.1125  0.2873 -0.9306
  138MOL0     C18517   1.448   9.882   3.591 -0.4889  0.3867 -0.1536
  138MOL0     C18518   1.407   9.897   3.744 -0.0642  0.4594  0.3814
  138MOL0     O18519   1.344   9.776   3.786 -0.4403  0.4757 -0.3804
  138MOL0     C18520   1.286   9.769   3.912 -0.2912 -0.6893  0.3653
  138MOL0     C18521   1.220   9.645   3.947 -0.2627  0.0232  0.8971
  138MOL0     C18522   1.181   9.615   4.077  1.0073  0.2270 -1.0822
  138MOL0     C18523   1.134   9.475   4.107  1.2327 -0.9865  1.4216
  138MOL0     C18524   1.192   9.717   4.178  0.2710  0.4050  0.3119
  138MOL0     C18525   1.140   9.697   4.313 -0.2292  0.7020  0.0633
  138MOL0     O18526   1.112   9.808   4.382 -0.9049 -0.5506  1.0426
  138MOL0     C18527   1.063   9.810   4.506  0.2901 -0.1113  0.3785
  138MOL0     C18528   1.002   9.718   4.598  0.4364  0.6451 -0.4980
  138MOL0     C18529   0.990   9.746   4.732  0.0814 -0.1437 -0.4867
  138MOL0     C18530   1.033   9.871   4.777 -0.0336 -0.0307 -0.6217
  138MOL0     O18531   1.050   9.900   4.913  0.3171  0.0783  0.1198
  138MOL0     C18532   0.959   9.843   5.006 -0.1609 -0.1074 -0.0340
  138MOL0     C18533   0.872   9.945   5.077  0.4289 -0.4736  0.4685
  138MOL0     C18534   0.750   9.983   4.987 -0.3948  0.6378 -0.0086
  138MOL0     C18535   0.630  10.036   5.069 -0.7736  0.1633  0.0357
  138MOL0     C18536   0.542  10.116   4.983  0.3184  0.3662 -0.1186
  138MOL0     C18537   0.412  10.154   5.056  0.1077  0.4222  0.0533
  138MOL0     C18538   0.291  10.148   4.953 -1.1265 -0.4572 -0.1820
  138MOL0     C18539   0.161  10.175   5.027 -1.5418  0.0700  0.3625
  138MOL0    Cl18540   0.096  10.014   5.054  0.0415  0.1209  0.0925
  138MOL0     C18541   1.061   9.970   4.689  0.3286  0.2188 -0.8764
  138MOL0     C18542   1.077   9.936   4.557 -0.2628  0.0435  0.3257
  138MOL0     O18543   1.124   9.583   4.360 -0.2053  0.6256 -0.5957
  138MOL0     C18544   1.255   9.841   4.146  0.9900 -0.1459  0.4041
  138MOL0     C18545   1.305   9.861   4.013  0.2645  0.8186  0.2752
  138MOL0     N18546   1.596   9.802   3.287  0.1952  0.1392 -1.1233
  138MOL0     N18547   1.662   9.696   3.252 -0.3339 -0.1239  0.6819
  138MOL0     C18548   2.301   9.296   3.105  1.3851  0.6355  0.3841
  138MOL0     C18549   2.276   9.262   2.978 -0.4007 -0.1111  0.1117
  138MOL0     C18550   2.156   9.373   2.555  0.7873 -0.4430  0.7788
  138MOL0     C18551   2.037   9.435   2.503  0.9400  0.9731 -0.0403
  138MOL0     C18552   1.986   9.417   2.368 -0.5444 -0.4690 -0.3846
  138MOL0     C18553   2.071   9.366   2.276  0.2599 -0.2138  0.5526
  138MOL0     O18554   2.033   9.365   2.144  0.7320 -0.5381  0.5964
  138MOL0     C18555   2.074   9.264   2.055 -0.4893 -0.0922 -0.4880
  138MOL0     C18556   2.006   9.287   1.925 -0.0994 -1.1480 -0.3735
  138MOL0     C18557   1.894   9.189   1.908 -0.1315  0.5338 -0.0115
  138MOL0     C18558   1.935   9.037   1.880  0.0430 -0.2385 -1.2635
  138MOL0     C18559   1.984   9.020   1.743 -0.0864 -0.5682 -0.3007
  138MOL0     C18560   2.002   9.029   1.624  0.5973 -0.1536  0.3704
  138MOL0     C18561   2.197   9.313   2.326  0.1321  0.5913  0.3621
  138MOL0     C18562   2.238   9.307   2.459  0.2401  0.6863  0.6503
  138MOL0     H18563   2.445   9.516   2.841  2.4801  1.2523  1.9559
  138MOL0     H18564   2.443   9.599   3.079  2.1091 -0.0265 -1.1355
  138MOL0     H18565   2.377   9.298   3.385 -0.1004  0.5800 -1.3021
  138MOL0     H18566   2.426   9.445   3.464 -0.8590 -0.8795  2.8334
  138MOL0     H18567   2.248   9.298   3.555 -2.3847  1.8462  1.7822
  138MOL0     H18568   2.201   9.466   3.547  1.8236  0.0831  0.6997
  138MOL0     H18569   2.092   9.393   3.328  0.7455 -1.0625 -0.4030
  138MOL0     H18570   2.096   9.219   3.383 -1.8927 -0.4384 -1.3087
  138MOL0     H18571   1.979   9.295   3.584  4.3875 -0.6660 -0.8191
  138MOL0     H18572   1.967   9.461   3.546  3.3518  0.3525 -0.2794
  138MOL0     H18573   1.843   9.353   3.314  0.9153  0.4871  0.8656
  138MOL0     H18574   1.816   9.229   3.420  1.2881  0.2029  1.5377
  138MOL0     H18575   1.707   9.378   3.571  2.6794 -2.3091  0.0234
  138MOL0     H18576   1.745   9.517   3.452 -1.9765  0.7956 -1.1488
  138MOL0     H18577   1.603   9.270   3.358 -1.6437  1.2778 -2.7722
  138MOL0     H18578   1.508   9.405   3.431  1.6006 -0.2817  1.2102
  138MOL0     H18579   1.536   9.405   3.171 -1.3322 -0.5570  2.2566
  138MOL0     H18580   1.713   9.443   3.194  1.3286 -1.2196  3.7578
  138MOL0     H18581   1.360   9.581   3.269 -0.3271  0.7618  0.3628
  138MOL0     H18582   1.392   9.967   3.328 -1.3537  0.1802 -0.0520
  138MOL0     H18583   1.271   9.845   3.286 -1.0358  2.8934  0.7658
  138MOL0     H18584   1.274   9.758   3.517 -0.7236 -0.3740 -4.7748
  138MOL0     H18585   1.239   9.923   3.527 -0.8658 -1.8502  2.4608
  138MOL0     H18586   1.495   9.977   3.562  2.3683 -0.6196  0.7820
  138MOL0     H18587   1.526   9.805   3.592  1.0200  1.7980  2.2380
  138MOL0     H18588   1.340   9.983   3.752  0.6381  1.1326 -0.7206
  138MOL0     H18589   1.493   9.909   3.811 -1.0196 -0.1078  1.7450
  138MOL0     H18590   1.210   9.569   3.871 -0.6980 -0.5624  1.5290
  138MOL0     H18591   1.199   9.414   4.171  0.6177 -0.3266  2.7212
  138MOL0     H18592   1.036   9.477   4.156  0.3748 -1.0974 -0.2176
  138MOL0     H18593   1.106   9.426   4.014 -2.2011  1.5076  0.9501
  138MOL0     H18594   0.989   9.616   4.564 -1.5801  0.3392  1.0405
  138MOL0     H18595   0.961   9.664   4.798  0.5314  1.6852  2.1381
  138MOL0     H18596   0.902   9.760   4.964 -0.0931 -0.7879  1.1847
  138MOL0     H18597   1.029   9.793   5.073 -0.8750 -2.4511 -0.9247
  138MOL0     H18598   0.848   9.906   5.177  1.2011  0.1857  0.9250
  138MOL0     H18599   0.929  10.036   5.097  0.3633  0.0851 -1.6688
  138MOL0     H18600   0.701   9.904   4.929 -5.0228  1.7185  1.9149
  138MOL0     H18601   0.781  10.055   4.912  0.8124 -0.6980 -0.8364
  138MOL0     H18602   0.584   9.941   5.096 -0.2658 -0.8621 -2.4028
  138MOL0     H18603   0.660  10.090   5.159  1.3429 -2.1563  0.8313
  138MOL0     H18604   0.507  10.044   4.910 -1.7369 -0.9339  2.0191
  138MOL0     H18605   0.592  10.203   4.939 -0.6995  1.5285  0.9443
  138MOL0     H18606   0.404  10.090   5.144  1.7747  1.6667  1.1625
  138MOL0     H18607   0.425  10.256   5.092 -0.8806  0.8576 -0.7572
  138MOL0     H18608   0.287  10.050   4.905 -2.5698 -0.8912  0.7170
  138MOL0     H18609   0.318  10.226   4.882  2.0463 -1.0071  0.2723
  138MOL0     H18610   0.091  10.247   4.983 -1.6624 -0.0873  0.2934
  138MOL0     H18611   0.195  10.220   5.121 -2.1495  1.2086  0.0586
  138MOL0     H18612   1.091  10.063   4.736  1.5322 -1.5972  2.2617
  138MOL0     H18613   1.111  10.013   4.489  1.2481 -0.5367  0.3794
  138MOL0     H18614   1.260   9.907   4.232 -1.1792 -1.2731  1.4670
  138MOL0     H18615   1.350   9.958   3.992  2.6413 -0.4954 -1.1585
  138MOL0     H18616   2.252   9.225   3.170  0.3794 -0.2913 -1.3159
  138MOL0     H18617   2.224   9.170   2.956 -0.0981 -0.1788 -0.3168
  138MOL0     H18618   1.977   9.482   2.581  2.9579 -1.6039  3.3194
  138MOL0     H18619   1.907   9.486   2.345  1.7575  1.4089 -3.4426
  138MOL0     H18620   2.182   9.272   2.043 -0.0073 -0.0381  2.8560
  138MOL0     H18621   2.049   9.173   2.110 -3.1998  1.7638  1.6585
  138MOL0     H18622   2.074   9.292   1.839  1.9068  1.0764  1.1971
  138MOL0     H18623   1.969   9.390   1.929  2.9470  0.0684 -0.5667
  138MOL0     H18624   1.843   9.237   1.824 -0.6838  1.0756  0.6138
  138MOL0     H18625   1.841   9.197   2.004  2.6585 -0.5150  1.7342
  138MOL0     H18626   1.842   8.980   1.881 -0.8477  1.0358  1.4391
  138MOL0     H18627   2.015   8.997   1.943 -1.5124 -0.9077  0.4079
  138MOL0     H18628   2.026   9.033   1.519 -1.3159 -5.6818 -0.6451
  138MOL0     H18629   2.270   9.278   2.253 -3.1498 -1.1759 -2.3560
  138MOL0     H18630   2.322   9.247   2.493  0.0238 -0.0579 -0.1135
  139MOL0     O18631   8.256   9.467   3.818  0.7434 -0.2680  1.0184
  139MOL0     C18632   8.351   9.439   3.894  0.0664 -0.6654 -0.1211
  139MOL0     O18633   8.368   9.503   4.010 -0.6112  0.4187 -0.4178
  139MOL0     C18634   8.288   9.605   4.044  1.1521 -0.0112 -0.6326
  139MOL0     C18635   8.290   9.736   3.982  0.7491  0.2247  0.3696
  139MOL0     C18636   8.206   9.839   4.032  0.1876 -0.8393 -0.0164
  139MOL0     C18637   8.119   9.814   4.139  0.0612 -0.6187  0.4420
  139MOL0     O18638   8.039   9.899   4.193  0.4412  0.4265 -0.1082
  139MOL0     C18639   8.016  10.023   4.124 -0.8387 -0.2542  0.5824
  139MOL0     C18640   7.890  10.092   4.162  1.1086 -0.4331 -0.6815
  139MOL0     C18641   7.759  10.028   4.091 -1.4839  0.3070 -0.9295
  139MOL0     C18642   7.740  10.093   3.950 -0.1885  0.9484  0.2626
  139MOL0     C18643   7.663   9.999   3.860  0.1078 -0.2493 -0.3108
  139MOL0     C18644   7.654  10.060   3.714  0.0310  0.2927  0.1390
  139MOL0     C18645   7.516  10.070   3.650  0.3926 -0.0124 -0.3969
  139MOL0     C18646   7.424  10.154   3.746  0.9285  0.2681 -0.3130
  139MOL0     N18647   7.300  10.191   3.665 -0.0472 -0.3233  0.2435
  139MOL0     C18648   7.302  10.266   3.546  0.4875  0.1408 -0.1657
  139MOL0     C18649   7.168  10.288   3.516 -0.4881  0.3146 -0.0089
  139MOL0     C18650   7.126  10.373   3.412  0.3260 -0.7321  0.0840
  139MOL0     C18651   7.050  10.497   3.472 -0.0725  0.1771  0.6883
  139MOL0     C18652   6.919  10.467   3.551  0.4193  0.8700  0.2539
  139MOL0     C18653   6.832  10.590   3.591 -0.0902  0.3360 -0.6035
  139MOL0     O18654   6.756  10.553   3.701  0.1427 -0.9698 -0.0267
  139MOL0     C18655   6.647  10.471   3.690  0.5528 -0.4060 -0.5734
  139MOL0     C18656   6.656  10.334   3.715  0.6987 -0.6799  0.4563
  139MOL0     C18657   6.554  10.245   3.700 -0.2027 -0.0201 -0.2527
  139MOL0     C18658   6.586  10.106   3.755 -0.5460  0.3618 -0.5639
  139MOL0     C18659   6.429  10.291   3.652 -0.4752 -0.2991  0.3333
  139MOL0     C18660   6.308  10.207   3.636  0.4178  0.2171 -0.0359
  139MOL0     O18661   6.291  10.090   3.700 -0.1094  0.4924 -0.9344
  139MOL0     C18662   6.177  10.013   3.674 -0.1672  0.3074 -0.0289
  139MOL0     C18663   6.078   9.998   3.772  0.0830 -0.2399  0.8580
  139MOL0     C18664   5.964   9.925   3.742 -0.3290  0.0271 -0.2103
  139MOL0     C18665   5.938   9.870   3.614 -0.0290  0.7695  0.5580
  139MOL0     O18666   5.822   9.791   3.594 -0.8530  0.1595  0.4524
  139MOL0     C18667   5.695   9.826   3.655  1.0792 -0.0029  0.5735
  139MOL0     C18668   5.607   9.702   3.640 -0.2645  0.4945  0.5010
  139MOL0     C18669   5.658   9.571   3.697 -1.3305  0.5040  0.3858
  139MOL0     C18670   5.547   9.465   3.695  0.3409 -0.7200 -0.9230
  139MOL0     C18671   5.598   9.345   3.762 -0.4317  0.1588 -0.3013
  139MOL0     C18672   5.613   9.359   3.911  0.0669 -0.4993 -0.0078
  139MOL0     C18673   5.673   9.241   3.988 -0.6767 -0.0492 -0.4411
  139MOL0     C18674   5.613   9.097   3.968  1.0606  0.2987 -0.2600
  139MOL0    Cl18675   5.437   9.119   3.958 -0.2265  0.2151 -0.2552
  139MOL0     C18676   6.040   9.882   3.516  0.4611  0.0877  0.3490
  139MOL0     C18677   6.149   9.957   3.550  0.4339  0.8908 -0.0330
  139MOL0     O18678   6.213  10.255   3.576 -0.0618 -0.2553 -0.7173
  139MOL0     C18679   6.415  10.432   3.630  0.3738 -0.7591  0.6665
  139MOL0     C18680   6.521  10.523   3.663  0.8504  0.3316  0.3948
  139MOL0     N18681   7.096  10.215   3.606  0.1042  0.1499 -0.0838
  139MOL0     N18682   7.172  10.162   3.699 -0.4625 -0.0077 -0.0061
  139MOL0     C18683   8.119   9.685   4.200  0.2739 -0.3705  0.1884
  139MOL0     C18684   8.198   9.585   4.154  0.0755 -0.4376  0.2415
  139MOL0     C18685   8.452   9.354   3.835  0.0237 -0.7910  0.7459
  139MOL0     C18686   8.424   9.293   3.716 -0.1024  0.8589 -0.1622
  139MOL0     C18687   8.521   9.212   3.655 -0.0671  0.0690 -0.4586
  139MOL0     C18688   8.645   9.201   3.716  0.3263 -0.2229 -0.0895
  139MOL0     O18689   8.751   9.143   3.647 -0.3370 -0.1478 -0.3833
  139MOL0     C18690   8.725   9.036   3.548 -0.2665 -0.3456  0.4964
  139MOL0     C18691   8.854   8.973   3.504  0.0366 -0.6039 -0.0831
  139MOL0     C18692   8.963   9.073   3.481 -0.8005  0.1239  0.2913
  139MOL0     C18693   9.090   8.990   3.432 -0.0283 -0.1186  0.8554
  139MOL0     C18694   9.198   9.089   3.415 -0.8960  0.8170  0.6317
  139MOL0     C18695   9.295   9.155   3.397  1.0481  0.0953 -0.4290
  139MOL0     C18696   8.670   9.254   3.848 -0.4007  0.0640 -0.4262
  139MOL0     C18697   8.577   9.344   3.905 -1.0414  0.2780  0.8737
  139MOL0     H18698   8.359   9.758   3.901  2.2783  1.6093  1.9703
  139MOL0     H18699   8.219   9.937   3.987 -0.9142  0.3854  2.1739
  139MOL0     H18700   8.093  10.099   4.142 -2.9331  2.0853  0.2645
  139MOL0     H18701   8.014  10.012   4.016  0.9377  3.9526 -0.0684
  139MOL0     H18702   7.880  10.101   4.271  0.6828  2.1808 -0.8648
  139MOL0     H18703   7.888  10.194   4.124  1.2450 -0.6219 -1.1973
  139MOL0     H18704   7.766   9.919   4.085 -0.4442  0.2800  0.4803
  139MOL0     H18705   7.683  10.045   4.168  0.1794  1.5169  0.5272
  139MOL0     H18706   7.687  10.189   3.954  0.0083  1.3046 -2.8950
  139MOL0     H18707   7.831  10.125   3.898 -0.2872 -0.3076 -0.7406
  139MOL0     H18708   7.699   9.896   3.871 -3.3807 -1.5170  0.6505
  139MOL0     H18709   7.560   9.994   3.898  0.9099  2.1233  2.4502
  139MOL0     H18710   7.701  10.159   3.720  0.8032 -0.1358  3.0013
  139MOL0     H18711   7.727   9.999   3.660 -2.5784 -1.5615 -1.5017
  139MOL0     H18712   7.520  10.114   3.550 -1.8031  4.1804  1.1380
  139MOL0     H18713   7.469   9.971   3.644 -3.1541  1.5156 -0.1095
  139MOL0     H18714   7.473  10.247   3.775  0.6648  0.4888 -0.5637
  139MOL0     H18715   7.422  10.107   3.845  4.1726  0.3071 -0.1397
  139MOL0     H18716   7.386  10.299   3.486  1.5832  1.4343  1.9415
  139MOL0     H18717   7.201  10.405   3.339 -2.7309  0.0198 -2.9915
  139MOL0     H18718   7.054  10.321   3.348 -0.3505  2.0530 -1.6058
  139MOL0     H18719   7.028  10.568   3.391 -1.7946 -1.4774 -0.3786
  139MOL0     H18720   7.115  10.538   3.549  1.7820 -2.5532  0.6895
  139MOL0     H18721   6.945  10.428   3.650 -1.8273  0.3933  0.7190
  139MOL0     H18722   6.867  10.394   3.489 -0.3574  1.8571 -0.2855
  139MOL0     H18723   6.768  10.618   3.506 -0.5737 -1.7872 -1.0008
  139MOL0     H18724   6.901  10.673   3.608  2.5363 -1.8751  0.2861
  139MOL0     H18725   6.750  10.302   3.760 -0.6005 -0.8710  3.2138
  139MOL0     H18726   6.677  10.081   3.811 -1.9840 -1.5518  1.0933
  139MOL0     H18727   6.522  10.072   3.838  2.8603  0.8624  2.5229
  139MOL0     H18728   6.579  10.040   3.669  2.2639  2.6053 -2.7060
  139MOL0     H18729   6.103  10.033   3.871 -1.9501 -3.1834  2.5651
  139MOL0     H18730   5.896   9.911   3.825  1.0384 -1.1490  0.7483
  139MOL0     H18731   5.698   9.862   3.758  1.1312 -3.5514  1.9473
  139MOL0     H18732   5.648   9.905   3.594  0.2518  0.7094  2.0696
  139MOL0     H18733   5.517   9.724   3.698 -0.7542 -0.4065  0.1200
  139MOL0     H18734   5.572   9.680   3.538 -3.2447  2.6848  0.9242
  139MOL0     H18735   5.698   9.593   3.796 -2.7869  1.2699  0.8403
  139MOL0     H18736   5.742   9.540   3.635 -1.1351 -0.6464  1.2127
  139MOL0     H18737   5.445   9.480   3.732 -0.1372 -1.4766 -1.8736
  139MOL0     H18738   5.539   9.453   3.586  2.1677  1.5920 -1.3836
  139MOL0     H18739   5.687   9.303   3.714  0.2357 -0.1355  1.1387
  139MOL0     H18740   5.524   9.264   3.760 -0.9763  0.6606 -2.4288
  139MOL0     H18741   5.670   9.443   3.953  0.3312 -2.2079  3.3597
  139MOL0     H18742   5.511   9.375   3.948  0.3136  1.1924  0.0373
  139MOL0     H18743   5.655   9.261   4.094  4.0358  0.3545  0.4955
  139MOL0     H18744   5.782   9.232   3.986 -0.5517  1.2569 -1.3489
  139MOL0     H18745   5.645   9.033   4.051  0.3596 -0.2575 -0.4137
  139MOL0     H18746   5.659   9.058   3.876 -0.2118  1.1629 -1.2925
  139MOL0     H18747   6.036   9.848   3.413  1.7178 -1.7509  0.8443
  139MOL0     H18748   6.230   9.965   3.477  0.1778 -1.1683 -0.5963
  139MOL0     H18749   6.321  10.474   3.595  0.2835 -0.3990  1.3365
  139MOL0     H18750   6.509  10.631   3.652  0.7315  0.3064  0.2813
  139MOL0     H18751   8.058   9.683   4.290  2.6953  0.9133  1.9795
  139MOL0     H18752   8.192   9.488   4.200 -2.8170  1.5524  4.7138
  139MOL0     H18753   8.324   9.298   3.673 -0.4530 -0.3287  0.4908
  139MOL0     H18754   8.485   9.188   3.555 -1.1067  3.8210 -1.1436
  139MOL0     H18755   8.645   8.962   3.564 -0.9027 -0.4804 -2.6625
  139MOL0     H18756   8.695   9.076   3.450 -2.2096 -0.6158  0.9471
  139MOL0     H18757   8.833   8.916   3.412  1.2836  1.1042 -1.4931
  139MOL0     H18758   8.887   8.896   3.575  2.2196 -1.8067 -2.2266
  139MOL0     H18759   8.976   9.135   3.570  1.2132  0.8084 -0.4308
  139MOL0     H18760   8.930   9.136   3.398  0.0093 -2.7334 -2.3799
  139MOL0     H18761   9.071   8.941   3.336  0.6749  1.3779 -0.0915
  139MOL0     H18762   9.117   8.910   3.501  1.6919 -1.6148 -1.4059
  139MOL0     H18763   9.377   9.220   3.377 -0.4222  1.0350 -3.9990
  139MOL0     H18764   8.764   9.241   3.901 -0.6311  0.4558  0.0869
  139MOL0     H18765   8.596   9.410   3.989  3.3047 -0.2264  0.5169
  140MOL0     O18766   1.343   6.814   5.390  0.6387  0.0287  0.3745
  140MOL0     C18767   1.242   6.894   5.390  0.4591  0.4682 -0.4368
  140MOL0     O18768   1.109   6.863   5.403 -0.6276 -0.2180 -0.0745
  140MOL0     C18769   1.065   6.731   5.419 -0.6245  0.4446 -0.1610
  140MOL0     C18770   0.954   6.685   5.340  0.3925  0.8158  0.1532
  140MOL0     C18771   0.904   6.561   5.377 -0.4895  0.5109 -0.0441
  140MOL0     C18772   0.949   6.485   5.488  0.1198 -0.1039  0.3235
  140MOL0     O18773   0.907   6.357   5.507 -0.2771 -0.5062 -0.6439
  140MOL0     C18774   0.760   6.344   5.502 -0.9257 -0.3342 -0.7413
  140MOL0     C18775   0.728   6.213   5.562 -0.8991  0.7755  0.1546
  140MOL0     C18776   0.789   6.085   5.494 -0.7613 -0.0259 -0.7239
  140MOL0     C18777   0.700   5.961   5.530  0.3318  0.7169 -0.9147
  140MOL0     C18778   0.758   5.829   5.482 -0.5750 -0.1918  0.5835
  140MOL0     C18779   0.858   5.783   5.587 -0.4675 -0.1763  1.1001
  140MOL0     C18780   0.947   5.665   5.524 -0.8910 -0.4853  0.4882
  140MOL0     C18781   1.066   5.646   5.612  0.2247 -0.7599  0.4362
  140MOL0     N18782   1.023   5.581   5.732  1.0353 -0.2485 -0.1302
  140MOL0     C18783   1.012   5.443   5.754 -0.4210 -1.2905  0.8196
  140MOL0     C18784   0.966   5.428   5.878 -0.3475 -0.4607  0.1844
  140MOL0     C18785   0.928   5.298   5.946  0.3356 -0.9042 -0.4178
  140MOL0     C18786   1.036   5.210   5.999 -0.0209 -0.1782  0.2531
  140MOL0     C18787   1.116   5.269   6.106  0.1742 -0.0053 -0.3244
  140MOL0     C18788   1.193   5.155   6.172 -0.2596  0.9275 -0.8326
  140MOL0     O18789   1.304   5.206   6.249 -0.4079 -0.3889 -0.2067
  140MOL0     C18790   1.420   5.137   6.213 -0.2816 -0.1412  0.1898
  140MOL0     C18791   1.489   5.178   6.101  0.3875 -0.5439 -0.3092
  140MOL0     C18792   1.607   5.123   6.054 -1.2141 -0.2672 -0.2155
  140MOL0     C18793   1.680   5.202   5.949 -0.0438 -0.7447 -0.9057
  140MOL0     C18794   1.653   5.000   6.118  0.5242 -0.0259 -0.2049
  140MOL0     C18795   1.773   4.924   6.068  1.0772  1.3414 -0.1289
  140MOL0     O18796   1.861   4.981   5.983  1.1959 -0.7572  0.2229
  140MOL0     C18797   1.960   4.901   5.917  0.4189 -0.6337  0.5560
  140MOL0     C18798   2.055   4.834   5.997 -0.4344 -0.4312 -0.2544
  140MOL0     C18799   2.142   4.746   5.928  1.0717 -0.0898 -0.3592
  140MOL0     C18800   2.140   4.736   5.794  0.1973  0.1410  0.8492
  140MOL0     O18801   2.227   4.658   5.720 -0.0938 -0.2572  0.3292
  140MOL0     C18802   2.368   4.691   5.754  0.5363  0.1953  0.8342
  140MOL0     C18803   2.411   4.809   5.669 -0.1164  0.4237 -0.6078
  140MOL0     C18804   2.557   4.833   5.687  0.1109  0.3325  0.6555
  140MOL0     C18805   2.595   4.963   5.609 -0.3254  0.9384  0.3421
  140MOL0     C18806   2.743   5.001   5.618  0.1311  0.1018  0.1677
  140MOL0     C18807   2.786   5.124   5.540  0.4248  0.0168 -0.9349
  140MOL0     C18808   2.926   5.181   5.553 -0.5494  0.3107  0.4223
  140MOL0     C18809   2.923   5.332   5.577 -0.4280  0.3942 -0.9244
  140MOL0    Cl18810   2.848   5.413   5.435  0.7164 -0.7506  0.1037
  140MOL0     C18811   2.049   4.802   5.716  0.7999 -0.1003 -0.2469
  140MOL0     C18812   1.951   4.885   5.776 -0.4500  0.4516 -1.6526
  140MOL0     O18813   1.774   4.806   6.094 -0.6288  0.2502 -0.4794
  140MOL0     C18814   1.580   4.955   6.234  0.0031  0.1483 -0.5236
  140MOL0     C18815   1.461   5.019   6.275 -0.6312 -0.2877 -0.6475
  140MOL0     N18816   0.954   5.552   5.935 -0.1137  0.3803 -0.1963
  140MOL0     N18817   0.987   5.644   5.850  0.6310  1.0016  0.0790
  140MOL0     C18818   1.057   6.530   5.553 -0.1058  0.8438 -0.1621
  140MOL0     C18819   1.113   6.647   5.523  0.3141  0.2509 -0.1429
  140MOL0     C18820   1.278   7.034   5.357 -0.0555  0.5187 -0.9912
  140MOL0     C18821   1.395   7.092   5.406  0.0090 -0.2457  0.9596
  140MOL0     C18822   1.430   7.224   5.363 -0.0533  0.2049 -0.9354
  140MOL0     C18823   1.349   7.291   5.275 -0.2737  0.0098 -0.0684
  140MOL0     O18824   1.389   7.414   5.239  0.2264 -0.8855 -0.2802
  140MOL0     C18825   1.309   7.501   5.165  0.3405  0.0980  0.2176
  140MOL0     C18826   1.390   7.621   5.129 -0.5359  0.0635  0.4078
  140MOL0     C18827   1.389   7.713   5.249 -0.0490 -0.2861  0.1267
  140MOL0     C18828   1.412   7.856   5.214 -1.0350 -0.9060  0.1661
  140MOL0     C18829   1.448   7.931   5.338  0.2167  0.9935  0.0952
  140MOL0     C18830   1.479   7.988   5.440  0.2113  0.6252  0.2551
  140MOL0     C18831   1.225   7.238   5.233 -0.0262 -0.3942  0.8698
  140MOL0     C18832   1.193   7.110   5.269 -1.4808 -0.1871 -0.5945
  140MOL0     H18833   0.912   6.738   5.255 -0.3486 -1.3568 -0.9103
  140MOL0     H18834   0.825   6.519   5.315  0.6580  0.4522 -1.5128
  140MOL0     H18835   0.711   6.427   5.553 -1.5165 -0.2158 -1.4853
  140MOL0     H18836   0.732   6.354   5.396 -2.2442 -0.8695 -0.4568
  140MOL0     H18837   0.767   6.218   5.664 -1.5048 -0.8826  0.5003
  140MOL0     H18838   0.621   6.193   5.567 -0.3799 -2.3680  0.2248
  140MOL0     H18839   0.812   6.088   5.387  0.0019  0.8559 -0.5418
  140MOL0     H18840   0.889   6.069   5.536 -0.6624  0.7273 -0.6493
  140MOL0     H18841   0.683   5.960   5.638  0.6402  3.7932 -0.7333
  140MOL0     H18842   0.604   5.977   5.479 -0.7427 -1.4275  0.3005
  140MOL0     H18843   0.681   5.753   5.468 -0.3427 -0.6552  1.6714
  140MOL0     H18844   0.792   5.845   5.379 -0.5012 -1.6884  0.3550
  140MOL0     H18845   0.922   5.863   5.626  0.3260  0.7854 -1.8798
  140MOL0     H18846   0.803   5.749   5.675 -3.7083  2.5341  0.3253
  140MOL0     H18847   0.888   5.573   5.518 -0.5268 -0.8021  1.4362
  140MOL0     H18848   0.983   5.697   5.426 -0.9971  2.3585  1.3022
  140MOL0     H18849   1.112   5.744   5.631  1.3624 -1.0135 -0.8718
  140MOL0     H18850   1.132   5.570   5.571 -0.6083 -2.3285  1.8622
  140MOL0     H18851   1.042   5.363   5.688 -0.7880  0.0727 -1.0941
  140MOL0     H18852   0.860   5.328   6.025  2.7989 -0.2476  1.5929
  140MOL0     H18853   0.866   5.249   5.870 -2.3947  2.3263 -0.5139
  140MOL0     H18854   1.097   5.173   5.916  0.0387 -0.8259  0.5809
  140MOL0     H18855   0.994   5.117   6.039 -2.2497  1.3500  1.6935
  140MOL0     H18856   1.043   5.315   6.174  2.4028 -1.8014  3.6097
  140MOL0     H18857   1.193   5.339   6.071  1.2277  1.3975  4.1116
  140MOL0     H18858   1.233   5.082   6.101 -3.0731 -0.8896 -0.6952
  140MOL0     H18859   1.121   5.098   6.232  1.5611 -0.6754 -0.0737
  140MOL0     H18860   1.458   5.270   6.053  2.8401  1.5401  1.7999
  140MOL0     H18861   1.786   5.206   5.973  0.2959 -3.1303 -1.7613
  140MOL0     H18862   1.668   5.142   5.858  0.6596 -1.4790 -0.5216
  140MOL0     H18863   1.638   5.302   5.938 -1.2421 -1.0871  0.2561
  140MOL0     H18864   2.042   4.831   6.105 -0.5619 -2.3662 -0.2881
  140MOL0     H18865   2.209   4.679   5.982 -1.1073 -1.4294  0.8093
  140MOL0     H18866   2.387   4.711   5.859 -0.7645 -0.4317  1.2001
  140MOL0     H18867   2.426   4.600   5.737 -0.7438 -0.1077 -3.1288
  140MOL0     H18868   2.388   4.794   5.563  1.7782  1.1166 -1.1704
  140MOL0     H18869   2.354   4.892   5.712  1.3468 -0.2435  2.9862
  140MOL0     H18870   2.609   4.749   5.640  1.2487  1.5988 -0.4556
  140MOL0     H18871   2.586   4.842   5.792 -0.8834  1.9855  0.8199
  140MOL0     H18872   2.559   4.962   5.506 -1.9319 -1.5332  0.8477
  140MOL0     H18873   2.543   5.044   5.661  1.4816  1.8168  0.8467
  140MOL0     H18874   2.808   4.928   5.569 -0.4044  0.0517 -0.4711
  140MOL0     H18875   2.771   5.011   5.724 -3.6821 -0.1719  1.3308
  140MOL0     H18876   2.780   5.104   5.432  3.1422 -1.1270 -0.9350
  140MOL0     H18877   2.715   5.206   5.557  2.3262  1.6830 -0.5846
  140MOL0     H18878   2.976   5.157   5.459  1.3103 -0.9435  1.6742
  140MOL0     H18879   2.985   5.120   5.622  0.2213  0.4450 -0.1115
  140MOL0     H18880   3.031   5.349   5.587 -0.4373 -0.0776  0.2066
  140MOL0     H18881   2.876   5.350   5.675  1.1463 -2.1665  0.4214
  140MOL0     H18882   2.037   4.780   5.611 -3.7339 -1.9016  0.4124
  140MOL0     H18883   1.875   4.928   5.712  0.0635  1.5104 -1.5728
  140MOL0     H18884   1.602   4.866   6.292  2.1274  1.4748  0.8381
  140MOL0     H18885   1.407   4.966   6.353 -0.7645  1.5774  0.5798
  140MOL0     H18886   1.087   6.472   5.640 -1.3637  1.5966  0.8064
  140MOL0     H18887   1.191   6.680   5.591  0.9178  0.3108 -0.8526
  140MOL0     H18888   1.447   7.037   5.484  0.1938  1.0101  1.7586
  140MOL0     H18889   1.521   7.269   5.403 -0.3743  0.1642 -0.1548
  140MOL0     H18890   1.278   7.459   5.069  0.7769  0.7837 -0.2391
  140MOL0     H18891   1.219   7.517   5.225 -0.7935 -1.7310 -0.9085
  140MOL0     H18892   1.329   7.673   5.054 -1.1319 -0.6155  0.4162
  140MOL0     H18893   1.482   7.593   5.076 -2.1397 -0.0162 -2.5347
  140MOL0     H18894   1.471   7.670   5.307  1.8997 -0.4824 -2.5889
  140MOL0     H18895   1.296   7.722   5.307  1.8797  0.0942  3.3610
  140MOL0     H18896   1.328   7.906   5.167  1.6479  1.1552 -2.8917
  140MOL0     H18897   1.499   7.863   5.148 -2.1340 -1.4473 -1.4062
  140MOL0     H18898   1.511   8.042   5.527 -1.1533  2.4555 -0.3262
  140MOL0     H18899   1.151   7.292   5.174 -0.4958 -1.0537  0.8367
  140MOL0     H18900   1.101   7.066   5.232 -1.8109  1.0090 -1.2322
  141MOL0     O18901   6.405   8.567  11.054 -0.0200 -0.7281  0.7292
  141MOL0     C18902   6.360   8.684  11.066 -0.8049  0.3099 -0.6492
  141MOL0     O18903   6.305   8.738  11.170 -0.1681 -0.5615 -0.4866
  141MOL0     C18904   6.277   8.662  11.283  0.2556  0.6330  0.0788
  141MOL0     C18905   6.341   8.662  11.408 -1.2054 -0.0075  0.1623
  141MOL0     C18906   6.307   8.585  11.517  0.5573 -0.6760 -0.6288
  141MOL0     C18907   6.202   8.493  11.505  0.1959 -1.2605 -0.0725
  141MOL0     O18908   6.156   8.428  11.619 -0.4850  0.0562  0.5249
  141MOL0     C18909   6.183   8.493  11.747  0.4627 -0.1564  0.5529
  141MOL0     C18910   6.099   8.439  11.862 -0.6648 -0.4052  0.1534
  141MOL0     C18911   6.102   8.285  11.872  0.0580  0.3831 -0.8935
  141MOL0     C18912   5.991   8.232  11.954  0.5002  0.1547 -0.9104
  141MOL0     C18913   5.941   8.086  11.922  0.3596 -0.3479  0.4430
  141MOL0     C18914   5.853   8.045  12.038  0.2332 -0.3358 -0.1502
  141MOL0     C18915   5.828   7.894  12.022 -0.9397 -0.5324 -0.3820
  141MOL0     C18916   5.699   7.877  11.938  0.2382  0.2053  0.2421
  141MOL0     N18917   5.574   7.919  12.005 -0.1527 -0.3817  0.3684
  141MOL0     C18918   5.517   8.047  12.010 -0.8763  0.4067  0.2813
  141MOL0     C18919   5.398   8.033  12.075 -0.3003 -0.6489 -0.5922
  141MOL0     C18920   5.314   8.147  12.131  0.2229 -0.1918  0.6119
  141MOL0     C18921   5.172   8.101  12.161  0.1289  0.5759  0.1544
  141MOL0     C18922   5.102   8.221  12.224  0.3200  0.0370 -0.1493
  141MOL0     C18923   4.960   8.196  12.263  0.3632  0.4606  0.4752
  141MOL0     O18924   4.873   8.162  12.150 -0.0622 -0.9299 -0.0890
  141MOL0     C18925   4.743   8.166  12.182  1.4732  0.2958  0.5371
  141MOL0     C18926   4.675   8.205  12.306  0.2100  0.1203 -0.1318
  141MOL0     C18927   4.540   8.214  12.319 -0.2830 -0.0535  0.8346
  141MOL0     C18928   4.479   8.268  12.447  1.0852  0.3971 -1.2676
  141MOL0     C18929   4.462   8.166  12.217  0.4988 -0.3254  0.2310
  141MOL0     C18930   4.314   8.176  12.223  0.2369 -0.2388 -0.1039
  141MOL0     O18931   4.256   8.257  12.125 -0.6821 -0.3425 -0.1770
  141MOL0     C18932   4.135   8.220  12.075  0.4358 -0.0129 -0.3661
  141MOL0     C18933   4.108   8.087  12.049  0.5467  0.2746  0.4431
  141MOL0     C18934   3.981   8.050  12.005 -1.0124 -0.1511 -0.1010
  141MOL0     C18935   3.875   8.140  11.999  0.0955  1.5419 -0.2371
  141MOL0     O18936   3.746   8.114  11.970  0.5768 -0.5351  0.0562
  141MOL0     C18937   3.688   7.980  11.972  1.6106 -0.5639 -0.2503
  141MOL0     C18938   3.566   7.968  12.073 -0.0896 -1.0470  0.6811
  141MOL0     C18939   3.533   7.823  12.075  0.0998  0.6569  0.1926
  141MOL0     C18940   3.434   7.782  11.952  0.0627 -0.0449  0.0577
  141MOL0     C18941   3.387   7.639  11.963 -0.4803  0.0728 -1.1272
  141MOL0     C18942   3.268   7.603  11.867 -0.3994  0.1306 -0.1917
  141MOL0     C18943   3.263   7.449  11.883 -0.2855 -0.4692  0.2083
  141MOL0     C18944   3.129   7.392  11.831  0.0146  0.6066  0.3963
  141MOL0    Cl18945   2.990   7.472  11.906 -0.5273 -0.5099 -0.1731
  141MOL0     C18946   3.906   8.270  12.033  0.5210  1.0053  0.2501
  141MOL0     C18947   4.035   8.315  12.071  0.1501 -0.0651  0.2061
  141MOL0     O18948   4.249   8.108  12.306  0.1995  0.3913 -0.5216
  141MOL0     C18949   4.519   8.129  12.090  0.6359  0.9242  0.4652
  141MOL0     C18950   4.661   8.124  12.081  0.2777 -1.0393  0.8174
  141MOL0     N18951   5.389   7.903  12.114 -0.3299 -0.9224  0.4824
  141MOL0     N18952   5.499   7.841  12.076  1.0992  1.7001  0.5145
  141MOL0     C18953   6.140   8.482  11.382  0.0741 -0.4412  0.2979
  141MOL0     C18954   6.168   8.572  11.273 -0.3841  0.0026  0.0815
  141MOL0     C18955   6.387   8.781  10.956  0.7665 -0.6976 -0.4100
  141MOL0     C18956   6.310   8.902  10.939  0.1117  0.4918  0.9033
  141MOL0     C18957   6.338   8.980  10.822  0.4356  1.2944 -0.3600
  141MOL0     C18958   6.445   8.958  10.733  0.1771 -0.0997  0.1273
  141MOL0     O18959   6.475   9.038  10.626 -0.6767 -0.9713  0.0184
  141MOL0     C18960   6.465   9.181  10.649  0.1338  1.0313 -0.3037
  141MOL0     C18961   6.560   9.235  10.544  0.0946  0.3790  0.2165
  141MOL0     C18962   6.571   9.389  10.538 -0.3439 -0.0317  0.2379
  141MOL0     C18963   6.473   9.474  10.461 -0.6820  0.2441  0.3574
  141MOL0     C18964   6.462   9.615  10.512  0.3501  0.9819 -0.8604
  141MOL0     C18965   6.413   9.718  10.559 -0.4307 -0.1861  0.6096
  141MOL0     C18966   6.513   8.844  10.752 -0.3598  0.0328 -0.1198
  141MOL0     C18967   6.491   8.757  10.865  0.0054 -0.1742  0.0660
  141MOL0     H18968   6.431   8.720  11.428 -0.1706 -0.6273 -2.2829
  141MOL0     H18969   6.375   8.576  11.601  0.3587 -1.2057 -0.5215
  141MOL0     H18970   6.283   8.471  11.787 -0.4205 -1.8889  1.9744
  141MOL0     H18971   6.152   8.598  11.741 -3.8900 -1.3414 -0.6487
  141MOL0     H18972   6.138   8.495  11.947  0.2801  0.7408 -0.9857
  141MOL0     H18973   6.004   8.477  11.824  0.8654  1.2284 -2.3412
  141MOL0     H18974   6.091   8.233  11.776  0.2441 -0.6672 -0.3572
  141MOL0     H18975   6.197   8.244  11.909 -0.9341 -0.3574  0.9807
  141MOL0     H18976   6.026   8.247  12.056 -1.5103  1.0731 -0.3158
  141MOL0     H18977   5.902   8.294  11.942 -0.7223 -1.1937  0.7915
  141MOL0     H18978   5.889   8.067  11.828 -0.4135 -0.9040  0.9658
  141MOL0     H18979   6.037   8.036  11.906  1.1336  1.8557 -2.9896
  141MOL0     H18980   5.910   8.059  12.130 -0.9573  3.9533  0.1250
  141MOL0     H18981   5.756   8.097  12.040  1.2575  1.6905 -0.6130
  141MOL0     H18982   5.910   7.847  11.967 -0.2336  1.9590 -1.5681
  141MOL0     H18983   5.819   7.839  12.116 -2.4700  0.6694  0.2174
  141MOL0     H18984   5.702   7.768  11.928 -0.0657 -0.1039  2.7001
  141MOL0     H18985   5.716   7.917  11.838  0.0344 -0.7480 -0.1865
  141MOL0     H18986   5.560   8.137  11.968  0.7991  0.0173  1.0853
  141MOL0     H18987   5.357   8.186  12.224 -1.2881 -0.3603  1.4214
  141MOL0     H18988   5.327   8.223  12.053  2.7209  0.4425  1.5539
  141MOL0     H18989   5.187   8.024  12.237 -1.7527  1.0076  1.0267
  141MOL0     H18990   5.117   8.074  12.071  0.5916  0.8741 -0.2213
  141MOL0     H18991   5.110   8.307  12.157  2.8489  0.3292  0.4075
  141MOL0     H18992   5.160   8.249  12.313  0.9572  1.9375 -1.1073
  141MOL0     H18993   4.919   8.280  12.319 -2.9236 -1.4473  1.2164
  141MOL0     H18994   4.956   8.111  12.332 -0.3780 -0.5551 -0.7527
  141MOL0     H18995   4.724   8.233  12.398  1.7090 -1.5232 -0.3705
  141MOL0     H18996   4.399   8.199  12.477  2.1678 -0.1098  0.6082
  141MOL0     H18997   4.545   8.279  12.533 -2.8774 -2.0619  2.5077
  141MOL0     H18998   4.441   8.370  12.437 -2.1914 -0.7625 -2.1242
  141MOL0     H18999   4.178   8.004  12.059  0.0071 -0.3300 -0.6768
  141MOL0     H19000   3.961   7.947  11.977  0.1348 -0.5667  0.5268
  141MOL0     H19001   3.666   7.941  11.873 -0.4530 -1.6183  0.5656
  141MOL0     H19002   3.766   7.910  12.004  3.2747  0.4518 -1.8857
  141MOL0     H19003   3.584   8.007  12.174  2.8233 -0.5452  0.0466
  141MOL0     H19004   3.488   8.031  12.027  2.6501  1.8016 -0.4662
  141MOL0     H19005   3.494   7.799  12.174  0.0634 -1.5504 -0.3040
  141MOL0     H19006   3.620   7.758  12.067  1.0195  1.8914 -0.2451
  141MOL0     H19007   3.344   7.843  11.968 -0.4818 -1.1846  1.5431
  141MOL0     H19008   3.476   7.805  11.854 -2.1358 -2.6450 -1.6249
  141MOL0     H19009   3.335   7.630  12.058  2.4831 -2.5334  0.4428
  141MOL0     H19010   3.471   7.570  11.957 -0.6273 -0.1615 -0.5411
  141MOL0     H19011   3.181   7.651  11.913  2.5189  4.4055  1.4880
  141MOL0     H19012   3.291   7.625  11.763 -0.3105 -1.0877 -0.4432
  141MOL0     H19013   3.291   7.412  11.982 -0.2604 -1.3384 -0.1186
  141MOL0     H19014   3.341   7.397  11.826  0.5528  2.5021 -1.5765
  141MOL0     H19015   3.122   7.286  11.856 -0.6714  0.4276 -0.4785
  141MOL0     H19016   3.133   7.392  11.721 -0.0897 -1.1978  0.3725
  141MOL0     H19017   3.820   8.337  12.036 -0.4584 -0.2329  2.5883
  141MOL0     H19018   4.067   8.417  12.089 -2.1172  0.2920  2.8147
  141MOL0     H19019   4.466   8.085  12.006 -0.9308 -4.9209  3.9388
  141MOL0     H19020   4.707   8.086  11.990 -2.1073  1.6574 -1.7543
  141MOL0     H19021   6.067   8.401  11.383 -1.4421  0.8342 -1.1474
  141MOL0     H19022   6.123   8.553  11.176 -2.2948 -0.1690  0.9468
  141MOL0     H19023   6.232   8.937  11.005  1.1088 -1.0356  3.0184
  141MOL0     H19024   6.276   9.066  10.798  0.1253  0.0927 -4.5114
  141MOL0     H19025   6.362   9.204  10.621  0.0836 -2.1818 -3.4466
  141MOL0     H19026   6.493   9.217  10.749 -0.9283  1.8983 -0.3011
  141MOL0     H19027   6.516   9.204  10.449 -2.3217  2.1527  0.6760
  141MOL0     H19028   6.659   9.189  10.551 -0.0975 -0.2418 -0.9112
  141MOL0     H19029   6.668   9.422  10.497 -0.7477  0.2534 -0.5061
  141MOL0     H19030   6.578   9.437  10.636 -1.8956  1.0007 -0.1259
  141MOL0     H19031   6.373   9.435  10.480  0.7441 -3.5187  0.9684
  141MOL0     H19032   6.484   9.466  10.352  1.8132  3.0577  0.2901
  141MOL0     H19033   6.377   9.812  10.596  3.3873  0.9990  1.7068
  141MOL0     H19034   6.586   8.822  10.674  1.3806  0.2342  1.3716
  141MOL0     H19035   6.550   8.666  10.871  1.0676  0.5262  0.4989
  142MOL0     O19036  10.974   6.995  10.583 -0.2857 -0.1040 -0.2325
  142MOL0     C19037  11.089   6.945  10.597 -0.1887  0.3119 -1.5360
  142MOL0     O19038  11.113   6.812  10.592 -0.2838 -0.2475  0.8146
  142MOL0     C19039  11.016   6.723  10.555  0.7184  0.4347  1.2891
  142MOL0     C19040  10.915   6.676  10.643 -0.7264 -0.7887 -0.3339
  142MOL0     C19041  10.817   6.590  10.601  0.3500  0.4290  0.2177
  142MOL0     C19042  10.826   6.529  10.481  0.3194 -0.0647 -0.0635
  142MOL0     O19043  10.723   6.445  10.434  0.5895 -0.4775 -0.3213
  142MOL0     C19044  10.613   6.505  10.367  0.1514  0.4566 -0.8515
  142MOL0     C19045  10.495   6.527  10.465  0.0540  0.0104 -0.4676
  142MOL0     C19046  10.365   6.540  10.392 -0.1078 -0.0500  0.7920
  142MOL0     C19047  10.237   6.503  10.460 -0.6019 -0.6509 -0.3732
  142MOL0     C19048  10.196   6.358  10.431  0.0351 -0.6765  0.7769
  142MOL0     C19049  10.085   6.335  10.536 -0.4355  0.3148 -0.4596
  142MOL0     C19050  10.030   6.194  10.516  0.4834 -0.7679  0.3217
  142MOL0     C19051   9.911   6.177  10.609 -0.6065  0.6711  0.2893
  142MOL0     N19052   9.839   6.045  10.590 -0.3856 -0.0264  0.3585
  142MOL0     C19053   9.874   5.930  10.660  0.0084 -0.7301 -0.7392
  142MOL0     C19054   9.753   5.855  10.656  0.0688 -0.8780 -0.4543
  142MOL0     C19055   9.715   5.731  10.724 -0.1785  0.2706 -0.5400
  142MOL0     C19056   9.709   5.760  10.876  0.6749  0.2039  0.2413
  142MOL0     C19057   9.717   5.638  10.968  0.7655  0.2299  0.7085
  142MOL0     C19058   9.655   5.504  10.913  0.6709  0.0760  0.6113
  142MOL0     O19059   9.655   5.411  11.024 -0.4689  0.2268  1.0518
  142MOL0     C19060   9.653   5.275  11.000  0.2124  0.6204  0.2272
  142MOL0     C19061   9.675   5.198  11.117 -0.3638  0.3955  0.2006
  142MOL0     C19062   9.674   5.053  11.105 -0.5712 -0.6060 -0.0135
  142MOL0     C19063   9.703   4.998  11.242  0.3649  1.1738 -0.0403
  142MOL0     C19064   9.637   4.982  10.987 -0.8583 -0.4522 -0.2775
  142MOL0     C19065   9.604   4.841  10.985 -1.3234 -0.0782 -1.4129
  142MOL0     O19066   9.530   4.801  10.883  0.3711 -0.3437  0.0395
  142MOL0     C19067   9.541   4.657  10.852 -0.9461 -0.1465 -0.1176
  142MOL0     C19068   9.656   4.574  10.852 -0.4849  0.0675  1.1684
  142MOL0     C19069   9.664   4.460  10.782 -0.1306 -0.6543 -0.2696
  142MOL0     C19070   9.549   4.419  10.708  1.0755  0.2126 -0.2737
  142MOL0     O19071   9.522   4.297  10.642 -0.8784  1.1304  0.1839
  142MOL0     C19072   9.600   4.176  10.665 -0.4161 -0.4946 -0.7034
  142MOL0     C19073   9.714   4.172  10.558 -0.3464 -0.3141  0.3612
  142MOL0     C19074   9.831   4.082  10.602 -0.4618  0.3810  0.1068
  142MOL0     C19075   9.921   4.048  10.476  0.1583 -0.1517  0.5873
  142MOL0     C19076   9.891   3.912  10.415 -0.2659  0.2783  1.0992
  142MOL0     C19077   9.968   3.901  10.279  0.4568 -0.5708  0.9455
  142MOL0     C19078   9.925   3.761  10.215  0.3578  0.1824  0.3433
  142MOL0     C19079   9.999   3.753  10.074  0.1348  0.2565 -0.2978
  142MOL0    Cl19080   9.943   3.907   9.972  0.1024  0.0915 -0.0128
  142MOL0     C19081   9.437   4.503  10.691  0.2389 -0.5011  0.8824
  142MOL0     C19082   9.440   4.623  10.766  0.0135  0.1155 -0.3540
  142MOL0     O19083   9.638   4.766  11.082 -0.7134 -0.7881 -0.2170
  142MOL0     C19084   9.622   5.067  10.877 -0.4756  0.2238 -0.6122
  142MOL0     C19085   9.633   5.206  10.880 -0.4658 -0.1306  0.0980
  142MOL0     N19086   9.656   5.926  10.584  0.8211  0.1021 -0.0637
  142MOL0     N19087   9.705   6.039  10.554  0.3016  0.2714 -0.4327
  142MOL0     C19088  10.925   6.569  10.390  0.3668 -0.2854 -0.3582
  142MOL0     C19089  11.017   6.672  10.425  0.4135 -0.1891  0.1623
  142MOL0     C19090  11.209   7.029  10.625 -0.2380 -1.0391  0.5223
  142MOL0     C19091  11.209   7.164  10.607 -0.1053  0.5555  0.0286
  142MOL0     C19092  11.313   7.239  10.652  0.4686  0.1303 -0.9037
  142MOL0     C19093  11.430   7.189  10.707  0.9188 -0.0964 -0.1027
  142MOL0     O19094  11.523   7.281  10.716 -0.4458  0.3065  0.2206
  142MOL0     C19095  11.657   7.251  10.769 -0.6499  0.1337 -0.0829
  142MOL0     C19096  11.738   7.169  10.663 -0.1357 -0.7850 -0.2567
  142MOL0     C19097  11.804   7.258  10.562 -0.4045  0.2931  0.1543
  142MOL0     C19098  11.936   7.319  10.619 -0.0498  0.2508 -0.1573
  142MOL0     C19099  11.970   7.430  10.526  0.3157  0.4054  0.3099
  142MOL0     C19100  11.983   7.537  10.467 -0.0198 -0.7820 -1.3332
  142MOL0     C19101  11.440   7.051  10.718  0.6325 -0.3646  0.4983
  142MOL0     C19102  11.332   6.968  10.680  0.4878 -0.0166 -0.1912
  142MOL0     H19103  10.921   6.697  10.750 -0.5482  1.1547 -0.6797
  142MOL0     H19104  10.728   6.554  10.652 -0.2174  2.1888  0.5494
  142MOL0     H19105  10.643   6.598  10.319 -1.1355  2.9065  2.6923
  142MOL0     H19106  10.580   6.448  10.279 -3.0638  3.6030 -1.9293
  142MOL0     H19107  10.494   6.436  10.527 -0.3245  0.8579  0.8209
  142MOL0     H19108  10.518   6.608  10.535  1.1569  0.3033 -1.1545
  142MOL0     H19109  10.359   6.645  10.361  3.5261 -0.0199 -0.3249
  142MOL0     H19110  10.375   6.492  10.294  1.7267 -1.2140  1.4887
  142MOL0     H19111  10.250   6.521  10.567  1.0382 -0.7824 -0.5181
  142MOL0     H19112  10.156   6.563  10.418 -1.8194 -3.4093 -2.3663
  142MOL0     H19113  10.163   6.358  10.327  0.3254 -1.2673  0.6814
  142MOL0     H19114  10.291   6.304  10.443  1.1174  1.3456  1.7788
  142MOL0     H19115  10.121   6.349  10.638  0.0547  1.4581 -0.7743
  142MOL0     H19116  10.007   6.409  10.520 -1.3619 -0.5378  0.0049
  142MOL0     H19117   9.999   6.188  10.411  0.1169  0.4125  0.3514
  142MOL0     H19118  10.112   6.123  10.533  2.8505  0.7195 -3.4103
  142MOL0     H19119   9.841   6.259  10.596 -4.0507 -1.9179  0.9753
  142MOL0     H19120   9.945   6.179  10.713  1.8059 -0.8078 -0.3781
  142MOL0     H19121   9.967   5.909  10.712 -0.0369 -1.0640 -0.7930
  142MOL0     H19122   9.622   5.684  10.692  1.9516 -4.7498 -0.2613
  142MOL0     H19123   9.786   5.653  10.697 -0.1410  0.3387 -0.6426
  142MOL0     H19124   9.608   5.800  10.892  0.1247 -1.1224  0.2288
  142MOL0     H19125   9.783   5.835  10.906 -2.0100  3.5881 -0.8693
  142MOL0     H19126   9.660   5.670  11.056 -1.9791 -3.3013  0.4466
  142MOL0     H19127   9.821   5.622  10.996  1.2140  0.5103 -0.7295
  142MOL0     H19128   9.717   5.467  10.831  1.5774 -0.7668  1.6272
  142MOL0     H19129   9.555   5.528  10.876  1.7860  4.6718 -0.0251
  142MOL0     H19130   9.713   5.242  11.208  1.1369  0.5453 -0.4654
  142MOL0     H19131   9.622   4.989  11.315 -0.3477 -0.8944 -1.0190
  142MOL0     H19132   9.746   4.898  11.238 -2.5929 -0.2335  0.6579
  142MOL0     H19133   9.773   5.062  11.297 -2.0422  1.5042  2.9423
  142MOL0     H19134   9.739   4.592  10.919  0.4406 -4.2696  1.5038
  142MOL0     H19135   9.754   4.401  10.772  0.5277  0.3851 -0.6156
  142MOL0     H19136   9.653   4.183  10.761  0.7761  0.1321 -1.3817
  142MOL0     H19137   9.542   4.083  10.670 -2.1512  0.6067  0.2947
  142MOL0     H19138   9.676   4.138  10.461  0.2358  0.3146 -0.1055
  142MOL0     H19139   9.742   4.276  10.539 -2.5321  0.5597  1.6768
  142MOL0     H19140   9.781   3.988  10.628 -0.7935 -0.9744 -4.5189
  142MOL0     H19141   9.886   4.126  10.686  0.1765  3.2670 -1.6837
  142MOL0     H19142   9.911   4.127  10.401  1.5455  1.0784  1.6543
  142MOL0     H19143  10.028   4.055  10.497  0.4492 -1.3290 -0.3683
  142MOL0     H19144   9.789   3.881  10.391  0.3879 -2.8474  1.9490
  142MOL0     H19145   9.911   3.832  10.488 -0.7545 -1.1597 -0.2863
  142MOL0     H19146   9.944   3.987  10.215  0.5660 -0.0454  1.6037
  142MOL0     H19147  10.077   3.900  10.288  0.9086 -2.8320 -2.7067
  142MOL0     H19148   9.820   3.743  10.191  0.8373 -1.1317 -0.9480
  142MOL0     H19149   9.963   3.688  10.288  1.5412 -2.1238 -2.3707
  142MOL0     H19150   9.981   3.656  10.026  0.0153 -0.1130  0.4876
  142MOL0     H19151  10.108   3.754  10.084  0.2219  1.2031 -1.1811
  142MOL0     H19152   9.353   4.481  10.625 -0.0856  2.2693  0.2200
  142MOL0     H19153   9.357   4.692  10.755  0.3702  0.8357  1.2504
  142MOL0     H19154   9.583   5.031  10.782  1.3277 -0.2829 -1.1991
  142MOL0     H19155   9.625   5.253  10.783 -0.7739  0.7379  0.5358
  142MOL0     H19156  10.932   6.501  10.306 -0.6691 -2.0739  0.9222
  142MOL0     H19157  11.092   6.711  10.357  1.2178  1.5926  1.9746
  142MOL0     H19158  11.114   7.207  10.577  0.6125 -0.3549 -3.9884
  142MOL0     H19159  11.299   7.345  10.631 -1.1517  0.3170  0.8351
  142MOL0     H19160  11.708   7.345  10.792 -2.3404  1.7547 -2.4517
  142MOL0     H19161  11.651   7.193  10.861 -0.8338  1.7584  0.9744
  142MOL0     H19162  11.669   7.103  10.611  0.2082 -2.9136  1.7893
  142MOL0     H19163  11.813   7.107  10.714  0.2840 -0.1044 -0.0333
  142MOL0     H19164  11.733   7.331  10.524  0.3912  1.0068 -0.0020
  142MOL0     H19165  11.838   7.200  10.475 -0.2562 -2.4740  1.9338
  142MOL0     H19166  12.019   7.250  10.637  0.6417  1.1799  0.3354
  142MOL0     H19167  11.915   7.376  10.710 -0.4076  3.6640 -2.1598
  142MOL0     H19168  11.992   7.637  10.431 -2.1866  0.7228  1.8834
  142MOL0     H19169  11.531   7.005  10.755 -1.2612 -1.8581  3.7083
  142MOL0     H19170  11.349   6.861  10.684 -1.0091 -0.4497 -3.1228
  143MOL0     O19171   2.480   2.180   5.962  0.9417  0.1078 -0.0456
  143MOL0     C19172   2.578   2.251   5.988  0.4062  0.4062  0.0376
  143MOL0     O19173   2.609   2.300   6.100 -0.0249  0.1908  0.4413
  143MOL0     C19174   2.546   2.259   6.212 -0.1495  0.3848 -0.6101
  143MOL0     C19175   2.618   2.232   6.329  0.0034 -1.0781 -0.3813
  143MOL0     C19176   2.554   2.209   6.453  0.4754 -0.5467  0.2123
  143MOL0     C19177   2.410   2.213   6.452 -0.0538  0.5165 -0.0153
  143MOL0     O19178   2.342   2.167   6.564  0.6946  0.7140 -0.4742
  143MOL0     C19179   2.374   2.223   6.694  0.3014  0.6217 -0.3253
  143MOL0     C19180   2.279   2.185   6.811 -0.3191 -0.2663 -0.0238
  143MOL0     C19181   2.336   2.227   6.947 -0.0836  0.2035 -0.2269
  143MOL0     C19182   2.225   2.233   7.050  0.1740  0.7916  0.7349
  143MOL0     C19183   2.267   2.256   7.200  0.1841 -1.3364  0.0412
  143MOL0     C19184   2.137   2.284   7.279  0.6362 -0.2613  1.2607
  143MOL0     C19185   2.161   2.321   7.421  0.8147 -0.6771 -0.3676
  143MOL0     C19186   2.171   2.200   7.515  1.1194 -0.1416 -0.3438
  143MOL0     N19187   2.172   2.255   7.661  0.1451  0.5921  0.5599
  143MOL0     C19188   2.288   2.268   7.743 -0.9613  0.6023  1.2177
  143MOL0     C19189   2.244   2.375   7.808  0.7151 -0.0994 -0.2704
  143MOL0     C19190   2.303   2.441   7.936  0.7431  0.2822 -0.5962
  143MOL0     C19191   2.443   2.414   7.988 -1.1837 -0.4318  0.8429
  143MOL0     C19192   2.474   2.448   8.142 -0.1584 -0.3343 -0.0271
  143MOL0     C19193   2.443   2.592   8.176 -0.1010 -0.1625 -0.7574
  143MOL0     O19194   2.538   2.691   8.119 -0.1020  0.5923  0.4781
  143MOL0     C19195   2.660   2.726   8.174  0.1431  0.2464  0.4708
  143MOL0     C19196   2.736   2.822   8.113 -0.2582 -0.1085  0.0489
  143MOL0     C19197   2.851   2.876   8.165 -0.3788 -0.7178  0.0614
  143MOL0     C19198   2.909   2.987   8.075 -0.5706  0.1538  0.7068
  143MOL0     C19199   2.903   2.819   8.284 -0.9442 -0.7683 -0.0149
  143MOL0     C19200   3.028   2.877   8.356 -0.3395  0.4474  0.0317
  143MOL0     O19201   3.045   2.876   8.497  0.7186  1.2573  0.4333
  143MOL0     C19202   3.166   2.916   8.545  0.1131 -0.3018 -0.0249
  143MOL0     C19203   3.186   3.050   8.571  0.4692  0.3537  0.0375
  143MOL0     C19204   3.291   3.105   8.654 -0.0542  0.9547  0.2032
  143MOL0     C19205   3.391   3.009   8.695 -0.1118 -0.5647 -0.7885
  143MOL0     O19206   3.484   3.065   8.773  0.5394 -0.1957 -0.0525
  143MOL0     C19207   3.616   3.007   8.787  0.2108  0.3180  0.6783
  143MOL0     C19208   3.656   2.953   8.925  1.3216  0.6277  0.7687
  143MOL0     C19209   3.690   3.068   9.021  0.1951 -0.4372  0.2583
  143MOL0     C19210   3.678   3.010   9.167  0.1011 -0.4406 -0.5774
  143MOL0     C19211   3.728   3.096   9.283 -0.1725  0.2512  1.0585
  143MOL0     C19212   3.660   3.058   9.422  0.5469  0.0004 -0.1793
  143MOL0     C19213   3.720   3.148   9.532 -0.3277  0.0441  1.0727
  143MOL0     C19214   3.682   3.117   9.674  0.7713 -0.4278  0.1530
  143MOL0    Cl19215   3.731   2.941   9.712  0.2699 -0.0123  0.2235
  143MOL0     C19216   3.381   2.876   8.647 -0.1454  0.0217  1.3086
  143MOL0     C19217   3.269   2.834   8.570  0.7545 -0.1614  0.2924
  143MOL0     O19218   3.110   2.930   8.281  0.2853 -0.6087  0.8889
  143MOL0     C19219   2.825   2.730   8.354 -1.1015  0.3807  0.1951
  143MOL0     C19220   2.703   2.683   8.303 -0.2001  0.0986  0.1312
  143MOL0     N19221   2.114   2.418   7.780 -0.2012 -0.0908 -0.9367
  143MOL0     N19222   2.070   2.338   7.689  0.5489  0.0549  0.6514
  143MOL0     C19223   2.338   2.239   6.336  0.0564  0.4601  0.3089
  143MOL0     C19224   2.405   2.269   6.217  0.4457  0.0092 -0.3592
  143MOL0     C19225   2.652   2.298   5.873  0.1025  0.5101  0.6160
  143MOL0     C19226   2.655   2.239   5.746  0.4575 -1.0359  0.4567
  143MOL0     C19227   2.724   2.301   5.648 -0.3023  1.3062 -0.1958
  143MOL0     C19228   2.809   2.411   5.670  1.0526  1.0121  0.4413
  143MOL0     O19229   2.873   2.467   5.575  0.8513 -0.6248  0.7181
  143MOL0     C19230   3.015   2.462   5.577  0.1438 -0.0556  0.4862
  143MOL0     C19231   3.071   2.328   5.527 -0.4323  0.6295  0.6963
  143MOL0     C19232   3.046   2.307   5.379  0.1510  0.5946 -0.3011
  143MOL0     C19233   3.094   2.170   5.328  0.1213  0.9222  0.8988
  143MOL0     C19234   3.243   2.145   5.343  0.8269 -0.6695 -0.3050
  143MOL0     C19235   3.358   2.117   5.356 -0.1604 -0.1288 -0.2502
  143MOL0     C19236   2.809   2.466   5.789  0.2158 -0.5622  0.1399
  143MOL0     C19237   2.732   2.413   5.892 -0.1636  0.7478 -0.7373
  143MOL0     H19238   2.724   2.253   6.339 -0.4395  1.2604  0.0305
  143MOL0     H19239   2.622   2.205   6.538  2.2262  2.4063 -0.8738
  143MOL0     H19240   2.475   2.180   6.704 -0.1470 -0.2740  0.5490
  143MOL0     H19241   2.389   2.331   6.689  3.5444  0.3456  0.6074
  143MOL0     H19242   2.185   2.240   6.803 -0.8195 -0.6289  2.5402
  143MOL0     H19243   2.248   2.080   6.819  0.3369 -0.3592  1.7866
  143MOL0     H19244   2.413   2.156   6.980  1.3305  1.8478  0.1289
  143MOL0     H19245   2.384   2.323   6.925  3.2774 -1.2691  0.0182
  143MOL0     H19246   2.154   2.314   7.030  0.4815  1.3243  1.7380
  143MOL0     H19247   2.170   2.139   7.043 -1.2576  1.7153 -2.6741
  143MOL0     H19248   2.317   2.172   7.250  3.2997 -1.1065 -2.3665
  143MOL0     H19249   2.346   2.332   7.199  1.1218 -2.3038 -0.9125
  143MOL0     H19250   2.093   2.376   7.240 -0.3652  0.3103  3.5235
  143MOL0     H19251   2.071   2.197   7.267  2.5513 -1.4587 -1.6186
  143MOL0     H19252   2.257   2.374   7.424  2.5307 -3.5861  0.6292
  143MOL0     H19253   2.080   2.388   7.450  1.5825 -0.1298  0.5924
  143MOL0     H19254   2.257   2.134   7.502  2.1771  0.3517  3.1029
  143MOL0     H19255   2.078   2.145   7.500 -1.5659  4.3265 -2.2296
  143MOL0     H19256   2.371   2.199   7.747  0.1884  1.8999  0.6002
  143MOL0     H19257   2.297   2.549   7.922 -0.0510  0.3209 -0.0667
  143MOL0     H19258   2.236   2.406   8.015  0.4182 -0.4506 -1.1809
  143MOL0     H19259   2.524   2.460   7.930 -0.5697 -0.2502  1.8217
  143MOL0     H19260   2.457   2.306   7.979 -0.0379 -0.1127 -4.1997
  143MOL0     H19261   2.574   2.417   8.174  0.8664  0.8889 -1.8455
  143MOL0     H19262   2.405   2.386   8.200 -0.6070  1.0948  1.0070
  143MOL0     H19263   2.430   2.605   8.284  0.7905  0.1332 -0.6823
  143MOL0     H19264   2.349   2.623   8.131  0.1250 -0.8633 -1.7359
  143MOL0     H19265   2.701   2.848   8.014  0.5570 -0.3817 -0.3292
  143MOL0     H19266   3.014   2.956   8.078 -1.2123 -2.4801 -0.7323
  143MOL0     H19267   2.864   2.999   7.976 -2.7305  0.7393  1.7121
  143MOL0     H19268   2.889   3.078   8.131  0.5747 -0.1163  1.5862
  143MOL0     H19269   3.113   3.122   8.537 -0.0843 -0.1508  0.1517
  143MOL0     H19270   3.293   3.210   8.684 -0.3336  0.2195  2.9977
  143MOL0     H19271   3.630   2.927   8.714 -0.2726  1.1286 -0.3210
  143MOL0     H19272   3.692   3.081   8.761  0.9568 -1.5330 -3.0150
  143MOL0     H19273   3.565   2.903   8.959 -0.6009 -0.5304 -4.9939
  143MOL0     H19274   3.746   2.891   8.914  3.1251  3.4006 -1.5326
  143MOL0     H19275   3.619   3.151   9.010  0.4219  0.1269  2.5507
  143MOL0     H19276   3.794   3.102   9.008  0.5327 -1.6358 -0.3060
  143MOL0     H19277   3.575   2.985   9.194  0.5363 -1.5542  0.1668
  143MOL0     H19278   3.735   2.917   9.178  1.0269  0.3860  2.4603
  143MOL0     H19279   3.689   3.197   9.262 -0.3467  0.7488  3.5245
  143MOL0     H19280   3.837   3.099   9.294 -0.3651  0.0731  3.4449
  143MOL0     H19281   3.552   3.069   9.408  1.0692  2.5377 -3.8753
  143MOL0     H19282   3.686   2.952   9.433  0.6222 -0.0306 -0.6176
  143MOL0     H19283   3.673   3.240   9.497 -0.2050 -0.5962 -0.9172
  143MOL0     H19284   3.829   3.158   9.529 -0.5757  4.7536 -0.8414
  143MOL0     H19285   3.574   3.132   9.676  0.5830 -1.6389 -0.3827
  143MOL0     H19286   3.736   3.182   9.744 -1.1132  1.7088 -0.2620
  143MOL0     H19287   3.447   2.790   8.653 -3.2350 -2.6495 -0.2405
  143MOL0     H19288   3.247   2.731   8.544  1.2650  0.0739 -1.1757
  143MOL0     H19289   2.856   2.685   8.447 -1.8044 -1.4888 -0.4276
  143MOL0     H19290   2.657   2.596   8.348  0.8648 -0.8540 -0.5939
  143MOL0     H19291   2.230   2.251   6.333  0.3555  4.0725 -1.3654
  143MOL0     H19292   2.340   2.296   6.134 -2.6253 -2.2609  1.0859
  143MOL0     H19293   2.591   2.156   5.719  0.2295 -0.9934  0.8612
  143MOL0     H19294   2.724   2.264   5.546  0.6129 -0.2850  0.3530
  143MOL0     H19295   3.068   2.540   5.522 -0.9758  1.9121  2.0436
  143MOL0     H19296   3.052   2.469   5.680  3.9684  1.5022 -0.8575
  143MOL0     H19297   3.030   2.245   5.586  0.3416  1.9094  3.1538
  143MOL0     H19298   3.179   2.333   5.540 -0.4436  2.2756  0.3143
  143MOL0     H19299   3.086   2.394   5.326 -0.3457 -1.0824 -3.7303
  143MOL0     H19300   2.940   2.300   5.352 -0.1096 -0.6672  0.9107
  143MOL0     H19301   3.081   2.161   5.220 -0.4141  0.6708  0.9814
  143MOL0     H19302   3.043   2.091   5.384 -0.6917  0.9358  0.2131
  143MOL0     H19303   3.456   2.091   5.390  0.1097 -1.5060 -1.9146
  143MOL0     H19304   2.866   2.558   5.805  0.9059 -1.0692  0.6819
  143MOL0     H19305   2.726   2.468   5.985  0.3872  0.2091 -0.3772
  144MOL0     O19306   8.492   8.358   9.425 -0.0163 -0.2906 -0.4799
  144MOL0     C19307   8.583   8.438   9.411  0.1771  0.7596 -0.2588
  144MOL0     O19308   8.715   8.413   9.432 -0.7148  0.3025  0.4826
  144MOL0     C19309   8.768   8.289   9.458  0.2926  0.9566  1.3702
  144MOL0     C19310   8.725   8.218   9.571 -0.2113  0.5579  0.3224
  144MOL0     C19311   8.788   8.105   9.598 -0.0710 -0.5794 -0.7454
  144MOL0     C19312   8.881   8.043   9.521 -0.3468 -0.0786  1.2398
  144MOL0     O19313   8.958   7.930   9.525 -0.0656 -0.4656 -0.1976
  144MOL0     C19314   8.873   7.812   9.522 -0.3103 -0.6870  0.2948
  144MOL0     C19315   8.944   7.680   9.548 -0.0677 -0.3075  1.2832
  144MOL0     C19316   8.872   7.600   9.652 -0.3177  0.4159 -0.5593
  144MOL0     C19317   8.889   7.451   9.640 -0.3155 -0.5510 -0.0646
  144MOL0     C19318   8.810   7.361   9.738 -0.3136  0.0655  0.0945
  144MOL0     C19319   8.825   7.224   9.682 -0.0316 -0.6598 -0.3994
  144MOL0     C19320   8.761   7.125   9.786  0.3207 -1.1209  0.6540
  144MOL0     C19321   8.648   7.048   9.720  0.2218 -0.3166  0.1297
  144MOL0     N19322   8.580   6.964   9.814 -0.5097  0.6105 -0.4850
  144MOL0     C19323   8.615   6.829   9.836  0.3906 -0.2752  0.3069
  144MOL0     C19324   8.534   6.791   9.935  0.3807  1.1819 -0.8575
  144MOL0     C19325   8.516   6.650  10.003  0.1755 -0.8719  0.4364
  144MOL0     C19326   8.401   6.573   9.915  0.2728  0.0661  0.2008
  144MOL0     C19327   8.255   6.583   9.975  1.2252 -0.5042 -0.2574
  144MOL0     C19328   8.188   6.459   9.961  0.0694  0.9473 -0.7919
  144MOL0     O19329   8.195   6.415   9.826 -0.0994  0.2410 -0.6241
  144MOL0     C19330   8.115   6.303   9.810 -0.3813 -0.2845 -0.7237
  144MOL0     C19331   8.170   6.214   9.725  0.8756  0.7243  0.6910
  144MOL0     C19332   8.087   6.093   9.698  0.5641  0.4605  0.1833
  144MOL0     C19333   8.152   5.990   9.611  0.1180 -0.2297 -0.6249
  144MOL0     C19334   7.957   6.075   9.750 -0.0507  0.1437  0.0128
  144MOL0     C19335   7.873   5.954   9.705 -0.1381 -0.1393  0.3444
  144MOL0     O19336   7.835   5.937   9.569 -0.2183 -0.2062 -0.2045
  144MOL0     C19337   7.762   5.831   9.523  0.2537  0.0612 -0.0728
  144MOL0     C19338   7.625   5.834   9.537  0.2207  0.0348  1.0242
  144MOL0     C19339   7.555   5.727   9.477 -0.1790 -0.4725 -0.1988
  144MOL0     C19340   7.621   5.619   9.422  0.6620 -0.6137  0.3120
  144MOL0     O19341   7.557   5.501   9.378 -0.3388 -0.3147  0.0148
  144MOL0     C19342   7.424   5.470   9.418  0.3238 -0.1218  0.4721
  144MOL0     C19343   7.428   5.420   9.566 -0.1051 -0.3587  0.5102
  144MOL0     C19344   7.547   5.344   9.615  0.7884 -0.1113  0.3727
  144MOL0     C19345   7.512   5.277   9.746 -0.0993 -0.1558  0.1914
  144MOL0     C19346   7.630   5.233   9.829  0.3770 -0.4436 -0.1767
  144MOL0     C19347   7.699   5.092   9.808  0.7268 -0.0862  0.7464
  144MOL0     C19348   7.833   5.079   9.873 -0.1567 -0.3378 -0.0401
  144MOL0     C19349   7.882   4.944   9.850 -0.0884 -0.3465 -0.9872
  144MOL0    Cl19350   7.963   4.954   9.690  0.4120  0.3967  0.4752
  144MOL0     C19351   7.756   5.619   9.404 -0.6554 -1.0410  0.6288
  144MOL0     C19352   7.832   5.723   9.462  1.3742  0.7028  0.6878
  144MOL0     O19353   7.832   5.890   9.798 -0.1484 -0.2916 -0.0746
  144MOL0     C19354   7.908   6.168   9.844 -0.4478  0.6984  0.8155
  144MOL0     C19355   7.980   6.286   9.860  0.3518 -0.2826 -0.8430
  144MOL0     N19356   8.467   6.904   9.977 -0.0551  0.4141  0.1652
  144MOL0     N19357   8.483   7.002   9.901  0.5224 -0.2493 -0.1702
  144MOL0     C19358   8.913   8.105   9.399  0.2893  0.0332 -0.0547
  144MOL0     C19359   8.863   8.237   9.368 -1.6951 -0.2176  0.6196
  144MOL0     C19360   8.554   8.572   9.365 -0.5208 -0.1858 -0.5599
  144MOL0     C19361   8.648   8.670   9.397  0.4270 -0.2787  0.0019
  144MOL0     C19362   8.607   8.804   9.387 -0.1294  0.0491  0.0747
  144MOL0     C19363   8.483   8.837   9.339 -0.5608  0.0852  0.0753
  144MOL0     O19364   8.454   8.960   9.291 -0.9206  0.1328 -0.2655
  144MOL0     C19365   8.379   9.052   9.370 -0.0056 -0.4029 -0.2804
  144MOL0     C19366   8.241   9.059   9.341  0.2947  0.6622  0.3929
  144MOL0     C19367   8.203   9.068   9.188 -0.2485 -0.0493 -0.6848
  144MOL0     C19368   8.261   9.196   9.120  0.0545  0.0980 -0.5739
  144MOL0     C19369   8.160   9.260   9.034  0.2213 -0.0965  0.1064
  144MOL0     C19370   8.085   9.291   8.944 -0.2254  0.2890  0.5413
  144MOL0     C19371   8.384   8.742   9.316  0.2034  0.0406  0.6578
  144MOL0     C19372   8.421   8.608   9.317  0.9309  0.3570  0.5431
  144MOL0     H19373   8.654   8.255   9.644  1.7320  1.7819  1.6882
  144MOL0     H19374   8.758   8.071   9.697  0.7552  0.2547 -0.1931
  144MOL0     H19375   8.804   7.837   9.603  0.9011  1.4898  0.7165
  144MOL0     H19376   8.822   7.800   9.426  0.8781  1.2889 -0.6407
  144MOL0     H19377   8.944   7.638   9.447 -3.5547  2.6471 -0.1600
  144MOL0     H19378   9.042   7.714   9.584 -1.2191  1.1556  3.1811
  144MOL0     H19379   8.909   7.634   9.749 -2.1343  1.1857 -0.1008
  144MOL0     H19380   8.763   7.607   9.649 -0.2736  1.4868 -0.2212
  144MOL0     H19381   8.868   7.424   9.536  0.6667 -0.4291 -0.3044
  144MOL0     H19382   8.992   7.432   9.674 -0.1931  3.0182  1.9789
  144MOL0     H19383   8.866   7.359   9.832 -0.5388  0.5424  0.2392
  144MOL0     H19384   8.709   7.401   9.744  0.0152  0.6433  3.5033
  144MOL0     H19385   8.768   7.217   9.589  2.3208  2.5565 -2.2958
  144MOL0     H19386   8.932   7.200   9.685  0.4389  1.3408  0.6323
  144MOL0     H19387   8.842   7.058   9.817  2.4109  0.7028 -0.5313
  144MOL0     H19388   8.718   7.173   9.874 -1.5328  0.3810 -0.9783
  144MOL0     H19389   8.693   7.001   9.632  1.7753  1.2902  0.0082
  144MOL0     H19390   8.573   7.115   9.678 -2.0278 -2.0240  1.2310
  144MOL0     H19391   8.666   6.769   9.761  1.8150  0.6161  0.5405
  144MOL0     H19392   8.611   6.598  10.017 -0.3237 -1.7464  0.6578
  144MOL0     H19393   8.468   6.660  10.101 -3.0425 -1.9448 -0.8817
  144MOL0     H19394   8.432   6.471   9.890 -4.0918 -1.5441  0.4946
  144MOL0     H19395   8.394   6.623   9.818 -4.8789  0.4763  0.4627
  144MOL0     H19396   8.207   6.666   9.922  2.8483  0.0495 -0.9411
  144MOL0     H19397   8.256   6.617  10.078  0.3035 -0.5446 -0.2220
  144MOL0     H19398   8.086   6.468  10.000  0.2637  3.8569 -0.7403
  144MOL0     H19399   8.241   6.392  10.029 -2.6877 -1.8909 -1.2300
  144MOL0     H19400   8.271   6.230   9.691  1.3546 -0.6580  1.3623
  144MOL0     H19401   8.254   6.023   9.594  0.2046 -0.2291 -0.1153
  144MOL0     H19402   8.157   5.900   9.673 -1.1799  1.1030  1.5584
  144MOL0     H19403   8.110   5.980   9.511  0.4218 -0.3834 -0.7369
  144MOL0     H19404   7.572   5.921   9.576  0.5955  0.8550 -0.2238
  144MOL0     H19405   7.447   5.735   9.492  0.2920  2.1314  3.1499
  144MOL0     H19406   7.349   5.549   9.400  0.7765 -0.2076 -2.0236
  144MOL0     H19407   7.382   5.387   9.361  1.1644  0.1821 -0.6148
  144MOL0     H19408   7.429   5.505   9.635  2.9030  0.9320 -0.9288
  144MOL0     H19409   7.332   5.370   9.578 -0.5034  0.7330  2.3243
  144MOL0     H19410   7.626   5.417   9.638 -0.3897  1.4198 -0.2224
  144MOL0     H19411   7.567   5.266   9.542  0.0660  0.2603 -0.2414
  144MOL0     H19412   7.458   5.348   9.809  2.1739 -0.1677  2.3333
  144MOL0     H19413   7.455   5.185   9.732  3.6886 -2.7763  0.3109
  144MOL0     H19414   7.609   5.233   9.936 -1.8014 -0.3446 -0.5690
  144MOL0     H19415   7.699   5.318   9.827 -1.9119  1.5143 -0.1128
  144MOL0     H19416   7.634   5.023   9.862  0.2061  1.0129  1.5665
  144MOL0     H19417   7.707   5.075   9.701  2.0428 -0.7732  0.9279
  144MOL0     H19418   7.823   5.096   9.981  0.9123 -0.4525  0.0873
  144MOL0     H19419   7.891   5.162   9.832 -0.5065 -0.5706 -1.0136
  144MOL0     H19420   7.802   4.870   9.846  1.7398 -2.4338 -1.0690
  144MOL0     H19421   7.956   4.909   9.923 -3.2835  0.8775  3.2120
  144MOL0     H19422   7.798   5.545   9.337 -0.8030 -0.2299 -0.3983
  144MOL0     H19423   7.941   5.720   9.468  1.2992 -1.4705  1.8225
  144MOL0     H19424   7.815   6.154   9.899 -0.7259 -0.0642  0.1799
  144MOL0     H19425   7.937   6.370   9.915  0.6324  0.7530 -2.1597
  144MOL0     H19426   8.994   8.065   9.339  2.3150  2.5908  0.7732
  144MOL0     H19427   8.895   8.303   9.288  2.0597 -1.0752  1.2239
  144MOL0     H19428   8.747   8.659   9.441  0.4409  1.5019  0.5009
  144MOL0     H19429   8.675   8.885   9.410 -0.7714  0.4484  0.5968
  144MOL0     H19430   8.389   9.036   9.478  0.8536 -1.5919 -0.5231
  144MOL0     H19431   8.415   9.154   9.352 -2.0105  0.8831  2.2283
  144MOL0     H19432   8.195   9.130   9.410 -1.4107  1.6193 -1.6118
  144MOL0     H19433   8.208   8.966   9.390  1.9670 -1.2836 -1.9252
  144MOL0     H19434   8.095   9.079   9.202 -0.0960  2.8718 -1.2207
  144MOL0     H19435   8.235   8.980   9.131  1.1572 -1.4658  2.0362
  144MOL0     H19436   8.355   9.175   9.068 -0.0441 -3.0400  0.3293
  144MOL0     H19437   8.279   9.266   9.203  0.7789 -0.2713 -0.4140
  144MOL0     H19438   8.014   9.327   8.873  0.2271  1.1314  0.5003
  144MOL0     H19439   8.286   8.773   9.282  0.1952  2.5504  2.6062
  144MOL0     H19440   8.345   8.535   9.292  0.9911 -0.2395  2.0105
  145MOL0     O19441   1.600   7.203   3.137  0.6146  0.0802  0.0834
  145MOL0     C19442   1.601   7.298   3.216  0.1826  0.0192  1.1322
  145MOL0     O19443   1.593   7.432   3.174 -0.1117  0.6995  0.7574
  145MOL0     C19444   1.587   7.459   3.044 -0.0534  0.2158  0.5434
  145MOL0     C19445   1.465   7.490   2.989  0.5436 -0.9408 -0.4653
  145MOL0     C19446   1.451   7.505   2.850 -0.3619 -0.3317  0.1155
  145MOL0     C19447   1.557   7.466   2.764 -0.0403  0.3419 -1.1578
  145MOL0     O19448   1.532   7.479   2.637  0.7791 -0.4494  0.6484
  145MOL0     C19449   1.601   7.384   2.551  0.5859  0.2066 -0.4716
  145MOL0     C19450   1.654   7.457   2.433  0.7991 -0.4633 -0.3332
  145MOL0     C19451   1.769   7.381   2.363  0.3085  0.1867  0.3842
  145MOL0     C19452   1.761   7.370   2.210  1.0450  0.4674 -0.7649
  145MOL0     C19453   1.830   7.251   2.138 -0.0198 -0.5114 -0.5758
  145MOL0     C19454   1.779   7.243   1.993  1.2246 -0.2086  0.2540
  145MOL0     C19455   1.859   7.122   1.943 -0.3136  0.0919  0.3031
  145MOL0     C19456   1.820   7.091   1.803 -0.0972  0.0499 -0.2406
  145MOL0     N19457   1.874   6.960   1.760 -0.8314 -0.3455 -0.4218
  145MOL0     C19458   2.019   6.942   1.740  0.0050 -0.9637 -0.2674
  145MOL0     C19459   2.037   6.829   1.677  0.5546 -0.3727 -0.1082
  145MOL0     C19460   2.179   6.782   1.633  0.2006 -0.7043  0.5375
  145MOL0     C19461   2.198   6.740   1.481  0.0376 -0.2478 -0.2935
  145MOL0     C19462   2.116   6.621   1.454  0.4738 -0.5592  1.1384
  145MOL0     C19463   2.151   6.569   1.309 -0.4630 -0.2438  0.3192
  145MOL0     O19464   2.062   6.630   1.221 -0.6112  0.1332  0.6013
  145MOL0     C19465   2.066   6.582   1.091 -0.1155 -0.2027  1.0206
  145MOL0     C19466   1.947   6.593   1.011  0.5979 -0.3813  0.0567
  145MOL0     C19467   1.932   6.540   0.877 -0.7980  0.2745 -0.0034
  145MOL0     C19468   1.784   6.562   0.824  0.4097  0.3026 -0.5537
  145MOL0     C19469   2.056   6.506   0.814 -0.2751  0.3832 -0.3769
  145MOL0     C19470   2.064   6.479   0.668 -0.2160 -0.0003  0.1928
  145MOL0     O19471   2.189   6.440   0.612 -0.3359 -0.0628  0.0916
  145MOL0     C19472   2.221   6.381   0.483  0.7297  0.1925 -0.0924
  145MOL0     C19473   2.350   6.400   0.444  1.0649 -0.5062  0.5214
  145MOL0     C19474   2.400   6.363   0.316  1.0681  0.4586  0.6562
  145MOL0     C19475   2.310   6.291   0.232 -0.6740 -0.6857  1.1924
  145MOL0     O19476   2.346   6.251   0.105  0.2067 -0.6959 -0.2493
  145MOL0     C19477   2.474   6.187   0.087 -0.1787 -1.0970  0.2550
  145MOL0     C19478   2.504   6.191  -0.062  0.4511 -0.0019  0.6395
  145MOL0     C19479   2.634   6.117  -0.094 -0.8831 -0.0271 -0.4633
  145MOL0     C19480   2.647   6.137  -0.244  0.4494 -0.8057 -0.2411
  145MOL0     C19481   2.773   6.059  -0.297  1.0780  1.0477 -0.1296
  145MOL0     C19482   2.909   6.116  -0.257  1.4595 -0.1749  0.3883
  145MOL0     C19483   3.006   6.026  -0.344  0.2840 -0.0931 -0.6249
  145MOL0     C19484   3.122   5.980  -0.270 -0.4044 -0.1672 -0.4518
  145MOL0    Cl19485   3.230   6.115  -0.232 -0.2564  0.3751 -0.0793
  145MOL0     C19486   2.181   6.282   0.266  0.9692 -0.3151  0.2986
  145MOL0     C19487   2.136   6.325   0.390  0.5369  0.0990  0.5993
  145MOL0     O19488   1.958   6.476   0.605 -0.3010  0.4377 -0.0148
  145MOL0     C19489   2.176   6.490   0.886  0.5860 -0.6347  0.3037
  145MOL0     C19490   2.179   6.535   1.020 -0.2724 -0.4584 -1.0157
  145MOL0     N19491   1.907   6.767   1.670 -0.1654 -0.3782  0.3388
  145MOL0     N19492   1.817   6.848   1.716 -0.1977  0.3920  0.4481
  145MOL0     C19493   1.683   7.447   2.824  0.4496  0.5058 -0.2098
  145MOL0     C19494   1.698   7.439   2.962  1.0610 -0.0259 -0.1574
  145MOL0     C19495   1.654   7.267   3.343 -0.1080  0.2064  0.1383
  145MOL0     C19496   1.633   7.356   3.448  0.3275  0.0901 -0.3402
  145MOL0     C19497   1.690   7.329   3.572 -0.3825 -0.2417 -0.5131
  145MOL0     C19498   1.777   7.217   3.603 -0.7333 -0.1512 -0.3724
  145MOL0     O19499   1.836   7.190   3.725 -0.4193 -0.6416  0.2327
  145MOL0     C19500   1.750   7.122   3.816  0.4682 -0.6164  0.2903
  145MOL0     C19501   1.760   7.170   3.957 -0.9829 -1.0168  0.1108
  145MOL0     C19502   1.909   7.209   3.997  0.4312 -0.5184 -0.4858
  145MOL0     C19503   2.016   7.101   3.989 -0.4037  0.4977  0.3757
  145MOL0     C19504   2.141   7.162   4.029 -0.3145  0.2224 -0.5078
  145MOL0     C19505   2.252   7.203   4.045  0.4078 -0.9194  0.1791
  145MOL0     C19506   1.791   7.128   3.501  1.1244 -0.1487 -0.1513
  145MOL0     C19507   1.723   7.146   3.374 -0.1632  0.6328 -0.5734
  145MOL0     H19508   1.384   7.486   3.062  0.3705 -0.6093 -0.6409
  145MOL0     H19509   1.358   7.541   2.807  0.0573 -0.8939 -1.2958
  145MOL0     H19510   1.684   7.344   2.609  0.0811  1.4030  1.1336
  145MOL0     H19511   1.529   7.307   2.522  0.8655  0.7371 -2.8374
  145MOL0     H19512   1.567   7.479   2.369  0.9311  1.3023  0.0455
  145MOL0     H19513   1.687   7.555   2.468  2.0346 -0.1099 -2.3185
  145MOL0     H19514   1.861   7.431   2.393  0.0664  1.2005 -0.5108
  145MOL0     H19515   1.764   7.278   2.400  1.4253  0.5040  1.4903
  145MOL0     H19516   1.660   7.340   2.182  1.2346 -1.5059  0.4582
  145MOL0     H19517   1.771   7.470   2.168 -1.7618  1.1051 -0.0995
  145MOL0     H19518   1.939   7.261   2.148  0.0748 -2.5241  1.4639
  145MOL0     H19519   1.798   7.157   2.184 -1.4799 -1.6466 -3.6433
  145MOL0     H19520   1.675   7.209   1.996  1.4460 -0.9040  0.2472
  145MOL0     H19521   1.802   7.334   1.938  2.6087 -1.4472 -1.3233
  145MOL0     H19522   1.965   7.146   1.938 -0.8829  2.6478 -2.8389
  145MOL0     H19523   1.835   7.032   2.001 -4.4646 -3.2452 -5.4673
  145MOL0     H19524   1.863   7.170   1.741 -0.3265  1.2878  1.1419
  145MOL0     H19525   1.711   7.091   1.801 -0.3259 -2.4036  3.0670
  145MOL0     H19526   2.096   7.016   1.762 -3.0180  1.6401  2.6948
  145MOL0     H19527   2.244   6.864   1.663  2.4994 -2.4463  0.6020
  145MOL0     H19528   2.216   6.702   1.699  2.4376 -1.9687 -2.0773
  145MOL0     H19529   2.301   6.731   1.446  0.6856  2.3687  0.7250
  145MOL0     H19530   2.161   6.825   1.423 -0.1443 -1.3152 -1.8037
  145MOL0     H19531   2.008   6.637   1.443  0.5148 -1.6967 -1.7601
  145MOL0     H19532   2.127   6.542   1.527  0.6209 -0.3286  1.3676
  145MOL0     H19533   2.138   6.461   1.313 -1.3937 -0.1087  1.9992
  145MOL0     H19534   2.255   6.584   1.278 -0.9260 -0.8466 -1.6991
  145MOL0     H19535   1.869   6.637   1.072 -0.9543 -0.7100 -1.6439
  145MOL0     H19536   1.789   6.609   0.726 -1.9864 -1.5956 -1.6950
  145MOL0     H19537   1.730   6.469   0.809 -2.1469  1.1497  2.3856
  145MOL0     H19538   1.726   6.628   0.889 -0.5010 -2.2747  1.4141
  145MOL0     H19539   2.413   6.452   0.516  0.0521 -1.8418  2.4728
  145MOL0     H19540   2.496   6.401   0.283  2.1330 -0.0984  2.9667
  145MOL0     H19541   2.544   6.256   0.137 -0.8641 -1.9657  2.5422
  145MOL0     H19542   2.479   6.087   0.131  3.7396 -0.8082  0.8435
  145MOL0     H19543   2.418   6.138  -0.104  0.1319  0.7196  0.3643
  145MOL0     H19544   2.505   6.290  -0.109 -1.6146 -0.8550 -1.3313
  145MOL0     H19545   2.631   6.010  -0.075  1.2516 -0.1551 -0.5687
  145MOL0     H19546   2.708   6.156  -0.024 -2.0973  0.8961  0.3452
  145MOL0     H19547   2.551   6.119  -0.292 -0.0220 -0.8689  0.6971
  145MOL0     H19548   2.663   6.245  -0.256 -1.8007 -0.4344 -0.1894
  145MOL0     H19549   2.758   6.057  -0.405 -1.9251  0.5902  0.2184
  145MOL0     H19550   2.767   5.954  -0.265 -0.1912  1.8449  2.5002
  145MOL0     H19551   2.910   6.223  -0.280 -2.6042  0.6478  3.0690
  145MOL0     H19552   2.931   6.104  -0.151  1.7451 -1.8990  0.1565
  145MOL0     H19553   3.038   6.089  -0.428 -0.1316  0.6583 -0.2246
  145MOL0     H19554   2.959   5.937  -0.388  2.2531 -1.5245  0.0089
  145MOL0     H19555   3.185   5.912  -0.328 -0.2418  0.7917 -1.4464
  145MOL0     H19556   3.084   5.940  -0.176  2.2113 -2.1273 -0.1200
  145MOL0     H19557   2.121   6.209   0.214  2.2758 -1.1765 -0.0558
  145MOL0     H19558   2.029   6.315   0.404  0.4033 -2.1874 -1.4411
  145MOL0     H19559   2.268   6.472   0.830 -0.5261 -0.7307 -1.5673
  145MOL0     H19560   2.272   6.525   1.076  0.8302  1.7005 -2.3265
  145MOL0     H19561   1.767   7.437   2.756  0.9112 -0.3988  0.4737
  145MOL0     H19562   1.792   7.430   3.016 -0.8126  1.7647  3.8050
  145MOL0     H19563   1.572   7.444   3.428  0.5522  0.7732  1.7430
  145MOL0     H19564   1.672   7.401   3.652 -1.4584 -1.6563  0.5787
  145MOL0     H19565   1.647   7.123   3.780 -0.1656  0.4273  2.0144
  145MOL0     H19566   1.765   7.014   3.819 -2.5706 -1.1678 -1.1453
  145MOL0     H19567   1.724   7.085   4.015 -3.0026 -0.3847 -0.1473
  145MOL0     H19568   1.693   7.255   3.972  1.1758  0.5842  1.3126
  145MOL0     H19569   1.892   7.249   4.098  1.3244  1.3136 -1.0252
  145MOL0     H19570   1.942   7.292   3.934 -0.3160  0.9569  0.9868
  145MOL0     H19571   2.028   7.064   3.886  2.5732  0.6718  0.5593
  145MOL0     H19572   1.988   7.016   4.052  2.5268  0.3935  1.6775
  145MOL0     H19573   2.354   7.227   4.067 -0.2556  0.4305  2.0586
  145MOL0     H19574   1.862   7.047   3.512 -1.1908 -2.1259  1.5721
  145MOL0     H19575   1.740   7.069   3.299  1.6949 -0.1081  0.5305
  146MOL0     O19576   1.889   3.189   4.024 -0.2773 -0.6465  0.0970
  146MOL0     C19577   1.817   3.222   3.929  0.2963  0.0995 -1.4336
  146MOL0     O19578   1.769   3.350   3.907  0.3207  0.4850  0.3731
  146MOL0     C19579   1.814   3.447   3.998 -0.1368 -0.0548  0.2844
  146MOL0     C19580   1.781   3.444   4.138 -1.0014  0.2883  0.9249
  146MOL0     C19581   1.831   3.530   4.228 -0.0185  0.7322 -0.0713
  146MOL0     C19582   1.906   3.636   4.195 -0.8510  0.2841  0.0076
  146MOL0     O19583   1.941   3.714   4.296 -0.3085 -0.1011 -0.1960
  146MOL0     C19584   1.995   3.847   4.265  0.3688 -1.0984  0.0054
  146MOL0     C19585   1.950   3.954   4.369 -0.0938 -0.6341 -0.0298
  146MOL0     C19586   2.064   3.993   4.459 -0.5128 -0.0117 -0.0697
  146MOL0     C19587   2.020   4.062   4.585 -0.0998 -0.7547 -0.1054
  146MOL0     C19588   1.953   4.208   4.566  0.0754 -0.7396 -0.7187
  146MOL0     C19589   1.910   4.278   4.703 -0.4022 -0.2248  0.6983
  146MOL0     C19590   1.779   4.232   4.767 -0.1610  0.4086 -0.2025
  146MOL0     C19591   1.733   4.321   4.890 -0.2332  0.4883  0.3538
  146MOL0     N19592   1.588   4.341   4.883  0.2845  0.7025  0.2147
  146MOL0     C19593   1.524   4.416   4.785 -0.4058 -0.0186  0.1831
  146MOL0     C19594   1.397   4.407   4.830 -0.8247  0.4874 -0.0312
  146MOL0     C19595   1.279   4.428   4.741 -0.7707  0.1103  0.1974
  146MOL0     C19596   1.309   4.474   4.602  0.1097  0.7162  0.4292
  146MOL0     C19597   1.198   4.549   4.530  0.1751 -0.4293 -0.1288
  146MOL0     C19598   1.099   4.440   4.478 -0.0945  0.3527  0.2170
  146MOL0     O19599   1.172   4.357   4.391  0.1700  0.0359  0.2703
  146MOL0     C19600   1.111   4.240   4.345 -0.2268 -0.1041 -0.3154
  146MOL0     C19601   0.973   4.223   4.337  0.2293 -0.8255  0.1380
  146MOL0     C19602   0.922   4.120   4.268  0.6856 -0.5900 -0.1451
  146MOL0     C19603   0.773   4.120   4.277  0.2153  0.0642  0.6367
  146MOL0     C19604   1.002   4.019   4.211 -0.0145  0.5965 -0.0591
  146MOL0     C19605   0.946   3.904   4.141  1.2383 -0.3815 -0.2336
  146MOL0     O19606   1.024   3.795   4.131  0.1065  0.2197  1.1753
  146MOL0     C19607   0.967   3.672   4.103  0.2302 -0.0593 -0.9123
  146MOL0     C19608   0.829   3.642   4.110  0.5941 -0.4880  0.1355
  146MOL0     C19609   0.771   3.513   4.093 -0.2741 -1.1089  0.9242
  146MOL0     C19610   0.866   3.406   4.068  0.1038  0.0361  0.8468
  146MOL0     O19611   0.809   3.280   4.040 -0.2167  0.1439 -0.0707
  146MOL0     C19612   0.883   3.159   4.036 -0.5596 -0.7341  0.0891
  146MOL0     C19613   0.791   3.037   4.018  1.0462 -0.0607  0.3570
  146MOL0     C19614   0.746   2.992   4.164  0.1583 -0.4153  0.5720
  146MOL0     C19615   0.734   2.830   4.180 -0.1235 -0.1934 -0.4158
  146MOL0     C19616   0.699   2.794   4.321 -0.0114 -0.2735 -0.2047
  146MOL0     C19617   0.552   2.790   4.350 -0.2371  0.1799  0.1536
  146MOL0     C19618   0.475   2.683   4.265 -0.8974  0.9172 -0.3010
  146MOL0     C19619   0.509   2.539   4.319 -0.6794  0.2437 -0.7985
  146MOL0    Cl19620   0.395   2.432   4.243  0.2027  0.2133  0.6922
  146MOL0     C19621   1.003   3.429   4.053 -0.4446  0.3239 -0.6635
  146MOL0     C19622   1.052   3.561   4.083  0.5580 -0.0635  0.4796
  146MOL0     O19623   0.844   3.923   4.079 -0.2378  0.2467 -0.1515
  146MOL0     C19624   1.145   4.032   4.228 -0.3126 -0.2151 -0.5880
  146MOL0     C19625   1.200   4.145   4.295 -0.7319  0.5712 -0.8677
  146MOL0     N19626   1.388   4.348   4.948 -0.6097 -1.1159  0.7791
  146MOL0     N19627   1.505   4.305   4.983  0.6012 -0.4509  0.3688
  146MOL0     C19628   1.954   3.634   4.064  0.0178  0.6892  0.7779
  146MOL0     C19629   1.904   3.553   3.966 -0.3151  0.2134  0.1502
  146MOL0     C19630   1.749   3.116   3.854  0.7853 -0.0476 -0.0659
  146MOL0     C19631   1.664   3.139   3.744  0.8520  0.3882  0.5770
  146MOL0     C19632   1.608   3.033   3.666  0.0188 -0.0487  0.4529
  146MOL0     C19633   1.636   2.895   3.692 -0.5130 -0.6650 -0.3622
  146MOL0     O19634   1.572   2.809   3.604 -0.2390  0.4557  0.0068
  146MOL0     C19635   1.571   2.674   3.660  0.0870  0.3101 -0.1343
  146MOL0     C19636   1.493   2.586   3.562  0.3489  0.7040  0.4265
  146MOL0     C19637   1.480   2.443   3.601  0.6210 -0.5344 -0.1287
  146MOL0     C19638   1.438   2.379   3.474 -0.0022  0.6740  0.6030
  146MOL0     C19639   1.404   2.239   3.495  0.0943 -0.0411 -1.3545
  146MOL0     C19640   1.386   2.123   3.504 -0.2158 -0.1041  0.0820
  146MOL0     C19641   1.735   2.870   3.794 -0.4772 -0.4665 -0.1241
  146MOL0     C19642   1.785   2.980   3.874 -0.4519 -0.2698  0.9908
  146MOL0     H19643   1.711   3.369   4.173 -1.3161  0.9733  1.7822
  146MOL0     H19644   1.794   3.522   4.330 -3.7390  1.4698 -1.1941
  146MOL0     H19645   2.104   3.843   4.260  0.3428 -0.5632 -1.3476
  146MOL0     H19646   1.966   3.880   4.165  0.5248 -1.0169 -0.0133
  146MOL0     H19647   1.918   4.042   4.313 -1.3696  0.8837  2.9057
  146MOL0     H19648   1.865   3.909   4.421 -0.4337  0.0996  0.0564
  146MOL0     H19649   2.115   3.899   4.481  1.1301  0.2364 -2.4859
  146MOL0     H19650   2.138   4.062   4.417 -1.5188  1.4763  0.5108
  146MOL0     H19651   1.957   3.988   4.635 -0.0039  0.1142  1.3675
  146MOL0     H19652   2.111   4.064   4.646 -0.0677 -0.4784 -0.1611
  146MOL0     H19653   2.030   4.262   4.510  0.7736 -2.7178 -1.7371
  146MOL0     H19654   1.862   4.208   4.504  0.6681  3.1496 -1.8437
  146MOL0     H19655   1.983   4.249   4.779  0.1227  0.0252  0.2894
  146MOL0     H19656   1.917   4.385   4.681 -3.2456 -0.8518 -5.3552
  146MOL0     H19657   1.696   4.241   4.697 -0.3689  2.5855  0.2596
  146MOL0     H19658   1.773   4.126   4.794 -1.9823  1.0793  2.4743
  146MOL0     H19659   1.792   4.412   4.878  3.0036 -1.2197  1.8208
  146MOL0     H19660   1.759   4.270   4.984 -0.2831  2.1888  1.3163
  146MOL0     H19661   1.555   4.431   4.681  0.1136 -3.6615 -0.2989
  146MOL0     H19662   1.222   4.335   4.730 -1.3874  0.1287  2.6049
  146MOL0     H19663   1.218   4.505   4.791  1.4012  1.4133  0.9496
  146MOL0     H19664   1.341   4.390   4.539 -1.6476  1.1293 -1.0989
  146MOL0     H19665   1.399   4.535   4.609  0.9291 -0.3160 -0.6625
  146MOL0     H19666   1.234   4.608   4.446 -0.4486  1.3893  0.8212
  146MOL0     H19667   1.143   4.622   4.590 -0.1360 -1.0451  0.3521
  146MOL0     H19668   1.013   4.489   4.431  1.8326  1.3443 -2.5253
  146MOL0     H19669   1.057   4.386   4.564  0.3966  0.7736  0.7273
  146MOL0     H19670   0.918   4.284   4.409  0.5641 -1.6935  1.1628
  146MOL0     H19671   0.741   4.030   4.330 -0.3684  0.9795  1.8837
  146MOL0     H19672   0.733   4.202   4.339  2.8583  0.4035  2.0219
  146MOL0     H19673   0.721   4.122   4.181  0.4068 -1.5023  0.4827
  146MOL0     H19674   0.760   3.722   4.136  1.2157  0.7235 -1.7091
  146MOL0     H19675   0.664   3.497   4.103 -0.7674  2.6432  5.7863
  146MOL0     H19676   0.934   3.168   3.939  0.0446 -2.1650  0.2510
  146MOL0     H19677   0.957   3.145   4.115 -0.5779  0.8491  0.4273
  146MOL0     H19678   0.707   3.070   3.957  1.2369  1.3837  0.8294
  146MOL0     H19679   0.847   2.954   3.975  2.6758  0.4416  1.4184
  146MOL0     H19680   0.652   3.038   4.197  0.3565 -0.0598  0.6429
  146MOL0     H19681   0.824   3.015   4.237  2.0682 -2.4406 -0.7019
  146MOL0     H19682   0.681   2.793   4.092  1.5253  0.8615 -1.9098
  146MOL0     H19683   0.836   2.792   4.164  1.3382  1.8592  2.9426
  146MOL0     H19684   0.737   2.875   4.384  0.3415 -0.6271  0.0347
  146MOL0     H19685   0.738   2.699   4.358 -0.1071  0.9608  3.4621
  146MOL0     H19686   0.536   2.770   4.456  3.8158  0.0794  0.9157
  146MOL0     H19687   0.515   2.892   4.333 -1.4906  0.0167  1.7063
  146MOL0     H19688   0.499   2.692   4.158  2.8800  0.1840  0.3510
  146MOL0     H19689   0.368   2.689   4.286 -0.4530  1.2422  2.1083
  146MOL0     H19690   0.491   2.542   4.427  4.6953  2.3949  0.3352
  146MOL0     H19691   0.614   2.515   4.303 -1.1168 -4.5338  1.7895
  146MOL0     H19692   1.072   3.346   4.039 -0.3472  0.1951  0.4960
  146MOL0     H19693   1.156   3.574   4.110  0.9702  1.4417 -1.5098
  146MOL0     H19694   1.215   3.961   4.185 -1.7060 -2.0564  0.0742
  146MOL0     H19695   1.307   4.165   4.297 -0.6809  0.2547 -0.4683
  146MOL0     H19696   2.027   3.701   4.018  0.4701 -2.1507 -3.1950
  146MOL0     H19697   1.931   3.546   3.861  2.1436 -1.5183  0.8241
  146MOL0     H19698   1.637   3.242   3.722  1.9746  0.6133  0.2043
  146MOL0     H19699   1.532   3.063   3.595  0.2543  1.8337  0.9399
  146MOL0     H19700   1.671   2.630   3.666 -0.6620 -1.2849  1.4733
  146MOL0     H19701   1.517   2.671   3.755 -1.1827 -1.0948 -0.8749
  146MOL0     H19702   1.542   2.585   3.464 -1.6794  0.4629 -0.6464
  146MOL0     H19703   1.397   2.635   3.542 -1.1297 -1.9514  0.5927
  146MOL0     H19704   1.411   2.433   3.685  2.8247 -0.3080  1.8334
  146MOL0     H19705   1.578   2.402   3.629  1.3722  0.6289 -0.9406
  146MOL0     H19706   1.524   2.388   3.408 -0.3946  1.4562  0.1774
  146MOL0     H19707   1.351   2.413   3.416 -1.8938 -6.1135 -1.4863
  146MOL0     H19708   1.348   2.023   3.510 -3.8190  1.1990  2.5641
  146MOL0     H19709   1.786   2.777   3.817 -0.0627 -0.0648  0.6176
  146MOL0     H19710   1.869   2.953   3.936  1.9599  0.2158 -1.8428
  147MOL0     O19711   4.484  10.041   6.213  0.9916  0.1435  0.3955
  147MOL0     C19712   4.588  10.008   6.155  0.5594  0.3393 -0.6534
  147MOL0     O19713   4.708  10.059   6.186  0.4219 -0.5314  0.8729
  147MOL0     C19714   4.730  10.125   6.304  1.1044  0.7027  0.7193
  147MOL0     C19715   4.721  10.260   6.312 -0.4433 -0.0589  0.3766
  147MOL0     C19716   4.722  10.318   6.438 -0.8386 -0.1668 -0.0754
  147MOL0     C19717   4.750  10.240   6.549  1.8629 -0.0473  0.2868
  147MOL0     O19718   4.769  10.293   6.675 -0.1976 -0.5788 -0.6166
  147MOL0     C19719   4.871  10.240   6.756  0.0315  0.8892 -1.4186
  147MOL0     C19720   4.956  10.349   6.818 -0.5151  0.0337 -0.3213
  147MOL0     C19721   4.853  10.431   6.912 -0.5880 -0.0052 -0.4238
  147MOL0     C19722   4.874  10.584   6.904  0.0451  0.0464  0.5501
  147MOL0     C19723   4.759  10.658   6.965 -0.6777  0.8155  0.1031
  147MOL0     C19724   4.811  10.795   6.998  1.1401 -1.0113 -0.0874
  147MOL0     C19725   4.699  10.885   7.054  0.2662  0.0538 -0.2186
  147MOL0     C19726   4.647  10.861   7.189  0.6799 -0.7631  1.0338
  147MOL0     N19727   4.743  10.860   7.297 -0.0439 -0.1558  0.0139
  147MOL0     C19728   4.710  10.815   7.429 -0.1007 -0.1845  1.1188
  147MOL0     C19729   4.816  10.854   7.504  0.4685  1.0757 -0.4282
  147MOL0     C19730   4.834  10.826   7.651 -0.0751 -0.2842  0.2268
  147MOL0     C19731   4.851  10.679   7.696 -0.3587 -0.8403 -0.7206
  147MOL0     C19732   4.722  10.630   7.752 -0.3659  0.3450  0.0948
  147MOL0     C19733   4.725  10.491   7.826 -1.0593 -0.1662  1.3005
  147MOL0     O19734   4.833  10.501   7.923 -0.2550 -0.3175 -0.6938
  147MOL0     C19735   4.832  10.556   8.046  0.1707 -0.5092  0.7263
  147MOL0     C19736   4.965  10.579   8.104  0.7628  0.2379 -0.2189
  147MOL0     C19737   4.973  10.625   8.239  0.3909 -0.9691  0.1902
  147MOL0     C19738   5.109  10.635   8.304 -0.4350 -0.5730  0.9042
  147MOL0     C19739   4.862  10.667   8.309 -0.2048  0.1861 -0.7431
  147MOL0     C19740   4.864  10.726   8.449 -0.5598 -0.0338 -0.4565
  147MOL0     O19741   4.742  10.775   8.481 -0.1608  0.2305 -0.3175
  147MOL0     C19742   4.734  10.834   8.607 -0.1033  0.2891  0.2833
  147MOL0     C19743   4.752  10.760   8.729 -0.3381 -0.1181 -0.9233
  147MOL0     C19744   4.713  10.811   8.852  0.9470 -1.0565 -0.7929
  147MOL0     C19745   4.657  10.943   8.848 -0.5747 -0.3209 -0.5735
  147MOL0     O19746   4.609  11.005   8.961  0.5929 -0.1258  0.0584
  147MOL0     C19747   4.469  11.044   8.954  0.0243 -0.6857 -0.2975
  147MOL0     C19748   4.399  11.039   9.087 -0.1596 -0.9617 -0.1749
  147MOL0     C19749   4.345  10.899   9.126 -0.8085 -0.1486  0.6109
  147MOL0     C19750   4.438  10.778   9.116 -0.3527 -1.1846  0.0794
  147MOL0     C19751   4.559  10.769   9.218 -0.0621  0.2884 -0.3980
  147MOL0     C19752   4.512  10.737   9.363  0.4167  0.5385 -0.1184
  147MOL0     C19753   4.628  10.754   9.464  0.2842 -0.3022  0.6143
  147MOL0     C19754   4.587  10.670   9.578 -0.3716 -0.1755  0.1552
  147MOL0    Cl19755   4.699  10.667   9.721  0.1954 -0.2128  0.2660
  147MOL0     C19756   4.654  11.022   8.737  0.1914 -0.3441 -0.0917
  147MOL0     C19757   4.690  10.963   8.615  0.6289  1.0651  0.3565
  147MOL0     O19758   4.974  10.745   8.509 -0.2471  0.5656  0.5333
  147MOL0     C19759   4.739  10.656   8.242 -0.2215  0.4815  0.2754
  147MOL0     C19760   4.720  10.586   8.123 -0.4619 -0.5825  0.9222
  147MOL0     N19761   4.913  10.914   7.429 -0.7307  0.4775 -0.2837
  147MOL0     N19762   4.867  10.917   7.307 -0.2311  0.3935 -0.4402
  147MOL0     C19763   4.755  10.098   6.540  0.1648  0.0838  0.0845
  147MOL0     C19764   4.739  10.040   6.413 -0.2762  0.1975  1.1749
  147MOL0     C19765   4.575   9.913   6.048  0.0649  0.8737  0.1645
  147MOL0     C19766   4.672   9.907   5.947  0.8939 -0.0654  0.2496
  147MOL0     C19767   4.675   9.823   5.835 -0.0647 -0.0502 -0.4200
  147MOL0     C19768   4.562   9.743   5.818  0.5906 -0.1202 -0.2120
  147MOL0     O19769   4.533   9.658   5.720 -0.4073  0.7696 -1.3740
  147MOL0     C19770   4.617   9.665   5.606  0.0871 -0.1717  0.0265
  147MOL0     C19771   4.569   9.549   5.526 -0.7510  0.0464  0.9167
  147MOL0     C19772   4.611   9.413   5.565  0.7561  0.3270  0.3644
  147MOL0     C19773   4.760   9.401   5.593 -0.3649 -0.0684  0.0881
  147MOL0     C19774   4.820   9.278   5.545 -0.1837  0.1634  0.7063
  147MOL0     C19775   4.886   9.181   5.518 -0.1411 -0.2452 -0.0834
  147MOL0     C19776   4.458   9.747   5.915 -0.2056 -0.7456  0.5060
  147MOL0     C19777   4.461   9.837   6.022  0.4326 -0.7181 -0.7008
  147MOL0     H19778   4.704  10.309   6.217 -3.7989 -1.9984 -0.1996
  147MOL0     H19779   4.723  10.426   6.450  0.4954 -0.4161  3.2664
  147MOL0     H19780   4.827  10.171   6.829  0.1079  2.2519 -0.0403
  147MOL0     H19781   4.937  10.180   6.693 -3.6485  0.0673 -4.8727
  147MOL0     H19782   5.035  10.307   6.881  0.3496  4.4102  1.8976
  147MOL0     H19783   5.003  10.408   6.739 -0.0710  0.4139  0.2183
  147MOL0     H19784   4.749  10.407   6.888 -0.0769 -2.1564 -0.6232
  147MOL0     H19785   4.875  10.413   7.017  0.5150  1.1490 -0.4303
  147MOL0     H19786   4.968  10.595   6.959  0.3201 -2.2780  0.6648
  147MOL0     H19787   4.888  10.619   6.801 -0.2181 -0.7813  0.2263
  147MOL0     H19788   4.691  10.672   6.880 -1.6264  1.4903  0.9530
  147MOL0     H19789   4.722  10.604   7.052 -1.2783 -0.2384 -0.7880
  147MOL0     H19790   4.891  10.789   7.073  0.2688  3.7910  1.6077
  147MOL0     H19791   4.847  10.834   6.903  2.5672  0.4107  0.9835
  147MOL0     H19792   4.756  10.979   7.055  0.2338  0.0882 -0.8995
  147MOL0     H19793   4.623  10.890   6.976 -1.1185  0.8022  1.1380
  147MOL0     H19794   4.579  10.776   7.189  2.3291 -2.1938  3.2915
  147MOL0     H19795   4.587  10.952   7.196  0.7126 -0.1628 -3.5329
  147MOL0     H19796   4.620  10.762   7.459  1.2186 -2.3496  1.4379
  147MOL0     H19797   4.921  10.881   7.687 -0.5219 -0.5046  1.6908
  147MOL0     H19798   4.749  10.874   7.701  1.3248  3.1523 -0.4258
  147MOL0     H19799   4.931  10.672   7.770 -3.5648 -2.1843  2.9579
  147MOL0     H19800   4.873  10.611   7.613  0.3968 -1.7062  0.1672
  147MOL0     H19801   4.639  10.633   7.681 -2.6022 -2.1830  2.3762
  147MOL0     H19802   4.707  10.706   7.829  1.7070  1.8080 -0.8706
  147MOL0     H19803   4.746  10.411   7.755 -0.5368 -2.3692  3.7792
  147MOL0     H19804   4.636  10.464   7.883 -1.0384  2.0233  2.4861
  147MOL0     H19805   5.053  10.549   8.048  0.0557 -1.4867 -0.4615
  147MOL0     H19806   5.177  10.605   8.224 -0.8979  1.9369 -0.5569
  147MOL0     H19807   5.142  10.739   8.311 -2.2096  0.0585  0.5259
  147MOL0     H19808   5.123  10.592   8.403  1.8790  0.2340  0.9846
  147MOL0     H19809   4.798  10.662   8.746  0.0520  0.5829  2.9487
  147MOL0     H19810   4.714  10.768   8.951  1.0208  1.7520  0.5156
  147MOL0     H19811   4.463  11.151   8.928 -3.0385 -0.4464  1.0116
  147MOL0     H19812   4.418  10.988   8.876 -1.5507  0.0710  0.1425
  147MOL0     H19813   4.462  11.089   9.160  0.4746  0.7642 -1.8274
  147MOL0     H19814   4.307  11.099   9.088  1.1291  1.1052 -0.0217
  147MOL0     H19815   4.259  10.889   9.059  1.2164  0.4314 -2.2508
  147MOL0     H19816   4.296  10.899   9.225  0.1156  1.6201  1.0987
  147MOL0     H19817   4.364  10.697   9.121 -2.2571  0.2384 -2.5351
  147MOL0     H19818   4.486  10.762   9.020  3.1016  1.4880  1.1589
  147MOL0     H19819   4.608  10.866   9.212 -2.9441  1.9052  0.5888
  147MOL0     H19820   4.631  10.690   9.191  0.3870  0.9945 -1.3266
  147MOL0     H19821   4.437  10.811   9.392  2.5926  2.2010  1.6274
  147MOL0     H19822   4.476  10.634   9.370  3.1444 -0.6976 -2.2821
  147MOL0     H19823   4.629  10.861   9.487 -0.9573  0.4168 -2.2125
  147MOL0     H19824   4.722  10.712   9.426 -0.0146 -0.7404  0.3652
  147MOL0     H19825   4.595  10.569   9.539 -1.1161  0.9474 -3.1998
  147MOL0     H19826   4.487  10.698   9.615  1.3263  4.0349  2.3082
  147MOL0     H19827   4.600  11.116   8.744 -1.0749 -0.5772 -4.1960
  147MOL0     H19828   4.658  11.012   8.524  0.0129 -0.6367 -0.3844
  147MOL0     H19829   4.648  10.667   8.300 -0.2794  0.7143  0.1383
  147MOL0     H19830   4.622  10.559   8.084  0.0389 -0.2565 -0.6602
  147MOL0     H19831   4.777  10.037   6.627 -0.2120  1.8620  1.4701
  147MOL0     H19832   4.735   9.934   6.392 -0.0094  1.1673 -6.8915
  147MOL0     H19833   4.754   9.977   5.956  0.2482  0.5811  1.3984
  147MOL0     H19834   4.751   9.822   5.757 -2.4320 -0.8784 -2.8668
  147MOL0     H19835   4.604   9.757   5.550  3.2323  1.5094  1.7945
  147MOL0     H19836   4.724   9.651   5.620  0.6332 -0.0708 -3.2391
  147MOL0     H19837   4.609   9.562   5.425 -4.5391 -0.0149 -0.7749
  147MOL0     H19838   4.460   9.557   5.521 -0.6941  2.7840  2.4771
  147MOL0     H19839   4.581   9.340   5.488  0.5164  0.1634  0.6122
  147MOL0     H19840   4.558   9.388   5.657  0.4019  1.6105  0.5257
  147MOL0     H19841   4.766   9.401   5.702  1.0406 -7.0222  0.4505
  147MOL0     H19842   4.812   9.486   5.547  1.2952 -2.0971 -2.0223
  147MOL0     H19843   4.920   9.084   5.489 -4.0240 -1.5050 -0.9375
  147MOL0     H19844   4.376   9.684   5.883  1.5007 -1.9166 -1.8407
  147MOL0     H19845   4.373   9.862   6.080  0.1956 -2.3677 -0.3175
  148MOL0     O19846   2.403   8.628   6.267  0.2400  0.6543 -0.3731
  148MOL0     C19847   2.493   8.697   6.220 -0.0240  0.5737 -0.3196
  148MOL0     O19848   2.600   8.745   6.291 -0.1434  0.6674  0.4018
  148MOL0     C19849   2.608   8.727   6.426 -0.2229  1.2549 -0.6679
  148MOL0     C19850   2.614   8.829   6.515 -0.2578 -0.5129 -0.2022
  148MOL0     C19851   2.649   8.809   6.650 -0.0654 -0.3502  1.0517
  148MOL0     C19852   2.683   8.683   6.697 -0.8474 -0.7991  0.2723
  148MOL0     O19853   2.718   8.649   6.822  0.2290  0.0932 -0.9037
  148MOL0     C19854   2.752   8.740   6.922 -0.4073  0.1893 -0.1567
  148MOL0     C19855   2.863   8.680   6.999 -0.3872  0.5066  0.0676
  148MOL0     C19856   2.834   8.577   7.117  0.5425 -0.4716  0.0732
  148MOL0     C19857   2.716   8.626   7.204  0.0025 -0.0005  0.6597
  148MOL0     C19858   2.709   8.561   7.346 -0.0973  0.3156  0.0886
  148MOL0     C19859   2.620   8.431   7.349 -0.2206 -0.1887 -0.3013
  148MOL0     C19860   2.689   8.304   7.310  1.2384  0.2676 -0.5721
  148MOL0     C19861   2.611   8.163   7.319 -0.1489 -0.3023  0.4334
  148MOL0     N19862   2.499   8.135   7.225 -0.0675  0.1024 -1.8029
  148MOL0     C19863   2.462   8.218   7.120  0.3340 -0.4437  0.6318
  148MOL0     C19864   2.339   8.165   7.082 -0.4739  1.3502  0.1588
  148MOL0     C19865   2.248   8.227   6.977 -0.4549  0.0324  0.3297
  148MOL0     C19866   2.193   8.367   7.008  0.4210  0.3014  0.1699
  148MOL0     C19867   2.069   8.395   6.918  0.8127  0.1992  0.4900
  148MOL0     C19868   2.005   8.536   6.943 -0.1633 -0.1105  0.1859
  148MOL0     O19869   2.107   8.646   6.912  0.2358 -0.0316 -0.1615
  148MOL0     C19870   2.061   8.772   6.866 -0.0455  0.2515 -0.8209
  148MOL0     C19871   2.159   8.852   6.821 -0.5797 -0.1895 -0.4598
  148MOL0     C19872   2.127   8.975   6.761 -0.3426 -0.6415 -0.6111
  148MOL0     C19873   2.241   9.072   6.729 -1.8761  0.3756  0.2974
  148MOL0     C19874   1.991   9.013   6.754  0.4023 -0.3815  0.2492
  148MOL0     C19875   1.964   9.148   6.699  0.1854  0.6742 -0.3854
  148MOL0     O19876   2.022   9.262   6.731  0.4354 -0.1439  0.6722
  148MOL0     C19877   2.030   9.374   6.648 -0.6297  0.1115  1.0202
  148MOL0     C19878   2.030   9.362   6.513  0.3502 -0.6631  0.1482
  148MOL0     C19879   2.030   9.486   6.440  0.0390 -0.0586  0.0841
  148MOL0     C19880   2.040   9.620   6.497 -0.6778  0.0865 -0.2723
  148MOL0     O19881   2.060   9.725   6.421  0.0064 -0.2215  0.3622
  148MOL0     C19882   1.995   9.839   6.472  1.1528  0.0390 -0.5705
  148MOL0     C19883   1.972   9.958   6.379  0.2460  0.0528  0.1413
  148MOL0     C19884   1.959   9.902   6.237 -0.6663  0.6152 -1.2925
  148MOL0     C19885   1.947  10.007   6.128  0.2501  0.6747 -0.4567
  148MOL0     C19886   1.818  10.027   6.049 -0.0123  0.6958  0.4392
  148MOL0     C19887   1.685  10.068   6.123  0.3164  0.0766  0.3273
  148MOL0     C19888   1.680  10.213   6.176  0.8540 -1.7115 -0.5380
  148MOL0     C19889   1.567  10.241   6.276  0.1790  0.4985 -0.3671
  148MOL0    Cl19890   1.415  10.243   6.181  0.5920 -0.3745  0.2394
  148MOL0     C19891   2.063   9.621   6.637  0.5851  0.2078 -0.1742
  148MOL0     C19892   2.054   9.497   6.710  1.1004  0.5474  0.3714
  148MOL0     O19893   1.896   9.132   6.600 -0.3093 -0.0087 -0.1952
  148MOL0     C19894   1.893   8.927   6.798 -0.1075 -0.4013  0.1300
  148MOL0     C19895   1.925   8.812   6.866  0.3723 -0.4984  0.1785
  148MOL0     N19896   2.314   8.047   7.159  0.6967 -0.8755 -0.6702
  148MOL0     N19897   2.408   8.035   7.250  0.2562 -0.3637  0.3656
  148MOL0     C19898   2.684   8.579   6.605 -0.5505  0.0462 -0.1340
  148MOL0     C19899   2.641   8.599   6.474 -0.2492 -0.7910  0.4683
  148MOL0     C19900   2.495   8.715   6.072  0.2730 -0.1714 -0.1771
  148MOL0     C19901   2.402   8.637   5.997 -0.3446 -0.7617 -0.4327
  148MOL0     C19902   2.408   8.640   5.859 -0.5935 -0.6916  0.7785
  148MOL0     C19903   2.503   8.718   5.786  0.5802  0.1315 -0.4526
  148MOL0     O19904   2.503   8.725   5.644 -0.3548  0.2394 -0.7629
  148MOL0     C19905   2.400   8.655   5.559 -0.5936  0.2953 -0.0278
  148MOL0     C19906   2.429   8.674   5.407 -0.3698 -0.0482 -0.0716
  148MOL0     C19907   2.468   8.829   5.375  0.2961  0.1220 -0.5494
  148MOL0     C19908   2.500   8.859   5.222 -0.2858  0.4333 -0.3376
  148MOL0     C19909   2.380   8.825   5.143 -0.1070  0.5290  1.7085
  148MOL0     C19910   2.281   8.797   5.072 -0.5351  0.4713  0.1997
  148MOL0     C19911   2.595   8.796   5.863  0.6192  0.5091 -0.2716
  148MOL0     C19912   2.591   8.798   6.013  0.2601 -0.1685 -0.2518
  148MOL0     H19913   2.608   8.932   6.481 -0.2660 -0.7095 -0.8222
  148MOL0     H19914   2.636   8.890   6.721  0.8635 -0.0542  0.9065
  148MOL0     H19915   2.787   8.826   6.865 -0.9954  0.0203 -0.7845
  148MOL0     H19916   2.664   8.761   6.985 -0.6976  2.0246 -1.1124
  148MOL0     H19917   2.927   8.624   6.930  0.0655 -0.5684  1.3050
  148MOL0     H19918   2.913   8.768   7.039 -2.0739  3.0491 -2.9679
  148MOL0     H19919   2.813   8.478   7.076  2.0700 -0.9550  0.3771
  148MOL0     H19920   2.926   8.558   7.172 -0.0683 -1.6072  0.7277
  148MOL0     H19921   2.724   8.734   7.223  1.5923 -0.0483  0.4488
  148MOL0     H19922   2.624   8.604   7.149  1.0922 -4.0274  0.1321
  148MOL0     H19923   2.809   8.530   7.377  0.6310 -4.3966 -5.2544
  148MOL0     H19924   2.668   8.628   7.422 -2.4303  1.3023 -1.9070
  148MOL0     H19925   2.559   8.418   7.439 -2.0218  0.7488 -1.3060
  148MOL0     H19926   2.545   8.449   7.271  0.3768 -2.0428 -1.3665
  148MOL0     H19927   2.718   8.309   7.205 -0.1135 -2.8268 -1.2331
  148MOL0     H19928   2.772   8.285   7.379  1.3325  2.8903  0.1137
  148MOL0     H19929   2.556   8.145   7.412 -3.6598  0.3937 -1.3321
  148MOL0     H19930   2.689   8.087   7.304  0.9918  0.8187  0.4923
  148MOL0     H19931   2.512   8.306   7.082  2.6954 -0.4730  3.3816
  148MOL0     H19932   2.303   8.220   6.882  0.7254 -1.9321  1.0981
  148MOL0     H19933   2.154   8.171   6.970 -1.0409  1.1382 -0.9800
  148MOL0     H19934   2.267   8.446   6.991 -3.7237  4.7661  0.6157
  148MOL0     H19935   2.168   8.377   7.114  0.9084  3.3866  0.0876
  148MOL0     H19936   1.995   8.316   6.929 -0.1452  1.1572  1.2066
  148MOL0     H19937   2.098   8.397   6.813  1.0193  4.0812  0.4557
  148MOL0     H19938   1.981   8.537   7.050  1.0535  2.3246  0.5214
  148MOL0     H19939   1.920   8.553   6.877  0.5058  0.3281 -0.5830
  148MOL0     H19940   2.264   8.824   6.816 -0.0120  1.7018  0.1394
  148MOL0     H19941   2.226   9.130   6.638  0.3815  1.8139  0.7569
  148MOL0     H19942   2.260   9.138   6.814 -0.4729 -0.7445  0.8919
  148MOL0     H19943   2.331   9.012   6.710 -1.1399  0.4074  3.2550
  148MOL0     H19944   2.037   9.269   6.458  3.0887 -1.8692  2.3214
  148MOL0     H19945   2.028   9.467   6.333 -0.5405  0.8735 -0.0806
  148MOL0     H19946   1.895   9.806   6.503  1.6513 -2.1972 -1.1280
  148MOL0     H19947   2.050   9.872   6.560  4.4931 -2.3524 -1.5198
  148MOL0     H19948   1.885  10.010   6.419  0.9037  1.3517 -0.0464
  148MOL0     H19949   2.061  10.023   6.382  0.6449 -0.3538 -1.6523
  148MOL0     H19950   1.868   9.842   6.247 -1.1269  1.7036  2.4966
  148MOL0     H19951   2.045   9.841   6.209  0.9895  2.6476 -0.8652
  148MOL0     H19952   1.971  10.100   6.181  0.8894  0.4431 -0.3226
  148MOL0     H19953   2.026  10.013   6.053  1.8901 -1.7570  0.9289
  148MOL0     H19954   1.812   9.940   5.984  3.0635  3.4073 -3.9895
  148MOL0     H19955   1.833  10.107   5.976 -0.5356  0.0299 -0.4095
  148MOL0     H19956   1.611  10.053   6.044  0.9478  0.2088 -0.2895
  148MOL0     H19957   1.658  10.007   6.210 -0.6907  0.4521  0.2937
  148MOL0     H19958   1.677  10.295   6.103 -1.3301 -0.5256  0.7815
  148MOL0     H19959   1.775  10.217   6.230  0.7267  0.7149 -0.3992
  148MOL0     H19960   1.580  10.334   6.331 -0.6419  1.5143 -1.8159
  148MOL0     H19961   1.567  10.161   6.351  2.4208  1.3821  0.6554
  148MOL0     H19962   2.073   9.708   6.702 -0.7752  0.8762 -0.8230
  148MOL0     H19963   2.055   9.510   6.817 -0.0832 -1.4056  0.6774
  148MOL0     H19964   1.792   8.965   6.790  1.2022  3.3095 -0.9848
  148MOL0     H19965   1.834   8.762   6.899  0.5341  0.1637  1.7164
  148MOL0     H19966   2.714   8.484   6.649 -1.6351  1.2008  3.4030
  148MOL0     H19967   2.637   8.522   6.398 -1.3367 -0.1465 -0.1561
  148MOL0     H19968   2.332   8.578   6.054 -1.2754  2.1035  1.6184
  148MOL0     H19969   2.349   8.579   5.791 -1.0650  0.4529  0.1360
  148MOL0     H19970   2.398   8.547   5.577  1.0843 -0.0102 -1.3593
  148MOL0     H19971   2.298   8.689   5.578 -0.5087  0.4501  0.1504
  148MOL0     H19972   2.345   8.639   5.346 -2.3281  0.5279  2.1435
  148MOL0     H19973   2.520   8.624   5.373 -0.4411  1.6191 -2.9886
  148MOL0     H19974   2.563   8.829   5.429  0.7924 -5.1347 -0.9110
  148MOL0     H19975   2.395   8.898   5.417  0.5339 -0.5545  1.0275
  148MOL0     H19976   2.586   8.798   5.195  0.3486 -0.4414  3.1808
  148MOL0     H19977   2.527   8.964   5.210  1.2232  0.0240 -0.7250
  148MOL0     H19978   2.195   8.758   5.022 -0.4433 -0.3466  0.6599
  148MOL0     H19979   2.676   8.853   5.820  0.2725  0.9374 -0.3698
  148MOL0     H19980   2.664   8.850   6.073  1.2659 -2.2821  0.4702
  149MOL0     O19981  11.038   3.597   8.552 -0.5166  0.3296 -0.2609
  149MOL0     C19982  11.015   3.627   8.436  0.3366 -0.0915  0.4651
  149MOL0     O19983  10.914   3.707   8.392  0.4365 -0.6020  0.4493
  149MOL0     C19984  10.846   3.774   8.490 -0.0058 -0.0631  0.0986
  149MOL0     C19985  10.855   3.919   8.498 -0.5544  0.8510 -0.5075
  149MOL0     C19986  10.784   3.991   8.593  1.4378 -0.6510  0.5244
  149MOL0     C19987  10.694   3.932   8.677  0.0567 -0.4395 -0.5898
  149MOL0     O19988  10.628   4.018   8.769 -0.1719 -0.2452  0.3864
  149MOL0     C19989  10.533   3.972   8.863 -0.5968  0.6485 -0.3365
  149MOL0     C19990  10.483   4.091   8.941  1.0111  0.5757  0.4297
  149MOL0     C19991  10.370   4.182   8.880 -0.2009  0.7889 -1.4729
  149MOL0     C19992  10.232   4.120   8.853  0.4155 -1.3619  0.1271
  149MOL0     C19993  10.149   4.227   8.783  0.4062  0.9095  0.6373
  149MOL0     C19994  10.063   4.169   8.665 -0.5521 -0.2222  0.1718
  149MOL0     C19995   9.997   4.045   8.690  0.7992  0.1469  0.5796
  149MOL0     C19996   9.890   4.012   8.577  0.4027  0.2949  0.8247
  149MOL0     N19997   9.950   3.991   8.442  0.1880  0.6696 -0.3924
  149MOL0     C19998   9.908   4.042   8.324  0.1045 -0.3407 -0.0823
  149MOL0     C19999  10.007   4.007   8.241  0.4991 -0.2310 -0.1232
  149MOL0     C20000  10.017   4.046   8.098 -0.5913  1.2070  0.6477
  149MOL0     C20001   9.967   3.932   7.997  0.1536  0.9720  0.0141
  149MOL0     C20002   9.817   3.895   8.010  0.8502  0.0824  0.9888
  149MOL0     C20003   9.785   3.779   7.930 -0.3207 -0.0808  0.2113
  149MOL0     O20004   9.882   3.679   7.960 -0.0040 -0.0214  0.5954
  149MOL0     C20005   9.874   3.574   7.877 -1.3215 -0.6166  0.1714
  149MOL0     C20006   9.786   3.547   7.769 -0.0222 -0.5711 -0.1695
  149MOL0     C20007   9.795   3.434   7.687 -0.8150 -0.0476 -0.7633
  149MOL0     C20008   9.691   3.410   7.583 -0.4529 -0.1903 -0.8072
  149MOL0     C20009   9.896   3.342   7.716  0.8387  0.6158  0.3183
  149MOL0     C20010   9.908   3.212   7.643 -0.7093  0.8002  0.1811
  149MOL0     O20011   9.794   3.149   7.611 -0.5837  0.2408 -0.5053
  149MOL0     C20012   9.792   3.011   7.574 -0.2222 -0.0843 -0.1266
  149MOL0     C20013   9.690   2.932   7.634 -0.9599  0.3943  0.6691
  149MOL0     C20014   9.668   2.803   7.585 -0.3498 -0.5792  1.0975
  149MOL0     C20015   9.738   2.748   7.470  0.6239  0.1254 -0.7699
  149MOL0     O20016   9.705   2.617   7.432 -0.5326 -0.3356 -0.2630
  149MOL0     C20017   9.755   2.562   7.309 -0.0322  0.5041  0.0496
  149MOL0     C20018   9.756   2.405   7.325 -0.0138 -0.0584 -0.2021
  149MOL0     C20019   9.769   2.334   7.189 -0.1127 -0.4058 -0.6360
  149MOL0     C20020   9.751   2.181   7.189  0.5248  0.1622 -0.1754
  149MOL0     C20021   9.756   2.133   7.041 -0.5266 -0.3183  0.3428
  149MOL0     C20022   9.639   2.179   6.952  0.0938  0.6037  0.7381
  149MOL0     C20023   9.591   2.097   6.831 -0.0499  0.1290 -0.2945
  149MOL0     C20024   9.478   2.175   6.767  0.7463  0.1770  0.5072
  149MOL0    Cl20025   9.392   2.058   6.653  0.2007  0.0436 -0.2570
  149MOL0     C20026   9.842   2.830   7.413  0.8046  0.9547 -0.0194
  149MOL0     C20027   9.867   2.952   7.475 -0.4276  0.4845  0.6228
  149MOL0     O20028  10.024   3.172   7.629 -0.8827 -0.0942 -0.0772
  149MOL0     C20029   9.983   3.361   7.825 -0.0330 -1.3340 -0.0680
  149MOL0     C20030   9.974   3.479   7.895 -0.0110  0.1522 -0.9425
  149MOL0     N20031  10.093   3.912   8.303  0.4121 -0.0804  1.1272
  149MOL0     N20032  10.058   3.906   8.423 -0.1132 -0.4501 -0.1642
  149MOL0     C20033  10.690   3.796   8.674 -0.1917  0.7103 -0.3040
  149MOL0     C20034  10.760   3.716   8.575  0.5047 -0.2699 -1.3360
  149MOL0     C20035  11.102   3.572   8.334  0.2086 -0.4924  0.1262
  149MOL0     C20036  11.216   3.492   8.360 -0.4910 -0.2569 -0.3027
  149MOL0     C20037  11.285   3.429   8.261 -1.2729  0.4467 -0.6190
  149MOL0     C20038  11.247   3.446   8.129  0.8964  0.1076 -0.4911
  149MOL0     O20039  11.327   3.390   8.036 -0.2212  0.6896  0.9934
  149MOL0     C20040  11.411   3.492   7.967  0.6185  0.2904  0.8545
  149MOL0     C20041  11.492   3.453   7.840 -0.5103  0.7668  0.3798
  149MOL0     C20042  11.416   3.412   7.710 -0.6033 -0.7789 -0.3680
  149MOL0     C20043  11.521   3.406   7.591  1.6493 -1.1729 -0.5947
  149MOL0     C20044  11.614   3.298   7.596  0.1985 -0.1014 -0.3648
  149MOL0     C20045  11.669   3.191   7.581 -0.5167 -1.3826 -0.8545
  149MOL0     C20046  11.143   3.532   8.094 -0.0042  0.2639 -0.2381
  149MOL0     C20047  11.066   3.590   8.194 -0.8007 -0.0425 -0.2822
  149MOL0     H20048  10.931   3.973   8.443 -0.3187 -0.2871 -1.3215
  149MOL0     H20049  10.801   4.098   8.602  2.1892 -0.8062  1.0430
  149MOL0     H20050  10.445   3.918   8.825 -0.5577 -1.1672  1.9369
  149MOL0     H20051  10.577   3.905   8.937 -3.0466 -0.8737 -0.1129
  149MOL0     H20052  10.435   4.054   9.032 -0.1431  1.7331  0.3149
  149MOL0     H20053  10.569   4.152   8.970  1.6117  0.0352 -0.1761
  149MOL0     H20054  10.354   4.273   8.939 -1.5625 -0.9557  1.0764
  149MOL0     H20055  10.413   4.210   8.784 -0.1598 -0.7967 -1.9453
  149MOL0     H20056  10.242   4.041   8.777 -1.1663 -0.5144 -1.0265
  149MOL0     H20057  10.182   4.093   8.946 -0.4489 -0.9994 -0.2218
  149MOL0     H20058  10.089   4.272   8.863  0.9355 -0.2805  1.7582
  149MOL0     H20059  10.209   4.307   8.740 -0.2070  0.3888 -1.2911
  149MOL0     H20060   9.987   4.245   8.647 -0.6394  0.2904  2.3890
  149MOL0     H20061  10.134   4.159   8.583 -0.8806  0.5936 -0.2248
  149MOL0     H20062  10.068   3.962   8.698  1.0367  0.4838  2.3656
  149MOL0     H20063   9.945   4.042   8.786 -0.7260 -3.1727 -0.2198
  149MOL0     H20064   9.807   4.083   8.584 -0.3544 -0.7250  3.7301
  149MOL0     H20065   9.845   3.916   8.602  1.6348 -1.3009 -2.4941
  149MOL0     H20066   9.830   4.115   8.302  1.4058  0.9940 -0.3842
  149MOL0     H20067   9.958   4.137   8.086  0.9781  1.9776 -2.1069
  149MOL0     H20068  10.114   4.069   8.053 -0.6754 -0.4172 -0.4800
  149MOL0     H20069  10.035   3.848   8.014  0.8374  1.3387 -0.8371
  149MOL0     H20070   9.997   3.956   7.895  3.4655 -3.2491 -0.2735
  149MOL0     H20071   9.756   3.980   7.980  1.7531  1.1704  2.1184
  149MOL0     H20072   9.799   3.872   8.116 -1.1397 -0.9694  0.4684
  149MOL0     H20073   9.792   3.801   7.823 -0.4978 -2.5214 -0.3556
  149MOL0     H20074   9.685   3.748   7.963 -1.1563  0.2727 -1.8661
  149MOL0     H20075   9.720   3.628   7.740  3.3164  2.3121 -0.4486
  149MOL0     H20076   9.642   3.315   7.606 -0.2102 -0.6613 -2.1270
  149MOL0     H20077   9.614   3.487   7.589 -1.7284 -1.5685  2.4849
  149MOL0     H20078   9.738   3.414   7.484 -1.0706  0.1349 -1.0893
  149MOL0     H20079   9.633   2.981   7.712  0.0893  2.1357  0.3868
  149MOL0     H20080   9.580   2.750   7.622 -2.5388  0.1337 -2.5083
  149MOL0     H20081   9.692   2.587   7.223  1.2722 -1.4799 -1.5765
  149MOL0     H20082   9.854   2.606   7.290 -1.3253  2.0226 -4.4045
  149MOL0     H20083   9.838   2.364   7.385 -1.4017 -2.4867  0.1971
  149MOL0     H20084   9.662   2.374   7.373 -1.0378 -2.6242 -3.4479
  149MOL0     H20085   9.868   2.353   7.146 -0.7472  0.3602 -1.8318
  149MOL0     H20086   9.695   2.378   7.122 -0.4331  0.6677  0.3945
  149MOL0     H20087   9.828   2.128   7.246 -1.3016 -0.4978  1.7910
  149MOL0     H20088   9.654   2.155   7.231  0.4236 -2.3129 -1.7636
  149MOL0     H20089   9.758   2.024   7.039 -0.7245 -0.3239 -1.1665
  149MOL0     H20090   9.844   2.170   6.988 -2.4871  1.3182 -1.9864
  149MOL0     H20091   9.552   2.198   7.016 -0.2023 -1.4087  0.9958
  149MOL0     H20092   9.663   2.277   6.909 -0.3639  0.4964  0.2280
  149MOL0     H20093   9.533   2.011   6.868  0.8543 -1.7315 -2.8847
  149MOL0     H20094   9.676   2.068   6.769  0.0314 -0.0454 -0.1049
  149MOL0     H20095   9.523   2.262   6.719 -2.2654  1.0977 -0.8921
  149MOL0     H20096   9.405   2.191   6.846 -1.4950  1.2771 -1.6399
  149MOL0     H20097   9.888   2.790   7.323 -1.3790  0.5725 -1.0374
  149MOL0     H20098   9.947   3.010   7.431 -2.5094  0.8347 -3.0927
  149MOL0     H20099  10.067   3.293   7.836  0.0048 -1.4259 -0.9193
  149MOL0     H20100  10.058   3.494   7.962 -0.1198 -0.6804 -0.6029
  149MOL0     H20101  10.628   3.748   8.749  0.0314 -0.3935 -0.8036
  149MOL0     H20102  10.776   3.609   8.582  0.4145 -0.2232 -0.2848
  149MOL0     H20103  11.238   3.473   8.465 -0.4831  1.9539  0.1294
  149MOL0     H20104  11.382   3.389   8.289 -0.1084  3.9720  1.0068
  149MOL0     H20105  11.344   3.573   7.935  0.6428 -0.5910 -1.6352
  149MOL0     H20106  11.482   3.534   8.039  0.5709 -0.8711  1.6188
  149MOL0     H20107  11.558   3.368   7.860 -0.6867  0.6435  0.4442
  149MOL0     H20108  11.563   3.531   7.813  0.1651 -0.6113 -2.2744
  149MOL0     H20109  11.337   3.487   7.701  1.0578  1.5172  2.3374
  149MOL0     H20110  11.366   3.317   7.726  0.7221 -0.9333  5.2356
  149MOL0     H20111  11.573   3.503   7.598 -0.4509  0.0850 -1.4705
  149MOL0     H20112  11.455   3.398   7.505  1.0536 -0.7525 -0.1901
  149MOL0     H20113  11.714   3.097   7.553 -0.8116 -1.2924 -1.6512
  149MOL0     H20114  11.128   3.562   7.991  1.5790 -2.3296 -1.3064
  149MOL0     H20115  10.984   3.651   8.155  0.9175  1.9751 -0.9466
  150MOL0     O20116  10.927   1.520   7.079 -0.3357  0.0493  0.2251
  150MOL0     C20117  10.971   1.429   6.999 -0.4012  0.6798 -0.3640
  150MOL0     O20118  10.997   1.447   6.867 -0.0436 -0.3321 -0.2616
  150MOL0     C20119  10.950   1.575   6.816 -0.7744  0.9013  0.1572
  150MOL0     C20120  10.833   1.606   6.744  1.2830  0.2116 -0.5988
  150MOL0     C20121  10.809   1.733   6.700  0.1097 -0.5681 -0.2010
  150MOL0     C20122  10.896   1.842   6.720  1.3186  1.1633 -0.6713
  150MOL0     O20123  10.865   1.954   6.653  0.3506 -0.3790 -0.7083
  150MOL0     C20124  10.932   2.071   6.706 -0.1101 -0.1561 -0.2853
  150MOL0     C20125  10.867   2.194   6.641  0.2735 -0.3172 -0.6756
  150MOL0     C20126  10.846   2.205   6.484 -0.1295  0.4426  0.5414
  150MOL0     C20127  10.801   2.351   6.453 -0.4654  0.0071 -0.1719
  150MOL0     C20128  10.682   2.402   6.519  0.7727  0.0070 -0.4640
  150MOL0     C20129  10.556   2.322   6.468  0.3242 -0.1539 -0.4867
  150MOL0     C20130  10.427   2.398   6.492  0.4741 -0.6426  0.3886
  150MOL0     C20131  10.416   2.437   6.635 -0.4959  0.5234 -0.2390
  150MOL0     N20132  10.291   2.494   6.677 -1.3244  0.4836  0.8999
  150MOL0     C20133  10.252   2.627   6.698  0.9471  0.2718  0.1373
  150MOL0     C20134  10.127   2.630   6.727  0.2967 -0.6783 -0.7119
  150MOL0     C20135  10.036   2.751   6.774 -0.3667 -0.4866  0.6216
  150MOL0     C20136  10.017   2.762   6.915 -1.2234 -0.1876 -0.2258
  150MOL0     C20137   9.946   2.640   6.965 -0.1280  1.2981 -0.3902
  150MOL0     C20138   9.801   2.618   6.897 -0.4241  0.1324 -1.0438
  150MOL0     O20139   9.726   2.730   6.880  1.0677  0.6258  0.0487
  150MOL0     C20140   9.615   2.721   6.805 -0.0638  0.9632  0.3278
  150MOL0     C20141   9.567   2.845   6.759 -0.8816 -0.1362  0.2031
  150MOL0     C20142   9.453   2.871   6.681  0.1793  0.6493  0.3209
  150MOL0     C20143   9.409   3.014   6.649 -0.3488  0.1554 -0.9518
  150MOL0     C20144   9.374   2.750   6.652  0.8156 -0.7649  0.9765
  150MOL0     C20145   9.250   2.752   6.585 -0.2503  0.5996 -0.1969
  150MOL0     O20146   9.215   2.648   6.497  0.2024 -0.2231 -0.9409
  150MOL0     C20147   9.151   2.698   6.387  0.8310 -0.1930  0.4207
  150MOL0     C20148   9.224   2.719   6.269  0.8745 -0.4094 -0.3404
  150MOL0     C20149   9.161   2.766   6.149 -0.1084  0.0848 -1.0079
  150MOL0     C20150   9.018   2.789   6.156 -0.1311  0.7282  0.6268
  150MOL0     O20151   8.965   2.811   6.033  0.0979  0.3619  0.2217
  150MOL0     C20152   8.840   2.889   6.031 -0.9950 -1.2200 -0.2940
  150MOL0     C20153   8.724   2.834   5.950 -0.6701 -0.1490 -0.2390
  150MOL0     C20154   8.660   2.695   5.987 -0.9965 -0.3450 -0.3797
  150MOL0     C20155   8.571   2.723   6.109  0.2651 -1.3281  0.0584
  150MOL0     C20156   8.493   2.600   6.143 -0.1485 -0.8568 -0.3138
  150MOL0     C20157   8.365   2.636   6.228 -1.2593  0.3105 -0.3771
  150MOL0     C20158   8.292   2.509   6.257 -0.7358  0.5618  0.3584
  150MOL0     C20159   8.154   2.541   6.312 -0.1515  0.8079 -0.6335
  150MOL0    Cl20160   8.030   2.551   6.180 -0.3700 -0.4410 -0.1007
  150MOL0     C20161   8.949   2.762   6.269 -0.5321 -0.4142  0.0634
  150MOL0     C20162   9.014   2.722   6.387 -0.0716 -0.5619 -0.7746
  150MOL0     O20163   9.177   2.845   6.619  1.0344  0.6791  0.0751
  150MOL0     C20164   9.436   2.618   6.689 -0.1166  0.0279  0.6346
  150MOL0     C20165   9.546   2.603   6.776 -0.8476  1.0282  1.0875
  150MOL0     N20166  10.083   2.495   6.717 -0.1950  0.2006 -0.5896
  150MOL0     N20167  10.188   2.419   6.693  0.6564  0.1270 -0.0704
  150MOL0     C20168  11.007   1.816   6.796  0.3737 -1.2840  0.7596
  150MOL0     C20169  11.036   1.685   6.823 -0.3216  0.8266 -0.8030
  150MOL0     C20170  10.996   1.292   7.039 -0.1246  1.1692  0.2845
  150MOL0     C20171  11.016   1.190   6.936  0.5547 -0.1253 -0.0940
  150MOL0     C20172  11.039   1.052   6.967 -0.3118 -0.0240 -0.2620
  150MOL0     C20173  11.051   1.022   7.102 -0.5321 -0.4627  0.9163
  150MOL0     O20174  11.072   0.891   7.142  0.0516  0.2431 -0.4947
  150MOL0     C20175  11.067   0.861   7.279 -0.5207  0.0274  0.2865
  150MOL0     C20176  11.093   0.713   7.303  0.7673 -0.2863 -1.2565
  150MOL0     C20177  11.228   0.655   7.253  0.7332  1.0736  0.4484
  150MOL0     C20178  11.343   0.660   7.347 -0.2470 -0.7261 -0.1825
  150MOL0     C20179  11.355   0.544   7.430 -0.1022  0.2340  0.4675
  150MOL0     C20180  11.358   0.445   7.495 -0.4412 -0.9430  0.0666
  150MOL0     C20181  11.034   1.121   7.206 -0.3645  0.3685 -0.1996
  150MOL0     C20182  10.998   1.252   7.177 -0.2596 -1.0987 -0.4375
  150MOL0     H20183  10.763   1.529   6.712 -0.0214  0.9910  0.2475
  150MOL0     H20184  10.713   1.748   6.652 -1.4315  0.3304  2.8546
  150MOL0     H20185  10.925   2.072   6.815 -1.0996  3.0207 -0.2854
  150MOL0     H20186  11.041   2.069   6.692  0.1136  0.5235  1.2346
  150MOL0     H20187  10.773   2.218   6.690  0.3060  0.8778 -1.1538
  150MOL0     H20188  10.928   2.281   6.669 -0.4036  0.7326 -2.3089
  150MOL0     H20189  10.936   2.180   6.428 -2.6830 -2.0954 -2.8307
  150MOL0     H20190  10.776   2.131   6.445  0.7689  0.3321 -0.9214
  150MOL0     H20191  10.891   2.413   6.462  0.7454 -0.9668 -3.8633
  150MOL0     H20192  10.769   2.365   6.349  0.5331  0.7870 -0.3939
  150MOL0     H20193  10.693   2.395   6.627  1.2343 -0.1709 -0.5214
  150MOL0     H20194  10.667   2.508   6.498  1.6795 -0.1755 -2.2498
  150MOL0     H20195  10.559   2.292   6.363 -0.2126 -2.1201  0.0206
  150MOL0     H20196  10.543   2.232   6.528  1.8384  0.5621  1.0195
  150MOL0     H20197  10.430   2.487   6.427 -0.1576 -0.1933  0.9748
  150MOL0     H20198  10.350   2.333   6.449  0.0761 -0.4329  0.7837
  150MOL0     H20199  10.487   2.515   6.664 -0.9942  0.0215  2.6416
  150MOL0     H20200  10.436   2.353   6.702  5.0236 -0.5243 -2.6602
  150MOL0     H20201  10.304   2.723   6.688  0.7291  0.2342 -1.6520
  150MOL0     H20202  10.071   2.847   6.736 -0.3407 -2.0582 -3.9914
  150MOL0     H20203   9.936   2.739   6.730  0.0363  0.1755 -0.5175
  150MOL0     H20204   9.956   2.851   6.937 -1.3816 -0.9430  2.7272
  150MOL0     H20205  10.115   2.778   6.960 -1.6183  2.2978 -0.0972
  150MOL0     H20206   9.947   2.653   7.074  3.9595 -0.8246  0.0135
  150MOL0     H20207   9.994   2.542   6.957 -2.2128  0.2406 -0.6123
  150MOL0     H20208   9.748   2.536   6.947  0.5934 -0.1300 -0.3707
  150MOL0     H20209   9.821   2.583   6.795 -0.7823 -3.2962 -0.0603
  150MOL0     H20210   9.622   2.938   6.773  1.4395 -1.1949 -1.3201
  150MOL0     H20211   9.325   3.034   6.716  0.1118 -2.5458  0.5884
  150MOL0     H20212   9.489   3.086   6.665 -0.8990  1.3509 -3.1178
  150MOL0     H20213   9.377   3.036   6.547 -1.0010  0.3944 -0.7018
  150MOL0     H20214   9.331   2.701   6.266  1.3145  1.6165  0.9624
  150MOL0     H20215   9.222   2.789   6.062 -0.0773  2.5071 -0.4235
  150MOL0     H20216   8.805   2.914   6.132 -0.8538  2.0113 -0.9587
  150MOL0     H20217   8.867   2.991   6.003 -1.9595 -0.7029  0.5808
  150MOL0     H20218   8.650   2.915   5.953 -0.3028  0.1970 -0.4254
  150MOL0     H20219   8.765   2.830   5.849 -1.1004  0.5000 -0.4427
  150MOL0     H20220   8.730   2.616   6.016 -0.4839  0.2906  0.1566
  150MOL0     H20221   8.599   2.664   5.902  1.6481 -1.1712 -2.0820
  150MOL0     H20222   8.642   2.734   6.191  0.7648 -4.2546  0.1243
  150MOL0     H20223   8.512   2.816   6.106  1.7684 -0.0318  4.0753
  150MOL0     H20224   8.543   2.523   6.201 -2.2019  0.3299  3.3366
  150MOL0     H20225   8.466   2.550   6.049  0.6014 -3.2668  0.6949
  150MOL0     H20226   8.396   2.682   6.322 -0.5920  1.7778 -1.2849
  150MOL0     H20227   8.290   2.695   6.175 -2.2791 -3.6525 -3.8831
  150MOL0     H20228   8.338   2.458   6.342 -2.7101 -1.8728  0.0846
  150MOL0     H20229   8.284   2.445   6.168 -1.3735  2.9974 -1.4428
  150MOL0     H20230   8.167   2.627   6.379  4.5687  0.1308 -0.2899
  150MOL0     H20231   8.126   2.462   6.382  0.2726 -1.6298 -3.0715
  150MOL0     H20232   8.841   2.764   6.277 -0.5311 -2.0418  0.9765
  150MOL0     H20233   8.953   2.682   6.468 -0.1825  0.5616 -0.2840
  150MOL0     H20234   9.389   2.529   6.650 -0.5568  0.7334 -0.5117
  150MOL0     H20235   9.585   2.507   6.808 -2.7915  1.0884  3.9780
  150MOL0     H20236  11.072   1.900   6.818 -0.3985 -0.1995 -0.8407
  150MOL0     H20237  11.134   1.675   6.870 -0.6497  0.3839 -0.1915
  150MOL0     H20238  10.997   1.227   6.836 -1.6992 -0.1153  0.2797
  150MOL0     H20239  11.044   0.970   6.896 -0.5671 -0.0273 -0.2792
  150MOL0     H20240  11.143   0.915   7.337  1.6609 -0.2459 -2.1016
  150MOL0     H20241  10.967   0.882   7.316 -1.4777  1.8189 -2.9299
  150MOL0     H20242  11.012   0.659   7.255  1.0462 -0.8341 -1.1192
  150MOL0     H20243  11.088   0.697   7.411 -1.5406 -1.2908 -1.4675
  150MOL0     H20244  11.250   0.695   7.153  0.3967  3.2002  1.1730
  150MOL0     H20245  11.224   0.549   7.224  0.6140  1.8612 -2.8067
  150MOL0     H20246  11.341   0.754   7.403 -0.5157 -1.3977  0.9842
  150MOL0     H20247  11.432   0.666   7.283 -0.4012  0.8832 -0.2900
  150MOL0     H20248  11.376   0.367   7.567  7.8168  2.2980  2.7502
  150MOL0     H20249  11.058   1.100   7.309 -0.0097  0.2142 -0.3128
  150MOL0     H20250  10.998   1.331   7.250 -1.9735  0.0748 -1.6456
  151MOL0     O20251   8.140  10.274   2.364 -0.3130 -0.0960  0.1070
  151MOL0     C20252   8.157  10.168   2.424  0.3527  0.6253 -0.0184
  151MOL0     O20253   8.222  10.144   2.531 -0.6879  0.8619  0.3560
  151MOL0     C20254   8.267  10.242   2.617 -1.1584  0.4463  0.3556
  151MOL0     C20255   8.173  10.320   2.675  0.1599  0.1039 -0.1787
  151MOL0     C20256   8.219  10.411   2.774  1.0376  0.5201  0.2985
  151MOL0     C20257   8.349  10.425   2.817 -0.1040 -0.3644  0.6191
  151MOL0     O20258   8.378  10.510   2.919 -0.1415 -0.0479 -0.1057
  151MOL0     C20259   8.492  10.490   2.999 -0.3990 -0.5596 -0.2662
  151MOL0     C20260   8.472  10.373   3.086 -0.1752 -0.1213 -0.3541
  151MOL0     C20261   8.550  10.385   3.217 -0.1742 -0.9795  0.0970
  151MOL0     C20262   8.460  10.448   3.324 -0.4372 -0.1126  0.0296
  151MOL0     C20263   8.516  10.471   3.458  0.9195 -0.0465 -0.9645
  151MOL0     C20264   8.532  10.342   3.545 -0.6519  0.4009 -0.2765
  151MOL0     C20265   8.601  10.382   3.677  0.1822 -1.1070  0.1598
  151MOL0     C20266   8.710  10.279   3.730 -0.2272 -1.5382 -0.4161
  151MOL0     N20267   8.656  10.146   3.752  0.4549 -0.1601  0.0036
  151MOL0     C20268   8.622  10.057   3.656  0.0687  0.0692  0.8719
  151MOL0     C20269   8.534   9.965   3.712 -1.7966  0.8355 -1.2615
  151MOL0     C20270   8.460   9.859   3.632  0.8560 -1.2068 -0.0987
  151MOL0     C20271   8.544   9.752   3.562 -0.7423  0.5361 -0.1852
  151MOL0     C20272   8.588   9.632   3.655 -0.1876 -0.0699  0.4131
  151MOL0     C20273   8.744   9.621   3.654  0.6480 -0.3878 -0.0290
  151MOL0     O20274   8.815   9.742   3.690  0.0317 -1.1747 -0.2401
  151MOL0     C20275   8.812   9.794   3.818 -0.5116 -0.4960 -0.1715
  151MOL0     C20276   8.772   9.720   3.935 -1.3087  0.0309 -0.6877
  151MOL0     C20277   8.774   9.773   4.059 -0.6005 -1.2924 -0.9954
  151MOL0     C20278   8.713   9.688   4.167  0.2447  0.8065 -0.4098
  151MOL0     C20279   8.839   9.898   4.085  0.2599  0.4753 -0.8669
  151MOL0     C20280   8.865   9.956   4.214  0.3431  0.2357  0.6670
  151MOL0     O20281   8.875  10.089   4.207 -0.3496 -0.3677 -0.3772
  151MOL0     C20282   8.860  10.156   4.327  1.1330  0.4352  0.2494
  151MOL0     C20283   8.731  10.166   4.383 -0.2759  0.1152 -0.1608
  151MOL0     C20284   8.721  10.230   4.504 -0.5401 -0.3728 -1.0886
  151MOL0     C20285   8.829  10.298   4.567  0.3439  0.3254 -0.9701
  151MOL0     O20286   8.830  10.364   4.691  0.1772  0.3674 -0.5407
  151MOL0     C20287   8.715  10.334   4.771 -0.0224 -0.5143 -0.0398
  151MOL0     C20288   8.730  10.402   4.900  0.1772  0.0893  0.6456
  151MOL0     C20289   8.633  10.330   4.999  1.4579  0.3718 -0.0261
  151MOL0     C20290   8.645  10.391   5.138  0.1863 -0.0649 -0.7770
  151MOL0     C20291   8.581  10.532   5.148  0.4194 -0.4964  0.6719
  151MOL0     C20292   8.584  10.568   5.301  0.2973  0.0494  1.1894
  151MOL0     C20293   8.500  10.694   5.329 -0.3445  0.5244  0.0790
  151MOL0     C20294   8.536  10.743   5.472 -0.0164  0.9473 -0.2405
  151MOL0    Cl20295   8.380  10.788   5.547  0.4073 -0.2201  0.0406
  151MOL0     C20296   8.941  10.314   4.485 -0.5612 -0.1798 -0.4135
  151MOL0     C20297   8.962  10.233   4.379  0.2234 -0.2897  0.4427
  151MOL0     O20298   8.838   9.896   4.314  1.1147  0.1057 -0.3573
  151MOL0     C20299   8.870   9.971   3.975 -1.0796  0.3734  0.4000
  151MOL0     C20300   8.861   9.929   3.841  1.5656  0.8838  0.7956
  151MOL0     N20301   8.515  10.000   3.842 -0.1512 -0.3170 -0.5342
  151MOL0     N20302   8.587  10.111   3.865 -0.1117  0.3092 -0.2711
  151MOL0     C20303   8.445  10.340   2.747  0.2323 -0.0789 -0.8728
  151MOL0     C20304   8.396  10.245   2.657 -0.9258  0.2608  0.7496
  151MOL0     C20305   8.069  10.059   2.380  0.9121 -0.6623  0.0832
  151MOL0     C20306   7.978  10.081   2.275  0.0423  0.6241 -0.3724
  151MOL0     C20307   7.901   9.979   2.229 -0.8851  0.3588  0.7549
  151MOL0     C20308   7.905   9.847   2.272  0.1098  1.2646  0.5441
  151MOL0     O20309   7.830   9.730   2.258 -0.3797 -0.3366  0.7930
  151MOL0     C20310   7.757   9.717   2.140 -0.4445 -1.0619  0.5634
  151MOL0     C20311   7.843   9.656   2.028 -0.0855  0.4091 -0.3372
  151MOL0     C20312   7.752   9.635   1.894 -0.1578  0.3178  0.2274
  151MOL0     C20313   7.845   9.591   1.778  0.2281 -0.7719  0.3164
  151MOL0     C20314   7.759   9.522   1.681  0.2157 -0.2137  0.0393
  151MOL0     C20315   7.695   9.447   1.612 -0.1194 -0.6550  0.6293
  151MOL0     C20316   8.003   9.822   2.370  0.2651 -0.2310  0.0263
  151MOL0     C20317   8.082   9.930   2.427 -0.0809  0.1675  0.3376
  151MOL0     H20318   8.066  10.315   2.654 -0.0535 -1.2071  1.0935
  151MOL0     H20319   8.141  10.453   2.837  0.3704  0.0056 -0.1788
  151MOL0     H20320   8.579  10.483   2.933  1.2241  0.9396  1.5976
  151MOL0     H20321   8.500  10.584   3.055 -1.4312  0.4263 -1.6887
  151MOL0     H20322   8.364  10.365   3.106  0.1663  0.0653  1.8318
  151MOL0     H20323   8.486  10.281   3.029  2.2613  0.2157 -0.3970
  151MOL0     H20324   8.574  10.284   3.253 -0.3676 -0.6176  1.3015
  151MOL0     H20325   8.640  10.447   3.212 -0.3014 -0.5988  1.7548
  151MOL0     H20326   8.435  10.548   3.286  1.3171  1.3178  2.3397
  151MOL0     H20327   8.370  10.386   3.332  0.4469 -1.6174 -1.3341
  151MOL0     H20328   8.616  10.515   3.453  1.1258 -0.3291  0.3964
  151MOL0     H20329   8.441  10.530   3.511 -1.4902 -3.2936 -0.4061
  151MOL0     H20330   8.435  10.297   3.568  0.1970 -0.5759  1.6324
  151MOL0     H20331   8.582  10.263   3.489  0.7294  0.8321  0.3110
  151MOL0     H20332   8.652  10.477   3.658 -4.6883  1.8126 -0.0682
  151MOL0     H20333   8.523  10.407   3.749 -0.4539  0.0713 -0.8930
  151MOL0     H20334   8.746  10.313   3.827  2.0134  0.5482 -1.8503
  151MOL0     H20335   8.801  10.283   3.669 -0.4461  1.3734 -0.7265
  151MOL0     H20336   8.647  10.071   3.551 -2.5948  1.0442  0.2769
  151MOL0     H20337   8.405   9.804   3.710 -0.8243 -0.6175 -0.8190
  151MOL0     H20338   8.385   9.906   3.569 -2.1073 -1.9206  2.6291
  151MOL0     H20339   8.631   9.804   3.521 -1.5654  2.5829  0.5338
  151MOL0     H20340   8.489   9.711   3.478  2.3261 -1.4714 -1.3927
  151MOL0     H20341   8.540   9.545   3.610 -0.5712  1.3537 -2.1550
  151MOL0     H20342   8.562   9.652   3.760  0.9506  0.5168  0.5928
  151MOL0     H20343   8.782   9.594   3.555 -0.2057  1.4462 -0.9146
  151MOL0     H20344   8.759   9.534   3.719 -2.5828 -2.3128 -1.5477
  151MOL0     H20345   8.728   9.621   3.934 -3.2802  0.7784  1.7174
  151MOL0     H20346   8.661   9.750   4.241 -3.1612  0.1652 -2.0677
  151MOL0     H20347   8.630   9.626   4.132 -0.3734  1.8065 -0.7479
  151MOL0     H20348   8.787   9.637   4.230 -1.2801 -0.8521  0.0946
  151MOL0     H20349   8.651  10.102   4.348 -2.3223  0.1093  3.9556
  151MOL0     H20350   8.629  10.217   4.560  0.4051 -2.2806  0.1323
  151MOL0     H20351   8.630  10.379   4.719 -1.3451 -0.9412  1.6478
  151MOL0     H20352   8.692  10.228   4.779  1.9816 -1.1687 -2.0190
  151MOL0     H20353   8.829  10.401   4.946  0.0120  2.5892  1.1967
  151MOL0     H20354   8.703  10.508   4.897 -2.2001 -0.4697 -2.0157
  151MOL0     H20355   8.651  10.223   5.011  1.7592  0.4207 -0.0343
  151MOL0     H20356   8.530  10.354   4.971  1.4009  2.3115  1.6057
  151MOL0     H20357   8.602  10.325   5.215 -3.8579 -1.6398 -4.0259
  151MOL0     H20358   8.753  10.395   5.151  0.4489  4.0086 -2.5053
  151MOL0     H20359   8.481  10.533   5.105  0.4075 -0.1548  0.7035
  151MOL0     H20360   8.643  10.605   5.094  1.3037  0.3101  2.6970
  151MOL0     H20361   8.541  10.486   5.361  2.1226 -0.8559  1.3245
  151MOL0     H20362   8.687  10.587   5.332  0.0639  0.2456  1.8388
  151MOL0     H20363   8.396  10.661   5.314 -0.3176  0.3061  0.3734
  151MOL0     H20364   8.522  10.768   5.252 -2.5656 -0.6052 -1.8068
  151MOL0     H20365   8.592  10.834   5.450 -0.5847  1.0039 -1.5665
  151MOL0     H20366   8.593  10.666   5.524 -3.3200 -3.2207 -2.1315
  151MOL0     H20367   9.026  10.376   4.510  0.6560 -1.7365 -0.5517
  151MOL0     H20368   9.048  10.227   4.313  0.3092  2.3103  0.2116
  151MOL0     H20369   8.894  10.077   3.972 -0.8589  0.3073 -0.3511
  151MOL0     H20370   8.886   9.997   3.761  2.6688  0.3245  0.6494
  151MOL0     H20371   8.551  10.345   2.771  0.5435 -0.7059 -2.0230
  151MOL0     H20372   8.460  10.169   2.614  1.6273  1.0044  2.9546
  151MOL0     H20373   7.948  10.179   2.240 -1.0591  0.0097 -1.1966
  151MOL0     H20374   7.822  10.013   2.164  0.9864  0.7767 -1.4268
  151MOL0     H20375   7.674   9.651   2.167 -0.8268 -1.0528 -0.5406
  151MOL0     H20376   7.718   9.812   2.102 -2.8870 -2.2115  0.0061
  151MOL0     H20377   7.878   9.558   2.063  0.3963  0.7331  0.0932
  151MOL0     H20378   7.925   9.725   2.012  0.1878 -0.4948 -3.4321
  151MOL0     H20379   7.695   9.726   1.874  0.4595  1.7968  4.1153
  151MOL0     H20380   7.684   9.556   1.926 -0.1925  1.9707  5.1858
  151MOL0     H20381   7.913   9.514   1.815  0.3502 -0.5178  0.6306
  151MOL0     H20382   7.899   9.678   1.739 -1.5330  0.4552  0.4764
  151MOL0     H20383   7.623   9.385   1.562  0.4165 -0.7419 -0.0465
  151MOL0     H20384   8.016   9.720   2.405  0.5696 -0.7473 -1.5007
  151MOL0     H20385   8.138   9.908   2.518 -0.3107 -0.0915  0.4168
  152MOL0     O20386   1.971   5.305   1.454  0.8286  1.0217 -0.2163
  152MOL0     C20387   1.892   5.392   1.413  0.1578 -0.4645  0.0339
  152MOL0     O20388   1.807   5.472   1.495  0.0278 -0.3301  0.1121
  152MOL0     C20389   1.768   5.438   1.621  0.1353  0.1239 -0.3624
  152MOL0     C20390   1.631   5.462   1.652 -0.8233  0.2803  0.1909
  152MOL0     C20391   1.591   5.436   1.784  0.6851  0.0204  0.6718
  152MOL0     C20392   1.679   5.399   1.881 -0.2494  0.5792 -0.4284
  152MOL0     O20393   1.643   5.378   2.014 -0.5325  0.1472  0.2908
  152MOL0     C20394   1.536   5.281   2.024  0.0202 -0.4326  0.2074
  152MOL0     C20395   1.393   5.344   2.047 -0.2104  0.7040 -0.8648
  152MOL0     C20396   1.385   5.458   2.157 -0.4432 -0.4354 -0.9190
  152MOL0     C20397   1.446   5.426   2.301  0.4347 -0.0883 -0.6847
  152MOL0     C20398   1.439   5.539   2.409 -0.1913 -0.5086 -0.5610
  152MOL0     C20399   1.511   5.671   2.377 -0.5048 -0.2575  0.2951
  152MOL0     C20400   1.458   5.787   2.448  0.3873 -0.4087  0.0676
  152MOL0     C20401   1.450   5.763   2.606 -0.5526  0.3476 -0.0226
  152MOL0     N20402   1.434   5.885   2.686 -0.5808  0.1924 -0.2063
  152MOL0     C20403   1.315   5.918   2.756 -0.3281  0.5648  0.1294
  152MOL0     C20404   1.348   6.016   2.843 -0.7114 -0.3971  1.1363
  152MOL0     C20405   1.271   6.080   2.961  0.6054  0.4458  0.5662
  152MOL0     C20406   1.241   6.231   2.926  0.2998  0.8722 -0.4406
  152MOL0     C20407   1.170   6.279   3.050  0.0187 -0.6489 -0.5421
  152MOL0     C20408   1.132   6.425   3.016 -0.4954  0.1272 -1.2154
  152MOL0     O20409   1.107   6.502   3.138 -0.2927  1.0901 -0.1879
  152MOL0     C20410   1.026   6.612   3.119  0.7712  0.0862 -0.4655
  152MOL0     C20411   0.987   6.667   3.243 -0.1058 -0.6509 -1.0107
  152MOL0     C20412   0.916   6.781   3.258  0.0032 -0.0871  0.5097
  152MOL0     C20413   0.867   6.816   3.397  0.3920  0.5732 -0.1723
  152MOL0     C20414   0.872   6.842   3.138 -0.4545  1.3579  0.0039
  152MOL0     C20415   0.767   6.951   3.140 -0.6270 -0.3888  0.5335
  152MOL0     O20416   0.706   6.974   3.019  0.8695  0.1093 -0.9563
  152MOL0     C20417   0.595   7.065   3.009  0.2356 -0.0029 -0.4752
  152MOL0     C20418   0.474   7.044   3.082  0.5673  0.1417 -0.7527
  152MOL0     C20419   0.369   7.137   3.065  0.0701 -0.0970  1.1124
  152MOL0     C20420   0.382   7.234   2.964  0.1145 -0.3548  0.4261
  152MOL0     O20421   0.275   7.318   2.929 -0.7256  0.3804 -0.2647
  152MOL0     C20422   0.219   7.381   3.035  0.1938  0.0682 -0.2854
  152MOL0     C20423   0.199   7.532   2.990 -0.7130 -0.9416  0.0563
  152MOL0     C20424   0.200   7.626   3.121  0.0592 -0.2128 -0.5865
  152MOL0     C20425   0.082   7.585   3.211  1.4438 -0.2071 -0.6256
  152MOL0     C20426   0.071   7.681   3.331 -0.3189 -0.0939 -0.8583
  152MOL0     C20427   0.177   7.655   3.439 -1.6291  0.4484  0.2673
  152MOL0     C20428   0.182   7.506   3.489 -0.3104 -0.2571  0.2448
  152MOL0     C20429   0.243   7.493   3.629 -1.0940  0.5132 -0.0783
  152MOL0    Cl20430   0.119   7.564   3.744  0.0602 -0.2958  0.0598
  152MOL0     C20431   0.501   7.250   2.895 -0.5906  0.1205  0.6382
  152MOL0     C20432   0.607   7.166   2.918  0.0203  0.6446  0.7646
  152MOL0     O20433   0.736   7.017   3.247  0.0351  0.7211  0.7313
  152MOL0     C20434   0.905   6.798   3.013 -0.3726  0.3964 -0.1989
  152MOL0     C20435   0.988   6.683   3.003  0.4584  0.3671 -1.2055
  152MOL0     N20436   1.490   6.041   2.822 -0.6159 -0.1419 -0.4967
  152MOL0     N20437   1.539   5.964   2.728 -0.4954  0.1393 -0.3342
  152MOL0     C20438   1.815   5.389   1.854 -0.2887  0.2499  0.1025
  152MOL0     C20439   1.857   5.413   1.724 -0.2390  0.7762 -0.8497
  152MOL0     C20440   1.917   5.439   1.273 -0.6004  0.0003 -0.2287
  152MOL0     C20441   1.860   5.565   1.226  0.1053  0.0780 -0.5910
  152MOL0     C20442   1.905   5.622   1.100  0.0846 -0.7403  0.3083
  152MOL0     C20443   2.012   5.554   1.027 -0.2042  0.4328 -0.1506
  152MOL0     O20444   2.048   5.569   0.898  0.2283  0.9927  0.7688
  152MOL0     C20445   1.954   5.653   0.829 -1.0016 -0.0834  0.4945
  152MOL0     C20446   2.016   5.654   0.681 -0.2233 -0.5751 -0.2839
  152MOL0     C20447   2.013   5.521   0.609  0.4300 -0.0637  0.8906
  152MOL0     C20448   2.153   5.463   0.600 -0.5103 -0.2586  0.2377
  152MOL0     C20449   2.165   5.339   0.523  0.0231 -1.0036  0.0943
  152MOL0     C20450   2.172   5.237   0.456 -0.0275 -0.5797  0.2174
  152MOL0     C20451   2.075   5.440   1.075  0.0206  0.2840 -1.3577
  152MOL0     C20452   2.019   5.378   1.191 -0.7400 -0.6978  0.2717
  152MOL0     H20453   1.550   5.488   1.585 -2.2523  0.2380  1.8279
  152MOL0     H20454   1.488   5.456   1.811  0.2997 -0.8577 -0.0967
  152MOL0     H20455   1.538   5.207   1.943  0.0445 -2.5424  2.0278
  152MOL0     H20456   1.559   5.223   2.114  0.4561 -1.6837 -0.6823
  152MOL0     H20457   1.344   5.390   1.961 -1.5624 -1.5912 -1.3974
  152MOL0     H20458   1.327   5.266   2.085  0.2999  1.9664  3.0927
  152MOL0     H20459   1.443   5.541   2.114 -1.1002 -0.1727 -1.3087
  152MOL0     H20460   1.281   5.492   2.153  0.1262  1.2920 -2.8161
  152MOL0     H20461   1.379   5.346   2.332  0.5554 -0.8059 -2.1676
  152MOL0     H20462   1.546   5.384   2.290 -0.0749 -0.9116 -2.5774
  152MOL0     H20463   1.331   5.555   2.419 -1.0875 -2.3316 -4.8865
  152MOL0     H20464   1.487   5.489   2.493  2.5540  2.0953 -0.4204
  152MOL0     H20465   1.618   5.663   2.397 -0.0382  2.7881 -0.4541
  152MOL0     H20466   1.515   5.700   2.271  4.8028  0.5692  0.4516
  152MOL0     H20467   1.515   5.879   2.434  0.0609 -0.1536  0.3980
  152MOL0     H20468   1.361   5.804   2.400  1.6484  0.7188 -2.2099
  152MOL0     H20469   1.544   5.716   2.634  1.0838  1.9072 -2.4622
  152MOL0     H20470   1.363   5.698   2.620 -0.4893  0.8879  3.7902
  152MOL0     H20471   1.218   5.869   2.767 -0.0104  0.2328  1.6640
  152MOL0     H20472   1.180   6.021   2.972  0.8190  0.5016  3.6642
  152MOL0     H20473   1.314   6.073   3.062  0.2655  0.4107  0.7105
  152MOL0     H20474   1.184   6.230   2.832 -1.0218  0.2293  0.3506
  152MOL0     H20475   1.332   6.286   2.900  0.3684  0.9424 -0.0446
  152MOL0     H20476   1.224   6.258   3.142  1.6058 -1.4630 -1.6207
  152MOL0     H20477   1.073   6.231   3.066  0.1438 -1.4729 -2.0433
  152MOL0     H20478   1.049   6.416   2.946  0.3441  1.5669 -2.4522
  152MOL0     H20479   1.207   6.486   2.963 -2.4089  4.1956  0.3516
  152MOL0     H20480   1.016   6.600   3.323  1.7232 -1.2754 -2.1199
  152MOL0     H20481   0.915   6.744   3.464  1.1939  1.6811  0.4599
  152MOL0     H20482   0.892   6.921   3.411 -2.3985  1.6974 -2.5797
  152MOL0     H20483   0.758   6.801   3.394  0.1034  2.5094 -1.0911
  152MOL0     H20484   0.476   6.959   3.150 -1.5980  0.7228  0.1363
  152MOL0     H20485   0.272   7.130   3.113  0.3715 -0.7366  1.6500
  152MOL0     H20486   0.123   7.331   3.054  1.8017 -2.9116  0.6455
  152MOL0     H20487   0.280   7.380   3.126  1.0565  1.9696 -0.7937
  152MOL0     H20488   0.272   7.543   2.910 -0.7682 -1.3439 -0.0505
  152MOL0     H20489   0.106   7.559   2.938  1.0558  1.1896 -2.2445
  152MOL0     H20490   0.187   7.734   3.107  2.6576  0.3459  0.6475
  152MOL0     H20491   0.301   7.621   3.163 -0.7550  3.2634  2.3373
  152MOL0     H20492  -0.010   7.592   3.153 -0.0267 -1.4214  1.4005
  152MOL0     H20493   0.078   7.484   3.255  0.5354  0.6105  1.3048
  152MOL0     H20494  -0.022   7.672   3.387  0.5156  0.2829  0.6420
  152MOL0     H20495   0.068   7.785   3.299 -1.4619 -0.2447 -1.2926
  152MOL0     H20496   0.274   7.683   3.397 -2.0836 -0.3118 -1.3893
  152MOL0     H20497   0.155   7.724   3.521  0.3813  1.4279  0.0510
  152MOL0     H20498   0.246   7.460   3.413  2.0694 -0.1682  2.0791
  152MOL0     H20499   0.088   7.450   3.495  0.6512 -1.9221  0.4051
  152MOL0     H20500   0.340   7.544   3.635 -1.4122  1.4262 -2.0110
  152MOL0     H20501   0.267   7.392   3.665  1.7467  0.6080 -1.4166
  152MOL0     H20502   0.516   7.333   2.826 -2.6007 -0.1683 -0.2059
  152MOL0     H20503   0.702   7.169   2.866 -1.0569 -2.2594 -1.6607
  152MOL0     H20504   0.858   6.836   2.922 -2.4039 -0.3779  0.4628
  152MOL0     H20505   1.008   6.633   2.908  4.5155  2.3518 -1.5840
  152MOL0     H20506   1.893   5.352   1.921 -2.3291  1.8567  3.6202
  152MOL0     H20507   1.962   5.398   1.703  0.0768 -2.8550  2.2321
  152MOL0     H20508   1.790   5.620   1.287  1.8147  1.4356  0.2229
  152MOL0     H20509   1.856   5.712   1.065 -1.6492 -1.5106  0.6786
  152MOL0     H20510   1.861   5.596   0.822 -0.7872 -0.3093 -0.7261
  152MOL0     H20511   1.937   5.754   0.867  3.0339 -0.0230  2.6873
  152MOL0     H20512   2.119   5.689   0.678 -1.2331  2.6729 -0.4210
  152MOL0     H20513   1.958   5.725   0.622 -0.4201 -1.7099 -1.5108
  152MOL0     H20514   1.979   5.516   0.505 -0.7574 -2.1902  1.3121
  152MOL0     H20515   1.963   5.436   0.657  2.6130 -1.4507  0.8602
  152MOL0     H20516   2.196   5.445   0.699 -0.7261  0.2068  0.4176
  152MOL0     H20517   2.215   5.541   0.554  0.6502 -0.4816  1.3473
  152MOL0     H20518   2.171   5.147   0.398 -0.4599 -0.3362 -0.1550
  152MOL0     H20519   2.140   5.374   1.019  2.3394 -0.5101  1.9583
  152MOL0     H20520   2.051   5.281   1.228 -0.2427 -1.5567 -2.2490
  153MOL0     O20521   5.435   8.622   7.498 -0.3556 -0.6349 -0.6511
  153MOL0     C20522   5.429   8.678   7.388  0.1267  0.9299  0.0434
  153MOL0     O20523   5.537   8.699   7.309  0.5734  0.2134 -0.0189
  153MOL0     C20524   5.666   8.663   7.348 -0.3190 -0.7366  0.3597
  153MOL0     C20525   5.753   8.767   7.390 -0.1998  1.2406 -0.1118
  153MOL0     C20526   5.887   8.740   7.421 -1.1038 -0.0421  0.0745
  153MOL0     C20527   5.931   8.612   7.410 -0.3186 -0.0741 -0.0526
  153MOL0     O20528   6.055   8.564   7.453  0.6393 -0.2317  0.1955
  153MOL0     C20529   6.161   8.634   7.411 -0.3325 -0.5189  0.7863
  153MOL0     C20530   6.278   8.556   7.459 -0.1911  1.1021  0.0834
  153MOL0     C20531   6.411   8.616   7.411  0.1726 -0.6404  0.3600
  153MOL0     C20532   6.463   8.724   7.510  0.0217 -0.3330  0.9262
  153MOL0     C20533   6.606   8.771   7.487 -0.4483  0.4942  0.7699
  153MOL0     C20534   6.649   8.854   7.608  0.6957  0.8209 -0.8440
  153MOL0     C20535   6.786   8.906   7.603 -0.0851  1.6552  0.0878
  153MOL0     C20536   6.817   8.989   7.732  0.0975  1.4069  0.5060
  153MOL0     N20537   6.878   8.887   7.828 -0.6133 -0.1668  0.9284
  153MOL0     C20538   7.012   8.853   7.828  1.0465 -0.0634 -0.0226
  153MOL0     C20539   7.023   8.756   7.922  0.1113  0.5636 -0.5834
  153MOL0     C20540   7.156   8.708   7.986 -0.3522  0.0112 -0.6550
  153MOL0     C20541   7.190   8.790   8.107  1.0941  0.4001  0.0983
  153MOL0     C20542   7.328   8.764   8.171  0.8714 -0.2194 -0.2255
  153MOL0     C20543   7.359   8.855   8.291  0.0899  0.5621  1.3602
  153MOL0     O20544   7.264   8.841   8.393 -0.0723  0.3781 -0.4092
  153MOL0     C20545   7.294   8.775   8.505 -0.2111  0.0546 -0.3204
  153MOL0     C20546   7.228   8.655   8.540 -0.0163  0.0953  0.2248
  153MOL0     C20547   7.249   8.605   8.676  0.0458 -0.7615  0.5431
  153MOL0     C20548   7.176   8.480   8.717  0.4266  0.3160 -0.1489
  153MOL0     C20549   7.347   8.672   8.759 -0.8724  0.9978 -0.5290
  153MOL0     C20550   7.348   8.673   8.906 -0.0766 -0.0719  0.1320
  153MOL0     O20551   7.461   8.674   8.969 -0.4105 -0.7670  0.1569
  153MOL0     C20552   7.467   8.698   9.106 -0.9652 -0.1329 -0.8754
  153MOL0     C20553   7.410   8.608   9.201 -0.1700  0.1632 -0.4962
  153MOL0     C20554   7.428   8.622   9.335 -0.3411  0.8258 -0.5289
  153MOL0     C20555   7.502   8.729   9.389 -1.1244  0.2438 -0.0711
  153MOL0     O20556   7.520   8.758   9.522  0.5080 -0.1751 -0.0515
  153MOL0     C20557   7.459   8.663   9.614  0.1181  0.1785 -0.5528
  153MOL0     C20558   7.449   8.712   9.750  0.2522 -0.9920 -0.7013
  153MOL0     C20559   7.415   8.589   9.849  0.7559  0.4042 -0.4304
  153MOL0     C20560   7.303   8.621   9.946  0.3544 -0.0642 -0.3612
  153MOL0     C20561   7.270   8.496  10.023  0.0274  0.7173 -0.1470
  153MOL0     C20562   7.142   8.508  10.110 -0.0054  0.4823  0.4658
  153MOL0     C20563   7.130   8.630  10.196  0.1987 -1.0114 -0.7993
  153MOL0     C20564   7.033   8.611  10.313 -0.2762 -0.7661  0.5796
  153MOL0    Cl20565   6.899   8.505  10.261 -0.2356  0.3252  0.3798
  153MOL0     C20566   7.565   8.815   9.294  0.4759 -0.0250 -1.2595
  153MOL0     C20567   7.555   8.796   9.155 -0.0443  0.5676  0.6937
  153MOL0     O20568   7.236   8.681   8.956  0.4264  0.1866  0.1227
  153MOL0     C20569   7.424   8.779   8.710 -0.0364 -0.2197 -0.5412
  153MOL0     C20570   7.390   8.830   8.586 -0.9554 -0.2279  0.3035
  153MOL0     N20571   6.900   8.714   7.953 -0.0792 -0.4458  0.1542
  153MOL0     N20572   6.813   8.789   7.891 -0.8132  0.4674 -0.2149
  153MOL0     C20573   5.846   8.510   7.370  0.6019 -0.0790  0.8142
  153MOL0     C20574   5.707   8.532   7.344  1.0700 -0.1460  0.0829
  153MOL0     C20575   5.301   8.735   7.346  0.1820  0.0715 -0.1107
  153MOL0     C20576   5.181   8.715   7.428 -0.5170 -0.4119 -0.7988
  153MOL0     C20577   5.065   8.787   7.406  0.3080 -0.5025  0.7466
  153MOL0     C20578   5.051   8.864   7.294  0.1676 -0.7887 -1.0273
  153MOL0     O20579   4.922   8.904   7.276 -0.5143 -0.3604  0.8383
  153MOL0     C20580   4.898   9.033   7.332 -0.4427 -0.2359  0.3612
  153MOL0     C20581   4.759   9.092   7.301  0.3156  0.2639  0.1622
  153MOL0     C20582   4.742   9.124   7.152  0.1443 -0.7128  0.8818
  153MOL0     C20583   4.808   9.244   7.097  0.0181  0.0139 -0.1008
  153MOL0     C20584   4.774   9.366   7.167 -0.0760  0.1391  0.2224
  153MOL0     C20585   4.738   9.450   7.247 -0.0700  1.0210 -0.5229
  153MOL0     C20586   5.160   8.882   7.216 -0.8550 -0.1888  0.0130
  153MOL0     C20587   5.282   8.816   7.236 -0.2581 -0.2281  0.2116
  153MOL0     H20588   5.708   8.865   7.390  1.1390  1.9049  1.2972
  153MOL0     H20589   5.949   8.824   7.453  0.1477 -1.0374  0.3741
  153MOL0     H20590   6.164   8.648   7.303  2.8622  0.0382  0.8361
  153MOL0     H20591   6.177   8.730   7.461  1.6302 -1.1742  1.5496
  153MOL0     H20592   6.294   8.535   7.565  1.7502 -0.3134 -0.4394
  153MOL0     H20593   6.285   8.459   7.409  0.2079  0.6624  0.9807
  153MOL0     H20594   6.481   8.532   7.407 -0.2352 -1.2009  3.0029
  153MOL0     H20595   6.409   8.658   7.310  2.6383 -0.7114  0.2277
  153MOL0     H20596   6.407   8.818   7.500  0.8373  0.4737  3.1498
  153MOL0     H20597   6.450   8.688   7.613 -1.6443  0.8257  1.1774
  153MOL0     H20598   6.665   8.679   7.482 -0.1587  0.7202 -0.2329
  153MOL0     H20599   6.609   8.821   7.390  0.4357 -4.5486 -2.1702
  153MOL0     H20600   6.584   8.938   7.635  1.7833  1.8437 -1.2735
  153MOL0     H20601   6.646   8.784   7.691 -0.3125  2.7256  0.8277
  153MOL0     H20602   6.859   8.826   7.590 -0.8860  1.2690 -2.5257
  153MOL0     H20603   6.801   8.956   7.507  2.9993 -1.1646 -1.0885
  153MOL0     H20604   6.734   9.015   7.798 -2.1447 -2.0178 -0.6691
  153MOL0     H20605   6.888   9.070   7.714 -1.2418  2.3131 -1.0027
  153MOL0     H20606   7.091   8.917   7.792  2.3241 -2.5017 -1.8776
  153MOL0     H20607   7.154   8.601   8.010  1.0346 -0.0369 -0.6309
  153MOL0     H20608   7.236   8.718   7.912  1.1174  4.0060  1.1748
  153MOL0     H20609   7.112   8.771   8.181  0.5430  1.6670 -0.1198
  153MOL0     H20610   7.173   8.894   8.078 -3.1113 -0.7461 -2.5126
  153MOL0     H20611   7.409   8.768   8.098  0.7077 -1.7184 -0.5274
  153MOL0     H20612   7.331   8.657   8.194 -0.1678 -0.1505  0.3193
  153MOL0     H20613   7.362   8.960   8.261  2.0901  0.6040  1.5998
  153MOL0     H20614   7.455   8.819   8.330 -1.1559 -4.5986  0.5031
  153MOL0     H20615   7.159   8.615   8.466 -1.5707  1.5564  0.8264
  153MOL0     H20616   7.070   8.490   8.692  0.5155  2.1077  0.0189
  153MOL0     H20617   7.230   8.394   8.677 -1.5551 -1.5401  0.9798
  153MOL0     H20618   7.177   8.466   8.825 -0.7846 -0.7294 -0.2526
  153MOL0     H20619   7.353   8.518   9.178 -1.6049  0.2520  2.3725
  153MOL0     H20620   7.382   8.548   9.400 -0.6316  0.4599 -1.1495
  153MOL0     H20621   7.360   8.637   9.574 -0.1099  0.5554 -0.2391
  153MOL0     H20622   7.522   8.574   9.626  0.0632  0.3309  1.0255
  153MOL0     H20623   7.547   8.749   9.779 -1.7144  4.0856  0.5978
  153MOL0     H20624   7.364   8.781   9.753 -0.1436 -1.3033 -2.9219
  153MOL0     H20625   7.506   8.573   9.908 -0.6098 -0.8844  1.4399
  153MOL0     H20626   7.388   8.505   9.784 -0.8914  1.5826 -1.3479
  153MOL0     H20627   7.338   8.696  10.017  3.1590 -1.2889 -0.3157
  153MOL0     H20628   7.217   8.660   9.891  0.5236 -0.1490 -0.6872
  153MOL0     H20629   7.355   8.486  10.091  0.1701  1.0857 -0.2697
  153MOL0     H20630   7.270   8.407   9.959  2.4901 -0.1734  0.9456
  153MOL0     H20631   7.067   8.502  10.030  1.9836 -0.2574 -1.4556
  153MOL0     H20632   7.122   8.421  10.172 -1.9427  1.7231  1.6923
  153MOL0     H20633   7.084   8.715  10.144 -2.3644 -1.2870  0.8440
  153MOL0     H20634   7.231   8.660  10.226  0.0542 -1.2272 -0.0728
  153MOL0     H20635   7.002   8.710  10.347  0.9346 -0.6229  1.3180
  153MOL0     H20636   7.093   8.562  10.390  0.5098 -1.1545 -0.2568
  153MOL0     H20637   7.620   8.898   9.338 -0.1413 -1.3504  2.3351
  153MOL0     H20638   7.606   8.865   9.089  0.1120  0.7423  0.9966
  153MOL0     H20639   7.493   8.835   8.773  0.5607  1.3587 -2.4933
  153MOL0     H20640   7.439   8.920   8.550 -0.8652 -1.1510 -2.0503
  153MOL0     H20641   5.888   8.411   7.361  2.8838  0.8276  0.9130
  153MOL0     H20642   5.640   8.448   7.327  1.1101  0.1604 -1.7735
  153MOL0     H20643   5.179   8.642   7.509 -0.3912  0.1675 -0.2616
  153MOL0     H20644   4.984   8.760   7.473 -0.5773 -1.8001 -0.7803
  153MOL0     H20645   4.905   9.039   7.441 -5.1813  2.4639  0.8073
  153MOL0     H20646   4.968   9.106   7.290 -0.6421 -1.6338 -2.6445
  153MOL0     H20647   4.761   9.184   7.360 -0.3902  1.9092 -2.2036
  153MOL0     H20648   4.686   9.016   7.332  0.5549 -0.6998 -1.5092
  153MOL0     H20649   4.635   9.139   7.132  0.2601  0.2714  0.9874
  153MOL0     H20650   4.768   9.035   7.093 -1.6491 -1.3360  0.9531
  153MOL0     H20651   4.793   9.252   6.989 -1.5067  2.1135  0.2241
  153MOL0     H20652   4.917   9.237   7.109 -0.0040  0.8489  0.6841
  153MOL0     H20653   4.692   9.516   7.318  0.4035  0.0673  0.7230
  153MOL0     H20654   5.156   8.932   7.119  0.2199  0.8793  0.4951
  153MOL0     H20655   5.366   8.813   7.168 -0.8808 -3.8409 -0.6216
  154MOL0     O20656   2.093   1.154  10.898 -0.9721  0.5952 -0.1693
  154MOL0     C20657   2.179   1.126  10.988  0.5536  0.2371  0.7692
  154MOL0     O20658   2.193   1.003  11.056  0.7938  0.2100 -0.0964
  154MOL0     C20659   2.114   0.889  11.027 -0.4888  1.2438 -0.5031
  154MOL0     C20660   2.071   0.827  11.141  0.0454 -0.2653 -0.9134
  154MOL0     C20661   2.011   0.703  11.134 -0.0747  0.4541 -0.6184
  154MOL0     C20662   1.987   0.645  10.994  0.3318  0.7225  0.0668
  154MOL0     O20663   1.933   0.524  10.999 -0.1578  0.4947  0.2089
  154MOL0     C20664   1.919   0.446  10.877 -0.6705 -0.5894 -0.7373
  154MOL0     C20665   1.822   0.330  10.915 -0.4235 -0.9661  1.2376
  154MOL0     C20666   1.675   0.379  10.947  0.5406  0.3255  0.8766
  154MOL0     C20667   1.612   0.447  10.824  0.4561  0.0776  0.3401
  154MOL0     C20668   1.459   0.491  10.850  0.5768  0.6601 -0.6733
  154MOL0     C20669   1.387   0.509  10.717  0.1649  0.4357  0.1454
  154MOL0     C20670   1.244   0.549  10.725  0.1252 -0.5331  0.8853
  154MOL0     C20671   1.152   0.457  10.809  0.6354  0.0793 -1.0905
  154MOL0     N20672   1.142   0.318  10.763  0.2783 -0.5359  0.2490
  154MOL0     C20673   1.085   0.287  10.637  0.3843  0.2433  0.6652
  154MOL0     C20674   1.103   0.153  10.616  0.1183 -1.4121  0.3349
  154MOL0     C20675   1.057   0.065  10.509  0.2441 -0.4034  1.1241
  154MOL0     C20676   0.959  -0.035  10.562  0.2339 -0.7466  0.2714
  154MOL0     C20677   0.880  -0.106  10.451  0.0387  0.4791  1.3477
  154MOL0     C20678   0.954  -0.202  10.366 -0.9758  0.1921 -0.6957
  154MOL0     O20679   1.047  -0.287  10.439  0.0445  0.1301 -0.1353
  154MOL0     C20680   1.010  -0.392  10.526  0.1202  1.1823  0.2074
  154MOL0     C20681   1.112  -0.441  10.607 -0.2255  0.3099  0.1314
  154MOL0     C20682   1.085  -0.550  10.696  0.5907  0.0791 -0.0860
  154MOL0     C20683   1.204  -0.580  10.786  0.0613  0.2102  0.2593
  154MOL0     C20684   0.959  -0.615  10.688  1.1870 -0.2935  0.4301
  154MOL0     C20685   0.909  -0.725  10.775 -0.6366  0.1114  0.3441
  154MOL0     O20686   0.784  -0.727  10.827 -0.0076  0.5389  0.5710
  154MOL0     C20687   0.753  -0.808  10.940 -0.4756  0.9679  0.1615
  154MOL0     C20688   0.839  -0.811  11.052 -0.9065  0.7564 -0.1957
  154MOL0     C20689   0.820  -0.899  11.168  0.6858  0.1715  0.8506
  154MOL0     C20690   0.699  -0.968  11.161  0.4497  0.1996  0.2207
  154MOL0     O20691   0.679  -1.054  11.261 -1.0701 -0.4129  0.0860
  154MOL0     C20692   0.637  -0.998  11.390 -0.4603 -0.8578  0.0473
  154MOL0     C20693   0.596  -1.120  11.470  0.4089 -0.8505  0.2627
  154MOL0     C20694   0.534  -1.065  11.601 -0.2725  0.2245  0.4477
  154MOL0     C20695   0.509  -1.174  11.703 -1.0407  0.1776 -0.1784
  154MOL0     C20696   0.403  -1.281  11.657 -0.1721  1.0419  0.1062
  154MOL0     C20697   0.256  -1.232  11.630 -0.3876  0.1330  0.5259
  154MOL0     C20698   0.206  -1.138  11.741 -0.3822 -0.8527  0.4011
  154MOL0     C20699   0.062  -1.106  11.711  0.4561  0.0157  0.0076
  154MOL0    Cl20700   0.004  -0.973  11.823  0.6063  0.0065 -0.2607
  154MOL0     C20701   0.603  -0.955  11.057  0.7932 -0.9742 -0.1230
  154MOL0     C20702   0.633  -0.882  10.949  0.1686 -0.5457 -0.6689
  154MOL0     O20703   1.008  -0.793  10.813  0.0427  0.5717  0.8484
  154MOL0     C20704   0.857  -0.567  10.601 -0.2036 -0.4806  0.5439
  154MOL0     C20705   0.883  -0.441  10.536  0.3266  0.4412  0.5511
  154MOL0     N20706   1.190   0.117  10.717 -0.1047 -0.5448 -0.4474
  154MOL0     N20707   1.216   0.212  10.799 -0.2609  0.8258  0.0778
  154MOL0     C20708   2.020   0.717  10.880 -0.2823 -0.2186 -0.0222
  154MOL0     C20709   2.095   0.835  10.895  0.1332  0.2072  0.4817
  154MOL0     C20710   2.268   1.235  11.026  0.8158 -0.6490  0.8488
  154MOL0     C20711   2.343   1.235  11.140  0.8029 -0.3232 -0.0670
  154MOL0     C20712   2.421   1.350  11.171 -0.5277 -0.6223  0.8818
  154MOL0     C20713   2.423   1.467  11.089 -0.6327  0.7160  0.1952
  154MOL0     O20714   2.500   1.581  11.117 -0.2079  0.0155  0.9482
  154MOL0     C20715   2.560   1.591  11.243  0.0754 -0.5621 -0.0286
  154MOL0     C20716   2.632   1.721  11.256 -0.6176  1.0114  0.2094
  154MOL0     C20717   2.766   1.741  11.163 -0.6485  0.2543 -0.3708
  154MOL0     C20718   2.890   1.644  11.174  0.9839 -0.6071  0.1602
  154MOL0     C20719   2.958   1.676  11.297 -0.4192 -1.2471 -0.0009
  154MOL0     C20720   3.000   1.731  11.397 -0.2324  0.2323 -0.3389
  154MOL0     C20721   2.361   1.459  10.971 -0.1786  0.3668  0.5988
  154MOL0     C20722   2.282   1.349  10.934  0.8039 -0.0452  0.4001
  154MOL0     H20723   2.090   0.873  11.237 -1.0803 -4.3062  1.4853
  154MOL0     H20724   1.994   0.654  11.229  0.2256 -1.3382 -1.4560
  154MOL0     H20725   1.890   0.503  10.788 -0.2716  3.5393  1.5356
  154MOL0     H20726   2.022   0.414  10.858  1.2676  2.0813  3.7820
  154MOL0     H20727   1.814   0.264  10.828 -2.2488  2.8860 -1.8227
  154MOL0     H20728   1.870   0.282  11.001  2.6420 -1.2360 -0.4775
  154MOL0     H20729   1.617   0.287  10.964 -0.2051  0.2760 -1.6161
  154MOL0     H20730   1.676   0.446  11.034 -2.4283  3.1824 -1.0306
  154MOL0     H20731   1.672   0.535  10.798  0.7972 -0.7435 -1.8968
  154MOL0     H20732   1.620   0.382  10.736  1.9429  0.6323  0.0324
  154MOL0     H20733   1.408   0.411  10.904  0.8079  0.3497 -0.9076
  154MOL0     H20734   1.467   0.588  10.900  1.2581  0.4441 -0.3456
  154MOL0     H20735   1.444   0.588  10.666 -0.0361 -0.4217 -1.4777
  154MOL0     H20736   1.407   0.422  10.654 -0.0384 -1.0618  2.0405
  154MOL0     H20737   1.239   0.650  10.767  0.3714 -0.3513  0.4786
  154MOL0     H20738   1.207   0.556  10.622 -1.0230  0.7758  1.3558
  154MOL0     H20739   1.047   0.489  10.810  0.5011  0.0859  2.7874
  154MOL0     H20740   1.177   0.463  10.916 -2.0530  0.2082 -0.4050
  154MOL0     H20741   1.028   0.360  10.581  1.0684  1.1743  1.1630
  154MOL0     H20742   1.005   0.124  10.434  0.5872 -0.6771  0.6657
  154MOL0     H20743   1.146   0.019  10.466 -0.1088 -0.5342  0.5159
  154MOL0     H20744   0.889   0.019  10.626  0.5173  0.7572 -0.6268
  154MOL0     H20745   1.001  -0.109  10.630 -1.8317 -0.9443  1.4074
  154MOL0     H20746   0.844  -0.041  10.371 -2.0131 -0.8624  1.1030
  154MOL0     H20747   0.800  -0.164  10.499  0.8295 -2.2461 -0.3685
  154MOL0     H20748   1.002  -0.155  10.279  0.7149  0.3667  0.2764
  154MOL0     H20749   0.884  -0.275  10.324  0.8484 -2.2604  0.2743
  154MOL0     H20750   1.211  -0.400  10.593 -1.6348  3.2913 -2.2421
  154MOL0     H20751   1.277  -0.635  10.726 -1.1434  1.4523 -2.5536
  154MOL0     H20752   1.258  -0.497  10.833  0.5154  1.2865 -1.9752
  154MOL0     H20753   1.180  -0.644  10.871  0.5302 -0.9662 -0.4771
  154MOL0     H20754   0.933  -0.757  11.052 -1.4414  1.7087 -1.1542
  154MOL0     H20755   0.891  -0.907  11.250  1.3052 -4.3028  0.1404
  154MOL0     H20756   0.726  -0.956  11.437 -1.0078 -0.4056  0.6907
  154MOL0     H20757   0.562  -0.919  11.383 -1.4235 -1.7658 -0.2253
  154MOL0     H20758   0.514  -1.178  11.427  0.9419 -1.3088 -0.1454
  154MOL0     H20759   0.678  -1.192  11.475 -0.3319 -1.7080  0.4531
  154MOL0     H20760   0.446  -1.002  11.586 -0.9696 -0.4547  1.5506
  154MOL0     H20761   0.615  -0.998  11.631 -0.3505  0.7189 -0.4121
  154MOL0     H20762   0.605  -1.227  11.716  0.9216  3.3063 -0.8651
  154MOL0     H20763   0.472  -1.135  11.798 -2.1374 -0.5963 -0.2612
  154MOL0     H20764   0.412  -1.358  11.734  6.0500  0.4372 -0.7655
  154MOL0     H20765   0.437  -1.337  11.570 -0.3038  1.7979 -0.4434
  154MOL0     H20766   0.239  -1.191  11.531 -2.5428  0.0493  0.8201
  154MOL0     H20767   0.193  -1.319  11.613  0.7114 -0.7491  0.7842
  154MOL0     H20768   0.267  -1.047  11.748 -1.3665 -0.2975  2.3260
  154MOL0     H20769   0.199  -1.180  11.841  1.1334 -1.0517  0.4512
  154MOL0     H20770   0.010  -1.203  11.716  2.5819 -1.3759 -2.2720
  154MOL0     H20771   0.041  -1.073  11.609 -0.4406 -2.2535 -0.6143
  154MOL0     H20772   0.508  -1.006  11.071 -0.0427  0.5245 -0.1799
  154MOL0     H20773   0.567  -0.890  10.864 -2.0003  1.1130  0.7482
  154MOL0     H20774   0.753  -0.598  10.601 -0.0702 -1.0035  1.8794
  154MOL0     H20775   0.805  -0.398  10.473 -0.9455 -1.8062  0.5059
  154MOL0     H20776   2.016   0.673  10.781  1.1495 -0.6053  0.0633
  154MOL0     H20777   2.105   0.889  10.801 -1.8302  1.0390  0.6962
  154MOL0     H20778   2.329   1.154  11.210 -4.4121 -0.1769 -0.5612
  154MOL0     H20779   2.474   1.351  11.265  2.9960 -0.4245 -0.9519
  154MOL0     H20780   2.476   1.597  11.313 -1.9853 -4.7542 -1.7844
  154MOL0     H20781   2.613   1.500  11.274  1.6344 -0.6418 -2.6565
  154MOL0     H20782   2.658   1.737  11.361 -0.1385 -3.4374  0.9611
  154MOL0     H20783   2.557   1.800  11.240 -1.2814  1.0342  2.9385
  154MOL0     H20784   2.806   1.838  11.194  3.9240 -2.2129  2.4323
  154MOL0     H20785   2.741   1.742  11.057  1.6596  1.2584 -0.9541
  154MOL0     H20786   2.947   1.649  11.080  2.1769  1.2805  0.9143
  154MOL0     H20787   2.855   1.541  11.170  0.1111 -0.3213 -3.8510
  154MOL0     H20788   3.026   1.789  11.483 -0.1286  1.8849 -1.4374
  154MOL0     H20789   2.358   1.551  10.913  0.1208  0.5837  0.9244
  154MOL0     H20790   2.226   1.349  10.841  2.3042 -1.8415 -0.5691
  155MOL0     O20791   7.497   3.613   6.245 -0.1216  0.4412 -0.2996
  155MOL0     C20792   7.392   3.543   6.262  0.1003 -0.7215  0.5233
  155MOL0     O20793   7.290   3.570   6.354 -0.0824 -0.2846 -0.3652
  155MOL0     C20794   7.298   3.683   6.431 -0.1873 -0.6457 -0.9080
  155MOL0     C20795   7.360   3.813   6.401  0.5476  0.0823  0.1322
  155MOL0     C20796   7.378   3.917   6.494 -0.4718  1.1297 -0.4051
  155MOL0     C20797   7.335   3.906   6.620  0.2863 -0.0751 -0.9829
  155MOL0     O20798   7.341   4.002   6.718  0.6670  0.1844 -0.0156
  155MOL0     C20799   7.340   4.143   6.701 -0.3572 -0.6700  0.7548
  155MOL0     C20800   7.464   4.196   6.759 -0.2849  0.3304  0.3317
  155MOL0     C20801   7.496   4.339   6.710  1.4531  1.4433 -1.1437
  155MOL0     C20802   7.626   4.369   6.778  1.3966 -0.8881  0.4059
  155MOL0     C20803   7.670   4.514   6.752  0.4066  0.4792  0.4884
  155MOL0     C20804   7.608   4.611   6.859 -0.1154 -0.2672  0.4732
  155MOL0     C20805   7.626   4.763   6.817 -0.1050  0.3355  0.0161
  155MOL0     C20806   7.579   4.849   6.933  0.0816 -0.1320  0.4115
  155MOL0     N20807   7.519   4.969   6.861 -0.2626  0.5297  0.7440
  155MOL0     C20808   7.383   4.975   6.827 -0.0562 -0.3898 -0.2767
  155MOL0     C20809   7.371   5.081   6.752 -0.6351 -0.4848 -0.1304
  155MOL0     C20810   7.236   5.147   6.713  0.6449  0.8552 -0.5905
  155MOL0     C20811   7.121   5.121   6.812 -0.1922  0.6011 -0.3364
  155MOL0     C20812   7.151   5.205   6.938 -0.0315 -0.8526  0.4515
  155MOL0     C20813   7.045   5.185   7.044 -0.5794  0.6029 -1.2831
  155MOL0     O20814   6.916   5.214   6.987  0.1658  0.5390 -0.0483
  155MOL0     C20815   6.855   5.325   7.028  0.1745 -0.3518  0.5359
  155MOL0     C20816   6.790   5.339   7.151 -0.0067  0.6742 -0.2070
  155MOL0     C20817   6.719   5.449   7.188  0.6403 -0.6151  0.3829
  155MOL0     C20818   6.660   5.465   7.331 -0.5836  0.1830  0.0933
  155MOL0     C20819   6.710   5.562   7.096  0.4227  0.1220 -0.9128
  155MOL0     C20820   6.652   5.697   7.130 -0.5048  0.1152 -0.1558
  155MOL0     O20821   6.678   5.802   7.039  0.2480 -0.3449 -0.2792
  155MOL0     C20822   6.597   5.917   7.048 -0.4649  0.1022  0.5965
  155MOL0     C20823   6.563   5.980   7.166 -0.7175 -0.7895  1.5917
  155MOL0     C20824   6.488   6.104   7.164 -0.6024  0.6897 -1.0617
  155MOL0     C20825   6.440   6.155   7.044  0.2525  0.1269  0.3609
  155MOL0     O20826   6.378   6.275   7.049  0.4978  0.3016  1.3172
  155MOL0     C20827   6.301   6.310   6.929  0.3120  0.6924  0.1734
  155MOL0     C20828   6.229   6.439   6.971  1.0179 -0.9156  0.4724
  155MOL0     C20829   6.325   6.559   6.954  0.1074 -0.8227  1.0344
  155MOL0     C20830   6.264   6.692   7.011 -0.5102 -0.1546 -0.2962
  155MOL0     C20831   6.363   6.807   6.999 -0.2886  0.4177 -0.4496
  155MOL0     C20832   6.360   6.895   7.127  0.4914  1.0606 -0.0676
  155MOL0     C20833   6.477   6.994   7.103  0.8242 -0.3316  1.0746
  155MOL0     C20834   6.476   7.091   7.223  0.0075 -0.3586  0.5233
  155MOL0    Cl20835   6.359   7.222   7.182 -0.2740  0.1365  0.1659
  155MOL0     C20836   6.477   6.083   6.924 -0.3130  0.1601  0.4161
  155MOL0     C20837   6.556   5.976   6.928  0.0807 -0.6554 -0.3669
  155MOL0     O20838   6.564   5.700   7.213 -0.4231 -0.0212 -0.3734
  155MOL0     C20839   6.767   5.541   6.972  1.9981 -0.0620  0.9194
  155MOL0     C20840   6.832   5.426   6.934  0.3336  0.0322  0.5954
  155MOL0     N20841   7.494   5.139   6.736 -0.2206 -0.4756 -0.2122
  155MOL0     N20842   7.587   5.060   6.799  1.8095  0.4846  0.7137
  155MOL0     C20843   7.280   3.789   6.659  0.2961  0.3636  0.7129
  155MOL0     C20844   7.252   3.685   6.562  0.0717 -0.7852  0.5795
  155MOL0     C20845   7.374   3.419   6.196  0.4895 -0.5142  1.2633
  155MOL0     C20846   7.251   3.342   6.187 -0.7616 -1.0334 -0.2520
  155MOL0     C20847   7.249   3.202   6.158 -0.2798 -0.2996  0.5042
  155MOL0     C20848   7.364   3.146   6.099 -0.4971  0.2756  0.7720
  155MOL0     O20849   7.337   3.026   6.038  0.4175  0.3800 -0.5937
  155MOL0     C20850   7.442   2.964   5.970 -0.0155 -0.4514 -1.0562
  155MOL0     C20851   7.401   2.831   5.916  0.1492  0.4012  0.5466
  155MOL0     C20852   7.301   2.745   6.004 -0.0336  0.4028  0.4855
  155MOL0     C20853   7.344   2.717   6.144 -0.2612  0.0341 -0.3856
  155MOL0     C20854   7.483   2.667   6.125 -0.7582  0.4599  0.3732
  155MOL0     C20855   7.603   2.623   6.128 -0.5968 -0.3554 -1.0252
  155MOL0     C20856   7.481   3.220   6.107 -0.0965  0.9171 -0.1153
  155MOL0     C20857   7.487   3.356   6.145 -0.6780  1.4600 -0.5550
  155MOL0     H20858   7.384   3.819   6.296 -1.0035  2.2389 -0.1715
  155MOL0     H20859   7.443   3.997   6.462  2.6827 -0.6075  1.2497
  155MOL0     H20860   7.341   4.160   6.593  2.5584 -0.6641  0.7172
  155MOL0     H20861   7.255   4.188   6.753 -0.5309 -1.4687  1.1930
  155MOL0     H20862   7.454   4.180   6.867  0.4278 -3.4488 -0.0313
  155MOL0     H20863   7.548   4.144   6.713  0.8458  3.6515 -1.7396
  155MOL0     H20864   7.497   4.341   6.601  0.3960  2.4956 -1.1573
  155MOL0     H20865   7.412   4.399   6.747 -0.4980 -0.0603 -2.9164
  155MOL0     H20866   7.625   4.354   6.887  1.3200 -0.4011  0.4756
  155MOL0     H20867   7.710   4.309   6.741  0.1318 -4.3651  2.6241
  155MOL0     H20868   7.779   4.526   6.755  0.2706  2.2343 -0.1509
  155MOL0     H20869   7.639   4.547   6.652  0.2105 -1.9584 -0.3253
  155MOL0     H20870   7.502   4.583   6.855  0.0085 -0.6460 -2.6935
  155MOL0     H20871   7.657   4.595   6.956 -2.1538  2.0204  2.0150
  155MOL0     H20872   7.731   4.780   6.790  0.2127 -2.8943 -1.1127
  155MOL0     H20873   7.569   4.789   6.727  0.3204 -0.7411 -0.5723
  155MOL0     H20874   7.663   4.880   6.996  1.0484 -0.3576 -0.7204
  155MOL0     H20875   7.506   4.796   6.995 -1.1264 -0.5854 -1.3002
  155MOL0     H20876   7.304   4.909   6.862 -2.4318  2.1435 -0.5970
  155MOL0     H20877   7.244   5.254   6.696  0.5975  1.2851  1.7692
  155MOL0     H20878   7.204   5.088   6.626 -3.5387 -1.0265  1.8708
  155MOL0     H20879   7.112   5.015   6.833 -0.6736  0.7230  0.0904
  155MOL0     H20880   7.034   5.153   6.754  0.4499  0.2472 -1.5315
  155MOL0     H20881   7.141   5.312   6.918  1.7678 -0.4731  1.3948
  155MOL0     H20882   7.249   5.187   6.982  1.1630 -0.2278 -1.7996
  155MOL0     H20883   7.051   5.254   7.129 -4.5162  0.0478 -0.3819
  155MOL0     H20884   7.049   5.080   7.074  1.4403  0.9422 -0.1414
  155MOL0     H20885   6.793   5.259   7.225  2.1435  0.3814 -0.5473
  155MOL0     H20886   6.552   5.467   7.312 -0.1866 -0.3557 -2.5434
  155MOL0     H20887   6.694   5.391   7.404 -0.4198  0.9287  0.8001
  155MOL0     H20888   6.685   5.562   7.376 -0.8195  2.7367 -4.6209
  155MOL0     H20889   6.597   5.941   7.261 -0.4526 -1.4393  1.2302
  155MOL0     H20890   6.475   6.166   7.252 -0.9129  1.5014 -1.6679
  155MOL0     H20891   6.362   6.332   6.841 -1.6763  2.1680 -0.9242
  155MOL0     H20892   6.230   6.228   6.916  0.3561  0.3775  1.7256
  155MOL0     H20893   6.136   6.445   6.914 -1.0754 -2.2567  3.4739
  155MOL0     H20894   6.189   6.431   7.072 -0.3997  1.0060  0.1321
  155MOL0     H20895   6.337   6.571   6.846  1.4960 -5.8750  0.3997
  155MOL0     H20896   6.418   6.543   7.010 -0.0493 -2.4298  0.8713
  155MOL0     H20897   6.161   6.709   6.978 -0.5279 -0.1168 -0.2243
  155MOL0     H20898   6.260   6.680   7.119  3.1305  1.5691  0.1826
  155MOL0     H20899   6.337   6.868   6.912 -0.2050 -0.9665 -1.4924
  155MOL0     H20900   6.461   6.763   6.980 -0.2391  0.8521 -1.2511
  155MOL0     H20901   6.260   6.938   7.136 -0.1980 -0.4775 -0.0055
  155MOL0     H20902   6.388   6.846   7.221  0.7317  2.0125  0.3604
  155MOL0     H20903   6.464   7.044   7.007 -3.7302  0.3597  1.8235
  155MOL0     H20904   6.570   6.938   7.107  1.7351  1.1723  2.1267
  155MOL0     H20905   6.574   7.134   7.244  1.5720 -2.9867 -0.8515
  155MOL0     H20906   6.434   7.036   7.308  0.1227 -1.7075 -0.2537
  155MOL0     H20907   6.446   6.130   6.831  0.3663  0.3111  0.2627
  155MOL0     H20908   6.582   5.935   6.831  0.0485 -3.5404  0.7213
  155MOL0     H20909   6.752   5.612   6.891 -1.7069 -0.0905  1.4111
  155MOL0     H20910   6.889   5.417   6.842  0.2542  1.4105  0.3849
  155MOL0     H20911   7.243   3.779   6.760 -0.4360 -0.0298  0.4134
  155MOL0     H20912   7.194   3.602   6.601 -1.7740  0.7079  1.1634
  155MOL0     H20913   7.162   3.375   6.239 -0.4218 -1.4441  0.6212
  155MOL0     H20914   7.160   3.140   6.167 -2.4574  2.6642  1.2882
  155MOL0     H20915   7.477   3.032   5.892 -1.8546  3.3296  1.1471
  155MOL0     H20916   7.527   2.946   6.036  1.8035 -0.5971 -3.3082
  155MOL0     H20917   7.489   2.775   5.882  0.0068  1.4650 -1.8274
  155MOL0     H20918   7.346   2.844   5.822  1.4440 -0.9721 -0.4504
  155MOL0     H20919   7.280   2.650   5.952 -2.0336  1.3684 -0.5764
  155MOL0     H20920   7.205   2.795   6.011 -1.8940 -2.1237 -3.1856
  155MOL0     H20921   7.274   2.645   6.186  2.0136 -3.1867 -1.6363
  155MOL0     H20922   7.360   2.800   6.213 -0.4378 -0.6267  0.4720
  155MOL0     H20923   7.703   2.590   6.147  0.0489  2.6412  1.5497
  155MOL0     H20924   7.575   3.170   6.085 -1.0407 -1.0112 -0.0157
  155MOL0     H20925   7.581   3.409   6.137  1.0361 -1.2367  0.1164
  156MOL0     O20926   2.440   5.285   4.698  0.5744 -0.1009 -0.1078
  156MOL0     C20927   2.452   5.398   4.725 -0.7445  0.0970  0.2736
  156MOL0     O20928   2.539   5.492   4.670 -0.1607 -0.1017 -0.7654
  156MOL0     C20929   2.639   5.460   4.580 -0.1539  0.1544 -0.3883
  156MOL0     C20930   2.659   5.539   4.471 -0.2312 -0.3567  0.5509
  156MOL0     C20931   2.751   5.507   4.367  1.4151 -0.8038 -0.1849
  156MOL0     C20932   2.840   5.406   4.381  0.1838 -0.1032  0.6839
  156MOL0     O20933   2.927   5.393   4.271  0.0268  0.2804 -0.7141
  156MOL0     C20934   3.035   5.298   4.289  0.6717  0.6942  0.3187
  156MOL0     C20935   3.156   5.327   4.190 -0.6994 -0.3437  0.9432
  156MOL0     C20936   3.225   5.192   4.156 -0.0396  0.2956  0.6182
  156MOL0     C20937   3.285   5.204   4.012  0.4886  1.5767  0.2964
  156MOL0     C20938   3.347   5.071   3.958  0.7623 -0.6250 -0.0968
  156MOL0     C20939   3.405   5.100   3.819 -0.8703  0.4351  0.6991
  156MOL0     C20940   3.492   4.975   3.771 -0.8409 -0.2093  0.2941
  156MOL0     C20941   3.405   4.847   3.754  0.0383  0.0939  0.5550
  156MOL0     N20942   3.451   4.771   3.634  0.6608 -0.3289  0.4111
  156MOL0     C20943   3.573   4.706   3.618 -0.0844 -0.8806 -0.0062
  156MOL0     C20944   3.574   4.659   3.490 -0.2145 -0.7003  0.9539
  156MOL0     C20945   3.691   4.584   3.441  0.3140 -0.3432  0.1411
  156MOL0     C20946   3.661   4.515   3.302  0.1557  0.0932 -0.3532
  156MOL0     C20947   3.799   4.458   3.251 -0.2882 -1.3444  0.2421
  156MOL0     C20948   3.831   4.325   3.318  0.5269  0.3182 -0.9775
  156MOL0     O20949   3.965   4.282   3.303  0.4291  0.1324 -0.0592
  156MOL0     C20950   3.997   4.270   3.173  0.4504  0.5192  0.3008
  156MOL0     C20951   3.934   4.192   3.075 -0.2195 -0.3980  0.8885
  156MOL0     C20952   4.001   4.157   2.952  0.6756  0.3867  1.3840
  156MOL0     C20953   3.924   4.065   2.851  0.7538 -0.7114  0.2032
  156MOL0     C20954   4.125   4.203   2.920  0.0361 -0.6211  0.2993
  156MOL0     C20955   4.198   4.167   2.806  0.6690  0.5317 -0.6439
  156MOL0     O20956   4.299   4.083   2.822  0.4595  0.1253  0.6588
  156MOL0     C20957   4.352   4.018   2.711  1.6552  0.9641  0.1837
  156MOL0     C20958   4.397   3.895   2.748 -0.4736 -0.4103 -0.0375
  156MOL0     C20959   4.466   3.823   2.662  0.0798 -0.8153 -0.4087
  156MOL0     C20960   4.501   3.870   2.533 -0.2563 -0.0083 -0.3172
  156MOL0     O20961   4.570   3.788   2.456  0.3100  0.6774  0.7616
  156MOL0     C20962   4.658   3.854   2.369  0.1660 -1.1002  0.0117
  156MOL0     C20963   4.768   3.759   2.311  1.0770 -0.0155  0.4881
  156MOL0     C20964   4.903   3.828   2.314 -1.2706 -0.1358  0.5176
  156MOL0     C20965   4.990   3.751   2.211  0.1543  0.5880 -1.1809
  156MOL0     C20966   5.146   3.754   2.241 -0.4317 -0.2856 -0.0907
  156MOL0     C20967   5.201   3.889   2.221  0.3270 -0.1010  0.0670
  156MOL0     C20968   5.351   3.893   2.241  0.5711  0.8262 -0.3354
  156MOL0     C20969   5.426   3.905   2.109 -1.1964  0.4217 -0.0282
  156MOL0    Cl20970   5.424   3.761   2.014 -0.6123  0.4149  0.0240
  156MOL0     C20971   4.455   4.000   2.496  1.0697 -0.2278 -0.5446
  156MOL0     C20972   4.376   4.063   2.586  0.3782 -0.0239 -0.3358
  156MOL0     O20973   4.146   4.199   2.703  0.3433  0.9327  0.6885
  156MOL0     C20974   4.188   4.288   3.015  0.1066 -0.1260  0.2229
  156MOL0     C20975   4.128   4.319   3.139  1.5190  0.0670 -0.1352
  156MOL0     N20976   3.447   4.693   3.435  0.9484  0.2562 -0.0372
  156MOL0     N20977   3.386   4.774   3.514 -0.0873  0.1789  0.4908
  156MOL0     C20978   2.831   5.330   4.501 -1.2323  0.4217 -0.0122
  156MOL0     C20979   2.726   5.355   4.594 -1.4238  0.7979 -0.6228
  156MOL0     C20980   2.359   5.446   4.832  0.4035  0.1698  0.9173
  156MOL0     C20981   2.387   5.567   4.895  0.4398  0.4713 -0.7466
  156MOL0     C20982   2.316   5.596   5.014 -0.4644 -0.1682 -0.1633
  156MOL0     C20983   2.210   5.515   5.066 -1.4823  0.9271 -0.5716
  156MOL0     O20984   2.170   5.528   5.203 -0.4473  0.0188  0.0489
  156MOL0     C20985   2.028   5.545   5.221 -0.2630 -0.0455  0.3303
  156MOL0     C20986   1.984   5.561   5.361  0.3024 -0.0512  0.4937
  156MOL0     C20987   2.053   5.670   5.453  0.0061 -0.0896 -0.5799
  156MOL0     C20988   2.082   5.626   5.596 -0.7467  0.2062 -0.0370
  156MOL0     C20989   2.206   5.540   5.602  0.3754  0.4675  0.4050
  156MOL0     C20990   2.297   5.459   5.623  0.3981  1.4595 -0.4792
  156MOL0     C20991   2.183   5.394   4.996  0.1012 -0.5503  0.0530
  156MOL0     C20992   2.257   5.361   4.881  0.1081 -0.8266  0.0275
  156MOL0     H20993   2.600   5.630   4.477 -2.5295 -1.7142 -0.1337
  156MOL0     H20994   2.753   5.564   4.275 -0.8831 -1.5435 -0.7587
  156MOL0     H20995   3.072   5.288   4.392  2.2480  0.4244 -0.2437
  156MOL0     H20996   2.997   5.199   4.262  1.0661  1.1819 -2.2221
  156MOL0     H20997   3.112   5.373   4.101 -0.8502  1.5108  1.9194
  156MOL0     H20998   3.223   5.401   4.235 -0.5033  1.1831 -1.6407
  156MOL0     H20999   3.310   5.169   4.221  0.1474 -0.8426 -0.0101
  156MOL0     H21000   3.159   5.105   4.149 -0.4689  0.6180  0.6115
  156MOL0     H21001   3.206   5.229   3.942  2.5913  0.5253 -2.6286
  156MOL0     H21002   3.366   5.278   4.012  2.3114 -0.1764 -3.2374
  156MOL0     H21003   3.423   5.024   4.021  0.9398 -1.0012 -0.5818
  156MOL0     H21004   3.265   4.998   3.962 -1.4130  1.7167  0.9217
  156MOL0     H21005   3.332   5.102   3.737 -0.2980 -3.0816 -0.0620
  156MOL0     H21006   3.467   5.190   3.816  1.3932 -1.0719  0.1368
  156MOL0     H21007   3.540   4.997   3.675 -2.3748  0.8607 -0.2639
  156MOL0     H21008   3.572   4.962   3.844  0.0683  3.4808  0.1277
  156MOL0     H21009   3.299   4.865   3.737  0.6309  1.5966 -2.0859
  156MOL0     H21010   3.413   4.780   3.840  0.2982 -1.7918 -0.9001
  156MOL0     H21011   3.641   4.687   3.701 -0.3379  0.6811  0.5978
  156MOL0     H21012   3.777   4.652   3.440  0.0892  0.2044  3.9858
  156MOL0     H21013   3.718   4.514   3.520  0.2385  2.2080  2.6013
  156MOL0     H21014   3.615   4.576   3.223  2.0382 -0.7640 -2.2104
  156MOL0     H21015   3.605   4.422   3.313  0.8152 -0.2006  0.6323
  156MOL0     H21016   3.881   4.530   3.258 -0.6014 -1.0828  1.3874
  156MOL0     H21017   3.787   4.432   3.145  1.3994  0.1798 -0.3779
  156MOL0     H21018   3.770   4.249   3.268  0.1093  2.3758 -3.7785
  156MOL0     H21019   3.816   4.333   3.426  1.3946  0.8942 -0.8892
  156MOL0     H21020   3.839   4.142   3.092 -0.5309 -0.7252 -1.4412
  156MOL0     H21021   3.833   4.113   2.814 -0.5281  0.7295  4.5849
  156MOL0     H21022   3.989   4.018   2.776  0.9985 -1.1404  0.6786
  156MOL0     H21023   3.896   3.976   2.909 -0.5498 -1.4374 -1.4515
  156MOL0     H21024   4.371   3.850   2.842 -1.4263  0.7952  0.3010
  156MOL0     H21025   4.505   3.727   2.694 -1.5218 -0.8892  1.4795
  156MOL0     H21026   4.597   3.893   2.287  0.3005  0.8933  0.7959
  156MOL0     H21027   4.716   3.927   2.426  0.6646 -2.5430  1.4288
  156MOL0     H21028   4.778   3.667   2.369  2.7803 -1.5470 -2.0405
  156MOL0     H21029   4.727   3.733   2.213 -1.3702  0.8045  1.2170
  156MOL0     H21030   4.952   3.820   2.411  0.6623 -0.0411 -0.4107
  156MOL0     H21031   4.895   3.932   2.282  1.9094  0.1499  0.3991
  156MOL0     H21032   4.958   3.647   2.214 -1.2526  0.9579 -2.3238
  156MOL0     H21033   4.973   3.783   2.108  0.4528  1.1205 -1.0703
  156MOL0     H21034   5.191   3.690   2.164 -0.7063 -0.9410  0.2866
  156MOL0     H21035   5.175   3.727   2.343 -1.2319  1.0414  0.5132
  156MOL0     H21036   5.175   3.929   2.123  2.8988  2.3840  0.2887
  156MOL0     H21037   5.156   3.953   2.298  1.9536 -0.2199  1.1566
  156MOL0     H21038   5.392   3.809   2.298  0.4651  1.5583  0.8636
  156MOL0     H21039   5.367   3.976   2.311  3.2387  0.0363  0.0917
  156MOL0     H21040   5.533   3.920   2.128 -1.6791  2.6237  1.2295
  156MOL0     H21041   5.391   3.999   2.065 -0.7631 -0.0672 -1.4855
  156MOL0     H21042   4.477   4.024   2.393  0.7031 -3.1139 -1.3798
  156MOL0     H21043   4.356   4.168   2.570  0.2892 -0.0496 -0.3994
  156MOL0     H21044   4.287   4.331   3.007 -0.5651  1.1840 -1.8723
  156MOL0     H21045   4.171   4.383   3.216 -0.9839 -0.1980  1.6273
  156MOL0     H21046   2.902   5.252   4.523 -0.1017  1.5530  0.5010
  156MOL0     H21047   2.726   5.306   4.690  2.5265 -1.7030 -1.6403
  156MOL0     H21048   2.461   5.632   4.848  1.0937 -0.7529 -1.4710
  156MOL0     H21049   2.341   5.694   5.053 -0.5658 -0.6452  1.1523
  156MOL0     H21050   2.010   5.643   5.176 -1.3636  0.6319  2.1307
  156MOL0     H21051   1.974   5.470   5.163 -1.7423  0.6894  0.7263
  156MOL0     H21052   1.995   5.462   5.406  0.0273  0.0169  0.7144
  156MOL0     H21053   1.877   5.584   5.361  0.2677  0.1501 -2.3346
  156MOL0     H21054   1.992   5.759   5.466  1.4097  0.6485  1.5424
  156MOL0     H21055   2.146   5.696   5.400  1.4210 -0.1467  1.7553
  156MOL0     H21056   1.990   5.581   5.637  0.3192  0.0254  2.3091
  156MOL0     H21057   2.088   5.711   5.664  1.0261 -0.0067  0.1171
  156MOL0     H21058   2.377   5.396   5.655  1.7317  1.5790 -3.2610
  156MOL0     H21059   2.116   5.324   5.045 -0.0698 -1.5701 -1.5892
  156MOL0     H21060   2.233   5.268   4.829 -2.6621 -0.3609  0.3061
  157MOL0     O21061   9.727   6.051   1.710 -0.1151 -0.7296 -0.7008
  157MOL0     C21062   9.840   6.009   1.742  1.4377  0.2261  0.2443
  157MOL0     O21063   9.897   6.035   1.860 -0.3342  0.3122 -0.6799
  157MOL0     C21064   9.839   6.134   1.936 -0.7454 -0.1475 -0.4485
  157MOL0     C21065   9.766   6.103   2.047 -0.0365 -0.1057 -0.5231
  157MOL0     C21066   9.673   6.188   2.118 -0.5235  0.0954 -0.6512
  157MOL0     C21067   9.678   6.323   2.084 -0.8893  0.8058 -0.3680
  157MOL0     O21068   9.601   6.396   2.172  0.1430  0.1073 -0.2791
  157MOL0     C21069   9.508   6.483   2.105 -0.0106  0.5209 -0.0683
  157MOL0     C21070   9.412   6.528   2.212  0.2608 -0.5128  0.0246
  157MOL0     C21071   9.272   6.539   2.149 -0.0570 -0.0769  0.6710
  157MOL0     C21072   9.174   6.594   2.256 -1.0619  0.3063 -1.2703
  157MOL0     C21073   9.035   6.614   2.191 -0.2199  0.0010 -0.2394
  157MOL0     C21074   9.018   6.751   2.126 -0.0098 -0.3036 -0.3289
  157MOL0     C21075   8.904   6.747   2.026 -0.1837 -1.2365 -0.5872
  157MOL0     C21076   8.767   6.750   2.096  0.2556  0.3359 -0.2077
  157MOL0     N21077   8.684   6.635   2.070 -1.0413 -0.8553 -0.0632
  157MOL0     C21078   8.574   6.621   1.987 -0.6598  0.1887 -0.7465
  157MOL0     C21079   8.512   6.509   2.038  0.2623 -0.4066  0.1872
  157MOL0     C21080   8.397   6.446   1.967 -0.7370  0.0296  1.3805
  157MOL0     C21081   8.426   6.301   1.941  0.3756  1.0794  0.3816
  157MOL0     C21082   8.545   6.264   1.849  0.2362 -0.5142  0.8465
  157MOL0     C21083   8.551   6.117   1.845  0.0563 -0.2464 -0.5826
  157MOL0     O21084   8.574   6.058   1.980  0.1820  0.0149  0.7625
  157MOL0     C21085   8.584   5.922   1.987 -0.0698  0.8116 -0.4813
  157MOL0     C21086   8.586   5.835   1.876  0.4573  0.8964 -0.1613
  157MOL0     C21087   8.586   5.696   1.895  0.2742 -0.9340 -1.0865
  157MOL0     C21088   8.571   5.620   1.769 -0.1591 -0.0564  0.4397
  157MOL0     C21089   8.609   5.639   2.025  0.1690  0.0669 -0.0123
  157MOL0     C21090   8.614   5.494   2.050  0.5335 -0.3125  0.7621
  157MOL0     O21091   8.721   5.455   2.126  0.6547 -0.0357 -0.2111
  157MOL0     C21092   8.786   5.341   2.097 -0.2663 -0.6090  0.4642
  157MOL0     C21093   8.843   5.279   2.206 -0.4483  0.3511 -1.0351
  157MOL0     C21094   8.882   5.148   2.210  0.0962 -0.0064  0.1388
  157MOL0     C21095   8.901   5.083   2.092 -0.3667 -0.7184 -0.4585
  157MOL0     O21096   8.960   4.962   2.104 -0.4847  0.0714  0.2385
  157MOL0     C21097   8.916   4.845   2.027  0.0962  0.8946 -0.0171
  157MOL0     C21098   8.775   4.803   2.070 -0.7323  0.8142 -0.5434
  157MOL0     C21099   8.776   4.734   2.197 -0.7449 -0.3274 -0.4389
  157MOL0     C21100   8.633   4.715   2.242  1.2351 -0.1693 -0.8252
  157MOL0     C21101   8.616   4.635   2.365 -0.6126 -0.4294 -0.3487
  157MOL0     C21102   8.622   4.730   2.487 -0.6954 -0.6205 -0.4644
  157MOL0     C21103   8.589   4.651   2.613 -0.4829 -0.1262 -0.1251
  157MOL0     C21104   8.540   4.732   2.737  0.5844 -0.5436 -0.7708
  157MOL0    Cl21105   8.619   4.891   2.739  0.4406  0.4147 -0.1781
  157MOL0     C21106   8.859   5.144   1.971 -0.4946 -0.1043  0.5794
  157MOL0     C21107   8.804   5.278   1.974  0.1178 -0.2284  1.2374
  157MOL0     O21108   8.539   5.415   1.984  0.0760 -0.3395 -0.7685
  157MOL0     C21109   8.614   5.735   2.135  0.5636 -0.0494 -0.5561
  157MOL0     C21110   8.600   5.872   2.120  0.4054  0.8699 -0.6225
  157MOL0     N21111   8.577   6.466   2.150 -1.2873 -0.0647  1.0591
  157MOL0     N21112   8.671   6.547   2.172 -0.2291 -0.0135 -0.0949
  157MOL0     C21113   9.766   6.363   1.989 -0.1553  0.0004 -0.0704
  157MOL0     C21114   9.838   6.273   1.911  0.3060  0.0588 -0.5365
  157MOL0     C21115   9.896   5.905   1.648  0.4499 -0.6164 -0.5458
  157MOL0     C21116   9.971   5.793   1.697  0.1843 -0.6646 -0.9435
  157MOL0     C21117  10.015   5.691   1.620 -0.7912  0.7398 -0.1313
  157MOL0     C21118   9.988   5.692   1.478  0.3061 -0.0354  0.3042
  157MOL0     O21119  10.039   5.595   1.402 -0.2303 -0.4433  0.2695
  157MOL0     C21120  10.182   5.569   1.424  0.1494 -0.0328 -0.2117
  157MOL0     C21121  10.276   5.687   1.409 -0.4996 -0.1644  0.4317
  157MOL0     C21122  10.248   5.776   1.293 -0.0022  0.3779  0.6266
  157MOL0     C21123  10.351   5.886   1.293 -1.0004 -0.3747  0.1246
  157MOL0     C21124  10.345   5.975   1.410  1.0833 -0.4092 -0.1747
  157MOL0     C21125  10.344   6.058   1.495 -0.4039  0.2913 -0.1758
  157MOL0     C21126   9.897   5.787   1.432 -0.4897 -0.2141  0.6834
  157MOL0     C21127   9.862   5.898   1.511  0.3226 -0.5531 -0.0252
  157MOL0     H21128   9.755   5.997   2.068  0.4177 -0.1639 -0.5679
  157MOL0     H21129   9.609   6.148   2.196 -0.4541  3.3621  1.2602
  157MOL0     H21130   9.573   6.560   2.061  5.5197 -2.4352  1.9770
  157MOL0     H21131   9.454   6.435   2.024  1.9628  0.5128 -1.4511
  157MOL0     H21132   9.412   6.447   2.285 -0.1735  0.6543  1.3683
  157MOL0     H21133   9.447   6.617   2.265 -0.1911 -2.2440  3.5086
  157MOL0     H21134   9.277   6.609   2.066 -3.3241  0.1578  0.5381
  157MOL0     H21135   9.237   6.446   2.104 -1.9809  1.9821 -2.3957
  157MOL0     H21136   9.167   6.509   2.324  1.2493 -0.1281 -1.4716
  157MOL0     H21137   9.217   6.684   2.302  1.4101 -1.7037  0.6763
  157MOL0     H21138   9.029   6.535   2.116  1.9635 -0.7420  0.3095
  157MOL0     H21139   8.957   6.591   2.264 -1.0611 -1.0076 -1.4105
  157MOL0     H21140   9.003   6.828   2.202 -1.1675 -0.8198 -0.0015
  157MOL0     H21141   9.114   6.776   2.080 -1.5493 -1.3684 -4.6290
  157MOL0     H21142   8.898   6.846   1.980 -1.1151 -0.7668  0.4969
  157MOL0     H21143   8.918   6.674   1.946  0.7955  0.1160 -1.6946
  157MOL0     H21144   8.719   6.841   2.059 -1.7875 -1.8359 -3.3851
  157MOL0     H21145   8.790   6.745   2.203 -1.9146 -1.1713  0.2636
  157MOL0     H21146   8.560   6.671   1.892  0.2593 -0.9111 -1.4863
  157MOL0     H21147   8.303   6.453   2.022 -1.1891 -3.0074  1.1811
  157MOL0     H21148   8.391   6.493   1.868 -0.3916 -0.1332  1.2810
  157MOL0     H21149   8.335   6.260   1.896  3.3346 -2.7365 -2.8707
  157MOL0     H21150   8.429   6.256   2.041  2.3001 -1.0723 -0.5424
  157MOL0     H21151   8.638   6.301   1.893  0.9870 -0.8215 -0.4540
  157MOL0     H21152   8.528   6.294   1.746 -2.3761  2.0757  1.8821
  157MOL0     H21153   8.631   6.094   1.774 -0.8265  3.5318 -3.1034
  157MOL0     H21154   8.463   6.073   1.797 -0.4282 -0.2085  0.2518
  157MOL0     H21155   8.571   5.876   1.777  1.8728  1.3042 -0.2300
  157MOL0     H21156   8.466   5.591   1.756  0.2833 -0.9460 -1.6535
  157MOL0     H21157   8.599   5.684   1.685  1.0226 -0.7465  0.2916
  157MOL0     H21158   8.639   5.534   1.770 -2.1266 -1.7443 -0.8635
  157MOL0     H21159   8.845   5.331   2.301  3.4415 -2.0528  0.4340
  157MOL0     H21160   8.909   5.093   2.300 -2.0026 -1.6181 -0.1571
  157MOL0     H21161   8.921   4.875   1.922 -0.5720  1.7575  0.1907
  157MOL0     H21162   8.985   4.760   2.036  1.5827  2.2263  2.0998
  157MOL0     H21163   8.708   4.889   2.076 -1.2155  0.3637  2.0630
  157MOL0     H21164   8.731   4.738   1.994 -1.2778  1.4896 -0.8110
  157MOL0     H21165   8.831   4.793   2.271 -0.3280 -0.4841 -0.6239
  157MOL0     H21166   8.817   4.634   2.184 -2.7082 -1.3153  0.5229
  157MOL0     H21167   8.582   4.812   2.246  1.4287 -0.0537 -1.1452
  157MOL0     H21168   8.570   4.659   2.173 -2.2823 -1.5721  3.0493
  157MOL0     H21169   8.679   4.547   2.352  1.2861  0.8385 -0.1310
  157MOL0     H21170   8.513   4.600   2.374 -0.0469 -2.2285 -0.5965
  157MOL0     H21171   8.727   4.760   2.490 -0.4095 -1.4768 -1.3869
  157MOL0     H21172   8.558   4.819   2.492  0.9265  0.5142  0.8786
  157MOL0     H21173   8.687   4.606   2.631 -1.1700 -1.3957  0.6056
  157MOL0     H21174   8.514   4.576   2.587 -4.5556  2.5518  2.7590
  157MOL0     H21175   8.557   4.689   2.836 -0.9916  1.8306  0.6252
  157MOL0     H21176   8.431   4.744   2.729  0.3468 -1.7704  0.3573
  157MOL0     H21177   8.886   5.105   1.874  0.8905  2.7149 -0.2708
  157MOL0     H21178   8.772   5.330   1.884  1.1368 -1.2275  0.2670
  157MOL0     H21179   8.629   5.694   2.234  0.7811 -0.4102 -0.7393
  157MOL0     H21180   8.604   5.932   2.210 -0.6318 -0.0800  0.0979
  157MOL0     H21181   9.783   6.470   1.980 -0.0162 -0.1058 -1.2460
  157MOL0     H21182   9.887   6.301   1.819  0.2586  3.8118  0.4380
  157MOL0     H21183   9.991   5.784   1.803 -2.1977  1.3621 -0.2284
  157MOL0     H21184  10.084   5.620   1.664 -2.6218 -0.9711  0.1447
  157MOL0     H21185  10.202   5.533   1.526  0.1854  1.5390  0.3737
  157MOL0     H21186  10.207   5.483   1.362 -0.2386  1.4026 -2.4895
  157MOL0     H21187  10.375   5.641   1.397 -1.6328 -2.3765 -1.4491
  157MOL0     H21188  10.250   5.742   1.499 -4.5657 -1.0913  0.0147
  157MOL0     H21189  10.155   5.832   1.289  1.1109  2.3847  1.4011
  157MOL0     H21190  10.242   5.725   1.197 -1.5665 -1.2773  1.5453
  157MOL0     H21191  10.329   5.950   1.207  4.0841  0.9396 -0.5467
  157MOL0     H21192  10.452   5.849   1.272 -1.1920 -0.5869 -0.4435
  157MOL0     H21193  10.353   6.129   1.574  0.9886  0.6837 -0.6689
  157MOL0     H21194   9.871   5.795   1.327  0.5813  2.0729  0.5379
  157MOL0     H21195   9.789   5.964   1.465 -2.6189 -0.8051  3.8062
  158MOL0     O21196   3.285   7.190   0.641 -1.0026  0.2664  0.3368
  158MOL0     C21197   3.375   7.243   0.707 -0.1136 -0.8489 -0.7012
  158MOL0     O21198   3.498   7.198   0.723  0.1246 -0.3803 -0.9665
  158MOL0     C21199   3.528   7.098   0.636 -0.1584 -0.1232 -0.3656
  158MOL0     C21200   3.558   6.952   0.673  0.4411 -0.6319  0.9707
  158MOL0     C21201   3.574   6.859   0.571  0.1411 -0.1585  0.4859
  158MOL0     C21202   3.587   6.907   0.438  0.4625 -1.1146 -1.3730
  158MOL0     O21203   3.613   6.815   0.338  0.6885 -0.5349  0.4844
  158MOL0     C21204   3.744   6.754   0.345 -0.2972  0.6178  0.1288
  158MOL0     C21205   3.727   6.606   0.306  0.1332  0.8076  0.0091
  158MOL0     C21206   3.866   6.538   0.326  1.1040 -1.2772  0.1821
  158MOL0     C21207   3.835   6.385   0.330 -0.1934  0.5954 -0.4077
  158MOL0     C21208   3.965   6.311   0.336 -0.4812  0.9225 -0.1356
  158MOL0     C21209   3.972   6.160   0.343 -0.2219  0.0443  0.5292
  158MOL0     C21210   4.101   6.108   0.411  0.7588 -0.2510  0.9148
  158MOL0     C21211   4.145   5.966   0.383  0.7057 -0.1101  0.1622
  158MOL0     N21212   4.046   5.866   0.422  0.1446  0.4662  0.3661
  158MOL0     C21213   4.047   5.742   0.364  0.6044 -0.1024 -0.6724
  158MOL0     C21214   3.951   5.678   0.436 -0.0174 -0.0975 -0.2838
  158MOL0     C21215   3.908   5.531   0.421  0.7201  0.2493 -0.3034
  158MOL0     C21216   3.841   5.530   0.290  0.5986  0.9054 -0.6784
  158MOL0     C21217   3.768   5.395   0.258  0.0980  0.4943  0.3034
  158MOL0     C21218   3.730   5.395   0.108 -0.1363  0.9760 -0.8607
  158MOL0     O21219   3.636   5.502   0.093 -0.4363  0.4579 -0.3561
  158MOL0     C21220   3.564   5.509  -0.027  0.5536  0.1164 -0.7480
  158MOL0     C21221   3.454   5.597  -0.022  0.2735  1.1033 -0.0490
  158MOL0     C21222   3.374   5.598  -0.135  0.5286  0.0723  0.6180
  158MOL0     C21223   3.247   5.683  -0.119 -0.2810  0.7096  0.5342
  158MOL0     C21224   3.404   5.520  -0.256  0.4746  0.2796  0.1667
  158MOL0     C21225   3.320   5.509  -0.373  0.4253 -0.6539 -0.4381
  158MOL0     O21226   3.359   5.411  -0.461 -0.3535  0.0644 -0.6075
  158MOL0     C21227   3.275   5.362  -0.560  0.1223 -1.1273  0.3882
  158MOL0     C21228   3.309   5.356  -0.700  0.6216 -0.3176  0.6163
  158MOL0     C21229   3.217   5.334  -0.801  0.2224  0.6448  0.0634
  158MOL0     C21230   3.083   5.301  -0.760 -0.0525  0.5068  0.0355
  158MOL0     O21231   2.984   5.268  -0.843  0.2331  0.3956  0.4199
  158MOL0     C21232   2.970   5.337  -0.968  0.1546 -0.4146 -0.7786
  158MOL0     C21233   2.851   5.300  -1.046 -0.1079 -0.2482 -0.3734
  158MOL0     C21234   2.727   5.373  -1.016  0.0544  0.1357  0.0606
  158MOL0     C21235   2.624   5.378  -1.133 -0.3549  0.1433 -0.1323
  158MOL0     C21236   2.512   5.485  -1.122 -0.1668 -0.3049 -1.2854
  158MOL0     C21237   2.421   5.450  -1.002  0.7268 -0.4028 -0.1614
  158MOL0     C21238   2.300   5.544  -0.997  0.0733  0.2164  0.9246
  158MOL0     C21239   2.216   5.549  -0.872 -0.5485  0.4278 -0.1290
  158MOL0    Cl21240   2.144   5.399  -0.851  0.2149  0.2352  0.1478
  158MOL0     C21241   3.046   5.298  -0.629 -0.4173 -0.1811 -0.1437
  158MOL0     C21242   3.144   5.324  -0.534  0.2131  0.1364 -0.2197
  158MOL0     O21243   3.206   5.565  -0.375  0.0159  0.6498 -0.2305
  158MOL0     C21244   3.522   5.445  -0.255  0.0985 -0.0115 -0.0019
  158MOL0     C21245   3.600   5.443  -0.144 -0.1346 -0.3988  0.0286
  158MOL0     N21246   3.892   5.764   0.520 -0.3085  0.2692 -0.2268
  158MOL0     N21247   3.945   5.883   0.513 -1.1551 -0.3190  0.5413
  158MOL0     C21248   3.560   7.036   0.399  0.3425  0.4910 -0.8228
  158MOL0     C21249   3.537   7.130   0.499  0.0199 -0.5239  1.1689
  158MOL0     C21250   3.355   7.384   0.752 -0.4214  1.5047 -1.0414
  158MOL0     C21251   3.236   7.445   0.724  0.6851 -0.3176 -0.4852
  158MOL0     C21252   3.199   7.566   0.802 -1.1672  0.0648  0.8428
  158MOL0     C21253   3.294   7.630   0.880 -0.4460  0.1355 -1.0270
  158MOL0     O21254   3.247   7.739   0.939  1.0216 -0.2525  0.9545
  158MOL0     C21255   3.330   7.851   0.961  0.4979 -1.1195 -0.8972
  158MOL0     C21256   3.291   7.923   1.098 -0.2585  0.3394  0.2246
  158MOL0     C21257   3.328   7.827   1.214 -0.1064  0.3016 -0.3285
  158MOL0     C21258   3.271   7.880   1.347  0.7372 -1.1329  0.5800
  158MOL0     C21259   3.339   7.998   1.400  0.2059  0.2784 -0.0539
  158MOL0     C21260   3.392   8.107   1.426 -0.0312 -0.3908  0.3385
  158MOL0     C21261   3.415   7.571   0.902 -0.3437  0.7152  0.4832
  158MOL0     C21262   3.439   7.443   0.856 -0.0954 -0.4578 -0.1196
  158MOL0     H21263   3.570   6.929   0.779  2.0488 -0.1036  0.9222
  158MOL0     H21264   3.590   6.756   0.602 -4.7257 -2.3407 -2.9388
  158MOL0     H21265   3.820   6.807   0.287  0.9684  0.5168  1.6280
  158MOL0     H21266   3.787   6.764   0.445  0.9807  0.5178 -0.3993
  158MOL0     H21267   3.651   6.559   0.369 -0.5265 -0.1453 -1.4431
  158MOL0     H21268   3.703   6.595   0.200  2.5907 -1.1651 -0.4307
  158MOL0     H21269   3.923   6.560   0.235 -5.3191 -3.0562 -5.0447
  158MOL0     H21270   3.919   6.569   0.416  1.0887 -1.5468  0.2846
  158MOL0     H21271   3.769   6.364   0.414  0.4940  2.6050  0.6963
  158MOL0     H21272   3.790   6.347   0.238  0.8596 -0.9739 -0.3064
  158MOL0     H21273   4.024   6.356   0.255  0.9427  2.3184  1.5844
  158MOL0     H21274   4.018   6.356   0.420 -2.3733  0.6275  1.2813
  158MOL0     H21275   3.891   6.119   0.405 -0.2910  0.9484  1.0507
  158MOL0     H21276   3.968   6.136   0.236  0.0867  2.3838 -0.0576
  158MOL0     H21277   4.187   6.162   0.369 -1.1792  0.6939 -2.1449
  158MOL0     H21278   4.107   6.124   0.519  2.1261  1.4234  0.6404
  158MOL0     H21279   4.233   5.956   0.447  1.6030 -0.9697 -1.1515
  158MOL0     H21280   4.181   5.951   0.281  1.1245 -0.4466  0.3579
  158MOL0     H21281   4.097   5.707   0.275 -1.6537 -4.7309 -0.4341
  158MOL0     H21282   3.990   5.459   0.426 -1.3144 -2.1848 -0.3340
  158MOL0     H21283   3.833   5.507   0.497  1.6079 -0.7825  0.2860
  158MOL0     H21284   3.926   5.545   0.223  0.0511  0.5040 -1.4737
  158MOL0     H21285   3.772   5.613   0.275  1.5499  2.1632  1.4950
  158MOL0     H21286   3.677   5.375   0.315 -0.2785 -0.5691 -0.6246
  158MOL0     H21287   3.830   5.312   0.295  0.1308  2.1018  4.4658
  158MOL0     H21288   3.688   5.294   0.099  4.8966 -1.5399  0.5539
  158MOL0     H21289   3.811   5.399   0.035 -0.9612  1.0421 -1.7899
  158MOL0     H21290   3.446   5.646   0.075  3.2413  5.4154 -1.6598
  158MOL0     H21291   3.240   5.742  -0.210  0.7918  2.0424  1.2781
  158MOL0     H21292   3.156   5.627  -0.094 -0.2191  0.7366  0.8223
  158MOL0     H21293   3.249   5.751  -0.034 -1.4927 -0.0239  1.1680
  158MOL0     H21294   3.412   5.382  -0.724  0.5240 -0.0669  0.4721
  158MOL0     H21295   3.253   5.341  -0.903 -0.1699  0.9008 -0.0583
  158MOL0     H21296   2.978   5.446  -0.954  1.2703 -0.4557 -0.9662
  158MOL0     H21297   3.060   5.310  -1.024  1.7041 -0.4432  1.5723
  158MOL0     H21298   2.876   5.300  -1.152  0.0546 -2.6868 -0.4051
  158MOL0     H21299   2.827   5.198  -1.014 -1.1920  0.2373  0.4168
  158MOL0     H21300   2.755   5.476  -0.993 -3.2904  1.3072 -0.5717
  158MOL0     H21301   2.664   5.335  -0.935 -0.5091 -1.5610 -1.1198
  158MOL0     H21302   2.682   5.388  -1.226  0.5927  0.0279  0.4394
  158MOL0     H21303   2.576   5.280  -1.145 -0.2778  0.2194 -1.2561
  158MOL0     H21304   2.450   5.486  -1.212 -3.0716  0.2617  0.6055
  158MOL0     H21305   2.550   5.586  -1.100 -2.9874  0.2119  1.9531
  158MOL0     H21306   2.380   5.349  -1.006  0.6862 -0.3699 -0.7798
  158MOL0     H21307   2.471   5.452  -0.905 -1.5237 -3.9035  1.2498
  158MOL0     H21308   2.231   5.521  -1.079 -0.4089  0.0988  1.3631
  158MOL0     H21309   2.331   5.648  -1.014 -2.0573  0.6788 -0.5440
  158MOL0     H21310   2.148   5.635  -0.877 -0.7331  0.2088 -2.3269
  158MOL0     H21311   2.286   5.567  -0.790  0.8249 -0.5691 -1.0421
  158MOL0     H21312   2.945   5.276  -0.595 -0.8444  0.5490 -0.9107
  158MOL0     H21313   3.123   5.334  -0.428 -3.1211 -1.2473 -0.6142
  158MOL0     H21314   3.553   5.377  -0.334 -0.8637  0.0373 -0.4269
  158MOL0     H21315   3.684   5.375  -0.130  0.1781  0.1149  0.7209
  158MOL0     H21316   3.553   7.054   0.292 -1.3114  1.3711 -0.5896
  158MOL0     H21317   3.521   7.234   0.471 -0.0585 -1.1536 -1.3718
  158MOL0     H21318   3.161   7.403   0.659  0.1788 -0.4470  0.1638
  158MOL0     H21319   3.100   7.608   0.793 -1.2380 -0.1214  0.7508
  158MOL0     H21320   3.432   7.813   0.971  1.3392  1.2046  0.1992
  158MOL0     H21321   3.332   7.917   0.873  2.9614  0.2465  0.0879
  158MOL0     H21322   3.184   7.945   1.092 -1.4463 -4.6874 -1.7231
  158MOL0     H21323   3.355   8.010   1.117 -1.8470  1.0644  2.8309
  158MOL0     H21324   3.435   7.804   1.213 -0.0005  0.1283 -4.6543
  158MOL0     H21325   3.270   7.734   1.207  1.6789 -0.8512 -0.4670
  158MOL0     H21326   3.263   7.808   1.429  4.3208  0.6226  2.7259
  158MOL0     H21327   3.170   7.920   1.331  0.5891 -1.0236  1.7049
  158MOL0     H21328   3.433   8.204   1.446  1.5637  0.0221 -4.0306
  158MOL0     H21329   3.489   7.615   0.969 -1.6209  0.9995  1.7661
  158MOL0     H21330   3.533   7.401   0.891  1.4427  1.1852 -2.0226
  159MOL0     O21331   8.259   3.001   1.856 -0.6111  0.2736 -0.2371
  159MOL0     C21332   8.209   2.983   1.743  0.0813 -1.0184 -0.0086
  159MOL0     O21333   8.135   3.082   1.684 -0.3257  0.2989  0.2990
  159MOL0     C21334   8.178   3.206   1.699 -1.4903  0.2559 -0.0405
  159MOL0     C21335   8.287   3.261   1.633 -0.5414 -0.3125 -0.5639
  159MOL0     C21336   8.328   3.396   1.649 -0.0120  0.7106  0.4036
  159MOL0     C21337   8.272   3.472   1.755  0.4953  0.3203 -0.1986
  159MOL0     O21338   8.317   3.597   1.791 -0.5996 -0.1207 -1.6172
  159MOL0     C21339   8.272   3.713   1.722 -0.2891 -0.1994 -0.2284
  159MOL0     C21340   8.156   3.781   1.784  0.6682 -0.2770  0.0819
  159MOL0     C21341   8.191   3.860   1.912  0.5812 -0.0274  0.6437
  159MOL0     C21342   8.261   3.987   1.874  0.2438 -0.3956 -0.5413
  159MOL0     C21343   8.273   4.080   2.000 -0.4921  0.5190  0.1461
  159MOL0     C21344   8.360   4.204   1.957  0.2736  0.5252 -0.3783
  159MOL0     C21345   8.394   4.301   2.072  0.0463 -0.2586 -0.9227
  159MOL0     C21346   8.480   4.256   2.187 -0.4495 -0.2309  1.0410
  159MOL0     N21347   8.621   4.230   2.141 -0.2585  0.5206 -0.5279
  159MOL0     C21348   8.676   4.121   2.086 -0.0506 -0.4531  0.5006
  159MOL0     C21349   8.814   4.144   2.086 -0.7090  0.0093 -0.4273
  159MOL0     C21350   8.927   4.054   2.047  0.0919 -0.5651 -0.2359
  159MOL0     C21351   9.037   4.115   1.949  0.0494  0.7486 -0.3716
  159MOL0     C21352   8.975   4.153   1.815  0.1720  0.5128  0.6427
  159MOL0     C21353   9.067   4.145   1.701 -0.4444 -0.2973  0.6066
  159MOL0     O21354   9.189   4.215   1.707  0.4289 -0.7643  0.2774
  159MOL0     C21355   9.289   4.180   1.626  0.0139  0.0442  0.5082
  159MOL0     C21356   9.406   4.253   1.658 -0.5728  0.1469 -1.1367
  159MOL0     C21357   9.523   4.228   1.599 -0.1709 -0.0739  0.8783
  159MOL0     C21358   9.628   4.339   1.633 -1.3709  0.2865  0.0578
  159MOL0     C21359   9.544   4.117   1.511  0.2036 -0.9201 -0.1871
  159MOL0     C21360   9.664   4.091   1.433  0.4869  0.3981 -0.0982
  159MOL0     O21361   9.773   4.077   1.505 -0.4365 -0.0495 -0.4245
  159MOL0     C21362   9.879   4.022   1.429 -0.3580 -0.6145  0.0966
  159MOL0     C21363   9.864   3.906   1.347 -0.0601  0.3943  0.2073
  159MOL0     C21364   9.976   3.857   1.276  0.0058 -0.3493  0.0035
  159MOL0     C21365  10.107   3.911   1.289 -0.4372  0.2783 -0.0574
  159MOL0     O21366  10.211   3.855   1.219 -0.3882  0.5898  0.8919
  159MOL0     C21367  10.349   3.908   1.247 -0.6703 -0.7740 -0.0773
  159MOL0     C21368  10.448   3.852   1.150 -0.6421 -0.3908  0.7242
  159MOL0     C21369  10.592   3.878   1.194 -0.1998  0.2602  0.9978
  159MOL0     C21370  10.690   3.828   1.078  0.4063  0.3119 -0.7457
  159MOL0     C21371  10.834   3.831   1.125 -0.0223 -0.3853  0.1522
  159MOL0     C21372  10.933   3.777   1.025 -0.3329 -0.4849  0.2892
  159MOL0     C21373  11.079   3.754   1.067 -0.0443  0.4633  0.3359
  159MOL0     C21374  11.168   3.751   0.952  0.3294 -0.0405 -0.8179
  159MOL0    Cl21375  11.275   3.615   0.969 -0.2308  0.4717 -0.1896
  159MOL0     C21376  10.124   4.021   1.373  0.2700 -0.5340 -0.3811
  159MOL0     C21377  10.010   4.074   1.452  0.3177  0.5700 -0.4079
  159MOL0     O21378   9.655   4.104   1.311 -0.1024  0.8210 -0.1939
  159MOL0     C21379   9.428   4.041   1.480 -0.0270  0.1629 -0.2902
  159MOL0     C21380   9.297   4.076   1.534  0.3710  1.0438 -0.4207
  159MOL0     N21381   8.838   4.260   2.156  0.7076  0.3888  0.8839
  159MOL0     N21382   8.722   4.314   2.190  0.1185  0.3787  1.0900
  159MOL0     C21383   8.181   3.406   1.837 -0.9322  0.5928  0.1840
  159MOL0     C21384   8.121   3.283   1.802  0.4505 -0.5987  0.5668
  159MOL0     C21385   8.234   2.862   1.669 -1.4080  0.1675  0.3885
  159MOL0     C21386   8.325   2.758   1.705  0.5368 -0.4789  0.2055
  159MOL0     C21387   8.348   2.638   1.632  1.0880 -0.7307  0.4378
  159MOL0     C21388   8.278   2.626   1.510  0.1062 -0.2329 -0.4301
  159MOL0     O21389   8.300   2.515   1.436  0.2779  0.7331  0.1645
  159MOL0     C21390   8.246   2.520   1.298 -0.1366 -0.2311  0.1336
  159MOL0     C21391   8.292   2.396   1.233  0.2935 -0.6209 -0.2775
  159MOL0     C21392   8.217   2.371   1.108  0.0529  0.3343 -0.1212
  159MOL0     C21393   8.238   2.467   0.997 -0.0732 -0.2066  0.0878
  159MOL0     C21394   8.382   2.479   0.956  0.4951 -0.3718  0.4070
  159MOL0     C21395   8.500   2.506   0.925  0.3262  0.1232 -0.5948
  159MOL0     C21396   8.194   2.732   1.462  0.4531  0.0035  0.4960
  159MOL0     C21397   8.172   2.842   1.543 -0.1812 -0.0811 -0.8643
  159MOL0     H21398   8.312   3.195   1.551 -2.2063 -2.5108  0.5999
  159MOL0     H21399   8.417   3.436   1.601  1.3395 -0.5873  1.7030
  159MOL0     H21400   8.359   3.777   1.708 -0.4235 -0.3561 -2.1376
  159MOL0     H21401   8.244   3.675   1.623 -2.4299  0.7466 -0.0432
  159MOL0     H21402   8.102   3.835   1.706 -0.9943 -0.6384  0.9364
  159MOL0     H21403   8.077   3.714   1.820 -1.0021  1.4172 -0.2457
  159MOL0     H21404   8.095   3.885   1.959 -0.0902 -0.0147 -0.6647
  159MOL0     H21405   8.248   3.795   1.979 -0.5561  0.3078  1.9923
  159MOL0     H21406   8.362   3.972   1.834 -0.0194 -1.3593 -0.8715
  159MOL0     H21407   8.201   4.034   1.796 -0.3464  0.7253  0.5416
  159MOL0     H21408   8.175   4.109   2.038  0.1137  1.2426  1.1874
  159MOL0     H21409   8.321   4.026   2.082 -1.8894 -0.2161  0.5185
  159MOL0     H21410   8.452   4.178   1.904 -0.3157  2.0438 -2.2642
  159MOL0     H21411   8.299   4.261   1.886  0.2018  2.5893  1.2634
  159MOL0     H21412   8.446   4.392   2.038  0.1164  0.0737  0.0481
  159MOL0     H21413   8.304   4.347   2.115 -0.7375 -2.4905 -0.0321
  159MOL0     H21414   8.428   4.167   2.223 -0.4890 -0.9719 -0.7700
  159MOL0     H21415   8.485   4.332   2.265 -2.4290 -1.8995  2.9143
  159MOL0     H21416   8.636   4.026   2.051 -1.5165  0.0245  0.8030
  159MOL0     H21417   8.975   4.022   2.140 -1.3031 -0.4430  0.5442
  159MOL0     H21418   8.874   3.968   2.004 -5.1772  1.8170  0.7363
  159MOL0     H21419   9.104   4.031   1.928 -1.3486 -0.1938 -1.2861
  159MOL0     H21420   9.081   4.203   1.996  2.7756  0.7526 -2.7125
  159MOL0     H21421   8.929   4.250   1.835  0.5836  0.4635  1.9175
  159MOL0     H21422   8.893   4.085   1.793  1.8006 -1.6607  0.9265
  159MOL0     H21423   9.015   4.169   1.608 -1.2815  2.9246  1.7704
  159MOL0     H21424   9.080   4.038   1.684  1.5977  0.0620 -0.3141
  159MOL0     H21425   9.395   4.333   1.731 -0.1105 -0.4088 -0.4479
  159MOL0     H21426   9.627   4.363   1.740  4.8396  3.3107 -0.1523
  159MOL0     H21427   9.731   4.311   1.608 -1.1891 -0.3294  1.3889
  159MOL0     H21428   9.604   4.435   1.587  1.9991  0.6611 -1.1760
  159MOL0     H21429   9.771   3.851   1.338 -1.1688  1.9273  1.6464
  159MOL0     H21430   9.959   3.778   1.204 -2.1281  2.1766 -2.5352
  159MOL0     H21431  10.365   4.016   1.246 -2.0229 -0.5458  0.4636
  159MOL0     H21432  10.369   3.880   1.351  0.3430  1.6778  0.4527
  159MOL0     H21433  10.431   3.744   1.154 -2.3914 -0.1009  2.1735
  159MOL0     H21434  10.443   3.878   1.044  0.1189  2.1907  1.2615
  159MOL0     H21435  10.617   3.826   1.286 -1.9538 -6.2925 -1.6932
  159MOL0     H21436  10.608   3.986   1.202  1.5345  0.0032  1.3876
  159MOL0     H21437  10.663   3.726   1.049  0.3000  0.3495 -0.7813
  159MOL0     H21438  10.691   3.898   0.994 -3.6870 -0.0850 -1.3445
  159MOL0     H21439  10.833   3.771   1.216  0.8205 -0.0202  0.4137
  159MOL0     H21440  10.867   3.928   1.165 -1.6124  0.1499  0.2428
  159MOL0     H21441  10.890   3.685   0.985 -1.0254  0.2352 -0.6470
  159MOL0     H21442  10.934   3.840   0.936  1.7323 -2.9995 -1.6498
  159MOL0     H21443  11.087   3.666   1.132 -0.3876  2.3956  3.1885
  159MOL0     H21444  11.113   3.845   1.118  2.8960 -0.0092 -0.6059
  159MOL0     H21445  11.214   3.849   0.937  1.6867 -0.7797 -1.7860
  159MOL0     H21446  11.106   3.749   0.862 -1.6958 -2.7676  0.4894
  159MOL0     H21447  10.225   4.051   1.398 -0.3729  1.5016 -0.0547
  159MOL0     H21448  10.017   4.162   1.516  1.0169  0.0781  0.2020
  159MOL0     H21449   9.432   3.941   1.438  0.2461 -0.5942  1.4501
  159MOL0     H21450   9.210   4.014   1.512  0.9413  0.5232 -1.2419
  159MOL0     H21451   8.152   3.460   1.927  3.2311  3.4278  0.1396
  159MOL0     H21452   8.059   3.230   1.873  0.3085  1.2018  1.8503
  159MOL0     H21453   8.373   2.764   1.802 -0.3858 -0.5091  0.6736
  159MOL0     H21454   8.412   2.555   1.660  0.3608 -2.6511 -3.0876
  159MOL0     H21455   8.137   2.529   1.301 -0.2444 -1.3029 -0.4053
  159MOL0     H21456   8.290   2.600   1.237 -1.2868  0.1810 -0.1862
  159MOL0     H21457   8.263   2.315   1.301 -3.1681  0.3277 -0.4757
  159MOL0     H21458   8.399   2.400   1.212 -0.0797  3.2380 -2.2883
  159MOL0     H21459   8.110   2.372   1.133  0.1135  1.5367  0.1175
  159MOL0     H21460   8.235   2.270   1.070 -1.0440  1.0767 -2.8964
  159MOL0     H21461   8.197   2.563   1.031 -2.9892 -0.5623 -1.9897
  159MOL0     H21462   8.164   2.447   0.919 -2.7382 -0.2622  2.4607
  159MOL0     H21463   8.599   2.523   0.888  0.7564  2.9792  1.5046
  159MOL0     H21464   8.130   2.721   1.375 -2.9911 -0.1671  2.8944
  159MOL0     H21465   8.110   2.925   1.510  0.5127  0.1725 -1.5390
  160MOL0     O21466   5.752   5.765   6.469 -0.4554  0.3393 -0.0060
  160MOL0     C21467   5.734   5.873   6.421 -0.0281 -1.0728 -0.1811
  160MOL0     O21468   5.816   5.933   6.325  0.0793 -0.5263  0.0747
  160MOL0     C21469   5.887   5.848   6.241  0.0895 -0.2157 -0.7057
  160MOL0     C21470   6.006   5.791   6.274  0.2963 -0.1766  0.0080
  160MOL0     C21471   6.082   5.717   6.188  0.8559  0.1119 -0.7194
  160MOL0     C21472   6.037   5.694   6.063 -0.2495 -0.0414  0.4566
  160MOL0     O21473   6.111   5.628   5.962  0.2108 -0.3184  0.0005
  160MOL0     C21474   6.097   5.655   5.823  1.0362  0.4006  0.2145
  160MOL0     C21475   6.234   5.615   5.768  0.3379 -0.1481  0.0061
  160MOL0     C21476   6.295   5.480   5.796 -0.4761  0.6687 -0.0237
  160MOL0     C21477   6.441   5.465   5.745 -0.8700 -0.2333 -0.7942
  160MOL0     C21478   6.484   5.319   5.774  0.3902 -0.1697 -0.8263
  160MOL0     C21479   6.637   5.315   5.786 -0.3180  0.4261  0.6203
  160MOL0     C21480   6.703   5.358   5.926 -1.1149 -0.0777  0.7257
  160MOL0     C21481   6.853   5.343   5.910 -1.1447  0.0873 -0.0323
  160MOL0     N21482   6.919   5.340   6.043 -0.1863 -0.3503  0.2264
  160MOL0     C21483   6.926   5.239   6.135 -0.5745  0.5646 -0.6603
  160MOL0     C21484   7.019   5.284   6.231  0.5769  0.1709  0.3313
  160MOL0     C21485   7.023   5.219   6.369 -0.0182  0.7807 -0.5516
  160MOL0     C21486   6.901   5.242   6.464  0.4910  0.1617  0.8729
  160MOL0     C21487   6.816   5.117   6.476  0.4817  0.0562 -0.1269
  160MOL0     C21488   6.685   5.132   6.564 -0.2413 -0.2901 -0.2113
  160MOL0     O21489   6.665   5.012   6.642  0.3281 -1.2616 -0.1143
  160MOL0     C21490   6.582   5.035   6.748  0.0998  0.0993 -0.2580
  160MOL0     C21491   6.448   5.009   6.727  0.6840 -0.1219  0.8082
  160MOL0     C21492   6.354   5.037   6.835  0.6453 -1.6551 -0.3475
  160MOL0     C21493   6.211   5.001   6.808  0.7026 -0.2011  0.1874
  160MOL0     C21494   6.400   5.095   6.957  0.0988 -0.0092  0.3232
  160MOL0     C21495   6.307   5.143   7.067 -0.3978  0.7777  0.2359
  160MOL0     O21496   6.174   5.126   7.049  0.5955  0.2248 -0.2373
  160MOL0     C21497   6.079   5.175   7.134  0.5788  0.4043  0.3476
  160MOL0     C21498   6.083   5.311   7.174 -0.0216  0.1823  0.8035
  160MOL0     C21499   5.985   5.367   7.256 -0.4350 -1.3275  0.0724
  160MOL0     C21500   5.879   5.295   7.301  0.6057 -0.5045  0.8875
  160MOL0     O21501   5.792   5.357   7.381  0.2786  1.5001  0.9857
  160MOL0     C21502   5.856   5.392   7.501 -0.7029 -0.8982 -1.0687
  160MOL0     C21503   5.751   5.404   7.608 -1.1863  0.3635 -0.6578
  160MOL0     C21504   5.675   5.271   7.606 -0.0086 -0.9967 -0.9177
  160MOL0     C21505   5.570   5.252   7.722 -0.6486 -0.9602 -1.0505
  160MOL0     C21506   5.508   5.119   7.685  0.1688 -0.7106 -0.5098
  160MOL0     C21507   5.406   5.071   7.785 -0.2829 -0.3236 -0.9008
  160MOL0     C21508   5.274   5.150   7.784 -1.1400 -0.1376  1.2579
  160MOL0     C21509   5.230   5.155   7.929  0.4920  0.1413 -0.1768
  160MOL0    Cl21510   5.190   4.996   7.986 -0.9305 -0.3022 -0.4537
  160MOL0     C21511   5.869   5.161   7.253 -0.1931 -0.3346 -0.5225
  160MOL0     C21512   5.968   5.107   7.175 -0.0764  0.4579 -0.2199
  160MOL0     O21513   6.362   5.173   7.171  0.1273 -0.6706  0.3708
  160MOL0     C21514   6.540   5.116   6.969  0.0384 -1.1814  0.0375
  160MOL0     C21515   6.630   5.080   6.872 -0.0732  1.1692 -0.9099
  160MOL0     N21516   7.054   5.421   6.201  0.3081  0.4109 -0.2059
  160MOL0     N21517   6.995   5.444   6.089  0.3861 -0.0428 -0.0137
  160MOL0     C21518   5.915   5.754   6.022  0.2602  0.7119 -0.1302
  160MOL0     C21519   5.838   5.841   6.108 -0.3210 -0.1685  0.7208
  160MOL0     C21520   5.605   5.941   6.464  0.5288  0.5383  0.4570
  160MOL0     C21521   5.516   5.880   6.554 -1.0413  0.3603 -0.1116
  160MOL0     C21522   5.395   5.949   6.601  0.1638  0.2969 -0.5635
  160MOL0     C21523   5.351   6.064   6.524  0.2442  0.3086 -0.8042
  160MOL0     O21524   5.227   6.113   6.550  0.1305  1.4108  0.3066
  160MOL0     C21525   5.197   6.246   6.485  0.0819  1.2432 -0.2313
  160MOL0     C21526   5.063   6.303   6.530  0.3452 -0.5092  0.4680
  160MOL0     C21527   5.040   6.285   6.683  0.1007  0.1024 -0.5777
  160MOL0     C21528   4.987   6.419   6.737 -0.7403 -0.5794 -0.1956
  160MOL0     C21529   4.909   6.390   6.862 -0.4585  0.7711  0.8362
  160MOL0     C21530   4.859   6.368   6.973 -0.1715  0.0829 -0.5161
  160MOL0     C21531   5.436   6.114   6.425 -0.3685 -0.1008 -0.2620
  160MOL0     C21532   5.563   6.057   6.395 -0.3195 -1.1110  0.2674
  160MOL0     H21533   6.031   5.799   6.379 -2.0359  2.9588  0.4507
  160MOL0     H21534   6.181   5.687   6.220  0.3589 -0.5284  0.2568
  160MOL0     H21535   6.018   5.601   5.770  1.6496  0.4686 -0.8052
  160MOL0     H21536   6.072   5.759   5.800  0.4215 -0.3004 -2.8173
  160MOL0     H21537   6.215   5.615   5.660  0.7279  3.3909 -0.1526
  160MOL0     H21538   6.301   5.692   5.807  1.3272 -0.9384 -0.1005
  160MOL0     H21539   6.288   5.473   5.904 -2.6664  1.9145 -0.0308
  160MOL0     H21540   6.229   5.400   5.760  1.5634 -1.7473  1.2505
  160MOL0     H21541   6.442   5.476   5.636 -3.0316 -1.9949 -1.0557
  160MOL0     H21542   6.506   5.538   5.794  1.4820 -1.3520 -2.0437
  160MOL0     H21543   6.451   5.277   5.869 -2.6431  2.3964 -0.5711
  160MOL0     H21544   6.451   5.249   5.697  3.6400 -2.7431 -0.0864
  160MOL0     H21545   6.664   5.212   5.761  0.6358  1.0938 -1.3258
  160MOL0     H21546   6.678   5.376   5.705  2.7002  0.7964  2.2934
  160MOL0     H21547   6.685   5.462   5.953 -0.9232  0.1763 -0.0852
  160MOL0     H21548   6.666   5.295   6.007  0.0629 -2.0884 -0.2188
  160MOL0     H21549   6.889   5.430   5.852 -0.0529  0.1785  0.7447
  160MOL0     H21550   6.873   5.248   5.859  0.7614  1.3620 -1.8634
  160MOL0     H21551   6.863   5.150   6.141  1.5881 -0.9952  0.4266
  160MOL0     H21552   7.036   5.110   6.363  0.2603  0.8773 -2.0966
  160MOL0     H21553   7.113   5.260   6.417  1.5822 -2.4724 -0.4480
  160MOL0     H21554   6.834   5.316   6.420  3.2732  2.4697  0.2663
  160MOL0     H21555   6.940   5.270   6.562 -1.3646 -1.9391  2.3356
  160MOL0     H21556   6.872   5.040   6.530 -0.1381  0.5002  1.1985
  160MOL0     H21557   6.784   5.084   6.377 -0.1689  0.7060 -0.1393
  160MOL0     H21558   6.595   5.140   6.501 -1.2338 -0.4954  1.1302
  160MOL0     H21559   6.693   5.228   6.617  0.1710 -1.0596  1.1651
  160MOL0     H21560   6.428   4.954   6.636  3.0051 -0.0698  0.2156
  160MOL0     H21561   6.146   5.088   6.818  1.3999  0.9463 -3.6712
  160MOL0     H21562   6.197   4.962   6.706  1.7543 -3.7535  1.2301
  160MOL0     H21563   6.175   4.926   6.879 -0.2212 -3.1896 -3.1379
  160MOL0     H21564   6.164   5.364   7.126  0.0482 -1.0819 -0.5361
  160MOL0     H21565   5.990   5.471   7.289 -1.1720 -2.4001  4.0986
  160MOL0     H21566   5.924   5.310   7.523  0.9081  0.4414 -0.8889
  160MOL0     H21567   5.921   5.480   7.499 -0.8503 -0.7206  0.7119
  160MOL0     H21568   5.796   5.418   7.706  0.0607 -1.7748 -0.8602
  160MOL0     H21569   5.692   5.496   7.601 -0.3248  1.2027  1.8930
  160MOL0     H21570   5.747   5.190   7.607 -0.0949 -1.2808  3.6997
  160MOL0     H21571   5.612   5.275   7.516 -1.8918  1.4288  0.3498
  160MOL0     H21572   5.633   5.249   7.811  0.0360 -0.7763 -1.5162
  160MOL0     H21573   5.499   5.335   7.726  0.3133  0.0315 -2.7849
  160MOL0     H21574   5.595   5.052   7.689  1.4521  0.9338  0.0275
  160MOL0     H21575   5.462   5.119   7.586  1.9701 -0.9190 -1.3894
  160MOL0     H21576   5.379   4.965   7.771 -1.2113 -0.2408  0.1110
  160MOL0     H21577   5.450   5.075   7.886 -2.3571 -0.7944  0.0710
  160MOL0     H21578   5.201   5.107   7.715  0.6862 -0.2997 -0.7098
  160MOL0     H21579   5.304   5.249   7.747 -0.1842 -1.2561 -1.2222
  160MOL0     H21580   5.142   5.221   7.936 -1.1886 -1.2758 -4.5060
  160MOL0     H21581   5.309   5.197   7.991 -1.3738  1.3319  1.5374
  160MOL0     H21582   5.797   5.091   7.294 -1.2415 -0.2538 -2.1458
  160MOL0     H21583   5.946   5.010   7.132  0.3944  1.0602 -1.8939
  160MOL0     H21584   6.575   5.168   7.058 -1.4911 -1.2945  0.7378
  160MOL0     H21585   6.738   5.076   6.884 -0.2970  1.8340  2.3146
  160MOL0     H21586   5.874   5.729   5.924  0.9640 -2.5691  0.3066
  160MOL0     H21587   5.754   5.894   6.066 -0.9188 -1.6738 -0.0616
  160MOL0     H21588   5.549   5.791   6.606  2.1394  0.5128 -1.6514
  160MOL0     H21589   5.330   5.901   6.673 -0.0792  2.3721  0.6913
  160MOL0     H21590   5.279   6.318   6.495  1.0664  0.1163  0.0563
  160MOL0     H21591   5.189   6.231   6.377 -2.6357 -5.6596  0.4127
  160MOL0     H21592   4.984   6.245   6.481 -0.0944  1.6937 -1.5534
  160MOL0     H21593   5.054   6.408   6.503  0.7503 -0.7174 -0.5333
  160MOL0     H21594   5.127   6.243   6.734  0.6035  1.3884 -0.3301
  160MOL0     H21595   4.962   6.210   6.692  0.4849 -0.7668 -3.3707
  160MOL0     H21596   4.929   6.469   6.659 -1.5455 -2.4709 -0.8656
  160MOL0     H21597   5.066   6.494   6.751 -0.0448 -1.0595 -1.3896
  160MOL0     H21598   4.810   6.344   7.066  0.6739  0.8622  0.1566
  160MOL0     H21599   5.402   6.201   6.369 -2.7583 -1.1712 -0.5618
  160MOL0     H21600   5.632   6.102   6.324  0.4413  0.0066  1.6568
  161MOL0     O21601   0.784   2.905   0.222 -0.4836  0.1965 -0.0595
  161MOL0     C21602   0.719   2.868   0.124  0.3489 -0.3912  0.0163
  161MOL0     O21603   0.597   2.805   0.136  0.0852  0.2877 -0.1758
  161MOL0     C21604   0.518   2.819   0.254  0.3449  0.0851  0.6016
  161MOL0     C21605   0.525   2.719   0.353 -0.1115 -1.0967  0.5437
  161MOL0     C21606   0.459   2.733   0.476 -0.1133 -0.8076 -0.3544
  161MOL0     C21607   0.359   2.836   0.494 -0.2504 -0.2067 -0.9555
  161MOL0     O21608   0.262   2.845   0.591 -1.1274  0.2240  0.1205
  161MOL0     C21609   0.302   2.767   0.706  0.4137  0.3304 -0.9632
  161MOL0     C21610   0.217   2.802   0.831 -0.5308  0.0363 -0.3491
  161MOL0     C21611   0.065   2.763   0.809 -0.2327 -0.2101  0.0870
  161MOL0     C21612  -0.024   2.817   0.920  0.6749  0.4852  0.0333
  161MOL0     C21613  -0.173   2.788   0.892 -0.5532  0.5808  0.2579
  161MOL0     C21614  -0.269   2.754   1.001  0.4896 -0.6449 -0.2055
  161MOL0     C21615  -0.237   2.667   1.120 -0.6356  0.9468  0.5403
  161MOL0     C21616  -0.213   2.520   1.080  0.3681 -0.6233  0.1421
  161MOL0     N21617  -0.324   2.464   1.000 -0.5878  0.3673  0.5165
  161MOL0     C21618  -0.302   2.447   0.865 -0.7862 -0.3287 -0.0646
  161MOL0     C21619  -0.394   2.350   0.844  0.5994  0.3118 -0.1253
  161MOL0     C21620  -0.406   2.282   0.709 -0.7411 -0.4360 -0.0988
  161MOL0     C21621  -0.496   2.356   0.615  0.4460 -0.2227  1.7770
  161MOL0     C21622  -0.640   2.371   0.665 -0.8287 -0.4938  0.2082
  161MOL0     C21623  -0.729   2.423   0.554  0.4037  0.5222 -0.3224
  161MOL0     O21624  -0.870   2.404   0.592  0.4189  0.3970  0.7055
  161MOL0     C21625  -0.964   2.438   0.499 -0.2842  0.6995 -0.5273
  161MOL0     C21626  -1.037   2.335   0.432 -0.6874 -0.3996  0.0228
  161MOL0     C21627  -1.139   2.369   0.346  0.2559 -0.1121  0.1548
  161MOL0     C21628  -1.209   2.256   0.278 -0.4270  0.3495 -0.0992
  161MOL0     C21629  -1.180   2.498   0.344  0.2091 -0.6516 -0.6394
  161MOL0     C21630  -1.293   2.550   0.266  0.8536 -0.6635  0.3585
  161MOL0     O21631  -1.274   2.630   0.142 -0.7275  0.3168  0.5133
  161MOL0     C21632  -1.382   2.717   0.109  0.3999  1.0912 -0.4218
  161MOL0     C21633  -1.452   2.689  -0.015  0.0237  0.5968 -1.1563
  161MOL0     C21634  -1.574   2.748  -0.036  0.4584  0.0551 -0.1286
  161MOL0     C21635  -1.623   2.837   0.057  0.8147 -0.2726 -0.8149
  161MOL0     O21636  -1.741   2.907   0.023  0.3970 -0.9607 -0.1862
  161MOL0     C21637  -1.832   2.940   0.131  0.6085  1.3213 -0.1994
  161MOL0     C21638  -1.980   2.916   0.101 -0.0651  0.5907 -0.3942
  161MOL0     C21639  -2.062   2.910   0.224 -0.5012 -0.3286  0.1170
  161MOL0     C21640  -2.088   3.055   0.277 -0.0153 -0.1017  0.4614
  161MOL0     C21641  -2.215   3.053   0.350  0.1164 -0.6411 -0.1878
  161MOL0     C21642  -2.244   3.175   0.442 -0.4917 -0.3369 -0.6902
  161MOL0     C21643  -2.278   3.301   0.374  0.0672 -0.0241 -0.5774
  161MOL0     C21644  -2.426   3.335   0.388 -0.0712  0.0647  0.7161
  161MOL0    Cl21645  -2.444   3.482   0.273 -0.2226  0.1827  0.6015
  161MOL0     C21646  -1.548   2.877   0.168  1.1028  0.3620 -0.5452
  161MOL0     C21647  -1.427   2.807   0.198 -0.6596 -0.4192  0.2698
  161MOL0     O21648  -1.406   2.519   0.309 -0.3950  0.5330  0.2656
  161MOL0     C21649  -1.117   2.600   0.416  0.2909 -0.2221 -0.4476
  161MOL0     C21650  -1.013   2.565   0.496  0.3081 -0.1073 -0.1046
  161MOL0     N21651  -0.469   2.313   0.957 -0.1552 -0.6059  0.2850
  161MOL0     N21652  -0.432   2.389   1.056  0.4832  0.9941 -0.0549
  161MOL0     C21653   0.366   2.935   0.402  0.7374  0.3540  0.2158
  161MOL0     C21654   0.436   2.923   0.281 -0.2566  0.9283  0.5566
  161MOL0     C21655   0.788   2.850   0.005  0.6447 -0.6760  0.2090
  161MOL0     C21656   0.911   2.912  -0.005  0.0551  0.9717 -0.7621
  161MOL0     C21657   0.992   2.898  -0.119  0.4415  0.1732  0.0094
  161MOL0     C21658   0.946   2.827  -0.230 -1.1713  0.3869 -0.2422
  161MOL0     O21659   1.036   2.802  -0.336 -0.4814 -0.2853 -0.6071
  161MOL0     C21660   0.995   2.732  -0.453 -0.2601 -0.6376 -0.6297
  161MOL0     C21661   1.075   2.767  -0.579  0.4949  0.1072 -0.0765
  161MOL0     C21662   1.081   2.916  -0.593 -0.2467 -0.3955  0.2644
  161MOL0     C21663   0.948   2.978  -0.638  0.4549  0.3288  0.3663
  161MOL0     C21664   0.954   3.117  -0.676  0.1417 -0.9544 -0.8670
  161MOL0     C21665   0.967   3.238  -0.707 -0.0130 -0.3974 -0.2976
  161MOL0     C21666   0.822   2.761  -0.218  0.2600  0.1335  1.0796
  161MOL0     C21667   0.739   2.774  -0.106  0.0597 -0.2217 -0.9403
  161MOL0     H21668   0.590   2.633   0.346  0.6012 -0.7143  1.9059
  161MOL0     H21669   0.481   2.661   0.555 -1.9155 -2.1980 -1.0427
  161MOL0     H21670   0.305   2.659   0.691  0.8703  0.3011 -0.6740
  161MOL0     H21671   0.405   2.790   0.734 -0.2241  0.1164  1.8521
  161MOL0     H21672   0.250   2.752   0.922 -1.1311  1.4124  0.6631
  161MOL0     H21673   0.220   2.911   0.838 -1.9120  0.2229 -1.9358
  161MOL0     H21674   0.038   2.791   0.707 -0.4065  0.8530  0.4077
  161MOL0     H21675   0.056   2.654   0.810  0.1480 -0.2428  1.2702
  161MOL0     H21676   0.004   2.762   1.010 -1.2467  0.4148  0.6346
  161MOL0     H21677  -0.009   2.923   0.940 -2.5792  0.8735  1.0717
  161MOL0     H21678  -0.222   2.861   0.826  0.6022  0.9123 -0.2522
  161MOL0     H21679  -0.176   2.703   0.823 -0.0867  0.0729  0.8542
  161MOL0     H21680  -0.287   2.850   1.050  1.3158 -1.4849  1.8421
  161MOL0     H21681  -0.361   2.729   0.948 -0.0270 -0.0942  0.4184
  161MOL0     H21682  -0.155   2.716   1.172  3.0732 -3.9645  0.0162
  161MOL0     H21683  -0.323   2.667   1.188  1.7415  2.2440  3.7624
  161MOL0     H21684  -0.206   2.467   1.176  0.2944 -0.4656  0.2342
  161MOL0     H21685  -0.114   2.521   1.034  0.0745  1.2656 -0.5391
  161MOL0     H21686  -0.227   2.497   0.804  0.7233  0.2926  2.1515
  161MOL0     H21687  -0.317   2.288   0.646 -4.2297  2.3342 -5.4772
  161MOL0     H21688  -0.436   2.178   0.720 -1.6993 -0.6215 -3.5532
  161MOL0     H21689  -0.491   2.297   0.523  2.1963 -0.4379  1.9820
  161MOL0     H21690  -0.452   2.456   0.604  1.4032 -0.8081 -0.3289
  161MOL0     H21691  -0.653   2.446   0.743 -0.1746  2.0212 -1.9491
  161MOL0     H21692  -0.669   2.270   0.696 -0.6400 -0.3143  0.9923
  161MOL0     H21693  -0.714   2.361   0.464  0.7021 -0.1439  0.1783
  161MOL0     H21694  -0.710   2.530   0.543 -2.7031  1.3452  1.2261
  161MOL0     H21695  -1.005   2.232   0.443  3.3970  0.7930  1.2552
  161MOL0     H21696  -1.265   2.185   0.340 -2.1033  2.0481  0.3927
  161MOL0     H21697  -1.286   2.300   0.214 -2.0807  1.1836  2.3514
  161MOL0     H21698  -1.126   2.218   0.218  1.8456  2.6096  1.4351
  161MOL0     H21699  -1.413   2.619  -0.089 -1.6617 -0.5972 -0.9804
  161MOL0     H21700  -1.626   2.742  -0.131  0.7397  0.2806 -0.3004
  161MOL0     H21701  -1.804   2.877   0.216 -2.1280 -0.5791 -0.5532
  161MOL0     H21702  -1.828   3.046   0.160 -0.8604  1.4410 -0.3683
  161MOL0     H21703  -2.032   2.987   0.036 -2.2869 -0.6608 -0.0794
  161MOL0     H21704  -1.981   2.820   0.047  0.6213  0.2900  0.1191
  161MOL0     H21705  -2.022   2.844   0.302 -1.6718 -1.7453 -0.4362
  161MOL0     H21706  -2.156   2.855   0.213  0.4426 -2.1973  0.8306
  161MOL0     H21707  -2.010   3.085   0.347 -1.7700  0.1757  2.4104
  161MOL0     H21708  -2.104   3.130   0.200  0.8350 -0.6869 -0.3037
  161MOL0     H21709  -2.238   2.969   0.416 -1.8767  0.6015  0.7783
  161MOL0     H21710  -2.297   3.052   0.277 -0.0823 -1.2872  0.0344
  161MOL0     H21711  -2.330   3.147   0.503  1.6389 -1.0214  2.1799
  161MOL0     H21712  -2.163   3.184   0.515 -0.7361 -2.1300 -0.1491
  161MOL0     H21713  -2.245   3.300   0.270 -1.6379  2.3039 -1.2001
  161MOL0     H21714  -2.233   3.388   0.423 -2.7577  0.1326  2.0349
  161MOL0     H21715  -2.454   3.363   0.490 -2.0777  0.0804  0.2042
  161MOL0     H21716  -2.493   3.251   0.367 -0.0914  0.3007 -0.2303
  161MOL0     H21717  -1.586   2.940   0.248 -0.3030 -1.6845  0.4709
  161MOL0     H21718  -1.359   2.834   0.277  2.0413  1.6823 -2.5303
  161MOL0     H21719  -1.145   2.703   0.431  2.9084  0.5058 -0.0241
  161MOL0     H21720  -0.956   2.638   0.553  4.6803 -1.7458 -1.8955
  161MOL0     H21721   0.302   3.020   0.421  1.7040  0.8237  1.6071
  161MOL0     H21722   0.429   3.003   0.208 -2.1952  0.7630  0.5292
  161MOL0     H21723   0.944   2.983   0.070 -3.5440  1.4899  0.5161
  161MOL0     H21724   1.088   2.947  -0.111  2.7762 -3.5933 -2.1699
  161MOL0     H21725   1.000   2.623  -0.443  3.3476 -0.7653 -2.3342
  161MOL0     H21726   0.890   2.762  -0.465 -0.0324  0.3839 -0.1682
  161MOL0     H21727   1.034   2.724  -0.671  1.5119 -1.5667  0.2107
  161MOL0     H21728   1.179   2.732  -0.569 -0.3258 -2.6057 -0.2561
  161MOL0     H21729   1.153   2.946  -0.670 -2.2757  3.5726 -0.3346
  161MOL0     H21730   1.111   2.961  -0.498 -3.0677  0.1982  0.9719
  161MOL0     H21731   0.870   2.965  -0.563  3.2877 -0.5464  3.3983
  161MOL0     H21732   0.918   2.919  -0.725  1.3668 -0.1334  0.3534
  161MOL0     H21733   0.978   3.338  -0.746  1.8862 -1.4444 -2.6928
  161MOL0     H21734   0.775   2.711  -0.302  1.5688  1.3191 -0.4244
  161MOL0     H21735   0.640   2.731  -0.105  0.0414 -0.3109  2.2724
  162MOL0     O21736   1.786   3.760   7.740  0.4196 -0.1900  0.5026
  162MOL0     C21737   1.848   3.742   7.627  0.0751  0.7126 -0.4936
  162MOL0     O21738   1.869   3.833   7.530 -0.0013 -0.9579 -0.4603
  162MOL0     C21739   1.825   3.966   7.553  0.4976  1.4806  0.2931
  162MOL0     C21740   1.843   4.043   7.675 -1.0692 -0.0377  0.3498
  162MOL0     C21741   1.799   4.176   7.691 -0.4768  1.1132  0.0070
  162MOL0     C21742   1.747   4.240   7.575 -1.1223  0.3589 -0.2069
  162MOL0     O21743   1.716   4.371   7.587 -0.1421 -0.6303  0.0263
  162MOL0     C21744   1.627   4.415   7.690  0.7185 -0.2507  0.3590
  162MOL0     C21745   1.484   4.378   7.662 -0.0520  0.9724 -0.1142
  162MOL0     C21746   1.389   4.466   7.749 -0.5203 -0.3973  0.3460
  162MOL0     C21747   1.251   4.400   7.737  0.4692  0.2755 -0.4770
  162MOL0     C21748   1.128   4.494   7.716  0.2955 -0.3523 -0.1641
  162MOL0     C21749   0.998   4.422   7.711  0.5675 -0.1484  0.1057
  162MOL0     C21750   0.881   4.520   7.704 -0.0160 -0.4807 -0.6953
  162MOL0     C21751   0.753   4.431   7.674  0.0556 -0.0243 -0.2048
  162MOL0     N21752   0.635   4.520   7.680  0.8635  0.1986 -0.6356
  162MOL0     C21753   0.520   4.479   7.743  0.0537 -0.4844  0.0671
  162MOL0     C21754   0.419   4.550   7.682 -0.1223 -0.5796  0.1494
  162MOL0     C21755   0.272   4.531   7.704  0.8824  0.4479  0.1003
  162MOL0     C21756   0.195   4.559   7.583  0.8833  1.3742  0.3440
  162MOL0     C21757   0.137   4.696   7.592  1.0156  0.4623 -0.9424
  162MOL0     C21758   0.050   4.720   7.470 -0.0852 -0.3751  0.7062
  162MOL0     O21759  -0.022   4.845   7.491 -0.3188 -1.0841  0.7222
  162MOL0     C21760  -0.120   4.856   7.393  0.7287 -0.3162 -0.1194
  162MOL0     C21761  -0.095   4.871   7.252 -0.1833  0.9783 -0.5617
  162MOL0     C21762  -0.191   4.883   7.161 -0.1827 -0.0872  0.3733
  162MOL0     C21763  -0.149   4.908   7.015 -0.1069  0.7918  0.3644
  162MOL0     C21764  -0.320   4.864   7.201  0.6211  0.5060  0.1636
  162MOL0     C21765  -0.434   4.861   7.105  1.1607 -0.2255  1.1404
  162MOL0     O21766  -0.557   4.866   7.168 -0.1864 -1.1444 -0.1235
  162MOL0     C21767  -0.672   4.863   7.087 -0.8276 -0.4525  0.0785
  162MOL0     C21768  -0.738   4.739   7.061  0.4766  0.2255  0.4581
  162MOL0     C21769  -0.849   4.740   6.973  0.7944 -0.0418  0.1095
  162MOL0     C21770  -0.916   4.866   6.940 -0.9717  0.3408 -0.6555
  162MOL0     O21771  -1.030   4.869   6.874 -0.9594  0.9852 -0.8348
  162MOL0     C21772  -1.110   4.747   6.857 -0.7328 -0.0079 -1.7488
  162MOL0     C21773  -1.225   4.762   6.768  0.0148 -0.6909  0.2125
  162MOL0     C21774  -1.343   4.852   6.816 -0.0909  0.4108  0.0351
  162MOL0     C21775  -1.416   4.781   6.928 -0.3852  1.0965 -0.0530
  162MOL0     C21776  -1.531   4.860   6.991 -0.0444  0.6187 -0.1293
  162MOL0     C21777  -1.619   4.755   7.076  0.6182  0.0765 -0.2932
  162MOL0     C21778  -1.758   4.805   7.109 -0.1365  0.0370  0.0517
  162MOL0     C21779  -1.859   4.694   7.122  0.4652  0.3431 -0.1418
  162MOL0    Cl21780  -1.897   4.621   6.957  0.2594 -0.4439  0.5744
  162MOL0     C21781  -0.851   4.985   6.983  0.1249  0.1871  0.4090
  162MOL0     C21782  -0.729   4.989   7.047  0.4104  0.6035  0.3945
  162MOL0     O21783  -0.422   4.852   6.984 -0.1301 -0.3986 -0.0339
  162MOL0     C21784  -0.351   4.839   7.336  0.0437 -0.0327  0.3506
  162MOL0     C21785  -0.254   4.836   7.434 -0.6041  0.0435  0.4646
  162MOL0     N21786   0.481   4.630   7.584 -0.7948 -0.7857  0.2600
  162MOL0     N21787   0.601   4.612   7.581  0.3030 -0.1475  0.0136
  162MOL0     C21788   1.740   4.169   7.458 -0.7628 -0.3092  0.0524
  162MOL0     C21789   1.775   4.035   7.450  0.4033  0.2712 -0.3665
  162MOL0     C21790   1.926   3.612   7.599  0.3363  0.4480 -0.1567
  162MOL0     C21791   1.930   3.506   7.688  0.0285 -0.1360  0.9659
  162MOL0     C21792   2.003   3.391   7.672 -0.0370 -0.0584  0.3668
  162MOL0     C21793   2.068   3.365   7.547  0.9221 -0.4592 -0.1223
  162MOL0     O21794   2.135   3.243   7.536 -1.1948 -0.0227 -0.3941
  162MOL0     C21795   2.174   3.196   7.399  0.2325 -0.0181  0.1669
  162MOL0     C21796   2.065   3.179   7.296  0.6851  0.7711  0.4031
  162MOL0     C21797   1.984   3.059   7.320  0.3836  0.3514  0.6201
  162MOL0     C21798   1.876   3.040   7.219  0.7755  0.7729  0.1266
  162MOL0     C21799   1.845   2.899   7.221  0.0540 -0.6077 -0.5269
  162MOL0     C21800   1.798   2.785   7.215  0.8784 -0.4483 -0.6624
  162MOL0     C21801   2.073   3.477   7.454 -0.4872  0.5603  0.8636
  162MOL0     C21802   1.999   3.595   7.482 -1.1269  0.0567 -0.5803
  162MOL0     H21803   1.884   4.006   7.768 -1.0091  4.4351  2.3406
  162MOL0     H21804   1.799   4.215   7.792 -0.8197 -1.8949  1.2590
  162MOL0     H21805   1.648   4.372   7.789 -3.2746 -1.8878  0.6807
  162MOL0     H21806   1.628   4.524   7.698  1.4791 -0.3914  4.7005
  162MOL0     H21807   1.459   4.390   7.556  3.2955 -2.4771 -1.5431
  162MOL0     H21808   1.475   4.271   7.680  0.1856  1.1043  0.8679
  162MOL0     H21809   1.425   4.480   7.851  2.7739  1.6160 -0.9146
  162MOL0     H21810   1.378   4.560   7.694 -0.7927 -1.2348 -1.0793
  162MOL0     H21811   1.242   4.306   7.682  0.2805  0.3486 -0.5722
  162MOL0     H21812   1.223   4.375   7.840  1.6220  2.8034  0.5453
  162MOL0     H21813   1.117   4.568   7.796 -0.8857 -0.4428 -0.2328
  162MOL0     H21814   1.140   4.550   7.623  0.3626 -1.8727 -1.0935
  162MOL0     H21815   0.990   4.359   7.622 -0.3615 -0.6254  0.5086
  162MOL0     H21816   0.992   4.365   7.804  0.4968  0.3455  0.4105
  162MOL0     H21817   0.871   4.566   7.803 -1.1560 -1.4487 -0.3358
  162MOL0     H21818   0.896   4.594   7.624 -2.8736  2.9421  1.6010
  162MOL0     H21819   0.744   4.356   7.754  0.9207 -0.5415 -0.5782
  162MOL0     H21820   0.757   4.379   7.578 -3.1615  1.7761 -1.4687
  162MOL0     H21821   0.495   4.397   7.809 -0.8368  0.8347  1.4349
  162MOL0     H21822   0.253   4.424   7.717 -2.2349  0.2577 -3.9051
  162MOL0     H21823   0.234   4.577   7.795  0.7515 -0.8575  0.7216
  162MOL0     H21824   0.114   4.485   7.587  2.6677 -0.7100  0.1827
  162MOL0     H21825   0.258   4.543   7.495  1.5651  1.7169  0.7688
  162MOL0     H21826   0.220   4.766   7.606  2.0974 -1.2513  2.1115
  162MOL0     H21827   0.071   4.690   7.679  0.5586 -1.7997 -1.3774
  162MOL0     H21828  -0.020   4.639   7.446  1.4422 -1.9448  1.3477
  162MOL0     H21829   0.125   4.731   7.391  2.4379 -0.2790  3.0053
  162MOL0     H21830   0.005   4.891   7.215  0.3861 -1.5166 -0.5777
  162MOL0     H21831  -0.202   4.982   6.954  4.3782  1.2657 -3.5455
  162MOL0     H21832  -0.046   4.944   7.007  0.4651 -0.7965  0.3640
  162MOL0     H21833  -0.142   4.820   6.950  0.3032  2.7694 -2.4435
  162MOL0     H21834  -0.684   4.656   7.105  1.5138 -0.0464 -1.2702
  162MOL0     H21835  -0.901   4.648   6.952 -2.0759  1.2596  1.0337
  162MOL0     H21836  -1.046   4.666   6.820  0.6502 -1.1669  2.6766
  162MOL0     H21837  -1.142   4.701   6.951  2.3612 -2.6289 -1.7945
  162MOL0     H21838  -1.185   4.799   6.673 -0.3084  0.1329  0.3867
  162MOL0     H21839  -1.258   4.661   6.742 -2.5417  0.1520 -0.1310
  162MOL0     H21840  -1.414   4.874   6.736 -2.6631 -0.9455  1.8021
  162MOL0     H21841  -1.307   4.945   6.861  0.6368  0.7257 -1.1386
  162MOL0     H21842  -1.444   4.682   6.891  2.5556 -0.2841  1.0606
  162MOL0     H21843  -1.352   4.765   7.016 -2.1026 -1.6707  0.8371
  162MOL0     H21844  -1.585   4.905   6.907  2.0162  0.7081 -1.4977
  162MOL0     H21845  -1.494   4.935   7.062  1.9677 -1.4518  1.1621
  162MOL0     H21846  -1.627   4.662   7.019  0.3071 -0.1500  0.1076
  162MOL0     H21847  -1.571   4.730   7.171 -2.5714  0.9144  1.6941
  162MOL0     H21848  -1.790   4.875   7.031  0.4450  0.4235  0.1520
  162MOL0     H21849  -1.761   4.857   7.205 -2.5983 -1.5726  0.9462
  162MOL0     H21850  -1.955   4.718   7.170  1.0964  1.2903  0.6953
  162MOL0     H21851  -1.810   4.626   7.192  3.2939  0.6453 -1.6835
  162MOL0     H21852  -0.901   5.076   6.951 -2.3387 -0.8759  0.9643
  162MOL0     H21853  -0.687   5.087   7.070  1.3569 -0.1274  1.9632
  162MOL0     H21854  -0.449   4.825   7.381  0.4448 -0.0806  1.2369
  162MOL0     H21855  -0.283   4.813   7.536 -0.0955 -2.6277  0.0821
  162MOL0     H21856   1.701   4.228   7.376 -5.0199 -0.7363  1.5243
  162MOL0     H21857   1.771   3.998   7.348 -2.1354  2.3607 -1.1193
  162MOL0     H21858   1.887   3.530   7.784  0.7037 -0.3643  1.3339
  162MOL0     H21859   2.029   3.313   7.742 -0.0232  0.5445  1.0462
  162MOL0     H21860   2.242   3.272   7.358  0.2185 -0.5600 -0.8808
  162MOL0     H21861   2.223   3.100   7.416  0.8089  0.5669  2.1222
  162MOL0     H21862   2.106   3.162   7.196  1.2285 -0.8720  0.8784
  162MOL0     H21863   1.995   3.264   7.291  0.4412  0.8674  3.6292
  162MOL0     H21864   1.938   3.072   7.419  0.0124 -1.2890  0.6939
  162MOL0     H21865   2.053   2.975   7.326  0.8093  0.3196 -2.8045
  162MOL0     H21866   1.911   3.062   7.118  0.4966  2.0097  0.2819
  162MOL0     H21867   1.790   3.102   7.248 -0.6775 -1.4689  0.8492
  162MOL0     H21868   1.740   2.695   7.220  0.8364 -0.5695 -2.5994
  162MOL0     H21869   2.115   3.477   7.353  0.1722  0.6791  1.1306
  162MOL0     H21870   1.992   3.676   7.410  0.2932  2.5982  1.9414
  163MOL0     O21871   1.471   5.019   8.760  0.0731  0.0021  0.2545
  163MOL0     C21872   1.586   4.984   8.763  0.9636  0.2586 -1.2915
  163MOL0     O21873   1.680   5.049   8.836  0.0291  0.2707 -0.3307
  163MOL0     C21874   1.656   5.148   8.930  0.5838  0.4676  0.3477
  163MOL0     C21875   1.721   5.267   8.896 -0.1196 -0.3549  0.6126
  163MOL0     C21876   1.719   5.384   8.983 -0.0645  0.9818  0.4754
  163MOL0     C21877   1.631   5.386   9.097  0.9741 -1.2559 -0.5236
  163MOL0     O21878   1.623   5.489   9.176 -0.1621 -0.4981 -0.3536
  163MOL0     C21879   1.527   5.505   9.272 -0.4522  0.0544 -1.1398
  163MOL0     C21880   1.538   5.653   9.314  0.5835  0.3232 -0.2139
  163MOL0     C21881   1.475   5.687   9.461 -0.5281 -0.2408 -0.5926
  163MOL0     C21882   1.570   5.696   9.586  0.3574  0.1726  0.0381
  163MOL0     C21883   1.503   5.686   9.719 -0.2633  0.8644  0.3924
  163MOL0     C21884   1.611   5.690   9.827  0.3989 -0.5106  0.4760
  163MOL0     C21885   1.553   5.671   9.970 -0.7329  0.9769 -0.2777
  163MOL0     C21886   1.455   5.782  10.010  1.5209  0.1166 -0.6364
  163MOL0     N21887   1.420   5.794  10.152  0.2488 -0.2642 -0.0374
  163MOL0     C21888   1.345   5.712  10.235  0.1174 -0.0840  0.0812
  163MOL0     C21889   1.356   5.755  10.354  0.8062  0.5006  0.0522
  163MOL0     C21890   1.282   5.694  10.467  0.3179 -0.3260 -0.2361
  163MOL0     C21891   1.300   5.755  10.605 -0.2124  0.4394  0.0870
  163MOL0     C21892   1.218   5.702  10.716  0.1332  0.5994  1.1271
  163MOL0     C21893   1.256   5.773  10.851  0.0742  1.1718  0.6272
  163MOL0     O21894   1.361   5.697  10.915  0.5772 -0.4486 -0.0894
  163MOL0     C21895   1.330   5.573  10.967  0.3271 -0.1292  0.2120
  163MOL0     C21896   1.203   5.515  10.986  0.7558  0.6394  0.6217
  163MOL0     C21897   1.194   5.380  11.032  0.2169 -0.0543 -0.7457
  163MOL0     C21898   1.063   5.318  11.055  0.1373 -0.5283 -0.1823
  163MOL0     C21899   1.312   5.320  11.080 -0.4811 -0.1708 -0.8846
  163MOL0     C21900   1.317   5.181  11.132  0.3303 -0.1572 -1.2390
  163MOL0     O21901   1.445   5.119  11.131  0.3962  0.0816 -0.3873
  163MOL0     C21902   1.462   5.007  11.201  0.7047 -0.2261  0.3691
  163MOL0     C21903   1.398   4.892  11.166 -0.1213  0.5108 -0.6860
  163MOL0     C21904   1.413   4.772  11.235  0.3492 -0.7167 -0.2809
  163MOL0     C21905   1.503   4.766  11.342 -0.3931 -0.0301  0.6067
  163MOL0     O21906   1.520   4.650  11.408  0.0725  0.5845 -0.3401
  163MOL0     C21907   1.470   4.525  11.370 -0.1407  1.3017 -0.0202
  163MOL0     C21908   1.560   4.432  11.453 -0.2669 -0.0857  0.3154
  163MOL0     C21909   1.517   4.283  11.444  0.0112 -0.2508 -0.1418
  163MOL0     C21910   1.548   4.218  11.302  0.1178  0.1447 -0.6042
  163MOL0     C21911   1.492   4.071  11.282  0.3137 -0.2599 -0.0765
  163MOL0     C21912   1.521   4.017  11.145 -0.5776 -0.6667  0.8194
  163MOL0     C21913   1.452   3.891  11.123  0.1542  0.6064 -0.7066
  163MOL0     C21914   1.510   3.771  11.198 -0.3361  0.7071 -0.3424
  163MOL0    Cl21915   1.393   3.625  11.179  0.0892  0.4505  0.3674
  163MOL0     C21916   1.564   4.883  11.389  0.2411 -0.4072 -0.2518
  163MOL0     C21917   1.553   5.010  11.309 -0.5440  0.3336  0.3397
  163MOL0     O21918   1.218   5.139  11.190 -0.2242  0.0269  0.5600
  163MOL0     C21919   1.429   5.391  11.085  0.4098  0.2609  0.8665
  163MOL0     C21920   1.434   5.517  11.036 -0.1868  0.0721 -0.6040
  163MOL0     N21921   1.433   5.868  10.342  0.3662  0.1264 -0.2617
  163MOL0     N21922   1.465   5.898  10.220 -0.4350  0.9480 -0.1217
  163MOL0     C21923   1.551   5.270   9.117 -0.0604  0.6972  0.3645
  163MOL0     C21924   1.572   5.150   9.038 -0.4480  0.8378  0.4315
  163MOL0     C21925   1.644   4.863   8.700  0.5379 -0.5991  0.6298
  163MOL0     C21926   1.580   4.796   8.590 -0.1562 -0.8291  0.0972
  163MOL0     C21927   1.649   4.692   8.516  0.8605  0.2809 -0.4911
  163MOL0     C21928   1.779   4.651   8.553  0.0665  0.5660  0.5054
  163MOL0     O21929   1.833   4.534   8.503 -0.7179 -0.2823  0.7232
  163MOL0     C21930   1.959   4.471   8.553 -1.1039 -0.1842  0.6864
  163MOL0     C21931   2.039   4.435   8.430  0.5326  0.2665  1.3470
  163MOL0     C21932   2.159   4.357   8.444 -1.7359 -0.6796  0.2178
  163MOL0     C21933   2.270   4.443   8.489 -0.9225 -1.1127  0.4566
  163MOL0     C21934   2.340   4.517   8.379  0.2706  0.2649 -0.3712
  163MOL0     C21935   2.386   4.576   8.286  0.3558  0.2207  0.2022
  163MOL0     C21936   1.835   4.714   8.666 -0.7845 -0.4790  0.8354
  163MOL0     C21937   1.771   4.815   8.739  0.1938  0.5077  0.6105
  163MOL0     H21938   1.785   5.266   8.808 -1.7681 -4.1174 -0.7656
  163MOL0     H21939   1.781   5.471   8.963  1.0717  0.6307  2.3286
  163MOL0     H21940   1.424   5.497   9.235 -0.6265  3.5089 -1.7469
  163MOL0     H21941   1.551   5.443   9.358  2.5464 -0.9299 -2.5465
  163MOL0     H21942   1.646   5.673   9.315  0.9438 -1.3102 -1.0447
  163MOL0     H21943   1.480   5.710   9.242 -1.4935 -0.1573  0.9798
  163MOL0     H21944   1.431   5.787   9.448  0.4450  0.1352 -1.0787
  163MOL0     H21945   1.403   5.610   9.490  0.9441 -1.3350  0.2679
  163MOL0     H21946   1.640   5.613   9.579 -1.1704 -1.1369 -0.3079
  163MOL0     H21947   1.619   5.794   9.578  1.1534 -0.3665 -2.6205
  163MOL0     H21948   1.421   5.758   9.720 -2.3114 -1.2757 -1.0843
  163MOL0     H21949   1.467   5.584   9.736  0.8989  0.3862  0.1291
  163MOL0     H21950   1.689   5.615   9.809 -2.2279 -4.0561  2.6778
  163MOL0     H21951   1.660   5.788   9.824  0.8457 -0.7448 -1.4711
  163MOL0     H21952   1.511   5.571   9.978  3.2808 -1.1032 -2.1296
  163MOL0     H21953   1.638   5.659  10.038  2.0631 -0.3449 -3.6820
  163MOL0     H21954   1.359   5.751   9.966  1.2593 -0.1246  0.0951
  163MOL0     H21955   1.495   5.880   9.981 -0.9536  1.2564 -0.4715
  163MOL0     H21956   1.286   5.625  10.206 -1.2302  2.0565 -4.4303
  163MOL0     H21957   1.175   5.693  10.444  0.7686  1.7297 -2.8710
  163MOL0     H21958   1.298   5.586  10.465  2.3142 -0.0479 -1.4719
  163MOL0     H21959   1.264   5.855  10.579 -1.9656  0.0752  0.9931
  163MOL0     H21960   1.407   5.755  10.624  0.0464 -0.0761 -1.2279
  163MOL0     H21961   1.234   5.594  10.723 -1.3242  0.2450 -0.5357
  163MOL0     H21962   1.111   5.712  10.698  0.1105  1.7932  1.8060
  163MOL0     H21963   1.170   5.774  10.919 -0.4154  1.1171  0.0279
  163MOL0     H21964   1.299   5.871  10.833  1.4064  0.4707 -0.2064
  163MOL0     H21965   1.112   5.553  10.940  1.2836  2.5770  1.0975
  163MOL0     H21966   0.976   5.364  11.008  0.8849 -1.8574 -3.1043
  163MOL0     H21967   1.059   5.214  11.020  3.7277 -1.3401  1.3791
  163MOL0     H21968   1.052   5.315  11.164  1.4098  0.7786  0.0154
  163MOL0     H21969   1.324   4.883  11.086  1.6476  1.6746 -2.5509
  163MOL0     H21970   1.348   4.686  11.221 -1.5083  0.3164  1.4804
  163MOL0     H21971   1.363   4.506  11.378 -0.4909  1.0495 -3.8395
  163MOL0     H21972   1.490   4.521  11.263 -3.2211  0.6519 -0.6620
  163MOL0     H21973   1.660   4.444  11.411 -0.6544 -0.3977 -0.7292
  163MOL0     H21974   1.564   4.452  11.561  1.1492 -3.3630  0.9839
  163MOL0     H21975   1.412   4.266  11.472 -0.3117  0.2945 -0.9714
  163MOL0     H21976   1.574   4.234  11.523 -0.0978 -1.4270 -0.7749
  163MOL0     H21977   1.514   4.287  11.223 -0.7947  1.3311  0.7787
  163MOL0     H21978   1.658   4.218  11.303  0.1592  2.4154 -0.7800
  163MOL0     H21979   1.386   4.073  11.310 -0.4286 -3.0926 -2.3043
  163MOL0     H21980   1.538   4.012  11.362  0.1558  3.4535  3.0881
  163MOL0     H21981   1.478   4.092  11.078 -1.9231  0.1780  2.5761
  163MOL0     H21982   1.630   4.008  11.143 -0.5063  0.1694  0.1555
  163MOL0     H21983   1.440   3.867  11.017 -0.8677 -2.8222  0.0494
  163MOL0     H21984   1.347   3.897  11.155  0.2199 -3.3854  0.8346
  163MOL0     H21985   1.519   3.797  11.304  0.8806 -0.3257 -0.1755
  163MOL0     H21986   1.601   3.732  11.152 -0.1917  0.6046  0.0312
  163MOL0     H21987   1.623   4.885  11.480 -1.5631  0.0517  0.9488
  163MOL0     H21988   1.610   5.102  11.317  1.0406 -0.4770 -0.9702
  163MOL0     H21989   1.522   5.345  11.117  1.5980  2.5575  0.8976
  163MOL0     H21990   1.531   5.566  11.028 -0.2088 -0.1402 -2.3807
  163MOL0     H21991   1.483   5.276   9.201 -1.3786  3.0321 -0.7901
  163MOL0     H21992   1.517   5.056   9.045  0.4542  0.2379 -0.2139
  163MOL0     H21993   1.485   4.828   8.548 -0.1060 -0.4826  0.2455
  163MOL0     H21994   1.601   4.644   8.431 -0.4387 -2.1268  1.4598
  163MOL0     H21995   2.031   4.526   8.615  2.7839 -3.2624 -0.6607
  163MOL0     H21996   1.932   4.381   8.609  4.0821 -3.6939 -1.6027
  163MOL0     H21997   2.080   4.524   8.383  3.0570 -0.4490  2.0289
  163MOL0     H21998   1.966   4.385   8.365  1.3152  2.3173 -1.2866
  163MOL0     H21999   2.185   4.308   8.350 -1.6825  1.0152 -0.6833
  163MOL0     H22000   2.141   4.282   8.522  1.5003 -1.8803 -0.0459
  163MOL0     H22001   2.337   4.366   8.528 -0.7540 -0.5933  1.2111
  163MOL0     H22002   2.231   4.506   8.569  2.3229 -0.3704  1.6428
  163MOL0     H22003   2.433   4.628   8.204  0.8888  1.4776  1.2651
  163MOL0     H22004   1.923   4.679   8.718  1.6757  1.7918 -1.4418
  163MOL0     H22005   1.827   4.856   8.823 -1.0091  3.1456  0.2036
  164MOL0     O22006   0.510   5.878   4.990 -0.3293 -0.2587  0.3334
  164MOL0     C22007   0.411   5.929   4.929  0.9726  0.1104  0.6006
  164MOL0     O22008   0.373   6.059   4.916 -0.0378  0.3076 -0.7067
  164MOL0     C22009   0.388   6.153   5.013 -1.3728  0.5192  0.1697
  164MOL0     C22010   0.366   6.291   4.987  0.0154  0.4363 -0.0180
  164MOL0     C22011   0.370   6.387   5.091 -1.7833 -0.9349 -0.1623
  164MOL0     C22012   0.421   6.358   5.218  0.4072  1.0920 -0.4576
  164MOL0     O22013   0.440   6.438   5.328 -0.6864 -0.4525  0.8169
  164MOL0     C22014   0.428   6.581   5.309  0.1760 -0.0377  0.3308
  164MOL0     C22015   0.518   6.640   5.415  0.5198  0.1702  0.7199
  164MOL0     C22016   0.511   6.793   5.407  0.2086 -0.0153 -0.3312
  164MOL0     C22017   0.540   6.859   5.538  0.4209  0.1560 -0.0591
  164MOL0     C22018   0.679   6.847   5.593 -1.2485 -0.3247 -0.1868
  164MOL0     C22019   0.732   6.966   5.669  0.5541  0.3568 -0.2523
  164MOL0     C22020   0.867   6.936   5.731  0.9398  0.1912 -0.5931
  164MOL0     C22021   0.919   7.069   5.790  0.3035 -0.9462  1.0678
  164MOL0     N22022   1.068   7.056   5.806 -0.3080  0.2689 -0.2389
  164MOL0     C22023   1.139   7.101   5.916 -0.7773  0.0225  0.1659
  164MOL0     C22024   1.272   7.060   5.889 -0.1875  0.4011 -0.8030
  164MOL0     C22025   1.400   7.078   5.967 -0.0544  0.8370  0.1141
  164MOL0     C22026   1.496   7.186   5.923  0.9152  0.5213  1.1978
  164MOL0     C22027   1.639   7.175   5.960 -0.3390 -0.0018 -0.2056
  164MOL0     C22028   1.717   7.119   5.838 -0.2678  0.2071  0.2457
  164MOL0     O22029   1.727   7.210   5.731  0.2307 -0.0934 -0.4941
  164MOL0     C22030   1.833   7.241   5.647 -0.1186 -0.2107  0.1538
  164MOL0     C22031   1.805   7.359   5.568  0.3851  0.8164  0.3048
  164MOL0     C22032   1.882   7.397   5.465  0.0061  0.1303  0.0827
  164MOL0     C22033   1.820   7.500   5.368 -0.7347  0.4057 -0.6164
  164MOL0     C22034   2.011   7.331   5.443 -0.2354  0.1958 -0.5138
  164MOL0     C22035   2.080   7.352   5.310  0.2495 -0.5167  0.2801
  164MOL0     O22036   2.059   7.476   5.236  0.5926 -0.2420 -0.1490
  164MOL0     C22037   2.111   7.478   5.113  0.2325 -0.3267  0.4764
  164MOL0     C22038   2.050   7.434   4.999  0.9247  0.0654 -0.7484
  164MOL0     C22039   2.114   7.424   4.877 -0.1734  0.1657  0.4369
  164MOL0     C22040   2.234   7.491   4.861  0.0505 -0.4646  0.1490
  164MOL0     O22041   2.290   7.496   4.733  0.0008  1.1739 -0.9748
  164MOL0     C22042   2.381   7.390   4.705 -0.4897 -0.1410 -0.2502
  164MOL0     C22043   2.456   7.435   4.575  0.3399  0.0692 -0.6548
  164MOL0     C22044   2.532   7.306   4.538  0.1736 -0.0748 -0.0238
  164MOL0     C22045   2.449   7.203   4.471  0.4796  0.5287 -0.5728
  164MOL0     C22046   2.542   7.084   4.417  0.7650 -0.8961 -0.2416
  164MOL0     C22047   2.438   6.978   4.365 -0.1829  0.1917  0.2996
  164MOL0     C22048   2.494   6.842   4.299 -0.2552 -0.9044 -0.4136
  164MOL0     C22049   2.570   6.767   4.409 -0.8199  0.1866 -1.2455
  164MOL0    Cl22050   2.670   6.637   4.319 -0.2864  0.4347 -0.1948
  164MOL0     C22051   2.302   7.540   4.972 -0.6522  0.5025  0.2369
  164MOL0     C22052   2.249   7.512   5.100  0.8140 -0.7044  0.0316
  164MOL0     O22053   2.160   7.265   5.277 -0.4771 -0.3645 -0.4398
  164MOL0     C22054   2.042   7.221   5.532 -0.4229  0.3658  0.8397
  164MOL0     C22055   1.957   7.182   5.635  0.1666  0.8593  0.4676
  164MOL0     N22056   1.274   6.994   5.769 -0.0498  0.5270  0.0662
  164MOL0     N22057   1.151   6.995   5.731  0.3045  0.5160 -0.8992
  164MOL0     C22058   0.429   6.218   5.250  0.8069 -0.5523 -0.1972
  164MOL0     C22059   0.425   6.121   5.150  0.4760 -0.6793 -0.2365
  164MOL0     C22060   0.317   5.835   4.861 -1.2372 -0.2188  0.9273
  164MOL0     C22061   0.340   5.694   4.850  1.2728 -0.0636  1.2738
  164MOL0     C22062   0.270   5.632   4.754  0.2350  0.8439 -0.0390
  164MOL0     C22063   0.165   5.682   4.680  0.4371 -0.2061 -1.1117
  164MOL0     O22064   0.095   5.606   4.597  0.4262 -0.3435 -0.6860
  164MOL0     C22065   0.070   5.468   4.631 -0.3063  0.3733  0.5111
  164MOL0     C22066  -0.034   5.395   4.539  0.4032 -0.7245  0.4407
  164MOL0     C22067  -0.040   5.246   4.570  0.9174 -0.1120  0.7790
  164MOL0     C22068  -0.166   5.180   4.535  0.4192  0.2643  1.1436
  164MOL0     C22069  -0.164   5.032   4.550 -0.1372  0.2329  0.3418
  164MOL0     C22070  -0.146   4.909   4.560 -0.2866  0.4102  1.0757
  164MOL0     C22071   0.138   5.816   4.684  0.5428  0.0933  0.2151
  164MOL0     C22072   0.215   5.890   4.773  0.6215 -0.3857  0.7681
  164MOL0     H22073   0.322   6.300   4.888 -0.7909 -1.5687  0.1122
  164MOL0     H22074   0.352   6.490   5.062  3.2955 -0.6383 -3.4528
  164MOL0     H22075   0.461   6.606   5.208 -1.3933 -2.9655 -1.0346
  164MOL0     H22076   0.327   6.624   5.312  0.7255  1.4536 -1.1058
  164MOL0     H22077   0.501   6.596   5.514  0.0655 -1.7464 -0.1653
  164MOL0     H22078   0.614   6.608   5.373  0.1505 -1.0961  0.7837
  164MOL0     H22079   0.570   6.829   5.322  0.7477 -1.5228 -0.6328
  164MOL0     H22080   0.408   6.805   5.374  0.3119 -2.6233 -1.8363
  164MOL0     H22081   0.515   6.965   5.531  0.6897  0.4193  2.3546
  164MOL0     H22082   0.473   6.818   5.614 -0.1751 -0.0650 -0.6848
  164MOL0     H22083   0.704   6.757   5.651  1.4344 -0.0776 -0.8014
  164MOL0     H22084   0.745   6.834   5.506  0.7518  2.1540  0.8366
  164MOL0     H22085   0.740   7.057   5.609 -0.3997  1.5522  1.3722
  164MOL0     H22086   0.656   6.985   5.745  1.5459  0.1111  0.8356
  164MOL0     H22087   0.855   6.875   5.820 -2.6140  2.0547  0.3957
  164MOL0     H22088   0.943   6.890   5.666 -0.1124  0.6185 -2.1861
  164MOL0     H22089   0.887   7.106   5.888  0.8846 -1.0225  1.2947
  164MOL0     H22090   0.898   7.150   5.720  1.1308  0.5528  2.4818
  164MOL0     H22091   1.115   7.169   5.997 -2.6318  1.2155 -1.2917
  164MOL0     H22092   1.377   7.084   6.073 -0.7172 -0.0661  0.0315
  164MOL0     H22093   1.460   6.989   5.947  2.7624  2.9181 -1.5483
  164MOL0     H22094   1.458   7.278   5.969 -1.7906 -0.6890  1.5164
  164MOL0     H22095   1.480   7.200   5.816 -1.4888  0.1040  1.4543
  164MOL0     H22096   1.649   7.112   6.049 -0.4622 -1.3820 -1.1310
  164MOL0     H22097   1.688   7.269   5.987  3.3903 -1.8210  0.0947
  164MOL0     H22098   1.670   7.028   5.800 -2.6007  1.2718  0.3814
  164MOL0     H22099   1.821   7.100   5.866 -0.3027  1.0014  0.9388
  164MOL0     H22100   1.704   7.397   5.579 -1.4071 -3.5441  1.2767
  164MOL0     H22101   1.720   7.537   5.394  0.0341  1.9082  0.3905
  164MOL0     H22102   1.877   7.594   5.365 -2.3492  1.4277 -0.5687
  164MOL0     H22103   1.825   7.464   5.265 -0.3575  0.1614 -0.5131
  164MOL0     H22104   1.946   7.403   4.994 -0.6067  4.3741  0.2400
  164MOL0     H22105   2.071   7.400   4.780  2.8777  0.1827 -1.0310
  164MOL0     H22106   2.452   7.377   4.786 -0.2845  0.3697 -0.3422
  164MOL0     H22107   2.316   7.303   4.694  2.4787 -2.8862  1.9697
  164MOL0     H22108   2.381   7.467   4.502 -2.5117 -0.8818  1.6683
  164MOL0     H22109   2.529   7.513   4.600  2.1381 -1.2166 -1.6578
  164MOL0     H22110   2.581   7.274   4.631  3.2707  1.9867 -0.7950
  164MOL0     H22111   2.620   7.322   4.475  2.2193  0.1757  2.6730
  164MOL0     H22112   2.373   7.164   4.539 -0.9031  3.2053 -0.4496
  164MOL0     H22113   2.401   7.247   4.383  2.3666 -1.8539 -2.9477
  164MOL0     H22114   2.600   7.043   4.501 -0.3622 -1.1952  0.4079
  164MOL0     H22115   2.623   7.104   4.346 -0.6744 -0.9054 -1.9669
  164MOL0     H22116   2.385   6.946   4.456  2.7282  0.0894  2.0728
  164MOL0     H22117   2.377   7.026   4.288 -1.4077 -2.2569 -0.3567
  164MOL0     H22118   2.567   6.848   4.218 -0.4794 -1.0329 -0.6261
  164MOL0     H22119   2.402   6.793   4.266 -2.6509  1.9917  1.4173
  164MOL0     H22120   2.499   6.713   4.473 -0.7183  1.9640  0.4610
  164MOL0     H22121   2.641   6.830   4.463  1.0539 -0.5385 -2.7490
  164MOL0     H22122   2.400   7.580   4.947 -0.1944  0.1223  1.3639
  164MOL0     H22123   2.308   7.541   5.187 -2.6092  2.5765  1.5767
  164MOL0     H22124   2.131   7.161   5.511 -1.8585 -0.7362 -3.0079
  164MOL0     H22125   1.998   7.116   5.710  3.3318 -1.4529 -2.9393
  164MOL0     H22126   0.448   6.189   5.353 -0.5937 -1.5914 -0.2013
  164MOL0     H22127   0.433   6.018   5.185 -0.1136 -0.6806 -0.1000
  164MOL0     H22128   0.423   5.656   4.907  0.1533  2.0098  4.5542
  164MOL0     H22129   0.296   5.526   4.754  1.1732  1.0557 -0.4609
  164MOL0     H22130   0.168   5.420   4.619 -0.5723  0.4249 -2.7874
  164MOL0     H22131   0.037   5.459   4.735 -0.2317 -2.1340  0.3891
  164MOL0     H22132  -0.002   5.412   4.436 -2.3449 -0.2719 -0.4171
  164MOL0     H22133  -0.130   5.445   4.552  0.7766 -0.0982  0.8280
  164MOL0     H22134  -0.038   5.239   4.679 -2.6557  0.3328  1.0065
  164MOL0     H22135   0.052   5.201   4.531  1.1426  0.4389  0.6579
  164MOL0     H22136  -0.197   5.199   4.432 -0.8334  1.4876  1.7234
  164MOL0     H22137  -0.256   5.214   4.587 -1.4350 -0.3417 -1.4444
  164MOL0     H22138  -0.123   4.805   4.547 -0.2922  0.6637 -1.5180
  164MOL0     H22139   0.065   5.852   4.612  1.0863 -1.7334 -1.3531
  164MOL0     H22140   0.212   5.996   4.751 -1.1760 -0.8792 -1.8874
  165MOL0     O22141   0.688   1.586   4.880  0.2325 -0.5355 -0.4110
  165MOL0     C22142   0.749   1.564   4.771  0.1320  0.4310  0.1920
  165MOL0     O22143   0.734   1.635   4.652  0.4375  0.3394  0.3380
  165MOL0     C22144   0.616   1.717   4.662 -0.1104  0.4947 -0.4198
  165MOL0     C22145   0.609   1.818   4.759  0.2011  0.0033  0.4610
  165MOL0     C22146   0.481   1.875   4.789 -0.9537 -0.1475 -0.7994
  165MOL0     C22147   0.364   1.832   4.708 -0.5406 -0.2374  0.1161
  165MOL0     O22148   0.253   1.899   4.744  0.4174  0.2510 -0.0171
  165MOL0     C22149   0.140   1.892   4.656 -0.1805 -0.3542 -0.4598
  165MOL0     C22150   0.018   1.994   4.661 -0.8824 -0.0865 -0.3425
  165MOL0     C22151  -0.047   2.032   4.523 -0.6698 -0.2964 -0.2307
  165MOL0     C22152  -0.117   1.918   4.474  0.0195  0.0755  0.4696
  165MOL0     C22153  -0.198   1.954   4.342  0.3048  0.2939 -0.3767
  165MOL0     C22154  -0.273   1.838   4.266  0.4883  0.2097 -0.4184
  165MOL0     C22155  -0.342   1.879   4.139 -0.4871  0.5249 -0.3714
  165MOL0     C22156  -0.427   1.772   4.079  0.2088 -0.9220 -0.0408
  165MOL0     N22157  -0.568   1.776   4.114  0.0869  0.0570  0.1887
  165MOL0     C22158  -0.664   1.793   4.013 -0.2974  1.0141 -0.4119
  165MOL0     C22159  -0.780   1.783   4.082  0.9238 -0.7303  0.2706
  165MOL0     C22160  -0.920   1.820   4.030  0.0345  0.6210 -0.1433
  165MOL0     C22161  -0.992   1.702   3.970  0.6264 -0.3025  0.4772
  165MOL0     C22162  -1.120   1.747   3.897  0.2106 -0.1882  0.2595
  165MOL0     C22163  -1.186   1.639   3.807 -0.1509  0.6105 -0.1994
  165MOL0     O22164  -1.307   1.679   3.751 -0.6110 -0.0593  0.2570
  165MOL0     C22165  -1.348   1.648   3.619 -0.1306  0.0252  0.3907
  165MOL0     C22166  -1.441   1.731   3.552 -0.9291  0.0947  0.4492
  165MOL0     C22167  -1.481   1.706   3.418  0.2825 -0.7334  0.0699
  165MOL0     C22168  -1.579   1.810   3.359  0.8918 -0.5132 -0.3228
  165MOL0     C22169  -1.441   1.590   3.351 -0.5099 -0.3340 -1.0052
  165MOL0     C22170  -1.493   1.557   3.211 -0.0823 -0.2951 -0.7996
  165MOL0     O22171  -1.525   1.649   3.122  0.0444 -0.5265 -0.4283
  165MOL0     C22172  -1.582   1.621   2.998 -0.5409  0.1259 -0.4068
  165MOL0     C22173  -1.593   1.732   2.909 -0.5810  0.4067  0.1867
  165MOL0     C22174  -1.670   1.723   2.793 -1.1909 -0.3802 -0.2693
  165MOL0     C22175  -1.731   1.605   2.759  0.4506 -0.3355 -0.0110
  165MOL0     O22176  -1.803   1.610   2.640  0.0568 -0.4202 -1.3221
  165MOL0     C22177  -1.805   1.491   2.563 -0.2618  0.3413 -0.3028
  165MOL0     C22178  -1.854   1.512   2.426  0.2100  1.3802  0.1718
  165MOL0     C22179  -1.870   1.381   2.353 -0.2437 -1.3893  0.8553
  165MOL0     C22180  -1.960   1.400   2.228 -0.8696  0.6978  0.1724
  165MOL0     C22181  -1.958   1.267   2.153 -0.6457  0.3054  0.7018
  165MOL0     C22182  -2.037   1.278   2.026 -1.1942 -0.6478 -0.4581
  165MOL0     C22183  -2.027   1.136   1.961  0.6292 -0.8976  0.5309
  165MOL0     C22184  -2.109   1.125   1.833  0.9533 -0.3671  1.1799
  165MOL0    Cl22185  -2.133   0.942   1.782 -0.3043  0.0551 -0.2316
  165MOL0     C22186  -1.722   1.495   2.843  0.5435  0.7995 -0.2977
  165MOL0     C22187  -1.642   1.497   2.958 -0.5452 -0.5628 -0.0356
  165MOL0     O22188  -1.472   1.441   3.190  0.8058 -0.2518  0.3118
  165MOL0     C22189  -1.355   1.504   3.410  0.6075  0.9904  0.2402
  165MOL0     C22190  -1.314   1.529   3.550 -0.7185  0.0211  0.1765
  165MOL0     N22191  -0.756   1.751   4.218  0.0853 -0.0823  0.0270
  165MOL0     N22192  -0.627   1.740   4.232 -0.2190  0.8202 -0.1409
  165MOL0     C22193   0.379   1.722   4.621  0.7266  0.0147 -0.0035
  165MOL0     C22194   0.506   1.667   4.590 -0.1475 -1.3928  0.1291
  165MOL0     C22195   0.864   1.470   4.775 -0.0851 -0.3159  0.4540
  165MOL0     C22196   0.941   1.434   4.666  0.7453 -0.3972  0.2001
  165MOL0     C22197   1.054   1.352   4.681  0.3120  0.5538  0.8396
  165MOL0     C22198   1.093   1.297   4.804  0.2366  0.3383  1.1948
  165MOL0     O22199   1.188   1.196   4.821 -0.4030  0.2368 -0.4430
  165MOL0     C22200   1.218   1.129   4.707  0.1911  0.9046 -0.2140
  165MOL0     C22201   1.274   0.987   4.756  0.6168 -0.7477 -1.0054
  165MOL0     C22202   1.373   0.949   4.653  0.1285 -0.1007  0.2864
  165MOL0     C22203   1.395   0.797   4.644  0.8722 -0.5891 -0.4797
  165MOL0     C22204   1.279   0.740   4.580 -0.9702  0.4788  0.0157
  165MOL0     C22205   1.200   0.670   4.524  0.1760 -0.6998  0.3777
  165MOL0     C22206   1.026   1.344   4.910  0.6417 -0.6510 -0.3774
  165MOL0     C22207   0.911   1.416   4.899 -0.6058  0.4205 -0.2163
  165MOL0     H22208   0.696   1.855   4.813 -0.4179  4.0667 -0.9392
  165MOL0     H22209   0.475   1.952   4.865 -1.3345 -0.1418 -0.8371
  165MOL0     H22210   0.173   1.881   4.553  0.1254 -1.3642 -0.2587
  165MOL0     H22211   0.099   1.793   4.678 -0.8880 -0.1328 -0.7602
  165MOL0     H22212  -0.061   1.936   4.709 -0.6880 -1.6328 -1.7999
  165MOL0     H22213   0.032   2.076   4.732 -0.5980 -1.9292  1.8170
  165MOL0     H22214  -0.122   2.112   4.521 -0.8165 -0.3811 -3.9899
  165MOL0     H22215   0.024   2.061   4.445 -1.5289 -5.0720 -3.1688
  165MOL0     H22216  -0.041   1.845   4.443 -0.4929  0.6317 -2.4170
  165MOL0     H22217  -0.185   1.879   4.550 -3.4549 -0.1689 -2.4821
  165MOL0     H22218  -0.277   2.022   4.374  0.3820 -0.1771  0.8914
  165MOL0     H22219  -0.128   2.001   4.273 -0.9381 -0.8499 -2.5371
  165MOL0     H22220  -0.202   1.755   4.255 -1.5454 -1.9316  1.4089
  165MOL0     H22221  -0.353   1.789   4.323 -0.2333  0.5167 -1.1322
  165MOL0     H22222  -0.396   1.969   4.168 -2.3234 -1.2225  2.1494
  165MOL0     H22223  -0.267   1.894   4.061 -1.5606  1.4193 -1.2561
  165MOL0     H22224  -0.390   1.678   4.122  4.2571  1.9070  3.6169
  165MOL0     H22225  -0.416   1.771   3.970 -0.5202  2.6064 -0.2614
  165MOL0     H22226  -0.661   1.815   3.907  0.8667  0.6378 -0.4630
  165MOL0     H22227  -0.975   1.864   4.113 -1.7858 -0.7093 -0.5751
  165MOL0     H22228  -0.913   1.901   3.957 -0.0722  2.4694  1.8277
  165MOL0     H22229  -1.027   1.626   4.041 -1.0385 -2.2988 -2.2682
  165MOL0     H22230  -0.927   1.650   3.900  0.0072  1.8532 -1.8049
  165MOL0     H22231  -1.116   1.838   3.837 -0.4274 -0.5582 -0.3588
  165MOL0     H22232  -1.200   1.767   3.969  1.9956 -1.0270  2.5834
  165MOL0     H22233  -1.198   1.545   3.861 -1.0393  0.8731  0.0627
  165MOL0     H22234  -1.113   1.625   3.726  1.3262  1.9727  0.8293
  165MOL0     H22235  -1.472   1.825   3.598 -1.4722  0.5488 -0.7984
  165MOL0     H22236  -1.584   1.892   3.432  4.5485 -2.1439  2.0542
  165MOL0     H22237  -1.541   1.851   3.266 -0.8633 -1.0358 -1.3172
  165MOL0     H22238  -1.678   1.770   3.336 -0.4226  3.1980 -1.7702
  165MOL0     H22239  -1.561   1.834   2.923 -0.1213  0.2886  0.0243
  165MOL0     H22240  -1.674   1.814   2.735 -0.3362 -0.3565 -0.2984
  165MOL0     H22241  -1.704   1.449   2.552 -0.7116 -0.6761 -0.7280
  165MOL0     H22242  -1.869   1.414   2.607 -0.1429  1.1935  1.4360
  165MOL0     H22243  -1.959   1.539   2.442 -1.8712 -3.3470 -3.2765
  165MOL0     H22244  -1.796   1.581   2.363 -0.3811  0.3127 -1.6093
  165MOL0     H22245  -1.916   1.305   2.417 -0.9685 -0.8540  0.9875
  165MOL0     H22246  -1.773   1.335   2.334 -0.7774 -2.0202 -0.4830
  165MOL0     H22247  -2.061   1.415   2.265 -1.0082 -0.9857  0.5570
  165MOL0     H22248  -1.933   1.484   2.163 -2.0078  1.6973  0.9517
  165MOL0     H22249  -1.986   1.188   2.224  1.7570 -0.9186  0.3856
  165MOL0     H22250  -1.856   1.240   2.123 -1.0436  1.0391 -1.4590
  165MOL0     H22251  -2.141   1.306   2.042 -0.9827  0.7923 -1.4357
  165MOL0     H22252  -1.996   1.357   1.963  3.0508  0.0691  2.7357
  165MOL0     H22253  -2.061   1.061   2.033  0.5792  1.2760  2.9469
  165MOL0     H22254  -1.923   1.107   1.944 -0.0172 -1.5684 -3.1965
  165MOL0     H22255  -2.062   1.178   1.749  1.5347 -4.0347 -1.0669
  165MOL0     H22256  -2.212   1.160   1.834  1.3022  0.7843  0.2906
  165MOL0     H22257  -1.766   1.400   2.816  0.8421  0.7252 -0.5245
  165MOL0     H22258  -1.631   1.404   3.013 -1.0603 -0.9744 -0.6228
  165MOL0     H22259  -1.320   1.407   3.374  2.1636  1.6856 -0.2025
  165MOL0     H22260  -1.254   1.459   3.607  0.6219  1.6384  0.8579
  165MOL0     H22261   0.295   1.682   4.565  0.8075  0.4512 -0.4422
  165MOL0     H22262   0.524   1.583   4.524  0.6382 -2.4295  1.6041
  165MOL0     H22263   0.926   1.485   4.571  0.9491 -0.9032 -0.1063
  165MOL0     H22264   1.114   1.342   4.591  1.7739  0.3642  1.8034
  165MOL0     H22265   1.125   1.107   4.655 -1.1194  2.0122  1.5453
  165MOL0     H22266   1.290   1.192   4.654 -0.0115 -0.6489 -2.4722
  165MOL0     H22267   1.197   0.913   4.780  0.2147  0.4598  1.8003
  165MOL0     H22268   1.333   0.992   4.848 -3.0581 -3.6161  1.7770
  165MOL0     H22269   1.473   0.990   4.670 -0.0296  0.0372  0.9173
  165MOL0     H22270   1.344   0.980   4.552  1.3335 -2.4219 -0.8475
  165MOL0     H22271   1.423   0.761   4.743 -2.6033 -1.0376  0.4739
  165MOL0     H22272   1.481   0.764   4.585 -0.7460 -3.7827 -1.3101
  165MOL0     H22273   1.135   0.606   4.468 -2.4552 -1.3215  3.7807
  165MOL0     H22274   1.033   1.317   5.015 -2.3620  2.4306  0.8109
  165MOL0     H22275   0.850   1.439   4.985 -1.0714  0.6120 -0.5921
  166MOL0     O22276   1.476   2.760   7.359  0.2235  0.3076 -0.3310
  166MOL0     C22277   1.524   2.870   7.394  0.5076 -0.7413 -0.4197
  166MOL0     O22278   1.478   2.994   7.345  0.5014  0.4879  0.4118
  166MOL0     C22279   1.399   2.981   7.242  0.1239 -0.1953  0.4995
  166MOL0     C22280   1.282   3.050   7.251 -0.3183  0.2722 -0.4590
  166MOL0     C22281   1.192   3.059   7.148 -0.0433 -0.5840  0.4642
  166MOL0     C22282   1.225   3.013   7.020  0.7242 -1.0690  1.0781
  166MOL0     O22283   1.148   3.027   6.905 -0.3755  0.1565  0.0590
  166MOL0     C22284   1.094   3.161   6.892  1.0272  0.5264  0.4389
  166MOL0     C22285   1.081   3.179   6.734  0.4442  0.2069 -0.0999
  166MOL0     C22286   0.973   3.277   6.694 -0.4681 -1.2057  0.1215
  166MOL0     C22287   1.035   3.419   6.685 -0.2805  0.1047 -0.2294
  166MOL0     C22288   0.932   3.529   6.715 -0.7828  0.4366 -0.0919
  166MOL0     C22289   0.834   3.549   6.598  0.2087 -0.1341  0.6159
  166MOL0     C22290   0.740   3.669   6.623  0.1280 -0.7471 -0.0027
  166MOL0     C22291   0.622   3.663   6.527  0.4961  0.2843 -0.3167
  166MOL0     N22292   0.513   3.756   6.572 -0.9230 -0.3758  0.4043
  166MOL0     C22293   0.387   3.733   6.617  0.0451  1.1131 -0.2910
  166MOL0     C22294   0.344   3.857   6.653  0.9935 -0.5206  0.7660
  166MOL0     C22295   0.202   3.898   6.698 -0.3451  0.1173  0.4628
  166MOL0     C22296   0.083   3.865   6.605  0.9588  0.4614  1.0545
  166MOL0     C22297  -0.042   3.820   6.688 -0.4250 -0.7024  0.3400
  166MOL0     C22298  -0.155   3.788   6.592  0.1784 -0.4873  0.4702
  166MOL0     O22299  -0.228   3.913   6.591 -0.4855 -0.5327  0.4527
  166MOL0     C22300  -0.367   3.909   6.606 -0.7899  0.5831 -0.0634
  166MOL0     C22301  -0.448   4.013   6.647 -0.1226 -0.2608  0.4003
  166MOL0     C22302  -0.583   3.998   6.674  0.0017 -0.0726  0.4669
  166MOL0     C22303  -0.636   4.129   6.739  0.9841 -0.6766 -0.7320
  166MOL0     C22304  -0.649   3.879   6.648  0.0247  0.1152  0.9451
  166MOL0     C22305  -0.796   3.852   6.684  0.9554  0.0571 -0.5478
  166MOL0     O22306  -0.869   3.958   6.735  0.6648  0.6170 -0.1315
  166MOL0     C22307  -0.978   3.902   6.801 -0.0324  0.0027 -0.0588
  166MOL0     C22308  -0.957   3.840   6.929  0.3073  0.5526  0.2546
  166MOL0     C22309  -1.075   3.787   6.991 -0.2988  0.1448  0.0909
  166MOL0     C22310  -1.208   3.794   6.931 -0.1736  0.4739 -0.5790
  166MOL0     O22311  -1.307   3.735   7.011  0.3743  0.0211 -0.3910
  166MOL0     C22312  -1.425   3.811   7.036  0.4438  0.3387 -0.0249
  166MOL0     C22313  -1.412   3.874   7.167  0.1131 -1.1141  0.2392
  166MOL0     C22314  -1.538   3.954   7.211  0.0374 -0.4299  1.1980
  166MOL0     C22315  -1.577   3.892   7.340 -0.7234 -0.7568  0.0292
  166MOL0     C22316  -1.697   3.963   7.398  0.1287 -0.1002  1.0608
  166MOL0     C22317  -1.727   3.912   7.535  0.5591 -0.3138  0.0640
  166MOL0     C22318  -1.808   4.008   7.616 -0.1655 -0.4921 -0.2138
  166MOL0     C22319  -1.951   3.985   7.601 -0.0706 -0.0845  0.4458
  166MOL0    Cl22320  -1.993   3.815   7.677  0.2036 -0.0040  0.2622
  166MOL0     C22321  -1.222   3.841   6.799  0.2285  0.8406  0.6234
  166MOL0     C22322  -1.109   3.895   6.739  0.2217 -0.7415 -0.2908
  166MOL0     O22323  -0.845   3.746   6.636  0.6899  0.3510  0.4509
  166MOL0     C22324  -0.579   3.770   6.581 -0.9316 -0.8700  0.2054
  166MOL0     C22325  -0.440   3.791   6.571 -0.0228  0.6066 -0.9822
  166MOL0     N22326   0.449   3.942   6.641 -0.1129  1.0091 -0.1391
  166MOL0     N22327   0.542   3.889   6.581 -0.4790  1.0770 -0.4686
  166MOL0     C22328   1.347   2.937   7.009 -0.3289 -0.4082  0.7028
  166MOL0     C22329   1.434   2.923   7.124  0.8957  0.2318  1.0913
  166MOL0     C22330   1.622   2.869   7.505  0.3002  0.3358  0.2035
  166MOL0     C22331   1.638   2.753   7.587 -0.4041 -0.4137 -0.6152
  166MOL0     C22332   1.742   2.744   7.676 -0.9896 -0.0336  0.1617
  166MOL0     C22333   1.826   2.857   7.704 -0.7657  0.2629  0.0098
  166MOL0     O22334   1.934   2.857   7.789 -0.5169 -0.9766 -0.1383
  166MOL0     C22335   1.950   2.755   7.884  0.6637  0.2185 -0.1746
  166MOL0     C22336   2.088   2.733   7.940  0.2079 -0.5948  0.9991
  166MOL0     C22337   2.180   2.862   7.963 -0.6358 -0.2966  0.9448
  166MOL0     C22338   2.117   2.968   8.044 -0.0356  0.2048  0.2867
  166MOL0     C22339   2.093   2.922   8.176 -0.5362 -0.1273 -0.1817
  166MOL0     C22340   2.067   2.858   8.277  0.3203 -0.7834 -0.2628
  166MOL0     C22341   1.819   2.969   7.613 -0.4256  0.0552  0.2303
  166MOL0     C22342   1.715   2.974   7.523 -1.0638 -0.2974 -0.4380
  166MOL0     H22343   1.240   3.098   7.339  2.2051  0.8951  0.5045
  166MOL0     H22344   1.096   3.107   7.154  0.3569 -0.0024  3.4152
  166MOL0     H22345   0.994   3.141   6.931  0.8146 -0.0213 -0.3557
  166MOL0     H22346   1.150   3.244   6.936 -0.1247  0.9339  1.1882
  166MOL0     H22347   1.178   3.209   6.693 -0.1365  3.2479  0.5188
  166MOL0     H22348   1.062   3.084   6.683 -3.1765  2.3086 -3.2233
  166MOL0     H22349   0.949   3.245   6.592 -1.7558  0.5763 -0.1765
  166MOL0     H22350   0.883   3.259   6.752 -1.4392 -2.8064 -1.7750
  166MOL0     H22351   1.119   3.431   6.753 -1.2923  1.5903  0.8389
  166MOL0     H22352   1.065   3.432   6.581  1.5895  1.2576  0.3999
  166MOL0     H22353   0.872   3.511   6.805 -0.1747  0.7224  0.3789
  166MOL0     H22354   0.985   3.625   6.718  0.7181 -0.2173 -2.5397
  166MOL0     H22355   0.891   3.588   6.513  3.0649 -0.1940  2.3623
  166MOL0     H22356   0.781   3.454   6.589  2.2609 -1.3731  1.0054
  166MOL0     H22357   0.691   3.664   6.721 -0.2265 -1.1739 -0.1972
  166MOL0     H22358   0.789   3.766   6.608  0.0166 -0.5770  0.7221
  166MOL0     H22359   0.578   3.563   6.530  4.0430 -1.4259 -0.8446
  166MOL0     H22360   0.649   3.691   6.425 -1.1009  4.6049  0.2198
  166MOL0     H22361   0.330   3.643   6.595 -1.0642  2.3770 -3.0497
  166MOL0     H22362   0.190   3.866   6.802  3.4591 -1.3644  0.6112
  166MOL0     H22363   0.205   4.007   6.706  1.8480  0.1517  0.0558
  166MOL0     H22364   0.111   3.793   6.528 -0.9600 -0.0398  0.7772
  166MOL0     H22365   0.057   3.959   6.556  0.1070  0.0961  0.7947
  166MOL0     H22366  -0.066   3.886   6.772 -0.3997 -3.1541  2.3935
  166MOL0     H22367  -0.012   3.730   6.742 -2.8691 -0.7362  1.7841
  166MOL0     H22368  -0.223   3.712   6.631 -0.9836  1.2071  1.8780
  166MOL0     H22369  -0.117   3.757   6.494  1.7355 -0.0436  0.8991
  166MOL0     H22370  -0.388   4.097   6.681  3.1495 -1.1773 -2.4688
  166MOL0     H22371  -0.721   4.160   6.678  0.6329 -1.9107 -0.9054
  166MOL0     H22372  -0.686   4.121   6.836 -2.2438  1.0333 -2.0771
  166MOL0     H22373  -0.560   4.206   6.750 -0.7188  0.7987  1.9876
  166MOL0     H22374  -0.865   3.842   6.987  0.9722  0.1799 -0.7640
  166MOL0     H22375  -1.071   3.727   7.081 -2.6651 -0.8736 -0.4272
  166MOL0     H22376  -1.449   3.884   6.959  0.9028 -0.9629 -1.4509
  166MOL0     H22377  -1.511   3.744   7.034 -0.4861  1.3814 -3.9566
  166MOL0     H22378  -1.365   3.806   7.239  0.0585 -2.8658 -1.3027
  166MOL0     H22379  -1.328   3.944   7.158  0.3737 -1.3330  0.9291
  166MOL0     H22380  -1.618   3.944   7.138  0.6678  0.0211  0.4417
  166MOL0     H22381  -1.507   4.059   7.217  0.0334 -0.1284 -2.4015
  166MOL0     H22382  -1.589   3.786   7.315  1.2433 -1.6604  2.4300
  166MOL0     H22383  -1.499   3.897   7.416 -1.5316 -1.7918  0.9637
  166MOL0     H22384  -1.785   3.933   7.341 -0.0387  0.8326  0.7950
  166MOL0     H22385  -1.685   4.072   7.387  2.1589 -0.3603  0.0939
  166MOL0     H22386  -1.780   3.816   7.537 -0.5719  0.2855  1.9580
  166MOL0     H22387  -1.632   3.913   7.590 -1.1142  2.1101  3.2326
  166MOL0     H22388  -1.805   4.110   7.578 -2.6267 -0.1616  0.3097
  166MOL0     H22389  -1.779   4.003   7.721 -0.7190  1.5961  0.0787
  166MOL0     H22390  -1.985   3.993   7.498  1.2934  0.4527  0.0085
  166MOL0     H22391  -2.001   4.065   7.656 -0.4034  0.0636 -0.0670
  166MOL0     H22392  -1.316   3.826   6.747 -0.1050 -2.0653  1.8892
  166MOL0     H22393  -1.123   3.928   6.637 -0.1029 -1.1916 -0.3990
  166MOL0     H22394  -0.629   3.681   6.546 -1.2143 -1.1753  1.3578
  166MOL0     H22395  -0.391   3.711   6.517  0.8802 -0.4814  1.3335
  166MOL0     H22396   1.372   2.905   6.908 -0.4332  0.1381  0.4973
  166MOL0     H22397   1.536   2.885   7.119  0.4335 -0.9313  0.2516
  166MOL0     H22398   1.593   2.655   7.573  3.1613 -2.1552 -0.9708
  166MOL0     H22399   1.747   2.647   7.725 -0.5079 -1.4381 -2.4940
  166MOL0     H22400   1.884   2.786   7.966 -2.2252 -2.1157 -1.4129
  166MOL0     H22401   1.923   2.653   7.856 -0.1703 -0.6497  3.2265
  166MOL0     H22402   2.124   2.661   7.866  1.1681 -1.0343  1.8728
  166MOL0     H22403   2.086   2.687   8.040 -3.0089 -0.1275  1.2611
  166MOL0     H22404   2.205   2.902   7.864 -2.5833 -0.7124  0.2392
  166MOL0     H22405   2.279   2.827   7.995 -0.6641 -2.1123 -0.7031
  166MOL0     H22406   2.030   3.013   7.995  0.0843  0.6328  0.4589
  166MOL0     H22407   2.193   3.047   8.039  1.0264 -0.7183  1.2256
  166MOL0     H22408   2.047   2.796   8.362  4.7546  1.9590  3.2528
  166MOL0     H22409   1.881   3.058   7.611  0.6250 -0.6396 -2.8542
  166MOL0     H22410   1.691   3.063   7.466  0.7198 -0.1120 -0.9522
  167MOL0     O22411   1.551   9.962  11.187  0.0612  0.4781  0.5183
  167MOL0     C22412   1.601  10.024  11.099  0.6324 -0.0584 -0.7475
  167MOL0     O22413   1.653  10.148  11.111 -0.4112 -0.1939  0.6830
  167MOL0     C22414   1.657  10.207  11.238  0.5104  0.0405 -0.5992
  167MOL0     C22415   1.695  10.140  11.353 -0.8688  0.6612 -0.0655
  167MOL0     C22416   1.694  10.193  11.481 -0.2179  0.4625  0.1529
  167MOL0     C22417   1.651  10.320  11.499 -0.0494  0.1673 -0.6125
  167MOL0     O22418   1.653  10.399  11.617  0.2759  0.1618 -0.1588
  167MOL0     C22419   1.717  10.340  11.732  0.0814  0.3198  0.1486
  167MOL0     C22420   1.602  10.294  11.827 -0.1571 -0.0524 -1.2064
  167MOL0     C22421   1.495  10.400  11.855  0.6168  0.9170 -0.2318
  167MOL0     C22422   1.388  10.414  11.745 -1.1621  1.1341 -0.2951
  167MOL0     C22423   1.253  10.341  11.759 -0.3564  0.1596 -0.1834
  167MOL0     C22424   1.153  10.362  11.882 -0.3520  0.1850  0.4131
  167MOL0     C22425   1.126  10.509  11.908  0.3645  0.4753 -0.5213
  167MOL0     C22426   1.183  10.545  12.041 -0.1420  0.9593 -0.7410
  167MOL0     N22427   1.166  10.688  12.081  0.0201 -0.2039  0.4678
  167MOL0     C22428   1.063  10.771  12.051 -0.4596  0.0768 -0.0780
  167MOL0     C22429   1.097  10.886  12.109  0.5401 -0.5732 -1.3142
  167MOL0     C22430   1.013  11.016  12.102  0.6906 -0.5457  0.2654
  167MOL0     C22431   1.083  11.120  12.015 -0.5261  0.2694  1.1954
  167MOL0     C22432   1.023  11.131  11.866  0.3518  0.1927 -0.0219
  167MOL0     C22433   1.057  11.011  11.784 -0.1218  0.8151 -0.0264
  167MOL0     O22434   1.072  11.058  11.645 -0.8057 -0.0566 -0.1610
  167MOL0     C22435   1.122  10.970  11.550 -1.1380  0.6578 -0.8058
  167MOL0     C22436   1.129  11.006  11.416 -0.2220  0.6228  0.7846
  167MOL0     C22437   1.189  10.929  11.314 -0.6765  0.0523  0.0876
  167MOL0     C22438   1.158  10.965  11.175  0.4358 -1.1439 -0.3532
  167MOL0     C22439   1.229  10.794  11.344 -0.3186  0.0949  0.6571
  167MOL0     C22440   1.291  10.706  11.242 -0.0883  0.1980 -0.4953
  167MOL0     O22441   1.214  10.669  11.133 -0.9912 -0.1924 -1.3225
  167MOL0     C22442   1.249  10.551  11.072  0.1479  0.1431  0.5664
  167MOL0     C22443   1.288  10.433  11.132 -0.8318 -0.6582  0.1038
  167MOL0     C22444   1.294  10.320  11.054  0.1792 -0.2878  0.6181
  167MOL0     C22445   1.275  10.321  10.917 -0.2619 -0.1429  0.6964
  167MOL0     O22446   1.300  10.207  10.844 -0.2435  0.1116 -0.1304
  167MOL0     C22447   1.213  10.187  10.725 -0.5788  0.1497 -0.1574
  167MOL0     C22448   1.286  10.086  10.642 -0.0006 -0.1022 -0.8845
  167MOL0     C22449   1.200  10.073  10.509 -0.2305 -1.0439 -0.1444
  167MOL0     C22450   1.280   9.990  10.414  0.6438 -1.0864  0.1727
  167MOL0     C22451   1.337  10.058  10.288  0.3154 -0.5269 -0.7036
  167MOL0     C22452   1.232  10.084  10.189  0.1861  0.2838  0.1587
  167MOL0     C22453   1.277  10.161  10.068  0.3889 -1.2098  0.4104
  167MOL0     C22454   1.262  10.315  10.082 -0.9001  0.0607 -0.8884
  167MOL0    Cl22455   1.313  10.402   9.935 -0.1058  0.0489  0.3992
  167MOL0     C22456   1.241  10.439  10.854  1.1853 -0.3640 -0.1736
  167MOL0     C22457   1.235  10.551  10.928 -0.1725  0.7329 -0.5452
  167MOL0     O22458   1.407  10.691  11.262  0.2775  0.5134 -0.9386
  167MOL0     C22459   1.220  10.758  11.482 -0.8454  0.4518 -0.0798
  167MOL0     C22460   1.170  10.845  11.575  1.2804 -0.0272 -0.8149
  167MOL0     N22461   1.219  10.860  12.180  0.7088 -0.1619 -0.5288
  167MOL0     N22462   1.263  10.748  12.152 -0.3827 -0.5900 -0.3509
  167MOL0     C22463   1.616  10.392  11.388 -0.5795  0.7227 -0.5927
  167MOL0     C22464   1.621  10.336  11.257  0.8916 -0.6046  0.0299
  167MOL0     C22465   1.599   9.960  10.966  0.8148  0.2826 -0.5637
  167MOL0     C22466   1.678  10.000  10.857  0.1884  0.0408 -0.1415
  167MOL0     C22467   1.655   9.949  10.730  0.0918  0.1148 -0.5964
  167MOL0     C22468   1.568   9.840  10.706 -0.2582  1.2152 -0.1595
  167MOL0     O22469   1.561   9.793  10.580 -0.5188  0.3601 -0.1274
  167MOL0     C22470   1.472   9.683  10.564  0.4319  0.7267 -0.0850
  167MOL0     C22471   1.483   9.649  10.408  0.1268  0.0190  1.4617
  167MOL0     C22472   1.379   9.552  10.350  0.6603 -0.3792 -0.3026
  167MOL0     C22473   1.419   9.512  10.204  0.1040 -0.3994 -0.8207
  167MOL0     C22474   1.551   9.456  10.184 -0.2690  0.5023 -0.3257
  167MOL0     C22475   1.671   9.428  10.162  1.0247 -0.5699 -0.5477
  167MOL0     C22476   1.502   9.791  10.817 -0.6544  0.0837 -0.1948
  167MOL0     C22477   1.500   9.857  10.938 -0.2025  0.1071  0.6723
  167MOL0     H22478   1.723  10.036  11.343 -2.8318  0.2502 -2.5435
  167MOL0     H22479   1.711  10.121  11.560 -1.9342  0.1175  0.2442
  167MOL0     H22480   1.776  10.251  11.707 -1.3334 -0.5794 -0.1200
  167MOL0     H22481   1.781  10.408  11.789 -0.4574  2.4086 -1.6478
  167MOL0     H22482   1.558  10.199  11.794  1.0524 -0.1740 -2.5773
  167MOL0     H22483   1.651  10.260  11.919  0.2156  0.6106 -1.1552
  167MOL0     H22484   1.461  10.393  11.959  0.4247  0.9493 -0.2917
  167MOL0     H22485   1.541  10.499  11.854 -0.9532  1.6775 -2.2070
  167MOL0     H22486   1.359  10.519  11.732 -3.2825  0.3862 -2.4957
  167MOL0     H22487   1.420  10.383  11.645  0.2507  1.4426  0.0502
  167MOL0     H22488   1.201  10.374  11.669  0.5728 -0.5515 -1.0029
  167MOL0     H22489   1.272  10.233  11.756  0.4777  0.2764  0.5788
  167MOL0     H22490   1.063  10.301  11.888 -1.8947  2.4735  2.1926
  167MOL0     H22491   1.216  10.324  11.963  0.9643  1.3990  0.0179
  167MOL0     H22492   1.150  10.583  11.831  0.2413  0.5479 -0.4912
  167MOL0     H22493   1.016  10.511  11.914  0.4071  2.4847  0.3506
  167MOL0     H22494   1.289  10.518  12.044 -0.2199  0.7408  0.2116
  167MOL0     H22495   1.130  10.487  12.117 -0.8633  0.4504 -1.6111
  167MOL0     H22496   0.979  10.763  11.982  1.2308  2.0577 -2.5522
  167MOL0     H22497   0.918  10.988  12.056 -0.6354  0.0598  2.5040
  167MOL0     H22498   1.007  11.049  12.206  0.2613  1.4429 -0.3569
  167MOL0     H22499   1.192  11.111  12.014 -0.2925  1.8557  3.3040
  167MOL0     H22500   1.077  11.219  12.062 -0.1799  1.9288 -2.0141
  167MOL0     H22501   1.082  11.217  11.835  0.9103  0.1831  0.9630
  167MOL0     H22502   0.916  11.153  11.858  0.3533 -0.4290 -2.5511
  167MOL0     H22503   0.982  10.932  11.779  0.9568 -0.2275 -0.3800
  167MOL0     H22504   1.155  10.971  11.814 -0.9647 -1.9512 -0.7012
  167MOL0     H22505   1.088  11.104  11.391  0.3103  0.9847  1.2766
  167MOL0     H22506   1.247  10.945  11.115  1.5430  0.6186  0.6039
  167MOL0     H22507   1.080  10.894  11.147  2.1120 -3.3550  0.3116
  167MOL0     H22508   1.133  11.069  11.152  3.6856 -0.2006 -0.1642
  167MOL0     H22509   1.289  10.430  11.240 -3.5588  1.9167  0.3302
  167MOL0     H22510   1.311  10.223  11.101  0.2526  0.1077  1.4201
  167MOL0     H22511   1.116  10.142  10.748  0.8010 -2.2376  1.4448
  167MOL0     H22512   1.205  10.279  10.666 -1.4590  0.3179  0.2151
  167MOL0     H22513   1.384  10.131  10.620  0.3542  0.6757  1.9007
  167MOL0     H22514   1.288   9.985  10.683 -0.8005  0.0162 -0.5471
  167MOL0     H22515   1.200  10.171  10.460 -0.7278 -1.5680 -1.2096
  167MOL0     H22516   1.096  10.041  10.520 -0.7934  1.3824  4.7129
  167MOL0     H22517   1.366   9.949  10.467  3.2928  1.3635 -1.8809
  167MOL0     H22518   1.217   9.904  10.391 -0.7012 -0.2125  0.4743
  167MOL0     H22519   1.408   9.995  10.235 -1.0726 -1.4421 -1.5217
  167MOL0     H22520   1.382  10.153  10.321 -0.5733 -0.1596 -0.5145
  167MOL0     H22521   1.182   9.991  10.160 -1.0155  0.5103  1.3863
  167MOL0     H22522   1.150  10.144  10.229  0.5769 -0.8914  2.9777
  167MOL0     H22523   1.230  10.151   9.970  2.4913  1.8201 -1.0480
  167MOL0     H22524   1.384  10.150  10.049  0.7601  0.4132  1.3605
  167MOL0     H22525   1.314  10.344  10.174  0.1851  0.6658 -1.6787
  167MOL0     H22526   1.154  10.329  10.092 -0.5950  0.8918  3.1913
  167MOL0     H22527   1.250  10.456  10.747  0.8846  3.7191  0.2666
  167MOL0     H22528   1.224  10.650  10.885  1.7918  0.7297 -1.1567
  167MOL0     H22529   1.235  10.656  11.515  0.1399 -0.1760 -2.2823
  167MOL0     H22530   1.157  10.812  11.677  0.7712  2.4171 -0.0249
  167MOL0     H22531   1.585  10.496  11.389 -1.7559  0.4133 -2.0038
  167MOL0     H22532   1.593  10.405  11.177  3.1063 -0.9918 -1.1664
  167MOL0     H22533   1.755  10.073  10.875 -0.2849  0.5249 -0.0447
  167MOL0     H22534   1.701   9.999  10.645 -2.6186  1.2039 -1.5284
  167MOL0     H22535   1.491   9.588  10.615  0.9631  1.2301  0.6732
  167MOL0     H22536   1.370   9.713  10.589  0.3367  0.2947  0.0581
  167MOL0     H22537   1.585   9.611  10.403 -0.1774 -0.6434 -0.2318
  167MOL0     H22538   1.465   9.741  10.351  0.0603 -0.5849  0.4850
  167MOL0     H22539   1.273   9.578  10.356 -0.4325 -4.4415  1.6441
  167MOL0     H22540   1.387   9.465  10.416 -3.2510  0.3404  1.4009
  167MOL0     H22541   1.407   9.598  10.138 -0.1120 -2.0553 -3.0621
  167MOL0     H22542   1.340   9.447  10.164  1.7673 -1.8079 -1.9918
  167MOL0     H22543   1.775   9.406  10.152  1.5230  1.2773  0.0847
  167MOL0     H22544   1.438   9.703  10.812  0.4627 -0.8236  0.7957
  167MOL0     H22545   1.440   9.832  11.025 -0.4688 -0.3987  0.3413
  168MOL0     O22546   3.480  10.464   7.639  0.0794  0.0063 -0.8985
  168MOL0     C22547   3.557  10.467   7.737 -0.4119  0.0968 -0.0817
  168MOL0     O22548   3.701  10.483   7.728 -0.6885  0.1640 -0.5286
  168MOL0     C22549   3.764  10.490   7.608 -0.4623 -0.3883  0.8833
  168MOL0     C22550   3.793  10.619   7.559  0.6512  0.2186 -0.7167
  168MOL0     C22551   3.865  10.640   7.441  1.1192  1.0557 -1.1094
  168MOL0     C22552   3.891  10.532   7.355  0.6349 -0.3178 -0.6977
  168MOL0     O22553   3.936  10.542   7.229 -0.4205  0.3328 -0.5291
  168MOL0     C22554   3.881  10.454   7.133 -0.4402  0.2082  1.2103
  168MOL0     C22555   3.856  10.535   7.002 -1.0575 -0.0183  0.7507
  168MOL0     C22556   3.979  10.603   6.942  0.0425 -0.3673 -0.1588
  168MOL0     C22557   3.961  10.661   6.808  0.6849 -0.1760  0.0602
  168MOL0     C22558   4.075  10.759   6.763  0.5541 -0.1141  0.5939
  168MOL0     C22559   4.050  10.840   6.634 -0.0480 -0.4622 -0.1143
  168MOL0     C22560   4.181  10.901   6.577 -0.0576  0.4073 -1.4222
  168MOL0     C22561   4.145  10.981   6.458  0.6385 -0.0907  1.0347
  168MOL0     N22562   4.112  10.902   6.334 -0.6003  0.0069 -0.2910
  168MOL0     C22563   3.985  10.860   6.304 -0.3730 -0.1889  0.1219
  168MOL0     C22564   3.990  10.823   6.170  0.2349  0.3459 -0.3768
  168MOL0     C22565   3.877  10.765   6.083  0.1721 -0.9242  0.2088
  168MOL0     C22566   3.864  10.615   6.099 -0.0611 -0.5437  0.4884
  168MOL0     C22567   3.739  10.548   6.037 -0.5288  0.4611 -0.3069
  168MOL0     C22568   3.729  10.396   6.074 -0.2149  0.4251  0.1015
  168MOL0     O22569   3.830  10.330   5.990 -0.3982 -0.3765  0.7358
  168MOL0     C22570   3.813  10.336   5.852 -0.0285 -0.1175 -0.0948
  168MOL0     C22571   3.928  10.356   5.774  0.0180  1.5177  0.1542
  168MOL0     C22572   3.916  10.358   5.629 -0.2327 -0.1471  0.4953
  168MOL0     C22573   4.055  10.373   5.556  0.7224 -0.5522  0.2338
  168MOL0     C22574   3.788  10.333   5.564 -0.7776  0.9821 -0.0021
  168MOL0     C22575   3.763  10.343   5.418  0.1589 -0.6041  0.9325
  168MOL0     O22576   3.865  10.338   5.329  0.3246  0.2761 -0.3691
  168MOL0     C22577   3.850  10.364   5.190 -0.3114 -0.0803  0.0326
  168MOL0     C22578   3.755  10.288   5.116 -0.7000 -0.1647 -0.9243
  168MOL0     C22579   3.751  10.309   4.970  0.5842  0.2671  0.1131
  168MOL0     C22580   3.817  10.411   4.913  0.3416 -0.5368  1.6569
  168MOL0     O22581   3.784  10.423   4.776 -0.3167  0.0873  0.6245
  168MOL0     C22582   3.699  10.532   4.746 -0.3077 -0.9921  0.2959
  168MOL0     C22583   3.669  10.554   4.600  0.0356 -0.2455 -0.7684
  168MOL0     C22584   3.573  10.668   4.584  0.0256 -0.7540 -0.2360
  168MOL0     C22585   3.647  10.803   4.585  0.2168 -0.7080  0.0173
  168MOL0     C22586   3.546  10.908   4.598  0.3086 -1.4085  0.6961
  168MOL0     C22587   3.509  10.954   4.457 -0.1626  0.2574  0.8580
  168MOL0     C22588   3.390  11.040   4.459  0.8229  0.3774  0.3741
  168MOL0     C22589   3.355  11.106   4.320  0.7731  0.1558 -0.9302
  168MOL0    Cl22590   3.357  10.988   4.187  0.3573  0.5098  0.1895
  168MOL0     C22591   3.905  10.484   4.985 -1.2349 -0.3448 -0.4781
  168MOL0     C22592   3.919  10.464   5.129  0.0424  0.0831  0.0202
  168MOL0     O22593   3.645  10.364   5.389  0.2350  0.0844 -0.9748
  168MOL0     C22594   3.681  10.305   5.653  0.2784 -0.2259 -0.6004
  168MOL0     C22595   3.696  10.302   5.790  0.2708  1.2407 -0.3947
  168MOL0     N22596   4.126  10.832   6.135  0.2333 -0.0960 -0.8558
  168MOL0     N22597   4.195  10.890   6.225  0.1996 -0.0833  0.0040
  168MOL0     C22598   3.848  10.405   7.399 -0.0811 -0.1482  0.2721
  168MOL0     C22599   3.789  10.386   7.520 -0.1808  0.6388 -0.2082
  168MOL0     C22600   3.504  10.448   7.875  0.3130  0.1779  0.5250
  168MOL0     C22601   3.589  10.449   7.990  0.0854  0.0949 -0.1798
  168MOL0     C22602   3.533  10.427   8.115  0.3057  0.3622 -0.8968
  168MOL0     C22603   3.396  10.407   8.132 -0.4250 -0.4460 -0.2615
  168MOL0     O22604   3.347  10.407   8.261  0.0928 -0.5663  0.5831
  168MOL0     C22605   3.207  10.395   8.293  0.0701  0.2636  0.2268
  168MOL0     C22606   3.144  10.531   8.275 -0.0308 -1.3698 -0.6531
  168MOL0     C22607   3.221  10.644   8.358 -0.1574 -0.1162 -0.7999
  168MOL0     C22608   3.145  10.772   8.382  0.0226 -0.5371  0.0930
  168MOL0     C22609   3.047  10.783   8.268 -1.5429  0.2523 -0.8323
  168MOL0     C22610   2.954  10.782   8.186  1.1855  0.6150 -0.7235
  168MOL0     C22611   3.314  10.410   8.018 -0.2264 -0.0511 -0.8397
  168MOL0     C22612   3.366  10.425   7.894  0.0892  0.1727  0.0632
  168MOL0     H22613   3.784  10.700   7.629 -3.4719 -2.3389  2.1119
  168MOL0     H22614   3.897  10.741   7.416  0.9399  0.4308 -4.3807
  168MOL0     H22615   3.959  10.381   7.113 -1.0982 -0.0516 -0.5400
  168MOL0     H22616   3.785  10.404   7.153 -2.4764  1.5349 -3.6267
  168MOL0     H22617   3.815  10.463   6.930  3.4901 -3.2600  1.0091
  168MOL0     H22618   3.782  10.610   7.031 -0.2763  1.8391 -1.7151
  168MOL0     H22619   4.016  10.679   7.012  2.6525 -1.7789  0.1038
  168MOL0     H22620   4.065  10.536   6.937  0.2224 -0.0718 -1.1892
  168MOL0     H22621   3.959  10.575   6.740  3.4344  0.2806 -0.7196
  168MOL0     H22622   3.862  10.705   6.794 -0.5946 -3.5803 -3.6707
  168MOL0     H22623   4.082  10.831   6.846  1.6335  2.0106 -1.2153
  168MOL0     H22624   4.172  10.709   6.754  1.3151  1.5650 -1.3154
  168MOL0     H22625   4.008  10.775   6.556 -0.6300 -0.3495  0.1014
  168MOL0     H22626   3.974  10.917   6.650  0.5257  0.3009 -1.0256
  168MOL0     H22627   4.226  10.974   6.644 -1.9946 -1.4579  2.2167
  168MOL0     H22628   4.247  10.815   6.560 -2.8876 -2.4395  0.7530
  168MOL0     H22629   4.237  11.038   6.440  0.3647 -0.1947 -0.9130
  168MOL0     H22630   4.065  11.055   6.472  0.9807  0.5264 -0.0969
  168MOL0     H22631   3.904  10.865   6.376 -0.5892  2.6537 -0.2317
  168MOL0     H22632   3.774  10.798   6.097 -0.3385 -0.1023 -3.9961
  168MOL0     H22633   3.910  10.788   5.981 -4.1826  0.8800 -1.0182
  168MOL0     H22634   3.861  10.595   6.206 -0.6945 -0.2300  0.5379
  168MOL0     H22635   3.952  10.559   6.066 -0.9851 -2.0880  0.5467
  168MOL0     H22636   3.729  10.568   5.930 -0.3009  3.1944  0.1031
  168MOL0     H22637   3.646  10.589   6.077  0.8094  4.2728 -0.7098
  168MOL0     H22638   3.630  10.354   6.052 -0.0718 -0.1365  0.4907
  168MOL0     H22639   3.743  10.360   6.176  0.7523  1.1456  0.2355
  168MOL0     H22640   4.024  10.374   5.820  1.9753  1.5432 -3.5452
  168MOL0     H22641   4.141  10.387   5.623 -0.3178 -1.2780  1.7634
  168MOL0     H22642   4.079  10.285   5.496 -0.4655 -0.5043 -0.3512
  168MOL0     H22643   4.052  10.464   5.494 -1.7010  2.2655  4.0486
  168MOL0     H22644   3.700  10.213   5.173 -2.2546  3.1101  2.3516
  168MOL0     H22645   3.677  10.250   4.918  0.8394  0.2839 -0.2723
  168MOL0     H22646   3.607  10.524   4.804 -3.0005  2.5299 -2.9858
  168MOL0     H22647   3.744  10.628   4.776 -2.0218  0.8335 -2.5658
  168MOL0     H22648   3.751  10.574   4.530 -2.8864 -0.5831 -4.6312
  168MOL0     H22649   3.626  10.457   4.573  3.3114 -2.1419  0.3107
  168MOL0     H22650   3.507  10.657   4.670  4.2296  2.1942  3.9385
  168MOL0     H22651   3.525  10.654   4.487 -1.9512 -0.4670  0.6508
  168MOL0     H22652   3.705  10.809   4.678  2.6438 -1.9693 -1.3061
  168MOL0     H22653   3.719  10.818   4.504 -0.4085 -5.7014 -1.8193
  168MOL0     H22654   3.590  10.995   4.648 -0.3935 -0.8322  0.3304
  168MOL0     H22655   3.457  10.883   4.656 -0.3158 -2.0754 -0.5286
  168MOL0     H22656   3.588  11.002   4.398 -2.8911  1.1214 -2.4405
  168MOL0     H22657   3.478  10.870   4.394 -2.5895  0.2188  1.9763
  168MOL0     H22658   3.406  11.113   4.539 -5.5057  2.6646  0.0968
  168MOL0     H22659   3.303  10.979   4.483  0.3417  0.7222 -0.4846
  168MOL0     H22660   3.426  11.189   4.319  0.6191  0.3075 -0.0455
  168MOL0     H22661   3.256  11.152   4.323  0.6841 -0.0073 -1.3681
  168MOL0     H22662   3.952  10.574   4.946 -1.3350  0.1027  0.3998
  168MOL0     H22663   3.983  10.535   5.181 -2.0311  1.7745  0.4423
  168MOL0     H22664   3.582  10.286   5.615 -0.6716  1.3855  0.9068
  168MOL0     H22665   3.616  10.262   5.851  0.7668 -1.9222 -1.5806
  168MOL0     H22666   3.866  10.317   7.338  2.6166  1.6561 -1.7577
  168MOL0     H22667   3.755  10.288   7.551  2.7405 -0.7403 -0.9742
  168MOL0     H22668   3.693  10.479   7.991  0.9105 -1.8317  5.1589
  168MOL0     H22669   3.593  10.428   8.205 -0.1319 -2.6394 -0.4914
  168MOL0     H22670   3.160  10.321   8.227  2.7329 -1.2422 -0.0957
  168MOL0     H22671   3.191  10.352   8.393 -0.9670 -0.0830 -0.0740
  168MOL0     H22672   3.039  10.530   8.306  0.1318 -0.9555 -0.0661
  168MOL0     H22673   3.138  10.550   8.168  2.2404 -0.2530 -0.6434
  168MOL0     H22674   3.319  10.678   8.325 -0.7930  2.3685 -0.3504
  168MOL0     H22675   3.239  10.606   8.459  0.2256 -1.7825 -1.4661
  168MOL0     H22676   3.210  10.860   8.386  0.1181 -0.5967 -0.1236
  168MOL0     H22677   3.100  10.771   8.481 -0.5961  2.7947 -0.0354
  168MOL0     H22678   2.873  10.787   8.116  0.9726 -4.0860 -1.0969
  168MOL0     H22679   3.209  10.382   8.022 -0.7712  2.0006  2.6371
  168MOL0     H22680   3.292  10.414   7.816 -1.3668  0.5227  1.3389
  169MOL0     O22681   1.200  10.451   3.436  0.1105 -0.2497 -0.8421
  169MOL0     C22682   1.223  10.348   3.503 -0.3101 -1.0504  0.7660
  169MOL0     O22683   1.220  10.222   3.448 -0.3131  0.4720 -0.6719
  169MOL0     C22684   1.230  10.205   3.307 -0.3695 -0.0331  0.3910
  169MOL0     C22685   1.128  10.134   3.245 -0.7406 -0.2634 -0.6539
  169MOL0     C22686   1.154  10.091   3.108 -0.1154  0.2148  0.6201
  169MOL0     C22687   1.272  10.134   3.039  0.9737  0.3038  0.3992
  169MOL0     O22688   1.281  10.089   2.913  0.2577 -0.4618 -0.5996
  169MOL0     C22689   1.338   9.954   2.919  0.6414 -0.0443 -0.4125
  169MOL0     C22690   1.492   9.956   2.940 -0.7075  0.5852  0.2913
  169MOL0     C22691   1.551   9.823   2.899  0.5918 -0.2104  0.2549
  169MOL0     C22692   1.696   9.852   2.894 -0.2209  0.0496 -0.3623
  169MOL0     C22693   1.767   9.735   2.836  0.7288  0.1225  0.5857
  169MOL0     C22694   1.925   9.749   2.853  0.3385  0.5047  0.0250
  169MOL0     C22695   1.966   9.767   2.994 -0.8563 -0.6822 -0.3857
  169MOL0     C22696   2.110   9.725   3.025 -0.6957  0.6670 -0.4638
  169MOL0     N22697   2.213   9.808   2.950 -0.0861 -0.0125  0.0240
  169MOL0     C22698   2.270   9.772   2.831  0.1863  0.2952  0.6440
  169MOL0     C22699   2.330   9.883   2.776 -0.9141 -0.2297  0.0371
  169MOL0     C22700   2.412   9.885   2.646  0.2350 -0.1311  0.1310
  169MOL0     C22701   2.382   9.771   2.545  0.8279 -0.0851  0.9396
  169MOL0     C22702   2.445   9.788   2.411  0.5270 -0.5753 -1.3718
  169MOL0     C22703   2.433   9.657   2.337  0.1929  0.5466  0.3059
  169MOL0     O22704   2.508   9.680   2.216  0.2093 -0.2899  0.7804
  169MOL0     C22705   2.435   9.669   2.097 -0.7750  0.0190  0.3916
  169MOL0     C22706   2.481   9.746   1.986 -0.3270  0.4644  0.1380
  169MOL0     C22707   2.434   9.721   1.855 -0.4978  0.0161 -0.0802
  169MOL0     C22708   2.490   9.812   1.754 -0.7794 -0.7205  0.1768
  169MOL0     C22709   2.340   9.609   1.842 -0.2883  0.6200 -0.4486
  169MOL0     C22710   2.274   9.591   1.705 -0.1256 -0.1657 -0.0976
  169MOL0     O22711   2.191   9.482   1.684 -0.7057  0.2500  0.1941
  169MOL0     C22712   2.128   9.459   1.561 -0.0866 -0.2845  0.1725
  169MOL0     C22713   1.989   9.454   1.562  0.3756 -0.0123 -0.2576
  169MOL0     C22714   1.907   9.427   1.455  0.4853 -0.4970  0.1532
  169MOL0     C22715   1.969   9.409   1.325  0.3233  0.2799 -0.1572
  169MOL0     O22716   1.888   9.368   1.226  0.9087  0.1323 -0.8473
  169MOL0     C22717   1.923   9.399   1.090 -0.3195  0.6491 -0.1237
  169MOL0     C22718   1.810   9.374   0.990  0.4707 -0.2384 -0.1207
  169MOL0     C22719   1.830   9.405   0.846 -0.2769 -0.0931  1.4112
  169MOL0     C22720   1.933   9.313   0.779  0.6806 -0.4541  0.4052
  169MOL0     C22721   1.971   9.376   0.644  0.3708 -0.2558  0.0990
  169MOL0     C22722   2.108   9.336   0.587 -0.4871  0.8205  0.5324
  169MOL0     C22723   2.125   9.181   0.576 -0.6947 -0.6773 -0.1456
  169MOL0     C22724   2.231   9.128   0.472  0.4467  0.5828 -0.5614
  169MOL0    Cl22725   2.218   8.956   0.507  0.0942  0.8679  0.2425
  169MOL0     C22726   2.116   9.416   1.314  0.1483  0.0597  1.0109
  169MOL0     C22727   2.189   9.436   1.432  1.0202  0.2303 -0.1563
  169MOL0     O22728   2.281   9.688   1.635  0.3731 -0.4977 -0.1499
  169MOL0     C22729   2.293   9.533   1.950 -0.4777  0.1539  0.4125
  169MOL0     C22730   2.346   9.563   2.078  0.4288 -0.6898  0.2220
  169MOL0     N22731   2.304   9.983   2.872  0.1807 -0.4269  0.5891
  169MOL0     N22732   2.230   9.939   2.968  0.1354  1.0435  0.9392
  169MOL0     C22733   1.360  10.218   3.102  0.8582 -0.6166 -1.4859
  169MOL0     C22734   1.339  10.252   3.237 -0.3230  0.3913 -1.1168
  169MOL0     C22735   1.244  10.366   3.648  0.2176 -0.2883 -0.7751
  169MOL0     C22736   1.285  10.491   3.702  0.5329 -0.0349  0.0359
  169MOL0     C22737   1.337  10.501   3.839  0.9291 -0.3816 -0.3370
  169MOL0     C22738   1.317  10.391   3.920  0.2003  0.2743  0.7535
  169MOL0     O22739   1.366  10.389   4.039  0.5336  0.5606  0.0360
  169MOL0     C22740   1.293  10.459   4.134 -0.0759 -0.0547 -0.6284
  169MOL0     C22741   1.169  10.370   4.183  0.3799 -0.1725  0.1276
  169MOL0     C22742   1.225  10.232   4.240 -0.5592  0.9128 -0.9016
  169MOL0     C22743   1.219  10.233   4.394  0.5918 -0.3369 -0.5855
  169MOL0     C22744   1.295  10.347   4.450  0.1289 -0.0016  0.1807
  169MOL0     C22745   1.341  10.449   4.501 -0.4371  0.2292 -0.1877
  169MOL0     C22746   1.256  10.272   3.873 -0.2042 -0.2114  1.3671
  169MOL0     C22747   1.219  10.261   3.738 -0.0843 -0.2503  0.8244
  169MOL0     H22748   1.050  10.093   3.309  1.6203 -2.0896  1.2751
  169MOL0     H22749   1.083  10.031   3.052 -2.6425  3.1624  0.4293
  169MOL0     H22750   1.299   9.890   2.998 -3.0696 -0.8525 -2.6742
  169MOL0     H22751   1.321   9.920   2.816  1.7307 -0.3576 -0.5005
  169MOL0     H22752   1.520  10.048   2.888 -0.2582  0.2619 -0.0533
  169MOL0     H22753   1.518   9.974   3.044  1.6054 -1.0112  0.0677
  169MOL0     H22754   1.536   9.762   2.988 -0.8995  3.6324  2.8894
  169MOL0     H22755   1.491   9.790   2.814 -1.7131  2.4124  0.7104
  169MOL0     H22756   1.713   9.927   2.816  1.2315 -0.3513 -0.4709
  169MOL0     H22757   1.745   9.891   2.983  4.2132 -0.5692 -2.2715
  169MOL0     H22758   1.724   9.653   2.895 -1.5082 -0.1216 -1.2134
  169MOL0     H22759   1.744   9.710   2.732  1.2499  0.6019  0.3539
  169MOL0     H22760   1.971   9.657   2.816  1.1758  0.2588  1.5871
  169MOL0     H22761   1.952   9.825   2.780 -2.7246  0.6937 -1.0569
  169MOL0     H22762   1.963   9.874   3.016  0.4368 -0.5496 -0.7479
  169MOL0     H22763   1.899   9.712   3.060 -1.5441 -1.2657 -1.5394
  169MOL0     H22764   2.129   9.621   2.996  2.8534  0.5144  1.8095
  169MOL0     H22765   2.137   9.730   3.131  0.7155 -1.1638 -0.6876
  169MOL0     H22766   2.265   9.679   2.774 -3.4783 -1.1834  3.0042
  169MOL0     H22767   2.369   9.977   2.605  0.5091  1.6265  3.4224
  169MOL0     H22768   2.520   9.892   2.656  0.8596 -2.0788 -3.3896
  169MOL0     H22769   2.274   9.767   2.529  0.3760  0.2849  3.5295
  169MOL0     H22770   2.406   9.681   2.603 -0.9429  0.2557  2.2919
  169MOL0     H22771   2.549   9.803   2.441  0.1451 -0.2734 -0.1499
  169MOL0     H22772   2.409   9.874   2.353  1.4864  1.4818  0.9105
  169MOL0     H22773   2.328   9.633   2.319  1.0159 -1.1545 -2.8217
  169MOL0     H22774   2.479   9.572   2.387 -2.4258 -1.0184  0.2355
  169MOL0     H22775   2.552   9.826   2.007 -1.9326  2.0181 -0.1451
  169MOL0     H22776   2.418   9.894   1.753  0.0660  0.0321 -0.8016
  169MOL0     H22777   2.589   9.840   1.792 -1.3829  1.4307  0.2527
  169MOL0     H22778   2.493   9.755   1.660 -3.6319 -3.4181  1.5275
  169MOL0     H22779   1.936   9.476   1.654  0.5529  3.9326 -0.8944
  169MOL0     H22780   1.799   9.422   1.458  0.3374  1.8597  2.6834
  169MOL0     H22781   1.962   9.501   1.082  0.7302  0.6029  3.1015
  169MOL0     H22782   2.009   9.334   1.067  0.6739  1.4182  1.3014
  169MOL0     H22783   1.769   9.274   1.005 -2.1927  0.8841  0.6902
  169MOL0     H22784   1.732   9.446   1.018  1.5599  0.5654  0.9435
  169MOL0     H22785   1.857   9.511   0.842  1.0617 -0.4136  1.3048
  169MOL0     H22786   1.736   9.387   0.793 -0.1019  1.5500  0.4828
  169MOL0     H22787   2.021   9.304   0.844  0.2895 -1.3614  0.8313
  169MOL0     H22788   1.890   9.213   0.766 -0.6851 -0.4088  3.4850
  169MOL0     H22789   1.982   9.485   0.653  1.3486 -0.4685  1.9287
  169MOL0     H22790   1.889   9.365   0.572 -1.6770  0.6753  2.1809
  169MOL0     H22791   2.106   9.367   0.482 -0.7744 -2.5589 -0.6079
  169MOL0     H22792   2.181   9.392   0.646 -1.8152  1.1257  1.9291
  169MOL0     H22793   2.026   9.138   0.560 -1.9707  2.1771 -0.5750
  169MOL0     H22794   2.156   9.150   0.676  0.2922  1.7644  0.3870
  169MOL0     H22795   2.331   9.169   0.493 -0.2023  2.6945 -1.3628
  169MOL0     H22796   2.212   9.150   0.367  0.5656  0.0494 -0.6989
  169MOL0     H22797   2.159   9.387   1.218 -1.1097 -0.5048  0.5963
  169MOL0     H22798   2.298   9.442   1.433  1.0267  0.1857  1.3002
  169MOL0     H22799   2.223   9.452   1.933 -0.3572  0.4181 -1.6118
  169MOL0     H22800   2.312   9.502   2.161 -2.0936 -0.3919 -0.4986
  169MOL0     H22801   1.450  10.258   3.056  0.2731 -0.4373 -2.5076
  169MOL0     H22802   1.417  10.301   3.294 -2.6295 -0.4089  3.1810
  169MOL0     H22803   1.300  10.582   3.645  1.3134  0.4242  0.9501
  169MOL0     H22804   1.379  10.591   3.882 -1.6353  0.7634 -0.0968
  169MOL0     H22805   1.356  10.483   4.221  2.7922  0.1612 -2.6124
  169MOL0     H22806   1.270  10.560   4.097  0.7694 -0.1431 -1.4377
  169MOL0     H22807   1.097  10.357   4.102 -0.9462  1.1048  1.0471
  169MOL0     H22808   1.109  10.435   4.247  0.0208  1.4036 -1.6987
  169MOL0     H22809   1.328  10.216   4.207 -0.4547 -0.2781 -0.0758
  169MOL0     H22810   1.160  10.150   4.209  1.9276 -1.7522  0.3860
  169MOL0     H22811   1.261  10.137   4.425  2.9584  0.6758 -0.4841
  169MOL0     H22812   1.117  10.230   4.433  0.5737  1.4447 -0.4193
  169MOL0     H22813   1.375  10.547   4.526 -0.8721  1.1807 -2.9945
  169MOL0     H22814   1.245  10.180   3.929  3.8235 -2.6464 -1.2609
  169MOL0     H22815   1.181  10.170   3.694  0.0161 -0.8025  1.8346
  170MOL0     O22816   6.909   8.971   4.239 -0.1156 -0.7042 -0.1433
  170MOL0     C22817   6.835   8.896   4.309 -0.4313 -0.4095 -0.1233
  170MOL0     O22818   6.740   8.817   4.259  0.3874 -0.7503 -0.0882
  170MOL0     C22819   6.746   8.779   4.129  0.0266 -0.4689  0.4757
  170MOL0     C22820   6.863   8.713   4.081  0.0945 -0.4965  0.4824
  170MOL0     C22821   6.871   8.688   3.937  0.0751  0.3399  0.2254
  170MOL0     C22822   6.770   8.723   3.846  0.1437  0.2748  0.0275
  170MOL0     O22823   6.793   8.698   3.710  0.0843 -0.3634 -0.9065
  170MOL0     C22824   6.695   8.716   3.603 -0.1927 -0.8003  0.1618
  170MOL0     C22825   6.748   8.639   3.483 -0.2913  0.6782  1.0535
  170MOL0     C22826   6.777   8.736   3.367  0.0975  0.2249  1.1075
  170MOL0     C22827   6.795   8.652   3.241 -0.0047  0.0386 -0.9041
  170MOL0     C22828   6.846   8.744   3.125  0.4060  0.3286 -0.7183
  170MOL0     C22829   6.993   8.730   3.081  0.0786 -0.9238  0.0750
  170MOL0     C22830   7.037   8.819   2.966  0.5806  0.5618 -0.3769
  170MOL0     C22831   6.951   8.840   2.854 -0.3554 -0.1856 -0.6110
  170MOL0     N22832   6.971   8.962   2.771  0.4118  0.4373  0.3248
  170MOL0     C22833   7.084   8.988   2.687 -0.1228  0.3583 -0.2628
  170MOL0     C22834   7.062   9.110   2.631  0.6101 -0.1428  0.7102
  170MOL0     C22835   7.174   9.172   2.545  1.1079 -1.0242 -0.6817
  170MOL0     C22836   7.115   9.290   2.457 -0.6510  0.3504 -0.4802
  170MOL0     C22837   7.033   9.241   2.341  0.3686  0.0424  0.8258
  170MOL0     C22838   7.012   9.337   2.226  0.3531 -0.2442  0.7838
  170MOL0     O22839   6.908   9.275   2.142 -0.3572 -0.7009 -1.1317
  170MOL0     C22840   6.858   9.341   2.037 -0.0864 -0.5560  0.4666
  170MOL0     C22841   6.914   9.460   1.998 -0.0053 -0.6885  0.2285
  170MOL0     C22842   6.865   9.526   1.881 -0.1139 -1.0731  0.0711
  170MOL0     C22843   6.945   9.658   1.853 -1.2293 -0.5483  0.2990
  170MOL0     C22844   6.753   9.471   1.806 -0.6742  0.3999 -0.4664
  170MOL0     C22845   6.700   9.528   1.679  0.7581  0.9848 -0.4156
  170MOL0     O22846   6.607   9.453   1.605 -0.6102  0.2906 -0.3740
  170MOL0     C22847   6.561   9.502   1.490  0.3369  1.1050  0.4524
  170MOL0     C22848   6.553   9.397   1.394  0.0097  0.6370  0.3149
  170MOL0     C22849   6.495   9.430   1.270  0.4197 -0.2586  0.2162
  170MOL0     C22850   6.437   9.556   1.249 -0.2992 -0.3341  0.3031
  170MOL0     O22851   6.380   9.571   1.125  0.4226  0.2672 -0.1928
  170MOL0     C22852   6.269   9.652   1.103  0.3703  0.1478 -0.5447
  170MOL0     C22853   6.227   9.643   0.960  0.9539  0.0205 -0.0935
  170MOL0     C22854   6.183   9.496   0.933 -0.1666 -0.9184 -0.8488
  170MOL0     C22855   6.069   9.502   0.829 -0.1926  0.3287 -0.2462
  170MOL0     C22856   6.106   9.527   0.679 -0.3764 -0.1710  0.4424
  170MOL0     C22857   6.115   9.671   0.638 -0.1956  0.1855 -0.6857
  170MOL0     C22858   6.210   9.683   0.525 -0.4539 -0.2808 -0.7565
  170MOL0     C22859   6.145   9.651   0.389 -0.5874 -0.4429  0.7085
  170MOL0    Cl22860   6.272   9.671   0.269  0.0213 -0.5671 -0.0089
  170MOL0     C22861   6.441   9.654   1.353  0.2731 -0.1220 -0.0500
  170MOL0     C22862   6.509   9.634   1.469 -0.3442  0.7302  0.1929
  170MOL0     O22863   6.741   9.636   1.638  0.6743 -0.7464  0.5476
  170MOL0     C22864   6.689   9.359   1.869  1.1539  0.3518 -1.5162
  170MOL0     C22865   6.739   9.293   1.979  0.1458 -0.1642 -0.0444
  170MOL0     N22866   6.939   9.152   2.679  0.2204 -0.0163 -0.4114
  170MOL0     N22867   6.890   9.073   2.770 -0.4806  0.2352 -0.0272
  170MOL0     C22868   6.652   8.787   3.900 -0.1391 -0.5247  0.1214
  170MOL0     C22869   6.644   8.819   4.036 -1.1225  0.7610 -0.1945
  170MOL0     C22870   6.827   8.937   4.452  0.4481  0.0427  0.6815
  170MOL0     C22871   6.715   8.882   4.523 -0.6667  0.1834 -0.4411
  170MOL0     C22872   6.709   8.914   4.656 -1.1152  0.4290  0.2724
  170MOL0     C22873   6.800   8.995   4.720 -0.2962  0.2253  0.8325
  170MOL0     O22874   6.793   9.014   4.859 -0.0091  0.9674  0.2495
  170MOL0     C22875   6.909   8.999   4.931 -0.0239 -0.3064 -0.1153
  170MOL0     C22876   6.878   9.030   5.087  0.2103  0.3211 -0.3205
  170MOL0     C22877   6.753   8.972   5.144  0.0602 -0.5826  0.6812
  170MOL0     C22878   6.712   9.039   5.275  0.3182  0.1228  0.2762
  170MOL0     C22879   6.821   9.037   5.373 -0.0390  0.2274 -0.0426
  170MOL0     C22880   6.926   9.020   5.434  0.3566  0.2401  0.5344
  170MOL0     C22881   6.898   9.054   4.642 -0.5353 -0.3605 -0.1060
  170MOL0     C22882   6.916   9.028   4.510 -0.1305  0.0958  0.7622
  170MOL0     H22883   6.945   8.698   4.151  1.3533 -1.6782 -1.1674
  170MOL0     H22884   6.964   8.644   3.903  0.0563 -1.0205  1.8478
  170MOL0     H22885   6.598   8.677   3.636 -0.8227  2.4586  2.7528
  170MOL0     H22886   6.672   8.821   3.580  0.3200 -0.5222  0.8750
  170MOL0     H22887   6.843   8.589   3.501  1.3067  3.0253 -0.2777
  170MOL0     H22888   6.674   8.562   3.456  0.7404  0.4259 -1.3493
  170MOL0     H22889   6.699   8.812   3.352 -1.2011 -0.5902  3.3428
  170MOL0     H22890   6.865   8.794   3.393  0.5335  0.8429 -1.4626
  170MOL0     H22891   6.861   8.565   3.249  0.7733  0.6907 -0.0457
  170MOL0     H22892   6.698   8.609   3.213 -2.3153  3.3576  1.3995
  170MOL0     H22893   6.786   8.720   3.036  1.9728 -2.0773 -1.2150
  170MOL0     H22894   6.812   8.845   3.148 -0.8299  0.6249 -3.4271
  170MOL0     H22895   7.066   8.741   3.162 -1.2029  1.0603  1.0287
  170MOL0     H22896   7.000   8.628   3.041 -3.0442 -1.1780 -0.0122
  170MOL0     H22897   7.055   8.916   3.014  2.1051 -0.5641  1.4718
  170MOL0     H22898   7.134   8.803   2.918 -0.9110  0.8223 -3.6963
  170MOL0     H22899   6.853   8.859   2.899  0.7758  0.1085  1.8858
  170MOL0     H22900   6.952   8.750   2.792 -5.1362 -1.2436  0.4200
  170MOL0     H22901   7.163   8.916   2.669  1.8755  2.8897 -2.5621
  170MOL0     H22902   7.247   9.215   2.614  2.8943 -1.6067 -2.1283
  170MOL0     H22903   7.229   9.103   2.481  1.6975 -0.1995 -1.0756
  170MOL0     H22904   7.202   9.341   2.416  1.0614 -0.8230  1.5007
  170MOL0     H22905   7.056   9.356   2.522 -1.4041 -1.4821  0.7965
  170MOL0     H22906   6.937   9.191   2.357  1.9943 -5.4434 -3.3204
  170MOL0     H22907   7.099   9.172   2.287  1.1761  0.9662  0.6173
  170MOL0     H22908   7.101   9.359   2.165 -2.6293  5.2539 -2.3711
  170MOL0     H22909   6.966   9.421   2.278 -1.1339 -3.3731  5.1412
  170MOL0     H22910   7.006   9.502   2.036  0.4233  0.2599 -1.7193
  170MOL0     H22911   7.041   9.639   1.806 -1.5690 -0.0057 -0.6268
  170MOL0     H22912   6.890   9.735   1.799  2.5890  2.4656  0.2790
  170MOL0     H22913   6.965   9.695   1.955 -0.3901 -3.0806  1.1257
  170MOL0     H22914   6.577   9.291   1.403 -0.6998  0.5770  1.9059
  170MOL0     H22915   6.497   9.360   1.188  7.0389  0.6380 -0.9733
  170MOL0     H22916   6.190   9.621   1.172  2.0035  0.2539  1.4654
  170MOL0     H22917   6.295   9.756   1.126 -0.9594  0.7327 -1.5649
  170MOL0     H22918   6.140   9.710   0.958  1.5881  0.8668  0.1410
  170MOL0     H22919   6.314   9.670   0.899  1.4846 -1.3415  0.0340
  170MOL0     H22920   6.143   9.450   1.024 -1.9303 -1.5783 -1.9015
  170MOL0     H22921   6.274   9.451   0.894  0.8179  0.6685 -0.4803
  170MOL0     H22922   6.016   9.407   0.837 -1.4481  1.1269  1.5281
  170MOL0     H22923   6.000   9.585   0.851  0.8455  1.7734 -2.0532
  170MOL0     H22924   6.030   9.480   0.616 -0.9551  2.6613 -1.1045
  170MOL0     H22925   6.200   9.472   0.667  0.0536  0.8131 -0.9267
  170MOL0     H22926   6.020   9.713   0.604 -0.4216 -2.0009 -3.1549
  170MOL0     H22927   6.152   9.732   0.721  0.5478  0.9981 -1.5810
  170MOL0     H22928   6.305   9.636   0.551  0.7848  3.9515  4.2080
  170MOL0     H22929   6.251   9.785   0.527  1.2616 -0.9422  0.3769
  170MOL0     H22930   6.068   9.729   0.384 -0.2072  0.2683  3.6784
  170MOL0     H22931   6.106   9.549   0.400  0.3244 -0.9368 -0.5492
  170MOL0     H22932   6.394   9.750   1.340 -0.5401  0.0321  3.1455
  170MOL0     H22933   6.520   9.704   1.552  3.9584 -0.1964  0.6372
  170MOL0     H22934   6.604   9.305   1.828  0.8255  0.8691 -1.5190
  170MOL0     H22935   6.692   9.204   2.021  0.7295  1.1568  3.7540
  170MOL0     H22936   6.575   8.790   3.823 -2.7718 -4.0633  2.3399
  170MOL0     H22937   6.563   8.880   4.076 -2.0432 -2.5022  3.6606
  170MOL0     H22938   6.645   8.811   4.479 -0.8012 -0.3427  0.5718
  170MOL0     H22939   6.626   8.884   4.720 -1.0873  0.5056  0.3451
  170MOL0     H22940   6.947   8.896   4.924 -0.4091 -0.6997  2.4176
  170MOL0     H22941   6.992   9.059   4.893  0.4831 -0.2794  0.9790
  170MOL0     H22942   6.868   9.138   5.099  1.6094  0.8187 -2.8172
  170MOL0     H22943   6.965   8.988   5.137  0.7024  1.6839 -0.0071
  170MOL0     H22944   6.788   8.868   5.143 -1.6571 -1.1955  0.4314
  170MOL0     H22945   6.661   8.990   5.088 -1.3499  0.6741  3.2357
  170MOL0     H22946   6.630   8.990   5.328 -0.3206 -2.2601 -2.6804
  170MOL0     H22947   6.686   9.144   5.256  1.0457  0.4535  1.0103
  170MOL0     H22948   7.024   9.011   5.478  0.7131  1.2299 -0.0325
  170MOL0     H22949   6.985   9.097   4.692  0.0538 -1.2548 -0.3375
  170MOL0     H22950   6.998   9.082   4.464  0.7451  0.9251  3.1829
  171MOL0     O22951   8.703   2.485   9.320 -1.0110  0.2480  0.8619
  171MOL0     C22952   8.827   2.494   9.301  0.2874 -1.1072  0.4322
  171MOL0     O22953   8.924   2.442   9.371  0.5375  0.7001 -0.1905
  171MOL0     C22954   8.902   2.383   9.495  0.4893  0.2458 -0.6820
  171MOL0     C22955   9.004   2.383   9.586  0.4451 -0.2278  1.4358
  171MOL0     C22956   8.990   2.314   9.714  0.0484 -1.0943  0.4695
  171MOL0     C22957   8.869   2.252   9.753  0.6922  0.6279  0.6175
  171MOL0     O22958   8.846   2.194   9.876 -1.2253  0.4179 -0.0065
  171MOL0     C22959   8.924   2.070   9.891  0.2774 -0.3452 -0.4304
  171MOL0     C22960   8.885   1.991  10.017 -1.2563  0.3955 -0.1045
  171MOL0     C22961   8.974   1.863  10.050  0.6790 -0.3892 -0.1314
  171MOL0     C22962   8.958   1.823  10.197  0.1646  0.8606  0.6417
  171MOL0     C22963   9.078   1.750  10.240 -1.2801 -0.2804  0.2475
  171MOL0     C22964   9.078   1.731  10.386 -0.1615  0.6010 -0.2638
  171MOL0     C22965   9.189   1.630  10.424 -0.6088  0.0070 -0.0979
  171MOL0     C22966   9.164   1.482  10.382  0.9488  0.3908 -0.3111
  171MOL0     N22967   9.056   1.420  10.468  0.4067 -1.7066  0.3025
  171MOL0     C22968   8.922   1.458  10.482 -0.5664  0.4731  0.1450
  171MOL0     C22969   8.870   1.385  10.580  0.3479  0.6156  0.0940
  171MOL0     C22970   8.723   1.369  10.615 -0.1408 -0.0665 -0.7125
  171MOL0     C22971   8.698   1.308  10.758  0.0137  0.8252 -0.5259
  171MOL0     C22972   8.703   1.410  10.868  0.1745  0.2317 -0.6956
  171MOL0     C22973   8.583   1.377  10.962 -0.7332 -0.1834  0.5341
  171MOL0     O22974   8.577   1.243  10.991  0.0847 -0.3262  0.4888
  171MOL0     C22975   8.651   1.224  11.109  0.4197  0.8834  1.1060
  171MOL0     C22976   8.608   1.260  11.233 -0.1150 -0.0215 -0.8201
  171MOL0     C22977   8.680   1.231  11.353 -1.1337 -0.4851 -0.0262
  171MOL0     C22978   8.626   1.295  11.479  0.2285 -0.3480 -0.8283
  171MOL0     C22979   8.800   1.154  11.340  0.9043 -0.8315  0.0420
  171MOL0     C22980   8.885   1.108  11.454 -0.2723  0.7121 -0.0014
  171MOL0     O22981   9.002   1.033  11.447 -0.4107 -0.4857  0.4500
  171MOL0     C22982   9.039   0.953  11.552  1.0574  0.5381 -0.4841
  171MOL0     C22983   9.173   0.939  11.590 -0.8887 -0.5131 -0.1681
  171MOL0     C22984   9.210   0.869  11.712  0.3056 -0.4020  0.6472
  171MOL0     C22985   9.121   0.820  11.804  0.2418  0.4809 -0.5663
  171MOL0     O22986   9.184   0.767  11.916 -0.5130  0.1668 -0.6616
  171MOL0     C22987   9.085   0.739  12.022  0.1272  0.5125 -0.3675
  171MOL0     C22988   9.047   0.881  12.086 -0.4630  0.6103 -0.0534
  171MOL0     C22989   8.988   0.862  12.227 -0.6037 -0.0179 -1.1258
  171MOL0     C22990   8.846   0.844  12.231  0.5243 -0.1767  0.0402
  171MOL0     C22991   8.802   0.863  12.375 -0.3803 -0.0020 -0.4673
  171MOL0     C22992   8.661   0.814  12.395  0.1224 -0.3017 -0.3713
  171MOL0     C22993   8.574   0.908  12.314 -0.0854  0.0977  0.1491
  171MOL0     C22994   8.432   0.873  12.339  0.9449 -0.2459 -0.2420
  171MOL0    Cl22995   8.340   0.981  12.230 -0.0238  0.1082 -0.3171
  171MOL0     C22996   8.988   0.817  11.764  0.7583 -0.4325  0.3886
  171MOL0     C22997   8.947   0.885  11.641 -0.2492 -0.1820 -1.0190
  171MOL0     O22998   8.830   1.130  11.563  0.2292 -0.2757 -0.7376
  171MOL0     C22999   8.852   1.130  11.211 -0.0128 -0.2961  0.6332
  171MOL0     C23000   8.779   1.165  11.096 -0.6336 -0.0464  0.4020
  171MOL0     N23001   8.972   1.300  10.634  0.2820  0.4470 -0.0973
  171MOL0     N23002   9.081   1.324  10.560 -1.2537  0.0816 -1.4104
  171MOL0     C23003   8.766   2.251   9.654  0.8606  0.4082  0.9474
  171MOL0     C23004   8.783   2.308   9.529 -0.4188  0.9043  0.7770
  171MOL0     C23005   8.875   2.555   9.176  0.3161  0.4454 -0.7501
  171MOL0     C23006   8.997   2.620   9.173  0.1600  0.8825 -0.9526
  171MOL0     C23007   9.030   2.672   9.052 -0.1061  0.4472 -0.5401
  171MOL0     C23008   8.948   2.667   8.938 -0.4531 -0.4644 -0.5872
  171MOL0     O23009   8.979   2.721   8.819 -0.1019  0.2509  0.3460
  171MOL0     C23010   9.117   2.768   8.812  0.2306  0.3015  0.0739
  171MOL0     C23011   9.140   2.806   8.675  0.5987 -0.3407  0.0407
  171MOL0     C23012   9.286   2.800   8.615  0.4045  0.1599 -0.1896
  171MOL0     C23013   9.370   2.904   8.684 -0.0152  0.9385  0.1176
  171MOL0     C23014   9.496   2.924   8.611  0.1619 -0.7359 -0.2741
  171MOL0     C23015   9.595   2.965   8.556  1.0523  0.0218 -0.8778
  171MOL0     C23016   8.821   2.605   8.950 -1.0516 -0.2642 -0.0485
  171MOL0     C23017   8.783   2.545   9.074  0.5503  0.1838  0.1228
  171MOL0     H23018   9.089   2.442   9.554  1.3540 -1.8371  0.7277
  171MOL0     H23019   9.058   2.329   9.797 -1.6952 -0.1393  1.8082
  171MOL0     H23020   8.913   2.011   9.800 -0.4807  1.2528 -1.4331
  171MOL0     H23021   9.025   2.107   9.912  0.2353  0.4112 -1.5000
  171MOL0     H23022   8.896   2.063  10.098 -4.3088  2.3769 -1.2639
  171MOL0     H23023   8.779   1.963  10.012 -1.1095 -0.1056 -0.4907
  171MOL0     H23024   8.943   1.780   9.986 -2.9672  0.1163  0.7663
  171MOL0     H23025   9.081   1.882  10.036  1.3641 -2.9899  1.0304
  171MOL0     H23026   8.941   1.912  10.258 -3.2361 -0.0200  1.1681
  171MOL0     H23027   8.870   1.760  10.210 -0.4504  1.8562  1.4223
  171MOL0     H23028   9.092   1.662  10.177 -1.6421  0.4076 -0.8066
  171MOL0     H23029   9.164   1.817  10.229 -0.7225 -1.1330 -0.7368
  171MOL0     H23030   9.111   1.818  10.444  5.6148 -1.1985 -0.2136
  171MOL0     H23031   8.980   1.698  10.419  0.0931 -0.8089 -0.8400
  171MOL0     H23032   9.280   1.668  10.375 -1.6402  1.9903 -0.5733
  171MOL0     H23033   9.220   1.641  10.529  1.5443 -0.5970 -0.6087
  171MOL0     H23034   9.256   1.423  10.382  2.9946  3.2665 -2.7423
  171MOL0     H23035   9.114   1.480  10.285  0.9377  0.6478 -0.3123
  171MOL0     H23036   8.855   1.515  10.417 -2.1785 -0.7085  0.6954
  171MOL0     H23037   8.687   1.472  10.618 -2.2044 -0.7591  1.3676
  171MOL0     H23038   8.666   1.323  10.535 -0.2890  0.4479 -0.9081
  171MOL0     H23039   8.756   1.219  10.786  2.6079  2.4762 -0.2700
  171MOL0     H23040   8.596   1.271  10.748  0.5606 -1.1089  0.5529
  171MOL0     H23041   8.704   1.516  10.843  0.6874  0.5398  0.5609
  171MOL0     H23042   8.791   1.393  10.931  1.4098 -1.4972 -2.7486
  171MOL0     H23043   8.488   1.406  10.918 -0.4137  2.4922  1.4039
  171MOL0     H23044   8.606   1.432  11.054  0.0121  1.1862 -0.4245
  171MOL0     H23045   8.521   1.324  11.247  0.9808  1.5240 -0.8787
  171MOL0     H23046   8.564   1.227  11.539 -1.2381  0.5290 -1.3087
  171MOL0     H23047   8.704   1.335  11.545 -1.4086 -0.8779  1.5633
  171MOL0     H23048   8.559   1.376  11.449  1.5687  0.2599 -2.3197
  171MOL0     H23049   9.247   0.990  11.528 -0.8196  1.1541  1.2166
  171MOL0     H23050   9.316   0.852  11.729  0.7488  0.6393 -0.8115
  171MOL0     H23051   9.000   0.678  11.989  0.1594 -0.0448  0.5501
  171MOL0     H23052   9.132   0.674  12.096 -4.0384 -1.6146  0.7131
  171MOL0     H23053   9.141   0.936  12.084 -0.7297  1.0723 -1.1865
  171MOL0     H23054   8.986   0.936  12.014 -3.4716 -0.3074  1.6192
  171MOL0     H23055   9.015   0.951  12.285  0.2117  0.7268 -2.5890
  171MOL0     H23056   9.033   0.774  12.274  0.5251 -1.3929 -4.4694
  171MOL0     H23057   8.798   0.925  12.175 -1.0460  0.3401  2.0267
  171MOL0     H23058   8.824   0.744  12.192  3.8124 -1.1037  0.2657
  171MOL0     H23059   8.797   0.968  12.409 -1.2002  0.1288 -0.9556
  171MOL0     H23060   8.861   0.810  12.450 -1.3938 -0.0306  0.3429
  171MOL0     H23061   8.646   0.716  12.349  2.7039 -1.4239  0.9333
  171MOL0     H23062   8.632   0.797  12.500  1.0507 -0.3138 -0.1085
  171MOL0     H23063   8.584   0.904  12.205  1.4398  2.9663  0.0822
  171MOL0     H23064   8.584   1.015  12.336 -4.8534  1.3757 -2.3464
  171MOL0     H23065   8.409   0.880  12.446 -1.4852 -0.0089 -0.7138
  171MOL0     H23066   8.427   0.769  12.306  4.5156 -0.7560  0.4701
  171MOL0     H23067   8.916   0.780  11.836 -0.2867 -0.1641 -0.4909
  171MOL0     H23068   8.842   0.895  11.619 -0.0580 -0.6862 -2.2531
  171MOL0     H23069   8.953   1.090  11.213  0.6345  1.2835  1.3606
  171MOL0     H23070   8.832   1.142  11.004 -0.6953 -2.2511  0.8547
  171MOL0     H23071   8.683   2.181   9.663  2.9764 -2.2501  1.0759
  171MOL0     H23072   8.704   2.291   9.458  0.4337  0.2755 -0.0503
  171MOL0     H23073   9.062   2.626   9.259 -0.4247  0.5128 -0.4808
  171MOL0     H23074   9.123   2.726   9.041 -0.1540 -0.0005 -5.5070
  171MOL0     H23075   9.136   2.844   8.889  0.8041 -0.5354  0.7884
  171MOL0     H23076   9.182   2.682   8.835 -0.4694  0.0614  1.2794
  171MOL0     H23077   9.100   2.907   8.667  3.4011  0.8298 -0.4585
  171MOL0     H23078   9.091   2.746   8.598  2.3701  1.9799 -3.1056
  171MOL0     H23079   9.284   2.816   8.506 -1.0959  2.6786  0.1276
  171MOL0     H23080   9.335   2.702   8.612  1.1149  0.3937  1.9335
  171MOL0     H23081   9.388   2.876   8.788 -0.5531  0.8740  0.1971
  171MOL0     H23082   9.314   2.998   8.690  0.9740  1.5332  0.0872
  171MOL0     H23083   9.685   2.992   8.504  0.4883 -0.2017 -2.0132
  171MOL0     H23084   8.754   2.599   8.865  0.7503 -2.6059 -1.3808
  171MOL0     H23085   8.686   2.502   9.099  0.5160  0.4297  0.4081
  172MOL0     O23086  11.524   9.993   7.888  0.1375 -0.0902  0.5066
  172MOL0     C23087  11.637  10.015   7.843 -0.1956  0.3312  0.7630
  172MOL0     O23088  11.673  10.118   7.767  0.2749 -1.2414  0.1561
  172MOL0     C23089  11.586  10.217   7.718  0.7969  0.6947  0.2073
  172MOL0     C23090  11.591  10.346   7.771 -0.3352  0.3748  1.0822
  172MOL0     C23091  11.495  10.440   7.740 -0.5178 -0.4735 -1.0982
  172MOL0     C23092  11.392  10.416   7.657 -0.2563 -0.7277 -0.5317
  172MOL0     O23093  11.298  10.514   7.626  0.1292 -0.0531  0.2738
  172MOL0     C23094  11.202  10.497   7.523 -0.0939  0.2237  0.1366
  172MOL0     C23095  11.137  10.641   7.479 -1.0826 -0.2118  0.2709
  172MOL0     C23096  11.225  10.737   7.390 -0.2643  0.1531  0.1327
  172MOL0     C23097  11.340  10.804   7.471 -0.3100  0.1417  0.3112
  172MOL0     C23098  11.447  10.845   7.371 -0.3186 -0.5440 -0.7981
  172MOL0     C23099  11.546  10.941   7.432 -0.2255  0.4478 -0.2598
  172MOL0     C23100  11.638  10.864   7.539  0.4162 -0.1949 -0.6778
  172MOL0     C23101  11.748  10.957   7.601 -0.1299  0.0384  0.1325
  172MOL0     N23102  11.684  11.070   7.675 -0.2049  1.0656 -0.4873
  172MOL0     C23103  11.651  11.054   7.808 -1.1120  0.1063 -0.3346
  172MOL0     C23104  11.600  11.171   7.847 -0.3616  0.7647 -0.2021
  172MOL0     C23105  11.533  11.221   7.977 -0.2828  0.4755 -0.7707
  172MOL0     C23106  11.631  11.312   8.063  0.0436  0.2701 -0.7240
  172MOL0     C23107  11.680  11.440   7.993 -0.0597  0.1451 -0.1465
  172MOL0     C23108  11.578  11.551   8.002  1.1827  0.4789  0.0896
  172MOL0     O23109  11.473  11.524   7.907 -0.4609 -0.1834  0.9257
  172MOL0     C23110  11.387  11.625   7.861  0.1127  0.1173 -0.2684
  172MOL0     C23111  11.306  11.594   7.761  0.1064  0.2768  0.1158
  172MOL0     C23112  11.207  11.680   7.722  0.0615 -0.2922  0.1487
  172MOL0     C23113  11.131  11.643   7.593  0.5724  0.1095  0.7575
  172MOL0     C23114  11.199  11.811   7.776  0.5197  0.5042  0.3779
  172MOL0     C23115  11.112  11.927   7.739  0.4535 -0.4040  0.0368
  172MOL0     O23116  11.132  12.040   7.816  0.1232 -0.3948 -0.1947
  172MOL0     C23117  11.076  12.163   7.786  0.5521  0.0853  0.2103
  172MOL0     C23118  11.164  12.263   7.765 -0.7849 -0.4405  0.7724
  172MOL0     C23119  11.118  12.391   7.741 -0.5238  0.6667  1.6875
  172MOL0     C23120  10.982  12.415   7.721  1.5188  1.0267 -0.9136
  172MOL0     O23121  10.930  12.539   7.695 -0.1580 -0.3765  0.6439
  172MOL0     C23122  10.802  12.561   7.626  1.1857 -0.3292  0.0244
  172MOL0     C23123  10.782  12.705   7.584 -0.2279 -1.3182  0.0687
  172MOL0     C23124  10.642  12.726   7.522  0.2897  0.3239  0.1195
  172MOL0     C23125  10.605  12.867   7.521  0.1397 -0.7634  0.4288
  172MOL0     C23126  10.451  12.876   7.500  0.9907  0.4245 -0.2698
  172MOL0     C23127  10.401  12.792   7.384  1.1921  1.3245 -0.6974
  172MOL0     C23128  10.248  12.809   7.362 -0.4082  0.1297 -0.3689
  172MOL0     C23129  10.204  12.950   7.327  0.2982  0.3889  0.7591
  172MOL0    Cl23130  10.030  12.952   7.311  0.2576  0.0564  0.3855
  172MOL0     C23131  10.891  12.302   7.730 -1.0467 -0.1979  0.1603
  172MOL0     C23132  10.936  12.173   7.759 -0.1433 -0.3349  0.6857
  172MOL0     O23133  11.043  11.928   7.637  0.0910 -0.0109 -0.0690
  172MOL0     C23134  11.277  11.832   7.890  0.1254  0.1649 -0.8043
  172MOL0     C23135  11.374  11.749   7.932 -0.4407 -0.6395  0.2079
  172MOL0     N23136  11.603  11.252   7.734 -0.3240 -0.2079 -0.2798
  172MOL0     N23137  11.656  11.195   7.635  0.8247  0.6216 -0.2214
  172MOL0     C23138  11.389  10.294   7.602 -0.7680  0.2223 -0.0268
  172MOL0     C23139  11.485  10.190   7.626 -0.5881 -0.6002 -1.7131
  172MOL0     C23140  11.746   9.927   7.877 -0.1385 -0.5212 -1.2728
  172MOL0     C23141  11.730   9.816   7.949  0.5407  0.0728 -0.6447
  172MOL0     C23142  11.830   9.727   7.983 -0.9545 -0.4962  1.0787
  172MOL0     C23143  11.957   9.735   7.916  0.2431 -1.2236 -0.3878
  172MOL0     O23144  12.061   9.659   7.952  0.4953 -0.2328  0.7438
  172MOL0     C23145  12.129   9.596   7.839  0.0341 -0.9837  0.4977
  172MOL0     C23146  12.231   9.473   7.877  0.8878  1.3834  0.3217
  172MOL0     C23147  12.358   9.516   7.940 -0.3054 -0.0523 -0.0463
  172MOL0     C23148  12.471   9.542   7.829  0.0853  0.5009 -0.1246
  172MOL0     C23149  12.580   9.605   7.893 -0.0481  1.0336 -0.2745
  172MOL0     C23150  12.681   9.656   7.953  0.3983  0.1965  0.2946
  172MOL0     C23151  11.985   9.854   7.846 -1.3440  0.6256 -0.1336
  172MOL0     C23152  11.878   9.948   7.825  0.2834 -0.0755  0.4129
  172MOL0     H23153  11.669  10.361   7.845  0.9397  0.1411 -0.1790
  172MOL0     H23154  11.491  10.533   7.795 -0.4623  0.5000 -2.6844
  172MOL0     H23155  11.253  10.465   7.431  0.2984  0.5202  0.2490
  172MOL0     H23156  11.115  10.443   7.562 -0.8365  0.7721 -0.6960
  172MOL0     H23157  11.042  10.622   7.429 -0.6215 -1.7782 -0.0595
  172MOL0     H23158  11.118  10.698   7.570  1.2242  1.1567 -0.0161
  172MOL0     H23159  11.277  10.678   7.314  1.2002  0.5173  0.8206
  172MOL0     H23160  11.153  10.810   7.351 -0.0487 -0.8571 -2.3026
  172MOL0     H23161  11.301  10.884   7.534 -1.2100 -0.0923  0.0625
  172MOL0     H23162  11.384  10.734   7.543 -0.3909  1.1674  1.3772
  172MOL0     H23163  11.500  10.752   7.348  2.1490  0.8932 -1.2851
  172MOL0     H23164  11.400  10.880   7.278  1.8014  1.0109 -1.3838
  172MOL0     H23165  11.603  10.982   7.348  2.2109  1.6621  1.8834
  172MOL0     H23166  11.493  11.024   7.480 -0.8652 -0.2191  0.2104
  172MOL0     H23167  11.579  10.850   7.630  2.5149  1.4482  1.0316
  172MOL0     H23168  11.696  10.776   7.507 -0.4154 -1.6528  1.5598
  172MOL0     H23169  11.815  10.992   7.522  0.2856 -3.7220 -1.3930
  172MOL0     H23170  11.806  10.905   7.678 -1.5501  2.0415  2.7239
  172MOL0     H23171  11.659  10.962   7.866  0.6525  0.2662 -0.2700
  172MOL0     H23172  11.436  11.262   7.950  0.6768  3.5517  0.0325
  172MOL0     H23173  11.516  11.131   8.036  3.0791  0.0147 -0.2837
  172MOL0     H23174  11.714  11.245   8.088  1.2165  1.5016 -1.2056
  172MOL0     H23175  11.571  11.334   8.152 -0.9148  4.6648 -2.2376
  172MOL0     H23176  11.709  11.411   7.891 -2.1344  0.5869 -0.9188
  172MOL0     H23177  11.773  11.474   8.039  2.3981 -4.2163 -1.3605
  172MOL0     H23178  11.628  11.648   7.990  1.0258  0.5780  0.2335
  172MOL0     H23179  11.546  11.552   8.107  0.1667 -2.9459 -0.0656
  172MOL0     H23180  11.313  11.497   7.714 -3.2891  0.7333 -1.6582
  172MOL0     H23181  11.024  11.633   7.614 -0.1365  0.0833 -2.3812
  172MOL0     H23182  11.151  11.722   7.519 -2.3525 -0.7685 -1.1566
  172MOL0     H23183  11.153  11.547   7.545  1.0484  2.0638 -3.3753
  172MOL0     H23184  11.271  12.248   7.779 -0.3292 -0.5671 -2.1686
  172MOL0     H23185  11.189  12.471   7.725  0.2667 -0.4010 -0.5432
  172MOL0     H23186  10.785  12.488   7.546 -1.3148 -0.2193  0.3855
  172MOL0     H23187  10.723  12.540   7.698  0.9542 -1.5285 -0.5535
  172MOL0     H23188  10.797  12.759   7.678 -3.2973 -5.5638  3.4775
  172MOL0     H23189  10.857  12.735   7.511 -0.9541  0.2791 -0.0587
  172MOL0     H23190  10.579  12.666   7.589  3.8936 -1.2581  2.3814
  172MOL0     H23191  10.636  12.681   7.423 -0.6886 -1.3935  0.9154
  172MOL0     H23192  10.638  12.913   7.615  0.6275  0.3427 -0.2691
  172MOL0     H23193  10.660  12.916   7.441  1.9255 -0.7891  1.5736
  172MOL0     H23194  10.417  12.978   7.484 -0.9535 -0.3710 -1.5972
  172MOL0     H23195  10.400  12.842   7.591 -0.4636 -0.3645 -1.3341
  172MOL0     H23196  10.463  12.817   7.297  2.8436 -0.7209 -0.1939
  172MOL0     H23197  10.408  12.685   7.406 -2.6138  0.8081 -1.3267
  172MOL0     H23198  10.203  12.767   7.453 -2.7521 -1.9474 -2.3143
  172MOL0     H23199  10.207  12.747   7.281 -0.6508  0.5275 -0.5539
  172MOL0     H23200  10.263  12.985   7.242  1.3052  2.0035  2.0679
  172MOL0     H23201  10.239  13.009   7.412  4.3966 -2.8529  1.6805
  172MOL0     H23202  10.784  12.307   7.711 -0.6500 -0.7642 -2.7305
  172MOL0     H23203  10.876  12.084   7.773  0.9728 -1.2243  0.0087
  172MOL0     H23204  11.281  11.929   7.939 -0.6205 -0.0539 -0.2942
  172MOL0     H23205  11.430  11.779   8.019  4.0610 -0.9955 -2.2482
  172MOL0     H23206  11.306  10.274   7.534 -1.7769  1.5923  0.7282
  172MOL0     H23207  11.480  10.089   7.586  1.3017 -1.1599 -0.7013
  172MOL0     H23208  11.636   9.810   8.003  0.9148  0.4007  0.0529
  172MOL0     H23209  11.828   9.649   8.059 -1.3956  1.4227  3.1274
  172MOL0     H23210  12.052   9.560   7.770  0.1699 -0.7289  0.2092
  172MOL0     H23211  12.190   9.673   7.789 -2.3784  0.2065 -0.7848
  172MOL0     H23212  12.244   9.403   7.794 -0.9563 -2.2337  2.8192
  172MOL0     H23213  12.182   9.405   7.947  3.2778 -2.0631 -1.0961
  172MOL0     H23214  12.388   9.432   8.003  0.3746 -1.6647 -2.3939
  172MOL0     H23215  12.342   9.607   7.998 -1.4102  0.5928 -1.2964
  172MOL0     H23216  12.424   9.606   7.753 -0.9956 -2.8114 -2.4990
  172MOL0     H23217  12.507   9.445   7.793  0.2201  0.7787 -0.7591
  172MOL0     H23218  12.759   9.707   8.006  2.7632 -2.7826 -0.0698
  172MOL0     H23219  12.086   9.875   7.812 -0.3382 -0.8878  1.7110
  172MOL0     H23220  11.899  10.042   7.775  0.4418 -0.2653  0.1223
  173MOL0     O23221   1.680   9.661   1.592  0.1166 -0.6655 -0.1402
  173MOL0     C23222   1.577   9.731   1.596 -0.0686 -0.1779  0.2882
  173MOL0     O23223   1.473   9.713   1.509  0.8875  0.0223 -0.6136
  173MOL0     C23224   1.482   9.661   1.383  0.7114  0.6923  0.4240
  173MOL0     C23225   1.363   9.602   1.328 -0.6462 -0.0776 -0.6406
  173MOL0     C23226   1.378   9.553   1.192  1.1801  0.6792 -0.2849
  173MOL0     C23227   1.487   9.594   1.109  0.2249 -0.2621  0.0311
  173MOL0     O23228   1.484   9.556   0.987  0.3325  0.6720 -1.3968
  173MOL0     C23229   1.539   9.645   0.900 -0.1076  1.1036  0.3904
  173MOL0     C23230   1.516   9.557   0.773  0.3315  0.1320  0.2682
  173MOL0     C23231   1.561   9.625   0.644  0.0662  0.4110 -0.0624
  173MOL0     C23232   1.583   9.530   0.534  0.3200  0.7368  0.2257
  173MOL0     C23233   1.659   9.594   0.422 -1.0376 -0.6388  0.7404
  173MOL0     C23234   1.727   9.500   0.331 -0.6277 -0.6381  0.8393
  173MOL0     C23235   1.799   9.570   0.221 -0.0087  0.6003 -0.4989
  173MOL0     C23236   1.888   9.476   0.148  1.0591  1.6641 -0.4196
  173MOL0     N23237   1.820   9.412   0.024  0.3795  0.4581 -0.4058
  173MOL0     C23238   1.759   9.297   0.031 -0.3504  1.0047 -0.0476
  173MOL0     C23239   1.739   9.264  -0.099  0.0388 -0.8469 -0.2055
  173MOL0     C23240   1.670   9.139  -0.147 -0.1167 -0.6300 -0.3234
  173MOL0     C23241   1.770   9.084  -0.249  0.0570  0.2917 -0.1754
  173MOL0     C23242   1.712   8.957  -0.314 -0.0889  0.3065  1.1219
  173MOL0     C23243   1.798   8.888  -0.411  0.4650 -0.2433  0.3684
  173MOL0     O23244   1.918   8.839  -0.340  0.4066  0.3052 -0.4144
  173MOL0     C23245   2.014   8.757  -0.401 -0.4951  1.0036  0.4022
  173MOL0     C23246   2.132   8.723  -0.345 -0.3219  0.1368 -0.8371
  173MOL0     C23247   2.230   8.644  -0.404 -0.0711  0.2073 -0.5999
  173MOL0     C23248   2.360   8.621  -0.324  0.7983  0.1486  0.4529
  173MOL0     C23249   2.215   8.599  -0.538 -0.5523 -1.0267  0.3731
  173MOL0     C23250   2.313   8.514  -0.607  0.1194 -0.2213  0.3916
  173MOL0     O23251   2.362   8.415  -0.533  0.7198  0.9376  0.5309
  173MOL0     C23252   2.420   8.311  -0.607  0.6514  1.1542 -1.4733
  173MOL0     C23253   2.533   8.334  -0.690  0.5819  0.8304  0.2580
  173MOL0     C23254   2.590   8.226  -0.757  0.6348 -0.2674  1.1344
  173MOL0     C23255   2.545   8.091  -0.734 -0.1471  0.6830 -0.1414
  173MOL0     O23256   2.608   7.988  -0.803  0.0786  0.2394  0.4361
  173MOL0     C23257   2.634   7.870  -0.721  0.1043 -1.0897  0.7486
  173MOL0     C23258   2.772   7.887  -0.670 -1.0970 -0.2786 -0.1822
  173MOL0     C23259   2.841   7.763  -0.607 -0.1328  0.0457  0.8603
  173MOL0     C23260   2.814   7.755  -0.462 -0.5036  0.6004 -0.4881
  173MOL0     C23261   2.867   7.629  -0.394  0.9576 -0.6310  1.1728
  173MOL0     C23262   2.863   7.630  -0.238 -0.3252 -0.1388  0.8214
  173MOL0     C23263   2.921   7.510  -0.164 -0.3651  0.3729 -0.1657
  173MOL0     C23264   3.060   7.473  -0.210  1.2824  0.3680  0.0233
  173MOL0    Cl23265   3.179   7.612  -0.213 -0.0701 -0.2984  0.4171
  173MOL0     C23266   2.428   8.071  -0.646  1.3301 -0.6640  0.8064
  173MOL0     C23267   2.358   8.184  -0.587 -0.4131  0.3426  0.1662
  173MOL0     O23268   2.351   8.544  -0.720  0.2342  0.5519  0.1408
  173MOL0     C23269   2.112   8.653  -0.608  1.2966 -0.3443 -0.1542
  173MOL0     C23270   2.010   8.726  -0.539 -0.1027  1.0374  0.6499
  173MOL0     N23271   1.795   9.375  -0.176  0.6842  0.2196  0.3340
  173MOL0     N23272   1.835   9.461  -0.098 -0.2400  0.0147  0.1370
  173MOL0     C23273   1.596   9.659   1.177 -0.2937 -0.1789 -0.3063
  173MOL0     C23274   1.593   9.689   1.306  0.4773 -0.1188  0.0503
  173MOL0     C23275   1.565   9.830   1.712  0.6537  0.3869  0.8447
  173MOL0     C23276   1.676   9.861   1.797  0.1763 -0.8860  0.0930
  173MOL0     C23277   1.667   9.953   1.897 -0.3065 -0.5192 -0.5713
  173MOL0     C23278   1.553  10.028   1.902 -0.4104  0.0344 -1.1369
  173MOL0     O23279   1.564  10.142   1.986  0.1730  0.3563  0.2608
  173MOL0     C23280   1.448  10.220   2.015 -0.0720  0.3366 -0.5858
  173MOL0     C23281   1.509  10.318   2.122  1.2157  0.0781  0.4864
  173MOL0     C23282   1.516  10.235   2.252  0.1140  0.7006  0.3503
  173MOL0     C23283   1.580  10.327   2.358 -0.2199 -0.6451 -0.0273
  173MOL0     C23284   1.572  10.263   2.486 -0.5683  0.3445 -0.1594
  173MOL0     C23285   1.583  10.200   2.591 -0.5583  0.0542  2.0292
  173MOL0     C23286   1.437   9.992   1.829 -0.4907  0.4694  0.0287
  173MOL0     C23287   1.440   9.895   1.732 -0.7977  0.5770 -0.5140
  173MOL0     H23288   1.277   9.585   1.393 -0.0158 -1.6927 -0.1908
  173MOL0     H23289   1.297   9.499   1.144 -1.1814  2.6651  1.2633
  173MOL0     H23290   1.476   9.734   0.904 -2.2898 -0.3626  0.4136
  173MOL0     H23291   1.644   9.671   0.914  0.2625  0.5039 -1.0838
  173MOL0     H23292   1.551   9.454   0.784 -0.5372 -0.0887  1.2006
  173MOL0     H23293   1.409   9.535   0.770  0.8538 -2.8006  0.6682
  173MOL0     H23294   1.481   9.695   0.620 -0.6326  0.2581  1.6395
  173MOL0     H23295   1.649   9.688   0.660  0.4386 -0.6307  2.7315
  173MOL0     H23296   1.632   9.442   0.576 -1.0383 -0.9509 -1.4959
  173MOL0     H23297   1.486   9.497   0.496  0.4153 -0.2929  0.8527
  173MOL0     H23298   1.592   9.648   0.354 -2.9412 -0.6515  2.5057
  173MOL0     H23299   1.726   9.670   0.463 -0.0160 -0.6485 -0.8102
  173MOL0     H23300   1.803   9.451   0.393  1.1075 -1.2884 -1.6600
  173MOL0     H23301   1.661   9.417   0.302 -0.3772 -1.8718  3.4961
  173MOL0     H23302   1.738   9.622   0.148  1.9699 -0.4480 -3.0703
  173MOL0     H23303   1.859   9.653   0.260  3.7994 -2.0655 -0.0521
  173MOL0     H23304   1.924   9.396   0.213 -3.2699  0.5209  0.9554
  173MOL0     H23305   1.969   9.536   0.105  3.6348 -0.9199  0.5149
  173MOL0     H23306   1.739   9.233   0.116  0.1060 -0.6756 -1.1621
  173MOL0     H23307   1.651   9.058  -0.075  4.1056 -0.7045  0.9705
  173MOL0     H23308   1.576   9.163  -0.197  0.1002  0.3124 -0.2830
  173MOL0     H23309   1.869   9.068  -0.205 -0.4604 -1.1317  0.5331
  173MOL0     H23310   1.774   9.160  -0.328 -2.7704  0.7965  0.0631
  173MOL0     H23311   1.622   8.997  -0.361  1.3996  4.2205  1.1988
  173MOL0     H23312   1.688   8.877  -0.242  3.5563 -0.7745  1.3229
  173MOL0     H23313   1.835   8.945  -0.497  1.1701  0.0644  0.8614
  173MOL0     H23314   1.749   8.802  -0.457 -0.3875  0.2063  0.4273
  173MOL0     H23315   2.136   8.777  -0.250  0.7105 -2.5668  0.7578
  173MOL0     H23316   2.344   8.643  -0.218 -0.9071  0.8947  0.0684
  173MOL0     H23317   2.400   8.519  -0.324 -0.7345 -0.4917  0.5308
  173MOL0     H23318   2.434   8.688  -0.366  1.3319  0.1983  1.4400
  173MOL0     H23319   2.566   8.431  -0.726 -1.0363  1.3440  0.0523
  173MOL0     H23320   2.669   8.255  -0.826 -0.8754 -0.3874 -0.7339
  173MOL0     H23321   2.567   7.856  -0.635 -2.6997  0.4425 -1.0539
  173MOL0     H23322   2.632   7.782  -0.784 -0.5758 -0.2463 -0.4381
  173MOL0     H23323   2.838   7.919  -0.752 -0.5980 -1.6852 -0.3529
  173MOL0     H23324   2.771   7.971  -0.600 -2.5336 -1.0431  0.7495
  173MOL0     H23325   2.950   7.760  -0.619 -0.0459  1.2514  1.2233
  173MOL0     H23326   2.799   7.672  -0.651 -0.7810 -0.3571  2.2827
  173MOL0     H23327   2.870   7.837  -0.416  1.8799 -2.0977  1.8517
  173MOL0     H23328   2.709   7.768  -0.432 -0.3840  2.4781 -0.7496
  173MOL0     H23329   2.969   7.622  -0.435 -0.7047  0.7115 -3.9738
  173MOL0     H23330   2.805   7.548  -0.432 -1.3568  1.5612 -0.0457
  173MOL0     H23331   2.895   7.727  -0.198 -2.6148  1.5857 -1.2252
  173MOL0     H23332   2.754   7.632  -0.221 -1.1312 -3.9519 -2.5894
  173MOL0     H23333   2.855   7.423  -0.169  0.0418 -0.0786  1.5137
  173MOL0     H23334   2.918   7.542  -0.059 -0.8691  1.2069 -0.4298
  173MOL0     H23335   3.058   7.434  -0.312  3.0049  0.0235  0.0878
  173MOL0     H23336   3.084   7.393  -0.140 -0.1565  0.5360  0.7435
  173MOL0     H23337   2.383   7.972  -0.641 -1.1477  0.2686 -0.7442
  173MOL0     H23338   2.275   8.165  -0.520 -0.7044 -0.8426 -0.5196
  173MOL0     H23339   2.112   8.632  -0.714 -2.0464  2.8285 -0.9695
  173MOL0     H23340   1.923   8.754  -0.597  0.9969 -0.0630 -1.6291
  173MOL0     H23341   1.694   9.677   1.134  0.0285 -1.2692 -0.0557
  173MOL0     H23342   1.682   9.735   1.348  1.4569 -2.3994  0.6501
  173MOL0     H23343   1.773   9.818   1.774  1.3258  1.2918  0.5669
  173MOL0     H23344   1.749   9.992   1.958  0.5015 -2.8989 -0.0342
  173MOL0     H23345   1.416  10.285   1.934 -2.0621  0.0971 -0.0409
  173MOL0     H23346   1.365  10.155   2.046 -0.1247  0.5469 -0.2753
  173MOL0     H23347   1.440  10.401   2.138  2.1112  0.6826  1.2790
  173MOL0     H23348   1.606  10.351   2.085  1.3937  0.6185  1.4172
  173MOL0     H23349   1.584  10.150   2.237  0.2009  1.0733 -1.6148
  173MOL0     H23350   1.416  10.203   2.282  0.8953 -2.4239  0.0341
  173MOL0     H23351   1.528  10.423   2.351  1.8686  0.4075 -2.9752
  173MOL0     H23352   1.684  10.329   2.324 -0.9485 -0.2435 -2.3773
  173MOL0     H23353   1.584  10.136   2.676  1.0787 -2.4962  0.2280
  173MOL0     H23354   1.348  10.054   1.839 -0.2182  0.7919  0.4198
  173MOL0     H23355   1.353   9.877   1.669 -0.5938  2.5898 -1.4642
  174MOL0     O23356   7.534   7.653  11.463 -0.8980  0.2586 -0.1321
  174MOL0     C23357   7.539   7.709  11.563  0.7365 -0.1878 -0.1018
  174MOL0     O23358   7.448   7.810  11.607 -0.8322  0.1489  0.1197
  174MOL0     C23359   7.364   7.866  11.514 -0.5072 -0.4530  0.6581
  174MOL0     C23360   7.226   7.837  11.515 -0.1353  0.9132  1.1395
  174MOL0     C23361   7.138   7.869  11.413 -0.2360 -1.5987  1.0017
  174MOL0     C23362   7.189   7.942  11.298  0.8021  0.0828 -0.6074
  174MOL0     O23363   7.094   7.959  11.208  0.0116 -0.5043  0.2384
  174MOL0     C23364   7.142   8.009  11.075  1.2025 -0.0190 -0.3675
  174MOL0     C23365   7.015   8.040  10.995  0.6845 -0.4508 -0.4738
  174MOL0     C23366   6.928   8.151  11.065 -0.6514 -0.2968  0.5454
  174MOL0     C23367   6.828   8.091  11.162  0.5288 -0.2208 -0.4230
  174MOL0     C23368   6.704   8.187  11.181  0.4114 -0.2667  0.7912
  174MOL0     C23369   6.591   8.121  11.258  0.3924  0.2847  0.4397
  174MOL0     C23370   6.461   8.208  11.264  0.4623  0.1809  0.6403
  174MOL0     C23371   6.489   8.345  11.319 -0.3686 -0.4015  0.5864
  174MOL0     N23372   6.557   8.352  11.448  0.3047  0.7753 -0.3053
  174MOL0     C23373   6.483   8.303  11.560 -0.1073  0.6672  0.1649
  174MOL0     C23374   6.559   8.340  11.665 -0.5123  0.7497 -0.7396
  174MOL0     C23375   6.537   8.324  11.816 -0.6562 -0.4066  0.0243
  174MOL0     C23376   6.590   8.182  11.873  0.0709 -0.2237 -1.0719
  174MOL0     C23377   6.535   8.152  12.014  0.0492 -0.4849 -0.5941
  174MOL0     C23378   6.560   8.265  12.107 -0.4093  0.5103 -0.0656
  174MOL0     O23379   6.559   8.221  12.244 -0.1981  0.2498  0.6975
  174MOL0     C23380   6.677   8.170  12.298  0.8647  0.4642  1.0712
  174MOL0     C23381   6.801   8.174  12.237 -0.3931  0.0668  1.0024
  174MOL0     C23382   6.919   8.126  12.305  0.1266  0.0138  0.1485
  174MOL0     C23383   7.041   8.127  12.212  0.0723 -0.0932  0.2214
  174MOL0     C23384   6.915   8.072  12.434  0.6481 -0.9145  0.2555
  174MOL0     C23385   7.024   8.033  12.512 -1.1194  0.1420 -0.3637
  174MOL0     O23386   6.993   7.996  12.639 -0.2999 -0.1577 -0.2201
  174MOL0     C23387   7.095   7.963  12.728 -0.7603  0.7739 -0.5318
  174MOL0     C23388   7.070   7.977  12.863  0.2766  0.0843 -0.1067
  174MOL0     C23389   7.164   7.935  12.961 -0.5569  0.2932 -0.7762
  174MOL0     C23390   7.288   7.877  12.918  0.2060 -0.0696 -0.6545
  174MOL0     O23391   7.378   7.827  13.012 -0.5449 -0.0333 -0.0948
  174MOL0     C23392   7.453   7.702  12.986 -0.2428  0.5373  0.4002
  174MOL0     C23393   7.512   7.684  13.120  0.1366  0.7104 -0.0984
  174MOL0     C23394   7.639   7.585  13.126  0.6750  0.4349 -0.5157
  174MOL0     C23395   7.594   7.450  13.079  1.0253  0.7340  0.2593
  174MOL0     C23396   7.714   7.358  13.077  0.3978  0.1586  0.2344
  174MOL0     C23397   7.680   7.225  13.149 -0.2821  0.5684 -0.2530
  174MOL0     C23398   7.644   7.240  13.299 -0.2008  0.4063  0.0028
  174MOL0     C23399   7.637   7.108  13.377 -0.4214  0.8296 -0.2503
  174MOL0    Cl23400   7.631   7.144  13.548 -0.0123  0.2559 -0.1362
  174MOL0     C23401   7.308   7.848  12.776 -0.4946  0.8452  0.0168
  174MOL0     C23402   7.209   7.891  12.690 -0.3602 -0.5063  0.4062
  174MOL0     O23403   7.137   8.057  12.467  0.6242 -1.0065  0.5207
  174MOL0     C23404   6.785   8.065  12.492 -0.4324  0.1037  0.4509
  174MOL0     C23405   6.669   8.106  12.421 -0.7235 -0.3048  0.3158
  174MOL0     N23406   6.682   8.382  11.612 -0.1124 -0.3528  0.5547
  174MOL0     N23407   6.679   8.402  11.491  0.5386 -0.2552  0.2511
  174MOL0     C23408   7.322   7.989  11.298  1.1473 -0.3247 -0.4650
  174MOL0     C23409   7.410   7.950  11.408  0.0214  1.0040 -0.4337
  174MOL0     C23410   7.635   7.654  11.666 -0.9327 -0.4223  0.1686
  174MOL0     C23411   7.702   7.530  11.648  0.6450  0.5149 -0.7562
  174MOL0     C23412   7.768   7.463  11.754  0.9430  0.4858 -0.6288
  174MOL0     C23413   7.770   7.529  11.879  0.0016  0.3331 -0.2916
  174MOL0     O23414   7.831   7.476  11.984 -0.5599 -0.4273 -0.2522
  174MOL0     C23415   7.767   7.351  12.026 -0.1889 -1.0084 -0.1881
  174MOL0     C23416   7.873   7.258  12.081 -0.4799  0.7795  0.0988
  174MOL0     C23417   7.961   7.316  12.199  0.2694 -0.3913  0.8535
  174MOL0     C23418   7.879   7.343  12.320 -0.1243 -0.2066 -0.4406
  174MOL0     C23419   7.954   7.322  12.444 -0.2361 -0.9816  0.5422
  174MOL0     C23420   8.016   7.320  12.552  0.8986 -0.1214  0.3243
  174MOL0     C23421   7.714   7.654  11.891  0.8524  0.3364  0.0404
  174MOL0     C23422   7.642   7.716  11.793 -1.4501 -0.6518  0.0182
  174MOL0     H23423   7.190   7.763  11.586 -2.9231 -0.2276 -1.2349
  174MOL0     H23424   7.038   7.832  11.398  0.0877 -1.7340 -1.2256
  174MOL0     H23425   7.198   8.102  11.086  1.0086  0.0711 -0.1216
  174MOL0     H23426   7.184   7.921  11.025 -2.0138 -2.1694  0.3355
  174MOL0     H23427   7.054   8.091  10.906 -0.1461  2.6690  0.8412
  174MOL0     H23428   6.969   7.942  10.978 -0.4763 -0.2827  1.4481
  174MOL0     H23429   6.994   8.222  11.116 -0.2399 -0.0522 -0.2995
  174MOL0     H23430   6.888   8.215  10.986  0.6419 -1.5513 -1.1938
  174MOL0     H23431   6.788   7.994  11.130  1.0906 -1.2363  1.8005
  174MOL0     H23432   6.868   8.057  11.258 -3.2203 -0.9242  1.0812
  174MOL0     H23433   6.740   8.274  11.235  1.6796  1.0666 -1.9828
  174MOL0     H23434   6.647   8.222  11.094  0.1704  1.1397  1.4899
  174MOL0     H23435   6.587   8.019  11.220 -0.9164  1.0026 -1.5040
  174MOL0     H23436   6.612   8.112  11.365 -0.5109 -0.8163  0.5390
  174MOL0     H23437   6.402   8.216  11.173  1.9848 -0.2363 -0.4197
  174MOL0     H23438   6.385   8.166  11.331 -0.2473  1.9783  1.0162
  174MOL0     H23439   6.391   8.391  11.332  0.3966  0.9038  2.2226
  174MOL0     H23440   6.545   8.414  11.255 -2.6201  0.9374 -0.0725
  174MOL0     H23441   6.386   8.253  11.560 -0.1783  0.7368 -1.9431
  174MOL0     H23442   6.578   8.413  11.864 -0.5142 -0.3711 -0.1606
  174MOL0     H23443   6.430   8.339  11.828 -0.5552  0.2217  0.1550
  174MOL0     H23444   6.698   8.190  11.885 -0.2088  0.0945  2.4021
  174MOL0     H23445   6.549   8.103  11.809 -0.0287 -2.3155  1.3976
  174MOL0     H23446   6.606   8.074  12.042  1.4933  0.6454 -0.9949
  174MOL0     H23447   6.428   8.127  12.016 -0.2508  0.3880  3.4314
  174MOL0     H23448   6.477   8.336  12.102  0.2549  1.2549 -1.1000
  174MOL0     H23449   6.650   8.322  12.077  0.1130 -1.4966 -2.7227
  174MOL0     H23450   6.812   8.220  12.139  1.5763 -3.7905 -0.7871
  174MOL0     H23451   7.079   8.229  12.205 -0.9770  0.3456  0.6508
  174MOL0     H23452   7.109   8.043  12.226 -1.4436 -1.2691  0.9341
  174MOL0     H23453   7.011   8.120  12.107 -0.2124  0.9600  0.2201
  174MOL0     H23454   6.974   8.025  12.874  1.0918  1.6126  0.5617
  174MOL0     H23455   7.147   7.957  13.065 -1.3723 -0.6288 -0.7015
  174MOL0     H23456   7.387   7.618  12.961  2.2465 -1.8306  1.2545
  174MOL0     H23457   7.535   7.712  12.914 -0.8085 -0.5868 -0.4354
  174MOL0     H23458   7.559   7.774  13.160  6.0958 -2.4167  1.2141
  174MOL0     H23459   7.427   7.648  13.178  0.4542 -2.4714 -1.3976
  174MOL0     H23460   7.666   7.576  13.231 -3.1996  1.4274  0.7525
  174MOL0     H23461   7.721   7.627  13.066 -0.5032  1.7426 -1.2832
  174MOL0     H23462   7.519   7.416  13.151  0.6381 -2.6159 -1.5097
  174MOL0     H23463   7.536   7.449  12.986 -0.2002  0.8825  0.9935
  174MOL0     H23464   7.800   7.414  13.116  0.2547  3.2719 -3.3241
  174MOL0     H23465   7.755   7.336  12.978 -2.1307  0.1452 -0.8958
  174MOL0     H23466   7.608   7.172  13.086 -0.5425 -0.0397  0.5314
  174MOL0     H23467   7.768   7.160  13.144 -1.0437 -0.4887 -0.4005
  174MOL0     H23468   7.546   7.289  13.311 -1.1763 -1.2568 -0.7858
  174MOL0     H23469   7.723   7.302  13.344  0.2310 -0.3055  0.2332
  174MOL0     H23470   7.724   7.045  13.357 -1.6694 -1.3212  0.6430
  174MOL0     H23471   7.542   7.060  13.351 -2.4712  5.0342 -1.3362
  174MOL0     H23472   7.400   7.803  12.739  0.1258  0.8646  1.4590
  174MOL0     H23473   7.226   7.851  12.591  0.4726 -3.5412  1.6328
  174MOL0     H23474   6.775   8.032  12.595 -4.7772  0.1502  0.2095
  174MOL0     H23475   6.574   8.096  12.471 -2.6104  1.0771 -2.7029
  174MOL0     H23476   7.354   8.063  11.225 -0.1722 -0.5805 -1.3326
  174MOL0     H23477   7.513   7.983  11.407 -0.2507  1.8843 -1.2728
  174MOL0     H23478   7.692   7.468  11.560 -0.9249 -0.6171  0.1729
  174MOL0     H23479   7.819   7.370  11.731  0.9642  0.2474  0.3311
  174MOL0     H23480   7.693   7.386  12.099 -1.8214  1.9963 -2.9950
  174MOL0     H23481   7.703   7.296  11.956 -0.1159  0.7643 -1.7113
  174MOL0     H23482   7.932   7.223  11.996 -1.6770 -0.3992 -0.2861
  174MOL0     H23483   7.840   7.157  12.106  1.0132  0.0818 -0.6323
  174MOL0     H23484   8.005   7.407  12.159 -1.1779 -0.0472 -0.0207
  174MOL0     H23485   8.044   7.246  12.212  0.8214  0.4441  2.0400
  174MOL0     H23486   7.788   7.284  12.333 -1.3159  1.6229 -0.1242
  174MOL0     H23487   7.843   7.445  12.303 -1.6210 -1.0215 -2.5644
  174MOL0     H23488   8.077   7.323  12.639  2.3115 -0.7989 -0.6110
  174MOL0     H23489   7.713   7.700  11.989  1.5771  0.6039 -0.0733
  174MOL0     H23490   7.590   7.807  11.822  1.5586  0.9701  0.7703
  175MOL0     O23491   1.517   1.715   2.362  0.5556 -0.0673 -0.9112
  175MOL0     C23492   1.484   1.617   2.428  0.0654  0.3420  0.8022
  175MOL0     O23493   1.567   1.507   2.442 -0.0656  0.2150  0.0787
  175MOL0     C23494   1.692   1.524   2.392  0.8385  0.1436  0.1735
  175MOL0     C23495   1.790   1.599   2.455  0.3167 -0.6217 -0.1601
  175MOL0     C23496   1.926   1.601   2.406 -0.8411 -0.3852 -0.3928
  175MOL0     C23497   1.966   1.531   2.287 -0.4148 -0.1801  0.4405
  175MOL0     O23498   2.098   1.525   2.238 -0.2196  0.1555 -0.1261
  175MOL0     C23499   2.205   1.606   2.288  0.1523  0.0697  0.0911
  175MOL0     C23500   2.342   1.551   2.243 -0.1810 -0.7703  0.7721
  175MOL0     C23501   2.466   1.635   2.268 -0.0627 -0.1206 -0.0431
  175MOL0     C23502   2.475   1.763   2.179  0.0156  0.5057  0.3480
  175MOL0     C23503   2.615   1.825   2.181  0.2260 -1.1389  0.7363
  175MOL0     C23504   2.627   1.962   2.086 -0.5849  1.0170  0.2810
  175MOL0     C23505   2.528   2.086   2.101  0.3875  0.4324  0.1557
  175MOL0     C23506   2.523   2.143   2.246 -0.3217 -0.0948  0.0742
  175MOL0     N23507   2.437   2.075   2.343 -0.2640 -0.3216 -0.6305
  175MOL0     C23508   2.308   2.037   2.334  1.3683 -0.2282 -0.1050
  175MOL0     C23509   2.278   1.984   2.461 -0.6836  0.5602 -0.7838
  175MOL0     C23510   2.147   1.942   2.505  1.2970  0.2808 -0.2843
  175MOL0     C23511   2.064   2.060   2.550 -0.1250 -0.4943  0.0991
  175MOL0     C23512   2.136   2.128   2.669 -0.3039  0.3346 -0.1348
  175MOL0     C23513   2.073   2.272   2.691 -0.8081 -0.2314 -0.0560
  175MOL0     O23514   2.108   2.357   2.583  0.0292  0.2826  0.0779
  175MOL0     C23515   2.039   2.473   2.554  0.4505 -0.0722 -0.3254
  175MOL0     C23516   1.952   2.533   2.647  0.1372  0.1483  0.2358
  175MOL0     C23517   1.883   2.646   2.601  0.5586  0.0008 -0.9421
  175MOL0     C23518   1.782   2.692   2.699 -0.2708 -0.1864 -0.1187
  175MOL0     C23519   1.901   2.702   2.469 -0.2395 -0.4675  0.5714
  175MOL0     C23520   1.844   2.829   2.419  0.9437  0.0865  0.8509
  175MOL0     O23521   1.844   2.852   2.280  0.0925 -0.7410 -0.5841
  175MOL0     C23522   1.790   2.971   2.257  0.3509  0.4510 -0.1639
  175MOL0     C23523   1.869   3.083   2.293 -0.0224 -0.2359  1.3545
  175MOL0     C23524   1.812   3.207   2.291 -0.8338  0.5853 -1.0949
  175MOL0     C23525   1.680   3.221   2.243  0.4005 -0.3881  0.7223
  175MOL0     O23526   1.605   3.336   2.240 -0.2646 -0.8218  0.0613
  175MOL0     C23527   1.683   3.466   2.244 -0.1358  0.6101  0.8433
  175MOL0     C23528   1.670   3.537   2.373  0.0924  0.7294 -0.0830
  175MOL0     C23529   1.775   3.645   2.392 -0.0411 -0.2280  0.9261
  175MOL0     C23530   1.786   3.704   2.539  0.6328 -0.4634 -0.1566
  175MOL0     C23531   1.917   3.786   2.553 -0.3075 -0.0156 -0.0239
  175MOL0     C23532   1.891   3.883   2.671  0.0119 -0.0161  0.3148
  175MOL0     C23533   2.019   3.968   2.702  0.6763 -0.1761 -0.6559
  175MOL0     C23534   1.979   4.088   2.785 -0.4175 -0.0294  0.2252
  175MOL0    Cl23535   1.890   4.048   2.938 -0.0030  0.3936  0.2183
  175MOL0     C23536   1.615   3.106   2.204  0.0188 -0.8379  0.0477
  175MOL0     C23537   1.672   2.982   2.201 -0.3016 -0.0527  0.0835
  175MOL0     O23538   1.804   2.906   2.506 -0.1191 -0.3280 -0.4064
  175MOL0     C23539   1.970   2.624   2.380 -0.1221 -0.0050  0.2021
  175MOL0     C23540   2.038   2.511   2.422 -0.0734  0.8780 -0.3483
  175MOL0     N23541   2.400   1.959   2.523  0.0923  1.1466  0.9320
  175MOL0     N23542   2.489   2.024   2.463  1.1563  0.1493 -0.2820
  175MOL0     C23543   1.864   1.454   2.230  0.3498 -0.5832 -0.8859
  175MOL0     C23544   1.729   1.454   2.279 -0.8327 -0.4640 -0.2274
  175MOL0     C23545   1.350   1.606   2.489  0.7523  0.6010 -0.0894
  175MOL0     C23546   1.311   1.487   2.550 -0.5645  0.5922  0.4690
  175MOL0     C23547   1.189   1.486   2.624  0.2382 -0.5656 -0.3607
  175MOL0     C23548   1.116   1.601   2.642  1.6995  0.5485 -0.3134
  175MOL0     O23549   0.985   1.606   2.696  0.9353 -0.0491  0.4989
  175MOL0     C23550   0.933   1.500   2.770 -0.4551  1.0211 -0.4603
  175MOL0     C23551   0.867   1.382   2.697 -0.2210  0.5622  0.3139
  175MOL0     C23552   0.744   1.441   2.626 -0.3541  0.5219  0.7460
  175MOL0     C23553   0.660   1.340   2.542 -0.7314 -0.3715 -0.3539
  175MOL0     C23554   0.620   1.233   2.630 -0.0875 -0.1131 -0.2680
  175MOL0     C23555   0.562   1.145   2.705  0.0415  0.1537  0.2974
  175MOL0     C23556   1.141   1.709   2.560 -0.2582  0.0638 -0.0686
  175MOL0     C23557   1.264   1.720   2.493  0.1200 -0.2033  1.0081
  175MOL0     H23558   1.758   1.662   2.537  2.2363 -0.1282  0.2700
  175MOL0     H23559   2.001   1.656   2.463 -1.9390  1.8706 -1.0039
  175MOL0     H23560   2.183   1.706   2.250 -0.8912 -0.5819 -1.1235
  175MOL0     H23561   2.206   1.622   2.396  2.1669 -2.5397  0.5815
  175MOL0     H23562   2.357   1.449   2.280 -0.1143 -0.9726  0.1919
  175MOL0     H23563   2.316   1.538   2.138 -2.4783  0.7906  1.0534
  175MOL0     H23564   2.469   1.668   2.372 -1.6339  1.8269 -0.5525
  175MOL0     H23565   2.550   1.573   2.237  1.2113  1.7957 -0.6168
  175MOL0     H23566   2.480   1.725   2.077  0.6865 -0.1914  0.6334
  175MOL0     H23567   2.387   1.827   2.186  2.2411  3.8208  0.0528
  175MOL0     H23568   2.634   1.854   2.285  1.8656  0.6803 -0.0084
  175MOL0     H23569   2.688   1.748   2.154 -1.3079 -2.5171  0.3877
  175MOL0     H23570   2.722   2.007   2.117 -2.4838  2.6302  4.5084
  175MOL0     H23571   2.632   1.936   1.980 -0.3195  0.0499  0.5206
  175MOL0     H23572   2.542   2.167   2.030 -0.3197 -0.6330 -1.2527
  175MOL0     H23573   2.437   2.047   2.055  0.0766  0.6184  0.6126
  175MOL0     H23574   2.485   2.246   2.241 -0.6587  0.0467  3.4572
  175MOL0     H23575   2.627   2.148   2.279  1.9248 -2.8157 -5.2076
  175MOL0     H23576   2.239   2.064   2.254  1.5445 -0.8810 -0.4919
  175MOL0     H23577   2.102   1.892   2.419  0.0880  0.1947  0.3896
  175MOL0     H23578   2.152   1.865   2.582  0.6622  2.0858  1.6361
  175MOL0     H23579   1.961   2.036   2.577  0.1739  0.0166  1.8160
  175MOL0     H23580   2.069   2.132   2.468  3.0118  0.4666  1.0005
  175MOL0     H23581   2.244   2.140   2.652 -0.2552 -1.0525 -0.9065
  175MOL0     H23582   2.115   2.071   2.760 -1.7126 -0.9862 -1.2445
  175MOL0     H23583   2.114   2.320   2.780 -0.6782  2.7041 -1.5727
  175MOL0     H23584   1.965   2.259   2.703 -0.5641 -3.0243 -0.3067
  175MOL0     H23585   1.930   2.484   2.741  0.3866 -1.7094 -0.6260
  175MOL0     H23586   1.694   2.741   2.657 -1.5490 -1.1539  1.3342
  175MOL0     H23587   1.738   2.603   2.745  0.6759 -1.0029 -0.7536
  175MOL0     H23588   1.823   2.757   2.778 -1.9780 -1.4922  1.9553
  175MOL0     H23589   1.962   3.073   2.348 -0.5958  1.6789  2.7611
  175MOL0     H23590   1.867   3.291   2.331  0.2032 -1.1738  1.4036
  175MOL0     H23591   1.790   3.444   2.233 -0.4330 -0.1112 -0.9359
  175MOL0     H23592   1.663   3.529   2.157 -1.6912  2.0348  2.1681
  175MOL0     H23593   1.569   3.577   2.384 -0.8945 -1.4179 -0.7981
  175MOL0     H23594   1.678   3.468   2.457 -2.9548 -0.6383 -0.7759
  175MOL0     H23595   1.748   3.715   2.312 -4.7026 -4.3629 -1.6673
  175MOL0     H23596   1.877   3.613   2.366  0.6522  0.3386  2.7431
  175MOL0     H23597   1.700   3.768   2.561 -0.2147 -1.4104 -0.6489
  175MOL0     H23598   1.794   3.623   2.612  1.1357  0.4688  0.8689
  175MOL0     H23599   1.933   3.842   2.460 -3.1703  0.2221 -0.4856
  175MOL0     H23600   2.001   3.718   2.567  0.1828  0.3632 -1.0124
  175MOL0     H23601   1.807   3.953   2.655  0.4777  0.5449  0.2746
  175MOL0     H23602   1.873   3.815   2.755 -3.4839  0.9714  0.5245
  175MOL0     H23603   2.068   4.004   2.612 -0.2565  2.9159 -0.0569
  175MOL0     H23604   2.088   3.903   2.756 -1.2370 -0.8564  1.1093
  175MOL0     H23605   1.912   4.147   2.721  1.8355  0.4436 -1.8215
  175MOL0     H23606   2.070   4.144   2.806 -1.2140 -0.0450  4.7404
  175MOL0     H23607   1.508   3.112   2.184 -0.2516  2.2251  1.6926
  175MOL0     H23608   1.629   2.891   2.160  2.1719  0.7288 -4.9511
  175MOL0     H23609   1.983   2.650   2.275  1.2453 -3.2667 -0.5679
  175MOL0     H23610   2.106   2.455   2.358  3.6545  2.6476  1.7006
  175MOL0     H23611   1.888   1.396   2.142 -3.9985  1.1336 -3.5720
  175MOL0     H23612   1.664   1.381   2.231  1.7861 -3.4034  0.3336
  175MOL0     H23613   1.376   1.401   2.557  2.1539  2.2554 -2.1126
  175MOL0     H23614   1.145   1.399   2.672 -1.3317  1.9736  3.1571
  175MOL0     H23615   1.014   1.458   2.831 -1.2906 -1.1670 -0.7381
  175MOL0     H23616   0.858   1.527   2.844 -0.4801 -3.3520  1.4602
  175MOL0     H23617   0.841   1.311   2.777 -5.5330  2.9828  1.2256
  175MOL0     H23618   0.924   1.333   2.619 -0.7338 -1.7248  1.2846
  175MOL0     H23619   0.780   1.518   2.558  0.3924  1.5891  2.2913
  175MOL0     H23620   0.676   1.498   2.690  0.0912  0.6529  1.1129
  175MOL0     H23621   0.718   1.297   2.460 -0.9889  0.3646 -0.9356
  175MOL0     H23622   0.573   1.392   2.501 -1.0985 -1.6407 -1.2473
  175MOL0     H23623   0.520   1.057   2.748  1.9145  0.8720  3.9622
  175MOL0     H23624   1.071   1.791   2.552  1.2058  1.2752 -1.2421
  175MOL0     H23625   1.297   1.809   2.441 -1.7616  0.3314  0.6666
  176MOL0     O23626   6.466   1.187   5.903  0.0832 -1.0302  1.5004
  176MOL0     C23627   6.587   1.181   5.924  1.1629 -0.3586 -0.9686
  176MOL0     O23628   6.654   1.254   6.010 -0.5861 -0.0700  0.0153
  176MOL0     C23629   6.586   1.339   6.087  0.1078  0.5364 -0.5092
  176MOL0     C23630   6.521   1.291   6.210 -1.1038  0.3154  0.6144
  176MOL0     C23631   6.440   1.380   6.278  0.0705 -0.0089  0.3666
  176MOL0     C23632   6.428   1.506   6.233  0.4781 -0.2632 -0.6179
  176MOL0     O23633   6.370   1.595   6.318 -0.6797 -0.2896  0.8538
  176MOL0     C23634   6.236   1.629   6.279 -0.1164 -0.6750  0.4134
  176MOL0     C23635   6.209   1.743   6.363  0.3864 -1.2803 -0.7812
  176MOL0     C23636   6.161   1.705   6.502 -0.0688  1.1087  0.8991
  176MOL0     C23637   6.087   1.823   6.562 -0.4057 -0.1152  0.2177
  176MOL0     C23638   6.031   1.792   6.704 -0.0259 -0.0120 -0.8229
  176MOL0     C23639   5.944   1.899   6.771 -0.4053 -0.2581 -0.4970
  176MOL0     C23640   6.009   2.045   6.764  0.4842 -0.1829  0.4501
  176MOL0     C23641   6.149   2.050   6.820  0.5077 -0.4224 -0.8443
  176MOL0     N23642   6.146   2.017   6.966  0.1917  0.8114  0.6759
  176MOL0     C23643   6.135   1.891   7.014  0.1181  0.7649 -0.3446
  176MOL0     C23644   6.106   1.905   7.148 -1.3249  0.5524  0.3486
  176MOL0     C23645   6.092   1.805   7.263 -0.1074 -0.7345 -0.0227
  176MOL0     C23646   5.960   1.726   7.269 -0.3229 -0.5968  0.6676
  176MOL0     C23647   5.912   1.658   7.138 -0.0037 -0.5415 -0.2047
  176MOL0     C23648   5.783   1.569   7.154 -0.9923 -0.2763 -1.1522
  176MOL0     O23649   5.673   1.654   7.139  0.0996  0.5952 -0.3544
  176MOL0     C23650   5.554   1.597   7.170  0.7981  0.2523  0.3295
  176MOL0     C23651   5.531   1.479   7.249 -0.6124  0.3794  0.9586
  176MOL0     C23652   5.403   1.419   7.257  0.7069  0.2167 -0.4270
  176MOL0     C23653   5.388   1.309   7.365  0.2683 -0.8448  0.1657
  176MOL0     C23654   5.297   1.488   7.194  0.2484  0.1996  0.4894
  176MOL0     C23655   5.160   1.441   7.196 -0.6161  0.6805  0.0193
  176MOL0     O23656   5.066   1.526   7.147  0.3514 -0.5432 -0.2823
  176MOL0     C23657   4.942   1.486   7.112 -0.5120  0.1374  0.0173
  176MOL0     C23658   4.831   1.554   7.156  0.5640  0.1769  0.2979
  176MOL0     C23659   4.702   1.523   7.101 -0.1328 -0.5408 -0.0903
  176MOL0     C23660   4.684   1.418   7.007  0.1295  1.8279 -0.0356
  176MOL0     O23661   4.557   1.398   6.962 -0.3636 -0.3649 -0.1012
  176MOL0     C23662   4.511   1.277   7.024  1.4357  1.4248 -0.4905
  176MOL0     C23663   4.406   1.213   6.934  0.3758  0.7608  0.0864
  176MOL0     C23664   4.460   1.206   6.790  0.2719  0.3175  0.2057
  176MOL0     C23665   4.394   1.091   6.702 -0.4781 -0.2291 -0.8283
  176MOL0     C23666   4.488   1.030   6.602  0.4506 -0.2701  0.5791
  176MOL0     C23667   4.560   1.133   6.513  1.1975 -0.1655  0.4028
  176MOL0     C23668   4.572   1.074   6.375 -0.2590 -0.2894  0.0003
  176MOL0     C23669   4.588   1.184   6.273  0.2267  0.4334 -0.5118
  176MOL0    Cl23670   4.725   1.286   6.322  0.1442  0.5328 -0.3687
  176MOL0     C23671   4.796   1.350   6.952  0.4238 -0.5893  0.1852
  176MOL0     C23672   4.925   1.377   7.012  0.1228 -1.2029  0.7017
  176MOL0     O23673   5.136   1.330   7.247  1.1216 -0.1955  0.7299
  176MOL0     C23674   5.322   1.607   7.118  0.1427  0.1241 -0.3451
  176MOL0     C23675   5.450   1.656   7.114  0.4465 -0.3953  0.7729
  176MOL0     N23676   6.135   2.038   7.177  0.3922  0.2009 -0.1873
  176MOL0     N23677   6.124   2.102   7.071  0.0198 -0.1624 -0.2847
  176MOL0     C23678   6.492   1.552   6.116  0.4352  0.5981 -0.0731
  176MOL0     C23679   6.576   1.471   6.048  0.0567 -0.3483 -1.8908
  176MOL0     C23680   6.668   1.074   5.852 -0.5005  0.5535 -0.3583
  176MOL0     C23681   6.807   1.057   5.875  1.0167  0.0471 -0.4832
  176MOL0     C23682   6.882   0.967   5.803 -1.0203 -0.7785  0.5520
  176MOL0     C23683   6.830   0.901   5.691 -0.0638 -0.2836 -0.2275
  176MOL0     O23684   6.917   0.829   5.610  0.5593  0.7195  0.4667
  176MOL0     C23685   6.994   0.734   5.681 -0.2475 -0.3238  0.3396
  176MOL0     C23686   6.939   0.595   5.635 -0.6303  0.1613 -1.3610
  176MOL0     C23687   6.991   0.542   5.499  0.6270 -0.0613  0.6770
  176MOL0     C23688   7.123   0.478   5.510 -0.3910 -0.8224 -0.1448
  176MOL0     C23689   7.164   0.416   5.377  0.5638 -0.5958 -0.3000
  176MOL0     C23690   7.185   0.374   5.263 -0.9952  0.4800 -0.7570
  176MOL0     C23691   6.691   0.909   5.674 -0.5188  0.4297  0.6711
  176MOL0     C23692   6.610   0.991   5.752 -0.2160  0.1084  1.5524
  176MOL0     H23693   6.532   1.190   6.247  3.9110  0.1719 -0.5699
  176MOL0     H23694   6.387   1.341   6.364 -0.8658 -2.3312 -1.1420
  176MOL0     H23695   6.225   1.646   6.171  1.4254  0.8621  0.4554
  176MOL0     H23696   6.168   1.546   6.299  1.0644 -1.9272 -0.5904
  176MOL0     H23697   6.291   1.810   6.387  0.6017 -0.9074 -2.4192
  176MOL0     H23698   6.140   1.805   6.305  1.5100  0.7704 -0.0104
  176MOL0     H23699   6.084   1.629   6.488  0.6587  0.9575 -4.5632
  176MOL0     H23700   6.240   1.659   6.562  1.0834  0.0465 -1.3182
  176MOL0     H23701   6.163   1.901   6.575  1.9403 -2.0977 -0.9670
  176MOL0     H23702   6.007   1.860   6.497  1.0649  0.4155 -1.3505
  176MOL0     H23703   5.976   1.698   6.716  1.8464 -1.1963 -1.1017
  176MOL0     H23704   6.121   1.772   6.763 -2.2478 -2.1969  2.1575
  176MOL0     H23705   5.853   1.894   6.711  0.6980 -1.8392 -2.1342
  176MOL0     H23706   5.926   1.870   6.875  2.3232  0.8937  0.3867
  176MOL0     H23707   6.008   2.081   6.661  1.2311 -0.7134  0.2404
  176MOL0     H23708   5.962   2.116   6.832  0.7342  0.3757  0.0427
  176MOL0     H23709   6.196   2.145   6.795  3.1486 -2.0480 -2.6313
  176MOL0     H23710   6.217   1.980   6.769  1.8073  0.0800  0.1601
  176MOL0     H23711   6.143   1.803   6.950  0.4030  0.8174 -0.3828
  176MOL0     H23712   6.180   1.741   7.267  1.3163  1.1512  0.7641
  176MOL0     H23713   6.100   1.859   7.358  2.3419 -0.0431 -0.5551
  176MOL0     H23714   5.879   1.798   7.286  2.2687  2.5459  0.7615
  176MOL0     H23715   5.962   1.650   7.348  3.5180 -3.0977 -1.5277
  176MOL0     H23716   5.996   1.589   7.120  1.9370  1.3676  0.9747
  176MOL0     H23717   5.885   1.718   7.051  1.2137  0.0487 -0.1979
  176MOL0     H23718   5.782   1.515   7.249  0.8600 -0.6689 -1.3196
  176MOL0     H23719   5.786   1.507   7.064 -0.4916  2.7595 -3.4279
  176MOL0     H23720   5.615   1.424   7.291 -0.0755 -1.7767 -2.5260
  176MOL0     H23721   5.300   1.310   7.429 -1.0055 -0.8041 -1.5408
  176MOL0     H23722   5.374   1.213   7.314 -0.3752 -0.6635 -0.0084
  176MOL0     H23723   5.464   1.301   7.444 -0.7101 -2.6861  0.9694
  176MOL0     H23724   4.856   1.635   7.225  0.5933  0.7074 -0.3215
  176MOL0     H23725   4.616   1.573   7.143  1.7135  3.2595 -0.4021
  176MOL0     H23726   4.590   1.204   7.040  2.2182  2.0861 -1.2238
  176MOL0     H23727   4.472   1.311   7.120  0.2479  0.6781 -0.6820
  176MOL0     H23728   4.383   1.116   6.977 -1.8590  2.3569  2.8122
  176MOL0     H23729   4.312   1.269   6.931 -1.0378 -1.5016 -0.0849
  176MOL0     H23730   4.568   1.193   6.800  0.4670  0.0897 -1.9025
  176MOL0     H23731   4.450   1.301   6.737 -1.5355  0.9338  1.5231
  176MOL0     H23732   4.366   1.016   6.777 -0.1991 -0.9674 -1.4557
  176MOL0     H23733   4.303   1.135   6.660 -0.2007  0.0408 -1.1437
  176MOL0     H23734   4.447   0.950   6.540  0.2258  1.1756 -1.2402
  176MOL0     H23735   4.560   0.976   6.664 -0.6555 -1.2137  1.0807
  176MOL0     H23736   4.498   1.223   6.511  1.1116 -0.1890  1.5811
  176MOL0     H23737   4.652   1.168   6.560 -0.1587  3.0191  0.9511
  176MOL0     H23738   4.485   1.015   6.344 -0.0044 -1.3676  1.2572
  176MOL0     H23739   4.662   1.013   6.368 -0.4745 -1.4427  4.2760
  176MOL0     H23740   4.500   1.249   6.273 -3.0238 -3.5614  0.1623
  176MOL0     H23741   4.608   1.145   6.173 -0.6333 -2.5129  0.3682
  176MOL0     H23742   4.798   1.277   6.871  2.8348  0.1364 -0.4862
  176MOL0     H23743   5.013   1.329   6.970 -0.1153  0.5770 -2.1147
  176MOL0     H23744   5.236   1.657   7.074 -0.1620  0.8640  1.0268
  176MOL0     H23745   5.477   1.730   7.039  0.1212 -3.3546 -2.5447
  176MOL0     H23746   6.475   1.649   6.069 -0.7883  0.3880 -0.0930
  176MOL0     H23747   6.622   1.507   5.956 -1.8568 -2.2524 -3.6876
  176MOL0     H23748   6.856   1.128   5.941 -2.9996  3.1599 -0.3977
  176MOL0     H23749   6.987   0.962   5.831  0.1585  2.6345 -2.4536
  176MOL0     H23750   7.096   0.755   5.647 -0.3530  0.5499  0.5602
  176MOL0     H23751   6.989   0.747   5.789 -1.3402  1.4462  0.1059
  176MOL0     H23752   6.831   0.599   5.622 -1.8984 -1.2881  5.2744
  176MOL0     H23753   6.946   0.523   5.717  0.2162 -0.4236 -1.9345
  176MOL0     H23754   6.991   0.616   5.419 -1.9724 -3.1531 -2.5226
  176MOL0     H23755   6.922   0.462   5.470 -1.1953  1.2065  1.3048
  176MOL0     H23756   7.129   0.408   5.594 -0.6969 -1.1696 -0.4121
  176MOL0     H23757   7.189   0.564   5.525 -0.2258 -1.2727  2.1492
  176MOL0     H23758   7.193   0.344   5.160 -1.2846  1.7548 -1.1734
  176MOL0     H23759   6.656   0.853   5.587 -2.7319  2.4030  0.1694
  176MOL0     H23760   6.503   0.991   5.733 -0.2491 -0.5254  1.7036
  177MOL0     O23761   6.292   8.036   8.077  0.3797  0.2478 -1.1028
  177MOL0     C23762   6.306   7.951   8.160 -0.5942 -0.5256 -0.4251
  177MOL0     O23763   6.273   7.825   8.147 -0.1138 -0.3181 -0.1094
  177MOL0     C23764   6.148   7.780   8.125  0.6543 -0.3037 -0.0234
  177MOL0     C23765   6.131   7.643   8.115 -0.2224 -0.0022 -0.4773
  177MOL0     C23766   5.998   7.587   8.096 -0.0136  0.0301  0.2806
  177MOL0     C23767   5.890   7.669   8.096 -0.2877  0.7430 -0.0009
  177MOL0     O23768   5.764   7.606   8.100  0.0717  0.0689 -0.0942
  177MOL0     C23769   5.727   7.563   7.964 -0.8894 -0.2006 -0.3284
  177MOL0     C23770   5.616   7.647   7.900  0.0392 -0.1130  0.6111
  177MOL0     C23771   5.489   7.669   7.985 -0.8349 -0.8009  1.1515
  177MOL0     C23772   5.382   7.745   7.903  0.7017 -0.4374  0.6892
  177MOL0     C23773   5.316   7.659   7.798  0.4308 -0.5513 -0.0033
  177MOL0     C23774   5.187   7.744   7.753  0.0411  0.9758 -0.4759
  177MOL0     C23775   5.100   7.684   7.637  0.0977  0.5451  0.2964
  177MOL0     C23776   5.161   7.714   7.502  0.7196  0.0771  0.1106
  177MOL0     N23777   5.067   7.658   7.402  0.5263 -0.1926 -0.3525
  177MOL0     C23778   5.077   7.528   7.361  0.2152 -0.4923 -0.6571
  177MOL0     C23779   4.988   7.511   7.257  0.2497 -0.5679 -0.2469
  177MOL0     C23780   4.957   7.397   7.180 -0.4689  0.2825  0.4406
  177MOL0     C23781   5.068   7.315   7.102  0.0036  0.4625  0.0012
  177MOL0     C23782   5.004   7.214   7.014 -0.3756 -0.1597 -0.4855
  177MOL0     C23783   5.094   7.139   6.920 -0.4882 -0.4854  0.8537
  177MOL0     O23784   5.033   7.012   6.887 -0.1776 -0.4128  0.4111
  177MOL0     C23785   5.108   6.919   6.829  1.0380  0.6734 -0.1570
  177MOL0     C23786   5.126   6.926   6.691 -0.0485 -0.6229  0.4501
  177MOL0     C23787   5.213   6.834   6.625 -0.3127 -0.5768 -1.1843
  177MOL0     C23788   5.228   6.840   6.474  0.5290 -0.1914  0.7974
  177MOL0     C23789   5.262   6.721   6.706 -0.4263 -0.1505  0.2348
  177MOL0     C23790   5.352   6.614   6.657  0.8243  0.2567 -0.0923
  177MOL0     O23791   5.470   6.605   6.742 -0.2471  0.2931  0.8129
  177MOL0     C23792   5.558   6.504   6.715 -1.3414 -0.1269 -1.0698
  177MOL0     C23793   5.695   6.537   6.677 -0.4476 -0.3194  0.2230
  177MOL0     C23794   5.787   6.433   6.656  0.0668 -0.0977 -0.4734
  177MOL0     C23795   5.747   6.300   6.669 -0.5251  0.3153 -0.2274
  177MOL0     O23796   5.827   6.191   6.644  0.3946 -0.2337  0.5382
  177MOL0     C23797   5.972   6.206   6.661  0.4552 -0.4186  0.6814
  177MOL0     C23798   6.027   6.070   6.640 -0.6039  0.4225 -0.7805
  177MOL0     C23799   6.180   6.067   6.621  0.4285 -0.8958  0.0837
  177MOL0     C23800   6.234   5.930   6.647  1.2186  0.5286 -0.0426
  177MOL0     C23801   6.211   5.857   6.777 -0.6969  0.8389  0.4637
  177MOL0     C23802   6.291   5.727   6.768 -0.2315 -0.1587  0.2052
  177MOL0     C23803   6.267   5.638   6.892 -0.5883  0.4002 -0.0128
  177MOL0     C23804   6.336   5.496   6.881  0.4297  0.0736 -1.1881
  177MOL0    Cl23805   6.233   5.370   6.803  0.1381  0.2550 -0.0946
  177MOL0     C23806   5.618   6.263   6.700 -0.6557  0.3946 -0.4449
  177MOL0     C23807   5.528   6.366   6.721  0.3018 -0.5491 -0.4232
  177MOL0     O23808   5.333   6.570   6.544 -0.0926 -0.2328 -0.6915
  177MOL0     C23809   5.245   6.722   6.845  0.4091 -0.3567 -0.2984
  177MOL0     C23810   5.166   6.817   6.912  0.7307 -0.2543  1.1869
  177MOL0     N23811   4.923   7.635   7.251  0.6993  0.2773 -0.2311
  177MOL0     N23812   4.979   7.724   7.321 -0.2553 -0.1885 -0.9953
  177MOL0     C23813   5.908   7.807   8.097 -0.3600 -0.2433  1.1270
  177MOL0     C23814   6.033   7.859   8.102  0.4989  0.2714 -0.1326
  177MOL0     C23815   6.399   7.995   8.262 -0.0478  0.0584 -0.5629
  177MOL0     C23816   6.468   7.902   8.344  0.9357  0.7051 -0.1869
  177MOL0     C23817   6.575   7.931   8.431 -0.7660  0.3460 -0.5861
  177MOL0     C23818   6.619   8.054   8.438  1.3197 -0.0811 -0.6093
  177MOL0     O23819   6.718   8.078   8.523 -0.6241 -0.4090 -0.2173
  177MOL0     C23820   6.770   8.211   8.542 -0.3100  0.3705  0.5180
  177MOL0     C23821   6.886   8.177   8.639 -0.5211 -0.6527  0.5430
  177MOL0     C23822   6.838   8.104   8.772 -0.3433 -0.3035  0.6775
  177MOL0     C23823   6.949   8.066   8.866 -0.4315  0.3902 -0.3842
  177MOL0     C23824   6.907   8.059   8.998 -0.3672 -0.5817 -0.2178
  177MOL0     C23825   6.882   8.042   9.113 -0.9221 -0.1376 -0.2575
  177MOL0     C23826   6.567   8.156   8.358  0.2814  0.5330  0.1800
  177MOL0     C23827   6.458   8.126   8.271 -0.3605  0.4640 -0.8353
  177MOL0     H23828   6.224   7.587   8.121  0.8478  1.9158  3.1945
  177MOL0     H23829   5.991   7.480   8.079  2.1483  0.2953 -3.2297
  177MOL0     H23830   5.814   7.546   7.900 -1.4002 -1.2021 -0.7915
  177MOL0     H23831   5.685   7.462   7.976  1.1454 -1.3163 -1.9067
  177MOL0     H23832   5.669   7.738   7.869  1.5029 -1.2179 -0.2332
  177MOL0     H23833   5.586   7.602   7.804  1.5788  0.9905 -0.4397
  177MOL0     H23834   5.436   7.579   8.018 -1.3966 -1.3694 -1.1375
  177MOL0     H23835   5.516   7.721   8.078  1.1922 -1.1547  0.8052
  177MOL0     H23836   5.310   7.775   7.980  0.6851  4.0115 -0.7697
  177MOL0     H23837   5.416   7.836   7.853 -2.3106 -1.8130 -4.6749
  177MOL0     H23838   5.390   7.623   7.727  0.7263 -0.9199  0.4920
  177MOL0     H23839   5.266   7.577   7.850 -1.0783  1.4906  2.0178
  177MOL0     H23840   5.127   7.755   7.844 -2.7546 -5.1579 -1.0635
  177MOL0     H23841   5.226   7.843   7.730  0.0217  1.4525  1.4034
  177MOL0     H23842   5.107   7.577   7.659  0.5676  0.8599  1.8210
  177MOL0     H23843   4.997   7.719   7.642 -1.6095 -4.0392  0.9049
  177MOL0     H23844   5.253   7.657   7.486  0.9625  0.6781 -0.6736
  177MOL0     H23845   5.182   7.820   7.487  0.0591 -0.0007 -1.6246
  177MOL0     H23846   5.155   7.461   7.396 -0.6681 -1.2804 -0.1590
  177MOL0     H23847   4.907   7.322   7.242  1.0347 -2.3092 -1.2636
  177MOL0     H23848   4.884   7.419   7.101  1.5695 -0.5426 -1.8280
  177MOL0     H23849   5.142   7.271   7.169 -0.1112  0.9934  0.4875
  177MOL0     H23850   5.121   7.384   7.034 -2.3882 -0.3978 -2.9723
  177MOL0     H23851   4.918   7.265   6.968 -3.2867  1.2856  5.5143
  177MOL0     H23852   4.969   7.137   7.084 -0.0582  1.0969  1.1147
  177MOL0     H23853   5.190   7.131   6.972 -2.0490  1.7306  4.5048
  177MOL0     H23854   5.118   7.200   6.833 -2.3502 -0.5715  0.2270
  177MOL0     H23855   5.081   6.998   6.624 -2.4878 -0.0299  2.6269
  177MOL0     H23856   5.334   6.835   6.446  0.8035  0.5540  1.6545
  177MOL0     H23857   5.168   6.760   6.431  0.6508  0.2845 -0.3050
  177MOL0     H23858   5.176   6.926   6.431  1.0563 -1.5287 -2.9125
  177MOL0     H23859   5.706   6.644   6.665  0.0260 -0.2918  0.8391
  177MOL0     H23860   5.888   6.465   6.630 -0.4371  5.9822  3.0359
  177MOL0     H23861   6.006   6.267   6.576  2.2543 -1.5569  0.5460
  177MOL0     H23862   6.007   6.253   6.753  1.2853 -2.2833  1.3527
  177MOL0     H23863   6.007   6.012   6.731  1.2157 -1.4923 -1.5013
  177MOL0     H23864   5.968   6.028   6.558 -1.0806  0.5874 -0.5225
  177MOL0     H23865   6.241   6.131   6.684  1.1074 -1.2682 -0.1734
  177MOL0     H23866   6.199   6.098   6.518 -0.1277  1.2835  0.5885
  177MOL0     H23867   6.180   5.867   6.576 -0.7534  2.2656 -0.1695
  177MOL0     H23868   6.342   5.933   6.627  1.8416 -0.4300  2.7546
  177MOL0     H23869   6.107   5.824   6.789  0.8537 -4.6235  1.8712
  177MOL0     H23870   6.242   5.921   6.860  0.2474  1.7513 -0.5695
  177MOL0     H23871   6.278   5.669   6.677 -0.1513  0.5641 -0.2828
  177MOL0     H23872   6.400   5.737   6.774  0.4152 -5.3942  2.2178
  177MOL0     H23873   6.162   5.609   6.902  0.2661 -2.3233  2.5598
  177MOL0     H23874   6.304   5.685   6.984 -0.5787 -1.2780  0.8705
  177MOL0     H23875   6.344   5.456   6.983 -3.4552 -0.3650 -0.8818
  177MOL0     H23876   6.443   5.496   6.860  1.0104  1.2953  1.3432
  177MOL0     H23877   5.602   6.156   6.705 -1.4573  0.5567  0.7340
  177MOL0     H23878   5.422   6.343   6.733 -0.3695  1.5800 -1.6394
  177MOL0     H23879   5.300   6.658   6.914  1.5074 -1.3587 -2.0499
  177MOL0     H23880   5.150   6.825   7.019 -1.0204 -1.7477  1.0837
  177MOL0     H23881   5.826   7.879   8.089  0.1684  0.1369 -2.4427
  177MOL0     H23882   6.052   7.966   8.106  0.7345  0.3393 -2.1576
  177MOL0     H23883   6.433   7.800   8.349  1.0090  0.7495  1.7664
  177MOL0     H23884   6.627   7.851   8.482  2.3045  1.9463 -1.0000
  177MOL0     H23885   6.809   8.259   8.452  0.3168 -0.6544  0.2187
  177MOL0     H23886   6.691   8.269   8.591 -1.4060 -0.6468  0.0058
  177MOL0     H23887   6.925   8.279   8.650  0.3657 -1.0610  1.2350
  177MOL0     H23888   6.969   8.125   8.591  1.6425  0.6647  2.6319
  177MOL0     H23889   6.794   8.006   8.747 -0.9713 -0.9277  3.8409
  177MOL0     H23890   6.775   8.175   8.826  0.2314  0.5605  0.2394
  177MOL0     H23891   7.026   8.141   8.852 -1.1322  1.1966 -0.0008
  177MOL0     H23892   6.991   7.975   8.823 -1.3304  0.4935 -1.5313
  177MOL0     H23893   6.871   8.041   9.220  1.5230  0.2278  0.0654
  177MOL0     H23894   6.602   8.258   8.369 -1.3086  0.8266  4.5519
  177MOL0     H23895   6.426   8.203   8.202  1.7843  0.1216 -2.3150
  178MOL0     O23896   3.813   7.602   0.484  0.4497  0.3965 -0.0491
  178MOL0     C23897   3.817   7.498   0.425 -0.4149 -0.1934 -0.0159
  178MOL0     O23898   3.771   7.482   0.305 -0.4153  0.4807  0.2096
  178MOL0     C23899   3.722   7.574   0.218 -0.4777  0.2409 -0.8611
  178MOL0     C23900   3.596   7.553   0.162 -0.3957  0.2435 -0.1131
  178MOL0     C23901   3.548   7.649   0.072 -0.1247 -0.3116 -0.4354
  178MOL0     C23902   3.615   7.773   0.053  0.0320 -0.1354 -0.6153
  178MOL0     O23903   3.568   7.862  -0.040 -0.7922 -0.7628 -0.7598
  178MOL0     C23904   3.433   7.887  -0.067 -0.3399  0.3472 -0.2537
  178MOL0     C23905   3.344   7.911   0.062 -0.1137  0.7447  0.6501
  178MOL0     C23906   3.204   7.958   0.044 -0.1219  0.4355 -0.2960
  178MOL0     C23907   3.145   7.991   0.182  0.5788  0.3778  0.3357
  178MOL0     C23908   3.022   8.086   0.167  0.0759 -0.9594  0.2908
  178MOL0     C23909   2.945   8.083   0.297  0.2416  0.3778 -0.6414
  178MOL0     C23910   2.820   8.169   0.310 -0.2071 -0.0367  0.0932
  178MOL0     C23911   2.836   8.287   0.402  0.0160 -0.3628 -0.2582
  178MOL0     N23912   2.821   8.253   0.546  0.9509 -0.3989  0.4850
  178MOL0     C23913   2.698   8.234   0.609 -0.1493 -0.3909 -0.4339
  178MOL0     C23914   2.740   8.209   0.736 -0.1388 -0.1020 -0.9204
  178MOL0     C23915   2.645   8.166   0.853 -1.5335 -0.1578  0.3288
  178MOL0     C23916   2.719   8.206   0.987  0.2517 -0.6943 -0.2303
  178MOL0     C23917   2.637   8.189   1.110 -0.8011  0.0832 -0.2938
  178MOL0     C23918   2.726   8.233   1.233 -1.2204  0.7170 -0.0497
  178MOL0     O23919   2.650   8.229   1.350  0.3263 -0.0074 -0.5269
  178MOL0     C23920   2.615   8.346   1.420 -0.4427 -0.5951 -0.6743
  178MOL0     C23921   2.554   8.332   1.545 -0.4387  0.6372 -0.6765
  178MOL0     C23922   2.522   8.436   1.627  0.3783 -0.1820 -0.8498
  178MOL0     C23923   2.450   8.404   1.762 -0.2842  0.5376 -0.1877
  178MOL0     C23924   2.555   8.566   1.581  1.4442  0.6376 -0.0208
  178MOL0     C23925   2.511   8.678   1.657 -0.3261  0.9915 -0.3931
  178MOL0     O23926   2.548   8.677   1.791  0.6743  0.3903  0.3692
  178MOL0     C23927   2.485   8.754   1.885  0.2705  0.2656 -0.5284
  178MOL0     C23928   2.382   8.852   1.871  0.3620  0.0678  0.9087
  178MOL0     C23929   2.333   8.915   1.989  0.1825 -0.9192 -0.2517
  178MOL0     C23930   2.385   8.885   2.113 -0.4346 -0.4873  0.9250
  178MOL0     O23931   2.314   8.918   2.219 -0.3227 -1.0152  0.0262
  178MOL0     C23932   2.377   8.935   2.346  0.1377  0.8772  1.3838
  178MOL0     C23933   2.274   8.914   2.452 -0.1537 -0.5976 -0.1777
  178MOL0     C23934   2.222   8.760   2.446 -0.2902  0.0259 -0.4896
  178MOL0     C23935   2.121   8.719   2.552  0.3989 -0.5633  0.4287
  178MOL0     C23936   2.189   8.706   2.687  0.0208 -0.0046  0.4533
  178MOL0     C23937   2.066   8.673   2.790  0.7776  0.0592 -0.4525
  178MOL0     C23938   2.117   8.656   2.932  0.7331  0.5654  1.0862
  178MOL0     C23939   2.174   8.788   2.979  0.0306  0.6491  0.4190
  178MOL0    Cl23940   2.061   8.932   2.969 -0.2961 -0.3661 -0.1940
  178MOL0     C23941   2.481   8.784   2.123 -0.0150 -0.5364 -0.3152
  178MOL0     C23942   2.531   8.725   2.008  0.0586 -0.5932  0.7520
  178MOL0     O23943   2.455   8.769   1.593  0.1899 -0.8216  0.4228
  178MOL0     C23944   2.628   8.584   1.460  0.3216  0.0020  0.4059
  178MOL0     C23945   2.647   8.473   1.385  0.3180  0.6964  0.0086
  178MOL0     N23946   2.881   8.226   0.747 -1.1338  0.3509  0.3176
  178MOL0     N23947   2.926   8.241   0.630  0.8842 -0.7806 -0.4221
  178MOL0     C23948   3.736   7.784   0.111  0.6208  0.1689  0.0861
  178MOL0     C23949   3.783   7.695   0.190 -0.4832  0.0754  0.0960
  178MOL0     C23950   3.848   7.368   0.492 -0.6244  0.2761  0.1117
  178MOL0     C23951   3.822   7.245   0.425 -1.3441  0.1104 -0.1931
  178MOL0     C23952   3.863   7.124   0.484 -1.2376 -0.1991  0.3370
  178MOL0     C23953   3.922   7.126   0.616 -0.1234  0.0662  0.8071
  178MOL0     O23954   3.947   7.002   0.666  1.0066  0.0588 -0.7414
  178MOL0     C23955   3.924   6.984   0.809  0.2516  0.4737 -0.0420
  178MOL0     C23956   3.911   6.836   0.865  0.0195 -0.5337  0.4041
  178MOL0     C23957   4.023   6.735   0.831 -0.0958  0.2739 -0.5999
  178MOL0     C23958   3.981   6.593   0.885 -0.4947 -0.0393  0.4138
  178MOL0     C23959   3.893   6.541   0.788  0.5592  0.0712  0.6002
  178MOL0     C23960   3.824   6.505   0.692 -0.0892 -0.5201 -0.2006
  178MOL0     C23961   3.937   7.244   0.681  0.3207  0.7561  0.6399
  178MOL0     C23962   3.910   7.366   0.620  0.2475 -0.8087 -1.2022
  178MOL0     H23963   3.537   7.462   0.166 -1.5334  1.0076  2.0489
  178MOL0     H23964   3.448   7.634   0.034 -0.9169  0.1268  1.3489
  178MOL0     H23965   3.423   7.971  -0.136 -1.0323 -1.6995 -2.8075
  178MOL0     H23966   3.394   7.795  -0.113  0.0380 -0.5884  1.2209
  178MOL0     H23967   3.328   7.824   0.126  5.9742  1.7213  4.3028
  178MOL0     H23968   3.394   7.990   0.119  0.5010  0.1085  1.0099
  178MOL0     H23969   3.210   8.051  -0.014 -1.5805  0.8523  0.1823
  178MOL0     H23970   3.135   7.887  -0.003 -0.1218 -0.3493  0.8601
  178MOL0     H23971   3.101   7.896   0.213  0.6974 -1.1960 -3.7737
  178MOL0     H23972   3.209   8.040   0.256 -0.5461  1.9297  0.3471
  178MOL0     H23973   3.070   8.185   0.156 -2.9102  0.7558  1.6282
  178MOL0     H23974   2.959   8.068   0.080  4.9045 -4.7778 -2.9635
  178MOL0     H23975   2.901   7.984   0.313 -4.6138  2.5979  2.0037
  178MOL0     H23976   3.012   8.091   0.383 -0.8676 -0.4855  0.3338
  178MOL0     H23977   2.790   8.202   0.210 -2.6541 -1.4616  0.2708
  178MOL0     H23978   2.733   8.122   0.357 -1.2529  0.0431 -1.7038
  178MOL0     H23979   2.762   8.362   0.375 -1.2700 -0.9630  1.4097
  178MOL0     H23980   2.934   8.326   0.374 -0.4886 -0.1163 -1.8366
  178MOL0     H23981   2.594   8.238   0.580 -0.8120  4.6793  1.6668
  178MOL0     H23982   2.550   8.217   0.834 -1.1353  1.3392  2.1212
  178MOL0     H23983   2.624   8.058   0.849 -1.6875 -0.0982 -2.7375
  178MOL0     H23984   2.753   8.310   0.988  2.0705 -1.1410  3.7902
  178MOL0     H23985   2.809   8.145   1.002 -0.5096 -1.6584  0.4925
  178MOL0     H23986   2.600   8.089   1.130 -2.9839  0.6870 -0.9654
  178MOL0     H23987   2.559   8.265   1.098 -0.3466  0.8389  1.2378
  178MOL0     H23988   2.776   8.325   1.201 -1.5332  0.7015 -0.6165
  178MOL0     H23989   2.799   8.154   1.251 -1.0637  0.6945 -0.7495
  178MOL0     H23990   2.542   8.224   1.553  2.7557  0.0248 -2.2980
  178MOL0     H23991   2.357   8.461   1.763 -0.8160 -0.2776  1.9708
  178MOL0     H23992   2.432   8.296   1.761  1.2215  0.2136  1.6967
  178MOL0     H23993   2.516   8.423   1.847 -0.6841 -2.8075  1.0247
  178MOL0     H23994   2.336   8.878   1.776 -0.5482 -1.3926  0.9158
  178MOL0     H23995   2.252   8.988   1.984  0.6709 -0.4390 -1.6223
  178MOL0     H23996   2.453   8.860   2.371 -0.3901  0.5579  2.0465
  178MOL0     H23997   2.440   9.024   2.357 -0.2310  1.4273 -0.5520
  178MOL0     H23998   2.309   8.931   2.554 -0.2654  2.6673 -0.5891
  178MOL0     H23999   2.195   8.989   2.448  0.3261  0.4697  4.5682
  178MOL0     H24000   2.311   8.698   2.459 -0.6585 -1.0619 -2.7048
  178MOL0     H24001   2.183   8.747   2.344  1.1143 -0.3863 -1.0059
  178MOL0     H24002   2.040   8.793   2.550 -0.2964 -1.3114 -1.5655
  178MOL0     H24003   2.075   8.624   2.525 -1.7237  0.8975 -1.5203
  178MOL0     H24004   2.221   8.805   2.721 -0.5117  0.1712  0.4526
  178MOL0     H24005   2.264   8.625   2.688 -1.1402 -1.1160  1.6068
  178MOL0     H24006   1.980   8.741   2.787 -1.0608 -2.1564 -2.3710
  178MOL0     H24007   2.013   8.581   2.765  1.9476 -1.1156  1.2232
  178MOL0     H24008   2.200   8.585   2.941  1.5691  1.3637 -0.0363
  178MOL0     H24009   2.030   8.625   2.991 -0.2002  2.6589  0.8819
  178MOL0     H24010   2.268   8.817   2.929  0.7059  2.7725  2.7264
  178MOL0     H24011   2.200   8.790   3.085 -0.5279  1.7559  0.5443
  178MOL0     H24012   2.524   8.768   2.221 -0.6582  3.9216  0.8912
  178MOL0     H24013   2.610   8.655   2.032  1.6342  1.3806  1.6447
  178MOL0     H24014   2.656   8.686   1.438  2.6905 -1.0099 -1.7157
  178MOL0     H24015   2.707   8.494   1.297  1.9303 -1.5320  0.5098
  178MOL0     H24016   3.780   7.878   0.079 -1.5836  0.5050 -2.2499
  178MOL0     H24017   3.875   7.706   0.247 -0.9554 -0.2714  0.9415
  178MOL0     H24018   3.771   7.245   0.329  1.3530  4.0755 -1.9086
  178MOL0     H24019   3.838   7.026   0.442 -1.1740  0.0126 -0.2066
  178MOL0     H24020   4.013   7.028   0.854  0.6207 -0.6595  0.3595
  178MOL0     H24021   3.832   7.039   0.834 -1.6512 -2.8685  0.8775
  178MOL0     H24022   3.823   6.793   0.817  0.2497  1.4054 -1.9438
  178MOL0     H24023   3.890   6.853   0.971  1.0591  1.1864  0.3902
  178MOL0     H24024   4.118   6.769   0.874 -1.5563  4.8967 -0.4946
  178MOL0     H24025   4.038   6.719   0.724  0.3123  2.5515 -0.9262
  178MOL0     H24026   3.948   6.605   0.989  2.5738  0.5975  1.4046
  178MOL0     H24027   4.064   6.522   0.886 -0.5370 -0.0847  0.8676
  178MOL0     H24028   3.763   6.472   0.611  2.4663 -1.9778 -1.6408
  178MOL0     H24029   3.987   7.262   0.776  1.1266  3.1627 -0.1591
  178MOL0     H24030   3.917   7.457   0.679  5.3782 -0.7863 -1.3483
  179MOL0     O24031   6.455  10.046  10.706 -0.9320 -0.4838  0.3866
  179MOL0     C24032   6.494  10.122  10.797 -0.3902  0.7963  0.6618
  179MOL0     O24033   6.467  10.257  10.815  0.0732 -0.2835 -0.3349
  179MOL0     C24034   6.400  10.333  10.723 -0.2293  0.0643  0.2393
  179MOL0     C24035   6.426  10.328  10.583 -0.5278  0.1836  0.1607
  179MOL0     C24036   6.361  10.411  10.486 -0.8171 -0.2624  0.0032
  179MOL0     C24037   6.267  10.504  10.538  0.3738 -0.9171  1.1280
  179MOL0     O24038   6.205  10.583  10.441  0.4622 -0.3999  0.6351
  179MOL0     C24039   6.129  10.695  10.481 -0.8703 -0.0403  0.0357
  179MOL0     C24040   6.077  10.769  10.353  0.2020  0.3593  0.3995
  179MOL0     C24041   5.950  10.856  10.382 -0.6587  0.2203 -0.1739
  179MOL0     C24042   5.829  10.770  10.409 -0.2409 -0.3398  0.9426
  179MOL0     C24043   5.719  10.806  10.301  0.4105 -0.1601 -0.6131
  179MOL0     C24044   5.592  10.719  10.295  0.2100 -0.0106 -0.5881
  179MOL0     C24045   5.498  10.753  10.180 -0.2792 -0.5436  0.8639
  179MOL0     C24046   5.562  10.737  10.039  0.3572  0.3530 -0.3094
  179MOL0     N24047   5.591  10.595  10.002  0.1707  0.3289 -0.4098
  179MOL0     C24048   5.711  10.535   9.999  0.3634 -0.0625 -1.6703
  179MOL0     C24049   5.693  10.419   9.928 -0.6734  0.3387 -0.7015
  179MOL0     C24050   5.798  10.322   9.879  0.3272  0.1502 -0.1618
  179MOL0     C24051   5.815  10.348   9.730 -0.4564  0.0676 -0.1757
  179MOL0     C24052   5.929  10.254   9.670  0.0118 -0.2387 -0.6651
  179MOL0     C24053   5.965  10.280   9.523  0.1653  1.0191  0.7832
  179MOL0     O24054   6.091  10.220   9.492 -0.0886 -0.4210  0.9695
  179MOL0     C24055   6.181  10.298   9.413 -0.4852 -0.0704  0.8422
  179MOL0     C24056   6.147  10.424   9.344  0.5420  0.1785  0.1357
  179MOL0     C24057   6.257  10.503   9.296 -0.2153  0.2598  0.0449
  179MOL0     C24058   6.228  10.639   9.249  0.0507  0.4392 -0.0418
  179MOL0     C24059   6.389  10.450   9.300 -0.1555 -1.9952  0.2521
  179MOL0     C24060   6.504  10.525   9.243  0.0340 -0.3708 -1.0682
  179MOL0     O24061   6.489  10.625   9.155 -0.5321 -0.6244 -0.0235
  179MOL0     C24062   6.586  10.642   9.057 -1.0840 -0.0244  0.0861
  179MOL0     C24063   6.555  10.748   8.969  0.1238  0.4975  0.2459
  179MOL0     C24064   6.623  10.764   8.849 -0.2144  0.5669  0.0532
  179MOL0     C24065   6.727  10.678   8.813 -0.8480  0.4248 -0.6171
  179MOL0     O24066   6.813  10.703   8.715 -0.0952  0.6338  0.2012
  179MOL0     C24067   6.785  10.806   8.621  0.7104  0.3006  0.1720
  179MOL0     C24068   6.677  10.765   8.515 -0.0938  0.0493 -0.2326
  179MOL0     C24069   6.657  10.871   8.412 -0.3698 -0.4890  0.7815
  179MOL0     C24070   6.626  10.812   8.275  0.1836  0.1618 -0.0095
  179MOL0     C24071   6.597  10.926   8.169  0.1842  0.2512  0.5576
  179MOL0     C24072   6.717  11.013   8.144 -0.6778 -0.5703  0.3077
  179MOL0     C24073   6.693  11.103   8.021 -0.7766 -0.3049 -0.5550
  179MOL0     C24074   6.589  11.217   8.048 -0.2375 -0.4063 -0.6258
  179MOL0    Cl24075   6.578  11.299   7.895 -0.0463  0.3532  0.5978
  179MOL0     C24076   6.754  10.565   8.897  0.1223 -0.9122 -0.3329
  179MOL0     C24077   6.683  10.548   9.012 -0.1524 -0.1455 -0.2876
  179MOL0     O24078   6.610  10.494   9.284 -0.9773  0.2251 -0.2679
  179MOL0     C24079   6.421  10.326   9.343  0.1333  0.1926  0.3292
  179MOL0     C24080   6.320  10.255   9.401 -0.0895  0.1253 -0.8311
  179MOL0     N24081   5.553  10.421   9.898 -0.7130  0.6929  0.2354
  179MOL0     N24082   5.497  10.526   9.937  0.0825  0.3131  0.1161
  179MOL0     C24083   6.237  10.516  10.668  0.8347  0.3472 -0.0494
  179MOL0     C24084   6.307  10.430  10.763  0.7255  0.3902 -0.6646
  179MOL0     C24085   6.586  10.053  10.890 -0.1633  0.7587  0.2502
  179MOL0     C24086   6.667   9.951  10.838  0.0773 -0.4954 -0.0901
  179MOL0     C24087   6.744   9.873  10.925  1.0105  0.5070 -0.0564
  179MOL0     C24088   6.756   9.910  11.061 -0.8591 -0.6530  0.8899
  179MOL0     O24089   6.845   9.845  11.131  0.0129  0.1340 -0.2274
  179MOL0     C24090   6.948   9.923  11.197 -0.6661 -0.8482  1.2495
  179MOL0     C24091   6.998  10.057  11.127  0.6520  0.0795 -0.3763
  179MOL0     C24092   7.096  10.137  11.206  0.0738 -1.4256  0.1404
  179MOL0     C24093   7.218  10.053  11.246 -0.0323 -1.0552  1.5940
  179MOL0     C24094   7.313  10.024  11.134 -0.3015  0.2120  0.1327
  179MOL0     C24095   7.402  10.024  11.051 -0.8342 -0.2726 -0.6954
  179MOL0     C24096   6.676  10.013  11.112 -0.7812  0.3432 -0.7053
  179MOL0     C24097   6.587  10.090  11.030 -0.3756 -0.2161 -0.4912
  179MOL0     H24098   6.505  10.266  10.542  0.9727  2.5190 -0.6354
  179MOL0     H24099   6.389  10.423  10.382  0.7731  1.4696  0.5689
  179MOL0     H24100   6.041  10.651  10.529 -0.5617  1.0164  1.6467
  179MOL0     H24101   6.175  10.763  10.553 -0.6281  0.9711 -1.0422
  179MOL0     H24102   6.164  10.832  10.329  2.4791 -1.6395  2.7632
  179MOL0     H24103   6.057  10.703  10.268  2.0912 -2.9867  2.3349
  179MOL0     H24104   5.957  10.925  10.466 -0.5454  0.1758 -0.1457
  179MOL0     H24105   5.925  10.917  10.295  1.9563  0.9699 -0.4923
  179MOL0     H24106   5.847  10.664  10.391 -0.9892 -0.5286  1.2759
  179MOL0     H24107   5.809  10.764  10.516 -0.0054 -1.3289  0.9395
  179MOL0     H24108   5.694  10.912  10.304  1.9640  0.3146 -2.5823
  179MOL0     H24109   5.756  10.797  10.198  0.4322  0.4863 -0.6665
  179MOL0     H24110   5.621  10.616  10.274 -1.7940 -0.7254 -0.0790
  179MOL0     H24111   5.540  10.714  10.391  3.3155 -4.4448  1.1806
  179MOL0     H24112   5.411  10.687  10.185 -4.5566  3.9954 -2.9066
  179MOL0     H24113   5.459  10.855  10.181 -4.0424 -1.8336 -0.2481
  179MOL0     H24114   5.647  10.803  10.019 -0.3343  0.8874 -1.6190
  179MOL0     H24115   5.487  10.783   9.974  0.1019 -0.4158 -0.5746
  179MOL0     H24116   5.801  10.580  10.038 -0.2711 -2.1992  2.8934
  179MOL0     H24117   5.889  10.337   9.937  1.9087 -3.1976 -1.4931
  179MOL0     H24118   5.772  10.216   9.889 -0.4500  0.2091 -1.3599
  179MOL0     H24119   5.822  10.455   9.705 -5.1008  0.2629 -1.6780
  179MOL0     H24120   5.720  10.332   9.677 -0.9459 -0.0573  0.7238
  179MOL0     H24121   5.899  10.149   9.683 -0.9295 -0.3464 -3.1547
  179MOL0     H24122   6.018  10.271   9.730 -0.7516 -2.9506  1.4531
  179MOL0     H24123   5.963  10.389   9.516 -0.5136  1.0116  0.7529
  179MOL0     H24124   5.894  10.241   9.450  3.9605 -0.6417 -2.3207
  179MOL0     H24125   6.044  10.460   9.343  1.0903  1.8140 -0.1191
  179MOL0     H24126   6.217  10.637   9.141 -3.9660 -4.5141  0.0941
  179MOL0     H24127   6.129  10.676   9.279 -0.4709 -0.4583 -0.6138
  179MOL0     H24128   6.304  10.709   9.286 -0.6840  1.6425 -0.7529
  179MOL0     H24129   6.475  10.820   8.982 -0.5994  0.3244 -2.6637
  179MOL0     H24130   6.592  10.846   8.784  2.0714  0.9010 -0.6933
  179MOL0     H24131   6.769  10.900   8.675  0.8018  0.6149 -0.3385
  179MOL0     H24132   6.869  10.829   8.555  0.2002  1.6102 -0.0503
  179MOL0     H24133   6.694  10.664   8.479  0.5879  0.1769 -0.2765
  179MOL0     H24134   6.584  10.754   8.572  0.5080  0.4329  0.8567
  179MOL0     H24135   6.745  10.935   8.398 -2.9532  2.8291 -2.3792
  179MOL0     H24136   6.568  10.929   8.439  1.1106  2.6796 -0.5887
  179MOL0     H24137   6.705  10.747   8.235 -1.8701 -4.0999  2.1662
  179MOL0     H24138   6.534  10.752   8.281 -0.8441  1.8297  1.9042
  179MOL0     H24139   6.515  10.985   8.211 -0.4728 -1.2157  1.4118
  179MOL0     H24140   6.558  10.888   8.075 -3.6870  2.4304  1.0359
  179MOL0     H24141   6.737  11.087   8.222 -0.1891  0.8447 -1.1135
  179MOL0     H24142   6.802  10.946   8.126 -0.3720  0.8135 -4.7895
  179MOL0     H24143   6.649  11.046   7.938  0.5703 -1.7651 -0.3252
  179MOL0     H24144   6.791  11.139   7.990 -0.2667 -0.7287  0.5041
  179MOL0     H24145   6.633  11.285   8.122 -3.6321 -0.2410  1.4649
  179MOL0     H24146   6.495  11.179   8.090 -2.5264  2.7837 -2.3918
  179MOL0     H24147   6.834  10.495   8.873 -0.5171 -3.0005  2.9449
  179MOL0     H24148   6.712  10.460   9.069  5.8761  1.2603 -0.4924
  179MOL0     H24149   6.524  10.294   9.348  0.8706  2.2023 -0.6733
  179MOL0     H24150   6.338  10.161   9.452 -1.9342  0.4375  0.5400
  179MOL0     H24151   6.192  10.601  10.716  4.0361  2.4381 -0.4241
  179MOL0     H24152   6.296  10.445  10.870  2.1107  1.4041 -0.6403
  179MOL0     H24153   6.664   9.929  10.732 -2.3090  1.5807 -0.5635
  179MOL0     H24154   6.799   9.785  10.893  0.5769  0.3496 -0.3736
  179MOL0     H24155   6.914   9.957  11.295  3.3679 -1.1401  2.9557
  179MOL0     H24156   7.035   9.857  11.212 -1.6083 -2.1997  0.9654
  179MOL0     H24157   6.907  10.114  11.107  0.7358 -0.6849 -3.3642
  179MOL0     H24158   7.053  10.026  11.037  0.0270  0.0815 -0.7644
  179MOL0     H24159   7.037  10.168  11.292 -1.0550 -0.4186 -0.9738
  179MOL0     H24160   7.122  10.229  11.153 -0.3240  0.4269  2.9789
  179MOL0     H24161   7.212   9.962  11.307  0.4894  0.4039  3.9456
  179MOL0     H24162   7.284  10.118  11.304  0.5413  0.3583 -0.5271
  179MOL0     H24163   7.473  10.030  10.971  0.0374  1.7330  0.1469
  179MOL0     H24164   6.673  10.029  11.219 -2.1794  3.7443 -1.1078
  179MOL0     H24165   6.511  10.161  11.062 -1.1453 -1.8717  1.5861
  180MOL0     O24166   1.624   9.784   6.953 -0.1071  0.5303 -0.3862
  180MOL0     C24167   1.696   9.753   7.049  0.0758  0.5414 -0.4528
  180MOL0     O24168   1.693   9.632   7.118  0.4102 -0.5954 -0.0420
  180MOL0     C24169   1.644   9.521   7.049 -0.0466 -0.0780  0.3244
  180MOL0     C24170   1.552   9.420   7.102 -0.3437 -0.7042  0.4638
  180MOL0     C24171   1.506   9.315   7.024 -0.2761  0.1849 -0.5219
  180MOL0     C24172   1.544   9.295   6.892 -0.3206 -0.1047  0.0747
  180MOL0     O24173   1.512   9.182   6.821  0.2104 -0.7062 -0.1215
  180MOL0     C24174   1.372   9.187   6.767  0.8783 -0.9637 -0.0754
  180MOL0     C24175   1.286   9.096   6.844 -0.2917 -0.0768 -0.1438
  180MOL0     C24176   1.285   8.958   6.786 -0.1394 -0.1242  0.0049
  180MOL0     C24177   1.383   8.863   6.859  0.6344  0.5574 -0.1192
  180MOL0     C24178   1.393   8.722   6.796 -0.2060  0.9158 -0.2043
  180MOL0     C24179   1.442   8.616   6.901  0.7762  0.5141 -0.2505
  180MOL0     C24180   1.491   8.495   6.817  0.2861 -0.5929 -0.3606
  180MOL0     C24181   1.626   8.530   6.745  0.1608  0.4729 -0.0320
  180MOL0     N24182   1.679   8.408   6.668 -0.0813  0.5822  0.3124
  180MOL0     C24183   1.613   8.362   6.553  0.7540 -0.4843  0.0011
  180MOL0     C24184   1.699   8.268   6.512  0.1716 -0.0462  0.2293
  180MOL0     C24185   1.700   8.211   6.380  0.1319  0.2378  0.2215
  180MOL0     C24186   1.712   8.062   6.385  0.9672 -0.0895 -0.4381
  180MOL0     C24187   1.846   8.004   6.433  0.6945  0.9601 -0.3962
  180MOL0     C24188   1.854   7.855   6.408 -0.3328 -0.5322  0.0699
  180MOL0     O24189   1.875   7.830   6.264  0.7605 -0.1768  0.5379
  180MOL0     C24190   2.001   7.825   6.204  0.0749 -0.3450 -0.8541
  180MOL0     C24191   2.109   7.806   6.279 -0.7284  0.4217  0.0857
  180MOL0     C24192   2.237   7.819   6.222 -0.3497 -0.8105 -0.6604
  180MOL0     C24193   2.346   7.817   6.328  0.4838  0.6999 -0.3949
  180MOL0     C24194   2.256   7.851   6.081  0.9066 -0.0105 -0.3471
  180MOL0     C24195   2.396   7.870   6.019  0.1192 -0.1449 -0.5103
  180MOL0     O24196   2.397   7.883   5.885  0.3432  0.4862 -0.5262
  180MOL0     C24197   2.507   7.897   5.808 -1.0363 -0.0474 -0.4819
  180MOL0     C24198   2.490   7.935   5.670  0.5150  0.2815  0.8207
  180MOL0     C24199   2.604   7.941   5.583 -0.1975  0.6008  0.3740
  180MOL0     C24200   2.729   7.905   5.624 -1.0746 -0.0183 -0.8031
  180MOL0     O24201   2.841   7.916   5.544 -0.6441 -1.2016 -0.5258
  180MOL0     C24202   2.891   7.798   5.472  0.2897 -0.3456 -0.2407
  180MOL0     C24203   3.029   7.753   5.541  1.4956 -0.8717 -0.0805
  180MOL0     C24204   3.147   7.805   5.475  0.3777 -0.3238  0.1232
  180MOL0     C24205   3.268   7.823   5.577  0.1705  0.9817  0.5994
  180MOL0     C24206   3.376   7.877   5.486 -0.2833 -0.2797 -1.0533
  180MOL0     C24207   3.525   7.830   5.506  0.3245  1.6991 -0.6683
  180MOL0     C24208   3.563   7.784   5.647  0.5510 -0.0845  0.6252
  180MOL0     C24209   3.616   7.906   5.729  0.5468 -0.5328 -0.0401
  180MOL0    Cl24210   3.494   8.031   5.757 -0.0269 -0.3606 -0.7264
  180MOL0     C24211   2.742   7.872   5.760  0.6486  0.0701  0.3970
  180MOL0     C24212   2.639   7.871   5.846  0.9831 -0.1233  0.0702
  180MOL0     O24213   2.488   7.887   6.099  0.1309 -0.5923  0.0533
  180MOL0     C24214   2.141   7.851   6.007  0.7550 -0.1150  0.5915
  180MOL0     C24215   2.009   7.833   6.064 -0.7918 -0.6260 -0.8577
  180MOL0     N24216   1.800   8.255   6.604  0.2505  0.0856  0.3037
  180MOL0     N24217   1.788   8.333   6.704 -1.1572  0.1797  0.7463
  180MOL0     C24218   1.634   9.385   6.844  0.0527 -1.2809  0.2402
  180MOL0     C24219   1.689   9.496   6.920  0.5919  0.6904  0.7892
  180MOL0     C24220   1.778   9.863   7.110  0.3890  0.0854 -1.2761
  180MOL0     C24221   1.866   9.838   7.220 -0.4071  0.1151 -0.4871
  180MOL0     C24222   1.934   9.948   7.278  0.1118  0.4705  0.9913
  180MOL0     C24223   1.904  10.080   7.233  0.1380  0.9599  0.2913
  180MOL0     O24224   1.956  10.190   7.289  0.4344  1.0843 -0.1709
  180MOL0     C24225   2.049  10.250   7.200  0.0089  0.2028  0.4676
  180MOL0     C24226   2.149  10.335   7.275  0.4435 -0.3443  0.5942
  180MOL0     C24227   2.083  10.437   7.372  0.5894  0.2609 -0.3293
  180MOL0     C24228   2.031  10.552   7.275 -0.2700  0.4985 -0.1365
  180MOL0     C24229   1.969  10.659   7.361 -0.2870  0.0654 -0.5207
  180MOL0     C24230   1.911  10.752   7.412 -0.5691 -0.9888 -0.2732
  180MOL0     C24231   1.820  10.096   7.125 -0.4551  0.7674  1.1434
  180MOL0     C24232   1.763   9.989   7.058  0.7384  0.8050  1.3858
  180MOL0     H24233   1.520   9.426   7.206 -1.7005 -1.6731  0.1312
  180MOL0     H24234   1.443   9.246   7.080  1.5075 -2.5097 -1.6686
  180MOL0     H24235   1.328   9.287   6.760  0.9001 -1.0900 -3.5645
  180MOL0     H24236   1.363   9.163   6.661 -1.7780  3.1436 -1.0078
  180MOL0     H24237   1.308   9.099   6.951  0.8613  0.4906 -0.3793
  180MOL0     H24238   1.183   9.118   6.815 -0.5928 -0.5729  0.5404
  180MOL0     H24239   1.192   8.907   6.812 -0.3793  0.8075  1.0665
  180MOL0     H24240   1.312   8.955   6.680 -0.1955 -2.6864  0.0180
  180MOL0     H24241   1.481   8.911   6.853  1.0193 -0.3127 -1.1675
  180MOL0     H24242   1.355   8.860   6.965 -1.0312  0.6041 -0.5314
  180MOL0     H24243   1.299   8.686   6.753 -0.9987  1.4200  1.0494
  180MOL0     H24244   1.458   8.739   6.710 -2.5557 -1.1743 -2.5970
  180MOL0     H24245   1.524   8.660   6.957  0.3895  1.8553 -0.7018
  180MOL0     H24246   1.368   8.576   6.970  0.8402 -0.1030 -0.5346
  180MOL0     H24247   1.519   8.424   6.896 -0.5714  1.1509  1.6144
  180MOL0     H24248   1.417   8.469   6.741  2.7192 -0.3208 -2.9870
  180MOL0     H24249   1.695   8.556   6.826 -0.7849  2.9833  0.0360
  180MOL0     H24250   1.611   8.614   6.677  0.7621 -0.9838 -2.0707
  180MOL0     H24251   1.542   8.423   6.498  1.7409  0.9903  0.3126
  180MOL0     H24252   1.609   8.234   6.324  0.7639 -0.0327 -0.9396
  180MOL0     H24253   1.784   8.249   6.321 -0.4606  4.1053  1.5315
  180MOL0     H24254   1.686   8.035   6.282 -0.6662  0.0278 -0.0969
  180MOL0     H24255   1.636   8.009   6.444  1.2656  1.6254  1.5895
  180MOL0     H24256   1.865   8.015   6.541 -1.0279 -1.6739  0.2677
  180MOL0     H24257   1.929   8.049   6.378  2.4218 -1.3495  0.1515
  180MOL0     H24258   1.759   7.808   6.433  0.2380 -1.5564  0.3696
  180MOL0     H24259   1.926   7.800   6.470  0.8079 -0.8230 -1.4394
  180MOL0     H24260   2.088   7.773   6.381  1.5569  1.2441  0.8848
  180MOL0     H24261   2.395   7.912   6.348  0.2677  0.5307  1.0309
  180MOL0     H24262   2.315   7.790   6.429  4.4654 -0.6831  0.6653
  180MOL0     H24263   2.423   7.744   6.299 -2.3923 -1.9705 -1.9595
  180MOL0     H24264   2.395   7.956   5.622  1.6358 -0.0433 -1.6997
  180MOL0     H24265   2.582   7.959   5.479 -1.4214 -1.4342  0.2217
  180MOL0     H24266   2.815   7.720   5.480 -1.1110  0.7905 -1.7468
  180MOL0     H24267   2.905   7.839   5.371 -0.8448  4.8612  1.4173
  180MOL0     H24268   3.016   7.790   5.643  0.1167 -1.6569  0.0595
  180MOL0     H24269   3.031   7.643   5.546 -0.1090 -0.8989  0.7397
  180MOL0     H24270   3.135   7.909   5.443  1.2849 -0.2057  0.1429
  180MOL0     H24271   3.176   7.741   5.391  4.5040 -0.4830  1.4532
  180MOL0     H24272   3.245   7.895   5.657 -0.4774  1.7707 -0.2717
  180MOL0     H24273   3.289   7.721   5.611  1.8813  0.4511 -1.8337
  180MOL0     H24274   3.362   7.982   5.514 -0.1654 -1.0655  2.4212
  180MOL0     H24275   3.345   7.860   5.383 -2.1612 -0.1593 -0.5549
  180MOL0     H24276   3.531   7.746   5.437  0.6287  0.7377  0.5041
  180MOL0     H24277   3.596   7.900   5.462  4.3300 -1.0823  0.8319
  180MOL0     H24278   3.634   7.704   5.626 -1.9733 -2.6316  1.2359
  180MOL0     H24279   3.486   7.738   5.710 -0.1829 -0.8630 -0.7981
  180MOL0     H24280   3.689   7.954   5.663  0.2250 -1.4492 -1.0932
  180MOL0     H24281   3.657   7.882   5.828 -0.0588  3.1550  1.2668
  180MOL0     H24282   2.839   7.844   5.798  0.8850 -0.6577 -0.6886
  180MOL0     H24283   2.665   7.836   5.945  2.8795  0.5145 -0.1536
  180MOL0     H24284   2.150   7.860   5.899 -1.2699  0.2635  0.4163
  180MOL0     H24285   1.917   7.832   6.007 -2.3119  0.3847  1.4428
  180MOL0     H24286   1.680   9.374   6.747  1.2934  0.7535  0.5324
  180MOL0     H24287   1.758   9.554   6.860  1.5911 -1.8045 -0.6434
  180MOL0     H24288   1.883   9.737   7.256  1.7073  0.9072  0.9619
  180MOL0     H24289   1.993   9.952   7.369  3.3151  0.7308 -0.9431
  180MOL0     H24290   2.107  10.165   7.164  0.1591  1.1713 -1.7199
  180MOL0     H24291   2.005  10.309   7.119  3.0375  2.4613  0.2506
  180MOL0     H24292   2.219  10.383   7.206  1.4362 -0.0941  1.7374
  180MOL0     H24293   2.214  10.267   7.330 -2.2196 -4.3881 -0.8203
  180MOL0     H24294   2.156  10.473   7.446  1.5985  1.1506 -1.7124
  180MOL0     H24295   2.005  10.389   7.433  1.6192  0.5888  1.3166
  180MOL0     H24296   1.951  10.532   7.203  1.4096 -2.9028 -1.2480
  180MOL0     H24297   2.116  10.579   7.213  1.7544  0.1896  2.3370
  180MOL0     H24298   1.861  10.843   7.438  0.5193 -0.3037 -0.5100
  180MOL0     H24299   1.808  10.201   7.099  1.2033  1.2344  2.1044
  180MOL0     H24300   1.699  10.025   6.978  2.1067  0.7307  0.2028
  181MOL0     O24301   4.451  10.197   3.401 -0.5701 -0.4231  0.3227
  181MOL0     C24302   4.529  10.112   3.368 -0.2468  1.0335  0.5588
  181MOL0     O24303   4.631  10.134   3.272  0.5805  0.6562 -0.6166
  181MOL0     C24304   4.610  10.231   3.182 -1.0733  0.5152 -0.0062
  181MOL0     C24305   4.681  10.348   3.178  0.2335  0.1262  0.9219
  181MOL0     C24306   4.676  10.421   3.056 -0.2901  0.7588 -0.6715
  181MOL0     C24307   4.596  10.383   2.955  1.3171  0.1671  0.3610
  181MOL0     O24308   4.577  10.453   2.845 -0.3376  0.5328 -0.6268
  181MOL0     C24309   4.562  10.600   2.856 -0.1765  0.4122  0.1917
  181MOL0     C24310   4.474  10.642   2.737  0.3774  0.2592 -0.2108
  181MOL0     C24311   4.558  10.625   2.605 -0.6087  0.4206  0.6017
  181MOL0     C24312   4.488  10.640   2.469  0.3978  0.1392  0.2962
  181MOL0     C24313   4.553  10.748   2.375  0.1438  0.3223 -0.2994
  181MOL0     C24314   4.521  10.892   2.411  0.7519 -0.6251  0.2583
  181MOL0     C24315   4.569  10.999   2.306 -0.4190 -0.0619  0.1646
  181MOL0     C24316   4.525  10.976   2.160 -0.5101 -0.2815  0.4682
  181MOL0     N24317   4.375  10.951   2.136 -0.9237 -0.3113 -0.6660
  181MOL0     C24318   4.272  11.035   2.166 -0.1785  0.5879  0.2918
  181MOL0     C24319   4.163  10.970   2.130  0.7233  0.3327 -0.4728
  181MOL0     C24320   4.024  11.013   2.118  0.7913 -0.1287  0.1806
  181MOL0     C24321   3.992  11.131   2.024 -0.6068  0.1430 -0.1475
  181MOL0     C24322   3.847  11.139   1.966 -0.0796  0.0402 -0.4412
  181MOL0     C24323   3.823  11.266   1.892  0.3987 -0.1214 -0.0737
  181MOL0     O24324   3.771  11.245   1.760 -0.1531 -0.7406  0.9604
  181MOL0     C24325   3.781  11.336   1.653 -0.5311  0.4302 -1.8587
  181MOL0     C24326   3.695  11.306   1.553  1.0136 -0.8688  0.8228
  181MOL0     C24327   3.678  11.391   1.437  0.3768 -0.2513  0.1765
  181MOL0     C24328   3.559  11.352   1.345  0.0649 -0.8842  0.7669
  181MOL0     C24329   3.769  11.500   1.435 -0.1175  0.3685  0.2090
  181MOL0     C24330   3.756  11.597   1.324  0.2191  0.5081 -0.1896
  181MOL0     O24331   3.873  11.669   1.302  0.1797 -0.4085 -0.0917
  181MOL0     C24332   3.864  11.776   1.216 -0.3553  0.2502  0.0127
  181MOL0     C24333   3.841  11.763   1.082  0.3198  0.6791  0.2954
  181MOL0     C24334   3.840  11.873   1.013  1.5387 -0.9146 -0.0803
  181MOL0     C24335   3.863  12.008   1.067 -0.3771  0.4943 -0.2282
  181MOL0     O24336   3.875  12.132   1.001 -0.7659 -0.4502 -0.5595
  181MOL0     C24337   3.848  12.138   0.859  0.5643  0.1768  0.5756
  181MOL0     C24338   3.875  12.281   0.809  0.3798 -0.9209  0.0187
  181MOL0     C24339   3.775  12.383   0.864  0.3976  0.6806 -0.2685
  181MOL0     C24340   3.783  12.523   0.798 -0.4479 -0.8271  0.1626
  181MOL0     C24341   3.692  12.627   0.876 -0.2989  1.1191  0.1035
  181MOL0     C24342   3.550  12.588   0.930 -0.4429  0.4556 -0.2582
  181MOL0     C24343   3.445  12.587   0.819 -0.0123 -0.8651  0.3496
  181MOL0     C24344   3.315  12.569   0.890  0.6201  0.8268  1.4691
  181MOL0    Cl24345   3.198  12.582   0.750  0.1182  0.3221 -0.4476
  181MOL0     C24346   3.870  12.016   1.203 -0.8687  0.2916 -0.1606
  181MOL0     C24347   3.874  11.896   1.277 -0.1853 -0.0613 -0.4329
  181MOL0     O24348   3.656  11.601   1.255  0.9531 -0.1364  0.5282
  181MOL0     C24349   3.865  11.520   1.539  0.9098  0.0920 -0.1402
  181MOL0     C24350   3.862  11.444   1.649  0.7526  0.3040  0.0810
  181MOL0     N24351   4.200  10.837   2.092 -0.0948 -0.6655 -0.6035
  181MOL0     N24352   4.335  10.832   2.089  0.5560  0.6860 -0.0037
  181MOL0     C24353   4.519  10.264   2.965  0.2041 -0.1025 -0.4235
  181MOL0     C24354   4.523  10.196   3.083 -0.2025 -0.2220  0.2455
  181MOL0     C24355   4.531   9.973   3.408  0.6482  0.6819 -0.0318
  181MOL0     C24356   4.558   9.870   3.322  0.0366  0.0266 -0.8651
  181MOL0     C24357   4.537   9.735   3.363 -0.2137 -0.2925  0.0723
  181MOL0     C24358   4.505   9.706   3.499  1.2854 -0.5700 -0.0288
  181MOL0     O24359   4.498   9.567   3.525 -0.3880 -0.1349 -0.1258
  181MOL0     C24360   4.511   9.531   3.662  0.2382 -0.0293  0.2755
  181MOL0     C24361   4.645   9.522   3.732  0.1104 -0.9758  0.0412
  181MOL0     C24362   4.636   9.447   3.870  0.2432 -0.1356 -0.0158
  181MOL0     C24363   4.651   9.298   3.869 -0.4490 -0.8277 -0.0701
  181MOL0     C24364   4.572   9.250   3.977  0.4689  0.1669 -0.3992
  181MOL0     C24365   4.495   9.221   4.064  0.1026  0.2323  0.8371
  181MOL0     C24366   4.495   9.808   3.589  0.9913 -0.8755 -0.3767
  181MOL0     C24367   4.492   9.943   3.545 -0.1848 -0.2936  0.7607
  181MOL0     H24368   4.749  10.379   3.256  0.0988 -0.1813  1.1614
  181MOL0     H24369   4.730  10.515   3.059 -0.5183  0.9987  4.1162
  181MOL0     H24370   4.524  10.633   2.953  2.6512 -1.0712  1.9518
  181MOL0     H24371   4.662  10.643   2.846 -0.1567  0.1344 -0.8617
  181MOL0     H24372   4.391  10.570   2.737  0.7448 -0.1960 -1.9260
  181MOL0     H24373   4.439  10.743   2.760  1.8919  1.6562 -3.3962
  181MOL0     H24374   4.629  10.707   2.618  0.7851 -0.1806 -2.3225
  181MOL0     H24375   4.609  10.530   2.588  0.8565  1.7029 -3.1828
  181MOL0     H24376   4.487  10.548   2.410 -2.5114  1.5629 -2.1162
  181MOL0     H24377   4.390  10.678   2.500  0.5639  1.0142 -0.2375
  181MOL0     H24378   4.660  10.737   2.355  0.6949  0.3029  2.3810
  181MOL0     H24379   4.508  10.747   2.275  0.5190  0.6602 -0.4768
  181MOL0     H24380   4.412  10.898   2.416  0.6758 -0.9874 -0.6757
  181MOL0     H24381   4.563  10.911   2.510  1.9288 -3.0671  0.3143
  181MOL0     H24382   4.521  11.095   2.327  3.0909  1.1954  3.9058
  181MOL0     H24383   4.675  11.021   2.318 -0.8504  1.0687  2.4559
  181MOL0     H24384   4.592  10.894   2.133  1.6817  1.7700 -0.6657
  181MOL0     H24385   4.549  11.065   2.101 -0.8039  0.5142  1.5174
  181MOL0     H24386   4.286  11.137   2.200 -0.2650  1.9720 -3.3267
  181MOL0     H24387   3.967  10.928   2.079  1.6814 -1.4044  1.5449
  181MOL0     H24388   3.992  11.034   2.220  2.0614  1.4971  0.2744
  181MOL0     H24389   4.057  11.120   1.937  0.1643 -2.0167  0.6405
  181MOL0     H24390   4.014  11.223   2.079 -3.1437  1.8054 -1.7275
  181MOL0     H24391   3.774  11.130   2.047  1.2603 -0.7451  0.7259
  181MOL0     H24392   3.832  11.052   1.902  0.7708  1.4329 -2.6357
  181MOL0     H24393   3.912  11.329   1.897  0.1389  0.1366  1.8627
  181MOL0     H24394   3.736  11.307   1.944 -1.6977 -3.0347 -0.9856
  181MOL0     H24395   3.630  11.219   1.560  0.3656 -0.4832 -0.1758
  181MOL0     H24396   3.501  11.441   1.319  0.2611 -1.2349 -0.9896
  181MOL0     H24397   3.601  11.321   1.249  0.7243  0.4210  0.6103
  181MOL0     H24398   3.490  11.276   1.382 -2.1442 -0.1649 -1.5520
  181MOL0     H24399   3.820  11.671   1.029  0.9495  0.6633  0.0633
  181MOL0     H24400   3.835  11.868   0.905 -1.2626  2.3509 -0.3084
  181MOL0     H24401   3.914  12.067   0.810  2.0683  0.4140  2.1709
  181MOL0     H24402   3.746  12.110   0.833 -0.1214  2.9007 -0.0267
  181MOL0     H24403   3.975  12.304   0.847  0.9357 -2.6343 -0.3321
  181MOL0     H24404   3.866  12.289   0.701 -2.4457  0.9623  0.2848
  181MOL0     H24405   3.792  12.393   0.972 -1.6086  1.4291  0.0113
  181MOL0     H24406   3.674  12.343   0.856  0.6970  0.3372 -3.4077
  181MOL0     H24407   3.888  12.550   0.814 -1.1424  1.0833  1.9770
  181MOL0     H24408   3.756  12.520   0.691 -2.1085  4.8858  0.0341
  181MOL0     H24409   3.670  12.708   0.806 -4.1679  0.7763  0.7286
  181MOL0     H24410   3.751  12.661   0.962  0.7436 -1.1992  0.3914
  181MOL0     H24411   3.553  12.492   0.983 -3.6854 -0.0935 -0.8917
  181MOL0     H24412   3.518  12.664   1.001  0.2518  0.2926  0.2397
  181MOL0     H24413   3.450  12.504   0.748 -2.5442 -0.8087  0.0144
  181MOL0     H24414   3.456  12.678   0.759  2.3981 -3.1601 -3.0885
  181MOL0     H24415   3.290  12.652   0.957 -4.8404 -0.5481  1.6239
  181MOL0     H24416   3.313  12.469   0.936  2.6767 -0.2343 -0.5481
  181MOL0     H24417   3.896  12.110   1.250  1.7300 -1.2905  1.8638
  181MOL0     H24418   3.886  11.907   1.384  1.0568 -0.2597 -0.5353
  181MOL0     H24419   3.919  11.614   1.528 -1.8035  1.8723  0.8299
  181MOL0     H24420   3.924  11.482   1.730 -1.7223  1.3909  1.5744
  181MOL0     H24421   4.450  10.235   2.886 -1.0768  0.8377  0.3099
  181MOL0     H24422   4.475  10.098   3.088 -2.2924  0.7192 -0.1153
  181MOL0     H24423   4.590   9.882   3.219 -0.2529  2.5424 -0.7416
  181MOL0     H24424   4.548   9.657   3.288  1.0336  0.7714 -0.9119
  181MOL0     H24425   4.438   9.589   3.719  2.2593  1.5051  1.4257
  181MOL0     H24426   4.474   9.428   3.666 -2.8084  0.9897  0.9053
  181MOL0     H24427   4.666   9.628   3.752 -0.1613 -0.3900 -2.4049
  181MOL0     H24428   4.709   9.474   3.658 -0.5606  0.7365 -1.7793
  181MOL0     H24429   4.550   9.489   3.923  2.2942  2.9185  1.1433
  181MOL0     H24430   4.720   9.467   3.936  1.6798 -3.6441 -0.5427
  181MOL0     H24431   4.758   9.274   3.872  0.0748  1.0749 -1.5429
  181MOL0     H24432   4.616   9.264   3.771  4.1048  0.7128 -2.5421
  181MOL0     H24433   4.427   9.200   4.145  1.4321  0.6081  2.0902
  181MOL0     H24434   4.477   9.796   3.696  0.2030  0.7150 -0.2945
  181MOL0     H24435   4.464  10.027   3.607 -1.6828 -0.1851 -0.0115
  182MOL0     O24436   3.779   1.016   2.552 -0.1759  0.1986  0.5401
  182MOL0     C24437   3.795   0.958   2.656  0.9419  0.4998  0.4688
  182MOL0     O24438   3.905   0.884   2.688 -0.2554 -0.7240 -0.8125
  182MOL0     C24439   4.032   0.882   2.616 -0.4851 -0.5830 -0.4205
  182MOL0     C24440   4.076   0.994   2.538 -0.1968 -0.3510 -0.1021
  182MOL0     C24441   4.205   0.998   2.470  0.2497 -0.1828  0.8141
  182MOL0     C24442   4.287   0.875   2.475  0.6753 -0.1490  0.9043
  182MOL0     O24443   4.398   0.853   2.395  0.5236 -0.0163  0.3812
  182MOL0     C24444   4.400   0.938   2.288 -0.1319 -0.2100 -0.0704
  182MOL0     C24445   4.481   0.872   2.186 -1.0737  0.3404  0.3450
  182MOL0     C24446   4.633   0.860   2.244  0.7488 -0.8483 -0.2236
  182MOL0     C24447   4.724   0.804   2.143 -0.4528 -0.0753 -0.2071
  182MOL0     C24448   4.846   0.745   2.208  0.7305  0.5478  0.4609
  182MOL0     C24449   4.947   0.709   2.104  0.4392  0.2527 -0.5975
  182MOL0     C24450   5.075   0.643   2.164 -0.0944  0.3488  0.0839
  182MOL0     C24451   5.130   0.531   2.073 -0.4452 -0.0551 -0.3080
  182MOL0     N24452   5.256   0.463   2.112  0.4963  0.2500  0.5552
  182MOL0     C24453   5.323   0.375   2.020 -0.1451 -0.3785 -0.3787
  182MOL0     C24454   5.424   0.322   2.099  0.5953  0.0204 -0.7501
  182MOL0     C24455   5.530   0.226   2.065 -0.0081  0.3160  0.7011
  182MOL0     C24456   5.479   0.085   2.109  0.4270 -0.7437 -0.7223
  182MOL0     C24457   5.591  -0.017   2.106  1.1081  0.3389  0.7896
  182MOL0     C24458   5.662  -0.032   2.239 -1.1690 -0.1183  0.3575
  182MOL0     O24459   5.767  -0.117   2.224 -0.5271 -0.3941  0.2764
  182MOL0     C24460   5.835  -0.142   2.343 -0.3214 -0.1192  0.2380
  182MOL0     C24461   5.959  -0.201   2.330 -0.5878 -0.2839 -0.0453
  182MOL0     C24462   6.026  -0.246   2.445 -0.6730  0.3530  0.1636
  182MOL0     C24463   6.153  -0.330   2.423  0.3549  0.8893  0.0144
  182MOL0     C24464   5.971  -0.227   2.578 -0.7437 -0.0940 -0.4369
  182MOL0     C24465   6.030  -0.292   2.695 -0.0558 -0.0598 -0.0660
  182MOL0     O24466   6.087  -0.213   2.789  0.2144 -0.7932  0.1098
  182MOL0     C24467   6.124  -0.258   2.913  0.7924  0.5188 -0.5268
  182MOL0     C24468   6.075  -0.367   2.986 -0.3629 -0.0387  0.3523
  182MOL0     C24469   6.122  -0.383   3.122  0.4661 -0.3038  0.2907
  182MOL0     C24470   6.199  -0.290   3.186 -0.4589 -0.0151  1.5326
  182MOL0     O24471   6.230  -0.303   3.313  0.4627  0.2170  0.4711
  182MOL0     C24472   6.307  -0.223   3.393  0.2322 -0.1024  0.7063
  182MOL0     C24473   6.252  -0.084   3.422 -0.9859  0.2930 -0.9655
  182MOL0     C24474   6.192  -0.078   3.561 -0.1457  0.7110 -0.9040
  182MOL0     C24475   6.179   0.061   3.620 -0.2980 -0.1464  0.5175
  182MOL0     C24476   6.090   0.080   3.738 -0.0140 -0.0233 -0.4833
  182MOL0     C24477   6.130   0.018   3.870 -0.8470  0.6835 -0.2454
  182MOL0     C24478   6.006  -0.033   3.960 -0.2388  0.0367 -0.5432
  182MOL0     C24479   5.906   0.079   3.987 -0.3125  0.4067 -0.5334
  182MOL0    Cl24480   5.980   0.241   4.019 -0.3973  0.3171 -0.1992
  182MOL0     C24481   6.265  -0.200   3.107  0.3061 -0.1286  0.0305
  182MOL0     C24482   6.239  -0.184   2.971  0.2304  0.6270  0.5785
  182MOL0     O24483   6.029  -0.415   2.698  0.6170 -0.8812 -0.5675
  182MOL0     C24484   5.863  -0.138   2.591 -0.0905  0.1058  0.3200
  182MOL0     C24485   5.792  -0.107   2.476 -0.0436  1.0910 -0.0721
  182MOL0     N24486   5.405   0.380   2.232  0.0341 -0.7420  0.6788
  182MOL0     N24487   5.309   0.464   2.234  0.3970  1.2349 -0.3371
  182MOL0     C24488   4.242   0.771   2.549  0.7991 -0.4829 -0.5105
  182MOL0     C24489   4.122   0.774   2.626 -0.3853 -0.3462 -0.5870
  182MOL0     C24490   3.664   0.949   2.739 -0.3826 -0.3971  0.9016
  182MOL0     C24491   3.671   0.871   2.850  0.1418  0.9596 -0.1335
  182MOL0     C24492   3.562   0.846   2.931  0.2775  0.2014  0.3831
  182MOL0     C24493   3.442   0.917   2.904  1.1989  0.1357 -0.4828
  182MOL0     O24494   3.333   0.883   2.985  0.3696 -0.2292 -0.3945
  182MOL0     C24495   3.228   0.977   2.997  0.0167  0.3359 -0.3497
  182MOL0     C24496   3.155   0.967   3.122 -0.4283 -0.1009 -0.1756
  182MOL0     C24497   3.071   0.836   3.119  1.0980 -0.8998  0.0803
  182MOL0     C24498   3.075   0.755   3.251  0.4765  0.5284  0.0067
  182MOL0     C24499   2.988   0.631   3.238 -0.2718  0.4949 -0.4722
  182MOL0     C24500   2.929   0.524   3.239  0.9979  0.0577 -0.2810
  182MOL0     C24501   3.439   1.004   2.796 -0.5090 -0.6702  0.4183
  182MOL0     C24502   3.545   1.023   2.713  0.4002 -0.3068  0.1269
  182MOL0     H24503   4.018   1.085   2.536  0.5761  0.1452 -0.2211
  182MOL0     H24504   4.234   1.082   2.408 -0.2695 -0.3867  0.2817
  182MOL0     H24505   4.304   0.974   2.248 -0.1500  0.8534  0.8824
  182MOL0     H24506   4.463   1.020   2.322  4.1950 -4.0174  2.1444
  182MOL0     H24507   4.424   0.781   2.167 -0.8574  0.5832 -1.6831
  182MOL0     H24508   4.485   0.940   2.100  2.6497  0.3492  0.3615
  182MOL0     H24509   4.679   0.957   2.263  1.0636 -0.9539 -0.4326
  182MOL0     H24510   4.641   0.806   2.339 -1.8143  0.0547  0.5796
  182MOL0     H24511   4.677   0.726   2.081 -1.8592  1.4397 -1.1294
  182MOL0     H24512   4.753   0.884   2.074  3.1005 -1.0324 -0.0205
  182MOL0     H24513   4.891   0.821   2.273 -1.6686  1.2363  1.4141
  182MOL0     H24514   4.818   0.668   2.279  1.1204 -1.1529 -1.1471
  182MOL0     H24515   4.896   0.643   2.034 -0.8019  0.1245  0.3993
  182MOL0     H24516   4.969   0.803   2.052 -0.6399  0.6559 -0.3456
  182MOL0     H24517   5.145   0.724   2.186 -1.0740  0.1500  5.0057
  182MOL0     H24518   5.046   0.607   2.263 -1.2249  1.2822  0.1178
  182MOL0     H24519   5.158   0.584   1.981 -0.5210 -0.6206 -0.6634
  182MOL0     H24520   5.064   0.447   2.050 -1.0008  0.6016 -1.1572
  182MOL0     H24521   5.310   0.353   1.915 -4.5766  0.1212 -0.1337
  182MOL0     H24522   5.543   0.232   1.956 -0.9993 -3.4543  0.2244
  182MOL0     H24523   5.624   0.255   2.112  2.3338 -1.0881 -2.7269
  182MOL0     H24524   5.408   0.051   2.033  0.6679 -3.0889  0.0069
  182MOL0     H24525   5.429   0.089   2.207 -0.4831  0.8166 -1.2099
  182MOL0     H24526   5.657   0.009   2.023 -1.3042  1.6498 -0.8464
  182MOL0     H24527   5.549  -0.116   2.090  0.3985  0.9701 -1.7757
  182MOL0     H24528   5.592  -0.064   2.316  0.2571  0.8339  2.1298
  182MOL0     H24529   5.697   0.067   2.271 -1.8185  0.2615 -0.0738
  182MOL0     H24530   5.988  -0.219   2.227 -1.4662 -1.2038 -0.1467
  182MOL0     H24531   6.162  -0.408   2.500 -2.8385 -0.1222 -0.5231
  182MOL0     H24532   6.149  -0.368   2.320 -1.1413  1.0891 -0.0208
  182MOL0     H24533   6.241  -0.264   2.422 -0.3932  1.9255 -1.7789
  182MOL0     H24534   5.999  -0.431   2.942  0.4835  0.9876 -2.8207
  182MOL0     H24535   6.080  -0.472   3.168 -0.2107  0.4789  1.2149
  182MOL0     H24536   6.327  -0.287   3.479  2.1246 -0.0649  0.3382
  182MOL0     H24537   6.404  -0.213   3.344  0.7030 -6.0294 -0.2961
  182MOL0     H24538   6.343  -0.023   3.420 -0.0234 -1.0883 -0.5688
  182MOL0     H24539   6.178  -0.055   3.347 -0.7992 -0.7214 -1.5561
  182MOL0     H24540   6.265  -0.137   3.617 -0.1560  0.0207 -1.6063
  182MOL0     H24541   6.092  -0.123   3.556 -0.4907  0.7527  2.9787
  182MOL0     H24542   6.270   0.115   3.648  0.1582 -0.3792 -0.4876
  182MOL0     H24543   6.151   0.124   3.535  2.1340  2.1073  1.2378
  182MOL0     H24544   5.998   0.040   3.695  0.8347  1.7455 -4.3204
  182MOL0     H24545   6.073   0.185   3.763 -1.8184  0.3339 -2.8381
  182MOL0     H24546   6.191  -0.072   3.859 -1.7065 -0.3375  2.5064
  182MOL0     H24547   6.184   0.094   3.927  1.2108 -1.1927  0.3956
  182MOL0     H24548   6.041  -0.067   4.058  1.4148  0.5322 -0.9321
  182MOL0     H24549   5.955  -0.114   3.908  1.6236  0.0274 -2.4872
  182MOL0     H24550   5.843   0.051   4.071  1.0176 -1.6083 -0.1492
  182MOL0     H24551   5.842   0.092   3.899 -0.5136 -0.7181 -0.5689
  182MOL0     H24552   6.337  -0.137   3.158 -2.1110  0.8347  2.5130
  182MOL0     H24553   6.281  -0.110   2.904  0.9700  3.0168  3.4478
  182MOL0     H24554   5.812  -0.103   2.679  0.2651  3.1804 -0.5525
  182MOL0     H24555   5.693  -0.068   2.495 -1.5213 -2.2432 -0.2226
  182MOL0     H24556   4.310   0.687   2.561  1.3691  0.2517  2.1293
  182MOL0     H24557   4.096   0.706   2.706 -2.6443 -1.8230 -2.4435
  182MOL0     H24558   3.754   0.802   2.863 -3.0186 -2.7806  2.5033
  182MOL0     H24559   3.563   0.775   3.014  1.1041  1.9130  1.9146
  182MOL0     H24560   3.252   1.083   2.985  0.5607  0.6580  2.8914
  182MOL0     H24561   3.163   0.959   2.911  3.2258 -0.2164 -2.8685
  182MOL0     H24562   3.090   1.051   3.147  0.5214  0.6339 -0.0911
  182MOL0     H24563   3.230   0.954   3.201  2.7414 -0.9513 -3.0540
  182MOL0     H24564   3.110   0.764   3.047 -1.5494 -0.6545 -1.7319
  182MOL0     H24565   2.968   0.857   3.090  0.4518 -3.3762  0.3005
  182MOL0     H24566   3.020   0.814   3.325  0.6115  0.9625 -0.2341
  182MOL0     H24567   3.168   0.733   3.302 -2.1282 -1.6133  4.4113
  182MOL0     H24568   2.859   0.444   3.249  2.2295 -0.7769  2.7357
  182MOL0     H24569   3.340   1.042   2.772  0.7934  1.6513 -1.7516
  182MOL0     H24570   3.525   1.070   2.617 -1.2741  0.6004  0.8909
  183MOL0     O24571   8.001   2.292   3.162  0.2728  0.2755 -0.1280
  183MOL0     C24572   7.957   2.365   3.244  0.2619 -0.5366  0.4827
  183MOL0     O24573   8.026   2.469   3.304  0.0972 -0.3197  0.5947
  183MOL0     C24574   8.152   2.484   3.265  0.2061  0.6338  0.3681
  183MOL0     C24575   8.245   2.405   3.332 -0.7868 -0.9131  0.9742
  183MOL0     C24576   8.375   2.427   3.289  0.0846 -0.0092  0.8123
  183MOL0     C24577   8.414   2.516   3.187  0.6748  0.5596 -0.0651
  183MOL0     O24578   8.536   2.534   3.137 -0.2892  0.5700  0.2562
  183MOL0     C24579   8.645   2.458   3.196 -0.7749  0.0180 -0.4210
  183MOL0     C24580   8.770   2.487   3.093  0.7005 -0.6759  0.3203
  183MOL0     C24581   8.907   2.480   3.146 -0.7428  0.3812 -0.0278
  183MOL0     C24582   8.937   2.584   3.254  0.2347  0.3211  0.2759
  183MOL0     C24583   9.090   2.598   3.289  0.6400  0.5896  1.0633
  183MOL0     C24584   9.148   2.475   3.360  0.4569 -0.4075  1.1714
  183MOL0     C24585   9.304   2.476   3.352 -0.5589  0.2250 -0.0071
  183MOL0     C24586   9.364   2.362   3.439 -0.5234 -0.2851 -0.2952
  183MOL0     N24587   9.510   2.396   3.452  0.1108  0.0179  0.1316
  183MOL0     C24588   9.614   2.321   3.407  0.6462 -0.0511  0.5468
  183MOL0     C24589   9.720   2.391   3.448  0.9271 -0.2708  0.2580
  183MOL0     C24590   9.864   2.366   3.439  0.1625  0.1153  0.5558
  183MOL0     C24591   9.912   2.252   3.528  0.1637 -0.0911 -0.3852
  183MOL0     C24592   9.888   2.277   3.684  0.0391  0.7180  0.9103
  183MOL0     C24593   9.908   2.144   3.759 -0.7369  0.8770  0.1167
  183MOL0     O24594  10.044   2.102   3.737 -0.1878  0.0268 -0.1872
  183MOL0     C24595  10.145   2.138   3.820  0.3986 -0.4266  0.0759
  183MOL0     C24596  10.138   2.210   3.941  0.0299  0.0931  0.7134
  183MOL0     C24597  10.251   2.230   4.028  0.0013  0.6314 -0.5127
  183MOL0     C24598  10.227   2.292   4.160  0.0841  0.0171 -0.5546
  183MOL0     C24599  10.381   2.194   3.978 -0.4682  0.4177 -0.0423
  183MOL0     C24600  10.500   2.213   4.058  0.0811 -0.0568  0.2011
  183MOL0     O24601  10.493   2.182   4.190 -0.6958 -0.4264  0.3939
  183MOL0     C24602  10.606   2.192   4.268 -0.5977  0.3524 -0.3182
  183MOL0     C24603  10.583   2.253   4.391  0.7416 -0.5501  0.1578
  183MOL0     C24604  10.681   2.248   4.489 -0.2488  1.2755  0.4309
  183MOL0     C24605  10.801   2.172   4.471  0.9811 -0.7691  0.0084
  183MOL0     O24606  10.887   2.166   4.579  0.2265  0.0422  0.6676
  183MOL0     C24607  11.024   2.127   4.553 -0.3527 -0.0178 -0.2813
  183MOL0     C24608  11.115   2.178   4.669  1.1541  0.1299  0.3022
  183MOL0     C24609  11.123   2.333   4.681  0.0275  0.2097  0.5137
  183MOL0     C24610  11.208   2.367   4.808 -0.3460 -0.3442  0.6929
  183MOL0     C24611  11.337   2.296   4.825 -0.7074 -0.4001 -0.0754
  183MOL0     C24612  11.435   2.370   4.925 -0.1212  0.8932 -0.7881
  183MOL0     C24613  11.551   2.274   4.981  1.0038  0.3535 -0.5315
  183MOL0     C24614  11.689   2.296   4.923  0.1971  0.3807 -0.5062
  183MOL0    Cl24615  11.760   2.428   5.004  0.0017  0.2732 -0.3008
  183MOL0     C24616  10.819   2.107   4.344 -0.9726 -0.3368  0.3848
  183MOL0     C24617  10.721   2.115   4.245 -1.2220 -0.0945 -0.0381
  183MOL0     O24618  10.605   2.252   4.000  0.6303 -0.1802 -0.0806
  183MOL0     C24619  10.390   2.116   3.862  0.5968 -0.1948  0.1423
  183MOL0     C24620  10.270   2.083   3.793  0.2565 -0.2354  0.3091
  183MOL0     N24621   9.690   2.498   3.523  0.3501 -0.5784 -0.2357
  183MOL0     N24622   9.562   2.499   3.529 -0.5585 -0.5163 -0.5638
  183MOL0     C24623   8.309   2.581   3.114 -0.1193 -0.5115 -0.9962
  183MOL0     C24624   8.182   2.567   3.161  0.3773 -0.3378 -0.4236
  183MOL0     C24625   7.824   2.350   3.305  0.3120  0.5920 -0.3151
  183MOL0     C24626   7.807   2.413   3.430  0.2063  0.0186 -0.1645
  183MOL0     C24627   7.681   2.393   3.490 -0.5572  0.4561 -0.8531
  183MOL0     C24628   7.587   2.293   3.431 -0.9279 -0.5001 -0.0987
  183MOL0     O24629   7.475   2.239   3.494 -0.2937  0.3615 -0.6917
  183MOL0     C24630   7.467   2.240   3.639 -0.2237  0.5823 -0.4342
  183MOL0     C24631   7.562   2.122   3.674 -0.2101  0.2774 -1.3756
  183MOL0     C24632   7.536   2.038   3.803  0.3806 -0.5962 -0.7901
  183MOL0     C24633   7.602   2.096   3.932 -0.2437 -0.2654  0.0280
  183MOL0     C24634   7.555   2.215   3.987  0.2947  0.6907 -0.0950
  183MOL0     C24635   7.524   2.321   4.031  0.0972 -0.8316 -0.1796
  183MOL0     C24636   7.615   2.237   3.313  0.0354  0.4804 -1.1362
  183MOL0     C24637   7.731   2.266   3.244  1.3602  0.0789 -0.1050
  183MOL0     H24638   8.219   2.331   3.408 -0.5183  1.2059  3.2882
  183MOL0     H24639   8.454   2.376   3.345 -0.3158 -0.7507  0.7140
  183MOL0     H24640   8.665   2.495   3.297  2.1662 -0.4646 -0.7531
  183MOL0     H24641   8.609   2.355   3.204  0.3147 -0.4219 -0.9966
  183MOL0     H24642   8.755   2.432   2.999  1.4515  0.9311 -0.7926
  183MOL0     H24643   8.751   2.592   3.068 -1.3757 -0.6743  1.6747
  183MOL0     H24644   8.922   2.383   3.194 -1.4418 -0.6703 -1.8532
  183MOL0     H24645   8.975   2.493   3.062 -2.9101  2.5744 -1.5473
  183MOL0     H24646   8.903   2.680   3.214 -0.3755  0.4326  1.0265
  183MOL0     H24647   8.880   2.567   3.347  1.1424  0.8368  0.9433
  183MOL0     H24648   9.144   2.619   3.196 -1.4609 -0.9456 -0.5904
  183MOL0     H24649   9.114   2.687   3.349  4.0854  0.9248 -0.5947
  183MOL0     H24650   9.097   2.478   3.457 -1.9086 -0.4035  0.0188
  183MOL0     H24651   9.117   2.379   3.316  2.5007 -0.1166 -1.0780
  183MOL0     H24652   9.339   2.451   3.251  0.4713 -0.1898  0.4351
  183MOL0     H24653   9.349   2.568   3.393  0.1265 -1.2996  2.9523
  183MOL0     H24654   9.338   2.267   3.391  0.3516 -0.3098 -0.7473
  183MOL0     H24655   9.325   2.358   3.541  2.2191 -0.2732  0.8295
  183MOL0     H24656   9.612   2.242   3.332 -2.4273  1.7417 -1.4807
  183MOL0     H24657   9.889   2.338   3.336  2.0043  1.1807  0.6668
  183MOL0     H24658   9.924   2.455   3.460 -0.3241  0.1744  1.7507
  183MOL0     H24659  10.019   2.251   3.505  0.4284  4.2426 -0.1060
  183MOL0     H24660   9.856   2.161   3.503 -2.2074  1.4361 -0.9402
  183MOL0     H24661   9.787   2.314   3.703 -0.1861 -0.5825  2.4312
  183MOL0     H24662   9.951   2.363   3.711  0.5147  0.4274  0.7506
  183MOL0     H24663   9.838   2.068   3.723 -0.3557  0.4212  0.3312
  183MOL0     H24664   9.897   2.169   3.865  0.3719 -1.1876  0.7735
  183MOL0     H24665  10.041   2.234   3.984 -1.6116 -1.4329 -1.8264
  183MOL0     H24666  10.307   2.365   4.180  1.2373 -1.3322 -0.1116
  183MOL0     H24667  10.132   2.347   4.150  0.6389  1.1026 -0.0681
  183MOL0     H24668  10.230   2.216   4.238 -0.7279  1.7019  1.2201
  183MOL0     H24669  10.490   2.300   4.419  1.2135  1.9113 -1.9958
  183MOL0     H24670  10.670   2.287   4.589  3.1553 -0.0681  1.4536
  183MOL0     H24671  11.029   2.018   4.542  1.3394 -0.1306  1.1609
  183MOL0     H24672  11.065   2.177   4.465  0.1803  0.8884  0.4714
  183MOL0     H24673  11.075   2.147   4.766  1.5396  0.7731  0.6756
  183MOL0     H24674  11.214   2.132   4.656 -0.0844 -3.9931  3.3335
  183MOL0     H24675  11.024   2.379   4.682  1.4071  3.4957  0.5493
  183MOL0     H24676  11.167   2.372   4.588  1.1467 -0.7977  0.6039
  183MOL0     H24677  11.221   2.475   4.800  0.1221 -0.3867  0.8040
  183MOL0     H24678  11.160   2.333   4.900  1.1639 -1.1122  1.2436
  183MOL0     H24679  11.388   2.294   4.728 -0.0798 -1.0373  0.2622
  183MOL0     H24680  11.311   2.193   4.849  0.3253 -0.2187  2.0309
  183MOL0     H24681  11.476   2.461   4.881 -0.8164 -0.0401 -3.5505
  183MOL0     H24682  11.378   2.411   5.009  0.0480 -0.8479  0.2287
  183MOL0     H24683  11.509   2.176   4.954 -0.6178  0.9634 -0.3548
  183MOL0     H24684  11.550   2.271   5.090  0.4290 -0.8039 -0.5437
  183MOL0     H24685  11.669   2.323   4.819  0.0296 -1.2365 -0.9257
  183MOL0     H24686  11.760   2.213   4.931 -1.7563 -1.2765  0.9659
  183MOL0     H24687  10.917   2.060   4.334 -1.2405 -1.6819  3.1866
  183MOL0     H24688  10.743   2.076   4.146  1.8004 -0.5055  0.6972
  183MOL0     H24689  10.485   2.085   3.819 -0.2857 -3.4796  0.3236
  183MOL0     H24690  10.280   2.012   3.712  0.3390 -1.6799  1.5457
  183MOL0     H24691   8.338   2.651   3.037 -0.8641 -0.6883 -1.4432
  183MOL0     H24692   8.096   2.612   3.113 -1.0987 -2.2820  0.2746
  183MOL0     H24693   7.880   2.466   3.491  2.3663 -0.8012 -1.8657
  183MOL0     H24694   7.657   2.444   3.583 -0.2494  0.9533 -1.0408
  183MOL0     H24695   7.496   2.330   3.694 -0.7200  0.5376 -0.0900
  183MOL0     H24696   7.362   2.230   3.667 -0.2619  1.4760 -0.2037
  183MOL0     H24697   7.666   2.157   3.677 -0.5924  1.4144 -0.6527
  183MOL0     H24698   7.571   2.047   3.595 -0.7304  2.2245 -3.3940
  183MOL0     H24699   7.575   1.936   3.798 -0.0758 -0.7373 -1.7227
  183MOL0     H24700   7.429   2.020   3.819  0.4778 -1.6073 -1.2111
  183MOL0     H24701   7.710   2.104   3.917  0.0260 -2.9441 -0.0043
  183MOL0     H24702   7.592   2.018   4.009 -0.5776 -2.2866 -1.9542
  183MOL0     H24703   7.492   2.410   4.082 -0.9311  0.6157 -3.1273
  183MOL0     H24704   7.551   2.171   3.256 -0.6458  0.3615 -0.2359
  183MOL0     H24705   7.755   2.221   3.148  1.0526 -3.1772  1.2038
  184MOL0     O24706   7.142   7.576   9.536 -0.3783 -0.1570 -0.4347
  184MOL0     C24707   7.167   7.614   9.649  0.9994  0.0086  0.1413
  184MOL0     O24708   7.092   7.693   9.725  0.4012 -0.6211 -1.0369
  184MOL0     C24709   6.975   7.732   9.670 -1.0331  0.2904  0.6489
  184MOL0     C24710   6.971   7.855   9.608  0.3058  0.0425 -0.2920
  184MOL0     C24711   6.844   7.920   9.578  0.5145 -0.5219 -0.7483
  184MOL0     C24712   6.724   7.845   9.570 -0.5626 -0.0465 -0.3493
  184MOL0     O24713   6.598   7.897   9.543 -0.0918 -0.3995 -0.8231
  184MOL0     C24714   6.579   8.040   9.539  0.5441 -0.6921  0.2131
  184MOL0     C24715   6.603   8.090   9.397 -0.2020  0.5962 -0.9997
  184MOL0     C24716   6.478   8.063   9.319  0.9244 -0.3419 -0.7005
  184MOL0     C24717   6.494   8.077   9.161 -0.2369  0.3910  0.1019
  184MOL0     C24718   6.495   7.947   9.079  0.1007  0.4981 -0.2231
  184MOL0     C24719   6.377   7.842   9.100  0.2403  0.0719 -0.6002
  184MOL0     C24720   6.240   7.909   9.079  0.8301  0.3466 -0.2668
  184MOL0     C24721   6.127   7.808   9.077  1.1203  0.7619 -0.6764
  184MOL0     N24722   5.990   7.872   9.102 -0.5977  0.5812 -0.3375
  184MOL0     C24723   5.921   7.953   9.006 -1.2014 -0.5753  0.5532
  184MOL0     C24724   5.801   7.976   9.057 -0.8839  0.2754 -0.3946
  184MOL0     C24725   5.718   8.083   9.014 -0.1076  0.1206  0.2346
  184MOL0     C24726   5.675   8.058   8.868 -0.5825 -0.2117 -0.7473
  184MOL0     C24727   5.535   8.119   8.825 -0.9109  0.7979 -0.7283
  184MOL0     C24728   5.494   8.061   8.692  0.1867  0.3717 -0.0565
  184MOL0     O24729   5.446   7.925   8.726  0.5166 -0.2995 -0.0723
  184MOL0     C24730   5.319   7.885   8.693  0.1009 -0.5309 -0.2208
  184MOL0     C24731   5.300   7.751   8.715  0.6271  0.2424  0.6757
  184MOL0     C24732   5.181   7.675   8.681  0.0657 -0.7323  0.2433
  184MOL0     C24733   5.194   7.521   8.698  0.7766 -1.0047 -0.3650
  184MOL0     C24734   5.066   7.753   8.652 -0.2143 -0.3932  0.5346
  184MOL0     C24735   4.926   7.704   8.645 -0.8263 -0.5206 -0.2308
  184MOL0     O24736   4.838   7.798   8.619  0.2256  0.7720 -0.4997
  184MOL0     C24737   4.703   7.789   8.587 -0.4589 -0.3966  0.4426
  184MOL0     C24738   4.641   7.912   8.562 -0.3174  0.0698 -0.0309
  184MOL0     C24739   4.511   7.919   8.506 -1.0043  0.2494 -0.5996
  184MOL0     C24740   4.430   7.802   8.486 -1.2030 -1.3467  0.2013
  184MOL0     O24741   4.310   7.830   8.419 -0.0508  0.8269 -0.7834
  184MOL0     C24742   4.217   7.722   8.436  0.6582  1.6868  0.2004
  184MOL0     C24743   4.101   7.762   8.340  0.4201  1.3683 -1.7138
  184MOL0     C24744   3.985   7.661   8.368 -0.4207 -0.4910  0.1297
  184MOL0     C24745   3.871   7.693   8.265  0.9207 -0.2431  0.1139
  184MOL0     C24746   3.913   7.658   8.120 -0.1573 -0.2939 -1.3693
  184MOL0     C24747   3.798   7.659   8.023  0.1797  0.3364  0.0840
  184MOL0     C24748   3.843   7.595   7.888 -0.8395  0.1304  0.5362
  184MOL0     C24749   3.940   7.681   7.804  0.5451 -0.2308 -0.3905
  184MOL0    Cl24750   3.946   7.603   7.645  0.9006 -0.1897 -0.0264
  184MOL0     C24751   4.493   7.686   8.522  0.2702  0.5382  0.1837
  184MOL0     C24752   4.627   7.671   8.564 -0.3455 -0.5329 -0.3557
  184MOL0     O24753   4.892   7.592   8.674  0.5070 -0.5895 -0.2898
  184MOL0     C24754   5.088   7.897   8.640  0.4684  0.4341  0.0965
  184MOL0     C24755   5.210   7.954   8.655 -0.1797 -0.4567  0.6214
  184MOL0     N24756   5.802   7.928   9.189  0.5108  0.2698  0.6527
  184MOL0     N24757   5.913   7.874   9.218  0.2761  0.5741  0.0752
  184MOL0     C24758   6.741   7.705   9.618  0.1171  0.7966  0.1495
  184MOL0     C24759   6.863   7.652   9.673  0.4188  0.3576  0.8385
  184MOL0     C24760   7.291   7.562   9.723  0.5144  0.4577  0.5048
  184MOL0     C24761   7.382   7.483   9.647  0.0073 -0.2054 -0.3179
  184MOL0     C24762   7.501   7.435   9.708 -0.2502 -0.5627 -0.3306
  184MOL0     C24763   7.525   7.456   9.840 -0.3925 -0.4105  1.0032
  184MOL0     O24764   7.629   7.400   9.915  0.6835  0.7407  1.1768
  184MOL0     C24765   7.752   7.346   9.851  0.9656 -0.2353 -0.4928
  184MOL0     C24766   7.849   7.449   9.795  0.2368  0.6204  0.7992
  184MOL0     C24767   7.876   7.573   9.867 -1.5131 -0.8045 -0.3962
  184MOL0     C24768   7.962   7.543  10.004 -0.1378  0.0270 -0.2495
  184MOL0     C24769   7.954   7.652  10.103  0.0654  1.7794  1.1075
  184MOL0     C24770   7.936   7.726  10.198  0.2061  0.1612  0.2884
  184MOL0     C24771   7.430   7.529   9.919 -0.1895 -0.8583  0.8263
  184MOL0     C24772   7.316   7.586   9.859  0.0663 -0.2776  1.0420
  184MOL0     H24773   7.054   7.925   9.597 -0.2990  0.6969 -0.8083
  184MOL0     H24774   6.850   8.026   9.554  0.7215  0.4143  2.8375
  184MOL0     H24775   6.483   8.080   9.571  1.6756  2.6200 -0.1652
  184MOL0     H24776   6.651   8.085   9.609  0.3505 -0.0950  0.0364
  184MOL0     H24777   6.630   8.196   9.398 -0.1713  0.5915 -1.4572
  184MOL0     H24778   6.693   8.032   9.374 -0.2804  0.6887 -1.5310
  184MOL0     H24779   6.454   7.959   9.341 -2.0116 -0.2732 -2.9404
  184MOL0     H24780   6.399   8.132   9.351  0.8960 -1.0574  0.8889
  184MOL0     H24781   6.424   8.156   9.134  1.5623  1.8993 -0.3434
  184MOL0     H24782   6.588   8.125   9.134  2.5953 -2.7136  3.3360
  184MOL0     H24783   6.506   7.975   8.974  1.7523  0.0382 -0.2081
  184MOL0     H24784   6.591   7.896   9.093 -0.7576 -1.5553 -1.3881
  184MOL0     H24785   6.395   7.760   9.029  0.8279  1.1724 -1.7439
  184MOL0     H24786   6.377   7.801   9.201  5.0268  1.6790  0.3098
  184MOL0     H24787   6.220   7.978   9.161 -1.6825  3.3421 -3.1347
  184MOL0     H24788   6.236   7.951   8.979 -0.7105  0.4823 -0.1603
  184MOL0     H24789   6.143   7.742   9.163  0.3114  4.3608  2.5486
  184MOL0     H24790   6.129   7.739   8.993  2.4944 -0.6374  0.4579
  184MOL0     H24791   5.952   7.985   8.907 -1.0374  2.8022  1.5570
  184MOL0     H24792   5.626   8.076   9.072 -0.4493  1.2807 -0.1479
  184MOL0     H24793   5.758   8.182   9.037  2.0398 -0.6078 -0.0619
  184MOL0     H24794   5.683   7.951   8.847 -0.1533 -0.8868  2.3720
  184MOL0     H24795   5.748   8.105   8.801 -1.2403  0.6232 -0.8972
  184MOL0     H24796   5.571   8.222   8.823 -0.5357  0.6629 -0.9805
  184MOL0     H24797   5.449   8.111   8.893 -0.0739 -3.0676  0.1510
  184MOL0     H24798   5.583   8.047   8.631  0.4607 -1.7898  0.7492
  184MOL0     H24799   5.424   8.128   8.641  0.3394  0.9259  0.4493
  184MOL0     H24800   5.387   7.694   8.747 -0.3965 -1.2285  0.9424
  184MOL0     H24801   5.147   7.486   8.791  0.6072 -3.2123 -1.2436
  184MOL0     H24802   5.156   7.469   8.610  1.5142 -2.0640 -0.0806
  184MOL0     H24803   5.298   7.489   8.710  0.9499 -0.6267 -0.8610
  184MOL0     H24804   4.704   7.999   8.578  0.0385  0.0014 -0.9849
  184MOL0     H24805   4.477   8.020   8.484  2.3006  1.4785 -0.5812
  184MOL0     H24806   4.245   7.618   8.414 -2.6195  0.3715  1.5639
  184MOL0     H24807   4.181   7.713   8.539  1.5930 -3.1937  0.3802
  184MOL0     H24808   4.068   7.866   8.337  0.6969  1.4321 -2.9458
  184MOL0     H24809   4.143   7.725   8.246  0.6403 -0.5514 -0.9187
  184MOL0     H24810   3.936   7.676   8.465 -1.9285  0.8594 -0.7918
  184MOL0     H24811   4.011   7.555   8.357 -2.1644 -0.8374 -1.0349
  184MOL0     H24812   3.782   7.638   8.298  1.0854 -0.6826 -0.1564
  184MOL0     H24813   3.835   7.796   8.269  0.1543 -0.3959 -1.6116
  184MOL0     H24814   3.972   7.567   8.120  0.1272 -0.1234 -2.5890
  184MOL0     H24815   3.980   7.735   8.081  0.4009  1.1009  2.0220
  184MOL0     H24816   3.720   7.588   8.052  1.4878 -1.6803 -1.0727
  184MOL0     H24817   3.743   7.753   8.019 -0.3773  0.1006 -5.3119
  184MOL0     H24818   3.752   7.567   7.834 -1.1198 -2.2509  2.0780
  184MOL0     H24819   3.891   7.502   7.916  1.0475  1.2779  1.2861
  184MOL0     H24820   4.043   7.686   7.841  0.8526  1.6184 -1.3703
  184MOL0     H24821   3.902   7.783   7.797  1.2314  0.1010  0.5285
  184MOL0     H24822   4.430   7.597   8.522 -0.9629  1.3709 -0.8098
  184MOL0     H24823   4.673   7.578   8.595  2.1588  0.8544  0.3585
  184MOL0     H24824   5.004   7.961   8.618 -1.1707 -1.8464 -0.6451
  184MOL0     H24825   5.217   8.062   8.642 -0.2760 -0.6324 -1.2349
  184MOL0     H24826   6.658   7.636   9.618  1.6264 -1.2242 -2.7117
  184MOL0     H24827   6.857   7.557   9.725 -0.7264  0.3770  0.7760
  184MOL0     H24828   7.369   7.468   9.540  0.0129  0.4879 -0.4260
  184MOL0     H24829   7.580   7.397   9.644 -0.9601  1.0512 -2.2810
  184MOL0     H24830   7.796   7.282   9.928  0.0705 -0.0636  0.1754
  184MOL0     H24831   7.730   7.281   9.765  3.3674 -1.8794  0.0451
  184MOL0     H24832   7.812   7.477   9.696  3.4791  1.4417 -0.3224
  184MOL0     H24833   7.945   7.397   9.794 -1.0424 -1.8868 -0.6911
  184MOL0     H24834   7.778   7.608   9.901 -2.4554 -2.8281 -0.8752
  184MOL0     H24835   7.929   7.643   9.802 -1.4875 -0.7395 -0.3054
  184MOL0     H24836   8.067   7.540   9.972  0.9115 -1.9806  2.8643
  184MOL0     H24837   7.933   7.448  10.050 -2.4168  0.9229  0.3001
  184MOL0     H24838   7.927   7.794  10.281 -3.5488 -1.3402  1.3388
  184MOL0     H24839   7.449   7.524  10.026 -0.2762 -0.4665  0.8610
  184MOL0     H24840   7.250   7.641   9.926 -0.2668 -0.6521  1.0217
  185MOL0     O24841   0.772   0.319  10.379 -0.0855 -0.5116 -1.0628
  185MOL0     C24842   0.683   0.381  10.322  0.0070  0.5281 -0.4915
  185MOL0     O24843   0.651   0.514  10.346  0.1733 -0.2702 -0.3360
  185MOL0     C24844   0.729   0.563  10.442 -0.1400 -0.1351 -0.2395
  185MOL0     C24845   0.851   0.633  10.422 -0.1381 -0.2532  0.0012
  185MOL0     C24846   0.928   0.695  10.516 -0.4376  0.5307  0.4852
  185MOL0     C24847   0.895   0.684  10.650 -0.3506 -0.3528  0.5609
  185MOL0     O24848   0.973   0.751  10.740 -0.1730  0.5351  0.5283
  185MOL0     C24849   0.913   0.794  10.856 -0.0039  0.8021 -0.1242
  185MOL0     C24850   0.961   0.931  10.898 -0.4311  0.8507  0.2586
  185MOL0     C24851   0.911   0.963  11.034 -1.1330 -0.6927 -0.1392
  185MOL0     C24852   0.998   1.076  11.092 -0.8542  0.2024 -0.0863
  185MOL0     C24853   0.942   1.124  11.221 -0.3551 -0.9193  0.1166
  185MOL0     C24854   1.005   1.256  11.275  0.0825  0.1193 -0.4895
  185MOL0     C24855   0.970   1.273  11.424  0.3488  0.1198  1.0330
  185MOL0     C24856   0.999   1.419  11.453 -0.2097 -0.2853  1.1542
  185MOL0     N24857   1.008   1.447  11.594  0.0121  0.4919  0.1444
  185MOL0     C24858   0.902   1.475  11.676 -0.5760  0.5212 -0.8793
  185MOL0     C24859   0.959   1.499  11.798  0.2593  0.1279 -0.2169
  185MOL0     C24860   0.875   1.549  11.906  0.1733  0.8020  0.1608
  185MOL0     C24861   0.847   1.430  11.989 -0.4056  0.2772 -1.1477
  185MOL0     C24862   0.745   1.466  12.101  0.3542 -0.6031  0.5127
  185MOL0     C24863   0.712   1.337  12.171 -0.1444  0.7523 -0.3803
  185MOL0     O24864   0.646   1.370  12.298  0.1179  0.4138  0.4023
  185MOL0     C24865   0.594   1.259  12.369 -0.4576 -0.8909  1.1205
  185MOL0     C24866   0.628   1.124  12.343 -0.0166 -0.3745 -0.6667
  185MOL0     C24867   0.571   1.024  12.422 -0.1890  0.3725 -0.0363
  185MOL0     C24868   0.604   0.878  12.403 -1.0314  0.7020 -0.0621
  185MOL0     C24869   0.477   1.061  12.526  0.1936 -0.1075  0.6112
  185MOL0     C24870   0.407   0.957  12.611 -0.5018 -0.4845  0.6763
  185MOL0     O24871   0.279   0.981  12.650 -0.9975  0.6894 -0.2712
  185MOL0     C24872   0.202   0.878  12.720  0.6868 -0.3816  0.8314
  185MOL0     C24873   0.176   0.879  12.859  0.6751 -0.5595  0.0962
  185MOL0     C24874   0.099   0.780  12.918  0.2809 -1.0156  0.5938
  185MOL0     C24875   0.061   0.668  12.850  1.4435  0.0288 -0.5891
  185MOL0     O24876  -0.011   0.568  12.918  0.6849 -0.5979  0.5672
  185MOL0     C24877  -0.042   0.449  12.845  0.0055  0.9947 -0.0133
  185MOL0     C24878  -0.098   0.357  12.947 -0.3669  0.3731 -0.1886
  185MOL0     C24879  -0.077   0.211  12.908  0.5434  0.6348 -0.2321
  185MOL0     C24880  -0.153   0.116  13.004  1.1278 -0.5630 -0.4564
  185MOL0     C24881  -0.308   0.109  12.962 -0.0159 -0.2143 -0.4912
  185MOL0     C24882  -0.379  -0.014  13.009  0.2684  0.0674  0.7347
  185MOL0     C24883  -0.353  -0.043  13.162  0.6151  0.5733 -0.2056
  185MOL0     C24884  -0.451  -0.150  13.221  0.3518 -0.1365 -0.7799
  185MOL0    Cl24885  -0.601  -0.058  13.272 -0.4894 -0.0672 -0.0309
  185MOL0     C24886   0.067   0.674  12.710 -1.2948  0.2696  0.9027
  185MOL0     C24887   0.150   0.775  12.643 -0.7635 -0.4119 -0.0115
  185MOL0     O24888   0.472   0.860  12.643  0.0947 -0.2172  0.2996
  185MOL0     C24889   0.460   1.194  12.551  0.2269  0.0048  0.8402
  185MOL0     C24890   0.518   1.294  12.476 -0.3594  0.5045  0.6602
  185MOL0     N24891   1.092   1.465  11.785 -0.4469 -0.0388 -0.3128
  185MOL0     N24892   1.125   1.444  11.665 -0.0026 -0.9995  0.0790
  185MOL0     C24893   0.791   0.594  10.678  0.0492  0.3875  0.6633
  185MOL0     C24894   0.700   0.547  10.578  0.0608 -0.0524 -0.7369
  185MOL0     C24895   0.614   0.330  10.207  0.7917  0.1866  0.6091
  185MOL0     C24896   0.581   0.194  10.205  0.3189  0.2563  0.6621
  185MOL0     C24897   0.500   0.146  10.098  1.2444  0.5595 -0.5528
  185MOL0     C24898   0.447   0.235  10.001  0.7892  0.4472 -0.3352
  185MOL0     O24899   0.364   0.166   9.915  0.1211  0.0551 -0.0330
  185MOL0     C24900   0.287   0.236   9.812  0.9376  0.2130 -0.3616
  185MOL0     C24901   0.142   0.199   9.824  0.3287  0.3041  0.4913
  185MOL0     C24902   0.125   0.066   9.760 -1.1992  0.9605 -0.0010
  185MOL0     C24903   0.027  -0.023   9.837  0.3095 -0.4938  0.4567
  185MOL0     C24904   0.059  -0.073   9.966  0.5744  0.1298  0.4084
  185MOL0     C24905   0.073  -0.117  10.078 -0.4098  0.0611  0.1239
  185MOL0     C24906   0.480   0.369  10.017  0.7967  0.2697  0.5260
  185MOL0     C24907   0.564   0.421  10.116 -0.1275  0.5123  0.8358
  185MOL0     H24908   0.891   0.645  10.322 -3.2702 -1.8416 -1.6023
  185MOL0     H24909   1.010   0.755  10.477 -0.5604 -0.3471 -1.2362
  185MOL0     H24910   0.805   0.803  10.846  0.2878  2.8525 -2.0745
  185MOL0     H24911   0.941   0.718  10.930  1.1042  0.2376 -1.0981
  185MOL0     H24912   1.070   0.932  10.897 -0.4035 -0.4342 -0.7375
  185MOL0     H24913   0.925   0.996  10.818 -2.2904 -1.3267 -0.8055
  185MOL0     H24914   0.811   1.007  11.035  0.2989  2.9186  1.2583
  185MOL0     H24915   0.915   0.877  11.100  2.4916  0.3091  1.2080
  185MOL0     H24916   1.099   1.043  11.118 -0.7299  0.6539  0.0072
  185MOL0     H24917   1.012   1.161  11.025  0.4378 -0.3251 -0.5269
  185MOL0     H24918   0.834   1.142  11.211 -0.0652 -0.5028 -3.9001
  185MOL0     H24919   0.961   1.050  11.299 -0.7694 -1.0632  0.0817
  185MOL0     H24920   1.113   1.244  11.263 -0.2240 -1.2198 -2.3949
  185MOL0     H24921   0.965   1.338  11.213 -3.4154 -1.3726 -0.4625
  185MOL0     H24922   0.865   1.242  11.435 -0.0963  0.1170 -2.2785
  185MOL0     H24923   1.021   1.197  11.485 -0.2860 -0.1585  1.2262
  185MOL0     H24924   0.941   1.494  11.399 -1.9898 -0.1247  3.1769
  185MOL0     H24925   1.098   1.446  11.415 -0.7286 -0.2317 -0.2147
  185MOL0     H24926   0.802   1.484  11.635  0.0612  1.9218 -2.2371
  185MOL0     H24927   0.918   1.639  11.951  0.3746  1.6592 -1.6660
  185MOL0     H24928   0.775   1.581  11.874 -0.8305 -3.1135 -1.1871
  185MOL0     H24929   0.943   1.398  12.031 -1.3101  1.6423  2.3446
  185MOL0     H24930   0.813   1.342  11.933 -2.7177  0.0417  0.4838
  185MOL0     H24931   0.652   1.503  12.056  1.7183  2.6723  0.1189
  185MOL0     H24932   0.786   1.548  12.161  0.2369 -0.3437  0.2456
  185MOL0     H24933   0.803   1.279  12.186 -1.0912 -1.1370 -1.6301
  185MOL0     H24934   0.649   1.280  12.102  0.5484 -0.1169 -0.3198
  185MOL0     H24935   0.689   1.091  12.260  2.5056  0.7164  0.6614
  185MOL0     H24936   0.682   0.857  12.329  0.1719 -0.4043  1.4490
  185MOL0     H24937   0.649   0.831  12.491 -2.5433  0.6784  0.7224
  185MOL0     H24938   0.515   0.822  12.374 -1.7334  1.8385 -0.1377
  185MOL0     H24939   0.210   0.966  12.915  0.1675 -0.2394 -0.0810
  185MOL0     H24940   0.061   0.795  13.019 -4.2039  0.2562 -1.0272
  185MOL0     H24941  -0.125   0.459  12.774  0.3240  0.4374 -0.4727
  185MOL0     H24942   0.050   0.418  12.795  1.4913 -0.0356  3.0781
  185MOL0     H24943  -0.040   0.382  13.037 -2.5134  0.4950  1.2321
  185MOL0     H24944  -0.205   0.372  12.961 -1.0749 -1.8857 -2.5174
  185MOL0     H24945   0.027   0.177  12.906  0.4935  0.5070 -2.1210
  185MOL0     H24946  -0.106   0.201  12.803 -1.3865 -3.2157  0.5003
  185MOL0     H24947  -0.124   0.013  12.982  0.7843 -0.5738 -0.8807
  185MOL0     H24948  -0.128   0.123  13.110  1.2295  2.4674 -0.6019
  185MOL0     H24949  -0.321   0.098  12.854 -0.3754  0.9537 -0.5813
  185MOL0     H24950  -0.353   0.205  12.989  2.4889  1.1699 -0.9382
  185MOL0     H24951  -0.485  -0.005  12.985  0.5353 -1.3358 -1.2582
  185MOL0     H24952  -0.343  -0.093  12.942 -1.6084 -0.5439  0.3843
  185MOL0     H24953  -0.364   0.053  13.213  1.6881  1.2077 -1.1260
  185MOL0     H24954  -0.254  -0.089  13.171 -0.3809 -2.2568 -2.3163
  185MOL0     H24955  -0.401  -0.191  13.308  1.7326 -0.1713 -1.5622
  185MOL0     H24956  -0.485  -0.220  13.144 -1.3992  2.6792 -2.7611
  185MOL0     H24957   0.046   0.587  12.648 -0.3511  0.6198  0.0639
  185MOL0     H24958   0.165   0.769  12.535  0.2923  0.8100  0.0444
  185MOL0     H24959   0.400   1.226  12.636  0.8683  0.7945  1.0086
  185MOL0     H24960   0.490   1.398  12.488 -1.2959  0.7938 -2.8727
  185MOL0     H24961   0.751   0.569  10.776 -1.1734 -2.9352 -0.5189
  185MOL0     H24962   0.613   0.485  10.594 -0.5262  0.1903 -2.7219
  185MOL0     H24963   0.614   0.128  10.285  3.3588  1.5269  0.6024
  185MOL0     H24964   0.474   0.041  10.089  0.5324  0.6330  0.3779
  185MOL0     H24965   0.298   0.345   9.810  0.7590  0.2621  0.6976
  185MOL0     H24966   0.334   0.201   9.720  0.2771 -1.4964 -0.0752
  185MOL0     H24967   0.083   0.272   9.767 -2.0541 -1.9085 -0.0728
  185MOL0     H24968   0.109   0.189   9.928 -3.1976 -1.0278 -0.6139
  185MOL0     H24969   0.218   0.008   9.764 -1.4278  0.0822 -3.6363
  185MOL0     H24970   0.111   0.065   9.651 -0.6545 -4.0750 -0.2849
  185MOL0     H24971   0.018  -0.118   9.784  1.4345 -2.0835  2.9097
  185MOL0     H24972  -0.073   0.019   9.850 -0.2193 -0.1935 -3.4664
  185MOL0     H24973   0.094  -0.155  10.176 -0.0334  0.8018  0.3324
  185MOL0     H24974   0.430   0.433   9.945  1.4750 -0.2367 -0.4134
  185MOL0     H24975   0.571   0.529  10.110 -0.1244  0.4312 -1.7375
  186MOL0     O24976  11.135   6.347   0.855 -0.1701 -0.0761  0.7200
  186MOL0     C24977  11.170   6.248   0.912 -0.8836 -0.1732 -0.6186
  186MOL0     O24978  11.169   6.226   1.053  0.3825 -0.2016  0.0075
  186MOL0     C24979  11.148   6.337   1.137  0.2524  0.2507  1.2092
  186MOL0     C24980  11.040   6.327   1.220  0.9445 -0.1446 -0.7460
  186MOL0     C24981  11.000   6.434   1.314  0.5628  1.5050  0.1989
  186MOL0     C24982  11.086   6.546   1.309  0.2302  0.7639 -0.4132
  186MOL0     O24983  11.067   6.632   1.417  0.8482  0.1511  0.7815
  186MOL0     C24984  11.164   6.640   1.511 -0.9775 -0.5919 -0.4622
  186MOL0     C24985  11.099   6.714   1.626  0.3270  0.4000  0.6449
  186MOL0     C24986  11.149   6.862   1.636 -0.1998  1.1840 -0.1691
  186MOL0     C24987  11.086   6.925   1.761  0.3635 -0.5311  0.1279
  186MOL0     C24988  11.045   7.070   1.733 -0.2680 -0.4906  0.2285
  186MOL0     C24989  11.018   7.133   1.866  0.9591 -0.3328 -0.5690
  186MOL0     C24990  10.945   7.266   1.840 -0.2870  0.3451  0.8828
  186MOL0     C24991  10.856   7.308   1.958  0.2233 -0.3693  0.0354
  186MOL0     N24992  10.940   7.350   2.076  0.8778  1.1619  0.1755
  186MOL0     C24993  11.007   7.473   2.085 -0.0832 -1.1266  0.0637
  186MOL0     C24994  11.057   7.470   2.215  0.0428  1.1606 -0.1487
  186MOL0     C24995  11.153   7.561   2.285 -0.0680 -0.4311  0.2997
  186MOL0     C24996  11.302   7.508   2.289  0.6278 -1.1358 -0.0540
  186MOL0     C24997  11.361   7.550   2.154  0.1811 -0.2953  0.6186
  186MOL0     C24998  11.497   7.485   2.130  0.3180 -0.9386  0.7792
  186MOL0     O24999  11.554   7.503   1.998 -0.3220  0.5042  0.1530
  186MOL0     C25000  11.492   7.445   1.884  0.5805 -0.5770 -0.7716
  186MOL0     C25001  11.529   7.503   1.759  0.1796  0.2342  0.1143
  186MOL0     C25002  11.501   7.426   1.646 -0.1242  0.6110 -0.5129
  186MOL0     C25003  11.604   7.448   1.541 -0.7202 -0.3233  1.3787
  186MOL0     C25004  11.422   7.307   1.650 -0.3337  0.1564 -0.6906
  186MOL0     C25005  11.378   7.240   1.518 -0.1865  1.0533 -0.1171
  186MOL0     O25006  11.381   7.106   1.507  0.8958 -0.1048 -0.0893
  186MOL0     C25007  11.364   7.053   1.384 -0.8475 -0.1568 -0.4262
  186MOL0     C25008  11.463   6.971   1.346  0.7804  0.1807 -0.1818
  186MOL0     C25009  11.439   6.894   1.231  0.5140 -0.2295 -0.2395
  186MOL0     C25010  11.320   6.901   1.157 -1.0084 -0.1915  0.3677
  186MOL0     O25011  11.309   6.840   1.034  0.5841 -0.5218 -0.1737
  186MOL0     C25012  11.178   6.806   0.977 -0.5992 -0.3649 -0.4878
  186MOL0     C25013  11.208   6.700   0.870 -0.9432 -0.2836  0.6923
  186MOL0     C25014  11.140   6.737   0.739  0.0533  0.2914 -0.5463
  186MOL0     C25015  10.986   6.704   0.748 -0.0016 -0.2826 -0.0101
  186MOL0     C25016  10.925   6.739   0.621  0.1323 -1.2860  0.5163
  186MOL0     C25017  10.777   6.702   0.625  0.3866  0.1251 -0.1242
  186MOL0     C25018  10.705   6.763   0.507  0.2401  0.0641  0.1283
  186MOL0     C25019  10.561   6.713   0.509 -0.2279  0.3004 -0.0143
  186MOL0    Cl25020  10.477   6.737   0.350 -0.3982  0.2358  0.5508
  186MOL0     C25021  11.221   6.981   1.203 -1.4975 -0.4158 -0.3193
  186MOL0     C25022  11.240   7.055   1.324 -0.3950  0.0556  1.3072
  186MOL0     O25023  11.342   7.320   1.430  0.9827  0.6133  0.0756
  186MOL0     C25024  11.368   7.280   1.774  0.5305 -0.4963  0.4679
  186MOL0     C25025  11.393   7.342   1.888 -0.5250 -0.7836  0.9429
  186MOL0     N25026  10.983   7.369   2.279 -0.5565  0.1233 -0.4518
  186MOL0     N25027  10.916   7.303   2.197 -0.4451  0.5552  0.0614
  186MOL0     C25028  11.192   6.557   1.222 -0.3331  0.1025 -1.0695
  186MOL0     C25029  11.229   6.455   1.137 -0.1245 -0.6336  0.1658
  186MOL0     C25030  11.213   6.137   0.820 -0.0759  0.4944  0.3539
  186MOL0     C25031  11.234   6.001   0.848  0.1205 -0.1354 -0.8089
  186MOL0     C25032  11.276   5.902   0.769  0.7995  0.8457  0.2211
  186MOL0     C25033  11.320   5.933   0.643  0.5116 -0.0609 -1.0503
  186MOL0     O25034  11.352   5.836   0.553 -0.6164  0.3800  0.3211
  186MOL0     C25035  11.474   5.760   0.593  0.5247 -0.5844  0.1841
  186MOL0     C25036  11.597   5.842   0.556 -0.3620 -0.0948  0.5901
  186MOL0     C25037  11.604   5.881   0.404  0.2275 -0.3374 -0.3766
  186MOL0     C25038  11.574   5.775   0.298  0.3366  0.0616  0.0152
  186MOL0     C25039  11.677   5.673   0.323  1.1593  0.0024  0.6965
  186MOL0     C25040  11.773   5.594   0.342  0.2492  0.4566  0.1049
  186MOL0     C25041  11.303   6.066   0.601 -0.1100 -0.7999 -0.1304
  186MOL0     C25042  11.256   6.165   0.690  0.2557  0.3433 -0.8586
  186MOL0     H25043  10.988   6.232   1.206 -0.9839  0.7674 -0.1368
  186MOL0     H25044  10.910   6.419   1.374 -0.2644  3.2862 -0.5307
  186MOL0     H25045  11.185   6.536   1.537 -2.1684 -0.1012  3.0071
  186MOL0     H25046  11.263   6.684   1.498  1.2286 -4.4588  1.3080
  186MOL0     H25047  10.991   6.703   1.615  0.6243 -2.3047 -0.3574
  186MOL0     H25048  11.114   6.667   1.723 -1.1090  2.2961  1.8697
  186MOL0     H25049  11.258   6.854   1.623 -0.4988 -1.3718 -1.9167
  186MOL0     H25050  11.100   6.908   1.550 -0.1225  0.3716 -0.6629
  186MOL0     H25051  10.986   6.885   1.775  0.4300 -0.8822 -0.3531
  186MOL0     H25052  11.161   6.912   1.840 -0.7532 -1.6995  1.0250
  186MOL0     H25053  11.113   7.136   1.678 -1.3332 -0.0625 -0.6389
  186MOL0     H25054  10.952   7.061   1.675  1.8379  2.5843 -4.2078
  186MOL0     H25055  10.953   7.065   1.922  0.9602  0.9535  1.0887
  186MOL0     H25056  11.107   7.152   1.927  1.2778  0.4652 -1.2645
  186MOL0     H25057  11.010   7.345   1.800  0.7376 -0.2621  1.3129
  186MOL0     H25058  10.877   7.255   1.755  0.7207  0.9532 -0.0328
  186MOL0     H25059  10.796   7.221   1.986 -0.1447  0.0902  0.6825
  186MOL0     H25060  10.799   7.394   1.921 -0.3890 -1.1570 -0.9006
  186MOL0     H25061  11.031   7.544   2.007 -0.7821  2.3157  2.7412
  186MOL0     H25062  11.149   7.662   2.243  0.2675 -2.1701 -4.5599
  186MOL0     H25063  11.127   7.567   2.391 -0.9247  2.6946  0.0180
  186MOL0     H25064  11.305   7.399   2.299 -2.3548 -1.2288  1.0338
  186MOL0     H25065  11.340   7.559   2.378 -1.1303  1.1547 -0.4943
  186MOL0     H25066  11.375   7.658   2.153  0.5579 -0.2660 -2.9859
  186MOL0     H25067  11.295   7.531   2.069  0.7436 -0.8121  0.2845
  186MOL0     H25068  11.502   7.380   2.159 -2.4993 -1.2781  0.3222
  186MOL0     H25069  11.572   7.533   2.194  1.9606 -0.4968 -1.3346
  186MOL0     H25070  11.594   7.591   1.762  0.8083 -0.1500 -1.3468
  186MOL0     H25071  11.600   7.368   1.467 -0.9039  1.7050 -0.9192
  186MOL0     H25072  11.585   7.541   1.486 -0.6412  0.6649  2.9554
  186MOL0     H25073  11.701   7.455   1.591  0.5854 -0.5747 -0.9741
  186MOL0     H25074  11.545   6.952   1.415 -2.6755 -0.3489  4.1953
  186MOL0     H25075  11.517   6.829   1.194  1.4677  1.1151 -0.6507
  186MOL0     H25076  11.099   6.787   1.050  1.4869  0.7344  2.2239
  186MOL0     H25077  11.149   6.895   0.920  3.1756 -0.9315 -3.7406
  186MOL0     H25078  11.316   6.683   0.858 -0.0094  0.1906  6.0118
  186MOL0     H25079  11.166   6.603   0.898  0.4310 -1.6607 -1.6171
  186MOL0     H25080  11.178   6.685   0.652  1.8597  2.2445 -1.0060
  186MOL0     H25081  11.151   6.842   0.710 -4.2503 -0.0196 -4.5421
  186MOL0     H25082  10.976   6.600   0.778  1.2287 -1.4735 -3.2975
  186MOL0     H25083  10.937   6.758   0.830  1.9832 -1.3236  1.9761
  186MOL0     H25084  10.981   6.684   0.544  0.5867 -1.9353  1.3034
  186MOL0     H25085  10.937   6.848   0.610 -2.0276 -1.1853 -1.6609
  186MOL0     H25086  10.757   6.594   0.617 -1.2203  0.4780 -1.6547
  186MOL0     H25087  10.736   6.735   0.721  1.2281 -1.9524  1.0138
  186MOL0     H25088  10.744   6.735   0.409 -2.6288 -2.0037 -0.5782
  186MOL0     H25089  10.717   6.871   0.503 -0.7273  0.1606 -0.6643
  186MOL0     H25090  10.506   6.767   0.587  0.3865  0.4093  0.3457
  186MOL0     H25091  10.578   6.609   0.539  1.1445  0.3420 -0.6027
  186MOL0     H25092  11.124   6.985   1.153 -2.3486  0.3327  1.3209
  186MOL0     H25093  11.156   7.114   1.359 -1.6045  1.3492 -3.1927
  186MOL0     H25094  11.292   7.203   1.779 -1.6833  1.4139 -1.1611
  186MOL0     H25095  11.353   7.303   1.981 -2.6075 -0.5469  0.1858
  186MOL0     H25096  11.252   6.647   1.232 -0.2800 -0.1506  1.5150
  186MOL0     H25097  11.328   6.460   1.093  1.2197  0.1991  3.0243
  186MOL0     H25098  11.202   5.971   0.947 -2.8770 -0.9812 -1.9423
  186MOL0     H25099  11.270   5.798   0.798 -1.5618  0.8651  0.0375
  186MOL0     H25100  11.477   5.748   0.701 -2.2182  0.1264  0.4212
  186MOL0     H25101  11.469   5.663   0.543  2.7865 -0.3090 -0.7267
  186MOL0     H25102  11.683   5.783   0.587 -0.3440 -1.0285 -1.0830
  186MOL0     H25103  11.593   5.937   0.609 -0.2061  0.7894 -0.9310
  186MOL0     H25104  11.706   5.919   0.398 -0.1111  0.9359  1.1474
  186MOL0     H25105  11.540   5.966   0.378  1.2388  0.0199 -1.8114
  186MOL0     H25106  11.582   5.821   0.199  0.1098  1.1900  0.5093
  186MOL0     H25107  11.479   5.721   0.311  0.3705 -0.1478 -0.5850
  186MOL0     H25108  11.866   5.545   0.359 -1.2537 -2.1385  1.3542
  186MOL0     H25109  11.356   6.095   0.512 -2.5862 -0.4685 -1.5985
  186MOL0     H25110  11.270   6.268   0.659 -0.0620  0.9970  1.0589
  187MOL0     O25111   8.962   6.010   8.837 -0.3696  0.9198 -0.4118
  187MOL0     C25112   9.026   5.912   8.791 -1.3651  0.0026 -0.6560
  187MOL0     O25113   8.985   5.823   8.690 -0.0982 -0.2386  0.0643
  187MOL0     C25114   8.867   5.852   8.625  0.0603  0.5579  0.2565
  187MOL0     C25115   8.749   5.880   8.703  0.7713  0.0224  0.3682
  187MOL0     C25116   8.636   5.924   8.626 -0.5695 -0.0876 -0.4863
  187MOL0     C25117   8.638   5.916   8.491 -0.3020  0.2740  0.7444
  187MOL0     O25118   8.524   5.960   8.424 -0.6019 -0.0600  0.0467
  187MOL0     C25119   8.422   5.864   8.405  0.8051  0.2682  0.5238
  187MOL0     C25120   8.321   5.877   8.521  0.0440  0.4033 -0.0758
  187MOL0     C25121   8.293   6.025   8.558 -0.2511  0.4677  0.2873
  187MOL0     C25122   8.227   6.031   8.699 -0.5099 -0.9781 -0.7690
  187MOL0     C25123   8.162   6.172   8.716  0.0017  0.4620 -0.7714
  187MOL0     C25124   8.069   6.163   8.840  0.8137  0.3888  0.4802
  187MOL0     C25125   7.911   6.197   8.805  0.1587 -1.4680 -0.7786
  187MOL0     C25126   7.817   6.195   8.925  0.6520  0.5564 -0.5818
  187MOL0     N25127   7.673   6.202   8.879 -0.8133 -0.2097  0.4169
  187MOL0     C25128   7.596   6.092   8.883 -0.4695 -0.1617 -0.2916
  187MOL0     C25129   7.472   6.132   8.869 -0.1797 -1.2021  0.3380
  187MOL0     C25130   7.359   6.043   8.881 -0.3576  0.1607 -0.0828
  187MOL0     C25131   7.221   6.110   8.876  0.2635  0.2071  0.2095
  187MOL0     C25132   7.115   6.065   8.970 -0.9981  0.2630  0.1153
  187MOL0     C25133   7.042   5.942   8.920 -0.6417  0.8954  0.2113
  187MOL0     O25134   7.127   5.831   8.909 -0.0181 -0.1546 -0.0886
  187MOL0     C25135   7.099   5.743   8.812  0.0967  0.3095  0.4250
  187MOL0     C25136   6.971   5.709   8.768  0.1835 -0.4084  0.4763
  187MOL0     C25137   6.955   5.603   8.683  0.1011 -0.4568 -0.1147
  187MOL0     C25138   6.808   5.554   8.659 -0.2767 -0.3024  0.5467
  187MOL0     C25139   7.064   5.528   8.641 -0.4965  0.3294  0.3167
  187MOL0     C25140   7.038   5.418   8.559 -0.1597  0.0209 -0.5535
  187MOL0     O25141   6.979   5.315   8.627  0.4216 -0.0579  0.0548
  187MOL0     C25142   6.985   5.190   8.571 -0.7706  0.4574 -0.0519
  187MOL0     C25143   6.867   5.132   8.531  0.4425  0.0589  0.9048
  187MOL0     C25144   6.862   5.011   8.456 -0.6414 -0.2336 -0.4943
  187MOL0     C25145   6.980   4.938   8.434  0.6109  0.3298  0.2957
  187MOL0     O25146   6.964   4.807   8.394 -0.0626 -0.0093 -0.7447
  187MOL0     C25147   7.067   4.745   8.316  1.1991 -0.1786 -0.4680
  187MOL0     C25148   7.035   4.598   8.341 -0.8323  0.6220 -0.9814
  187MOL0     C25149   7.065   4.543   8.475 -0.4526 -0.1904 -0.3683
  187MOL0     C25150   7.193   4.572   8.535  0.1400 -0.9769 -0.5278
  187MOL0     C25151   7.231   4.490   8.653 -0.6842  0.7354  0.4162
  187MOL0     C25152   7.118   4.503   8.766 -0.0237 -0.1768 -0.0799
  187MOL0     C25153   7.188   4.438   8.899  0.7186  1.1190  0.5580
  187MOL0     C25154   7.091   4.464   9.018 -0.1906 -0.5971 -0.3161
  187MOL0    Cl25155   7.090   4.638   9.046  0.7051 -0.1901 -0.1138
  187MOL0     C25156   7.110   4.993   8.468 -0.4756 -0.6055 -0.1124
  187MOL0     C25157   7.108   5.120   8.537 -0.1993  0.1119 -0.5980
  187MOL0     O25158   7.070   5.419   8.438  0.1162  0.9040  0.2949
  187MOL0     C25159   7.194   5.575   8.664 -0.2070 -0.4894 -0.1917
  187MOL0     C25160   7.208   5.674   8.758 -1.3844 -0.1208  0.0877
  187MOL0     N25161   7.471   6.270   8.850 -0.1216 -0.4375 -0.1981
  187MOL0     N25162   7.597   6.313   8.862  0.6762  0.3087  0.5358
  187MOL0     C25163   8.745   5.857   8.426  1.1298 -0.6410  0.5835
  187MOL0     C25164   8.864   5.826   8.498  0.8463 -0.2811 -0.4778
  187MOL0     C25165   9.164   5.890   8.835  0.3414 -0.3243 -0.7054
  187MOL0     C25166   9.212   5.932   8.960  0.3285 -0.1236 -0.7942
  187MOL0     C25167   9.345   5.930   8.988 -0.2597 -0.1617 -0.2752
  187MOL0     C25168   9.427   5.880   8.890 -0.7128  0.0194  0.3126
  187MOL0     O25169   9.566   5.877   8.903 -0.6695 -0.5615 -0.0573
  187MOL0     C25170   9.618   6.014   8.911  0.9146  0.5075 -0.2414
  187MOL0     C25171   9.592   6.114   8.801 -0.0007 -1.0204 -0.2136
  187MOL0     C25172   9.711   6.102   8.713 -0.5852  0.1265  0.9505
  187MOL0     C25173   9.688   6.172   8.577 -0.4197  0.7328  0.5716
  187MOL0     C25174   9.620   6.097   8.467 -0.4146 -0.3826 -0.3595
  187MOL0     C25175   9.569   6.035   8.377  0.2436 -0.6787 -0.2591
  187MOL0     C25176   9.377   5.827   8.771 -0.5216  0.1080  0.3532
  187MOL0     C25177   9.249   5.843   8.742  0.4538  0.2333 -0.1275
  187MOL0     H25178   8.749   5.886   8.811  1.9942  1.6743  0.3026
  187MOL0     H25179   8.545   5.944   8.681 -1.0839  1.6404 -1.8788
  187MOL0     H25180   8.369   5.887   8.312 -0.3112  2.2106  1.5920
  187MOL0     H25181   8.471   5.770   8.377  0.6872  1.1381 -3.0931
  187MOL0     H25182   8.229   5.828   8.489  0.3988 -0.8086  0.6956
  187MOL0     H25183   8.355   5.819   8.607 -0.9027  2.3887  1.7399
  187MOL0     H25184   8.382   6.086   8.578  0.0398 -0.2134  1.1394
  187MOL0     H25185   8.237   6.078   8.480 -1.0911 -1.0759 -0.1933
  187MOL0     H25186   8.151   5.951   8.704  0.2365 -1.7808 -1.7841
  187MOL0     H25187   8.292   6.023   8.787  0.4137  3.6064 -0.7850
  187MOL0     H25188   8.246   6.239   8.738  0.7533 -1.1806  1.9702
  187MOL0     H25189   8.111   6.197   8.623 -1.8974 -1.8148 -0.4272
  187MOL0     H25190   8.080   6.058   8.871  1.7479 -1.7438 -5.6425
  187MOL0     H25191   8.103   6.226   8.923 -0.6552 -0.3199  1.6708
  187MOL0     H25192   7.900   6.291   8.749 -0.2185 -1.5599 -0.8611
  187MOL0     H25193   7.879   6.110   8.746  2.7535 -2.9332 -0.1966
  187MOL0     H25194   7.831   6.268   9.006 -0.7657 -1.3289  1.4602
  187MOL0     H25195   7.829   6.096   8.970  0.5133  1.7801  2.3918
  187MOL0     H25196   7.623   5.988   8.896  0.3767  0.2781  1.8244
  187MOL0     H25197   7.352   5.956   8.815 -1.9179 -1.3287  1.9305
  187MOL0     H25198   7.376   6.000   8.980 -2.3219  0.3604  0.3806
  187MOL0     H25199   7.179   6.118   8.776  1.5059  1.0160 -0.2766
  187MOL0     H25200   7.233   6.212   8.915 -1.0509  0.4169  0.1001
  187MOL0     H25201   7.049   6.148   8.998 -1.4431  0.0990 -0.4339
  187MOL0     H25202   7.175   6.036   9.057 -0.9979 -0.5655 -0.1549
  187MOL0     H25203   7.007   5.954   8.817  4.6225 -3.5122 -2.6468
  187MOL0     H25204   6.963   5.915   8.990 -3.7963  1.7495 -2.7670
  187MOL0     H25205   6.887   5.753   8.820  0.8307  1.8464 -0.2488
  187MOL0     H25206   6.806   5.480   8.579 -0.5101 -0.9786  1.1712
  187MOL0     H25207   6.781   5.509   8.755 -0.8426  1.4899  1.2715
  187MOL0     H25208   6.743   5.641   8.641 -0.8276  0.5276  5.1972
  187MOL0     H25209   6.772   5.169   8.567 -0.7325 -2.9313  1.1864
  187MOL0     H25210   6.762   4.970   8.442  1.0154 -4.5371 -1.2979
  187MOL0     H25211   7.056   4.774   8.211 -0.6768  2.9048  0.4410
  187MOL0     H25212   7.168   4.770   8.349  0.7016  1.0714  0.1421
  187MOL0     H25213   6.928   4.577   8.329 -0.9623 -1.6927  2.5860
  187MOL0     H25214   7.084   4.547   8.258 -1.9312  1.2060 -2.0309
  187MOL0     H25215   7.050   4.435   8.473 -1.2688 -0.2023  2.2962
  187MOL0     H25216   6.990   4.590   8.540 -1.2977  0.4336 -1.7411
  187MOL0     H25217   7.256   4.559   8.447  0.5298  3.1257 -1.0222
  187MOL0     H25218   7.203   4.676   8.567 -4.1374  0.1024 -2.0075
  187MOL0     H25219   7.325   4.527   8.695  0.5263 -1.9727  0.3099
  187MOL0     H25220   7.238   4.384   8.629  1.4759  0.4508  2.0676
  187MOL0     H25221   7.104   4.611   8.779  0.0972 -0.0969 -0.5767
  187MOL0     H25222   7.023   4.450   8.749 -1.1432  0.5297  3.2371
  187MOL0     H25223   7.294   4.456   8.917  1.0934  2.2882 -2.3161
  187MOL0     H25224   7.177   4.333   8.874  2.0471  1.4435 -1.5931
  187MOL0     H25225   7.131   4.420   9.110  2.1513  1.3354 -0.3186
  187MOL0     H25226   6.988   4.433   8.999 -0.4554 -1.0836  1.7615
  187MOL0     H25227   7.212   4.960   8.447  0.1611  1.5965 -0.7703
  187MOL0     H25228   7.205   5.149   8.577  0.6707 -5.0745  1.9239
  187MOL0     H25229   7.286   5.537   8.621 -0.5409  0.5273 -1.8818
  187MOL0     H25230   7.309   5.698   8.790 -1.7910  2.4226 -0.2826
  187MOL0     H25231   8.742   5.837   8.320 -0.9525  2.4289 -0.0720
  187MOL0     H25232   8.947   5.768   8.460  1.1381 -4.6643  5.4342
  187MOL0     H25233   9.144   5.976   9.032 -0.5263 -2.4134 -0.1023
  187MOL0     H25234   9.394   5.976   9.073 -1.4236 -0.6154  0.6685
  187MOL0     H25235   9.587   6.055   9.008  0.6424 -0.7183  0.2058
  187MOL0     H25236   9.723   5.988   8.919  0.4624 -1.2171  0.4712
  187MOL0     H25237   9.589   6.214   8.845 -1.0867 -1.3598  0.5473
  187MOL0     H25238   9.503   6.101   8.739 -0.1129  1.0502 -0.5413
  187MOL0     H25239   9.728   5.996   8.693  1.0249  0.6681 -0.8494
  187MOL0     H25240   9.802   6.153   8.746 -0.6682  1.8252 -1.2062
  187MOL0     H25241   9.792   6.188   8.550  0.0482 -0.6921  1.4001
  187MOL0     H25242   9.635   6.267   8.589  0.6241  1.5113 -0.7674
  187MOL0     H25243   9.521   5.972   8.305 -0.4199 -0.2737 -0.1728
  187MOL0     H25244   9.451   5.786   8.703 -0.6016  2.7862 -1.5277
  187MOL0     H25245   9.221   5.823   8.639 -0.0373  1.0644 -0.1685
  188MOL0     O25246   0.794   9.462   7.388  0.3148 -0.1601 -0.1341
  188MOL0     C25247   0.794   9.348   7.428 -1.0971 -0.5863  0.2261
  188MOL0     O25248   0.696   9.258   7.410  0.4904 -0.1785 -0.8434
  188MOL0     C25249   0.574   9.295   7.358  0.8538 -0.0514 -0.2973
  188MOL0     C25250   0.521   9.207   7.262  0.1865  0.4512 -0.0332
  188MOL0     C25251   0.396   9.230   7.214  0.3222 -0.4810  0.0298
  188MOL0     C25252   0.319   9.339   7.262  0.4585  0.2253  1.1350
  188MOL0     O25253   0.205   9.363   7.194  0.5355  0.4626 -0.0185
  188MOL0     C25254   0.128   9.473   7.216  0.5642 -0.0656 -0.7753
  188MOL0     C25255   0.100   9.522   7.076  0.1249 -0.6514 -0.9138
  188MOL0     C25256   0.059   9.671   7.067 -0.0985 -0.5933 -0.3666
  188MOL0     C25257   0.016   9.720   6.927 -0.1695  0.4100  0.0738
  188MOL0     C25258  -0.021   9.865   6.896 -1.4202 -0.1066  1.1980
  188MOL0     C25259  -0.136   9.938   6.972  0.2439 -0.0397  0.0547
  188MOL0     C25260  -0.253   9.844   6.990  0.5141  0.2849  0.6443
  188MOL0     C25261  -0.383   9.894   7.054  0.6751  0.2825  0.4083
  188MOL0     N25262  -0.390   9.882   7.199  0.3973  0.1024 -0.3645
  188MOL0     C25263  -0.427   9.777   7.276 -0.4225  1.1724 -0.0273
  188MOL0     C25264  -0.423   9.831   7.404 -0.1794 -0.1350  0.5791
  188MOL0     C25265  -0.445   9.746   7.528 -0.1305  0.2116 -0.2933
  188MOL0     C25266  -0.590   9.774   7.574 -0.9707 -0.3574  0.2423
  188MOL0     C25267  -0.649   9.666   7.672 -0.6808  0.0504  0.3280
  188MOL0     C25268  -0.776   9.729   7.730  0.3681 -0.1096  0.2473
  188MOL0     O25269  -0.880   9.625   7.766  0.4193 -0.3825  0.4191
  188MOL0     C25270  -0.958   9.564   7.670 -0.1097  0.4440  0.5651
  188MOL0     C25271  -0.985   9.431   7.693 -0.1236  0.2329 -0.5525
  188MOL0     C25272  -1.079   9.366   7.604  0.4224  0.4203  0.3886
  188MOL0     C25273  -1.128   9.234   7.656 -0.8217  0.9229  0.2067
  188MOL0     C25274  -1.132   9.428   7.487 -0.3021 -0.1592  0.7216
  188MOL0     C25275  -1.238   9.362   7.395  0.2856  0.0367 -0.9601
  188MOL0     O25276  -1.291   9.442   7.301  0.0482 -0.1984 -0.0642
  188MOL0     C25277  -1.357   9.399   7.192  0.1070  0.3571  0.1016
  188MOL0     C25278  -1.374   9.493   7.094 -0.1924 -0.1039  0.5126
  188MOL0     C25279  -1.416   9.444   6.973 -1.1569  0.0508 -0.0605
  188MOL0     C25280  -1.464   9.310   6.942  0.1312  0.0921  0.0979
  188MOL0     O25281  -1.493   9.283   6.809  0.8371  0.1370 -0.1515
  188MOL0     C25282  -1.477   9.135   6.777  0.2081  0.4851  0.4364
  188MOL0     C25283  -1.458   9.107   6.630 -0.5505  0.3132 -0.4377
  188MOL0     C25284  -1.566   9.194   6.552 -1.1828  0.1128  1.2740
  188MOL0     C25285  -1.713   9.187   6.591 -0.2919  0.7635 -0.5157
  188MOL0     C25286  -1.801   9.300   6.524 -0.1778 -0.7432 -0.4980
  188MOL0     C25287  -1.855   9.267   6.387  0.2422  0.0834 -0.6376
  188MOL0     C25288  -1.879   9.388   6.301 -0.0622  0.0822  0.1386
  188MOL0     C25289  -1.886   9.352   6.150 -0.2418 -0.0822  1.0120
  188MOL0    Cl25290  -1.882   9.501   6.024 -0.3322 -0.0754 -0.1880
  188MOL0     C25291  -1.447   9.225   7.054 -0.0223  0.9631  0.3111
  188MOL0     C25292  -1.399   9.269   7.174 -0.0162 -0.2763  0.7723
  188MOL0     O25293  -1.256   9.244   7.417  0.0272 -0.3559  0.2557
  188MOL0     C25294  -1.089   9.560   7.464 -0.2127 -0.3671  0.7989
  188MOL0     C25295  -1.013   9.627   7.558  0.6008 -0.6359 -0.0639
  188MOL0     N25296  -0.381   9.961   7.391 -0.3027 -0.3346  0.0968
  188MOL0     N25297  -0.361   9.994   7.269  0.8062  0.1999  0.0187
  188MOL0     C25298   0.371   9.419   7.363  0.0673 -0.1253  0.0324
  188MOL0     C25299   0.502   9.400   7.418  0.3279 -0.4749  0.2410
  188MOL0     C25300   0.924   9.309   7.493  0.6877  0.0391 -1.1808
  188MOL0     C25301   0.941   9.179   7.534 -0.0610  0.2830  0.7107
  188MOL0     C25302   1.043   9.146   7.631 -0.6925  0.2554  0.5097
  188MOL0     C25303   1.147   9.236   7.647  0.0597  0.1717 -0.3351
  188MOL0     O25304   1.236   9.204   7.744 -0.8165 -0.0902 -0.2257
  188MOL0     C25305   1.363   9.271   7.752 -0.6267  0.1575  0.0596
  188MOL0     C25306   1.376   9.371   7.878  0.1882  0.2579 -0.1188
  188MOL0     C25307   1.512   9.430   7.907  1.2315  0.1679  0.3889
  188MOL0     C25308   1.502   9.533   8.013 -0.2629  0.4061 -0.0753
  188MOL0     C25309   1.633   9.564   8.062 -0.5322 -0.0022 -1.2503
  188MOL0     C25310   1.736   9.592   8.111 -0.1855  0.3893  0.2062
  188MOL0     C25311   1.143   9.366   7.596  0.5968  0.0279  0.2489
  188MOL0     C25312   1.019   9.400   7.526 -0.1605  0.0346  0.1065
  188MOL0     H25313   0.592   9.141   7.213  0.4583  0.0963  0.8337
  188MOL0     H25314   0.344   9.170   7.140  2.2102 -1.8465 -0.2846
  188MOL0     H25315   0.039   9.457   7.278  0.9289  4.1674  1.2606
  188MOL0     H25316   0.159   9.564   7.268 -2.7653  0.8207 -0.1166
  188MOL0     H25317   0.196   9.523   7.024  0.5936  0.0068 -0.0739
  188MOL0     H25318   0.029   9.445   7.044 -1.6316 -0.9452  2.9820
  188MOL0     H25319  -0.026   9.673   7.136  0.1545 -4.1086  0.2669
  188MOL0     H25320   0.128   9.742   7.113 -1.4543  1.5310 -1.4839
  188MOL0     H25321   0.095   9.696   6.856 -0.5984 -0.0552 -0.2515
  188MOL0     H25322  -0.075   9.663   6.909 -1.0098  0.8462  2.4454
  188MOL0     H25323   0.064   9.932   6.904 -0.8739 -0.4528 -0.9745
  188MOL0     H25324  -0.053   9.875   6.792 -0.2208  1.4794  0.9422
  188MOL0     H25325  -0.094   9.969   7.068  1.0343 -1.0882  0.0694
  188MOL0     H25326  -0.162  10.031   6.921  0.2347 -0.5301 -0.8627
  188MOL0     H25327  -0.277   9.803   6.891 -3.6766  0.9375  1.2277
  188MOL0     H25328  -0.222   9.767   7.061  2.0758  1.7154  1.5714
  188MOL0     H25329  -0.464   9.828   7.022  0.7721  0.6311 -0.5735
  188MOL0     H25330  -0.397   9.992   7.009  2.7346  1.0079  1.2175
  188MOL0     H25331  -0.437   9.675   7.240  0.9250  0.9373  0.1999
  188MOL0     H25332  -0.436   9.638   7.514  0.1582  0.4279 -2.0167
  188MOL0     H25333  -0.371   9.777   7.601  0.6290 -2.7595  0.3171
  188MOL0     H25334  -0.653   9.792   7.487 -0.3910  2.4043  0.3225
  188MOL0     H25335  -0.590   9.871   7.625 -4.9250 -0.7581  1.3879
  188MOL0     H25336  -0.577   9.645   7.752 -0.6853 -0.1868  0.2724
  188MOL0     H25337  -0.668   9.572   7.619  1.9144 -0.9095  0.9639
  188MOL0     H25338  -0.805   9.810   7.663  2.5169  2.1261  1.8071
  188MOL0     H25339  -0.768   9.794   7.818  2.3972 -1.5013  1.1573
  188MOL0     H25340  -0.941   9.390   7.783 -0.6581  1.0228  0.0810
  188MOL0     H25341  -1.076   9.210   7.749 -0.4877  1.1495  0.0825
  188MOL0     H25342  -1.230   9.233   7.695 -0.7960 -1.0783  0.3284
  188MOL0     H25343  -1.110   9.157   7.580 -0.3808  0.5579  0.6808
  188MOL0     H25344  -1.329   9.591   7.103  1.3024 -0.8640  1.6576
  188MOL0     H25345  -1.433   9.523   6.902 -1.6337 -0.1878 -0.2121
  188MOL0     H25346  -1.391   9.099   6.834  2.8960  2.5442 -2.0587
  188MOL0     H25347  -1.565   9.085   6.818  1.7322 -2.7095  0.1011
  188MOL0     H25348  -1.370   9.155   6.586 -1.2999  0.2529 -2.1000
  188MOL0     H25349  -1.457   9.001   6.605 -1.0502  0.8356 -3.0288
  188MOL0     H25350  -1.560   9.163   6.447 -2.4993  5.3932 -0.6340
  188MOL0     H25351  -1.526   9.295   6.563 -1.0638  0.1284  0.6911
  188MOL0     H25352  -1.741   9.088   6.553 -0.3426  0.1985  0.9269
  188MOL0     H25353  -1.728   9.190   6.699  1.3272  0.5542 -0.2540
  188MOL0     H25354  -1.749   9.396   6.531 -2.8036  0.7324  0.0380
  188MOL0     H25355  -1.888   9.328   6.584 -0.4457  1.6451 -1.8774
  188MOL0     H25356  -1.788   9.194   6.340  0.5326  1.6821 -2.8821
  188MOL0     H25357  -1.946   9.214   6.415 -0.6425  1.4209 -0.8791
  188MOL0     H25358  -1.803   9.462   6.326  0.9822 -1.6592  2.5436
  188MOL0     H25359  -1.970   9.441   6.328 -1.5334 -0.4321 -3.3761
  188MOL0     H25360  -1.981   9.302   6.128 -0.9982 -0.4496  4.5124
  188MOL0     H25361  -1.804   9.283   6.128 -1.6027 -1.5738  0.4113
  188MOL0     H25362  -1.465   9.118   7.058  1.2267  0.7791  2.4160
  188MOL0     H25363  -1.393   9.185   7.242  1.7308 -3.1425 -2.5639
  188MOL0     H25364  -1.126   9.605   7.373 -0.5888  2.9123  2.4378
  188MOL0     H25365  -0.997   9.734   7.555 -2.8507  0.0003 -0.5238
  188MOL0     H25366   0.313   9.498   7.411 -1.0507 -0.0109 -1.4486
  188MOL0     H25367   0.546   9.452   7.502 -1.6896 -1.5368  2.0633
  188MOL0     H25368   0.869   9.105   7.501  1.0554 -1.6056  2.3583
  188MOL0     H25369   1.047   9.050   7.682 -2.6491 -0.7614 -1.0854
  188MOL0     H25370   1.434   9.189   7.769 -0.2742  0.4779  0.1461
  188MOL0     H25371   1.393   9.326   7.663 -1.0082 -0.6853 -0.6031
  188MOL0     H25372   1.344   9.326   7.973  3.7239 -1.1735  0.5645
  188MOL0     H25373   1.312   9.455   7.848  0.1961  0.5484  0.6591
  188MOL0     H25374   1.554   9.482   7.821 -3.6906  2.6560 -0.8936
  188MOL0     H25375   1.579   9.351   7.943  1.9252  0.5692  0.0017
  188MOL0     H25376   1.441   9.492   8.093  2.4046  0.7351  2.2928
  188MOL0     H25377   1.459   9.628   7.979  0.1554  0.9005  0.7479
  188MOL0     H25378   1.833   9.624   8.144  1.2345 -3.1446 -0.0886
  188MOL0     H25379   1.220   9.440   7.614 -1.1129  1.2674  2.9324
  188MOL0     H25380   0.998   9.502   7.498 -0.2144 -0.6817 -2.7361
  189MOL0     O25381   5.772   1.958   2.592  0.1604 -0.4684  0.1164
  189MOL0     C25382   5.727   1.948   2.710 -0.6436  0.2411  0.3449
  189MOL0     O25383   5.802   1.908   2.823 -0.3576  0.5895 -0.2109
  189MOL0     C25384   5.935   1.890   2.816 -0.5931  0.3348 -0.6825
  189MOL0     C25385   5.991   1.782   2.763  0.1748  0.6770 -0.5712
  189MOL0     C25386   6.132   1.767   2.754  0.6531 -0.0749 -0.3158
  189MOL0     C25387   6.217   1.874   2.785 -1.3764 -0.0502  0.6528
  189MOL0     O25388   6.353   1.870   2.756 -0.1333 -0.8366  0.9097
  189MOL0     C25389   6.444   1.947   2.828 -1.2256  0.9329 -0.9346
  189MOL0     C25390   6.577   1.928   2.759 -0.1731 -0.5074  0.3957
  189MOL0     C25391   6.629   1.789   2.768 -0.0985  0.1025  0.8142
  189MOL0     C25392   6.724   1.748   2.660 -0.0860  0.4483  0.0735
  189MOL0     C25393   6.787   1.615   2.705  0.5202  0.1833  0.0528
  189MOL0     C25394   6.872   1.553   2.602 -0.5941 -0.2342  0.2958
  189MOL0     C25395   6.809   1.490   2.479  0.5337 -0.4563 -0.0855
  189MOL0     C25396   6.897   1.407   2.390 -0.0723 -0.2203  0.3789
  189MOL0     N25397   6.979   1.479   2.294 -0.8078 -0.1336 -1.2217
  189MOL0     C25398   7.093   1.553   2.338 -0.2260  0.6868 -0.0009
  189MOL0     C25399   7.179   1.539   2.223 -0.6201 -0.0386  0.2155
  189MOL0     C25400   7.316   1.595   2.205  0.9048  0.6288 -0.0436
  189MOL0     C25401   7.416   1.503   2.128 -1.1835 -0.3701 -0.7587
  189MOL0     C25402   7.548   1.581   2.106 -0.1353  0.5727 -0.7643
  189MOL0     C25403   7.652   1.495   2.028  0.6444  0.8667  0.4167
  189MOL0     O25404   7.629   1.485   1.883  1.0115  0.0274  0.9550
  189MOL0     C25405   7.677   1.375   1.822  0.3597 -0.2156  0.4294
  189MOL0     C25406   7.648   1.356   1.682  1.0060  0.6905 -0.3453
  189MOL0     C25407   7.697   1.255   1.607 -0.2581 -0.0171 -0.6269
  189MOL0     C25408   7.665   1.266   1.460 -0.3908 -0.8372 -0.5869
  189MOL0     C25409   7.771   1.148   1.649 -1.0452  0.3371 -0.6925
  189MOL0     C25410   7.827   1.036   1.580 -0.1793  0.1529  1.0583
  189MOL0     O25411   7.865   0.933   1.661 -0.0992  0.4321  0.5566
  189MOL0     C25412   7.961   0.836   1.612 -0.1346  0.7957 -0.4346
  189MOL0     C25413   8.083   0.868   1.542  0.3321  0.6610 -0.3170
  189MOL0     C25414   8.192   0.774   1.540  1.4423 -0.4123  0.5388
  189MOL0     C25415   8.182   0.657   1.609 -0.1324  0.7104 -0.2285
  189MOL0     O25416   8.279   0.570   1.571 -0.0769  0.2310 -0.9805
  189MOL0     C25417   8.369   0.550   1.681  0.7387 -0.3457 -0.4074
  189MOL0     C25418   8.494   0.494   1.625  0.4606 -0.4739 -0.2277
  189MOL0     C25419   8.611   0.493   1.711  0.7861  0.2758  0.1422
  189MOL0     C25420   8.738   0.476   1.636 -0.1157  0.3362 -0.0528
  189MOL0     C25421   8.853   0.516   1.726  0.4202  1.0067  0.1784
  189MOL0     C25422   8.990   0.476   1.666  1.3359  0.0993  0.4087
  189MOL0     C25423   9.091   0.536   1.765  0.4230  0.5432  0.2152
  189MOL0     C25424   9.231   0.518   1.698  1.1516 -0.2271  0.0802
  189MOL0    Cl25425   9.359   0.567   1.807 -0.2684  0.3072 -0.1377
  189MOL0     C25426   8.072   0.617   1.675 -1.4382 -0.1735  0.2001
  189MOL0     C25427   7.963   0.705   1.680 -0.2395 -0.4135  0.2467
  189MOL0     O25428   7.839   1.039   1.455 -0.2903 -0.9485 -0.3987
  189MOL0     C25429   7.790   1.157   1.790 -0.3279 -0.3844 -0.2427
  189MOL0     C25430   7.751   1.263   1.875  0.4360  0.5882  1.1374
  189MOL0     N25431   7.113   1.462   2.129 -0.5906  0.0608  0.1451
  189MOL0     N25432   6.999   1.431   2.171 -0.0568  0.0412  0.2349
  189MOL0     C25433   6.158   1.987   2.824 -0.5708  0.4833  0.2606
  189MOL0     C25434   6.020   1.998   2.834  0.0771  0.8479  0.3941
  189MOL0     C25435   5.582   1.954   2.720  0.8948 -0.3296  0.2117
  189MOL0     C25436   5.517   1.938   2.846 -0.6349  0.8499 -0.2127
  189MOL0     C25437   5.379   1.925   2.860 -0.9047 -0.1712  0.1056
  189MOL0     C25438   5.301   1.949   2.750  1.1220 -0.3864  0.2420
  189MOL0     O25439   5.165   1.963   2.773  0.3632 -0.1471  0.0872
  189MOL0     C25440   5.072   1.948   2.665  1.2896  0.5070  0.0977
  189MOL0     C25441   4.929   1.951   2.730  0.7635 -0.1407  0.0545
  189MOL0     C25442   4.881   1.826   2.805  0.3896  0.9344  0.7096
  189MOL0     C25443   4.958   1.767   2.914 -0.4271 -0.5418  0.0679
  189MOL0     C25444   4.935   1.843   3.040  0.3184  0.1301 -0.6597
  189MOL0     C25445   4.934   1.912   3.140  0.3846  0.7207  0.0218
  189MOL0     C25446   5.362   1.967   2.621  0.6398 -0.1973  0.4883
  189MOL0     C25447   5.494   1.963   2.608 -0.6479 -0.5771 -0.3616
  189MOL0     H25448   5.920   1.708   2.726  0.0822  0.4445  0.0580
  189MOL0     H25449   6.176   1.675   2.717  2.4229 -0.8425  3.2035
  189MOL0     H25450   6.420   2.053   2.835 -2.9905  0.4635  2.2609
  189MOL0     H25451   6.456   1.910   2.931 -2.1327  1.4968 -0.6121
  189MOL0     H25452   6.559   1.946   2.652 -2.2681 -4.0782 -0.0013
  189MOL0     H25453   6.646   2.001   2.802 -0.5107  0.8513 -1.2519
  189MOL0     H25454   6.695   1.794   2.855  0.5970  1.1997  0.2376
  189MOL0     H25455   6.545   1.720   2.784  0.1400 -1.1701 -2.5983
  189MOL0     H25456   6.663   1.726   2.571 -1.5909 -0.3669  1.2584
  189MOL0     H25457   6.793   1.832   2.649 -2.0988  2.0126 -1.6204
  189MOL0     H25458   6.844   1.631   2.797 -1.0050  0.1454  1.0520
  189MOL0     H25459   6.712   1.543   2.741  0.5893  1.1287  2.2806
  189MOL0     H25460   6.950   1.627   2.582 -0.7279 -0.3054 -0.5237
  189MOL0     H25461   6.919   1.477   2.664  0.2641  0.2294  0.2312
  189MOL0     H25462   6.728   1.424   2.511 -0.2686 -0.2415 -1.5843
  189MOL0     H25463   6.760   1.570   2.422 -2.0760 -1.5736  0.4192
  189MOL0     H25464   6.828   1.348   2.329 -0.2729  0.5928 -0.1805
  189MOL0     H25465   6.970   1.355   2.454  0.8350  2.7121  1.9182
  189MOL0     H25466   7.119   1.606   2.429 -1.4068  1.4649 -0.1020
  189MOL0     H25467   7.317   1.698   2.169 -2.8042  1.2348  1.2097
  189MOL0     H25468   7.356   1.606   2.306 -0.0618 -1.0037  0.5522
  189MOL0     H25469   7.377   1.482   2.028 -1.5472 -1.2873 -0.4349
  189MOL0     H25470   7.427   1.411   2.185 -2.7841 -1.2027 -1.7228
  189MOL0     H25471   7.589   1.607   2.204  4.4246 -5.8614 -0.3063
  189MOL0     H25472   7.534   1.673   2.048  2.1977  0.9359 -0.8809
  189MOL0     H25473   7.648   1.395   2.070 -2.7130  0.8340  0.2631
  189MOL0     H25474   7.753   1.536   2.040  1.3630  0.5055 -3.1694
  189MOL0     H25475   7.575   1.423   1.637 -0.4768 -1.2232 -0.9554
  189MOL0     H25476   7.758   1.266   1.401 -0.3023 -0.8866 -0.4490
  189MOL0     H25477   7.629   1.170   1.423  3.5612 -1.4365 -3.5672
  189MOL0     H25478   7.605   1.353   1.429  0.7045  0.2542  0.2578
  189MOL0     H25479   8.083   0.965   1.493 -0.9881  0.5425 -0.5828
  189MOL0     H25480   8.269   0.789   1.465 -2.1889  3.5302 -2.9458
  189MOL0     H25481   8.387   0.644   1.733  1.5166 -0.2188 -0.8810
  189MOL0     H25482   8.329   0.475   1.749  3.1543 -1.9335 -0.6091
  189MOL0     H25483   8.483   0.396   1.578  1.0862 -0.9425  0.5676
  189MOL0     H25484   8.515   0.563   1.542 -2.8488  2.7139  1.2902
  189MOL0     H25485   8.598   0.425   1.795 -2.8524 -1.5488 -1.6920
  189MOL0     H25486   8.616   0.596   1.750 -2.9553  1.9915 -3.1737
  189MOL0     H25487   8.744   0.367   1.627 -2.3832 -0.2578  3.6007
  189MOL0     H25488   8.752   0.539   1.548 -0.7462 -0.1479 -0.5064
  189MOL0     H25489   8.832   0.475   1.825  1.8116  0.9584  0.4690
  189MOL0     H25490   8.847   0.625   1.734 -3.8796  0.9735 -0.1738
  189MOL0     H25491   8.990   0.369   1.686  0.8892 -0.3033 -1.5596
  189MOL0     H25492   9.005   0.492   1.559  1.8505 -5.8831 -0.7400
  189MOL0     H25493   9.090   0.480   1.859  1.6583  0.7343  0.3642
  189MOL0     H25494   9.071   0.639   1.796  0.7553  0.1897  1.6871
  189MOL0     H25495   9.250   0.594   1.620 -1.3474 -0.5203 -0.9177
  189MOL0     H25496   9.240   0.414   1.667  0.3526 -0.7976  1.6966
  189MOL0     H25497   8.073   0.519   1.721 -3.1082 -0.6212 -0.6496
  189MOL0     H25498   7.882   0.676   1.746  1.3519 -0.9111  2.0650
  189MOL0     H25499   7.859   1.084   1.830 -1.4590 -1.5353 -0.3147
  189MOL0     H25500   7.790   1.253   1.976  2.1265 -4.6017  0.2596
  189MOL0     H25501   6.212   2.071   2.865  0.4852 -0.2793  0.4707
  189MOL0     H25502   5.972   2.092   2.862  0.9319  0.1047  5.3818
  189MOL0     H25503   5.577   1.913   2.933 -2.3275 -1.1673  0.4522
  189MOL0     H25504   5.344   1.918   2.963  2.7388  2.4511  1.7609
  189MOL0     H25505   5.077   2.021   2.583 -1.7956  1.4068  0.5860
  189MOL0     H25506   5.079   1.850   2.616  2.4531 -0.8995  2.8792
  189MOL0     H25507   4.857   1.981   2.654  1.1484 -1.3293 -0.8135
  189MOL0     H25508   4.932   2.020   2.815 -1.2688 -2.1519  1.9252
  189MOL0     H25509   4.883   1.745   2.732  0.6117  1.2073  0.4117
  189MOL0     H25510   4.780   1.843   2.844  0.7097  0.1351  1.9268
  189MOL0     H25511   5.063   1.770   2.883 -1.3289 -0.0821 -3.3492
  189MOL0     H25512   4.927   1.664   2.935 -0.9172 -0.2959  0.5951
  189MOL0     H25513   4.949   1.966   3.231 -3.7617  0.8304  0.8514
  189MOL0     H25514   5.306   1.982   2.529  1.0110  3.0608  0.6714
  189MOL0     H25515   5.549   1.966   2.515  3.7008 -1.8728  1.8848
  190MOL0     O25516   5.621   9.063   2.421  0.1620 -0.0431 -1.1609
  190MOL0     C25517   5.539   9.130   2.486 -0.8970 -0.3756  0.4629
  190MOL0     O25518   5.419   9.162   2.446 -0.0301 -0.8538  0.0796
  190MOL0     C25519   5.351   9.121   2.339  0.1494  0.5372 -0.5282
  190MOL0     C25520   5.271   9.215   2.275  0.0365  0.5051  0.2458
  190MOL0     C25521   5.206   9.189   2.159  0.2448 -0.8228  0.0155
  190MOL0     C25522   5.214   9.059   2.095 -0.7650 -0.4116 -1.0321
  190MOL0     O25523   5.132   9.044   1.982  0.8510 -0.1822 -0.0455
  190MOL0     C25524   5.176   8.943   1.892 -0.3511  0.6076  0.1857
  190MOL0     C25525   5.097   8.943   1.766 -1.1312  0.0053 -0.2467
  190MOL0     C25526   5.140   8.827   1.669  0.5996 -0.0452 -0.0381
  190MOL0     C25527   5.242   8.868   1.563  0.5875 -0.6991 -0.7888
  190MOL0     C25528   5.260   8.764   1.446 -0.1592 -0.0681  0.8567
  190MOL0     C25529   5.408   8.739   1.410 -0.7941  0.4448 -0.5025
  190MOL0     C25530   5.415   8.653   1.282 -0.1811 -0.7537 -0.3638
  190MOL0     C25531   5.345   8.709   1.156 -0.0138  0.3744  0.1059
  190MOL0     N25532   5.354   8.626   1.039 -0.0555  0.0442  0.1566
  190MOL0     C25533   5.470   8.562   0.997  0.8231 -0.0445  0.7598
  190MOL0     C25534   5.439   8.514   0.874 -0.4400 -0.6092  0.1161
  190MOL0     C25535   5.534   8.447   0.790 -0.5231  0.5954 -1.2903
  190MOL0     C25536   5.639   8.541   0.744  1.3303  0.7912  0.6298
  190MOL0     C25537   5.718   8.458   0.640  0.3494  0.4684  0.0205
  190MOL0     C25538   5.648   8.451   0.510 -0.0833 -0.8438 -0.4727
  190MOL0     O25539   5.611   8.575   0.451  0.5811 -0.2593  0.3007
  190MOL0     C25540   5.466   8.588   0.442 -1.5562 -0.4069 -0.4224
  190MOL0     C25541   5.396   8.482   0.371 -0.2514  0.3230  0.4358
  190MOL0     C25542   5.257   8.478   0.360  0.3153 -0.3029  0.3659
  190MOL0     C25543   5.194   8.358   0.294  0.5691 -0.1481  0.1778
  190MOL0     C25544   5.179   8.580   0.431 -0.9543  0.2554  0.1102
  190MOL0     C25545   5.026   8.583   0.422  0.6212  0.5227  0.8804
  190MOL0     O25546   4.962   8.654   0.521  0.1136  0.1484  0.6817
  190MOL0     C25547   4.821   8.652   0.507  0.3971 -0.3310  1.1058
  190MOL0     C25548   4.767   8.775   0.456  0.1186  0.7333  0.3518
  190MOL0     C25549   4.629   8.780   0.429  0.1603 -1.1169 -0.2283
  190MOL0     C25550   4.544   8.678   0.473 -0.0166 -0.4772 -0.8052
  190MOL0     O25551   4.405   8.689   0.456  0.1465 -0.5118  0.2373
  190MOL0     C25552   4.335   8.814   0.421 -1.0618  1.1524 -0.5399
  190MOL0     C25553   4.342   8.913   0.546  0.7769 -0.7142  0.8084
  190MOL0     C25554   4.251   9.035   0.521 -0.1768  0.4872  0.9541
  190MOL0     C25555   4.276   9.115   0.387  0.0405  0.8478 -0.1443
  190MOL0     C25556   4.204   9.250   0.396  0.6187  0.0857  1.0237
  190MOL0     C25557   4.236   9.329   0.266  0.7616  0.4784 -0.2122
  190MOL0     C25558   4.384   9.376   0.269  0.4646 -0.8391  1.6228
  190MOL0     C25559   4.429   9.486   0.359 -0.7101 -0.0055  0.0571
  190MOL0    Cl25560   4.343   9.641   0.312 -0.2867 -0.3231  0.6831
  190MOL0     C25561   4.597   8.564   0.523 -0.8976  0.3094  0.3566
  190MOL0     C25562   4.737   8.544   0.541 -0.6461 -0.2148  0.4166
  190MOL0     O25563   4.972   8.541   0.328 -0.0325  0.8108  1.6638
  190MOL0     C25564   5.247   8.672   0.507  1.0288 -0.0727  0.2274
  190MOL0     C25565   5.392   8.684   0.502  0.4507 -0.4822 -0.3550
  190MOL0     N25566   5.306   8.551   0.841 -0.5113 -0.1473  0.3197
  190MOL0     N25567   5.254   8.608   0.945  0.1991 -0.5773  0.0051
  190MOL0     C25568   5.293   8.958   2.161 -0.1745  0.1199 -0.5748
  190MOL0     C25569   5.366   8.997   2.275 -0.0532  0.2929  0.4472
  190MOL0     C25570   5.586   9.193   2.610 -0.3182 -0.1383  1.3642
  190MOL0     C25571   5.530   9.312   2.656 -0.9932  0.1087 -0.1440
  190MOL0     C25572   5.570   9.356   2.777  0.4482 -0.6479 -0.5735
  190MOL0     C25573   5.677   9.285   2.854  0.5120 -0.5679  0.0950
  190MOL0     O25574   5.729   9.333   2.976 -0.2755 -0.4372 -0.3852
  190MOL0     C25575   5.681   9.463   3.038 -0.1085 -0.0878  0.7827
  190MOL0     C25576   5.750   9.508   3.165  0.5574 -0.2073  0.4570
  190MOL0     C25577   5.883   9.544   3.121 -0.7721 -0.0844 -0.1540
  190MOL0     C25578   5.960   9.589   3.246 -0.3241  0.6034  0.9858
  190MOL0     C25579   6.106   9.579   3.229 -0.3858 -0.3040 -0.1990
  190MOL0     C25580   6.223   9.557   3.232 -0.3872 -0.8512  0.3496
  190MOL0     C25581   5.736   9.177   2.804  0.4107 -0.2078  0.0243
  190MOL0     C25582   5.689   9.133   2.676  0.1700  0.4546 -0.5026
  190MOL0     H25583   5.263   9.309   2.328 -0.6937  1.8637 -2.1134
  190MOL0     H25584   5.155   9.272   2.111 -2.0174 -1.7877  0.6221
  190MOL0     H25585   5.281   8.955   1.865 -0.8569  1.3663 -1.5395
  190MOL0     H25586   5.168   8.844   1.940  1.5107 -0.0177 -0.6911
  190MOL0     H25587   4.992   8.929   1.795 -1.5648  0.4393 -1.5436
  190MOL0     H25588   5.119   9.038   1.716 -2.2387  0.4125  0.0033
  190MOL0     H25589   5.195   8.754   1.730  2.8895  1.7823  0.2295
  190MOL0     H25590   5.047   8.800   1.619  0.9105  0.5731 -0.9601
  190MOL0     H25591   5.208   8.964   1.522 -1.9128 -0.4759  1.5690
  190MOL0     H25592   5.342   8.877   1.606  0.5508 -0.9498 -0.6528
  190MOL0     H25593   5.214   8.665   1.454 -0.1694 -0.5265 -2.8464
  190MOL0     H25594   5.204   8.813   1.366 -0.1718  0.4136  1.1576
  190MOL0     H25595   5.463   8.834   1.402  1.1539 -0.2757  2.5706
  190MOL0     H25596   5.453   8.681   1.490  0.4581  2.4449  0.3236
  190MOL0     H25597   5.515   8.621   1.252 -1.2778 -0.8622 -4.6182
  190MOL0     H25598   5.353   8.564   1.297 -1.1693  0.2115  1.5593
  190MOL0     H25599   5.381   8.810   1.136 -4.5253  1.4867 -4.2722
  190MOL0     H25600   5.238   8.703   1.175  0.3433 -3.6404  1.9723
  190MOL0     H25601   5.569   8.560   1.041  0.7261  0.9026  1.0421
  190MOL0     H25602   5.588   8.364   0.836 -1.9251 -0.9880 -2.3545
  190MOL0     H25603   5.481   8.400   0.706  0.2499  1.3408 -2.2122
  190MOL0     H25604   5.703   8.576   0.825  1.9958  2.1056 -0.4369
  190MOL0     H25605   5.579   8.620   0.699 -1.4627  0.2890  3.1506
  190MOL0     H25606   5.735   8.355   0.673 -1.7298  0.0898  0.0279
  190MOL0     H25607   5.815   8.509   0.640  0.8755 -0.3692  2.4696
  190MOL0     H25608   5.576   8.369   0.520  1.8823 -2.5965  0.0619
  190MOL0     H25609   5.733   8.413   0.452  1.4833 -0.8113  1.6629
  190MOL0     H25610   5.449   8.397   0.330 -0.4920  0.1416  0.4980
  190MOL0     H25611   5.137   8.392   0.208 -2.5679  3.2211  3.2526
  190MOL0     H25612   5.276   8.288   0.277  0.2890 -0.1775 -1.1300
  190MOL0     H25613   5.123   8.324   0.370  1.2829 -1.6521  0.2051
  190MOL0     H25614   4.834   8.858   0.436 -0.8476  1.9994  2.2120
  190MOL0     H25615   4.597   8.868   0.375 -1.9105 -1.7474 -0.1047
  190MOL0     H25616   4.382   8.859   0.333  1.0664 -0.2291 -0.1846
  190MOL0     H25617   4.234   8.783   0.395 -0.3500 -0.3418 -1.6681
  190MOL0     H25618   4.307   8.854   0.631  0.1017 -1.8680 -0.2338
  190MOL0     H25619   4.444   8.950   0.562  1.4491 -1.5106 -1.2989
  190MOL0     H25620   4.275   9.100   0.606  3.0358  1.5453 -0.6177
  190MOL0     H25621   4.146   9.005   0.533 -0.3806  1.1731  0.9343
  190MOL0     H25622   4.384   9.131   0.381  0.3306 -0.4371  1.0623
  190MOL0     H25623   4.235   9.051   0.309  0.2924  1.1334 -0.5174
  190MOL0     H25624   4.239   9.309   0.481  1.2389 -0.4502  1.1491
  190MOL0     H25625   4.097   9.229   0.394  0.5947  0.1995  1.1146
  190MOL0     H25626   4.225   9.259   0.182  3.0161 -0.4674  0.2066
  190MOL0     H25627   4.164   9.411   0.260  2.1489  1.7408 -0.1573
  190MOL0     H25628   4.392   9.427   0.173 -0.9417 -1.9881  0.8537
  190MOL0     H25629   4.459   9.296   0.270 -0.4711 -1.7473  0.7730
  190MOL0     H25630   4.537   9.500   0.345 -0.7988 -0.8225 -1.7365
  190MOL0     H25631   4.406   9.452   0.461 -1.5877 -0.6011 -0.3298
  190MOL0     H25632   4.529   8.486   0.558  1.7232 -1.7159  1.2401
  190MOL0     H25633   4.775   8.447   0.573 -2.5669 -0.8745  0.8591
  190MOL0     H25634   5.192   8.742   0.569  1.2523  0.8564 -0.6041
  190MOL0     H25635   5.445   8.753   0.568 -1.8270  1.0192  0.0660
  190MOL0     H25636   5.304   8.857   2.123 -1.8370 -1.8795  3.5731
  190MOL0     H25637   5.430   8.923   2.322 -0.0183  1.5566  2.5693
  190MOL0     H25638   5.456   9.376   2.609 -1.5819  0.3417  1.0536
  190MOL0     H25639   5.529   9.449   2.814  0.0728 -0.9447 -0.2381
  190MOL0     H25640   5.680   9.540   2.960  0.9941  0.0597  0.8890
  190MOL0     H25641   5.576   9.445   3.062 -0.1810  0.0084  0.5409
  190MOL0     H25642   5.760   9.424   3.235  2.2537  0.7447  1.4092
  190MOL0     H25643   5.678   9.583   3.200  0.7243  1.0791 -1.7966
  190MOL0     H25644   5.889   9.614   3.037 -2.8467 -0.0894 -0.3454
  190MOL0     H25645   5.935   9.452   3.094  0.6369  0.3991  0.7842
  190MOL0     H25646   5.940   9.519   3.328  2.5334 -1.3197  0.1968
  190MOL0     H25647   5.928   9.687   3.284 -3.3454 -0.4093  1.2860
  190MOL0     H25648   6.323   9.527   3.256 -0.1289  0.2755  0.7512
  190MOL0     H25649   5.821   9.119   2.836 -1.1511 -2.6675 -0.0171
  190MOL0     H25650   5.732   9.043   2.633  1.2123  0.3297  0.7542
  191MOL0     O25651   0.676   1.055   9.034  0.1036  0.3103  0.3965
  191MOL0     C25652   0.696   1.048   8.918 -0.1383 -0.0686  0.3071
  191MOL0     O25653   0.654   1.131   8.821  1.0979 -0.7272  0.4926
  191MOL0     C25654   0.587   1.250   8.858 -0.4827 -0.4968 -0.2004
  191MOL0     C25655   0.449   1.256   8.894 -0.2093 -0.1191  0.1760
  191MOL0     C25656   0.392   1.385   8.905 -0.1794  0.1183 -0.0789
  191MOL0     C25657   0.466   1.507   8.891 -0.4593 -0.8154 -0.5570
  191MOL0     O25658   0.404   1.627   8.890  1.1940  0.5912  0.2515
  191MOL0     C25659   0.296   1.653   8.982 -0.0539  0.3094  1.0772
  191MOL0     C25660   0.328   1.751   9.089 -0.3976 -1.1355  0.8744
  191MOL0     C25661   0.453   1.709   9.180  0.1545 -0.5146  0.0208
  191MOL0     C25662   0.446   1.567   9.230  0.5767  0.6819  0.1825
  191MOL0     C25663   0.548   1.545   9.341  0.2309  1.2455 -0.5960
  191MOL0     C25664   0.563   1.394   9.389 -0.4972  1.0334 -0.2126
  191MOL0     C25665   0.437   1.352   9.456 -0.0148 -0.1696  0.2608
  191MOL0     C25666   0.441   1.329   9.604  0.0974  0.7405  0.2577
  191MOL0     N25667   0.366   1.214   9.646  0.6508  0.1389  1.1610
  191MOL0     C25668   0.404   1.108   9.725 -0.3342  0.3056  0.2170
  191MOL0     C25669   0.296   1.034   9.753 -0.3732  0.1616 -0.4429
  191MOL0     C25670   0.294   0.904   9.832 -0.2585 -0.8638 -0.3717
  191MOL0     C25671   0.186   0.814   9.772  1.0907  0.7130 -0.7983
  191MOL0     C25672   0.187   0.671   9.831 -0.6548 -0.5436  0.4780
  191MOL0     C25673   0.065   0.588   9.783 -0.5703  0.1562 -0.4272
  191MOL0     O25674   0.091   0.542   9.648 -0.2290 -0.3132 -0.1726
  191MOL0     C25675  -0.019   0.482   9.584 -0.1517  0.3395 -0.6272
  191MOL0     C25676  -0.143   0.460   9.641  0.5350 -0.0357 -0.4013
  191MOL0     C25677  -0.254   0.404   9.564  0.4091  0.6356 -0.0581
  191MOL0     C25678  -0.394   0.403   9.640 -0.2594  1.0468  0.2684
  191MOL0     C25679  -0.237   0.371   9.427 -0.3385 -0.0461 -0.2568
  191MOL0     C25680  -0.338   0.317   9.339  0.1450 -0.1270  0.1659
  191MOL0     O25681  -0.323   0.340   9.206 -0.6755 -0.7600 -0.3339
  191MOL0     C25682  -0.412   0.298   9.114  0.0537  0.4577  0.2597
  191MOL0     C25683  -0.352   0.233   9.009  0.1645 -0.2607 -0.1433
  191MOL0     C25684  -0.434   0.177   8.909 -1.0692  0.2457  0.0418
  191MOL0     C25685  -0.579   0.209   8.912 -0.4135 -0.2397 -0.4998
  191MOL0     O25686  -0.671   0.173   8.820  0.2088  0.5632  0.0304
  191MOL0     C25687  -0.610   0.101   8.710  1.0903  0.4797  0.3403
  191MOL0     C25688  -0.704   0.090   8.589 -1.2750 -0.5372  0.3121
  191MOL0     C25689  -0.825   0.008   8.617  0.1323 -0.1702 -0.5930
  191MOL0     C25690  -0.941  -0.005   8.502 -1.6353  0.5249 -0.6281
  191MOL0     C25691  -0.877  -0.064   8.375  0.2000 -0.5974  0.0943
  191MOL0     C25692  -1.000  -0.079   8.276 -0.4396 -1.6006 -0.5856
  191MOL0     C25693  -0.957  -0.101   8.127 -0.2403 -0.7186  0.1972
  191MOL0     C25694  -1.077  -0.097   8.024  0.2125 -0.2918 -0.1433
  191MOL0    Cl25695  -1.210  -0.193   8.087 -0.2014 -0.0683 -0.0580
  191MOL0     C25696  -0.633   0.272   9.018 -0.6825 -0.2720  0.3627
  191MOL0     C25697  -0.547   0.319   9.122 -0.6326  0.1669  0.5587
  191MOL0     O25698  -0.439   0.280   9.394  0.4185  0.2908 -0.2071
  191MOL0     C25699  -0.115   0.410   9.381  1.2961  0.1658  0.2813
  191MOL0     C25700  -0.004   0.451   9.457 -0.2049  0.1743  0.3279
  191MOL0     N25701   0.186   1.096   9.689 -0.2467  0.1725  0.0459
  191MOL0     N25702   0.230   1.201   9.628  0.1010 -0.1253 -0.2262
  191MOL0     C25703   0.600   1.491   8.859  0.2748 -0.7845  1.0077
  191MOL0     C25704   0.654   1.372   8.842  0.1892  1.1056 -0.2232
  191MOL0     C25705   0.761   0.923   8.873  1.2046  0.0807  0.4184
  191MOL0     C25706   0.878   0.856   8.927  1.0117 -0.8327  0.5089
  191MOL0     C25707   0.929   0.742   8.876  0.6501  0.3993  0.4635
  191MOL0     C25708   0.872   0.682   8.758 -0.2116  0.1418 -0.2282
  191MOL0     O25709   0.921   0.553   8.722  0.0970 -0.6772  0.3259
  191MOL0     C25710   1.059   0.519   8.751 -0.6859  0.2808  0.6635
  191MOL0     C25711   1.086   0.448   8.886  1.5967 -0.4939  0.0415
  191MOL0     C25712   1.232   0.448   8.920  0.4855  0.3641  0.0292
  191MOL0     C25713   1.266   0.364   9.045 -0.0212 -0.2268  1.2026
  191MOL0     C25714   1.413   0.379   9.070 -0.0511 -0.0013 -0.0196
  191MOL0     C25715   1.532   0.367   9.075 -0.7012  0.1837 -0.8015
  191MOL0     C25716   0.768   0.747   8.701 -0.1944  0.3641 -0.5843
  191MOL0     C25717   0.707   0.870   8.751  0.0424  0.0568 -0.8018
  191MOL0     H25718   0.397   1.161   8.901 -1.3519  0.5191  0.4152
  191MOL0     H25719   0.288   1.402   8.931  0.1331  3.8716 -0.7455
  191MOL0     H25720   0.226   1.692   8.908 -1.8564 -1.6450  1.6498
  191MOL0     H25721   0.244   1.565   9.021 -2.4653  0.8633 -0.6718
  191MOL0     H25722   0.367   1.835   9.029  1.3007 -1.1658  1.8869
  191MOL0     H25723   0.238   1.773   9.147  0.4240 -1.4505  2.3157
  191MOL0     H25724   0.553   1.718   9.135  1.3826 -3.3373  1.8889
  191MOL0     H25725   0.455   1.779   9.265 -3.9921 -0.2618  0.1174
  191MOL0     H25726   0.340   1.550   9.252  0.4109  0.7224 -0.5743
  191MOL0     H25727   0.460   1.490   9.154 -0.6697 -1.0145  1.5870
  191MOL0     H25728   0.646   1.582   9.308  0.3222  1.7615  0.2121
  191MOL0     H25729   0.528   1.598   9.435 -1.6568 -1.4525  0.6451
  191MOL0     H25730   0.579   1.327   9.304 -0.9904 -0.0643  0.5361
  191MOL0     H25731   0.644   1.377   9.460 -2.8857  1.9855  2.9969
  191MOL0     H25732   0.367   1.433   9.434  2.4716  1.1713 -3.8380
  191MOL0     H25733   0.400   1.264   9.403 -0.0214 -0.4036  0.6504
  191MOL0     H25734   0.388   1.415   9.646 -2.5462 -0.9298  0.6359
  191MOL0     H25735   0.543   1.318   9.641 -0.4913 -1.8939  1.3173
  191MOL0     H25736   0.498   1.082   9.773 -1.1181 -1.3365  0.9223
  191MOL0     H25737   0.394   0.860   9.830  0.8226  1.4798 -0.9062
  191MOL0     H25738   0.274   0.913   9.939  2.1151 -2.8630  0.3488
  191MOL0     H25739   0.186   0.806   9.663  1.1841 -0.8296 -0.7031
  191MOL0     H25740   0.085   0.849   9.797  1.5342  0.2436  2.0505
  191MOL0     H25741   0.179   0.680   9.939 -3.7742 -0.3376  0.3183
  191MOL0     H25742   0.277   0.619   9.797 -1.2588  0.2921 -2.7602
  191MOL0     H25743  -0.023   0.653   9.794  0.3145  1.2104  0.6911
  191MOL0     H25744   0.051   0.498   9.844  0.4573 -1.7226 -2.7996
  191MOL0     H25745  -0.155   0.483   9.746 -2.6457  1.9504 -1.0376
  191MOL0     H25746  -0.396   0.480   9.717  2.3649  2.6271 -1.1153
  191MOL0     H25747  -0.476   0.431   9.573  0.0492  0.2083 -0.4832
  191MOL0     H25748  -0.397   0.296   9.663  1.1158  0.9216 -0.0544
  191MOL0     H25749  -0.246   0.211   8.998  0.0389 -0.1743 -1.6309
  191MOL0     H25750  -0.390   0.126   8.823 -2.3336  2.3607 -1.9859
  191MOL0     H25751  -0.526   0.161   8.673  2.3587 -1.4259 -0.0132
  191MOL0     H25752  -0.571   0.002   8.736  1.0691 -0.2156 -2.0222
  191MOL0     H25753  -0.726   0.195   8.568  2.2960  0.6432  1.6441
  191MOL0     H25754  -0.639   0.050   8.510 -4.3165 -1.4973 -1.8848
  191MOL0     H25755  -0.870   0.061   8.702  3.2209  2.1259 -0.2009
  191MOL0     H25756  -0.803  -0.091   8.658  2.5564 -1.4222 -4.4194
  191MOL0     H25757  -1.015  -0.075   8.542  0.8684 -0.2861  3.2524
  191MOL0     H25758  -0.975   0.096   8.476 -0.3700  1.5975  1.5379
  191MOL0     H25759  -0.825  -0.154   8.410 -1.1878 -1.7649 -0.7206
  191MOL0     H25760  -0.796  -0.010   8.325  2.6254 -2.9703  1.1838
  191MOL0     H25761  -1.072  -0.156   8.308 -0.9428 -1.2814 -0.9363
  191MOL0     H25762  -1.065   0.008   8.285 -2.6968 -3.4309  2.9859
  191MOL0     H25763  -0.906  -0.196   8.109 -1.8392 -1.3001 -1.6069
  191MOL0     H25764  -0.889  -0.022   8.095 -2.5158 -0.1802 -4.0038
  191MOL0     H25765  -1.050  -0.134   7.925  1.0112 -1.2832  0.4210
  191MOL0     H25766  -1.118   0.005   8.023  0.6316 -0.1223 -0.7344
  191MOL0     H25767  -0.739   0.293   9.024 -0.1709  2.8794  0.0680
  191MOL0     H25768  -0.583   0.374   9.208 -1.2949  0.3619  0.1559
  191MOL0     H25769  -0.098   0.396   9.275 -0.5367 -1.4785  0.1552
  191MOL0     H25770   0.092   0.470   9.410  1.5955  0.8840  3.9411
  191MOL0     H25771   0.674   1.570   8.855 -2.4331  1.8935 -1.0848
  191MOL0     H25772   0.760   1.368   8.819  0.2510  0.5453  0.1253
  191MOL0     H25773   0.928   0.887   9.018  5.4380  1.4810 -2.4008
  191MOL0     H25774   1.010   0.699   8.933  0.3491  1.9456  2.1478
  191MOL0     H25775   1.105   0.461   8.670 -0.2656  0.3922  0.8213
  191MOL0     H25776   1.118   0.611   8.745 -0.6341  0.2584  0.8384
  191MOL0     H25777   1.045   0.347   8.885  0.5971 -0.1024 -1.1473
  191MOL0     H25778   1.036   0.495   8.972  1.2218  0.7482 -0.8176
  191MOL0     H25779   1.265   0.551   8.934  0.0684  0.9237 -2.5671
  191MOL0     H25780   1.294   0.415   8.835 -2.0856  0.1028 -1.8779
  191MOL0     H25781   1.241   0.259   9.030 -3.5141  0.7966 -1.6515
  191MOL0     H25782   1.202   0.410   9.122 -1.5891  1.3179 -0.9188
  191MOL0     H25783   1.637   0.347   9.066  0.0379  2.3986  1.7748
  191MOL0     H25784   0.728   0.697   8.613 -0.6492 -0.8808  0.3004
  191MOL0     H25785   0.632   0.919   8.689 -0.8590  1.4237  1.2260
  192MOL0     O25786   1.321   2.639   5.945 -0.0131 -1.0985  0.0959
  192MOL0     C25787   1.287   2.601   5.833  0.2590 -0.0003 -0.3570
  192MOL0     O25788   1.212   2.682   5.749 -0.6018  0.3784 -0.1089
  192MOL0     C25789   1.144   2.794   5.785  0.1233  0.3802  0.4751
  192MOL0     C25790   1.089   2.835   5.902  0.8577  0.6450  0.0737
  192MOL0     C25791   1.027   2.958   5.916  0.4990  0.2445 -0.9106
  192MOL0     C25792   1.012   3.046   5.804  0.4994  1.5998  0.4368
  192MOL0     O25793   0.941   3.169   5.798  0.2717  0.0132  0.2413
  192MOL0     C25794   0.871   3.217   5.917  0.0209  1.2141  0.0313
  192MOL0     C25795   0.755   3.301   5.878 -0.1514  0.4050  0.5936
  192MOL0     C25796   0.808   3.440   5.855 -0.1685 -0.2260  0.5990
  192MOL0     C25797   0.706   3.542   5.913  0.6251 -0.9864  0.6264
  192MOL0     C25798   0.738   3.691   5.865 -0.2324 -0.5288 -0.0869
  192MOL0     C25799   0.837   3.772   5.959 -1.0094 -0.0823 -0.4585
  192MOL0     C25800   0.863   3.921   5.919  0.4920 -0.7742  0.1151
  192MOL0     C25801   0.736   4.001   5.913  0.0179  0.3605 -0.6802
  192MOL0     N25802   0.763   4.137   5.855  0.3137  0.7062 -0.2656
  192MOL0     C25803   0.871   4.219   5.881  0.3630  0.8901 -0.6312
  192MOL0     C25804   0.844   4.328   5.810  0.5705  0.0238  0.1501
  192MOL0     C25805   0.940   4.443   5.810 -0.1764 -0.7053 -0.1089
  192MOL0     C25806   0.946   4.525   5.677 -0.3277 -0.6212  1.0151
  192MOL0     C25807   0.978   4.464   5.539  1.0102 -0.2697  0.6378
  192MOL0     C25808   1.111   4.397   5.540 -0.1265 -0.7516 -0.2441
  192MOL0     O25809   1.215   4.490   5.557  0.7933 -0.2646 -0.4457
  192MOL0     C25810   1.271   4.558   5.446  0.0216 -0.5527  0.2435
  192MOL0     C25811   1.379   4.647   5.479 -0.6202  0.1213 -0.2484
  192MOL0     C25812   1.463   4.699   5.382 -0.5549 -0.2571 -0.3325
  192MOL0     C25813   1.570   4.804   5.423 -0.2547 -0.9009  0.5126
  192MOL0     C25814   1.427   4.665   5.240 -0.0328  0.3649  0.0441
  192MOL0     C25815   1.490   4.730   5.128 -0.3542  0.1825  1.5960
  192MOL0     O25816   1.504   4.650   5.014  0.5942 -1.3973  0.1832
  192MOL0     C25817   1.549   4.726   4.909  0.8128  0.1877 -0.2462
  192MOL0     C25818   1.676   4.698   4.856  0.0821  0.7973 -0.3633
  192MOL0     C25819   1.729   4.768   4.745 -1.4264 -0.0899 -0.6220
  192MOL0     C25820   1.659   4.866   4.680 -0.2462 -0.9978 -0.1447
  192MOL0     O25821   1.718   4.931   4.575  1.1366 -0.4913 -0.3507
  192MOL0     C25822   1.859   4.955   4.578  1.1908  0.7693 -0.1844
  192MOL0     C25823   1.887   5.088   4.497 -0.1513  1.3632 -0.2959
  192MOL0     C25824   1.818   5.199   4.560 -0.2712 -0.1018  0.4375
  192MOL0     C25825   1.842   5.340   4.512  0.3176 -0.4911  0.6006
  192MOL0     C25826   1.767   5.434   4.608  0.0383 -0.0860  0.5551
  192MOL0     C25827   1.759   5.584   4.566  0.9204 -0.1406  0.4041
  192MOL0     C25828   1.704   5.661   4.683  0.1162 -0.1023 -0.1681
  192MOL0     C25829   1.638   5.802   4.650 -0.2231  0.6921  0.7757
  192MOL0    Cl25830   1.561   5.860   4.795  0.1152 -0.2143 -0.3246
  192MOL0     C25831   1.534   4.900   4.738 -0.2264 -1.2025  1.0770
  192MOL0     C25832   1.476   4.829   4.845 -0.0676  0.1563  0.1093
  192MOL0     O25833   1.544   4.837   5.155 -1.0282  0.3251 -0.7285
  192MOL0     C25834   1.328   4.577   5.212  0.6249  0.5206 -0.8296
  192MOL0     C25835   1.251   4.521   5.316 -0.6994 -0.5274 -0.7289
  192MOL0     N25836   0.720   4.316   5.750  0.1407 -0.8525  0.6771
  192MOL0     N25837   0.671   4.206   5.783 -0.4941  0.0972 -0.0642
  192MOL0     C25838   1.069   3.007   5.689  0.0486  1.0255 -0.7983
  192MOL0     C25839   1.134   2.885   5.675 -0.6038  0.0668  0.0917
  192MOL0     C25840   1.315   2.460   5.783 -0.4477 -0.5137  0.1559
  192MOL0     C25841   1.302   2.429   5.649  0.3076 -0.7593  0.2126
  192MOL0     C25842   1.334   2.297   5.616 -0.7369  0.5368 -0.3553
  192MOL0     C25843   1.401   2.210   5.708 -0.1731  0.1597  0.8884
  192MOL0     O25844   1.460   2.089   5.674 -0.2788 -0.6575 -0.3229
  192MOL0     C25845   1.428   2.028   5.552 -0.0134 -0.6215  0.1881
  192MOL0     C25846   1.502   1.895   5.534 -0.0658 -0.2061 -0.6395
  192MOL0     C25847   1.479   1.829   5.398 -0.4115 -0.7071 -0.1505
  192MOL0     C25848   1.540   1.696   5.399  0.6866 -0.3950  0.1366
  192MOL0     C25849   1.445   1.592   5.459  0.6101  0.1811 -1.4305
  192MOL0     C25850   1.361   1.515   5.493 -0.3476 -0.6528 -0.1912
  192MOL0     C25851   1.421   2.249   5.831  0.6382  0.0118 -0.6834
  192MOL0     C25852   1.366   2.371   5.872 -0.4686  0.0504 -0.9269
  192MOL0     H25853   1.110   2.761   5.979  0.6152 -1.8738 -2.1090
  192MOL0     H25854   0.991   2.991   6.013  1.0254 -2.3675  0.2837
  192MOL0     H25855   0.842   3.120   5.958  1.2592 -0.1501 -2.0964
  192MOL0     H25856   0.947   3.261   5.982  3.2956 -2.6844 -0.7018
  192MOL0     H25857   0.702   3.267   5.789  3.2564  0.7227 -1.7443
  192MOL0     H25858   0.685   3.299   5.962 -0.7145  3.4979  0.3193
  192MOL0     H25859   0.898   3.459   5.915 -0.1262 -1.6758  1.0490
  192MOL0     H25860   0.824   3.449   5.747 -1.3858 -3.3750  0.0480
  192MOL0     H25861   0.608   3.514   5.874  0.0662  2.0012 -0.3773
  192MOL0     H25862   0.691   3.536   6.021 -0.6709 -0.1995  0.5062
  192MOL0     H25863   0.769   3.680   5.761  2.3303 -2.6037  0.7996
  192MOL0     H25864   0.645   3.749   5.867 -0.5747 -1.0728  0.3967
  192MOL0     H25865   0.799   3.790   6.060 -2.5656  2.2923 -1.3574
  192MOL0     H25866   0.930   3.716   5.955 -0.8121  0.2926 -2.4237
  192MOL0     H25867   0.930   3.972   5.989  1.5034  0.5349 -1.7437
  192MOL0     H25868   0.900   3.933   5.817  0.4002 -1.2336  0.0223
  192MOL0     H25869   0.681   4.015   6.006 -2.6716 -1.0543 -1.9557
  192MOL0     H25870   0.660   3.946   5.858  0.7135 -4.5253  2.5802
  192MOL0     H25871   0.949   4.203   5.955 -1.9428 -1.9792  1.4625
  192MOL0     H25872   0.901   4.509   5.888 -1.6888  0.5916 -1.8839
  192MOL0     H25873   1.040   4.414   5.843  0.8596  2.8756  0.2606
  192MOL0     H25874   1.024   4.600   5.691 -0.0193 -1.0816  1.8332
  192MOL0     H25875   0.844   4.564   5.670  0.7830  2.4328  0.5375
  192MOL0     H25876   0.981   4.546   5.467  3.5807 -1.6987 -1.0256
  192MOL0     H25877   0.905   4.393   5.500  2.6206  1.1610 -6.1395
  192MOL0     H25878   1.126   4.323   5.460  1.2180  0.1177 -0.8390
  192MOL0     H25879   1.115   4.326   5.623  1.7806  1.7666  1.9703
  192MOL0     H25880   1.405   4.658   5.584  1.3402 -0.1154 -0.6643
  192MOL0     H25881   1.658   4.809   5.359 -1.0517 -2.5245 -0.7742
  192MOL0     H25882   1.522   4.902   5.417 -1.9368 -1.7544 -0.8044
  192MOL0     H25883   1.593   4.794   5.530 -1.3196  1.6745  1.0676
  192MOL0     H25884   1.739   4.621   4.901  1.5430  2.0500 -0.1833
  192MOL0     H25885   1.831   4.738   4.720 -0.7416  3.1071 -2.1152
  192MOL0     H25886   1.897   4.969   4.680  0.6373 -1.7605  0.4276
  192MOL0     H25887   1.906   4.862   4.544  5.4641  1.6898  2.4449
  192MOL0     H25888   1.989   5.127   4.500  0.2175  0.4519 -0.5881
  192MOL0     H25889   1.864   5.079   4.391 -0.7488  0.3484 -0.0963
  192MOL0     H25890   1.845   5.199   4.666  1.5223  0.3904  0.0272
  192MOL0     H25891   1.714   5.180   4.534 -0.2787  0.3701  0.0882
  192MOL0     H25892   1.947   5.369   4.499  0.2357 -0.6101 -0.4121
  192MOL0     H25893   1.800   5.342   4.411  1.2956  0.6078  0.1916
  192MOL0     H25894   1.826   5.419   4.699  0.9843 -0.7507 -0.1556
  192MOL0     H25895   1.670   5.387   4.630 -0.9966 -0.3789 -3.8334
  192MOL0     H25896   1.855   5.622   4.531  1.5101 -2.6465 -0.8845
  192MOL0     H25897   1.686   5.588   4.485 -0.5722 -2.0532  1.5426
  192MOL0     H25898   1.792   5.672   4.747 -0.0548  3.8918 -0.4083
  192MOL0     H25899   1.628   5.597   4.729 -0.8334 -0.4454 -2.1019
  192MOL0     H25900   1.556   5.788   4.579 -0.0437 -1.2305  0.8957
  192MOL0     H25901   1.715   5.866   4.606  1.6916 -1.2670  1.1271
  192MOL0     H25902   1.475   4.974   4.686  0.9863 -0.5508  0.5995
  192MOL0     H25903   1.384   4.862   4.893 -1.8616 -3.0720 -0.8648
  192MOL0     H25904   1.299   4.548   5.111 -1.2320 -0.6875 -0.0101
  192MOL0     H25905   1.179   4.444   5.292 -1.1618 -1.4628  3.0531
  192MOL0     H25906   1.044   3.065   5.600 -0.1928  1.2552 -0.5828
  192MOL0     H25907   1.184   2.866   5.581 -2.0374 -1.5623 -0.3858
  192MOL0     H25908   1.254   2.499   5.582  2.6599  0.8700  0.1266
  192MOL0     H25909   1.314   2.257   5.517  5.2805 -0.4944 -1.5476
  192MOL0     H25910   1.321   2.010   5.563  0.1180  0.1351  4.2582
  192MOL0     H25911   1.451   2.093   5.467  1.1394 -2.5074 -0.9978
  192MOL0     H25912   1.471   1.828   5.615  2.4312 -1.1253 -0.3752
  192MOL0     H25913   1.608   1.906   5.556 -0.1529 -1.5387  0.5897
  192MOL0     H25914   1.518   1.907   5.332 -0.2251 -0.3790  0.3451
  192MOL0     H25915   1.371   1.822   5.383 -0.6426 -1.6653  1.7424
  192MOL0     H25916   1.639   1.704   5.444  1.3148 -6.0933  0.6022
  192MOL0     H25917   1.562   1.664   5.297 -0.0840  0.2142 -0.2320
  192MOL0     H25918   1.298   1.436   5.530  0.8052 -1.8656 -0.7115
  192MOL0     H25919   1.482   2.200   5.906  1.1919  3.9117  1.6889
  192MOL0     H25920   1.367   2.386   5.980  0.0526  0.1405 -0.9425
  193MOL0     O25921   8.210   1.913  10.922 -0.2150  0.1636 -0.0425
  193MOL0     C25922   8.118   1.990  10.915  0.2256  0.5695  0.0566
  193MOL0     O25923   8.053   2.040  10.802  0.2673  0.2905 -0.1878
  193MOL0     C25924   8.114   2.045  10.671  0.1037 -0.4855 -0.6281
  193MOL0     C25925   8.067   2.147  10.593  0.1157 -0.7192  0.1668
  193MOL0     C25926   8.115   2.161  10.456  0.6168 -1.1147  0.0383
  193MOL0     C25927   8.222   2.079  10.413  0.1012  0.7800 -0.3690
  193MOL0     O25928   8.262   2.096  10.277  0.4371 -1.4062  0.2911
  193MOL0     C25929   8.377   2.030  10.224 -0.3874  1.0114  0.8481
  193MOL0     C25930   8.425   2.091  10.096 -0.2154  1.0193 -0.6835
  193MOL0     C25931   8.343   2.067   9.968  0.0550  0.4418 -0.0511
  193MOL0     C25932   8.377   2.187   9.882 -0.0311 -0.9575  0.8741
  193MOL0     C25933   8.335   2.132   9.741  0.0265 -0.1259 -0.6618
  193MOL0     C25934   8.369   2.245   9.638 -0.4985  0.6497  0.4587
  193MOL0     C25935   8.327   2.208   9.497 -0.1723  0.4991  0.0472
  193MOL0     C25936   8.384   2.316   9.405  0.0365 -0.3106  0.1651
  193MOL0     N25937   8.318   2.320   9.271 -0.4665 -0.9805 -0.4125
  193MOL0     C25938   8.186   2.319   9.245 -0.5181 -0.8922 -0.0279
  193MOL0     C25939   8.168   2.296   9.112 -0.2321 -0.2681 -0.6120
  193MOL0     C25940   8.038   2.278   9.026 -0.5174  0.1061 -0.0605
  193MOL0     C25941   7.922   2.386   9.059 -1.4156 -0.3242 -0.5702
  193MOL0     C25942   7.799   2.365   8.964  0.4206 -0.0656 -0.6164
  193MOL0     C25943   7.839   2.429   8.827 -0.2298  0.1780  0.0366
  193MOL0     O25944   7.826   2.567   8.829  0.6989  0.3719  0.4127
  193MOL0     C25945   7.893   2.618   8.721  0.3903 -1.1804 -0.5722
  193MOL0     C25946   7.961   2.734   8.725  0.3076 -0.1080 -0.8741
  193MOL0     C25947   8.018   2.800   8.613 -0.4541 -0.3056 -0.4689
  193MOL0     C25948   8.097   2.927   8.638  0.6888  1.2696 -1.2221
  193MOL0     C25949   8.007   2.739   8.486 -0.8695  0.2283  0.0044
  193MOL0     C25950   8.078   2.787   8.361  0.4251 -0.4265  0.8218
  193MOL0     O25951   8.141   2.900   8.352 -0.3711 -0.3056  0.5786
  193MOL0     C25952   8.223   2.929   8.236 -0.2959 -0.7694 -0.1618
  193MOL0     C25953   8.339   3.009   8.262 -0.5848 -1.1872  0.1828
  193MOL0     C25954   8.430   3.057   8.167 -1.1720  0.7504 -0.4617
  193MOL0     C25955   8.406   3.024   8.032  0.4929  0.4668 -0.2004
  193MOL0     O25956   8.488   3.052   7.921  0.1722 -0.1083 -0.1332
  193MOL0     C25957   8.461   3.184   7.866  0.1570 -0.5817 -0.1670
  193MOL0     C25958   8.553   3.210   7.748  0.5097 -0.2280  0.2072
  193MOL0     C25959   8.701   3.246   7.786  0.2157  0.3102 -0.6572
  193MOL0     C25960   8.773   3.321   7.687  0.2973 -0.0704  1.1393
  193MOL0     C25961   8.923   3.296   7.697 -0.1035  0.4970  0.0839
  193MOL0     C25962   9.012   3.351   7.593  0.9312 -0.0805  0.6131
  193MOL0     C25963   9.154   3.292   7.616 -0.3135  0.1116 -1.0723
  193MOL0     C25964   9.254   3.370   7.529 -0.3746 -0.7882  0.5544
  193MOL0    Cl25965   9.222   3.345   7.355  0.2700  0.0913 -0.0848
  193MOL0     C25966   8.295   2.947   7.998 -0.3416 -0.5889 -0.5005
  193MOL0     C25967   8.208   2.888   8.104 -0.5366 -0.2304 -0.5224
  193MOL0     O25968   8.066   2.708   8.276 -0.0137  0.8437 -0.0467
  193MOL0     C25969   7.932   2.634   8.484  0.2051 -0.0179 -0.6469
  193MOL0     C25970   7.885   2.564   8.596  0.3411 -0.4739  0.6088
  193MOL0     N25971   8.299   2.283   9.059 -0.3952  0.3978  0.6989
  193MOL0     N25972   8.387   2.302   9.154 -0.1148  0.3995  0.3991
  193MOL0     C25973   8.256   1.969  10.498  0.2355 -0.2724 -0.0581
  193MOL0     C25974   8.207   1.953  10.627 -0.0461 -0.1024 -0.0453
  193MOL0     C25975   8.051   2.028  11.048 -0.5077  0.0973  1.2995
  193MOL0     C25976   8.083   1.957  11.164 -0.1072  0.3593 -0.0936
  193MOL0     C25977   8.033   1.994  11.292  0.2166  0.6729 -0.2429
  193MOL0     C25978   7.957   2.106  11.304 -0.0670 -0.6332 -0.4919
  193MOL0     O25979   7.897   2.142  11.428 -0.3500  0.2557 -0.4162
  193MOL0     C25980   7.994   2.164  11.537 -0.0089 -0.7717  0.6919
  193MOL0     C25981   7.979   2.293  11.619  1.6046  1.0321 -0.0639
  193MOL0     C25982   7.869   2.291  11.735 -0.2844  0.7816 -0.4737
  193MOL0     C25983   7.722   2.275  11.698 -0.2394 -0.2653 -0.5085
  193MOL0     C25984   7.628   2.248  11.809  0.4198  0.3797 -0.4557
  193MOL0     C25985   7.550   2.209  11.885  0.2244  0.9013  0.0067
  193MOL0     C25986   7.922   2.179  11.188  0.5302  0.2513 -0.1926
  193MOL0     C25987   7.976   2.141  11.061 -0.1430  0.8358 -0.2418
  193MOL0     H25988   7.993   2.222  10.620  0.0781 -0.5003 -0.5265
  193MOL0     H25989   8.068   2.231  10.387  0.1718 -2.4026 -1.0209
  193MOL0     H25990   8.460   2.044  10.294  2.1185  2.4300 -2.1559
  193MOL0     H25991   8.356   1.923  10.218  3.5459  0.0375  1.5679
  193MOL0     H25992   8.417   2.199  10.108 -3.4423  0.8382 -0.4522
  193MOL0     H25993   8.526   2.051  10.078 -0.6945 -1.0658  0.8494
  193MOL0     H25994   8.378   1.976   9.919  0.7879 -1.9656  4.4069
  193MOL0     H25995   8.235   2.064   9.986  0.5567 -1.9875  3.5033
  193MOL0     H25996   8.336   2.285   9.909 -1.3193 -0.8279 -1.2965
  193MOL0     H25997   8.485   2.206   9.878  0.2084 -2.3656 -0.5068
  193MOL0     H25998   8.388   2.042   9.709 -0.2055 -0.0479 -1.2672
  193MOL0     H25999   8.226   2.123   9.751  0.1524  0.3146  1.6453
  193MOL0     H26000   8.330   2.342   9.669 -2.7696  0.7685 -2.3557
  193MOL0     H26001   8.477   2.259   9.626 -0.0459 -2.5826 -0.2625
  193MOL0     H26002   8.369   2.113   9.464 -0.0355  0.4763  0.2840
  193MOL0     H26003   8.218   2.200   9.487 -0.0867 -1.6892  0.4290
  193MOL0     H26004   8.489   2.290   9.389  0.1821 -0.0601  0.6954
  193MOL0     H26005   8.374   2.415   9.451  0.1705 -0.7005  1.0512
  193MOL0     H26006   8.106   2.338   9.315  1.2355 -0.2870  1.9346
  193MOL0     H26007   8.069   2.290   8.921 -0.1700  1.6058  0.1920
  193MOL0     H26008   7.999   2.177   9.043  1.4764 -0.5759  0.6526
  193MOL0     H26009   7.951   2.490   9.044 -2.6206  0.2463  0.8536
  193MOL0     H26010   7.895   2.386   9.165  1.9292 -0.0077  0.3929
  193MOL0     H26011   7.704   2.403   9.000 -0.6600 -0.8733 -2.4757
  193MOL0     H26012   7.784   2.258   8.945  2.0880 -0.0852 -2.2193
  193MOL0     H26013   7.766   2.403   8.749 -2.1284 -1.1635  2.1625
  193MOL0     H26014   7.934   2.389   8.790 -0.9378  0.1734 -1.9502
  193MOL0     H26015   7.964   2.781   8.823 -1.3249 -3.6273  1.0849
  193MOL0     H26016   8.115   2.933   8.746  1.2437  0.4322 -1.2545
  193MOL0     H26017   8.188   2.931   8.578  0.5479  0.0822 -1.5388
  193MOL0     H26018   8.031   3.010   8.612 -0.7637  0.9828  1.1681
  193MOL0     H26019   8.353   3.039   8.365  0.2958 -2.1214  0.3596
  193MOL0     H26020   8.521   3.113   8.185  0.6840 -1.5249 -2.2146
  193MOL0     H26021   8.358   3.193   7.829 -0.4810 -2.4557  0.9790
  193MOL0     H26022   8.465   3.265   7.939 -1.9185 -1.5834  1.1688
  193MOL0     H26023   8.559   3.116   7.693  0.2246 -1.4038  2.0903
  193MOL0     H26024   8.515   3.291   7.685  0.1464 -1.3469 -1.0598
  193MOL0     H26025   8.766   3.161   7.810 -0.9801  0.0018  1.8553
  193MOL0     H26026   8.708   3.297   7.883  1.9398 -1.7044  0.3601
  193MOL0     H26027   8.744   3.280   7.591  0.3671 -1.8757  1.8567
  193MOL0     H26028   8.751   3.428   7.692 -1.6384 -0.3568 -0.5221
  193MOL0     H26029   8.935   3.189   7.674  0.1121  1.1456 -3.2896
  193MOL0     H26030   8.962   3.318   7.797 -0.0744 -2.1421  0.7507
  193MOL0     H26031   8.985   3.322   7.491  3.1466 -0.7960  0.1619
  193MOL0     H26032   9.008   3.460   7.585 -0.3583 -0.2436 -1.7310
  193MOL0     H26033   9.142   3.187   7.586 -0.1237  0.0276 -0.8501
  193MOL0     H26034   9.184   3.296   7.721 -3.4201 -3.6238  0.2378
  193MOL0     H26035   9.356   3.334   7.541 -0.0438 -0.5279 -1.1502
  193MOL0     H26036   9.251   3.475   7.556  1.3164 -1.4601  3.8463
  193MOL0     H26037   8.268   2.929   7.895  1.1497  0.4410 -1.1011
  193MOL0     H26038   8.119   2.829   8.082 -1.0375 -0.2311  1.3001
  193MOL0     H26039   7.908   2.588   8.389 -0.4895  1.8049 -1.4025
  193MOL0     H26040   7.829   2.480   8.557  2.0362 -0.2545 -2.6066
  193MOL0     H26041   8.326   1.894  10.462 -0.5458 -1.4311  0.7980
  193MOL0     H26042   8.248   1.870  10.684  0.9211  0.0906 -0.4535
  193MOL0     H26043   8.153   1.874  11.171  0.8345  1.2245  1.0506
  193MOL0     H26044   8.079   1.932  11.368  1.1967  2.3626  0.6123
  193MOL0     H26045   7.993   2.080  11.607 -0.1169 -0.4140  1.1278
  193MOL0     H26046   8.092   2.172  11.491 -0.8354 -1.2957 -1.2494
  193MOL0     H26047   7.960   2.365  11.539 -2.5214 -0.9287 -1.1390
  193MOL0     H26048   8.075   2.307  11.671  1.5454 -2.6758  1.3662
  193MOL0     H26049   7.874   2.381  11.798  0.2416 -2.6725  5.1250
  193MOL0     H26050   7.895   2.207  11.800 -0.9080  0.3007 -0.8339
  193MOL0     H26051   7.693   2.209  11.615  1.7332 -2.6770  0.5989
  193MOL0     H26052   7.700   2.374  11.657 -0.7676 -0.7436 -1.4316
  193MOL0     H26053   7.486   2.177  11.965  0.6411 -0.6844 -0.2707
  193MOL0     H26054   7.849   2.258  11.202 -0.2512 -0.4920 -0.0202
  193MOL0     H26055   7.944   2.196  10.973  0.7238 -1.7646 -2.3175
  194MOL0     O26056  10.802   2.029   0.443 -0.0571  0.2179  0.6747
  194MOL0     C26057  10.845   1.951   0.359  0.3438 -0.1972  0.0601
  194MOL0     O26058  10.766   1.884   0.264 -1.1331  1.0327 -1.4861
  194MOL0     C26059  10.632   1.894   0.270  0.4684 -0.1755  0.1953
  194MOL0     C26060  10.553   1.868   0.380 -0.2569  0.4670 -0.4905
  194MOL0     C26061  10.411   1.890   0.373 -0.1432 -0.4412 -1.0980
  194MOL0     C26062  10.346   1.929   0.260  0.5082  0.4348  0.6937
  194MOL0     O26063  10.218   1.954   0.247 -0.0851  0.4596  0.0484
  194MOL0     C26064  10.131   1.929   0.358 -0.3013  0.1413 -0.3609
  194MOL0     C26065   9.988   1.988   0.321  0.4217 -0.6817 -0.5289
  194MOL0     C26066   9.992   2.136   0.282  0.1118 -0.2324 -0.0546
  194MOL0     C26067   9.844   2.177   0.261  0.3162  0.7565  0.0995
  194MOL0     C26068   9.823   2.318   0.203 -0.3165 -0.1102  0.4614
  194MOL0     C26069   9.681   2.373   0.218 -0.3903 -0.2296  0.4806
  194MOL0     C26070   9.585   2.279   0.135 -0.5857 -0.8178 -0.1229
  194MOL0     C26071   9.460   2.356   0.117  0.4182 -0.3166 -0.4134
  194MOL0     N26072   9.382   2.365   0.244  1.2112  0.3012  0.1973
  194MOL0     C26073   9.360   2.264   0.340  0.2969 -0.0347  0.1914
  194MOL0     C26074   9.263   2.314   0.429  0.4794 -0.1871  1.0056
  194MOL0     C26075   9.221   2.258   0.568 -0.4628 -0.0133  0.2922
  194MOL0     C26076   9.067   2.234   0.561 -0.5560  0.1633 -0.4431
  194MOL0     C26077   9.004   2.178   0.688  0.1951 -0.1629 -0.3563
  194MOL0     C26078   8.855   2.139   0.673 -0.9604  0.0139 -0.0381
  194MOL0     O26079   8.776   2.237   0.606 -0.6222  0.7019 -0.0755
  194MOL0     C26080   8.643   2.231   0.605  0.4482  0.6655 -0.5709
  194MOL0     C26081   8.578   2.343   0.565 -0.5803 -0.5503 -0.4187
  194MOL0     C26082   8.445   2.362   0.564  0.5085 -0.2679 -0.1524
  194MOL0     C26083   8.402   2.494   0.503 -0.0349  0.1717  0.4713
  194MOL0     C26084   8.368   2.250   0.616  1.5080  0.2276  0.0220
  194MOL0     C26085   8.217   2.242   0.614 -0.2171 -0.0870 -0.1857
  194MOL0     O26086   8.157   2.126   0.603  0.1410  0.4632 -0.5196
  194MOL0     C26087   8.018   2.116   0.619 -0.4235  0.2418 -0.1489
  194MOL0     C26088   7.950   2.019   0.698  0.1852  0.4571 -0.5456
  194MOL0     C26089   7.809   2.013   0.709 -0.9122  0.3329 -0.1787
  194MOL0     C26090   7.738   2.105   0.636 -0.6884 -0.5670  0.0771
  194MOL0     O26091   7.601   2.107   0.646  0.3239  0.1385 -0.1177
  194MOL0     C26092   7.531   2.092   0.764  0.2740  0.5349 -0.2441
  194MOL0     C26093   7.389   2.161   0.745  0.2555  0.0073 -0.0170
  194MOL0     C26094   7.375   2.310   0.712 -0.0922 -0.4971  1.0365
  194MOL0     C26095   7.233   2.366   0.723 -0.1514  0.0195  0.2917
  194MOL0     C26096   7.224   2.519   0.684  0.4660 -0.0047 -0.1451
  194MOL0     C26097   7.183   2.537   0.543 -0.3035  0.3455  0.6346
  194MOL0     C26098   7.280   2.498   0.430  0.3125 -0.2201  0.8239
  194MOL0     C26099   7.245   2.575   0.300  0.4638 -0.5937  0.2143
  194MOL0    Cl26100   7.114   2.486   0.213  0.1475 -0.4569  0.0425
  194MOL0     C26101   7.805   2.210   0.572  1.4887 -0.0535 -0.3598
  194MOL0     C26102   7.935   2.211   0.559 -0.9545  0.2763 -0.3670
  194MOL0     O26103   8.172   2.348   0.658  0.4182  0.1343 -0.2419
  194MOL0     C26104   8.429   2.124   0.659 -0.8407 -0.3023 -0.3246
  194MOL0     C26105   8.566   2.119   0.652 -0.9059  0.6622 -0.3992
  194MOL0     N26106   9.245   2.439   0.389 -0.7566  0.6187  0.5919
  194MOL0     N26107   9.314   2.471   0.281  0.2463 -0.2369 -0.1013
  194MOL0     C26108  10.425   1.935   0.143 -0.6591  0.0367  0.9956
  194MOL0     C26109  10.566   1.921   0.149  0.2354  0.0280  0.0224
  194MOL0     C26110  10.989   1.916   0.364  0.0240  0.4324  0.1583
  194MOL0     C26111  11.066   1.975   0.468 -0.0012  0.5703 -0.0589
  194MOL0     C26112  11.204   1.952   0.477  0.1024 -0.7337  0.3800
  194MOL0     C26113  11.267   1.874   0.380 -0.9278 -1.2972  0.8986
  194MOL0     O26114  11.404   1.843   0.393  0.1975 -0.0539  0.4011
  194MOL0     C26115  11.479   1.846   0.520 -0.3455  0.5454  0.9994
  194MOL0     C26116  11.624   1.836   0.488 -0.8040  0.3949  0.6653
  194MOL0     C26117  11.709   1.943   0.562  0.9911 -1.2276  0.5091
  194MOL0     C26118  11.865   1.914   0.560  0.2729  0.7427  0.5478
  194MOL0     C26119  11.914   1.797   0.633 -1.2115  0.2182 -0.4334
  194MOL0     C26120  11.959   1.704   0.690  0.0016  0.4976  0.2458
  194MOL0     C26121  11.194   1.831   0.266 -0.6365  0.7004 -0.9197
  194MOL0     C26122  11.050   1.846   0.264 -0.2065 -0.2821 -0.2205
  194MOL0     H26123  10.588   1.825   0.474 -3.7697 -2.4779 -0.2869
  194MOL0     H26124  10.363   1.883   0.471  0.0460  3.0207 -0.6254
  194MOL0     H26125  10.131   1.824   0.387  1.0481  0.2450  0.0626
  194MOL0     H26126  10.169   1.986   0.443  0.0513  2.3392 -1.9190
  194MOL0     H26127   9.962   1.926   0.234  0.5451  0.7042 -1.5939
  194MOL0     H26128   9.918   1.965   0.402  0.7209 -3.0401 -0.8611
  194MOL0     H26129  10.022   2.202   0.363 -1.8821  0.3573  0.2621
  194MOL0     H26130  10.048   2.149   0.189 -1.8185 -1.1299 -1.4325
  194MOL0     H26131   9.802   2.099   0.197  2.0496 -0.2970  0.1580
  194MOL0     H26132   9.782   2.165   0.351  1.8118 -2.9574  0.8332
  194MOL0     H26133   9.882   2.390   0.261 -0.1539 -0.5107  0.8024
  194MOL0     H26134   9.854   2.319   0.098 -5.0680  0.7262 -1.1552
  194MOL0     H26135   9.668   2.379   0.326 -0.2568 -1.7284  0.5920
  194MOL0     H26136   9.675   2.475   0.178 -2.0677 -0.1845  0.7844
  194MOL0     H26137   9.628   2.247   0.040  0.1391 -2.9766  0.8686
  194MOL0     H26138   9.575   2.186   0.192  0.8369 -0.6042  0.5268
  194MOL0     H26139   9.402   2.295   0.046  0.5114 -1.4974  0.4821
  194MOL0     H26140   9.476   2.456   0.076  0.3564  0.4781  1.4416
  194MOL0     H26141   9.430   2.184   0.362 -0.4706 -0.7108  0.2526
  194MOL0     H26142   9.272   2.163   0.589  1.1056  1.3724  3.3922
  194MOL0     H26143   9.261   2.317   0.650 -0.0675  1.8113 -1.1591
  194MOL0     H26144   9.053   2.177   0.469 -1.1857  1.8592 -1.4258
  194MOL0     H26145   9.025   2.334   0.549  0.8099  1.4985  3.8478
  194MOL0     H26146   9.030   2.239   0.775  1.1641  0.5957 -1.1659
  194MOL0     H26147   9.042   2.081   0.723 -1.7771 -1.3584 -1.3582
  194MOL0     H26148   8.812   2.101   0.766 -2.5618 -0.8384 -1.0808
  194MOL0     H26149   8.852   2.051   0.608 -2.9665  2.6196 -3.8632
  194MOL0     H26150   8.629   2.436   0.539 -1.9339 -0.1843 -1.9029
  194MOL0     H26151   8.444   2.505   0.403 -0.3519 -4.2675 -0.3521
  194MOL0     H26152   8.294   2.508   0.506  0.1216  1.4790  3.2593
  194MOL0     H26153   8.442   2.572   0.568 -1.9275 -0.2300  2.2263
  194MOL0     H26154   8.010   1.956   0.763 -1.2181 -0.7773 -0.3918
  194MOL0     H26155   7.767   1.933   0.769  1.2099 -0.6373  0.1229
  194MOL0     H26156   7.524   1.985   0.788 -0.5105 -0.1525 -3.1833
  194MOL0     H26157   7.591   2.130   0.848 -0.2674  0.4910  0.1684
  194MOL0     H26158   7.341   2.112   0.659 -2.5420  1.7803  0.3850
  194MOL0     H26159   7.325   2.128   0.828 -1.0563 -0.6300 -1.2247
  194MOL0     H26160   7.415   2.329   0.613 -0.7484  0.3351  0.9209
  194MOL0     H26161   7.450   2.367   0.766  0.4841 -0.5114  0.2614
  194MOL0     H26162   7.175   2.306   0.653 -0.2494 -0.7372  1.0014
  194MOL0     H26163   7.177   2.349   0.815 -3.9761 -0.3167 -1.8970
  194MOL0     H26164   7.314   2.574   0.714 -0.0910  1.5611 -1.2398
  194MOL0     H26165   7.137   2.565   0.731  2.7065  3.9926  0.5587
  194MOL0     H26166   7.088   2.489   0.520  0.5074  0.4412 -3.8854
  194MOL0     H26167   7.182   2.647   0.540 -0.8857  0.4088  2.2548
  194MOL0     H26168   7.272   2.393   0.403  1.0810  0.5763 -3.1145
  194MOL0     H26169   7.380   2.512   0.472  0.1210 -0.1419  1.2673
  194MOL0     H26170   7.330   2.584   0.232 -0.5511 -0.9387 -1.1541
  194MOL0     H26171   7.208   2.676   0.322 -2.7917 -1.8352  0.9444
  194MOL0     H26172   7.742   2.283   0.522  1.5585  0.4120  0.2340
  194MOL0     H26173   7.984   2.282   0.492 -1.8954 -0.7901 -2.2699
  194MOL0     H26174   8.362   2.043   0.684 -1.4618 -0.0144 -1.0030
  194MOL0     H26175   8.605   2.023   0.686  0.5770  1.0963 -0.8160
  194MOL0     H26176  10.379   1.946   0.045  1.0791 -3.4931 -0.4056
  194MOL0     H26177  10.624   1.938   0.058 -0.7073  1.8113 -0.2995
  194MOL0     H26178  11.017   2.032   0.546 -0.5556  1.7724 -1.2331
  194MOL0     H26179  11.263   2.009   0.548  0.5725  1.3674 -1.6110
  194MOL0     H26180  11.464   1.938   0.577 -0.2045  1.8790 -0.9886
  194MOL0     H26181  11.436   1.771   0.587  1.4218 -1.6752 -0.2074
  194MOL0     H26182  11.648   1.836   0.381  1.8216  1.7650  1.1649
  194MOL0     H26183  11.643   1.741   0.538 -0.6457 -0.9947 -1.8636
  194MOL0     H26184  11.677   1.942   0.666 -1.3184 -1.4537 -0.1407
  194MOL0     H26185  11.687   2.033   0.504  1.1167 -0.9456  0.8973
  194MOL0     H26186  11.925   2.001   0.587  3.4822 -0.4661 -2.0323
  194MOL0     H26187  11.887   1.901   0.454  1.4662  0.7156  0.7904
  194MOL0     H26188  12.010   1.622   0.737  5.4971  2.2628 -1.9162
  194MOL0     H26189  11.246   1.774   0.189  1.6392  4.0854 -2.0823
  194MOL0     H26190  10.991   1.797   0.188 -1.9717  1.3616  0.0180
  195MOL0     O26191   6.477   6.624   3.730  0.3972 -0.3629 -0.3537
  195MOL0     C26192   6.540   6.641   3.623  1.0466  0.0645 -0.4529
  195MOL0     O26193   6.483   6.660   3.498  0.9588 -0.1343 -0.8384
  195MOL0     C26194   6.351   6.686   3.503  0.4744 -0.8128 -0.2484
  195MOL0     C26195   6.287   6.778   3.592 -0.1338  0.9614  0.0465
  195MOL0     C26196   6.151   6.827   3.571  0.0993  0.9966 -0.2466
  195MOL0     C26197   6.071   6.769   3.473 -0.5590 -0.2982 -0.1572
  195MOL0     O26198   5.940   6.805   3.462 -0.1708  0.5401 -0.4688
  195MOL0     C26199   5.854   6.732   3.372  0.1677 -0.6130  0.3709
  195MOL0     C26200   5.712   6.792   3.377  0.6597  0.3065 -0.8957
  195MOL0     C26201   5.604   6.715   3.307 -0.8960 -0.5444  0.5612
  195MOL0     C26202   5.641   6.695   3.160 -0.3439 -1.1802  0.1670
  195MOL0     C26203   5.524   6.626   3.093 -0.3934  1.2678  0.4868
  195MOL0     C26204   5.528   6.608   2.944  0.8654  0.1254  0.5829
  195MOL0     C26205   5.418   6.506   2.907 -0.2964  0.9102 -0.2203
  195MOL0     C26206   5.358   6.501   2.759 -0.3216 -0.0289 -0.5170
  195MOL0     N26207   5.277   6.614   2.725  0.3586  0.0331  0.5569
  195MOL0     C26208   5.152   6.622   2.777  1.2726 -0.4838 -0.2924
  195MOL0     C26209   5.136   6.758   2.771 -0.1146 -0.2510  0.3128
  195MOL0     C26210   5.010   6.837   2.814  0.3802 -0.7467  1.0692
  195MOL0     C26211   4.920   6.751   2.906  0.3233 -0.1323 -0.1851
  195MOL0     C26212   4.813   6.841   2.968  0.1119 -0.2689 -0.8851
  195MOL0     C26213   4.862   6.953   3.056 -0.7323 -0.4685 -0.6352
  195MOL0     O26214   4.864   7.074   2.979 -0.3129  0.0640 -0.6678
  195MOL0     C26215   4.849   7.186   3.056 -0.6401  0.1609 -0.6640
  195MOL0     C26216   4.782   7.294   3.013  0.0831  0.1295 -0.4305
  195MOL0     C26217   4.737   7.407   3.091  0.1399 -0.2642  0.2445
  195MOL0     C26218   4.660   7.518   3.013 -1.4437  0.1413  0.1394
  195MOL0     C26219   4.790   7.419   3.219  0.0589 -0.1170 -0.6622
  195MOL0     C26220   4.741   7.531   3.312 -0.5415 -0.0243  0.6678
  195MOL0     O26221   4.620   7.590   3.287 -0.2581  0.6607  0.1950
  195MOL0     C26222   4.569   7.689   3.375 -0.2318  0.4697  0.3842
  195MOL0     C26223   4.432   7.700   3.392 -0.2773  0.5733 -0.2866
  195MOL0     C26224   4.385   7.795   3.482 -0.8310 -0.5574  0.2699
  195MOL0     C26225   4.467   7.880   3.556 -0.4578  0.8680 -0.1728
  195MOL0     O26226   4.408   7.965   3.646 -0.0226  0.0173 -0.3449
  195MOL0     C26227   4.475   7.967   3.772 -0.2404 -0.1043 -0.2380
  195MOL0     C26228   4.554   8.094   3.801 -0.3091 -0.7329 -0.1970
  195MOL0     C26229   4.465   8.221   3.784  0.0731 -1.2950  0.6439
  195MOL0     C26230   4.534   8.357   3.816  0.8175  0.6892 -0.2190
  195MOL0     C26231   4.431   8.471   3.822  0.4059  0.2639 -0.1004
  195MOL0     C26232   4.488   8.616   3.852  0.7414  0.5024 -0.1499
  195MOL0     C26233   4.401   8.740   3.811  0.0734  0.3582 -0.3455
  195MOL0     C26234   4.431   8.780   3.672  0.5629 -0.2753 -0.4262
  195MOL0    Cl26235   4.311   8.889   3.620 -0.5551  0.3212  0.0615
  195MOL0     C26236   4.599   7.875   3.525 -0.3944 -0.6085  0.7387
  195MOL0     C26237   4.648   7.783   3.435  0.0796 -0.7406  0.4531
  195MOL0     O26238   4.820   7.555   3.406  0.5962  0.2289 -0.3202
  195MOL0     C26239   4.874   7.317   3.262 -0.7304  0.2600  0.0380
  195MOL0     C26240   4.894   7.205   3.184 -0.6350 -0.4187 -0.4365
  195MOL0     N26241   5.241   6.824   2.733  0.4527  1.0228 -0.0752
  195MOL0     N26242   5.334   6.740   2.696  0.4973  0.3933 -0.1654
  195MOL0     C26243   6.129   6.671   3.396  0.8185  0.1292 -0.2669
  195MOL0     C26244   6.268   6.648   3.403  0.6192  0.1887  0.1613
  195MOL0     C26245   6.691   6.631   3.640 -0.4632  0.4240 -0.0877
  195MOL0     C26246   6.759   6.587   3.523 -0.0990  0.1554 -0.2914
  195MOL0     C26247   6.895   6.579   3.522 -0.1534 -0.9159  0.5683
  195MOL0     C26248   6.967   6.611   3.638 -0.2803 -0.2679 -0.0376
  195MOL0     O26249   7.103   6.613   3.651  0.3455 -0.3171 -0.0616
  195MOL0     C26250   7.173   6.511   3.582  0.2361 -0.7524 -0.4331
  195MOL0     C26251   7.300   6.491   3.661  0.4343  0.4597  0.1164
  195MOL0     C26252   7.290   6.466   3.815  0.3353 -0.2283 -0.2522
  195MOL0     C26253   7.224   6.333   3.851 -0.4283  0.5121 -0.7059
  195MOL0     C26254   7.198   6.317   4.000  0.2698  0.7007  0.0919
  195MOL0     C26255   7.183   6.306   4.119 -0.5651 -0.0659  0.1282
  195MOL0     C26256   6.905   6.663   3.748  0.4580  0.3473 -0.0827
  195MOL0     C26257   6.768   6.676   3.754  0.2910  0.4067 -0.7186
  195MOL0     H26258   6.319   6.819   3.687 -1.3061  1.0929  0.4034
  195MOL0     H26259   6.108   6.892   3.646 -0.2303 -2.0694  2.4118
  195MOL0     H26260   5.889   6.728   3.269 -1.2060  1.5615 -0.2335
  195MOL0     H26261   5.846   6.628   3.404 -2.9189 -1.9361 -3.8655
  195MOL0     H26262   5.676   6.788   3.480 -3.9406 -1.2094 -2.3197
  195MOL0     H26263   5.711   6.894   3.339 -0.5076  0.9242  0.6454
  195MOL0     H26264   5.595   6.618   3.356  2.6937  0.4127  3.6090
  195MOL0     H26265   5.504   6.756   3.323 -1.1089 -1.5429  1.9863
  195MOL0     H26266   5.678   6.783   3.105 -2.1290  0.2295  1.1111
  195MOL0     H26267   5.727   6.628   3.173  1.6673  1.4170  1.2027
  195MOL0     H26268   5.498   6.532   3.142 -2.6360  0.6444 -1.6854
  195MOL0     H26269   5.429   6.679   3.105 -3.2845 -3.0070 -1.1685
  195MOL0     H26270   5.518   6.709   2.903  2.3546  0.8197  1.8163
  195MOL0     H26271   5.620   6.556   2.917  0.1683 -0.3805 -0.9448
  195MOL0     H26272   5.460   6.409   2.934 -1.7826  0.2705 -0.1070
  195MOL0     H26273   5.324   6.507   2.962 -0.1588 -2.1230  0.2135
  195MOL0     H26274   5.301   6.411   2.731 -1.4001  1.2653 -2.7735
  195MOL0     H26275   5.450   6.486   2.701  0.9003  2.0127  0.8026
  195MOL0     H26276   5.076   6.548   2.800 -0.9699  2.4583  2.6834
  195MOL0     H26277   5.044   6.925   2.870 -1.9670  0.4605  0.6866
  195MOL0     H26278   4.961   6.855   2.718 -1.1141 -0.0068  1.9389
  195MOL0     H26279   4.978   6.708   2.987 -1.1048 -0.1475  0.8608
  195MOL0     H26280   4.870   6.665   2.860  0.4330  0.6135 -1.7791
  195MOL0     H26281   4.759   6.776   3.038  1.5462  1.4741  2.0291
  195MOL0     H26282   4.756   6.894   2.891  0.9536  2.2742  0.1270
  195MOL0     H26283   4.959   6.930   3.101 -0.3039  2.2556 -0.0086
  195MOL0     H26284   4.795   6.946   3.142  2.3427 -3.5758  1.8071
  195MOL0     H26285   4.759   7.284   2.908 -1.3662 -2.9649  0.0657
  195MOL0     H26286   4.553   7.508   3.030 -2.1645  1.6143 -2.8779
  195MOL0     H26287   4.693   7.619   3.039  0.7194  1.2285 -5.2791
  195MOL0     H26288   4.668   7.506   2.904  0.7664  1.5315  0.0810
  195MOL0     H26289   4.374   7.647   3.317  3.6185 -0.9778 -2.5682
  195MOL0     H26290   4.277   7.790   3.487 -0.8638 -0.4506 -0.2134
  195MOL0     H26291   4.403   7.957   3.854  0.0796  2.7282  0.4865
  195MOL0     H26292   4.542   7.881   3.778 -2.4062 -1.8023  1.2798
  195MOL0     H26293   4.623   8.086   3.885 -0.0597  0.2047 -0.3032
  195MOL0     H26294   4.623   8.120   3.720  1.9174 -0.2003  1.7414
  195MOL0     H26295   4.374   8.205   3.843 -2.2638  1.6249 -1.8258
  195MOL0     H26296   4.430   8.224   3.680 -0.9121 -1.6136  0.9537
  195MOL0     H26297   4.578   8.352   3.916  4.1018 -3.7943 -1.5802
  195MOL0     H26298   4.620   8.375   3.751  1.6132 -2.4547 -0.1696
  195MOL0     H26299   4.356   8.447   3.898  1.4908  3.0219  2.0553
  195MOL0     H26300   4.385   8.480   3.723  0.4008 -3.2069 -0.5149
  195MOL0     H26301   4.493   8.614   3.961  1.5844 -0.1457 -0.1946
  195MOL0     H26302   4.586   8.622   3.803  0.1777 -2.0696 -1.7859
  195MOL0     H26303   4.430   8.821   3.879 -2.4224  0.8008  0.2845
  195MOL0     H26304   4.296   8.710   3.807 -0.6967  1.9819  3.3169
  195MOL0     H26305   4.420   8.697   3.602  1.0265 -0.4088 -0.3448
  195MOL0     H26306   4.531   8.824   3.661  0.7068  0.1494  2.0659
  195MOL0     H26307   4.667   7.941   3.577  1.5295 -3.1083  1.5645
  195MOL0     H26308   4.754   7.796   3.416 -0.3672  0.1418 -1.6227
  195MOL0     H26309   4.910   7.326   3.365  0.6813  2.2047 -0.5514
  195MOL0     H26310   4.937   7.122   3.240 -0.4622 -0.1046 -0.0910
  195MOL0     H26311   6.067   6.631   3.316  0.1975 -1.0772  0.7954
  195MOL0     H26312   6.321   6.595   3.325  1.6468 -0.9247  1.5650
  195MOL0     H26313   6.719   6.558   3.427 -2.9515 -0.0814  0.8772
  195MOL0     H26314   6.954   6.551   3.435  3.2512 -2.3976  3.0960
  195MOL0     H26315   7.116   6.418   3.586 -0.5831 -0.2307  1.8089
  195MOL0     H26316   7.209   6.536   3.482  1.5955  0.2561  0.2648
  195MOL0     H26317   7.365   6.576   3.637  2.0919  0.2696  3.3285
  195MOL0     H26318   7.351   6.405   3.616 -0.3525  0.2142 -0.3301
  195MOL0     H26319   7.233   6.548   3.859  0.4644  0.9423 -2.1541
  195MOL0     H26320   7.390   6.472   3.861 -0.7316  2.7289  2.0028
  195MOL0     H26321   7.296   6.253   3.833 -0.7260  0.5071 -1.9528
  195MOL0     H26322   7.138   6.308   3.788  0.5773  1.1653 -2.3730
  195MOL0     H26323   7.183   6.307   4.226 -0.4253 -1.7497  0.1675
  195MOL0     H26324   6.970   6.692   3.830  1.2629 -1.8466  0.1398
  195MOL0     H26325   6.727   6.708   3.849  0.4078 -0.6582 -0.2930
  196MOL0     O26326  11.090  10.167   5.069  0.0328  0.4507 -0.3698
  196MOL0     C26327  11.194  10.105   5.094  0.0312  0.1879 -0.6569
  196MOL0     O26328  11.307  10.153   5.150  0.1905 -0.9339  0.6432
  196MOL0     C26329  11.287  10.254   5.231 -0.5240 -0.1013 -0.3502
  196MOL0     C26330  11.234  10.379   5.191 -0.0656 -0.1197  0.7977
  196MOL0     C26331  11.216  10.488   5.281  0.5219  0.2827 -0.1056
  196MOL0     C26332  11.274  10.484   5.414 -0.5293 -0.1496 -0.2949
  196MOL0     O26333  11.250  10.601   5.488  0.5500 -0.2428  0.6983
  196MOL0     C26334  11.330  10.634   5.607  0.4466  0.5523 -0.3325
  196MOL0     C26335  11.419  10.757   5.580 -0.0401  0.0209  0.2680
  196MOL0     C26336  11.332  10.877   5.576 -0.2840 -0.0692 -0.3214
  196MOL0     C26337  11.420  11.005   5.570 -1.0356  0.2973 -0.3228
  196MOL0     C26338  11.339  11.130   5.543 -0.9141 -0.2993 -0.0851
  196MOL0     C26339  11.259  11.179   5.664  0.1310 -0.1688  0.8724
  196MOL0     C26340  11.200  11.315   5.617  0.3419 -0.5488 -0.8282
  196MOL0     C26341  11.094  11.371   5.717  0.2904  0.1061  0.1636
  196MOL0     N26342  11.165  11.391   5.843 -0.5061  0.4119  0.0152
  196MOL0     C26343  11.170  11.304   5.940 -0.3056  0.1767 -1.2405
  196MOL0     C26344  11.245  11.364   6.035 -0.5579 -0.6000  1.4527
  196MOL0     C26345  11.253  11.308   6.174 -0.4840 -0.3585  0.1585
  196MOL0     C26346  11.137  11.350   6.251 -0.8046 -0.3446 -0.1042
  196MOL0     C26347  11.145  11.287   6.397  0.1482  0.0526 -0.0118
  196MOL0     C26348  11.088  11.389   6.498  0.0873  0.1522 -0.9606
  196MOL0     O26349  10.951  11.443   6.454 -0.4960  0.8397  0.2403
  196MOL0     C26350  10.865  11.469   6.555 -0.2127  0.0230  0.2392
  196MOL0     C26351  10.815  11.598   6.572 -0.0982  0.0594 -0.6931
  196MOL0     C26352  10.713  11.624   6.665 -0.4087 -0.8417  0.7916
  196MOL0     C26353  10.681  11.768   6.687  0.7619  0.2993 -0.0274
  196MOL0     C26354  10.648  11.514   6.728  0.4168 -0.0442  0.5089
  196MOL0     C26355  10.533  11.529   6.828 -0.1391  0.6131  0.7796
  196MOL0     O26356  10.448  11.425   6.841 -0.0480  0.4154 -0.2922
  196MOL0     C26357  10.372  11.404   6.958  0.3024 -0.7303  0.6410
  196MOL0     C26358  10.405  11.290   7.035  0.2588  0.9804 -0.0680
  196MOL0     C26359  10.317  11.247   7.142 -0.1075  0.2185  0.6382
  196MOL0     C26360  10.214  11.324   7.185 -0.3505 -0.4780 -0.3591
  196MOL0     O26361  10.125  11.285   7.288 -0.0841  1.1489  0.3044
  196MOL0     C26362  10.080  11.149   7.286 -0.6415 -0.9572  0.5207
  196MOL0     C26363  10.032  11.110   7.139  0.3816  0.9948 -0.0561
  196MOL0     C26364   9.906  11.025   7.166 -0.2229  0.5637  0.6635
  196MOL0     C26365   9.833  10.985   7.040 -0.0818 -0.0069  0.2719
  196MOL0     C26366   9.684  10.954   7.064 -0.4270 -0.0075 -0.4416
  196MOL0     C26367   9.643  10.856   7.179 -0.1522 -0.3294  0.6359
  196MOL0     C26368   9.663  10.709   7.154 -0.7944  0.5288 -0.1433
  196MOL0     C26369   9.576  10.666   7.037 -0.1503  0.1441  0.0244
  196MOL0    Cl26370   9.602  10.500   7.028  0.1389 -0.3446 -0.3335
  196MOL0     C26371  10.187  11.446   7.121  0.6677 -0.2268  0.3539
  196MOL0     C26372  10.252  11.478   7.003 -0.5668 -0.4843  0.2653
  196MOL0     O26373  10.524  11.631   6.889  0.1916  0.0883  0.9029
  196MOL0     C26374  10.690  11.383   6.697  0.1722  0.7085  0.1008
  196MOL0     C26375  10.794  11.365   6.607  0.4450  0.1493  0.3556
  196MOL0     N26376  11.302  11.482   5.982  0.8220 -0.4391  1.1622
  196MOL0     N26377  11.244  11.500   5.870  0.0740 -0.1152 -0.4163
  196MOL0     C26378  11.336  10.362   5.451  0.9343  0.3315 -1.4355
  196MOL0     C26379  11.330  10.252   5.360 -0.3729  0.4942  0.4312
  196MOL0     C26380  11.187   9.963   5.068 -0.2220  0.1949  0.5654
  196MOL0     C26381  11.065   9.900   5.021 -0.3424  0.2456 -0.7436
  196MOL0     C26382  11.058   9.753   5.000 -0.0186 -0.8573  0.1047
  196MOL0     C26383  11.182   9.678   4.991  0.4489  0.2711 -0.0684
  196MOL0     O26384  11.185   9.558   4.920  0.0692 -0.6004 -0.3441
  196MOL0     C26385  11.238   9.581   4.784 -0.8337 -0.0056  0.0043
  196MOL0     C26386  11.229   9.460   4.688  0.0157  0.5802  1.5868
  196MOL0     C26387  11.279   9.487   4.538 -1.3877 -0.0983 -0.3634
  196MOL0     C26388  11.239   9.368   4.465  0.8715  0.6612  0.1334
  196MOL0     C26389  11.302   9.247   4.506 -0.9729  0.3676 -0.1969
  196MOL0     C26390  11.357   9.140   4.535  0.1954 -0.8923  0.7202
  196MOL0     C26391  11.298   9.742   5.049  0.3720 -0.2885 -0.2263
  196MOL0     C26392  11.301   9.874   5.088  0.5368  0.5375  0.3030
  196MOL0     H26393  11.199  10.403   5.091 -0.6387  2.2227  1.4781
  196MOL0     H26394  11.169  10.582   5.253 -1.9614 -0.5115  1.1099
  196MOL0     H26395  11.255  10.658   5.682  0.0768  1.1129 -0.8712
  196MOL0     H26396  11.384  10.545   5.639 -1.6650 -0.9445 -0.7367
  196MOL0     H26397  11.499  10.760   5.655 -0.2013 -1.7943  0.5600
  196MOL0     H26398  11.477  10.744   5.488  0.5655  0.3463  0.5973
  196MOL0     H26399  11.267  10.862   5.489  0.8075  0.6246 -1.2866
  196MOL0     H26400  11.265  10.874   5.663 -0.7105 -0.1527 -0.6467
  196MOL0     H26401  11.478  11.019   5.662  1.1865  0.0835 -1.6067
  196MOL0     H26402  11.494  11.000   5.489 -1.3043 -2.6972 -0.4972
  196MOL0     H26403  11.418  11.194   5.502  0.9905 -1.7662  1.1455
  196MOL0     H26404  11.269  11.118   5.460 -0.1381  0.0054 -0.8073
  196MOL0     H26405  11.176  11.113   5.691  0.3690 -0.4735  0.8705
  196MOL0     H26406  11.328  11.202   5.747  0.0551  4.5516 -0.0746
  196MOL0     H26407  11.274  11.394   5.599 -0.6197  0.1549 -1.8692
  196MOL0     H26408  11.161  11.319   5.514  0.1952  3.6989 -0.7864
  196MOL0     H26409  11.016  11.296   5.732  0.6386 -0.0271  1.4089
  196MOL0     H26410  11.062  11.466   5.673 -0.1980  0.5289  1.3810
  196MOL0     H26411  11.121  11.208   5.954  3.0463 -1.4465  0.4407
  196MOL0     H26412  11.280  11.202   6.169  0.7154 -0.0349 -0.8468
  196MOL0     H26413  11.346  11.339   6.223 -1.5120 -1.4169  2.9561
  196MOL0     H26414  11.050  11.316   6.195 -0.2912 -0.2150 -0.9984
  196MOL0     H26415  11.146  11.458   6.242  1.2128 -0.5543 -1.5057
  196MOL0     H26416  11.243  11.252   6.430  0.5530  1.5863  0.4821
  196MOL0     H26417  11.065  11.214   6.414 -0.8189  1.2534  0.8348
  196MOL0     H26418  11.155  11.475   6.489 -0.3767  0.6726  0.4088
  196MOL0     H26419  11.106  11.346   6.597  3.9516  0.5825 -1.3234
  196MOL0     H26420  10.842  11.688   6.519 -0.1618  0.1073 -0.6450
  196MOL0     H26421  10.750  11.836   6.636  0.8411  0.0397 -0.2673
  196MOL0     H26422  10.581  11.778   6.645 -1.2868 -2.3639  3.6125
  196MOL0     H26423  10.671  11.806   6.790  2.1951  0.5438  0.0393
  196MOL0     H26424  10.493  11.231   7.011 -0.9869  0.1715 -3.1856
  196MOL0     H26425  10.342  11.148   7.180  0.2649 -1.1777 -2.8543
  196MOL0     H26426  10.171  11.092   7.309  0.5468  0.6010 -0.1793
  196MOL0     H26427  10.009  11.124   7.365 -0.3032 -0.5546  0.9577
  196MOL0     H26428  10.003  11.204   7.092  1.3493  2.8637  2.8138
  196MOL0     H26429  10.105  11.048   7.087 -1.6751 -2.1356  0.5367
  196MOL0     H26430   9.835  11.088   7.222 -1.5082 -1.3738  1.3578
  196MOL0     H26431   9.936  10.931   7.214  1.6719  0.1225 -1.2299
  196MOL0     H26432   9.839  11.067   6.967 -3.4499  0.0829 -0.0632
  196MOL0     H26433   9.882  10.894   7.004 -1.3391 -1.1659  1.3997
  196MOL0     H26434   9.653  10.911   6.968  3.4049  0.7115 -2.1617
  196MOL0     H26435   9.636  11.051   7.079  0.7784  0.7180 -1.1483
  196MOL0     H26436   9.707  10.892   7.260  3.5851  0.4213 -2.3528
  196MOL0     H26437   9.538  10.856   7.207 -0.2461 -0.8029  0.2934
  196MOL0     H26438   9.647  10.652   7.246  1.1373  1.5434  0.8955
  196MOL0     H26439   9.767  10.695   7.125 -0.4769  2.4190 -0.0403
  196MOL0     H26440   9.610  10.718   6.946  1.0914 -1.2062 -0.3294
  196MOL0     H26441   9.470  10.686   7.049  0.0680  1.9209 -0.6129
  196MOL0     H26442  10.110  11.517   7.153 -2.4021 -3.8085  1.6915
  196MOL0     H26443  10.237  11.574   6.953  5.3626  1.3492  1.1751
  196MOL0     H26444  10.648  11.291   6.736 -2.0109  1.6850  0.2139
  196MOL0     H26445  10.821  11.272   6.558  2.2638  0.2952  0.9837
  196MOL0     H26446  11.368  10.340   5.553 -2.2746  1.9369  0.0580
  196MOL0     H26447  11.370  10.156   5.391  1.1716  0.9035 -0.2250
  196MOL0     H26448  10.976   9.960   5.012  0.0587  1.2367  1.3478
  196MOL0     H26449  10.969   9.699   4.971  0.3164 -1.8465  0.8713
  196MOL0     H26450  11.176   9.652   4.729  1.5998 -1.0189 -4.4749
  196MOL0     H26451  11.334   9.633   4.779 -1.2764  1.3253  2.7306
  196MOL0     H26452  11.124   9.430   4.695  1.0100 -3.9035  0.6135
  196MOL0     H26453  11.280   9.380   4.743 -1.6657  0.4972  3.1334
  196MOL0     H26454  11.387   9.499   4.536 -0.8980 -3.1623  1.3998
  196MOL0     H26455  11.229   9.583   4.521 -0.2752  1.1717  2.8367
  196MOL0     H26456  11.236   9.374   4.355 -2.1169 -0.6586  0.0348
  196MOL0     H26457  11.130   9.362   4.476  0.8495 -1.6977 -0.6959
  196MOL0     H26458  11.402   9.044   4.549 -0.6134 -0.9970  3.0501
  196MOL0     H26459  11.390   9.685   5.054  0.2376 -0.5796 -0.9744
  196MOL0     H26460  11.391   9.913   5.135  0.1566  1.2513  0.4528
  197MOL0     O26461  11.505   9.602   7.497  0.6797 -0.2898 -0.0575
  197MOL0     C26462  11.475   9.686   7.586  1.0287  0.4435 -0.0859
  197MOL0     O26463  11.512   9.815   7.585  0.2690  0.2750 -0.2505
  197MOL0     C26464  11.619   9.842   7.501  0.2364 -0.4079  1.2493
  197MOL0     C26465  11.609   9.922   7.380  0.6086  1.5705 -0.1030
  197MOL0     C26466  11.715   9.927   7.286  0.0384  0.6843  0.1098
  197MOL0     C26467  11.837   9.859   7.300  0.3377  0.4709  0.9030
  197MOL0     O26468  11.930   9.870   7.198 -0.4912  0.3389  0.0121
  197MOL0     C26469  12.016   9.756   7.197  0.0873 -0.2398  0.8266
  197MOL0     C26470  12.093   9.747   7.062 -0.6402 -0.0005 -0.4090
  197MOL0     C26471  11.996   9.750   6.950 -0.0487  0.7378  0.2801
  197MOL0     C26472  12.063   9.698   6.816 -0.3370 -1.3680  0.2096
  197MOL0     C26473  12.078   9.552   6.786  0.2931 -0.2401 -0.1443
  197MOL0     C26474  11.946   9.471   6.771 -0.0381 -0.1656  0.3768
  197MOL0     C26475  11.963   9.332   6.728 -0.0905  0.2892  0.1219
  197MOL0     C26476  11.834   9.250   6.739  0.0190 -0.2229 -0.0192
  197MOL0     N26477  11.715   9.321   6.689 -0.9384 -0.1679  0.4654
  197MOL0     C26478  11.697   9.349   6.558  0.4328 -0.0677  0.1186
  197MOL0     C26479  11.576   9.407   6.541  0.4649 -0.7050 -0.7863
  197MOL0     C26480  11.504   9.450   6.416 -0.0173  0.4743  0.1217
  197MOL0     C26481  11.375   9.358   6.384  0.0373 -0.3523 -0.1211
  197MOL0     C26482  11.318   9.390   6.241  0.2705 -0.3830 -0.5091
  197MOL0     C26483  11.204   9.494   6.250 -0.0488  0.5755 -0.4450
  197MOL0     O26484  11.075   9.424   6.246  0.0093 -0.7845 -0.0149
  197MOL0     C26485  10.966   9.498   6.272  0.1830  0.5808  0.5021
  197MOL0     C26486  10.833   9.447   6.275  0.2429 -0.4162 -0.3521
  197MOL0     C26487  10.714   9.525   6.278 -0.3492  0.1150  1.2588
  197MOL0     C26488  10.588   9.446   6.277 -0.4626  0.1950 -0.5806
  197MOL0     C26489  10.729   9.668   6.288 -0.5243  0.0694 -0.5877
  197MOL0     C26490  10.614   9.773   6.287 -0.5927  0.9902  0.2995
  197MOL0     O26491  10.650   9.910   6.267  0.2690 -0.3013 -0.2704
  197MOL0     C26492  10.554  10.007   6.269 -1.0828  0.3544  0.4164
  197MOL0     C26493  10.521  10.076   6.382  0.3554  0.0745 -0.2793
  197MOL0     C26494  10.400  10.163   6.383 -0.6502 -0.2947 -0.6644
  197MOL0     C26495  10.348  10.202   6.263  0.6391  0.5813  0.1767
  197MOL0     O26496  10.259  10.304   6.253 -0.2906 -0.6378 -0.3035
  197MOL0     C26497  10.138  10.273   6.324 -0.4771 -0.6576 -0.2896
  197MOL0     C26498  10.057  10.397   6.326 -0.3287  0.6269  0.2113
  197MOL0     C26499  10.024  10.446   6.183 -0.8790 -0.2630  0.0122
  197MOL0     C26500   9.940  10.571   6.190  0.0347 -0.3165  0.3542
  197MOL0     C26501   9.900  10.625   6.050 -0.2755  0.4117  0.1076
  197MOL0     C26502   9.815  10.742   6.077  0.6847  0.1909 -0.6858
  197MOL0     C26503   9.777  10.798   5.930  0.6956  0.7059  0.3491
  197MOL0     C26504   9.643  10.872   5.921  0.7427 -0.3252  0.8473
  197MOL0    Cl26505   9.495  10.779   5.908  0.0208  0.3809  0.2346
  197MOL0     C26506  10.396  10.140   6.144  0.0288 -0.1157  0.2264
  197MOL0     C26507  10.499  10.048   6.154  0.1395  0.8551  0.3559
  197MOL0     O26508  10.501   9.726   6.307 -0.2698 -0.8094 -0.2186
  197MOL0     C26509  10.860   9.719   6.295 -0.0182 -0.0822  0.1272
  197MOL0     C26510  10.970   9.637   6.290  0.4433 -0.6711  0.3891
  197MOL0     N26511  11.517   9.419   6.668  0.1693  0.5367  0.7844
  197MOL0     N26512  11.604   9.374   6.754 -0.3972  0.2780 -0.0953
  197MOL0     C26513  11.846   9.780   7.418  0.8392  0.3247  0.0710
  197MOL0     C26514  11.748   9.784   7.525 -0.1355  0.3884 -0.4388
  197MOL0     C26515  11.379   9.633   7.691 -0.9781 -0.0432 -1.3175
  197MOL0     C26516  11.329   9.718   7.794  0.7367 -0.6758 -0.1082
  197MOL0     C26517  11.231   9.678   7.884  0.1185  0.3251 -0.4602
  197MOL0     C26518  11.179   9.544   7.869 -0.4773  0.6741 -0.0435
  197MOL0     O26519  11.072   9.502   7.943  0.7377  0.2086 -0.1352
  197MOL0     C26520  11.098   9.500   8.089 -0.6430  0.5134  0.0514
  197MOL0     C26521  11.024   9.378   8.146  0.3947 -0.1052  0.3601
  197MOL0     C26522  11.094   9.248   8.100  0.5673 -0.0511  0.2103
  197MOL0     C26523  11.015   9.175   7.996  0.0773  0.3474  0.9155
  197MOL0     C26524  10.904   9.099   8.059  0.1572 -0.3464  0.1215
  197MOL0     C26525  10.822   9.049   8.126  0.4819 -0.0151  1.0564
  197MOL0     C26526  11.253   9.455   7.792  0.4687 -0.8079  0.2525
  197MOL0     C26527  11.351   9.498   7.698 -0.0085  0.6378  0.7418
  197MOL0     H26528  11.512   9.966   7.359 -0.6049 -1.4879 -1.6155
  197MOL0     H26529  11.698   9.968   7.187 -0.2572  1.0505  0.3109
  197MOL0     H26530  12.092   9.776   7.273 -0.2919  3.0859  0.4898
  197MOL0     H26531  11.975   9.655   7.204  1.4440 -1.2461 -2.9635
  197MOL0     H26532  12.163   9.830   7.052 -1.6015  0.5394 -3.4937
  197MOL0     H26533  12.157   9.658   7.067  0.4394  0.7968  0.8335
  197MOL0     H26534  11.903   9.697   6.972 -0.5481  0.9136 -1.3254
  197MOL0     H26535  11.968   9.855   6.940 -2.2002  0.2927  1.0459
  197MOL0     H26536  12.005   9.737   6.731  0.8345  2.2304  0.8958
  197MOL0     H26537  12.160   9.749   6.810  0.0706 -2.1270  0.2649
  197MOL0     H26538  12.135   9.545   6.693 -0.0862  3.3503 -0.7600
  197MOL0     H26539  12.144   9.507   6.861 -2.1393  0.9331  2.9182
  197MOL0     H26540  11.883   9.451   6.859 -2.8760 -2.5169 -1.9662
  197MOL0     H26541  11.876   9.524   6.707  0.4828  0.2806  0.1628
  197MOL0     H26542  11.987   9.349   6.623 -1.7881  2.0216 -0.0557
  197MOL0     H26543  12.046   9.277   6.772  0.6879  0.9535 -0.4875
  197MOL0     H26544  11.813   9.223   6.843 -2.2401  0.7571 -0.1483
  197MOL0     H26545  11.848   9.157   6.683  1.2837  0.3709 -0.7130
  197MOL0     H26546  11.758   9.321   6.473 -0.9045  2.1306 -1.6561
  197MOL0     H26547  11.483   9.556   6.434  3.4511  1.1661  0.7027
  197MOL0     H26548  11.577   9.448   6.334  1.7990  2.1807  1.6121
  197MOL0     H26549  11.300   9.375   6.461 -1.1413 -3.3461 -0.4375
  197MOL0     H26550  11.412   9.255   6.378  1.8629  0.3444 -2.0048
  197MOL0     H26551  11.284   9.293   6.205  2.2808 -0.8327 -1.3527
  197MOL0     H26552  11.384   9.427   6.162 -2.1055  2.1384 -1.4742
  197MOL0     H26553  11.199   9.556   6.160  3.2479  1.7020  0.0403
  197MOL0     H26554  11.213   9.557   6.339  0.6388  0.6809 -0.5840
  197MOL0     H26555  10.830   9.340   6.257  2.6276 -0.5460 -0.4019
  197MOL0     H26556  10.503   9.516   6.283  1.6580  2.8652  0.6814
  197MOL0     H26557  10.581   9.382   6.189 -0.4538 -2.0369  0.9541
  197MOL0     H26558  10.591   9.381   6.365  5.1846  1.5957  0.6761
  197MOL0     H26559  10.571  10.061   6.478 -0.2086 -0.4817 -0.0626
  197MOL0     H26560  10.379  10.203   6.482  0.2049 -1.8029  0.1648
  197MOL0     H26561  10.087  10.183   6.286 -1.4248  0.1364 -0.9507
  197MOL0     H26562  10.165  10.265   6.430 -2.6515  1.0361  0.4697
  197MOL0     H26563   9.957  10.381   6.369  0.6431 -1.2053  2.0179
  197MOL0     H26564  10.102  10.481   6.378  0.7833 -0.1469  0.5267
  197MOL0     H26565   9.973  10.366   6.129 -0.8419 -0.5584  0.4184
  197MOL0     H26566  10.118  10.482   6.140 -0.9281  1.0911  0.9478
  197MOL0     H26567   9.849  10.544   6.246  0.4495  0.7861  1.6199
  197MOL0     H26568   9.990  10.646   6.252 -0.9656 -1.4245  2.6466
  197MOL0     H26569   9.850  10.546   5.994  0.3989 -0.0653  0.1632
  197MOL0     H26570   9.996  10.652   6.006  0.6050 -2.1283  0.2712
  197MOL0     H26571   9.723  10.714   6.130  1.8855 -4.1825 -0.5278
  197MOL0     H26572   9.871  10.821   6.127 -1.5777  1.1238  0.5649
  197MOL0     H26573   9.770  10.714   5.860 -0.0223 -0.0576  1.3122
  197MOL0     H26574   9.851  10.871   5.895 -1.8339  2.8743 -0.7944
  197MOL0     H26575   9.640  10.916   5.821  0.5989 -0.9584  0.5705
  197MOL0     H26576   9.631  10.940   6.006 -0.4551 -0.5057  0.8443
  197MOL0     H26577  10.362  10.174   6.047 -2.1717  0.0448  1.0113
  197MOL0     H26578  10.545  10.014   6.062  3.5796 -0.3576  2.3399
  197MOL0     H26579  10.874   9.826   6.304  0.2878 -0.1364  0.2810
  197MOL0     H26580  11.057   9.701   6.305 -0.7054  0.7321  1.3082
  197MOL0     H26581  11.944   9.757   7.459  0.6207  1.7063  1.4841
  197MOL0     H26582  11.772   9.757   7.627 -1.2508  1.4612  0.1412
  197MOL0     H26583  11.358   9.822   7.800  0.8306 -0.7835  3.0658
  197MOL0     H26584  11.191   9.762   7.939  1.2550  1.5790 -1.4847
  197MOL0     H26585  11.205   9.490   8.109 -0.6876  3.6010  2.7018
  197MOL0     H26586  11.065   9.588   8.145 -0.2308 -1.3644  3.5359
  197MOL0     H26587  10.916   9.390   8.143  0.4734  0.5838 -1.4649
  197MOL0     H26588  11.049   9.396   8.251 -0.6002 -1.4856  0.8584
  197MOL0     H26589  11.101   9.194   8.196  2.4202  0.6193  0.5066
  197MOL0     H26590  11.195   9.270   8.064 -0.1690 -0.0090 -1.9344
  197MOL0     H26591  11.080   9.100   7.949 -1.3291 -1.1384  1.2400
  197MOL0     H26592  10.978   9.233   7.911 -1.7652 -1.2352  0.5568
  197MOL0     H26593  10.749   8.999   8.187  0.9111  1.3042  2.7248
  197MOL0     H26594  11.231   9.349   7.780 -0.5446 -0.4639 -1.1103
  197MOL0     H26595  11.383   9.430   7.619 -4.3882 -0.3960 -0.4075
  198MOL0     O26596   6.173   1.074   7.004 -0.2253 -0.1252  0.3927
  198MOL0     C26597   6.077   1.101   6.944  0.4423  0.3023 -0.1273
  198MOL0     O26598   6.023   1.227   6.920  0.0045 -0.4085 -0.7155
  198MOL0     C26599   6.106   1.335   6.954  0.3610  0.4055 -1.0768
  198MOL0     C26600   6.165   1.359   7.087  0.8793 -0.4504  0.6212
  198MOL0     C26601   6.248   1.464   7.112 -0.6655 -0.2131 -0.3606
  198MOL0     C26602   6.280   1.545   7.008 -0.2333 -1.0899 -1.3913
  198MOL0     O26603   6.372   1.646   7.014  0.3866  0.5958 -0.0862
  198MOL0     C26604   6.493   1.636   7.088  0.1374 -0.7619 -0.3024
  198MOL0     C26605   6.584   1.760   7.036 -0.4663 -0.3806 -0.7522
  198MOL0     C26606   6.526   1.887   6.989  0.5733  0.0351  0.1223
  198MOL0     C26607   6.643   1.973   6.926  0.7092  0.4019  0.2872
  198MOL0     C26608   6.601   2.116   6.902 -0.2892  0.4379  1.0707
  198MOL0     C26609   6.648   2.211   7.016 -0.2459  0.5604  0.9338
  198MOL0     C26610   6.588   2.357   7.019 -0.1349  0.0875  0.7214
  198MOL0     C26611   6.623   2.434   6.891  0.6369 -0.6831 -0.5851
  198MOL0     N26612   6.571   2.575   6.918  0.6722  0.7520 -0.2865
  198MOL0     C26613   6.646   2.690   6.953 -0.2617  0.4636  0.0062
  198MOL0     C26614   6.560   2.800   6.934 -0.2204  0.6985 -1.2698
  198MOL0     C26615   6.583   2.946   6.953 -0.4434 -1.2753 -0.3401
  198MOL0     C26616   6.710   2.997   6.891 -0.8045  0.0678 -0.6343
  198MOL0     C26617   6.737   2.989   6.734 -0.0749 -0.6025 -0.3082
  198MOL0     C26618   6.875   3.045   6.695 -0.6149 -0.4741  0.9857
  198MOL0     O26619   6.976   2.941   6.675 -0.0770 -0.0908  0.0797
  198MOL0     C26620   7.100   2.986   6.626  0.4498  0.1158 -0.8325
  198MOL0     C26621   7.194   2.888   6.610  1.3869 -0.2264 -0.4684
  198MOL0     C26622   7.321   2.905   6.563 -1.1717  0.0117  0.6767
  198MOL0     C26623   7.415   2.784   6.558  0.8801 -0.1445 -0.4075
  198MOL0     C26624   7.355   3.034   6.517 -1.0594 -0.8649  0.3168
  198MOL0     C26625   7.489   3.068   6.459  0.3164 -0.8101  0.2629
  198MOL0     O26626   7.574   2.973   6.435 -0.5341  0.5119  0.1292
  198MOL0     C26627   7.704   3.001   6.387 -0.2187  0.2808  0.6058
  198MOL0     C26628   7.790   3.047   6.480 -1.3563  0.2018 -1.1362
  198MOL0     C26629   7.921   3.064   6.452 -1.5501  0.4990  0.0907
  198MOL0     C26630   7.970   3.035   6.319 -0.4611 -0.0407 -0.3725
  198MOL0     O26631   8.096   3.068   6.290 -0.3577 -0.1201  0.0814
  198MOL0     C26632   8.192   3.030   6.390  0.0155 -0.3272 -0.1333
  198MOL0     C26633   8.333   3.056   6.326  0.0575 -0.5543  0.1713
  198MOL0     C26634   8.442   3.022   6.428  0.2467  1.0331  0.2098
  198MOL0     C26635   8.575   3.082   6.380 -0.8913 -0.1096  0.2347
  198MOL0     C26636   8.689   3.068   6.483 -0.1492  0.1397  0.0988
  198MOL0     C26637   8.828   3.111   6.428 -0.6515 -0.6592  0.0584
  198MOL0     C26638   8.944   3.082   6.515 -0.9045  0.0608  0.0675
  198MOL0     C26639   9.084   3.133   6.489 -0.3806 -0.5529 -0.2556
  198MOL0    Cl26640   9.080   3.311   6.475  0.2541 -0.0137 -0.1856
  198MOL0     C26641   7.877   2.985   6.224  0.8415 -0.7567 -0.2398
  198MOL0     C26642   7.744   2.956   6.256 -0.5198  0.7635 -0.5080
  198MOL0     O26643   7.507   3.188   6.442  0.6406  0.1134 -0.4737
  198MOL0     C26644   7.259   3.138   6.541 -0.4594 -0.2216  1.6240
  198MOL0     C26645   7.132   3.116   6.590 -0.3467 -1.0764 -0.6892
  198MOL0     N26646   6.439   2.745   6.898  0.5410 -0.2838  0.0866
  198MOL0     N26647   6.444   2.614   6.894 -0.1456  0.0320 -0.9035
  198MOL0     C26648   6.227   1.525   6.883  0.6898  0.0526 -0.3130
  198MOL0     C26649   6.132   1.423   6.862 -0.5137  0.0587  0.8284
  198MOL0     C26650   6.017   0.978   6.883  0.3854 -0.1288  0.4621
  198MOL0     C26651   5.928   0.983   6.774  0.4543 -0.3602  0.3924
  198MOL0     C26652   5.880   0.875   6.709 -0.8727 -0.9276 -1.1859
  198MOL0     C26653   5.928   0.755   6.729  0.1490 -0.3054 -0.5042
  198MOL0     O26654   5.898   0.656   6.638 -0.4073  0.0877 -0.3215
  198MOL0     C26655   5.954   0.527   6.663 -0.0337 -0.1568 -0.0644
  198MOL0     C26656   5.889   0.430   6.560  0.1641 -1.2745  0.6240
  198MOL0     C26657   5.926   0.453   6.411 -0.2279 -0.2480 -1.0737
  198MOL0     C26658   6.080   0.463   6.394  0.0092 -0.2824 -0.0619
  198MOL0     C26659   6.119   0.459   6.259  1.0116  0.3669  0.1839
  198MOL0     C26660   6.154   0.457   6.138 -0.2684 -0.8423 -0.4687
  198MOL0     C26661   6.016   0.739   6.841 -0.1669 -0.0341  0.0227
  198MOL0     C26662   6.057   0.848   6.924 -0.5487 -0.3900 -0.5231
  198MOL0     H26663   6.150   1.286   7.166  1.4372 -3.7606 -2.0919
  198MOL0     H26664   6.292   1.476   7.210 -1.7388 -2.7647  0.5040
  198MOL0     H26665   6.457   1.660   7.189 -3.1975  0.8376 -1.7090
  198MOL0     H26666   6.537   1.536   7.088  0.1374 -0.7744 -1.2758
  198MOL0     H26667   6.661   1.791   7.107  1.3975  0.0960 -2.8655
  198MOL0     H26668   6.638   1.716   6.951  2.1599  0.4960  0.3661
  198MOL0     H26669   6.461   1.865   6.904  3.2100 -0.8932 -1.7744
  198MOL0     H26670   6.475   1.946   7.066  0.8410 -1.0773  1.1802
  198MOL0     H26671   6.731   1.965   6.989 -0.8770 -0.1246  2.5752
  198MOL0     H26672   6.675   1.924   6.834  0.4764 -0.8052  0.8271
  198MOL0     H26673   6.633   2.143   6.801 -1.4579  2.9925  1.2908
  198MOL0     H26674   6.493   2.135   6.905 -0.4113  0.0547 -0.3139
  198MOL0     H26675   6.634   2.170   7.117  0.8227 -1.3669  0.3370
  198MOL0     H26676   6.757   2.218   7.006  0.0871 -1.5529  2.4461
  198MOL0     H26677   6.480   2.348   7.037 -0.2197  0.9702  0.6924
  198MOL0     H26678   6.638   2.408   7.103  1.8212 -0.0095 -0.3330
  198MOL0     H26679   6.570   2.390   6.806  0.5098 -2.8846  0.5717
  198MOL0     H26680   6.728   2.438   6.861  0.3610  1.4225 -1.4671
  198MOL0     H26681   6.753   2.685   6.972 -0.4565 -1.5531  0.8255
  198MOL0     H26682   6.500   2.993   6.900  1.3241 -0.6454 -2.7163
  198MOL0     H26683   6.574   2.979   7.057  2.4136 -1.6800  0.1164
  198MOL0     H26684   6.794   2.957   6.948 -1.3859 -3.2939 -1.8957
  198MOL0     H26685   6.716   3.103   6.916 -1.1794 -0.6699  3.2250
  198MOL0     H26686   6.667   3.059   6.688  0.9457  1.2828  0.9007
  198MOL0     H26687   6.726   2.886   6.699  0.6707 -0.2664 -1.6402
  198MOL0     H26688   6.914   3.124   6.761  0.1328  0.6385 -0.7082
  198MOL0     H26689   6.861   3.092   6.597 -0.4965 -2.0875  0.1654
  198MOL0     H26690   7.162   2.787   6.633  2.0810 -0.7040 -1.5002
  198MOL0     H26691   7.458   2.774   6.457  4.0530 -3.7770  1.0244
  198MOL0     H26692   7.504   2.802   6.619  0.5863  2.8438 -0.7242
  198MOL0     H26693   7.362   2.691   6.577  0.9904  0.3050  2.5268
  198MOL0     H26694   7.758   3.087   6.576  2.8120 -1.1176  1.0491
  198MOL0     H26695   7.979   3.101   6.536  0.1926  3.5421 -2.2229
  198MOL0     H26696   8.175   3.095   6.476 -3.3885  4.3645 -3.8173
  198MOL0     H26697   8.180   2.923   6.412 -1.2661 -0.1872 -0.1181
  198MOL0     H26698   8.346   3.002   6.232 -1.0871  0.9785 -0.9201
  198MOL0     H26699   8.341   3.164   6.310 -4.0769 -0.1128 -0.1789
  198MOL0     H26700   8.473   2.917   6.433 -0.7858  0.6421 -1.0065
  198MOL0     H26701   8.424   3.054   6.531  0.0567 -1.4974  1.0403
  198MOL0     H26702   8.597   3.031   6.286 -1.8855 -1.0446  0.4851
  198MOL0     H26703   8.563   3.189   6.360 -3.4394 -0.4432 -0.3419
  198MOL0     H26704   8.692   2.965   6.519 -2.9190 -0.1994 -0.4453
  198MOL0     H26705   8.670   3.120   6.577  2.1017 -2.1069  1.9297
  198MOL0     H26706   8.835   3.064   6.329  2.0938  1.5462 -0.9222
  198MOL0     H26707   8.842   3.219   6.414  2.8803 -0.3992  3.6364
  198MOL0     H26708   8.958   2.974   6.522  0.1481  0.1963  0.2030
  198MOL0     H26709   8.925   3.125   6.614 -1.5571  2.3572 -0.9769
  198MOL0     H26710   9.133   3.091   6.401 -1.8020  2.8138 -2.8803
  198MOL0     H26711   9.150   3.108   6.573  1.1744  2.0975 -0.6049
  198MOL0     H26712   7.909   2.958   6.124 -1.2710 -3.3353 -0.3347
  198MOL0     H26713   7.678   2.914   6.181  0.1915  0.2660 -0.8581
  198MOL0     H26714   7.280   3.241   6.514  3.0533 -1.0612  0.6018
  198MOL0     H26715   7.069   3.204   6.597 -0.4020 -1.2577  2.0636
  198MOL0     H26716   6.248   1.596   6.803 -1.5910  1.7973  0.5170
  198MOL0     H26717   6.088   1.421   6.763  0.8047  2.6817  0.0993
  198MOL0     H26718   5.894   1.082   6.744 -2.9452 -1.5636 -0.1311
  198MOL0     H26719   5.816   0.878   6.622 -1.0179 -1.8458 -1.1240
  198MOL0     H26720   6.062   0.526   6.645  0.3725  1.5302  1.8867
  198MOL0     H26721   5.934   0.500   6.768  2.2901  1.7135  0.9434
  198MOL0     H26722   5.781   0.435   6.546  0.3729 -1.5568 -1.3698
  198MOL0     H26723   5.907   0.327   6.591 -0.3141 -1.0200  1.8015
  198MOL0     H26724   5.882   0.548   6.379 -3.2850 -1.7143 -1.6079
  198MOL0     H26725   5.887   0.371   6.350  0.9545 -0.6317 -1.3303
  198MOL0     H26726   6.110   0.369   6.442 -3.3607 -1.5677 -0.1948
  198MOL0     H26727   6.121   0.543   6.456  3.9239 -2.3364  0.3188
  198MOL0     H26728   6.186   0.425   6.041 -0.6664 -1.8079 -0.2973
  198MOL0     H26729   6.047   0.642   6.880 -0.0899 -0.0468 -0.0725
  198MOL0     H26730   6.113   0.834   7.016 -0.7691  0.6891 -0.2048
  199MOL0     O26731   2.076  11.270   3.909  0.2404  0.6821  0.1597
  199MOL0     C26732   2.156  11.352   3.867  0.4859 -0.1816 -0.4322
  199MOL0     O26733   2.271  11.382   3.934  0.0704 -1.0105  0.6557
  199MOL0     C26734   2.298  11.313   4.053 -0.4665  0.3466  0.6567
  199MOL0     C26735   2.231  11.353   4.170  0.1280 -0.0747 -0.6850
  199MOL0     C26736   2.262  11.289   4.295 -0.5088  0.8092 -0.3271
  199MOL0     C26737   2.367  11.192   4.304 -0.0598  0.4992 -0.2140
  199MOL0     O26738   2.417  11.145   4.422  0.2530  0.6035 -1.0000
  199MOL0     C26739   2.378  11.190   4.549 -0.0030  0.5259 -1.0414
  199MOL0     C26740   2.438  11.073   4.629 -0.2119  0.6702 -0.0336
  199MOL0     C26741   2.452  11.099   4.771  0.0017  1.3697  0.4206
  199MOL0     C26742   2.501  10.974   4.836  0.1975 -0.3528 -0.4499
  199MOL0     C26743   2.486  10.980   4.990 -0.4762 -0.1483  0.4149
  199MOL0     C26744   2.564  11.100   5.032  0.7613  0.6936 -0.5773
  199MOL0     C26745   2.619  11.084   5.167 -0.1719 -0.0760 -0.1588
  199MOL0     C26746   2.714  11.209   5.210  0.1268  0.0362 -0.2489
  199MOL0     N26747   2.783  11.168   5.333  0.4740  0.6360 -0.3929
  199MOL0     C26748   2.891  11.092   5.341  0.0151  0.1041 -0.3931
  199MOL0     C26749   2.952  11.124   5.450 -0.4370  1.3828 -0.6283
  199MOL0     C26750   3.077  11.059   5.508 -0.3321 -0.1971  0.0680
  199MOL0     C26751   3.200  11.115   5.444  0.1791  0.6530  0.2806
  199MOL0     C26752   3.314  11.024   5.497 -0.7104  0.3144 -0.8410
  199MOL0     C26753   3.445  11.100   5.462 -0.0962 -0.1048  0.0535
  199MOL0     O26754   3.461  11.105   5.323 -0.3385 -0.1896 -0.5014
  199MOL0     C26755   3.575  11.061   5.263 -0.2976 -0.7186 -0.4406
  199MOL0     C26756   3.698  11.079   5.326 -0.8370  0.1085  1.6189
  199MOL0     C26757   3.819  11.032   5.264  0.8008 -0.2499 -0.3785
  199MOL0     C26758   3.947  11.085   5.315 -0.2618 -0.4203 -0.0768
  199MOL0     C26759   3.805  10.956   5.149  0.7723 -0.6412 -0.0857
  199MOL0     C26760   3.919  10.873   5.087  0.2327  1.4326 -0.0578
  199MOL0     O26761   4.032  10.854   5.166  0.6345  0.3005  0.0534
  199MOL0     C26762   4.155  10.807   5.111 -0.6689  0.7351 -1.2934
  199MOL0     C26763   4.199  10.816   4.976 -0.8607 -0.2111 -0.3909
  199MOL0     C26764   4.322  10.757   4.929  1.3426 -0.5063 -0.5452
  199MOL0     C26765   4.407  10.701   5.025  0.6141 -0.7715  0.0297
  199MOL0     O26766   4.531  10.652   4.999 -0.2412  0.6734  1.2083
  199MOL0     C26767   4.582  10.651   4.856 -0.2852  1.1719 -0.0539
  199MOL0     C26768   4.719  10.590   4.859 -0.2748 -0.6137 -0.4007
  199MOL0     C26769   4.806  10.670   4.962 -0.4160  0.2445  0.7228
  199MOL0     C26770   4.949  10.599   4.983  1.0008  0.6140 -0.1419
  199MOL0     C26771   5.023  10.653   5.104  0.2035  0.6898  0.4059
  199MOL0     C26772   5.153  10.556   5.133 -0.4873 -0.3289 -0.0177
  199MOL0     C26773   5.237  10.631   5.243  1.1378 -0.1305  0.7735
  199MOL0     C26774   5.380  10.586   5.272  0.1867 -0.1738  0.7533
  199MOL0    Cl26775   5.444  10.676   5.409  0.2139 -0.5379  0.2082
  199MOL0     C26776   4.366  10.696   5.162 -0.0544 -0.3155 -0.4369
  199MOL0     C26777   4.239  10.741   5.201  0.6524 -0.2176 -0.3848
  199MOL0     O26778   3.901  10.815   4.977 -0.2256 -0.5292 -0.4927
  199MOL0     C26779   3.679  10.947   5.088 -0.0580 -0.1399 -0.0308
  199MOL0     C26780   3.564  11.005   5.146  0.4486  0.3267  0.2442
  199MOL0     N26781   2.880  11.224   5.520  0.3438  0.2599 -0.1114
  199MOL0     N26782   2.776  11.247   5.446 -0.8325  0.0655 -0.3234
  199MOL0     C26783   2.431  11.150   4.189  0.1425  1.5089 -0.0963
  199MOL0     C26784   2.389  11.200   4.065  0.9236 -1.0354 -0.1190
  199MOL0     C26785   2.106  11.427   3.745 -0.0113  1.8400 -0.4365
  199MOL0     C26786   2.181  11.529   3.686  0.3024  0.4365 -0.7298
  199MOL0     C26787   2.136  11.605   3.583  0.2270 -0.1760  0.1654
  199MOL0     C26788   2.009  11.596   3.531  1.2647 -0.5633 -0.9823
  199MOL0     O26789   1.981  11.688   3.433  0.2349 -0.0867  0.3257
  199MOL0     C26790   1.836  11.745   3.443 -0.6493 -0.0057  0.3796
  199MOL0     C26791   1.821  11.886   3.381  0.0818  0.1563  0.1017
  199MOL0     C26792   1.884  11.875   3.231  0.1711  0.1587 -1.2554
  199MOL0     C26793   1.814  11.974   3.149  0.0360  0.1902  0.7093
  199MOL0     C26794   1.809  12.110   3.200 -0.2219  0.0698 -0.4423
  199MOL0     C26795   1.800  12.226   3.230 -0.2400  0.3243 -0.2683
  199MOL0     C26796   1.926  11.492   3.585 -0.9062 -0.4764 -0.1261
  199MOL0     C26797   1.978  11.410   3.691  0.5098 -0.9237 -0.6705
  199MOL0     H26798   2.147  11.422   4.165 -2.6973 -3.2281 -1.0562
  199MOL0     H26799   2.216  11.325   4.386  0.3652 -1.0367  0.9019
  199MOL0     H26800   2.422  11.288   4.569  2.1565 -0.1445 -2.1040
  199MOL0     H26801   2.270  11.188   4.560 -0.0827  1.3254 -1.5892
  199MOL0     H26802   2.363  10.994   4.620 -1.4890  1.7997  0.4226
  199MOL0     H26803   2.540  11.047   4.600  1.2775  2.8900  2.7035
  199MOL0     H26804   2.498  11.197   4.789 -0.0605  0.8706  4.0887
  199MOL0     H26805   2.355  11.125   4.816  0.0356  2.0066  0.1408
  199MOL0     H26806   2.435  10.893   4.805 -2.8918  2.4739 -1.9159
  199MOL0     H26807   2.602  10.944   4.805  0.0310 -0.8939 -0.4812
  199MOL0     H26808   2.382  10.997   5.020 -0.2571 -1.2149  1.9213
  199MOL0     H26809   2.521  10.884   5.030 -2.6565 -0.4893  1.6684
  199MOL0     H26810   2.653  11.130   4.977  0.8612  1.4323 -0.0332
  199MOL0     H26811   2.494  11.184   5.032  0.6038  0.5636 -0.5337
  199MOL0     H26812   2.537  11.069   5.238  0.0238  0.0296  0.0950
  199MOL0     H26813   2.677  10.991   5.173 -2.2030 -1.3958 -0.2627
  199MOL0     H26814   2.658  11.300   5.232  3.0023  1.4089  2.2419
  199MOL0     H26815   2.785  11.240   5.133 -0.0238  4.2202  1.0427
  199MOL0     H26816   2.945  11.037   5.265  2.4230  0.1912  1.1593
  199MOL0     H26817   3.077  11.072   5.617  1.0623 -2.7159  0.4468
  199MOL0     H26818   3.082  10.953   5.481 -3.3704  0.2781 -3.0959
  199MOL0     H26819   3.211  11.222   5.465 -0.2388  1.9901 -4.9761
  199MOL0     H26820   3.197  11.106   5.335  1.5717  1.0003  0.1966
  199MOL0     H26821   3.325  10.933   5.438  1.6756  0.9258 -1.4408
  199MOL0     H26822   3.300  11.017   5.605 -0.8017  2.3423 -0.6779
  199MOL0     H26823   3.522  11.045   5.518 -0.8919  0.2333  1.5389
  199MOL0     H26824   3.460  11.199   5.507 -0.4137 -0.4263  0.8978
  199MOL0     H26825   3.697  11.152   5.406  0.0183  0.1288  1.6175
  199MOL0     H26826   3.996  11.010   5.378  0.1830  0.7760  1.0476
  199MOL0     H26827   4.024  11.104   5.240  0.4424 -2.4730  0.0647
  199MOL0     H26828   3.924  11.175   5.374 -4.7614 -1.7527  0.5585
  199MOL0     H26829   4.139  10.863   4.899 -0.9668 -0.2893 -0.3558
  199MOL0     H26830   4.363  10.782   4.832  2.3474 -4.7122 -1.4283
  199MOL0     H26831   4.523  10.581   4.796  3.3656 -0.7566 -1.7215
  199MOL0     H26832   4.594  10.746   4.803  5.1285 -0.4417 -2.3632
  199MOL0     H26833   4.717  10.488   4.898  1.8824 -0.1426  1.0772
  199MOL0     H26834   4.768  10.597   4.761  0.3584  3.7014  0.0151
  199MOL0     H26835   4.762  10.667   5.062  0.1378  1.7753  1.0470
  199MOL0     H26836   4.800  10.775   4.931  1.0879  1.2222  3.4514
  199MOL0     H26837   4.937  10.490   4.980  2.1015  0.4144 -4.6072
  199MOL0     H26838   5.006  10.632   4.895  3.0485  2.0105  1.5975
  199MOL0     H26839   4.960  10.655   5.193 -1.0363  3.7186 -0.4257
  199MOL0     H26840   5.055  10.756   5.091 -0.8928  0.9989  0.0488
  199MOL0     H26841   5.124  10.458   5.170  2.6846 -0.5481  2.2292
  199MOL0     H26842   5.210  10.542   5.040 -1.2727  1.7447 -0.8876
  199MOL0     H26843   5.188  10.606   5.338  2.2514 -3.3173  0.6343
  199MOL0     H26844   5.231  10.736   5.212  2.5708 -0.9558 -2.8253
  199MOL0     H26845   5.448  10.608   5.189 -0.8171 -1.8926 -0.5839
  199MOL0     H26846   5.382  10.478   5.288  0.1230 -0.8268 -2.8279
  199MOL0     H26847   4.433  10.664   5.241  0.1314  3.6434  1.2388
  199MOL0     H26848   4.204  10.733   5.304  0.9586 -2.4788 -0.3947
  199MOL0     H26849   3.661  10.885   5.001 -1.0567  0.6670 -0.4107
  199MOL0     H26850   3.469  10.971   5.106  1.6998 -2.7240 -0.4192
  199MOL0     H26851   2.504  11.071   4.199 -0.7114  1.0078  3.9986
  199MOL0     H26852   2.429  11.163   3.971 -0.2954  0.1253 -1.1272
  199MOL0     H26853   2.283  11.542   3.719  0.3732 -1.0449 -0.2895
  199MOL0     H26854   2.202  11.672   3.528 -3.2362  0.2891 -3.9733
  199MOL0     H26855   1.763  11.695   3.379 -2.0624  0.9966  1.1753
  199MOL0     H26856   1.805  11.737   3.547 -3.8917  2.1202 -0.2645
  199MOL0     H26857   1.871  11.964   3.439 -0.7166  0.3717  0.5091
  199MOL0     H26858   1.715  11.909   3.385 -0.4141 -1.2570 -2.5763
  199MOL0     H26859   1.873  11.769   3.204 -0.5588  0.1582 -0.9948
  199MOL0     H26860   1.990  11.898   3.220  0.1042  0.6236 -0.9633
  199MOL0     H26861   1.712  11.935   3.143  0.6814 -1.5957  0.7271
  199MOL0     H26862   1.849  11.976   3.045 -0.6019  2.8859  0.4720
  199MOL0     H26863   1.768  12.326   3.251  1.0634  0.6580  0.1853
  199MOL0     H26864   1.828  11.482   3.540 -1.5979 -0.7404  1.3736
  199MOL0     H26865   1.912  11.335   3.734 -1.2147 -0.3585 -2.1744
  200MOL0     O26866   5.665   7.408   2.420 -0.0011  0.5836  0.4215
  200MOL0     C26867   5.640   7.522   2.382 -1.0248 -0.0596  0.0998
  200MOL0     O26868   5.567   7.613   2.451  0.1684 -0.9085 -0.3894
  200MOL0     C26869   5.515   7.575   2.572 -1.0342 -0.2014  0.3083
  200MOL0     C26870   5.565   7.634   2.688 -0.1063  0.3777  0.4013
  200MOL0     C26871   5.508   7.597   2.819 -0.1343  0.2210  1.0845
  200MOL0     C26872   5.414   7.484   2.820  0.0367 -0.0492  0.3331
  200MOL0     O26873   5.361   7.449   2.940  0.2258  0.1155 -0.0023
  200MOL0     C26874   5.233   7.390   2.940  0.2592  0.8059 -0.5974
  200MOL0     C26875   5.120   7.476   2.876 -0.2537  0.2522  0.3870
  200MOL0     C26876   5.113   7.618   2.933 -0.3592  0.3457  0.5712
  200MOL0     C26877   4.975   7.677   2.948  0.9152  0.7809 -0.1277
  200MOL0     C26878   4.978   7.824   2.983  0.2333 -0.3756  0.4380
  200MOL0     C26879   4.834   7.861   3.024  0.3466 -0.2146  1.3502
  200MOL0     C26880   4.841   8.011   3.037  0.0506  0.2956 -0.1145
  200MOL0     C26881   4.856   8.097   2.906 -0.2991 -0.1234  0.9647
  200MOL0     N26882   4.721   8.128   2.844 -0.9309 -0.3416 -0.6620
  200MOL0     C26883   4.664   8.254   2.834 -0.1028 -0.6895  0.5946
  200MOL0     C26884   4.540   8.236   2.778 -0.0955 -0.1163 -0.9172
  200MOL0     C26885   4.428   8.336   2.750 -0.8316  0.1855 -0.9533
  200MOL0     C26886   4.416   8.389   2.607  0.6619  0.0090 -1.0586
  200MOL0     C26887   4.549   8.452   2.553  0.0674 -0.1724  0.5512
  200MOL0     C26888   4.529   8.512   2.414  0.1122  0.0164 -0.2771
  200MOL0     O26889   4.608   8.627   2.386 -0.1966  0.7261 -0.0672
  200MOL0     C26890   4.719   8.605   2.314 -0.6783 -0.1473  0.5354
  200MOL0     C26891   4.807   8.711   2.326  0.3937 -0.2757  0.2261
  200MOL0     C26892   4.936   8.699   2.269 -0.4789 -0.1965 -0.0173
  200MOL0     C26893   5.045   8.806   2.306  0.1235 -0.1917 -0.5632
  200MOL0     C26894   4.975   8.584   2.188 -0.2534  1.1227  0.0598
  200MOL0     C26895   5.115   8.558   2.145 -1.1579 -0.1534 -0.0351
  200MOL0     O26896   5.165   8.439   2.154 -0.7702  0.0944 -0.3775
  200MOL0     C26897   5.297   8.433   2.128  1.0961 -0.1171 -1.1631
  200MOL0     C26898   5.347   8.385   2.009  0.1038 -0.9625 -0.9529
  200MOL0     C26899   5.488   8.378   1.989 -0.0121 -0.2683  0.2449
  200MOL0     C26900   5.572   8.422   2.082 -0.8501  0.4069  0.1746
  200MOL0     O26901   5.713   8.420   2.065 -0.0379 -0.0291 -0.1588
  200MOL0     C26902   5.784   8.307   2.012 -0.2246 -0.3122  0.5871
  200MOL0     C26903   5.867   8.354   1.894 -0.0574  0.2732 -0.5351
  200MOL0     C26904   5.945   8.228   1.838  0.0926 -0.2001  0.6082
  200MOL0     C26905   6.071   8.269   1.756 -0.1279 -0.0582 -0.6509
  200MOL0     C26906   6.180   8.343   1.835  0.7108 -0.2574  0.1975
  200MOL0     C26907   6.318   8.341   1.773  0.3191 -0.4669  0.4794
  200MOL0     C26908   6.431   8.397   1.863  0.3438 -0.0168  0.5276
  200MOL0     C26909   6.429   8.342   2.005  1.0738 -0.2925 -0.0908
  200MOL0    Cl26910   6.472   8.163   1.987 -0.2754  0.1277 -0.1100
  200MOL0     C26911   5.525   8.484   2.194  0.3626 -0.1051 -0.8171
  200MOL0     C26912   5.391   8.485   2.226  0.8332 -0.4667 -0.1362
  200MOL0     O26913   5.160   8.649   2.077  0.2026 -0.7961  1.1721
  200MOL0     C26914   4.883   8.480   2.176  0.1299 -0.1377  0.0745
  200MOL0     C26915   4.752   8.498   2.232  0.3918  0.5533 -0.0691
  200MOL0     N26916   4.538   8.096   2.751  0.8151 -0.0199  0.3806
  200MOL0     N26917   4.635   8.038   2.797  0.3912 -0.2535  0.0740
  200MOL0     C26918   5.393   7.416   2.701 -0.2738 -0.1480 -0.6823
  200MOL0     C26919   5.433   7.462   2.579  1.5033 -0.2051 -0.0551
  200MOL0     C26920   5.703   7.574   2.262  0.4915 -0.5758 -0.0030
  200MOL0     C26921   5.728   7.709   2.237  0.4875  0.4368 -0.5469
  200MOL0     C26922   5.801   7.757   2.137  0.6946 -0.3068 -0.0094
  200MOL0     C26923   5.868   7.668   2.041  0.9341 -0.0096  0.0852
  200MOL0     O26924   5.960   7.714   1.948 -0.0319 -0.1305  1.0427
  200MOL0     C26925   6.005   7.850   1.920 -0.3980 -0.1245 -0.0879
  200MOL0     C26926   6.144   7.856   1.857 -0.4791 -0.1150  1.0159
  200MOL0     C26927   6.264   7.831   1.951  0.0908  0.0038 -0.4047
  200MOL0     C26928   6.290   7.678   1.946  0.0811  1.0214 -0.1509
  200MOL0     C26929   6.375   7.636   2.060  0.4726  0.3895  0.8034
  200MOL0     C26930   6.440   7.611   2.162 -0.1783  0.4426 -0.1193
  200MOL0     C26931   5.834   7.537   2.059  0.5873  1.2390  0.1075
  200MOL0     C26932   5.769   7.487   2.170  0.9686  0.0585 -1.0816
  200MOL0     H26933   5.639   7.712   2.674  0.2209  0.4918  2.4297
  200MOL0     H26934   5.523   7.653   2.911  0.8509 -0.0834  1.1259
  200MOL0     H26935   5.231   7.293   2.890 -0.2578  0.6363 -0.2502
  200MOL0     H26936   5.203   7.372   3.043 -0.1327  2.6899 -0.3382
  200MOL0     H26937   5.134   7.461   2.768 -1.6449 -1.6040  0.4019
  200MOL0     H26938   5.022   7.430   2.892 -2.7245  3.4360 -3.6518
  200MOL0     H26939   5.155   7.608   3.033  1.9414 -4.6989 -0.5883
  200MOL0     H26940   5.181   7.685   2.878 -1.2868  0.5919 -0.3075
  200MOL0     H26941   4.920   7.662   2.855  1.2163  1.5183 -0.4357
  200MOL0     H26942   4.913   7.626   3.022  0.5935  0.3347 -0.7021
  200MOL0     H26943   5.036   7.830   3.076 -1.7887 -0.1705  1.7473
  200MOL0     H26944   5.018   7.888   2.904 -0.3847  0.5341  0.8469
  200MOL0     H26945   4.762   7.837   2.945 -0.2308 -1.5062  2.2353
  200MOL0     H26946   4.809   7.819   3.122 -3.7726  1.6516  1.3001
  200MOL0     H26947   4.743   8.042   3.074 -0.7698 -1.0610 -1.0468
  200MOL0     H26948   4.911   8.049   3.112  0.0506  1.6262 -0.7666
  200MOL0     H26949   4.935   8.064   2.838 -0.6015  0.0186  0.5372
  200MOL0     H26950   4.890   8.194   2.941  0.3117 -0.2333  0.6903
  200MOL0     H26951   4.715   8.346   2.864  0.0436 -1.5472  3.2769
  200MOL0     H26952   4.332   8.296   2.780 -0.0546 -0.6761  0.4980
  200MOL0     H26953   4.452   8.425   2.809  3.9784 -3.1962  3.0992
  200MOL0     H26954   4.332   8.453   2.578 -0.1749 -1.5143 -2.1990
  200MOL0     H26955   4.387   8.300   2.550 -0.1392 -0.6383  0.2954
  200MOL0     H26956   4.623   8.371   2.552 -1.4448 -1.6280 -1.0729
  200MOL0     H26957   4.577   8.525   2.629  2.0170 -0.1797 -0.1098
  200MOL0     H26958   4.429   8.548   2.390  1.4231  2.5764 -2.5257
  200MOL0     H26959   4.535   8.423   2.350 -1.6209 -0.3368  0.0208
  200MOL0     H26960   4.785   8.795   2.391 -1.6440 -0.0609 -0.6774
  200MOL0     H26961   5.014   8.872   2.387 -1.7348  0.2184 -1.5613
  200MOL0     H26962   5.137   8.759   2.343  0.0557 -0.0785 -0.2524
  200MOL0     H26963   5.055   8.849   2.206  1.1793 -3.4497 -2.0015
  200MOL0     H26964   5.277   8.354   1.933  0.4293 -2.8627 -0.5364
  200MOL0     H26965   5.531   8.329   1.902 -1.4291  0.2264 -0.7608
  200MOL0     H26966   5.848   8.273   2.094  0.2418 -3.0987 -0.8458
  200MOL0     H26967   5.724   8.220   1.984  0.4917 -0.0589 -1.9786
  200MOL0     H26968   5.809   8.389   1.808 -2.1323 -1.1377  0.2214
  200MOL0     H26969   5.931   8.436   1.927 -0.6995  0.4700  0.2288
  200MOL0     H26970   5.876   8.173   1.773 -0.0536  1.4383 -0.6952
  200MOL0     H26971   5.990   8.168   1.918  2.7139 -0.4573 -0.9322
  200MOL0     H26972   6.105   8.170   1.724 -2.9449 -0.9454 -1.2054
  200MOL0     H26973   6.041   8.327   1.668 -3.1504  0.2185  0.4313
  200MOL0     H26974   6.202   8.270   1.914 -0.2805 -0.9380 -0.1313
  200MOL0     H26975   6.148   8.443   1.865 -2.9953  0.0841 -3.9321
  200MOL0     H26976   6.348   8.237   1.754  1.2779 -0.9976  4.0887
  200MOL0     H26977   6.307   8.391   1.677 -1.3454  0.1685  0.9651
  200MOL0     H26978   6.422   8.504   1.883  0.7752  0.3665 -1.1274
  200MOL0     H26979   6.527   8.376   1.814  0.0809 -0.7880  0.3246
  200MOL0     H26980   6.336   8.371   2.056  1.4144 -1.1882  1.0612
  200MOL0     H26981   6.513   8.386   2.059  1.1644 -1.5409  0.8160
  200MOL0     H26982   5.601   8.536   2.251  0.9600 -1.9821  0.1792
  200MOL0     H26983   5.367   8.553   2.307 -1.5119  0.4476 -1.4878
  200MOL0     H26984   4.902   8.382   2.133 -1.3227 -0.0368 -0.8737
  200MOL0     H26985   4.689   8.412   2.212 -0.6543  1.3164 -0.1537
  200MOL0     H26986   5.343   7.320   2.705 -2.6174  0.9810 -1.1855
  200MOL0     H26987   5.412   7.405   2.489  2.8966 -2.2014  0.8127
  200MOL0     H26988   5.689   7.784   2.305 -3.3529  1.1982 -3.2695
  200MOL0     H26989   5.826   7.862   2.135  3.1447 -0.7615 -3.8188
  200MOL0     H26990   5.929   7.897   1.857 -1.1810 -1.3858 -0.1281
  200MOL0     H26991   6.020   7.913   2.009 -2.3097  0.1697  0.0694
  200MOL0     H26992   6.159   7.964   1.841 -1.5242 -0.2587 -1.4696
  200MOL0     H26993   6.162   7.797   1.767 -1.4023  1.3271 -0.1797
  200MOL0     H26994   6.252   7.863   2.055  4.4213 -2.1813  1.0343
  200MOL0     H26995   6.352   7.878   1.904  0.4668  0.1358  0.4162
  200MOL0     H26996   6.325   7.642   1.849  1.2625  2.5356 -0.3207
  200MOL0     H26997   6.199   7.622   1.969 -0.2111  1.7704  0.5935
  200MOL0     H26998   6.507   7.584   2.241  0.6623  2.1590 -0.1875
  200MOL0     H26999   5.884   7.474   1.985 -4.6778 -0.6287 -2.3773
  200MOL0     H27000   5.762   7.379   2.182  1.4497 -0.1484 -2.4846
  201MOL0     O27001   9.423   6.487   8.903 -0.1438  0.0634  0.0593
  201MOL0     C27002   9.366   6.532   9.001 -0.0766 -1.2453  0.6309
  201MOL0     O27003   9.394   6.649   9.061 -0.4923 -0.0939  0.5854
  201MOL0     C27004   9.483   6.734   9.005 -0.0521 -1.3118  0.1563
  201MOL0     C27005   9.603   6.755   9.066 -1.0462  0.3906  0.4841
  201MOL0     C27006   9.690   6.856   9.021  0.4356 -0.3872  0.2656
  201MOL0     C27007   9.657   6.948   8.924  0.1976 -0.7039  0.1394
  201MOL0     O27008   9.759   7.036   8.899 -0.1839  0.2068  0.7557
  201MOL0     C27009   9.758   7.123   8.778  0.0553 -1.0963  0.1019
  201MOL0     C27010   9.871   7.224   8.782  0.9031  0.4351 -1.5193
  201MOL0     C27011   9.928   7.253   8.644  0.6935  0.6695 -0.5797
  201MOL0     C27012  10.052   7.170   8.624  0.4454 -0.5546  0.0337
  201MOL0     C27013  10.109   7.169   8.489 -0.3648  0.1328  0.3330
  201MOL0     C27014  10.141   7.303   8.423 -0.6207 -0.2694 -0.3319
  201MOL0     C27015  10.213   7.286   8.284  0.0170  1.1900 -0.0114
  201MOL0     C27016  10.295   7.405   8.238  0.5288 -0.2499 -1.2544
  201MOL0     N27017  10.201   7.505   8.207  0.3518 -1.1847 -0.3448
  201MOL0     C27018  10.187   7.622   8.287  0.4733 -0.4384 -0.0759
  201MOL0     C27019  10.152   7.719   8.201 -0.0600  0.4851  0.8585
  201MOL0     C27020  10.137   7.865   8.233 -0.5756  0.1889  0.2751
  201MOL0     C27021  10.214   7.944   8.131  0.0688  0.0092 -0.8169
  201MOL0     C27022  10.366   7.954   8.159 -0.9691 -0.6542 -0.9069
  201MOL0     C27023  10.425   8.100   8.184 -0.0323  0.6793 -0.0247
  201MOL0     O27024  10.565   8.102   8.137 -0.4022 -0.2556 -0.4903
  201MOL0     C27025  10.590   8.130   8.003  0.5401 -0.0940  0.6605
  201MOL0     C27026  10.491   8.133   7.899  0.1998  0.0876 -0.2895
  201MOL0     C27027  10.522   8.178   7.768 -0.2943  0.7427  0.0114
  201MOL0     C27028  10.447   8.139   7.647  0.5664 -0.1569  0.1798
  201MOL0     C27029  10.654   8.243   7.748  0.3008 -0.1394  0.6413
  201MOL0     C27030  10.693   8.293   7.619 -0.2494 -0.2043 -0.7267
  201MOL0     O27031  10.716   8.209   7.522  0.7673 -0.2015  0.2079
  201MOL0     C27032  10.798   8.246   7.412  0.8437 -0.4300 -0.1405
  201MOL0     C27033  10.851   8.142   7.346 -0.3510  0.3797 -0.2729
  201MOL0     C27034  10.927   8.156   7.226  0.7599  0.2751 -0.7864
  201MOL0     C27035  10.952   8.286   7.178 -0.6418  0.0447 -0.1232
  201MOL0     O27036  11.048   8.308   7.085 -0.0386  0.2365 -0.1822
  201MOL0     C27037  11.008   8.399   6.981 -0.6073 -0.0278 -0.6091
  201MOL0     C27038  11.121   8.411   6.883  0.2482 -0.7028 -0.1615
  201MOL0     C27039  11.230   8.476   6.952 -0.3256 -0.5190  0.1606
  201MOL0     C27040  11.299   8.583   6.861 -0.1136  0.2188 -0.0332
  201MOL0     C27041  11.421   8.654   6.933  0.6054  0.2189 -0.6268
  201MOL0     C27042  11.436   8.780   6.858  0.6699 -0.6333  0.3268
  201MOL0     C27043  11.590   8.822   6.887 -1.1159  0.4012  0.2340
  201MOL0     C27044  11.608   8.929   6.989  0.0625 -0.8798 -0.5887
  201MOL0    Cl27045  11.777   8.995   6.969 -0.5667  0.5506 -0.1771
  201MOL0     C27046  10.912   8.389   7.262  0.3255  0.3668 -0.1453
  201MOL0     C27047  10.823   8.371   7.363  0.1899 -0.0460 -0.2331
  201MOL0     O27048  10.716   8.413   7.611  0.0930 -0.2544  0.1122
  201MOL0     C27049  10.738   8.253   7.859  0.1169  0.0600 -0.3978
  201MOL0     C27050  10.709   8.185   7.978  0.4675 -0.5224  0.0760
  201MOL0     N27051  10.142   7.661   8.076  0.1818  0.1135  0.2202
  201MOL0     N27052  10.159   7.539   8.082  0.1746 -0.1233 -0.5821
  201MOL0     C27053   9.542   6.915   8.851 -0.6408 -0.2580 -0.1374
  201MOL0     C27054   9.453   6.817   8.896 -0.3411 -0.5061 -0.7074
  201MOL0     C27055   9.246   6.462   9.040 -0.0620 -0.2000  0.3317
  201MOL0     C27056   9.198   6.473   9.177  0.2622  0.0806  0.3116
  201MOL0     C27057   9.088   6.399   9.221 -0.8646 -0.3020 -0.6089
  201MOL0     C27058   9.021   6.317   9.130 -0.0002  0.8840 -0.7146
  201MOL0     O27059   8.913   6.244   9.168 -0.0667 -0.0054  0.6819
  201MOL0     C27060   8.788   6.300   9.210 -0.3553  1.5673  0.4004
  201MOL0     C27061   8.723   6.332   9.085  0.1725 -1.2431 -0.7623
  201MOL0     C27062   8.669   6.217   8.997 -0.9596  0.6350  0.4423
  201MOL0     C27063   8.574   6.254   8.886  0.5197  0.0227  1.9665
  201MOL0     C27064   8.452   6.313   8.947  0.0544  0.2531  1.1107
  201MOL0     C27065   8.351   6.330   9.011 -0.2494  0.7503  0.0816
  201MOL0     C27066   9.062   6.306   8.996 -0.7322  1.1032 -0.8522
  201MOL0     C27067   9.170   6.373   8.955 -0.7217 -0.7777 -0.9315
  201MOL0     H27068   9.629   6.691   9.150 -0.8453 -0.9971 -0.6092
  201MOL0     H27069   9.789   6.868   9.065  0.4781  0.7851 -0.1083
  201MOL0     H27070   9.766   7.056   8.692  1.7884  0.0670 -0.6933
  201MOL0     H27071   9.659   7.169   8.769 -2.0711 -5.2216  0.2626
  201MOL0     H27072   9.826   7.308   8.835 -0.3041 -2.0897  1.7778
  201MOL0     H27073   9.959   7.212   8.847 -0.1379  2.9239  0.4984
  201MOL0     H27074   9.855   7.225   8.567  0.9672 -0.7850 -0.3471
  201MOL0     H27075   9.953   7.359   8.650 -0.4237  0.8809  0.8094
  201MOL0     H27076  10.126   7.208   8.695  0.5460  1.9675 -1.3201
  201MOL0     H27077  10.038   7.069   8.662  1.9446 -0.8545 -0.1520
  201MOL0     H27078  10.196   7.104   8.497  1.1663  1.5239 -3.0414
  201MOL0     H27079  10.033   7.120   8.427  1.3781 -1.2406 -0.8245
  201MOL0     H27080  10.050   7.361   8.409 -0.2391 -0.3372 -4.1421
  201MOL0     H27081  10.204   7.360   8.493  1.9785 -0.3214 -2.4532
  201MOL0     H27082  10.283   7.202   8.281 -0.2146  1.0061 -0.4939
  201MOL0     H27083  10.143   7.247   8.210 -0.0997  2.5835 -0.6630
  201MOL0     H27084  10.360   7.396   8.151  3.1008  0.6723  0.4481
  201MOL0     H27085  10.351   7.437   8.327  1.1416 -1.2026 -1.2748
  201MOL0     H27086  10.205   7.626   8.394  3.2608  1.2720 -0.5107
  201MOL0     H27087  10.031   7.893   8.225 -0.6468 -0.6608 -5.0540
  201MOL0     H27088  10.179   7.884   8.332  0.9318 -3.5248  0.4925
  201MOL0     H27089  10.176   8.046   8.138  4.3930  1.8466 -0.8313
  201MOL0     H27090  10.192   7.912   8.029 -1.0351 -2.6839  0.1758
  201MOL0     H27091  10.425   7.910   8.079 -1.3344  0.6823 -1.9566
  201MOL0     H27092  10.394   7.891   8.244 -2.6174 -0.3803 -0.1092
  201MOL0     H27093  10.432   8.119   8.291 -1.4811  0.4299  0.1302
  201MOL0     H27094  10.362   8.177   8.139  2.0510  3.7231  1.8983
  201MOL0     H27095  10.398   8.079   7.913 -0.1744  0.9599  0.6737
  201MOL0     H27096  10.488   8.054   7.592 -0.2978  0.9933 -2.4337
  201MOL0     H27097  10.345   8.113   7.677 -0.1935  1.9723 -0.3434
  201MOL0     H27098  10.442   8.222   7.575  2.1784  0.1262  0.3667
  201MOL0     H27099  10.825   8.043   7.381 -2.9278  0.6238 -1.3074
  201MOL0     H27100  10.968   8.074   7.168 -0.3470 -1.3208  0.6039
  201MOL0     H27101  10.922   8.349   6.936 -1.6821  0.0324  1.2726
  201MOL0     H27102  10.979   8.499   7.016 -0.7157 -1.1464  2.9475
  201MOL0     H27103  11.140   8.311   6.843 -1.8491 -0.4385 -2.0119
  201MOL0     H27104  11.079   8.468   6.799 -4.0180 -2.4845  0.4973
  201MOL0     H27105  11.286   8.383   6.966 -2.6207 -2.4276 -2.2997
  201MOL0     H27106  11.204   8.530   7.044 -1.7198  2.3321 -1.7988
  201MOL0     H27107  11.343   8.539   6.771  0.5816  1.3982 -0.2908
  201MOL0     H27108  11.220   8.656   6.837 -0.5459  0.3255  1.5709
  201MOL0     H27109  11.508   8.587   6.939 -0.9596 -2.0003 -1.4327
  201MOL0     H27110  11.389   8.677   7.035 -0.8606 -3.1749 -0.1509
  201MOL0     H27111  11.406   8.770   6.754  0.7407  0.7910  0.1508
  201MOL0     H27112  11.371   8.860   6.895  0.8932 -1.2961  2.2661
  201MOL0     H27113  11.639   8.839   6.791 -2.2356 -1.7068 -0.7787
  201MOL0     H27114  11.654   8.740   6.920  0.5024  0.4729 -2.4470
  201MOL0     H27115  11.587   8.889   7.088  2.9823 -1.7685 -0.2253
  201MOL0     H27116  11.528   9.000   6.967  0.5095 -0.1153  0.2051
  201MOL0     H27117  10.934   8.489   7.226 -1.6017 -0.1201 -2.9396
  201MOL0     H27118  10.778   8.464   7.397  2.6232  1.0546  0.2281
  201MOL0     H27119  10.835   8.300   7.847 -0.2608  0.6843 -1.0435
  201MOL0     H27120  10.782   8.189   8.058  0.0337  1.4180  0.4322
  201MOL0     H27121   9.542   6.969   8.757  0.6475  0.5073  0.2682
  201MOL0     H27122   9.373   6.782   8.831 -0.0387 -1.1808 -0.7174
  201MOL0     H27123   9.252   6.535   9.248 -1.9465 -0.0609  2.2590
  201MOL0     H27124   9.059   6.407   9.325  7.1631  5.0888  2.1663
  201MOL0     H27125   8.729   6.220   9.257  1.4014  0.3858  0.6784
  201MOL0     H27126   8.785   6.385   9.278 -0.6098 -0.7492  3.4997
  201MOL0     H27127   8.791   6.389   9.021  0.1715 -1.5894 -1.0707
  201MOL0     H27128   8.646   6.404   9.115  0.8632 -0.3746 -1.0370
  201MOL0     H27129   8.633   6.146   9.072  3.1105  0.4447  2.4295
  201MOL0     H27130   8.757   6.170   8.953 -1.9510 -0.5173 -0.4127
  201MOL0     H27131   8.550   6.163   8.830 -0.2163  1.5745 -0.3718
  201MOL0     H27132   8.626   6.328   8.824 -2.5498 -0.8446 -2.0337
  201MOL0     H27133   8.260   6.334   9.069  0.9240 -0.7112  2.1743
  201MOL0     H27134   9.010   6.242   8.926  0.9450 -0.4175 -0.8056
  201MOL0     H27135   9.198   6.357   8.851  1.5076 -0.4027 -0.4440
  202MOL0     O27136   8.154   7.266   2.276  0.2465  0.7544 -0.3671
  202MOL0     C27137   8.036   7.293   2.238 -0.8277  0.3709 -0.3360
  202MOL0     O27138   7.924   7.222   2.270  0.2802 -0.2998 -0.4852
  202MOL0     C27139   7.930   7.089   2.310 -0.3462 -0.4496  0.6550
  202MOL0     C27140   7.884   6.986   2.227  0.6308  0.3137 -0.2178
  202MOL0     C27141   7.882   6.852   2.267  0.0043 -0.4518 -0.3244
  202MOL0     C27142   7.928   6.810   2.397  0.4105 -0.6254 -0.0123
  202MOL0     O27143   7.922   6.671   2.426  0.5105 -0.6918  0.7747
  202MOL0     C27144   8.026   6.621   2.509 -0.5138 -0.0423  0.1733
  202MOL0     C27145   8.110   6.505   2.449 -0.6481  0.4564 -0.4574
  202MOL0     C27146   8.229   6.489   2.544  0.2761  0.0239 -0.9111
  202MOL0     C27147   8.339   6.400   2.501  0.0276  0.1815  0.6948
  202MOL0     C27148   8.444   6.378   2.612 -0.2988 -0.9353  0.0519
  202MOL0     C27149   8.573   6.308   2.577 -0.7651  0.7900 -0.6571
  202MOL0     C27150   8.544   6.179   2.506  0.1429 -0.4900 -0.8940
  202MOL0     C27151   8.676   6.102   2.481 -0.3411 -0.2306  0.0949
  202MOL0     N27152   8.767   6.163   2.383 -0.4983 -0.1149  0.5034
  202MOL0     C27153   8.756   6.173   2.248 -0.1766 -0.2554  0.4416
  202MOL0     C27154   8.884   6.203   2.203 -0.0715 -0.2167  0.5195
  202MOL0     C27155   8.911   6.218   2.057 -0.1936 -0.3448 -0.1750
  202MOL0     C27156   8.965   6.085   2.007 -0.0385 -0.8389 -1.3718
  202MOL0     C27157   8.976   6.085   1.855  0.3412 -0.2843 -0.2736
  202MOL0     C27158   9.116   6.139   1.817  0.1747  0.6962 -0.3529
  202MOL0     O27159   9.119   6.286   1.832 -0.3716  0.1215 -0.1925
  202MOL0     C27160   9.235   6.356   1.801 -0.3044 -0.3096  0.1472
  202MOL0     C27161   9.227   6.491   1.817  0.2467 -0.3593  0.6234
  202MOL0     C27162   9.337   6.566   1.774  0.4269 -0.0289 -0.1877
  202MOL0     C27163   9.314   6.710   1.793  0.8035 -1.3361 -1.0733
  202MOL0     C27164   9.452   6.508   1.732 -0.8115  0.1452 -0.4068
  202MOL0     C27165   9.580   6.572   1.700 -0.1107  0.4692 -0.0015
  202MOL0     O27166   9.664   6.503   1.616  0.3331  0.1334 -0.3474
  202MOL0     C27167   9.790   6.551   1.584  0.1079 -0.7192  0.6594
  202MOL0     C27168   9.831   6.690   1.568  0.0516 -0.3936  0.1503
  202MOL0     C27169   9.959   6.720   1.529  0.7279 -0.2762 -0.4225
  202MOL0     C27170  10.056   6.628   1.512 -0.1278 -1.0554  0.7679
  202MOL0     O27171  10.187   6.657   1.484 -0.1433  0.0864  0.5406
  202MOL0     C27172  10.246   6.760   1.558 -0.4505 -0.8150 -0.8205
  202MOL0     C27173  10.390   6.774   1.500 -0.5499  0.7805 -0.6310
  202MOL0     C27174  10.447   6.913   1.495  0.5964  0.1621 -0.1684
  202MOL0     C27175  10.433   7.005   1.616  0.3107 -0.6382 -0.1331
  202MOL0     C27176  10.547   7.114   1.611 -0.8654 -0.7145 -0.8202
  202MOL0     C27177  10.549   7.215   1.726 -0.9967  0.2407 -0.0754
  202MOL0     C27178  10.425   7.306   1.722 -0.4463  0.5884  0.8109
  202MOL0     C27179  10.458   7.430   1.801 -0.4667 -0.6449  0.5262
  202MOL0    Cl27180  10.492   7.399   1.970  0.1907  0.1069  0.0951
  202MOL0     C27181  10.026   6.495   1.527  0.3443 -0.1601 -0.1113
  202MOL0     C27182   9.893   6.458   1.567  1.1561 -0.2286 -0.0235
  202MOL0     O27183   9.612   6.679   1.757  0.3538 -0.0165 -0.5711
  202MOL0     C27184   9.451   6.371   1.714 -0.5732  0.6174  0.0092
  202MOL0     C27185   9.343   6.294   1.756 -0.2078  0.2065  0.7628
  202MOL0     N27186   8.960   6.224   2.308 -0.7227  0.1013  0.4449
  202MOL0     N27187   8.895   6.211   2.420  0.1243  0.7407 -0.4452
  202MOL0     C27188   7.982   6.917   2.481  0.4681 -0.5772  0.1739
  202MOL0     C27189   7.979   7.048   2.434  0.0065 -0.3965 -0.2164
  202MOL0     C27190   7.999   7.422   2.166 -0.3072  1.2533 -0.0096
  202MOL0     C27191   7.871   7.452   2.116 -0.8521 -0.4309  0.0171
  202MOL0     C27192   7.841   7.573   2.044  0.2847 -0.2686  0.6976
  202MOL0     C27193   7.947   7.662   2.011  0.1995  0.7231 -0.2951
  202MOL0     O27194   7.930   7.785   1.954 -0.0599 -0.1202  0.7953
  202MOL0     C27195   7.819   7.800   1.858  0.6283  0.0364 -0.6588
  202MOL0     C27196   7.831   7.918   1.758 -0.2664  1.0951  0.0369
  202MOL0     C27197   7.784   8.045   1.829  0.5238 -0.2379 -0.7763
  202MOL0     C27198   7.801   8.165   1.742 -0.5166  0.9396  0.2511
  202MOL0     C27199   7.713   8.271   1.798 -0.6009  0.2752 -0.4155
  202MOL0     C27200   7.627   8.338   1.857 -0.0572  0.5551  0.8569
  202MOL0     C27201   8.075   7.627   2.053  0.8985  0.8739  1.0475
  202MOL0     C27202   8.101   7.515   2.133 -0.3507  0.5344 -0.1251
  202MOL0     H27203   7.840   7.014   2.132 -0.1936 -1.3619 -0.3730
  202MOL0     H27204   7.842   6.775   2.202 -2.2505  0.8056 -0.5039
  202MOL0     H27205   8.086   6.707   2.540 -2.3347  0.3971  2.7397
  202MOL0     H27206   7.990   6.590   2.607  2.6619 -0.4676  1.3185
  202MOL0     H27207   8.045   6.417   2.452 -2.1774  1.4632 -1.9269
  202MOL0     H27208   8.146   6.517   2.346 -0.7463  0.4631 -0.4909
  202MOL0     H27209   8.263   6.590   2.566 -2.6639  0.4330  2.9717
  202MOL0     H27210   8.190   6.443   2.635  0.1216  0.8457 -0.5537
  202MOL0     H27211   8.305   6.307   2.454  0.0368  0.6631 -0.2923
  202MOL0     H27212   8.386   6.448   2.415 -0.6921  0.2352  0.3227
  202MOL0     H27213   8.469   6.482   2.631 -1.5546 -0.5591 -0.2485
  202MOL0     H27214   8.391   6.333   2.696 -1.0853  0.8684  0.5612
  202MOL0     H27215   8.619   6.377   2.506 -1.4070  4.1114  1.9410
  202MOL0     H27216   8.629   6.290   2.669  0.9208  2.3251 -1.3346
  202MOL0     H27217   8.477   6.122   2.571 -4.3124  2.8759 -2.0541
  202MOL0     H27218   8.494   6.199   2.411  0.6783  3.0253 -0.5928
  202MOL0     H27219   8.660   6.006   2.430 -1.2158  0.6266 -1.3270
  202MOL0     H27220   8.736   6.080   2.570  2.0195 -1.4820 -1.6899
  202MOL0     H27221   8.666   6.185   2.187  0.5545  2.3779 -0.2437
  202MOL0     H27222   8.831   6.266   2.000 -1.0271 -2.4086 -0.8165
  202MOL0     H27223   8.994   6.288   2.043 -1.4707  1.1594 -0.5673
  202MOL0     H27224   8.898   6.007   2.043  0.5036 -0.6088  0.2332
  202MOL0     H27225   9.056   6.075   2.067 -0.5337  2.3958  0.1377
  202MOL0     H27226   8.894   6.129   1.798 -0.0037 -0.9385 -0.2960
  202MOL0     H27227   8.976   5.980   1.821 -0.5053  0.5689 -3.1975
  202MOL0     H27228   9.127   6.109   1.712 -5.1711 -0.8965 -0.7603
  202MOL0     H27229   9.201   6.098   1.873 -0.8160 -3.2134 -1.4720
  202MOL0     H27230   9.139   6.544   1.853 -1.3498 -1.5528 -1.3401
  202MOL0     H27231   9.410   6.757   1.819 -0.1935  1.3195 -1.8847
  202MOL0     H27232   9.272   6.763   1.707 -2.8088 -2.3792 -0.1196
  202MOL0     H27233   9.236   6.730   1.866  0.1050  1.1831 -2.3730
  202MOL0     H27234   9.760   6.772   1.573  1.4823  0.8701  0.3506
  202MOL0     H27235   9.997   6.822   1.531 -0.0900  0.0368  0.4502
  202MOL0     H27236  10.191   6.854   1.548 -1.0304 -0.9337  1.0049
  202MOL0     H27237  10.263   6.738   1.664 -0.6236  2.0362 -0.1095
  202MOL0     H27238  10.449   6.714   1.570  1.6532  4.4676  0.9681
  202MOL0     H27239  10.394   6.731   1.400  0.9300  1.9883 -1.1378
  202MOL0     H27240  10.387   6.964   1.419  2.4880 -0.4824 -2.1763
  202MOL0     H27241  10.547   6.909   1.449 -0.1751  1.4212 -2.0662
  202MOL0     H27242  10.331   7.044   1.616  0.5123 -0.0469  1.2386
  202MOL0     H27243  10.429   6.952   1.711 -3.4769  3.1273  2.1800
  202MOL0     H27244  10.551   7.174   1.519  0.0741  2.1896  0.9558
  202MOL0     H27245  10.641   7.058   1.620 -0.6901 -0.1009  2.7295
  202MOL0     H27246  10.556   7.173   1.826 -0.7981  0.4150 -0.0133
  202MOL0     H27247  10.631   7.287   1.717  1.5499 -2.2250  1.5476
  202MOL0     H27248  10.342   7.255   1.771 -1.8372  1.9454 -0.0404
  202MOL0     H27249  10.404   7.330   1.618  1.0366 -1.2153  0.0397
  202MOL0     H27250  10.380   7.507   1.787 -0.5081 -0.5837  1.0622
  202MOL0     H27251  10.548   7.473   1.757 -2.5803  0.7411 -2.8576
  202MOL0     H27252  10.092   6.417   1.491  0.3185  0.2041 -0.9664
  202MOL0     H27253   9.871   6.352   1.576 -0.0256  0.1384  1.9257
  202MOL0     H27254   9.539   6.321   1.676 -2.3367 -0.4866 -2.9633
  202MOL0     H27255   9.360   6.188   1.738 -0.3636  0.2931  0.1120
  202MOL0     H27256   8.002   6.892   2.585  0.7664 -0.7499  0.0739
  202MOL0     H27257   8.028   7.126   2.492 -0.5375  0.2951 -0.6775
  202MOL0     H27258   7.801   7.368   2.118 -0.4153 -0.9896 -3.0296
  202MOL0     H27259   7.739   7.592   2.010  0.6962  1.6263  0.4099
  202MOL0     H27260   7.806   7.708   1.801  2.0221 -0.2511 -0.5395
  202MOL0     H27261   7.729   7.811   1.919  0.9547 -0.8475  0.0027
  202MOL0     H27262   7.760   7.904   1.676  1.8729 -0.1135 -1.7424
  202MOL0     H27263   7.926   7.924   1.704 -0.0541  0.6254  0.3451
  202MOL0     H27264   7.829   8.047   1.929  2.0332  2.1748 -1.4222
  202MOL0     H27265   7.677   8.034   1.850  0.7418 -3.5436 -0.8663
  202MOL0     H27266   7.760   8.131   1.646 -1.1206 -0.5589  1.0136
  202MOL0     H27267   7.908   8.183   1.730 -0.0166 -2.5973 -2.0301
  202MOL0     H27268   7.553   8.405   1.894 -1.7228 -1.0413  0.5584
  202MOL0     H27269   8.155   7.697   2.028  0.6438  1.5983  2.1801
  202MOL0     H27270   8.203   7.509   2.170 -0.6929 -1.2113  0.6461
  203MOL0     O27271   8.538   4.939   8.773  1.1031  0.2197  0.1190
  203MOL0     C27272   8.418   4.927   8.783  0.2517 -0.5014  0.6048
  203MOL0     O27273   8.335   4.980   8.879 -0.3934 -0.4836  0.5806
  203MOL0     C27274   8.374   5.084   8.957 -0.0251  0.4590  0.2954
  203MOL0     C27275   8.481   5.177   8.928  0.4692 -0.6385  0.5184
  203MOL0     C27276   8.497   5.274   9.032 -0.1116 -0.3484  0.6227
  203MOL0     C27277   8.421   5.279   9.147 -0.3093  0.3195 -0.0955
  203MOL0     O27278   8.444   5.382   9.231  0.1807  0.0939 -1.1300
  203MOL0     C27279   8.444   5.345   9.365  0.4704  0.0398  0.0961
  203MOL0     C27280   8.516   5.452   9.445  0.2003 -0.9071  0.0742
  203MOL0     C27281   8.666   5.432   9.452 -0.9397 -0.3048  0.8756
  203MOL0     C27282   8.745   5.526   9.542 -0.8902  0.2247 -0.2847
  203MOL0     C27283   8.894   5.542   9.492  0.6152  0.6031  0.2475
  203MOL0     C27284   8.983   5.575   9.611  0.1777  0.4198 -0.4945
  203MOL0     C27285   8.956   5.712   9.682  0.5969  0.9743 -1.0607
  203MOL0     C27286   9.056   5.764   9.795 -0.2486  0.2682 -0.4319
  203MOL0     N27287   9.192   5.753   9.746  0.7378  0.7720 -0.0129
  203MOL0     C27288   9.261   5.634   9.757  0.3688 -0.3173 -0.4565
  203MOL0     C27289   9.377   5.656   9.685 -0.4919 -0.6507  0.1459
  203MOL0     C27290   9.491   5.557   9.663  0.0368  0.3512 -0.5800
  203MOL0     C27291   9.629   5.617   9.688 -0.7508 -0.7860 -0.1917
  203MOL0     C27292   9.748   5.527   9.682 -0.0512 -0.2033 -0.3972
  203MOL0     C27293   9.874   5.612   9.695  0.1644 -0.6304  0.4799
  203MOL0     O27294  10.000   5.546   9.702  0.3346  0.1058 -0.6653
  203MOL0     C27295  10.035   5.471   9.598 -0.1401  1.3903 -0.0426
  203MOL0     C27296   9.999   5.504   9.470 -0.5897  0.0812  1.0510
  203MOL0     C27297  10.071   5.442   9.353 -0.2193  0.4549 -1.1828
  203MOL0     C27298  10.021   5.477   9.217 -0.3701 -0.3282  0.1488
  203MOL0     C27299  10.176   5.346   9.379 -0.2002  0.3526 -0.1888
  203MOL0     C27300  10.262   5.284   9.274 -0.5500 -0.4961 -0.2395
  203MOL0     O27301  10.274   5.340   9.156  0.0908  0.1069  0.0338
  203MOL0     C27302  10.345   5.274   9.054 -0.2416  0.5229  0.8511
  203MOL0     C27303  10.471   5.333   9.005 -0.2025  0.5307  0.6539
  203MOL0     C27304  10.535   5.274   8.890 -0.2383 -0.3276  0.2823
  203MOL0     C27305  10.492   5.145   8.839  0.8636  0.0949  0.0080
  203MOL0     O27306  10.569   5.075   8.748 -0.3035 -0.0956  0.5847
  203MOL0     C27307  10.623   5.157   8.640 -0.6053  0.5778  0.0183
  203MOL0     C27308  10.729   5.065   8.574 -0.7511  0.0425 -1.0590
  203MOL0     C27309  10.668   4.939   8.506 -0.2617 -0.3805  0.4568
  203MOL0     C27310  10.779   4.853   8.442  0.0752  0.0846 -0.4314
  203MOL0     C27311  10.706   4.731   8.369 -0.5870  0.0381 -0.4650
  203MOL0     C27312  10.781   4.672   8.247  0.4059 -0.0530  0.1108
  203MOL0     C27313  10.724   4.538   8.189 -0.4159 -0.2210  0.0480
  203MOL0     C27314  10.778   4.515   8.041 -0.5708 -0.7722  0.5842
  203MOL0    Cl27315  10.950   4.495   8.043 -0.2134  0.0976 -0.3055
  203MOL0     C27316  10.364   5.097   8.888 -0.4784 -1.0822  0.8070
  203MOL0     C27317  10.300   5.160   8.991  0.4551  0.2733  0.3130
  203MOL0     O27318  10.325   5.185   9.306 -0.4104  0.7504  0.2162
  203MOL0     C27319  10.192   5.306   9.518 -0.3081  0.7307  0.8551
  203MOL0     C27320  10.120   5.363   9.624 -1.0207  0.1991  0.4062
  203MOL0     N27321   9.373   5.784   9.629  0.8464 -0.3231  0.0516
  203MOL0     N27322   9.255   5.837   9.661 -0.4747 -0.0447 -1.1769
  203MOL0     C27323   8.318   5.182   9.174 -0.2467 -1.5024  0.9351
  203MOL0     C27324   8.292   5.094   9.072 -0.2059  0.3024 -0.1803
  203MOL0     C27325   8.355   4.840   8.677  1.2899 -1.1459 -0.0492
  203MOL0     C27326   8.423   4.744   8.607 -0.0656 -0.4950 -0.0674
  203MOL0     C27327   8.366   4.664   8.511  0.2238  0.8151 -0.9982
  203MOL0     C27328   8.228   4.679   8.480 -0.6575 -0.4040 -0.2502
  203MOL0     O27329   8.156   4.599   8.398  0.8753 -0.0090  0.1771
  203MOL0     C27330   8.232   4.490   8.338 -0.1854 -0.5048  0.8974
  203MOL0     C27331   8.157   4.412   8.227 -0.5835  0.0155 -0.0227
  203MOL0     C27332   8.055   4.307   8.276 -0.1702 -0.4250  0.5755
  203MOL0     C27333   7.995   4.227   8.157  0.4495  0.5147 -0.5913
  203MOL0     C27334   7.933   4.320   8.067  0.1459 -0.2020  0.5763
  203MOL0     C27335   7.886   4.398   7.992  0.3612 -0.4934 -0.3934
  203MOL0     C27336   8.163   4.776   8.548 -0.3421 -0.0647 -0.0125
  203MOL0     C27337   8.216   4.866   8.641 -0.5163 -0.7465 -0.3907
  203MOL0     H27338   8.541   5.171   8.838  1.8232 -1.3988  1.4343
  203MOL0     H27339   8.561   5.361   9.015 -2.6871  2.0538  2.4015
  203MOL0     H27340   8.341   5.349   9.401  0.7715  3.5001  0.9759
  203MOL0     H27341   8.480   5.242   9.371 -0.4922 -0.7028 -3.8757
  203MOL0     H27342   8.494   5.543   9.389  1.1437 -0.0465  1.0611
  203MOL0     H27343   8.463   5.446   9.541  1.0309 -1.4882  0.5116
  203MOL0     H27344   8.690   5.338   9.502  3.7507 -1.1062 -2.2763
  203MOL0     H27345   8.700   5.441   9.349 -1.5031  3.0533  0.8519
  203MOL0     H27346   8.688   5.619   9.535  0.7185  1.4918  2.0429
  203MOL0     H27347   8.742   5.502   9.649  1.7978 -1.8998 -0.5812
  203MOL0     H27348   8.929   5.449   9.447 -1.9429 -0.3312  0.0296
  203MOL0     H27349   8.886   5.607   9.404 -3.5630 -2.8370 -2.2934
  203MOL0     H27350   8.971   5.491   9.681  2.7563  1.3192  1.1603
  203MOL0     H27351   9.088   5.573   9.582  0.9978 -1.1637  2.1896
  203MOL0     H27352   8.945   5.792   9.608 -2.2310  1.3764 -0.3268
  203MOL0     H27353   8.865   5.690   9.738  0.7720  0.9867 -0.7692
  203MOL0     H27354   9.059   5.698   9.883 -1.1317  0.3007 -0.3693
  203MOL0     H27355   9.038   5.868   9.825 -2.8443  1.0290 -3.9984
  203MOL0     H27356   9.239   5.551   9.823  0.5858  1.1338  1.5433
  203MOL0     H27357   9.471   5.477   9.735 -2.3335  1.7983  0.4967
  203MOL0     H27358   9.490   5.528   9.558  0.1793  2.9148 -1.3538
  203MOL0     H27359   9.628   5.683   9.775 -0.0427  0.7759 -1.3100
  203MOL0     H27360   9.645   5.680   9.599 -5.6657  0.6040 -0.4066
  203MOL0     H27361   9.754   5.463   9.594 -2.5804  0.0348 -0.8250
  203MOL0     H27362   9.745   5.464   9.772 -0.2259  2.3521  1.5137
  203MOL0     H27363   9.865   5.673   9.785 -2.3140  0.3326 -0.3066
  203MOL0     H27364   9.865   5.680   9.609  1.3458 -0.6927  0.2905
  203MOL0     H27365   9.922   5.575   9.442 -1.8405 -1.4316  0.5641
  203MOL0     H27366  10.018   5.396   9.143 -0.3283 -1.0272  0.8961
  203MOL0     H27367   9.918   5.515   9.221 -0.7968 -1.3186 -0.7927
  203MOL0     H27368  10.075   5.558   9.167 -3.4946  1.7786 -0.1160
  203MOL0     H27369  10.499   5.436   9.023 -0.3251  0.8905 -1.0369
  203MOL0     H27370  10.626   5.329   8.868 -0.7239  1.7192  2.8941
  203MOL0     H27371  10.547   5.187   8.568 -0.1731 -1.8626 -1.5948
  203MOL0     H27372  10.691   5.234   8.677  0.0866  1.2808 -2.5150
  203MOL0     H27373  10.793   5.131   8.515 -1.4642  2.3933  0.6776
  203MOL0     H27374  10.781   5.017   8.657 -3.1072  0.3161  0.6659
  203MOL0     H27375  10.597   4.988   8.438  0.0692  1.4371  1.3674
  203MOL0     H27376  10.608   4.884   8.578  0.5573  1.0759  2.3419
  203MOL0     H27377  10.843   4.913   8.377 -1.4615  0.5382 -1.5640
  203MOL0     H27378  10.846   4.806   8.515 -0.2809 -2.4688 -1.6408
  203MOL0     H27379  10.603   4.759   8.344 -0.8840  0.2895  0.9282
  203MOL0     H27380  10.697   4.654   8.447 -0.8138 -1.7504 -2.1921
  203MOL0     H27381  10.781   4.745   8.165 -0.3429  3.3087  2.8914
  203MOL0     H27382  10.887   4.661   8.275  1.1539  1.6093 -1.7919
  203MOL0     H27383  10.615   4.530   8.196 -0.3675 -3.5867 -1.3987
  203MOL0     H27384  10.759   4.453   8.248  6.5905  2.0156  0.0433
  203MOL0     H27385  10.757   4.600   7.976 -2.8685 -1.8116 -0.1286
  203MOL0     H27386  10.725   4.425   8.008 -3.9207  1.5001 -0.6745
  203MOL0     H27387  10.340   5.002   8.841  2.2261 -2.1588  1.4324
  203MOL0     H27388  10.210   5.110   9.026 -0.3012  1.4202  0.0643
  203MOL0     H27389  10.278   5.243   9.536 -0.6816 -0.3640 -0.9388
  203MOL0     H27390  10.161   5.327   9.718  0.5237  1.2061  0.1605
  203MOL0     H27391   8.256   5.183   9.263 -0.7060  2.2220  0.7283
  203MOL0     H27392   8.206   5.027   9.071 -0.0426  0.0887 -1.4231
  203MOL0     H27393   8.530   4.729   8.617 -0.3136 -1.8636  0.7672
  203MOL0     H27394   8.428   4.597   8.452  0.0748  1.4222 -1.8700
  203MOL0     H27395   8.321   4.537   8.294 -0.3199 -1.3807 -0.3840
  203MOL0     H27396   8.274   4.418   8.409 -0.2186 -1.4817 -0.0511
  203MOL0     H27397   8.230   4.354   8.170 -0.8322 -0.7178  0.4055
  203MOL0     H27398   8.114   4.486   8.159 -0.0181  1.2264  0.8830
  203MOL0     H27399   7.978   4.361   8.332  0.3359  1.9920 -0.8741
  203MOL0     H27400   8.105   4.236   8.342 -2.1053 -3.8521 -1.3891
  203MOL0     H27401   7.925   4.159   8.206 -1.8644  2.2316 -1.2977
  203MOL0     H27402   8.064   4.164   8.100 -3.0688 -0.7395 -3.8845
  203MOL0     H27403   7.819   4.463   7.940  0.8963 -0.1892 -0.7153
  203MOL0     H27404   8.055   4.780   8.532 -0.4469 -1.1820  0.2810
  203MOL0     H27405   8.161   4.942   8.694  0.6513 -1.2600  1.6486
  204MOL0     O27406   2.244   5.956   4.849  0.4201 -1.1524 -0.8018
  204MOL0     C27407   2.171   5.877   4.797 -0.2629  1.0129 -0.2197
  204MOL0     O27408   2.045   5.850   4.839 -0.6560 -0.1440 -0.1668
  204MOL0     C27409   1.994   5.911   4.945  0.6268  0.0102 -1.0925
  204MOL0     C27410   1.868   5.975   4.928 -0.4700 -0.0034 -0.0388
  204MOL0     C27411   1.806   6.040   5.036  0.6418 -0.0077  0.5177
  204MOL0     C27412   1.867   6.041   5.161  0.8514  0.0887 -0.6362
  204MOL0     O27413   1.801   6.101   5.268  0.7571 -0.1706 -0.5850
  204MOL0     C27414   1.872   6.121   5.387 -0.0029 -0.5841 -0.2478
  204MOL0     C27415   1.779   6.188   5.489 -0.3484  0.1014  0.7320
  204MOL0     C27416   1.720   6.328   5.439  0.0956  1.3219  0.6150
  204MOL0     C27417   1.649   6.419   5.550  0.3724  0.1903 -0.4675
  204MOL0     C27418   1.562   6.368   5.655  0.0490  0.3753 -0.8590
  204MOL0     C27419   1.425   6.325   5.588  0.1378 -0.4906 -0.3246
  204MOL0     C27420   1.352   6.257   5.688  0.6410 -0.1234 -0.3515
  204MOL0     C27421   1.219   6.191   5.636 -0.6822 -0.0992 -0.0141
  204MOL0     N27422   1.110   6.164   5.726 -0.3939 -0.3471  0.1638
  204MOL0     C27423   1.075   6.046   5.781  0.5181 -0.2362  0.0396
  204MOL0     C27424   0.972   6.074   5.864  0.4247  0.6638  0.1285
  204MOL0     C27425   0.878   5.973   5.930  0.4434  0.0770  0.4976
  204MOL0     C27426   0.869   6.011   6.080 -0.3809  0.6699 -0.3478
  204MOL0     C27427   0.803   5.892   6.156  0.3159  0.5077  0.1364
  204MOL0     C27428   0.770   5.922   6.302 -0.1275 -0.4717 -0.6923
  204MOL0     O27429   0.719   5.808   6.372  0.1673 -0.6407  0.1859
  204MOL0     C27430   0.654   5.834   6.489  0.9532 -0.4065  0.1264
  204MOL0     C27431   0.718   5.861   6.618 -0.0755  0.2926  0.3857
  204MOL0     C27432   0.652   5.909   6.728 -0.1787 -0.4205 -0.4500
  204MOL0     C27433   0.734   5.931   6.857 -0.1856  0.4842  0.2673
  204MOL0     C27434   0.507   5.903   6.731 -0.1226  0.2465  1.0217
  204MOL0     C27435   0.424   5.940   6.855  0.2122  0.5596 -0.2149
  204MOL0     O27436   0.297   5.885   6.851 -0.0579 -0.1544  0.1077
  204MOL0     C27437   0.214   5.914   6.954 -0.8265 -0.0460 -1.2770
  204MOL0     C27438   0.132   5.814   7.001 -0.4437  0.3455 -0.5049
  204MOL0     C27439   0.046   5.820   7.109  0.4145  0.1714  0.6120
  204MOL0     C27440   0.023   5.940   7.184  0.3700  1.1998 -0.1565
  204MOL0     O27441  -0.068   5.972   7.280 -0.6246 -1.1168 -0.4702
  204MOL0     C27442  -0.182   5.885   7.295 -0.6420 -0.4429 -0.3139
  204MOL0     C27443  -0.283   5.944   7.395  0.4723 -0.3132 -0.6973
  204MOL0     C27444  -0.250   5.927   7.543  1.2784  1.3448  0.3243
  204MOL0     C27445  -0.368   5.978   7.624 -0.5629  1.0691 -0.1542
  204MOL0     C27446  -0.350   5.977   7.775 -0.7714  0.2941 -0.9752
  204MOL0     C27447  -0.277   6.104   7.813 -0.2919 -0.4762 -0.4113
  204MOL0     C27448  -0.213   6.122   7.965 -0.1404  1.6333 -0.1973
  204MOL0     C27449  -0.295   6.084   8.087  0.6426 -0.1560  0.5397
  204MOL0    Cl27450  -0.458   6.140   8.050  0.3501  0.4065  0.8950
  204MOL0     C27451   0.103   6.039   7.137  0.1057  0.5011  0.5478
  204MOL0     C27452   0.202   6.035   7.028  0.0448 -0.5312  0.4164
  204MOL0     O27453   0.473   6.006   6.949 -0.1774  0.0857  0.6507
  204MOL0     C27454   0.438   5.866   6.614 -0.1386  0.9285  0.6377
  204MOL0     C27455   0.506   5.838   6.490  0.6914 -0.4555 -0.8177
  204MOL0     N27456   0.939   6.205   5.855 -0.0204 -0.3445 -0.0404
  204MOL0     N27457   1.025   6.263   5.782 -0.5846  0.4686  0.1929
  204MOL0     C27458   1.989   5.978   5.175 -0.9611  0.4323 -0.7619
  204MOL0     C27459   2.049   5.908   5.075  0.6219  0.6171 -0.5399
  204MOL0     C27460   2.222   5.796   4.686 -0.1010  0.3625  0.3661
  204MOL0     C27461   2.319   5.859   4.609  0.7205 -0.4780  0.1891
  204MOL0     C27462   2.365   5.787   4.498  0.6216  0.4896 -0.8499
  204MOL0     C27463   2.320   5.663   4.459  0.8465 -0.3532  0.0340
  204MOL0     O27464   2.379   5.610   4.347 -0.0450  0.4959 -0.7442
  204MOL0     C27465   2.335   5.479   4.284 -0.5223 -1.0853  0.3207
  204MOL0     C27466   2.371   5.352   4.366 -0.5361 -0.5620  0.2021
  204MOL0     C27467   2.272   5.238   4.344 -1.0527  0.1515 -0.7257
  204MOL0     C27468   2.313   5.105   4.408  0.0415  1.0017  0.6961
  204MOL0     C27469   2.224   4.994   4.374  1.3169  0.4052 -0.3072
  204MOL0     C27470   2.151   4.891   4.344 -0.5120 -0.1099  0.5663
  204MOL0     C27471   2.232   5.601   4.545  0.5170  0.5290 -1.0623
  204MOL0     C27472   2.182   5.671   4.659 -0.1796  0.2766 -0.0630
  204MOL0     H27473   1.821   5.984   4.830 -1.5534 -2.5520  0.1645
  204MOL0     H27474   1.704   6.074   5.022 -0.4577 -3.3730 -0.5740
  204MOL0     H27475   1.912   6.028   5.428  1.0518  0.3274  0.8670
  204MOL0     H27476   1.954   6.193   5.372  0.3976 -0.6178  1.5409
  204MOL0     H27477   1.699   6.116   5.511  1.2173 -1.4511  1.6214
  204MOL0     H27478   1.841   6.199   5.579  0.2616 -2.2716  0.6736
  204MOL0     H27479   1.801   6.387   5.395  0.0080  0.1863 -1.1623
  204MOL0     H27480   1.647   6.303   5.362  0.4660 -2.2555  1.2473
  204MOL0     H27481   1.741   6.459   5.595 -0.1373  0.7340  0.1194
  204MOL0     H27482   1.598   6.506   5.507  0.0712 -0.4609 -1.4326
  204MOL0     H27483   1.606   6.287   5.714  0.4015  0.9459 -0.3293
  204MOL0     H27484   1.532   6.443   5.729 -0.1928 -1.8475  1.4580
  204MOL0     H27485   1.376   6.413   5.546 -0.6148 -0.7613 -0.0392
  204MOL0     H27486   1.459   6.265   5.503  0.3384 -0.1684 -0.4736
  204MOL0     H27487   1.411   6.176   5.731  3.3246  1.6942 -0.3003
  204MOL0     H27488   1.320   6.333   5.760 -1.1485  2.6035 -3.7143
  204MOL0     H27489   1.245   6.090   5.602 -1.4599 -0.1122 -0.5954
  204MOL0     H27490   1.180   6.230   5.542  2.5308 -1.0449 -1.8744
  204MOL0     H27491   1.110   5.950   5.744  0.6196  0.2848 -1.2640
  204MOL0     H27492   0.782   5.983   5.880  0.8698  1.1182 -0.1310
  204MOL0     H27493   0.918   5.876   5.897 -1.7607 -0.5112 -0.6183
  204MOL0     H27494   0.808   6.099   6.101 -0.6946  0.1342  1.1121
  204MOL0     H27495   0.969   6.020   6.125 -1.2745 -0.4363  2.0433
  204MOL0     H27496   0.853   5.794   6.157 -0.9761 -0.1941  1.8889
  204MOL0     H27497   0.706   5.860   6.115  0.4162 -1.3039  1.1955
  204MOL0     H27498   0.707   6.012   6.301  2.0882  1.1429 -1.4428
  204MOL0     H27499   0.860   5.948   6.357 -0.7602 -1.6681  0.9820
  204MOL0     H27500   0.826   5.852   6.614 -0.1410 -1.0658  1.0831
  204MOL0     H27501   0.723   6.033   6.895 -1.7882 -0.0448  1.3084
  204MOL0     H27502   0.704   5.865   6.939 -2.1630  0.9856 -0.0076
  204MOL0     H27503   0.842   5.918   6.842 -0.0925  0.1340  1.2133
  204MOL0     H27504   0.140   5.733   6.930  2.5352  1.4376 -1.5668
  204MOL0     H27505  -0.017   5.733   7.127  1.7991 -1.2248 -0.9451
  204MOL0     H27506  -0.228   5.887   7.196 -2.4728 -2.7566  0.3890
  204MOL0     H27507  -0.157   5.781   7.317  0.4473  0.1057  1.2127
  204MOL0     H27508  -0.298   6.050   7.374  0.1403 -0.2107  0.0178
  204MOL0     H27509  -0.377   5.889   7.378  0.3853 -0.2126 -0.5438
  204MOL0     H27510  -0.157   5.980   7.565  1.3644  1.4395 -0.2498
  204MOL0     H27511  -0.222   5.822   7.547  1.7034  1.2537 -2.7088
  204MOL0     H27512  -0.387   6.079   7.586  0.3911  0.4755 -2.3366
  204MOL0     H27513  -0.459   5.922   7.600  0.2392 -2.5985  3.9412
  204MOL0     H27514  -0.312   5.879   7.805 -3.8821 -1.0768 -1.0362
  204MOL0     H27515  -0.445   5.993   7.827  0.2302 -1.4311  1.5880
  204MOL0     H27516  -0.181   6.104   7.761 -0.3611 -1.7184 -0.5849
  204MOL0     H27517  -0.339   6.189   7.784  3.1113  1.5683 -2.3475
  204MOL0     H27518  -0.196   6.229   7.982  2.3202  1.0141  1.7858
  204MOL0     H27519  -0.109   6.088   7.976 -0.0422  0.8761 -2.6977
  204MOL0     H27520  -0.260   6.136   8.176 -0.6161  0.6654  0.5808
  204MOL0     H27521  -0.314   5.977   8.102  0.4959 -0.1634  0.3118
  204MOL0     H27522   0.099   6.140   7.178  3.7727  1.2916 -0.6247
  204MOL0     H27523   0.257   6.122   6.992 -0.5791 -0.6640 -0.9305
  204MOL0     H27524   0.330   5.863   6.612 -0.1551 -0.1605  1.9929
  204MOL0     H27525   0.446   5.807   6.405 -0.5357 -2.3857  0.6841
  204MOL0     H27526   2.049   5.985   5.265 -2.3671  2.4667  0.0816
  204MOL0     H27527   2.140   5.854   5.096  1.1647  1.8487  0.3673
  204MOL0     H27528   2.348   5.962   4.627 -1.9437  0.6111 -1.2826
  204MOL0     H27529   2.457   5.824   4.453  1.5403  0.7856  1.1302
  204MOL0     H27530   2.227   5.485   4.273 -0.6073  1.1625  1.6967
  204MOL0     H27531   2.391   5.467   4.191  3.4809  1.0467  2.1735
  204MOL0     H27532   2.377   5.380   4.472  0.4967 -1.8642  0.5294
  204MOL0     H27533   2.467   5.305   4.340 -1.3717 -1.9024 -0.5381
  204MOL0     H27534   2.278   5.224   4.236 -0.0873  2.1922 -0.9944
  204MOL0     H27535   2.179   5.268   4.394 -0.2052 -0.3688  1.2862
  204MOL0     H27536   2.321   5.107   4.517 -2.2126 -1.7075  1.0144
  204MOL0     H27537   2.414   5.086   4.370  0.0987  3.0840 -0.3326
  204MOL0     H27538   2.087   4.809   4.321 -0.1828 -0.3843  0.6266
  204MOL0     H27539   2.189   5.508   4.508 -0.2775  1.0559 -1.4847
  204MOL0     H27540   2.099   5.637   4.720  0.1418 -0.5534 -0.0730
  205MOL0     O27541   3.877  10.075   3.363 -0.0030 -0.0656  0.3242
  205MOL0     C27542   3.895  10.123   3.472 -0.0364  0.6822 -1.1259
  205MOL0     O27543   3.855  10.248   3.509  0.2948  0.2709 -0.3887
  205MOL0     C27544   3.750  10.296   3.440  0.4026 -0.9175  0.3060
  205MOL0     C27545   3.751  10.431   3.417  0.0279  0.6754  0.6527
  205MOL0     C27546   3.642  10.496   3.351 -0.0402  0.1238 -0.1719
  205MOL0     C27547   3.529  10.429   3.315 -1.1534  0.0291  0.0755
  205MOL0     O27548   3.426  10.471   3.233  0.4176  0.2455 -0.3825
  205MOL0     C27549   3.406  10.606   3.191 -0.3040  0.3956 -0.9643
  205MOL0     C27550   3.348  10.698   3.299 -0.3990 -0.6358  0.2935
  205MOL0     C27551   3.203  10.676   3.359  0.6200 -0.5897  0.2262
  205MOL0     C27552   3.194  10.563   3.475  0.3364  0.0312 -0.4237
  205MOL0     C27553   3.059  10.546   3.541 -0.6464 -0.3889 -0.0423
  205MOL0     C27554   3.060  10.453   3.666  0.7009 -0.0695  0.6526
  205MOL0     C27555   3.109  10.304   3.625 -0.0873 -0.1520  0.2587
  205MOL0     C27556   3.138  10.229   3.759 -0.1473 -0.4457  0.9608
  205MOL0     N27557   3.192  10.102   3.712 -0.1420  0.6295 -0.7995
  205MOL0     C27558   3.124   9.994   3.668  0.1526  0.5151  0.1318
  205MOL0     C27559   3.224   9.909   3.628 -0.4450 -0.4800 -1.2742
  205MOL0     C27560   3.195   9.770   3.592  0.4228 -1.3035  0.4298
  205MOL0     C27561   3.328   9.695   3.589 -0.1187 -0.2597 -0.7326
  205MOL0     C27562   3.317   9.547   3.544  0.5932  0.7652 -0.1332
  205MOL0     C27563   3.442   9.483   3.522 -0.0870  0.3896  0.1550
  205MOL0     O27564   3.425   9.350   3.460 -0.2062  0.5096 -0.7287
  205MOL0     C27565   3.534   9.299   3.395 -0.4704  0.6631  0.2454
  205MOL0     C27566   3.577   9.359   3.280 -0.4179  0.4793  0.0489
  205MOL0     C27567   3.685   9.306   3.192  0.7888 -0.4855 -1.5753
  205MOL0     C27568   3.727   9.380   3.070  0.1637  0.0013  0.1818
  205MOL0     C27569   3.761   9.193   3.246 -0.1347 -0.1000  0.8959
  205MOL0     C27570   3.881   9.134   3.169  0.0685 -0.9112 -0.1460
  205MOL0     O27571   3.948   9.044   3.245  0.0284 -0.5236  0.3257
  205MOL0     C27572   4.075   8.996   3.212 -0.0954  0.0070  0.6270
  205MOL0     C27573   4.162   9.022   3.105 -0.0402  0.1907 -0.2862
  205MOL0     C27574   4.287   8.966   3.105 -0.0198 -0.0960  0.5607
  205MOL0     C27575   4.331   8.875   3.207  1.2214 -0.5824 -0.4593
  205MOL0     O27576   4.454   8.812   3.198  0.5110 -0.0248 -0.7551
  205MOL0     C27577   4.571   8.897   3.227 -0.2940  0.5871 -0.5536
  205MOL0     C27578   4.565   8.981   3.346  0.3407 -0.3837 -0.6060
  205MOL0     C27579   4.701   9.040   3.380  0.8608 -0.5051  0.1802
  205MOL0     C27580   4.709   9.091   3.523  1.2815 -0.5565 -0.8914
  205MOL0     C27581   4.853   9.111   3.568  0.0101  0.1908 -0.3376
  205MOL0     C27582   4.920   8.988   3.636  0.4159  0.9761 -0.7340
  205MOL0     C27583   5.064   9.002   3.710  0.4301  0.1690 -0.2015
  205MOL0     C27584   5.175   9.053   3.613 -0.3021 -0.4267 -0.1189
  205MOL0    Cl27585   5.196   8.949   3.471  0.4228  0.7254  0.2177
  205MOL0     C27586   4.243   8.846   3.304 -0.4940  0.3886 -1.5638
  205MOL0     C27587   4.114   8.908   3.311  0.1397  0.0833 -0.0860
  205MOL0     O27588   3.910   9.168   3.050 -0.9390  0.1354  0.4197
  205MOL0     C27589   3.721   9.148   3.372 -1.1326 -0.7824  0.3030
  205MOL0     C27590   3.607   9.192   3.438  0.2724  0.4543  0.3518
  205MOL0     N27591   3.349   9.960   3.639  1.1178  0.1095 -0.7330
  205MOL0     N27592   3.327  10.077   3.697  1.0903  0.3293  0.0811
  205MOL0     C27593   3.523  10.287   3.340 -0.2371 -0.2202  1.7397
  205MOL0     C27594   3.636  10.223   3.394 -0.9386 -0.4086  0.7215
  205MOL0     C27595   3.965  10.040   3.576  0.6963 -0.2625  0.1446
  205MOL0     C27596   3.981  10.087   3.699  0.1758  0.3598  0.3408
  205MOL0     C27597   4.050  10.013   3.798  0.9848 -0.0187  0.9846
  205MOL0     C27598   4.114   9.893   3.771  0.2088  0.2058  0.9301
  205MOL0     O27599   4.201   9.826   3.858  0.2830  0.0618  0.1925
  205MOL0     C27600   4.211   9.860   3.992 -0.9795 -0.7438 -0.0102
  205MOL0     C27601   4.312   9.777   4.074 -0.6348  0.8474  0.2905
  205MOL0     C27602   4.282   9.626   4.096 -0.4975 -0.5360  0.1815
  205MOL0     C27603   4.371   9.550   4.200  0.6935  0.2565  0.2301
  205MOL0     C27604   4.510   9.581   4.205 -1.0405  0.1205  0.1455
  205MOL0     C27605   4.631   9.607   4.212 -0.4244 -0.0828 -0.3728
  205MOL0     C27606   4.101   9.842   3.638  0.3114 -1.9705 -0.7641
  205MOL0     C27607   4.018   9.916   3.542 -0.1005  0.1919 -0.3828
  205MOL0     H27608   3.835  10.489   3.453  0.9302 -0.8506  1.0822
  205MOL0     H27609   3.655  10.603   3.344  2.0131  0.0629  1.6414
  205MOL0     H27610   3.506  10.641   3.162 -0.4981 -1.2324 -3.9538
  205MOL0     H27611   3.346  10.611   3.099  0.2077  1.1786 -1.2765
  205MOL0     H27612   3.422  10.710   3.379 -0.6310  1.4624  0.2370
  205MOL0     H27613   3.350  10.794   3.248  0.9772 -0.7516  0.0850
  205MOL0     H27614   3.160  10.767   3.402 -0.1873 -2.6475  4.2266
  205MOL0     H27615   3.136  10.649   3.277  1.2080 -2.2840  0.2650
  205MOL0     H27616   3.221  10.472   3.422 -1.2232  0.0279 -1.2676
  205MOL0     H27617   3.266  10.587   3.554  0.3039  1.0038 -0.6707
  205MOL0     H27618   3.043  10.643   3.589  1.2544 -0.1380  0.1709
  205MOL0     H27619   2.978  10.524   3.471 -1.2811 -1.8515  1.1085
  205MOL0     H27620   3.120  10.489   3.749  4.1814  0.6434 -1.9487
  205MOL0     H27621   2.955  10.447   3.699 -0.0554  0.6028 -1.4486
  205MOL0     H27622   3.028  10.253   3.571  0.2638 -0.4383 -0.0080
  205MOL0     H27623   3.196  10.304   3.559  1.4291  0.7394  2.1760
  205MOL0     H27624   3.065  10.213   3.839  0.6661 -1.6756  1.4912
  205MOL0     H27625   3.221  10.276   3.811 -0.1358 -1.2826  1.7191
  205MOL0     H27626   3.017   9.973   3.665  0.8528 -4.0693 -1.7466
  205MOL0     H27627   3.126   9.726   3.663  0.6849  3.3805  4.0549
  205MOL0     H27628   3.151   9.759   3.492 -0.7988 -3.3244  1.1485
  205MOL0     H27629   3.359   9.686   3.693  3.0651  0.3793 -1.5283
  205MOL0     H27630   3.405   9.743   3.528  0.0767 -0.1734 -0.4162
  205MOL0     H27631   3.248   9.548   3.459 -0.9005  2.8669  1.0166
  205MOL0     H27632   3.275   9.484   3.623  0.1856  0.7277 -0.3774
  205MOL0     H27633   3.500   9.466   3.613  1.7675 -1.8185 -1.3495
  205MOL0     H27634   3.499   9.554   3.462  0.6315 -0.7566 -0.5578
  205MOL0     H27635   3.529   9.449   3.243 -0.0733  0.7538  0.2666
  205MOL0     H27636   3.676   9.477   3.064  0.8291  0.6279  3.0654
  205MOL0     H27637   3.831   9.409   3.083 -0.1439  0.7285  1.1233
  205MOL0     H27638   3.710   9.321   2.979 -1.4105 -0.4919  0.7580
  205MOL0     H27639   4.130   9.091   3.028 -1.2350  0.7126  0.6421
  205MOL0     H27640   4.363   8.999   3.036 -0.4831 -0.3006 -0.0549
  205MOL0     H27641   4.648   8.819   3.228  0.4664  1.0431 -4.6737
  205MOL0     H27642   4.596   8.957   3.139 -2.6833  1.2504 -0.8505
  205MOL0     H27643   4.499   9.065   3.322  0.4984  0.3644  1.3655
  205MOL0     H27644   4.528   8.922   3.432  1.5453 -0.3158 -0.0256
  205MOL0     H27645   4.721   9.130   3.321  0.2888  0.9345  2.0653
  205MOL0     H27646   4.778   8.966   3.355  0.4533 -0.6281 -0.7407
  205MOL0     H27647   4.657   9.188   3.516 -1.4405 -1.2824  4.3051
  205MOL0     H27648   4.649   9.034   3.594  1.8338 -0.0563 -0.0055
  205MOL0     H27649   4.848   9.192   3.641  1.5244  1.5928 -1.7208
  205MOL0     H27650   4.913   9.153   3.487  0.7686 -0.3198 -0.0538
  205MOL0     H27651   4.848   8.963   3.714 -0.3506 -1.0489 -2.0074
  205MOL0     H27652   4.926   8.910   3.559  0.4856  1.5906 -1.3696
  205MOL0     H27653   5.088   8.910   3.763 -1.2253  0.0756  0.4079
  205MOL0     H27654   5.064   9.074   3.792 -1.9929  0.6919 -0.6047
  205MOL0     H27655   5.258   9.044   3.684 -2.4383  1.2838  2.7887
  205MOL0     H27656   5.156   9.159   3.592 -0.5900 -0.6844 -1.2065
  205MOL0     H27657   4.274   8.771   3.375 -2.6216  1.2861  0.4420
  205MOL0     H27658   4.041   8.889   3.389 -5.4700 -1.8722 -5.1079
  205MOL0     H27659   3.767   9.071   3.433 -2.9969  0.5599  3.6357
  205MOL0     H27660   3.582   9.152   3.535 -2.6592  1.1149 -0.0564
  205MOL0     H27661   3.434  10.228   3.319  0.9271 -1.5355  0.2671
  205MOL0     H27662   3.619  10.117   3.408  2.7961 -1.4192 -1.2016
  205MOL0     H27663   3.931  10.180   3.725  2.2323  2.6392 -3.0485
  205MOL0     H27664   4.050  10.059   3.896 -4.9898 -2.7037  2.7305
  205MOL0     H27665   4.237   9.966   3.979 -3.4486 -0.0715 -0.1015
  205MOL0     H27666   4.121   9.846   4.052 -0.7801  0.5675  0.6206
  205MOL0     H27667   4.308   9.827   4.171 -0.2919 -2.4702  2.1508
  205MOL0     H27668   4.413   9.779   4.031 -0.7489 -2.2637 -0.3747
  205MOL0     H27669   4.282   9.577   3.999  1.4808  0.8551 -0.5889
  205MOL0     H27670   4.180   9.634   4.134 -0.1891  0.5057  0.8563
  205MOL0     H27671   4.364   9.441   4.189  0.9378  0.3681 -1.0982
  205MOL0     H27672   4.322   9.577   4.294  0.7787 -3.8501  1.6714
  205MOL0     H27673   4.738   9.614   4.226 -0.5131  0.7132 -0.0527
  205MOL0     H27674   4.148   9.756   3.593 -0.7379 -1.7558 -2.3873
  205MOL0     H27675   4.006   9.888   3.438  1.3492 -0.5326 -0.3754
  206MOL0     O27676   3.853   8.317   2.064 -0.2138  0.5917 -0.5225
  206MOL0     C27677   3.873   8.405   2.147  0.4111  0.3743  0.7428
  206MOL0     O27678   3.933   8.526   2.114 -0.5482 -0.1094 -0.2578
  206MOL0     C27679   3.938   8.555   1.976  0.6053 -0.1295  0.5171
  206MOL0     C27680   4.055   8.578   1.917 -0.3993  0.6142  0.4827
  206MOL0     C27681   4.071   8.581   1.778  0.4972 -0.2734  0.0038
  206MOL0     C27682   3.965   8.565   1.688  0.2496 -0.1180 -0.4486
  206MOL0     O27683   3.985   8.556   1.556 -0.0797 -0.2180  0.1434
  206MOL0     C27684   3.952   8.672   1.476  0.6230  0.0546  0.7374
  206MOL0     C27685   3.986   8.668   1.319 -1.7815 -0.1401 -0.3064
  206MOL0     C27686   4.036   8.798   1.273  0.7203 -0.5953  0.9920
  206MOL0     C27687   3.928   8.870   1.189 -0.6830  1.0331  0.2027
  206MOL0     C27688   3.974   9.002   1.123 -0.3097  0.6067  0.5769
  206MOL0     C27689   3.846   9.072   1.085  0.3201  0.2923 -0.9304
  206MOL0     C27690   3.857   9.194   0.992  0.0822 -0.1214  0.1933
  206MOL0     C27691   3.912   9.313   1.070  0.1058 -0.0063  1.2114
  206MOL0     N27692   3.925   9.425   0.976  0.1169 -0.9314  0.0337
  206MOL0     C27693   4.037   9.502   0.968 -1.3188  1.1359  0.3891
  206MOL0     C27694   3.998   9.606   0.882  0.5256  1.5284  0.4419
  206MOL0     C27695   4.072   9.726   0.832  0.1078  1.2426 -0.0577
  206MOL0     C27696   4.114   9.728   0.687  0.1990 -0.7517  0.4660
  206MOL0     C27697   4.176   9.588   0.642 -0.4352  0.2077  0.0101
  206MOL0     C27698   4.309   9.545   0.702  0.5457 -0.2811 -0.1059
  206MOL0     O27699   4.399   9.653   0.686  0.5504 -0.1486 -0.0554
  206MOL0     C27700   4.533   9.636   0.718  0.7158 -1.1332  0.1409
  206MOL0     C27701   4.620   9.714   0.655 -1.3010 -0.0407  0.3403
  206MOL0     C27702   4.761   9.703   0.686  0.4518 -0.3736  0.6177
  206MOL0     C27703   4.850   9.812   0.626 -0.0364 -0.2787 -0.8793
  206MOL0     C27704   4.805   9.603   0.766  0.6414 -0.0433  0.4254
  206MOL0     C27705   4.944   9.575   0.789 -1.1842  0.2736  0.4400
  206MOL0     O27706   5.033   9.676   0.773  0.6342  0.1875 -0.3086
  206MOL0     C27707   5.161   9.647   0.780  0.0720  0.3609 -0.3172
  206MOL0     C27708   5.238   9.655   0.905  1.2410  0.0938 -0.1494
  206MOL0     C27709   5.365   9.617   0.909 -0.0909 -0.3634 -1.0068
  206MOL0     C27710   5.429   9.558   0.800  0.0291  0.1358 -0.3507
  206MOL0     O27711   5.563   9.520   0.810 -0.8300 -0.7932  0.5256
  206MOL0     C27712   5.595   9.406   0.724 -0.2205 -0.0958  0.3366
  206MOL0     C27713   5.732   9.346   0.765 -0.2440  0.1038  0.4400
  206MOL0     C27714   5.739   9.298   0.911  0.1184  0.6112  0.9306
  206MOL0     C27715   5.639   9.212   0.967  0.2624  1.4256 -0.4379
  206MOL0     C27716   5.661   9.197   1.119  0.8827 -0.1237 -0.7699
  206MOL0     C27717   5.549   9.100   1.185 -0.6657  0.4524 -0.2101
  206MOL0     C27718   5.441   9.191   1.236  0.5069  0.5171 -0.3247
  206MOL0     C27719   5.316   9.134   1.309  0.9429  0.1917  0.4153
  206MOL0    Cl27720   5.238   9.029   1.187  0.2720  0.2278 -0.3812
  206MOL0     C27721   5.368   9.565   0.672 -0.2603 -0.7175 -0.2149
  206MOL0     C27722   5.232   9.613   0.665  0.9059 -0.0300  0.1652
  206MOL0     O27723   4.979   9.466   0.814 -0.1614 -0.0237  0.8324
  206MOL0     C27724   4.709   9.517   0.829 -0.0931 -0.1613  0.3443
  206MOL0     C27725   4.570   9.531   0.799 -0.5737 -0.1293 -0.4214
  206MOL0     N27726   3.869   9.589   0.855  0.4114 -0.4837  0.0854
  206MOL0     N27727   3.821   9.481   0.907 -0.1491  0.0485 -0.3629
  206MOL0     C27728   3.840   8.536   1.745 -0.1193 -0.0304  0.0611
  206MOL0     C27729   3.826   8.544   1.893  0.3032 -0.3767  1.1349
  206MOL0     C27730   3.837   8.381   2.287  0.0588  0.0428 -1.1830
  206MOL0     C27731   3.804   8.252   2.342 -0.5241  0.4779  0.0044
  206MOL0     C27732   3.783   8.236   2.475  0.3164 -0.0020 -0.1221
  206MOL0     C27733   3.766   8.350   2.560 -0.1305 -0.0325  0.8004
  206MOL0     O27734   3.751   8.312   2.688  0.0195  0.6931  0.8322
  206MOL0     C27735   3.719   8.400   2.798  0.1057  0.9528  0.4287
  206MOL0     C27736   3.689   8.325   2.934  0.2103  0.2187 -0.2605
  206MOL0     C27737   3.657   8.420   3.052 -0.5492  1.2042  0.1080
  206MOL0     C27738   3.622   8.344   3.183 -0.3903 -0.3417  0.6228
  206MOL0     C27739   3.516   8.248   3.158  0.7095  0.1614 -0.1287
  206MOL0     C27740   3.427   8.178   3.120 -0.2899 -1.0894 -0.6055
  206MOL0     C27741   3.782   8.481   2.506  0.1070  0.0588 -0.3623
  206MOL0     C27742   3.815   8.486   2.372  0.3331  0.0291  0.8492
  206MOL0     H27743   4.153   8.582   1.964  1.8323  0.8432 -3.7312
  206MOL0     H27744   4.164   8.604   1.728  0.1844  1.5514  0.1963
  206MOL0     H27745   3.848   8.702   1.488  0.1581  0.0172 -2.4228
  206MOL0     H27746   4.009   8.752   1.524  2.1038 -0.6960  0.3024
  206MOL0     H27747   4.073   8.607   1.296 -0.3494  2.1736 -1.3593
  206MOL0     H27748   3.896   8.629   1.270 -0.8697 -0.7074 -1.5660
  206MOL0     H27749   4.078   8.865   1.349 -1.4744 -0.6048  2.2883
  206MOL0     H27750   4.110   8.784   1.193 -1.9072 -1.6117 -1.4264
  206MOL0     H27751   3.885   8.811   1.107 -0.4349  1.4863 -0.2646
  206MOL0     H27752   3.849   8.892   1.261  1.5068 -1.5212  3.6736
  206MOL0     H27753   4.035   9.061   1.192  0.1905  0.6996  0.0666
  206MOL0     H27754   4.045   8.992   1.040  4.0015  0.8818  3.9042
  206MOL0     H27755   3.776   9.003   1.039  0.4807 -1.4164  1.2611
  206MOL0     H27756   3.815   9.103   1.185 -0.3031 -4.4880  0.5916
  206MOL0     H27757   3.920   9.180   0.903 -0.5019 -2.8376  0.1365
  206MOL0     H27758   3.755   9.213   0.956  1.2608  0.2833 -3.4130
  206MOL0     H27759   4.014   9.291   1.102  0.7329  0.7134 -0.2035
  206MOL0     H27760   3.850   9.331   1.159 -1.7587 -1.0503  0.2059
  206MOL0     H27761   4.136   9.488   1.013 -0.8158 -0.6089 -1.1567
  206MOL0     H27762   3.998   9.804   0.848  1.2530  2.3769 -0.0725
  206MOL0     H27763   4.155   9.732   0.903 -0.0577  0.6330  0.1938
  206MOL0     H27764   4.171   9.821   0.689 -2.2942  0.8876  1.5676
  206MOL0     H27765   4.032   9.756   0.619  0.5435  0.4010  0.4911
  206MOL0     H27766   4.199   9.610   0.537  0.5484  1.4427  0.4600
  206MOL0     H27767   4.100   9.513   0.666 -0.6500  1.1096  2.4077
  206MOL0     H27768   4.339   9.449   0.659 -1.2262 -1.8894  2.0643
  206MOL0     H27769   4.313   9.514   0.807  2.8200  1.4232  0.4071
  206MOL0     H27770   4.586   9.787   0.583 -1.1493 -0.3127 -0.0140
  206MOL0     H27771   4.923   9.760   0.564 -1.8614 -1.9144 -1.7848
  206MOL0     H27772   4.807   9.895   0.570 -0.0844  0.4545  0.2006
  206MOL0     H27773   4.904   9.859   0.709  1.2589 -1.7614 -0.8351
  206MOL0     H27774   5.191   9.701   0.991  0.3869 -1.3756  0.2103
  206MOL0     H27775   5.421   9.631   1.000 -0.1494  1.1403 -1.1773
  206MOL0     H27776   5.514   9.334   0.734 -1.3938  1.5050  4.5980
  206MOL0     H27777   5.610   9.428   0.617  3.2790  1.0647  0.9176
  206MOL0     H27778   5.762   9.262   0.701  3.3975  0.9453  0.7925
  206MOL0     H27779   5.822   9.406   0.750  0.8961 -0.8511  2.8248
  206MOL0     H27780   5.750   9.389   0.970 -0.9787  1.9763 -0.8628
  206MOL0     H27781   5.832   9.241   0.920  0.1880  0.3494 -0.9430
  206MOL0     H27782   5.538   9.244   0.939 -0.6841 -0.9535  0.0566
  206MOL0     H27783   5.640   9.114   0.920  3.2387  1.1356  0.0392
  206MOL0     H27784   5.661   9.288   1.179 -0.8959 -0.3096 -0.4181
  206MOL0     H27785   5.762   9.158   1.136  1.1449  1.7981  3.2185
  206MOL0     H27786   5.516   9.018   1.120 -0.9895  0.9654 -0.6980
  206MOL0     H27787   5.600   9.057   1.272  0.3752  1.0336 -0.5181
  206MOL0     H27788   5.401   9.249   1.152 -0.9730 -1.9974 -1.4420
  206MOL0     H27789   5.491   9.255   1.310  0.6062 -2.4237  2.3499
  206MOL0     H27790   5.247   9.211   1.344  0.7159  1.0030 -1.7259
  206MOL0     H27791   5.332   9.073   1.399 -1.5040 -1.9108 -0.4444
  206MOL0     H27792   5.412   9.534   0.578 -3.7659 -1.1060 -1.8896
  206MOL0     H27793   5.180   9.601   0.571 -0.2701 -1.0899  0.9213
  206MOL0     H27794   4.734   9.442   0.904  3.3904  0.5810  0.0951
  206MOL0     H27795   4.504   9.462   0.850  0.3781  0.4837  1.7190
  206MOL0     H27796   3.760   8.495   1.684 -0.2231 -2.3963  1.6734
  206MOL0     H27797   3.725   8.536   1.931  0.3650 -3.6057  0.9024
  206MOL0     H27798   3.831   8.165   2.282  3.2440  3.0239 -2.4183
  206MOL0     H27799   3.778   8.143   2.531 -2.4940  1.3707  2.1581
  206MOL0     H27800   3.805   8.467   2.808 -0.0671  1.6354 -2.0010
  206MOL0     H27801   3.633   8.463   2.773  0.5987  0.5193 -2.8840
  206MOL0     H27802   3.779   8.272   2.968  0.6004  2.1831  2.0224
  206MOL0     H27803   3.610   8.252   2.915  1.4984 -1.1110 -0.7227
  206MOL0     H27804   3.564   8.470   3.022 -0.8862 -0.6823 -2.3231
  206MOL0     H27805   3.731   8.496   3.078 -0.1821  0.8441  0.1264
  206MOL0     H27806   3.592   8.416   3.260  0.8573  1.3676 -0.3902
  206MOL0     H27807   3.706   8.287   3.224  1.3814 -0.1740 -2.4167
  206MOL0     H27808   3.368   8.096   3.082  2.4234 -2.6328 -1.7381
  206MOL0     H27809   3.780   8.579   2.553 -1.0066  2.6871 -5.2453
  206MOL0     H27810   3.822   8.589   2.337 -2.3857 -0.0779 -0.2795
  207MOL0     O27811   9.777   2.992  10.739  0.0116 -0.1796 -0.0014
  207MOL0     C27812   9.682   2.913  10.736  0.4965 -0.7400  1.8163
  207MOL0     O27813   9.553   2.939  10.751 -0.1441 -0.3396  0.2578
  207MOL0     C27814   9.502   2.970  10.873 -0.8209  0.1097 -0.0276
  207MOL0     C27815   9.571   2.951  10.992 -0.0445  0.7216  1.0062
  207MOL0     C27816   9.523   2.996  11.112  0.9091 -0.2407 -0.5887
  207MOL0     C27817   9.396   3.058  11.123  0.2146 -0.7901  0.5125
  207MOL0     O27818   9.352   3.099  11.242  0.7516  0.0859  0.3975
  207MOL0     C27819   9.251   3.196  11.258 -0.6136  0.1116  0.0275
  207MOL0     C27820   9.180   3.205  11.388  1.0049 -0.4874  0.7010
  207MOL0     C27821   9.097   3.082  11.411 -0.9782 -0.1327  0.1636
  207MOL0     C27822   9.022   3.097  11.544 -0.1762 -0.9285  0.3217
  207MOL0     C27823   8.923   2.987  11.552  0.1927 -0.0636 -0.9355
  207MOL0     C27824   8.839   2.999  11.680  0.1430  0.4123  0.0296
  207MOL0     C27825   8.743   2.884  11.684 -0.2917  0.0705 -0.5150
  207MOL0     C27826   8.649   2.894  11.816  0.9657  0.2231 -0.4927
  207MOL0     N27827   8.724   2.891  11.940 -0.3601  0.3882  0.1537
  207MOL0     C27828   8.806   2.790  11.969  0.0386 -0.2753 -0.0267
  207MOL0     C27829   8.896   2.832  12.058  0.0695 -0.6235 -0.4211
  207MOL0     C27830   8.985   2.738  12.134 -0.2939 -0.9238  0.1609
  207MOL0     C27831   8.905   2.641  12.214 -0.0454 -0.3075 -0.0113
  207MOL0     C27832   8.990   2.565  12.316 -0.4531  1.2626  0.1258
  207MOL0     C27833   8.914   2.475  12.407  0.5524 -1.5165 -0.0325
  207MOL0     O27834   8.991   2.395  12.490  0.3530 -0.2230  0.2836
  207MOL0     C27835   9.082   2.460  12.566 -0.9399 -0.7787 -0.2873
  207MOL0     C27836   9.056   2.581  12.633 -0.2386 -0.2444 -0.9527
  207MOL0     C27837   9.158   2.634  12.709  0.6525 -0.5893  0.2127
  207MOL0     C27838   9.117   2.761  12.770  0.0652 -0.3471  0.0051
  207MOL0     C27839   9.285   2.571  12.749  0.4061  0.3089 -0.4740
  207MOL0     C27840   9.382   2.613  12.850  0.1780  0.6816  0.3259
  207MOL0     O27841   9.510   2.553  12.849  0.2110 -0.8586 -0.6829
  207MOL0     C27842   9.594   2.564  12.956  0.2907 -0.0873  0.9376
  207MOL0     C27843   9.647   2.444  12.997 -1.2246  0.0492  0.6695
  207MOL0     C27844   9.730   2.440  13.107  0.2523 -0.1394 -0.2655
  207MOL0     C27845   9.769   2.553  13.180 -0.4395  1.0821 -0.6352
  207MOL0     O27846   9.850   2.533  13.293 -0.7274  0.2217  0.4692
  207MOL0     C27847   9.872   2.643  13.389 -1.1604  0.5039  0.0454
  207MOL0     C27848   9.821   2.624  13.535 -0.7973  0.7499  0.3890
  207MOL0     C27849   9.696   2.707  13.561 -0.5639  0.3491  0.0410
  207MOL0     C27850   9.578   2.648  13.473  0.3456 -0.7353 -0.1863
  207MOL0     C27851   9.451   2.615  13.560 -0.9393  0.0410 -0.5792
  207MOL0     C27852   9.388   2.750  13.600  0.1661  0.0861 -0.7873
  207MOL0     C27853   9.323   2.744  13.746  0.0765  0.1805 -0.2416
  207MOL0     C27854   9.223   2.624  13.775 -1.2181 -0.0506  0.8873
  207MOL0    Cl27855   9.100   2.619  13.645  0.5668  0.0592 -0.2486
  207MOL0     C27856   9.703   2.670  13.145 -0.3045  0.0639  0.6594
  207MOL0     C27857   9.622   2.678  13.037  0.0003  0.2234  0.2557
  207MOL0     O27858   9.341   2.711  12.922  0.0282  0.9022  0.0812
  207MOL0     C27859   9.310   2.451  12.669  0.4840  0.0174  0.1206
  207MOL0     C27860   9.202   2.396  12.586 -0.2835  0.1960 -0.8061
  207MOL0     N27861   8.866   2.968  12.085 -0.0427 -0.4210  0.3807
  207MOL0     N27862   8.769   3.004  12.008  0.1882 -0.1440 -0.1050
  207MOL0     C27863   9.324   3.080  11.005 -0.2785  0.1007  0.2316
  207MOL0     C27864   9.379   3.035  10.885 -0.4722 -0.2115 -0.0459
  207MOL0     C27865   9.729   2.767  10.716  0.4191 -0.9722  0.5077
  207MOL0     C27866   9.636   2.665  10.724  0.5109  0.2302 -0.2259
  207MOL0     C27867   9.679   2.532  10.720  0.5241  0.4906 -0.1772
  207MOL0     C27868   9.814   2.506  10.675 -0.1378 -0.1136 -0.4929
  207MOL0     O27869   9.866   2.382  10.661  0.2599  0.2169 -0.8479
  207MOL0     C27870   9.796   2.273  10.724 -0.6185 -0.0394  0.2551
  207MOL0     C27871   9.891   2.149  10.720 -0.4231  1.0525 -0.3654
  207MOL0     C27872   9.881   2.068  10.583  0.1745  0.9020  0.1328
  207MOL0     C27873   9.941   1.934  10.592  0.1598 -0.5740  0.8265
  207MOL0     C27874   9.901   1.875  10.458  1.1940  0.8931 -0.2913
  207MOL0     C27875   9.866   1.841  10.348  0.6275 -0.0452 -0.0275
  207MOL0     C27876   9.897   2.614  10.648  0.8425  0.1368 -0.6866
  207MOL0     C27877   9.850   2.743  10.671  0.1216 -0.1779 -0.8370
  207MOL0     H27878   9.672   2.917  11.011  1.0666  1.7498 -2.3080
  207MOL0     H27879   9.581   2.983  11.203 -0.0031  2.9639  0.5792
  207MOL0     H27880   9.294   3.290  11.221 -3.7402  2.2969  1.5123
  207MOL0     H27881   9.168   3.187  11.186 -0.7080  2.2078 -0.1938
  207MOL0     H27882   9.249   3.219  11.472 -0.9892  0.1644  2.3185
  207MOL0     H27883   9.113   3.291  11.375  2.3531  0.5879  0.6176
  207MOL0     H27884   9.012   3.068  11.344 -1.4034 -1.8043  1.0081
  207MOL0     H27885   9.156   2.990  11.411  0.2942  0.5180  4.0294
  207MOL0     H27886   9.086   3.092  11.632 -1.4088 -1.3596  1.2125
  207MOL0     H27887   8.967   3.192  11.545  1.4619  0.1010 -0.8080
  207MOL0     H27888   8.853   3.007  11.470 -2.1711  3.0233  1.5662
  207MOL0     H27889   8.968   2.887  11.542  2.7130  1.0232 -1.2036
  207MOL0     H27890   8.905   2.990  11.767 -1.4193  1.4222  1.3870
  207MOL0     H27891   8.789   3.096  11.684 -1.1717 -0.2493 -0.1025
  207MOL0     H27892   8.663   2.888  11.609 -0.0217  2.2478 -0.7437
  207MOL0     H27893   8.799   2.790  11.682 -0.3351  0.0282 -0.0007
  207MOL0     H27894   8.571   2.818  11.819  2.7854 -1.7587 -0.9268
  207MOL0     H27895   8.596   2.990  11.812  1.6610  0.6506  0.1628
  207MOL0     H27896   8.796   2.687  11.936 -1.2958 -0.2161  0.1165
  207MOL0     H27897   9.052   2.680  12.069  1.4205  0.1487  0.9076
  207MOL0     H27898   9.041   2.798  12.206  1.1916 -3.2586  1.0680
  207MOL0     H27899   8.853   2.575  12.145 -0.0423 -2.0162  1.5631
  207MOL0     H27900   8.824   2.695  12.264  1.8932 -0.3272  3.4912
  207MOL0     H27901   9.052   2.636  12.370 -1.5067  0.3646  2.6764
  207MOL0     H27902   9.049   2.497  12.254 -0.3535  0.3963  1.1461
  207MOL0     H27903   8.854   2.405  12.350 -0.3408 -2.3483  1.8253
  207MOL0     H27904   8.846   2.540  12.463  1.3100 -1.9719  1.4773
  207MOL0     H27905   8.967   2.641  12.615 -0.2612 -0.0100 -0.1200
  207MOL0     H27906   9.087   2.743  12.874 -4.4064  2.1041 -0.6274
  207MOL0     H27907   9.202   2.829  12.774 -0.5800  0.4735 -0.0863
  207MOL0     H27908   9.036   2.819  12.725  0.2190 -0.8084 -0.8901
  207MOL0     H27909   9.630   2.353  12.940  4.0452  0.7627 -2.6759
  207MOL0     H27910   9.761   2.339  13.132  0.3256 -0.8371 -2.8567
  207MOL0     H27911   9.980   2.657  13.396 -1.2602  1.3134  0.1491
  207MOL0     H27912   9.835   2.741  13.356  1.1027  1.8826  1.3440
  207MOL0     H27913   9.801   2.518  13.550 -0.7871  0.6853 -0.0422
  207MOL0     H27914   9.899   2.662  13.601 -0.1239 -0.8563  0.5679
  207MOL0     H27915   9.719   2.813  13.549  2.3158 -0.3187 -1.0910
  207MOL0     H27916   9.672   2.682  13.665 -1.7680 -1.9497 -0.7022
  207MOL0     H27917   9.545   2.716  13.394  0.2196  0.5028  0.9000
  207MOL0     H27918   9.599   2.559  13.413 -2.2626  0.5149 -3.2221
  207MOL0     H27919   9.489   2.555  13.644  2.2363 -1.7399 -3.0647
  207MOL0     H27920   9.378   2.552  13.509 -0.7002 -1.7567  1.1747
  207MOL0     H27921   9.473   2.819  13.607 -0.1732  0.4450 -0.0724
  207MOL0     H27922   9.307   2.780  13.533 -0.5454 -0.1376 -0.0484
  207MOL0     H27923   9.266   2.836  13.763  0.1587  0.3540 -0.8703
  207MOL0     H27924   9.410   2.747  13.812 -0.3081  3.0429  0.2566
  207MOL0     H27925   9.172   2.625  13.872 -0.3534 -0.4182  1.3571
  207MOL0     H27926   9.269   2.525  13.769 -0.1920  0.3204  2.0669
  207MOL0     H27927   9.719   2.769  13.185  0.5383  1.1906 -2.2069
  207MOL0     H27928   9.587   2.777  13.011 -3.6676 -1.1519 -0.7508
  207MOL0     H27929   9.406   2.401  12.673  1.4953  1.9092  1.8150
  207MOL0     H27930   9.217   2.302  12.533 -1.9863 -0.3230 -0.4464
  207MOL0     H27931   9.233   3.139  11.002 -0.6099 -0.4605 -1.4901
  207MOL0     H27932   9.330   3.041  10.788 -0.4051 -3.9833 -0.4639
  207MOL0     H27933   9.535   2.692  10.752  0.5315 -1.8491  2.3047
  207MOL0     H27934   9.605   2.453  10.728  2.8818 -1.7563  1.3790
  207MOL0     H27935   9.783   2.295  10.831  1.2598  1.4644  0.2289
  207MOL0     H27936   9.709   2.238  10.669  0.7897  1.0056 -2.8416
  207MOL0     H27937   9.860   2.081  10.800 -3.8638  3.9897  1.0956
  207MOL0     H27938   9.994   2.179  10.741  0.3749 -3.0780  2.9130
  207MOL0     H27939   9.929   2.114  10.497  0.5099 -0.1984 -0.2873
  207MOL0     H27940   9.779   2.057  10.546  0.7110 -2.9257 -0.5840
  207MOL0     H27941   9.878   1.889  10.669 -1.5218  0.2279 -0.0496
  207MOL0     H27942  10.049   1.940  10.609  0.4571  0.7407 -1.2852
  207MOL0     H27943   9.824   1.811  10.254 -5.1000  4.8107  0.3154
  207MOL0     H27944   9.998   2.598  10.612  0.9597 -0.9748  0.0907
  207MOL0     H27945   9.911   2.831  10.655 -2.7943  2.3083  0.7443
  208MOL0     O27946   1.903   4.287   3.993 -0.3677 -0.9269  0.1139
  208MOL0     C27947   1.926   4.332   3.883  0.4144 -0.4979  0.6472
  208MOL0     O27948   2.003   4.269   3.785 -0.6970  0.9946  0.3889
  208MOL0     C27949   2.012   4.129   3.770  0.6324 -0.1262  0.4859
  208MOL0     C27950   1.929   4.030   3.834  0.5762  0.4063 -0.3116
  208MOL0     C27951   1.963   3.886   3.829 -0.3030  0.2239  0.6026
  208MOL0     C27952   2.050   3.843   3.734  0.4635  0.8114  0.7931
  208MOL0     O27953   2.076   3.702   3.732  0.1997  0.2145 -0.1605
  208MOL0     C27954   2.197   3.645   3.672 -0.1907 -0.3735  0.5174
  208MOL0     C27955   2.229   3.501   3.716  0.4915  1.5597  0.0697
  208MOL0     C27956   2.125   3.393   3.672  0.4756  0.5811 -0.7641
  208MOL0     C27957   2.176   3.250   3.702 -0.0015 -0.3943 -1.1456
  208MOL0     C27958   2.084   3.135   3.660 -1.0481 -0.8559  0.0401
  208MOL0     C27959   2.044   3.131   3.509  0.1126 -0.0802  0.0248
  208MOL0     C27960   1.982   2.989   3.471  0.1687 -0.2386  0.0326
  208MOL0     C27961   1.896   3.005   3.348 -0.5636 -0.6311  0.7827
  208MOL0     N27962   1.879   2.879   3.294 -0.0533  0.1286  0.1889
  208MOL0     C27963   1.757   2.811   3.283  1.0573 -0.9962 -0.8195
  208MOL0     C27964   1.772   2.724   3.181  0.6294 -0.6738  0.4294
  208MOL0     C27965   1.671   2.619   3.127 -0.1254 -0.4491  0.3399
  208MOL0     C27966   1.519   2.662   3.104  0.0124 -0.0400 -0.1798
  208MOL0     C27967   1.497   2.802   3.043  0.4197  0.7944 -0.1096
  208MOL0     C27968   1.359   2.856   3.061  0.2237  0.7669  0.1121
  208MOL0     O27969   1.330   2.878   3.197  0.3064  0.0275 -0.2726
  208MOL0     C27970   1.363   2.997   3.246 -0.3084 -0.0661 -1.1796
  208MOL0     C27971   1.434   3.106   3.187 -0.3964 -0.1552 -0.2879
  208MOL0     C27972   1.460   3.224   3.250  0.0288  0.1865 -0.1691
  208MOL0     C27973   1.526   3.323   3.164 -0.5766 -0.8989 -0.1808
  208MOL0     C27974   1.410   3.244   3.381 -0.4298  0.6492 -0.3705
  208MOL0     C27975   1.437   3.370   3.455  0.6304  0.4680  0.3096
  208MOL0     O27976   1.463   3.352   3.587  0.8858 -0.4313 -0.1869
  208MOL0     C27977   1.459   3.457   3.676  0.0551  0.6145  1.0083
  208MOL0     C27978   1.346   3.492   3.747 -0.1500  0.7685  0.2465
  208MOL0     C27979   1.353   3.597   3.849 -0.8408 -0.2731 -0.1421
  208MOL0     C27980   1.466   3.676   3.862 -0.4487 -0.8197  1.3653
  208MOL0     O27981   1.462   3.789   3.944  0.4397  0.0443  0.0336
  208MOL0     C27982   1.574   3.879   3.952  0.4840 -0.8469 -0.1182
  208MOL0     C27983   1.536   4.029   3.992 -0.8105  0.2529 -0.7467
  208MOL0     C27984   1.607   4.052   4.126 -0.2052 -0.4840 -0.2953
  208MOL0     C27985   1.593   4.197   4.155  0.3462 -0.3439 -0.1679
  208MOL0     C27986   1.634   4.209   4.304 -0.2563  0.7897 -0.6708
  208MOL0     C27987   1.612   4.346   4.365  0.0973  0.0718  1.4202
  208MOL0     C27988   1.714   4.443   4.313  0.7255  0.8209 -0.3675
  208MOL0     C27989   1.709   4.573   4.383  0.0172 -0.2936  0.7918
  208MOL0    Cl27990   1.808   4.698   4.291 -0.1462 -0.4319 -0.4334
  208MOL0     C27991   1.578   3.637   3.787 -1.2450 -0.1274  0.5860
  208MOL0     C27992   1.578   3.529   3.700 -0.0072 -1.0871 -0.6181
  208MOL0     O27993   1.445   3.480   3.396  0.5413  0.6402 -0.0815
  208MOL0     C27994   1.334   3.139   3.435 -0.3684 -1.1172 -0.0836
  208MOL0     C27995   1.316   3.014   3.377  0.2370 -0.8129  0.0291
  208MOL0     N27996   1.908   2.721   3.142 -0.5832 -0.6992  0.0154
  208MOL0     N27997   1.966   2.807   3.213  0.1312 -0.4564 -0.3834
  208MOL0     C27998   2.118   3.936   3.655 -0.3644 -0.2938 -0.4590
  208MOL0     C27999   2.102   4.070   3.680 -0.3274 -0.7844  0.1667
  208MOL0     C28000   1.869   4.463   3.851  0.6592  0.3899 -0.0895
  208MOL0     C28001   1.866   4.507   3.715  0.4505  0.8841 -0.8764
  208MOL0     C28002   1.823   4.627   3.667  1.1142  0.4292  0.0667
  208MOL0     C28003   1.780   4.721   3.758  0.1028 -0.4547 -0.5919
  208MOL0     O28004   1.731   4.850   3.720 -0.1026 -0.5444 -0.3859
  208MOL0     C28005   1.585   4.860   3.711  0.8221  0.1320 -0.5800
  208MOL0     C28006   1.524   4.905   3.580  1.1954 -0.3380 -0.2569
  208MOL0     C28007   1.565   4.806   3.470 -0.1539 -0.9692 -0.6696
  208MOL0     C28008   1.478   4.819   3.351  0.5477 -0.3516  0.3214
  208MOL0     C28009   1.510   4.726   3.244 -0.0725  0.2462  0.0396
  208MOL0     C28010   1.527   4.666   3.145 -1.2958  0.6297  1.0420
  208MOL0     C28011   1.784   4.685   3.901 -0.0365  0.0340  0.3938
  208MOL0     C28012   1.815   4.558   3.942 -0.0043  0.1099 -0.0220
  208MOL0     H28013   1.856   4.070   3.903  1.6740 -0.5714  1.5096
  208MOL0     H28014   1.924   3.808   3.892 -1.6658  0.2613 -0.1468
  208MOL0     H28015   2.194   3.655   3.563 -1.1539  2.7979  0.7345
  208MOL0     H28016   2.274   3.711   3.712 -0.9130  0.8339 -0.0293
  208MOL0     H28017   2.326   3.478   3.672  0.0071 -0.6456  0.0594
  208MOL0     H28018   2.237   3.497   3.825 -0.2341 -1.7143  0.0845
  208MOL0     H28019   2.033   3.415   3.726 -0.5138 -5.7120  0.8208
  208MOL0     H28020   2.111   3.399   3.563  2.2078 -0.8447 -1.1015
  208MOL0     H28021   2.277   3.249   3.662  0.0302 -0.6031 -1.0644
  208MOL0     H28022   2.181   3.229   3.810  2.0061  0.3875 -1.0520
  208MOL0     H28023   2.136   3.042   3.685  3.1298  0.9625 -0.9932
  208MOL0     H28024   1.994   3.141   3.721 -0.5879 -1.4287  0.7986
  208MOL0     H28025   1.960   3.200   3.496 -1.7985 -1.3964  3.8402
  208MOL0     H28026   2.129   3.159   3.447 -2.0118  1.2201 -2.5239
  208MOL0     H28027   2.066   2.920   3.457  0.1832 -0.9418  2.9574
  208MOL0     H28028   1.921   2.954   3.555 -0.8202  2.6235  0.6072
  208MOL0     H28029   1.950   3.064   3.273 -0.1069 -1.1481  0.6997
  208MOL0     H28030   1.802   3.056   3.372 -0.2470  0.5900 -0.4472
  208MOL0     H28031   1.667   2.824   3.343  1.8307 -2.0323  0.6254
  208MOL0     H28032   1.720   2.583   3.036  1.8606  0.2537  1.0705
  208MOL0     H28033   1.668   2.530   3.191 -2.3932 -1.8500 -1.5548
  208MOL0     H28034   1.481   2.656   3.206  3.0354  2.9211  1.3045
  208MOL0     H28035   1.472   2.585   3.042 -0.4101  1.0505 -1.2604
  208MOL0     H28036   1.503   2.791   2.934  4.7949 -0.0261  0.0314
  208MOL0     H28037   1.568   2.876   3.081  2.3708 -0.3155 -1.4356
  208MOL0     H28038   1.297   2.785   3.006  0.9995  0.7329 -0.7334
  208MOL0     H28039   1.349   2.944   2.998  1.3565 -0.2636 -1.5942
  208MOL0     H28040   1.467   3.081   3.087 -0.0621 -2.6667  0.3804
  208MOL0     H28041   1.539   3.289   3.061  0.5587  1.1808 -0.7902
  208MOL0     H28042   1.460   3.410   3.153  0.8670  0.1798 -0.6449
  208MOL0     H28043   1.623   3.342   3.210 -1.0669  0.2509  0.4361
  208MOL0     H28044   1.259   3.430   3.730  2.2861 -2.9767  0.2994
  208MOL0     H28045   1.270   3.625   3.913  0.0458  1.9826  0.1030
  208MOL0     H28046   1.635   3.815   4.017 -2.2835  0.7004  4.5053
  208MOL0     H28047   1.622   3.892   3.855  0.6856 -2.2857 -0.2362
  208MOL0     H28048   1.576   4.095   3.915 -0.6196 -1.2413 -1.9890
  208MOL0     H28049   1.427   4.024   4.001 -0.6444 -3.5813  2.1518
  208MOL0     H28050   1.712   4.020   4.127  0.3370  1.2020  0.6945
  208MOL0     H28051   1.555   3.990   4.200  0.9173 -1.4113 -0.2416
  208MOL0     H28052   1.669   4.254   4.102 -1.4882  3.0432  0.5755
  208MOL0     H28053   1.493   4.236   4.133  0.6717  1.6231  1.5288
  208MOL0     H28054   1.740   4.182   4.315 -1.1337 -2.6994  0.9282
  208MOL0     H28055   1.567   4.134   4.347  1.9321 -1.4797 -1.0036
  208MOL0     H28056   1.512   4.382   4.341  0.0762  1.0649  2.8972
  208MOL0     H28057   1.621   4.325   4.472  0.7093  0.7115  1.5035
  208MOL0     H28058   1.698   4.455   4.205  1.8774 -0.7642 -0.7460
  208MOL0     H28059   1.811   4.400   4.339 -1.2234 -3.0812  1.1061
  208MOL0     H28060   1.744   4.574   4.487 -1.0074 -0.2395  1.1486
  208MOL0     H28061   1.607   4.611   4.386 -0.6781 -1.6979 -1.9668
  208MOL0     H28062   1.674   3.688   3.784  1.4379 -4.5529  1.7555
  208MOL0     H28063   1.669   3.517   3.640  2.5585  3.0282  1.9470
  208MOL0     H28064   1.285   3.158   3.530 -0.6089  0.9340 -0.5652
  208MOL0     H28065   1.275   2.928   3.429 -1.9798  0.6919  0.9585
  208MOL0     H28066   2.199   3.888   3.600 -0.8004 -1.1510 -0.3698
  208MOL0     H28067   2.166   4.142   3.630 -0.4345  0.2443  1.4833
  208MOL0     H28068   1.913   4.441   3.643 -1.0394 -0.0897 -1.0024
  208MOL0     H28069   1.835   4.647   3.561 -2.7672 -3.3801 -1.3404
  208MOL0     H28070   1.533   4.768   3.736 -3.7324  2.3116 -1.0986
  208MOL0     H28071   1.541   4.923   3.788  1.5859 -3.2143  2.8985
  208MOL0     H28072   1.570   5.003   3.569  3.0853 -0.8557  2.0992
  208MOL0     H28073   1.415   4.898   3.586  1.1890  0.3057  0.4647
  208MOL0     H28074   1.539   4.707   3.508 -0.7651 -1.2378 -1.7610
  208MOL0     H28075   1.672   4.824   3.456 -0.2274 -0.6777 -0.8765
  208MOL0     H28076   1.488   4.921   3.312 -3.1465  0.2577  0.5915
  208MOL0     H28077   1.375   4.798   3.385 -1.0573  1.0363 -3.2123
  208MOL0     H28078   1.542   4.606   3.057 -1.8243 -2.3736  2.8351
  208MOL0     H28079   1.772   4.766   3.972 -0.1864  1.5771 -1.3208
  208MOL0     H28080   1.810   4.531   4.047 -0.6938 -1.4320 -0.4248
  209MOL0     O28081   2.065   4.191   2.321 -0.3543 -0.0849  0.5799
  209MOL0     C28082   2.040   4.273   2.405  0.1004 -1.5393 -0.1254
  209MOL0     O28083   1.917   4.290   2.464 -0.4153 -0.3828 -0.5078
  209MOL0     C28084   1.807   4.254   2.401  0.7208 -0.3425  0.5410
  209MOL0     C28085   1.717   4.178   2.462 -0.8010  0.8371  1.2715
  209MOL0     C28086   1.604   4.120   2.395 -0.9071  0.8826  0.6567
  209MOL0     C28087   1.574   4.159   2.266  1.2012  1.1119  0.8007
  209MOL0     O28088   1.456   4.123   2.212 -0.4025  0.3743 -0.2482
  209MOL0     C28089   1.400   4.188   2.089  0.6498 -0.3811 -0.1252
  209MOL0     C28090   1.454   4.122   1.956  0.0795 -0.5230  0.0007
  209MOL0     C28091   1.385   4.186   1.841  0.5079 -0.9075  0.1987
  209MOL0     C28092   1.369   4.092   1.728  0.6084  0.8016  0.2210
  209MOL0     C28093   1.369   4.166   1.584 -0.5933 -0.1732 -0.0390
  209MOL0     C28094   1.271   4.079   1.505  1.1526 -1.1318 -0.2889
  209MOL0     C28095   1.276   4.118   1.363 -0.3209  0.1645 -0.3091
  209MOL0     C28096   1.411   4.079   1.303  0.3073 -0.0906  0.0537
  209MOL0     N28097   1.393   4.048   1.156 -1.0972  0.1380 -0.3377
  209MOL0     C28098   1.407   3.929   1.088 -0.5114 -0.3980 -0.7564
  209MOL0     C28099   1.354   3.949   0.963  0.1960 -0.1303  0.1573
  209MOL0     C28100   1.371   3.862   0.850  0.2222 -0.0343 -0.3371
  209MOL0     C28101   1.242   3.827   0.788  0.1914  0.2861 -0.0388
  209MOL0     C28102   1.253   3.702   0.699 -0.4515 -0.1487 -0.3255
  209MOL0     C28103   1.345   3.717   0.579  0.1363 -0.6157 -1.0041
  209MOL0     O28104   1.307   3.834   0.510 -0.3457 -0.1083  0.2989
  209MOL0     C28105   1.257   3.829   0.384 -0.3751  0.8640 -0.3498
  209MOL0     C28106   1.336   3.828   0.271  0.9614  1.1556  0.0401
  209MOL0     C28107   1.264   3.816   0.144  0.6600 -0.5806 -0.3464
  209MOL0     C28108   1.342   3.836   0.011 -0.0334  0.6566  0.1063
  209MOL0     C28109   1.123   3.801   0.139  0.2600  0.6910  0.0666
  209MOL0     C28110   1.049   3.757   0.019 -0.1203  0.4257 -0.0128
  209MOL0     O28111   0.917   3.781   0.027 -0.8635 -0.5627 -0.1301
  209MOL0     C28112   0.837   3.736  -0.062 -0.1231 -0.6110  0.2351
  209MOL0     C28113   0.858   3.752  -0.207 -0.3881 -0.9135 -0.6086
  209MOL0     C28114   0.764   3.697  -0.294  1.8166 -0.1911  0.4090
  209MOL0     C28115   0.648   3.636  -0.243  0.4917  0.1665 -0.6106
  209MOL0     O28116   0.546   3.575  -0.308  0.1712 -0.4863 -0.0050
  209MOL0     C28117   0.560   3.559  -0.446 -0.0516 -0.5241 -1.1913
  209MOL0     C28118   0.472   3.455  -0.522  0.9698  1.0889  0.1040
  209MOL0     C28119   0.493   3.306  -0.508 -0.1123 -0.2027  0.2860
  209MOL0     C28120   0.537   3.276  -0.356 -0.0120 -0.1484 -0.0053
  209MOL0     C28121   0.532   3.121  -0.329  0.0768  0.7251  0.2083
  209MOL0     C28122   0.593   3.045  -0.454 -0.0174  0.2741 -0.0383
  209MOL0     C28123   0.616   2.900  -0.410  0.1368  0.0786 -0.1827
  209MOL0     C28124   0.500   2.826  -0.442  0.1962  0.3115 -0.3409
  209MOL0    Cl28125   0.495   2.664  -0.365 -0.2254 -0.2287  0.2390
  209MOL0     C28126   0.630   3.609  -0.108 -0.1640 -0.9628  0.0455
  209MOL0     C28127   0.730   3.662  -0.019  0.1179  0.1879 -0.2580
  209MOL0     O28128   1.100   3.684  -0.067  0.8222 -0.3064  0.0126
  209MOL0     C28129   1.051   3.821   0.262  0.6121  0.4184 -0.1564
  209MOL0     C28130   1.116   3.814   0.383 -0.3237 -0.2646  0.0955
  209MOL0     N28131   1.294   4.075   0.966 -0.5748 -0.1925  0.1999
  209MOL0     N28132   1.319   4.136   1.078  0.1603  0.2629 -0.1554
  209MOL0     C28133   1.670   4.242   2.201  0.7567 -0.7606 -0.1047
  209MOL0     C28134   1.788   4.294   2.267 -0.3230  0.3978  0.2346
  209MOL0     C28135   2.156   4.354   2.459  0.7335 -0.0540  0.5784
  209MOL0     C28136   2.289   4.307   2.437 -0.2057 -0.8722  0.0040
  209MOL0     C28137   2.389   4.385   2.488  0.3340 -0.4498  0.4032
  209MOL0     C28138   2.364   4.496   2.572 -0.4578  0.2478  0.2569
  209MOL0     O28139   2.479   4.573   2.598  1.4548  0.0522 -0.7075
  209MOL0     C28140   2.475   4.707   2.657 -0.4688  0.3062  0.3631
  209MOL0     C28141   2.613   4.779   2.669 -0.9356  0.6650 -0.4046
  209MOL0     C28142   2.589   4.932   2.677  0.7492  1.3265 -0.5801
  209MOL0     C28143   2.531   4.975   2.817 -0.2133 -0.3257 -0.1893
  209MOL0     C28144   2.609   4.922   2.930  0.6678  0.3780  0.7195
  209MOL0     C28145   2.679   4.884   3.024 -0.6628  0.4673  0.6248
  209MOL0     C28146   2.236   4.534   2.588  0.3837  0.2753  0.4101
  209MOL0     C28147   2.132   4.467   2.524 -0.1809  0.5053 -0.4133
  209MOL0     H28148   1.736   4.154   2.566 -0.9669  0.4596  1.2156
  209MOL0     H28149   1.534   4.061   2.454  0.6629 -1.6834  0.0862
  209MOL0     H28150   1.292   4.177   2.089  0.7586 -4.3573 -3.9891
  209MOL0     H28151   1.409   4.297   2.096 -1.4651 -0.2608  1.6318
  209MOL0     H28152   1.562   4.135   1.944 -0.5246  4.1804 -2.5423
  209MOL0     H28153   1.420   4.018   1.967  1.6655 -0.9486  1.3166
  209MOL0     H28154   1.290   4.233   1.868  0.2696 -0.4735 -1.3344
  209MOL0     H28155   1.453   4.264   1.806  0.2728  0.1680  2.0283
  209MOL0     H28156   1.446   4.015   1.723 -1.7835 -1.6976 -0.9759
  209MOL0     H28157   1.276   4.036   1.745  1.1408 -1.3949 -3.0652
  209MOL0     H28158   1.323   4.264   1.599 -0.6843 -0.1991 -0.1484
  209MOL0     H28159   1.470   4.172   1.543 -1.7214 -0.3315 -3.1164
  209MOL0     H28160   1.284   3.971   1.516 -2.9246 -1.6053  1.6283
  209MOL0     H28161   1.175   4.102   1.552  2.4886  1.9853  1.2073
  209MOL0     H28162   1.197   4.063   1.310 -0.8466 -1.0432  1.6376
  209MOL0     H28163   1.269   4.227   1.354 -0.6599  0.0974 -0.9902
  209MOL0     H28164   1.451   3.992   1.356 -1.3184 -0.6718  0.3767
  209MOL0     H28165   1.483   4.161   1.309  0.8146 -0.5563  0.4309
  209MOL0     H28166   1.465   3.842   1.116 -1.0615 -0.4510  0.2655
  209MOL0     H28167   1.444   3.910   0.785 -0.2993  0.4531 -0.5710
  209MOL0     H28168   1.408   3.770   0.897 -3.4790 -0.1641  2.8466
  209MOL0     H28169   1.200   3.911   0.732 -0.3249  2.2852  3.0985
  209MOL0     H28170   1.166   3.798   0.860  0.8145 -0.1117  0.4713
  209MOL0     H28171   1.151   3.679   0.668 -1.0245 -0.3276  1.5618
  209MOL0     H28172   1.293   3.616   0.754  1.6609  0.3523 -0.9595
  209MOL0     H28173   1.334   3.622   0.526  0.5811 -2.6202  2.1972
  209MOL0     H28174   1.447   3.730   0.615  0.2256  1.1699 -1.8043
  209MOL0     H28175   1.445   3.833   0.269  1.0147  1.9480  2.1103
  209MOL0     H28176   1.368   3.745  -0.043  0.7281  1.2388 -0.5452
  209MOL0     H28177   1.276   3.894  -0.056 -2.1228 -0.8331  0.7652
  209MOL0     H28178   1.438   3.887   0.009  0.5595 -0.3785 -2.9362
  209MOL0     H28179   0.935   3.822  -0.235 -0.9020 -0.8815 -2.0264
  209MOL0     H28180   0.765   3.706  -0.402  1.6335 -1.4198  0.2830
  209MOL0     H28181   0.532   3.651  -0.497 -0.9758 -1.3471 -2.2486
  209MOL0     H28182   0.662   3.528  -0.469  1.0787 -0.1137  2.5386
  209MOL0     H28183   0.366   3.476  -0.505  1.2470  1.2766  1.8018
  209MOL0     H28184   0.471   3.460  -0.631  1.3273  2.2636  0.1370
  209MOL0     H28185   0.570   3.282  -0.582  1.3035  2.9507  0.5562
  209MOL0     H28186   0.397   3.255  -0.519  1.2377 -2.9662  0.6734
  209MOL0     H28187   0.642   3.300  -0.337 -0.2371  0.0721  1.0421
  209MOL0     H28188   0.480   3.326  -0.277 -0.7272  2.1999 -1.9039
  209MOL0     H28189   0.425   3.105  -0.318 -0.5098  3.3296 -0.9251
  209MOL0     H28190   0.582   3.104  -0.233 -4.2606  0.6029  2.6915
  209MOL0     H28191   0.530   3.049  -0.544  0.6273 -1.3859 -0.5936
  209MOL0     H28192   0.689   3.095  -0.464  0.1225  0.0960  0.3947
  209MOL0     H28193   0.624   2.911  -0.302 -2.1101 -0.0374  0.0467
  209MOL0     H28194   0.695   2.841  -0.458 -1.0662  0.6673 -3.1470
  209MOL0     H28195   0.485   2.812  -0.550  1.4249 -1.7661 -0.2905
  209MOL0     H28196   0.415   2.884  -0.404 -1.0281 -0.7652 -1.3095
  209MOL0     H28197   0.546   3.548  -0.076 -0.1150 -0.4750  1.1650
  209MOL0     H28198   0.721   3.653   0.088 -0.5140  0.7053 -0.2618
  209MOL0     H28199   0.942   3.820   0.259  0.5688 -2.9808 -2.6373
  209MOL0     H28200   1.063   3.799   0.476 -1.7567 -2.1975 -0.9583
  209MOL0     H28201   1.643   4.280   2.103 -0.1235 -0.6550  0.1727
  209MOL0     H28202   1.866   4.355   2.223  1.4267 -0.5421  1.9181
  209MOL0     H28203   2.312   4.225   2.369  0.1140 -1.0801  0.3584
  209MOL0     H28204   2.485   4.358   2.444  0.5144  2.7289 -1.5012
  209MOL0     H28205   2.410   4.776   2.604  0.6749 -0.6067 -2.4267
  209MOL0     H28206   2.433   4.699   2.758  0.0012 -0.2970  0.5226
  209MOL0     H28207   2.679   4.749   2.586  2.0011  2.6160  1.0547
  209MOL0     H28208   2.650   4.739   2.764 -2.2557 -2.4876 -1.0915
  209MOL0     H28209   2.521   4.960   2.596  3.6401  1.7253 -3.0545
  209MOL0     H28210   2.683   4.986   2.660  2.6004 -1.9248 -1.5930
  209MOL0     H28211   2.425   4.951   2.831 -0.2496 -1.7406 -2.5003
  209MOL0     H28212   2.526   5.085   2.821  1.3505 -0.2604  0.7260
  209MOL0     H28213   2.737   4.844   3.104  1.4042 -0.1783 -1.1033
  209MOL0     H28214   2.208   4.623   2.643  0.1915  0.4224  0.0791
  209MOL0     H28215   2.038   4.509   2.558  0.8945  0.0440  3.7958
  210MOL0     O28216   8.508   3.247   5.945 -0.6216  0.3522  0.5324
  210MOL0     C28217   8.390   3.215   5.970  1.0058 -0.3987  0.0813
  210MOL0     O28218   8.301   3.304   6.042 -0.3481 -0.2352 -0.3923
  210MOL0     C28219   8.350   3.425   6.077  0.1069  0.3421 -0.0783
  210MOL0     C28220   8.323   3.461   6.204  0.7510  0.7653 -0.6116
  210MOL0     C28221   8.363   3.580   6.253 -0.1190  0.5474  0.5146
  210MOL0     C28222   8.429   3.683   6.175  0.4325  0.4034  0.6094
  210MOL0     O28223   8.439   3.813   6.216 -1.0636 -0.3564 -0.0088
  210MOL0     C28224   8.562   3.876   6.197  0.7907  1.3664 -0.7524
  210MOL0     C28225   8.576   3.994   6.289  0.6248 -0.0014 -0.6515
  210MOL0     C28226   8.585   3.941   6.428 -0.9174 -0.4304  0.0815
  210MOL0     C28227   8.626   4.052   6.522 -0.4983 -0.0794  0.2860
  210MOL0     C28228   8.683   3.992   6.653 -0.3192 -0.0942  0.1448
  210MOL0     C28229   8.733   4.105   6.748  0.1671 -0.1207 -0.3719
  210MOL0     C28230   8.776   4.055   6.881 -0.2553  1.0462 -0.1053
  210MOL0     C28231   8.925   4.016   6.885 -0.1705 -0.5517  0.0029
  210MOL0     N28232   9.019   4.131   6.903  0.6612 -0.0940 -0.2152
  210MOL0     C28233   8.989   4.233   6.990  0.0835 -0.7808 -0.4427
  210MOL0     C28234   9.072   4.331   6.949 -0.5196 -0.3254  0.7459
  210MOL0     C28235   9.061   4.473   7.001 -0.5219  0.4136 -0.9383
  210MOL0     C28236   9.192   4.512   7.081  0.1193 -0.3742  0.3367
  210MOL0     C28237   9.319   4.549   7.006 -0.5849  0.1552  0.7453
  210MOL0     C28238   9.323   4.686   6.939  0.4024 -1.0573  0.0989
  210MOL0     O28239   9.337   4.784   7.047  0.5596  0.0992 -0.0184
  210MOL0     C28240   9.315   4.912   7.028  0.2569  0.1273 -0.0457
  210MOL0     C28241   9.212   4.975   6.960 -0.4672 -0.2030  0.2853
  210MOL0     C28242   9.212   5.122   6.943 -0.0329 -0.4930 -0.4099
  210MOL0     C28243   9.106   5.194   6.868 -0.8960 -1.0229  0.2214
  210MOL0     C28244   9.314   5.198   7.003 -0.5901 -0.6414  0.0448
  210MOL0     C28245   9.343   5.346   6.982  0.2236  0.0929  0.8767
  210MOL0     O28246   9.423   5.402   7.088  0.2958 -1.0549  0.1091
  210MOL0     C28247   9.518   5.512   7.061  0.0737 -0.3666 -0.5008
  210MOL0     C28248   9.589   5.548   7.175  0.8652  0.0092  0.1278
  210MOL0     C28249   9.682   5.659   7.183  0.9168  0.2457  0.3803
  210MOL0     C28250   9.695   5.735   7.068  0.9766  0.9031  0.2837
  210MOL0     O28251   9.771   5.855   7.062  0.1819  0.0832  0.1651
  210MOL0     C28252   9.760   5.928   7.184 -0.0156  0.1929  1.8836
  210MOL0     C28253   9.630   5.993   7.216  0.2240 -0.0712  0.8175
  210MOL0     C28254   9.594   6.096   7.109 -1.1283 -0.3346 -0.1740
  210MOL0     C28255   9.553   6.232   7.179  0.2728 -0.9452 -0.4730
  210MOL0     C28256   9.505   6.335   7.087 -0.4993  0.5064  0.9899
  210MOL0     C28257   9.500   6.471   7.159  0.3188 -0.3358  0.6471
  210MOL0     C28258   9.480   6.594   7.063 -0.6228  0.4667  0.0292
  210MOL0     C28259   9.544   6.725   7.115  0.4141 -0.7560 -0.5958
  210MOL0    Cl28260   9.470   6.777   7.260 -0.2116  1.2391  0.1647
  210MOL0     C28261   9.614   5.710   6.955 -0.4463 -0.0602  0.3117
  210MOL0     C28262   9.534   5.592   6.940 -0.3953 -0.1383 -0.8405
  210MOL0     O28263   9.307   5.402   6.887  0.0368  0.0425  0.5163
  210MOL0     C28264   9.409   5.124   7.076 -0.0446  1.0735  0.8338
  210MOL0     C28265   9.409   4.989   7.091 -0.3482  0.0796 -0.2432
  210MOL0     N28266   9.160   4.282   6.856 -0.2164 -0.6921 -0.2341
  210MOL0     N28267   9.125   4.163   6.825  0.1566 -0.6569 -0.1000
  210MOL0     C28268   8.447   3.652   6.039  0.1257 -0.2890 -1.1039
  210MOL0     C28269   8.425   3.516   5.997  0.0649  0.1799  0.4171
  210MOL0     C28270   8.337   3.080   5.925 -0.1443  0.0725  0.4564
  210MOL0     C28271   8.224   3.024   5.984 -0.6829 -0.3311 -0.1647
  210MOL0     C28272   8.180   2.898   5.948 -0.4449 -0.1090 -0.1878
  210MOL0     C28273   8.230   2.839   5.836 -0.2735  0.7065 -1.1559
  210MOL0     O28274   8.164   2.716   5.809 -0.3904  0.2084  0.1410
  210MOL0     C28275   8.241   2.611   5.734 -0.5389  0.4997 -1.2127
  210MOL0     C28276   8.209   2.477   5.800  0.0665 -0.0527 -0.0009
  210MOL0     C28277   8.270   2.356   5.739  1.0090 -1.0687 -0.2985
  210MOL0     C28278   8.402   2.304   5.787  0.1407  0.9600 -0.1327
  210MOL0     C28279   8.387   2.250   5.923  0.6607  0.1932 -0.3328
  210MOL0     C28280   8.374   2.195   6.028  0.0227  0.3849  0.5345
  210MOL0     C28281   8.333   2.902   5.758  0.3683 -0.2111 -0.4819
  210MOL0     C28282   8.392   3.018   5.807  0.7009 -0.3205 -0.2558
  210MOL0     H28283   8.272   3.394   6.273 -2.3663  2.1133 -1.4510
  210MOL0     H28284   8.331   3.595   6.356  0.2097  0.1986  0.6720
  210MOL0     H28285   8.649   3.811   6.212  1.9319  2.6761 -1.5127
  210MOL0     H28286   8.578   3.906   6.093  3.7040  2.5043 -0.0524
  210MOL0     H28287   8.663   4.055   6.266 -2.0870  3.8992 -1.4783
  210MOL0     H28288   8.486   4.055   6.279  0.8972  0.8740  1.6659
  210MOL0     H28289   8.499   3.880   6.457 -0.5963  0.0657  2.2043
  210MOL0     H28290   8.664   3.865   6.436 -3.0531 -2.9706 -1.0598
  210MOL0     H28291   8.703   4.112   6.472 -1.4308 -0.5515 -1.8418
  210MOL0     H28292   8.542   4.118   6.545 -0.0708 -0.4268  3.1916
  210MOL0     H28293   8.604   3.936   6.704  1.8318 -1.3697  2.2755
  210MOL0     H28294   8.764   3.920   6.636 -0.6987 -0.7765  1.1618
  210MOL0     H28295   8.809   4.168   6.700 -0.9296 -0.6650 -3.0271
  210MOL0     H28296   8.644   4.168   6.755  1.1521  1.1510  5.2552
  210MOL0     H28297   8.751   4.129   6.958 -0.3500  1.8197 -0.8608
  210MOL0     H28298   8.718   3.967   6.907 -1.9375  1.6336 -1.6802
  210MOL0     H28299   8.947   3.968   6.789 -0.1781  0.8520 -0.7256
  210MOL0     H28300   8.942   3.940   6.961  0.5194 -0.0311  0.3857
  210MOL0     H28301   8.917   4.240   7.070  2.3858 -2.3143  1.9085
  210MOL0     H28302   9.038   4.548   6.924  2.8220  2.1410 -0.4403
  210MOL0     H28303   8.978   4.473   7.072  0.9421 -4.2208  1.1726
  210MOL0     H28304   9.224   4.437   7.154  5.1283 -0.2657 -1.3515
  210MOL0     H28305   9.162   4.604   7.132 -0.7624 -0.5040  0.0720
  210MOL0     H28306   9.351   4.466   6.943 -1.4720  0.8994 -0.7322
  210MOL0     H28307   9.403   4.553   7.076  2.0175  0.1171 -2.1800
  210MOL0     H28308   9.233   4.691   6.878 -0.4658  1.2883  1.4313
  210MOL0     H28309   9.409   4.696   6.872 -0.9505  1.2262 -1.4219
  210MOL0     H28310   9.133   4.914   6.917  1.7318 -1.2153 -2.6326
  210MOL0     H28311   9.144   5.247   6.781  0.5556  1.8370  2.4559
  210MOL0     H28312   9.026   5.129   6.830  0.7111 -2.4627 -0.8439
  210MOL0     H28313   9.053   5.268   6.928 -2.2652  0.7731 -2.9831
  210MOL0     H28314   9.565   5.485   7.260 -2.5741 -1.2039 -1.5905
  210MOL0     H28315   9.740   5.680   7.272 -0.6955  2.4846  0.9916
  210MOL0     H28316   9.793   5.864   7.267  1.1238 -0.7589  0.7354
  210MOL0     H28317   9.836   6.006   7.186  4.1889 -3.4847  1.2296
  210MOL0     H28318   9.558   5.912   7.229 -0.6329  0.9064  2.3815
  210MOL0     H28319   9.634   6.031   7.318 -0.7410 -2.4459  1.8083
  210MOL0     H28320   9.521   6.061   7.036  2.1162 -3.4130 -2.2513
  210MOL0     H28321   9.673   6.116   7.036  0.8815 -0.1519  1.9419
  210MOL0     H28322   9.475   6.219   7.256  0.5568  1.0109  0.2112
  210MOL0     H28323   9.644   6.265   7.229 -0.4800  3.1260 -1.3905
  210MOL0     H28324   9.415   6.297   7.037  2.5163 -4.0542 -1.7575
  210MOL0     H28325   9.580   6.352   7.010 -2.0222  1.5690 -0.3347
  210MOL0     H28326   9.417   6.473   7.230  1.0854 -0.5443  1.5778
  210MOL0     H28327   9.588   6.473   7.225  0.4018 -4.2227  0.8982
  210MOL0     H28328   9.375   6.619   7.047 -0.7653  0.2069  0.5206
  210MOL0     H28329   9.522   6.564   6.967 -0.3593 -2.6741  1.0141
  210MOL0     H28330   9.548   6.802   7.038  0.4471 -1.1227 -0.9647
  210MOL0     H28331   9.643   6.701   7.154 -0.3387  0.0134  1.9823
  210MOL0     H28332   9.614   5.783   6.874  2.2934  0.4349  0.6725
  210MOL0     H28333   9.478   5.581   6.847  1.6114  1.7580 -2.4048
  210MOL0     H28334   9.500   5.161   7.122  1.7953 -1.6216 -0.3853
  210MOL0     H28335   9.491   4.938   7.139 -0.3886  0.6239  0.4102
  210MOL0     H28336   8.485   3.715   5.959  2.0181  1.8186  1.2924
  210MOL0     H28337   8.451   3.501   5.893 -1.0769 -1.3549  0.3153
  210MOL0     H28338   8.168   3.052   6.073  0.0229 -0.6535  0.3912
  210MOL0     H28339   8.107   2.835   5.998  2.0679 -1.2583  2.2740
  210MOL0     H28340   8.200   2.614   5.633  0.2412  3.7855 -1.5405
  210MOL0     H28341   8.349   2.620   5.729 -0.2325 -1.1997  0.9152
  210MOL0     H28342   8.101   2.460   5.810  0.6856 -3.1970  3.3278
  210MOL0     H28343   8.243   2.483   5.903 -1.7624 -0.4841  0.6728
  210MOL0     H28344   8.279   2.380   5.633  2.0722  1.8237  0.3563
  210MOL0     H28345   8.196   2.276   5.751 -0.6763  0.5837  1.0119
  210MOL0     H28346   8.476   2.385   5.784 -0.8090  1.8488 -0.1114
  210MOL0     H28347   8.436   2.220   5.726 -0.4370 -0.7894  1.8158
  210MOL0     H28348   8.344   2.155   6.122  1.5073 -1.2767  0.3447
  210MOL0     H28349   8.352   2.852   5.664 -3.8056  2.1627 -2.8411
  210MOL0     H28350   8.471   3.066   5.750 -0.7048 -1.0048 -2.9278
  211MOL0     O28351   3.449  11.304   0.752  0.2534 -0.4040 -0.1256
  211MOL0     C28352   3.510  11.389   0.813 -0.3158 -0.6067  0.0912
  211MOL0     O28353   3.647  11.399   0.813 -0.4291 -0.2958  0.7191
  211MOL0     C28354   3.718  11.333   0.715 -0.3202  0.1393 -0.6540
  211MOL0     C28355   3.777  11.418   0.623  0.5216  0.6721 -0.3678
  211MOL0     C28356   3.864  11.354   0.520  0.3249 -0.3728 -0.3324
  211MOL0     C28357   3.893  11.215   0.528 -0.1024 -0.4784 -0.2935
  211MOL0     O28358   3.970  11.147   0.435  0.4873 -0.7130 -0.1333
  211MOL0     C28359   4.048  11.216   0.339 -0.1633 -0.8965  0.1038
  211MOL0     C28360   4.156  11.126   0.278  0.4591  0.6534  0.7928
  211MOL0     C28361   4.220  11.180   0.146  0.4144 -0.5001 -0.4352
  211MOL0     C28362   4.368  11.207   0.165 -0.4763  0.1670 -0.0384
  211MOL0     C28363   4.431  11.279   0.045 -0.9492  0.0593 -0.4837
  211MOL0     C28364   4.564  11.346   0.070 -0.5529 -0.0679  0.1573
  211MOL0     C28365   4.557  11.466   0.167 -0.4076  0.1287  0.2639
  211MOL0     C28366   4.518  11.596   0.094  0.5103  0.9490 -0.5676
  211MOL0     N28367   4.406  11.669   0.167  1.3434  0.1075 -0.0409
  211MOL0     C28368   4.272  11.636   0.180  0.5459 -0.2657  0.5793
  211MOL0     C28369   4.205  11.752   0.220 -0.4653  0.0936 -0.0703
  211MOL0     C28370   4.064  11.743   0.257 -0.2385 -0.0090 -0.3846
  211MOL0     C28371   3.984  11.680   0.145 -0.3966  0.6557 -0.8370
  211MOL0     C28372   3.835  11.668   0.182  0.5625 -0.2031  0.7318
  211MOL0     C28373   3.772  11.808   0.198 -0.2681 -0.5572 -0.3230
  211MOL0     O28374   3.811  11.914   0.108  0.1492  0.4466  0.9760
  211MOL0     C28375   3.758  11.905  -0.018  0.0636  0.0626  0.0345
  211MOL0     C28376   3.672  11.799  -0.062  0.1790  0.9059  0.7714
  211MOL0     C28377   3.619  11.799  -0.195  0.7898 -0.4041 -0.5859
  211MOL0     C28378   3.530  11.684  -0.234  0.0588  0.2795 -0.5919
  211MOL0     C28379   3.657  11.904  -0.283 -1.0362 -0.1018  0.9940
  211MOL0     C28380   3.598  11.908  -0.422 -0.3220 -0.0457  0.2087
  211MOL0     O28381   3.683  11.905  -0.535  0.3536 -0.6953 -0.5590
  211MOL0     C28382   3.627  11.867  -0.649  0.1034 -0.0049  0.4762
  211MOL0     C28383   3.577  11.739  -0.687  0.7053 -0.3550 -0.0354
  211MOL0     C28384   3.518  11.722  -0.808  0.2342 -0.3456  0.8180
  211MOL0     C28385   3.512  11.819  -0.899  0.6091 -0.1049  0.3547
  211MOL0     O28386   3.444  11.808  -1.015  0.1151 -0.4591 -0.8238
  211MOL0     C28387   3.525  11.782  -1.133  0.3804  0.3784  0.0495
  211MOL0     C28388   3.542  11.636  -1.177 -0.0597 -1.3510 -0.7221
  211MOL0     C28389   3.422  11.597  -1.267 -0.4543  1.2790 -0.0093
  211MOL0     C28390   3.445  11.632  -1.414 -0.4528 -0.6836 -0.1934
  211MOL0     C28391   3.314  11.616  -1.500  0.7019 -0.3172 -0.0445
  211MOL0     C28392   3.346  11.662  -1.646 -0.5654 -0.5427 -0.4178
  211MOL0     C28393   3.223  11.645  -1.727 -0.1472 -0.5153  0.7162
  211MOL0     C28394   3.248  11.632  -1.873  0.2786  0.3773  0.3820
  211MOL0    Cl28395   3.348  11.777  -1.925  0.2875  0.5137 -0.0552
  211MOL0     C28396   3.578  11.935  -0.873  0.4159 -0.3429 -1.3720
  211MOL0     C28397   3.628  11.963  -0.752  1.0301  0.1033 -0.1947
  211MOL0     O28398   3.477  11.914  -0.426  0.0117 -0.1978  0.6759
  211MOL0     C28399   3.740  12.016  -0.238 -0.2186  0.5491 -0.8816
  211MOL0     C28400   3.802  11.995  -0.110  0.5519  0.0651 -0.0648
  211MOL0     N28401   4.298  11.856   0.226 -0.5537  0.5799  0.1006
  211MOL0     N28402   4.416  11.801   0.198  0.0691  0.8419 -0.6997
  211MOL0     C28403   3.817  11.138   0.616 -0.7725  0.7025 -0.3075
  211MOL0     C28404   3.740  11.197   0.720 -0.9690  0.5270  0.0431
  211MOL0     C28405   3.428  11.484   0.898 -0.3295  1.2969  0.5034
  211MOL0     C28406   3.287  11.476   0.908  0.3264 -0.3031  0.4574
  211MOL0     C28407   3.217  11.569   0.979  0.7635 -0.6549 -0.3307
  211MOL0     C28408   3.282  11.671   1.057  0.4781 -0.1725 -0.5551
  211MOL0     O28409   3.208  11.768   1.118  0.3211 -0.3762 -0.2629
  211MOL0     C28410   3.065  11.740   1.145 -0.0477  0.0363  0.3800
  211MOL0     C28411   3.012  11.841   1.252 -0.1216 -0.0677  0.8212
  211MOL0     C28412   3.061  11.799   1.402  0.6966 -0.5202 -0.5788
  211MOL0     C28413   2.994  11.883   1.506  1.2731  0.3330 -0.5763
  211MOL0     C28414   2.853  11.846   1.519 -0.2382  0.0862  0.0643
  211MOL0     C28415   2.738  11.813   1.547  0.0825  0.4993  0.0983
  211MOL0     C28416   3.425  11.673   1.047  0.6931 -0.3552 -0.4882
  211MOL0     C28417   3.489  11.583   0.971 -0.4067  0.0496 -1.2186
  211MOL0     H28418   3.766  11.526   0.623 -2.8435  0.4429  0.6160
  211MOL0     H28419   3.919  11.417   0.451  1.9785 -0.0931  1.1815
  211MOL0     H28420   3.995  11.247   0.248  2.1480  2.2036 -0.3740
  211MOL0     H28421   4.091  11.311   0.372  1.1057 -0.2448 -3.0270
  211MOL0     H28422   4.227  11.094   0.355  2.5056 -0.0324 -1.2684
  211MOL0     H28423   4.101  11.042   0.236 -1.3216  2.5763 -0.9616
  211MOL0     H28424   4.192  11.113   0.064 -0.6773 -1.8241  0.9537
  211MOL0     H28425   4.169  11.276   0.135 -0.8978 -1.2549 -1.3612
  211MOL0     H28426   4.393  11.251   0.262 -0.9314 -1.9639  1.1336
  211MOL0     H28427   4.413  11.107   0.172  0.5132  0.5516 -0.6312
  211MOL0     H28428   4.451  11.207  -0.036 -2.4844  1.8162 -2.5524
  211MOL0     H28429   4.365  11.347  -0.010  3.7280  4.3177 -1.6475
  211MOL0     H28430   4.624  11.270   0.123 -0.3175  1.3239  1.9870
  211MOL0     H28431   4.616  11.375  -0.022  1.6962  1.6073  1.8226
  211MOL0     H28432   4.486  11.437   0.245  2.4436 -3.4648  1.7842
  211MOL0     H28433   4.651  11.480   0.221 -1.0008 -2.3196  2.1038
  211MOL0     H28434   4.482  11.568  -0.005  3.4638 -2.0897 -0.9750
  211MOL0     H28435   4.606  11.660   0.087  0.4514  1.0514 -0.3688
  211MOL0     H28436   4.236  11.535   0.163 -1.4237  0.2479  1.4580
  211MOL0     H28437   4.050  11.676   0.343 -2.8296  1.4587  0.4221
  211MOL0     H28438   4.019  11.841   0.276 -2.9682 -1.2588  0.0402
  211MOL0     H28439   4.023  11.579   0.129  0.0651  0.9156 -1.3830
  211MOL0     H28440   4.003  11.739   0.054 -0.8203  0.0217 -1.3434
  211MOL0     H28441   3.827  11.615   0.277  1.5854  1.2440  1.6680
  211MOL0     H28442   3.777  11.612   0.109  0.3674  1.8489 -0.7891
  211MOL0     H28443   3.801  11.836   0.299 -3.7962 -3.4182  1.7221
  211MOL0     H28444   3.664  11.792   0.200 -0.1853 -1.1323 -0.2112
  211MOL0     H28445   3.634  11.716  -0.005 -0.4828 -0.4814 -1.5437
  211MOL0     H28446   3.549  11.598  -0.170  3.8162  0.3446 -1.3904
  211MOL0     H28447   3.423  11.706  -0.242 -0.3726 -2.1711 -2.8167
  211MOL0     H28448   3.558  11.645  -0.333  0.7804 -2.7295  0.6925
  211MOL0     H28449   3.588  11.660  -0.613  0.6847  1.1538  1.6474
  211MOL0     H28450   3.465  11.633  -0.841  1.6416 -1.8103  2.3415
  211MOL0     H28451   3.485  11.839  -1.217  0.3038  0.1289 -0.0859
  211MOL0     H28452   3.623  11.829  -1.118 -0.0476  0.8608  1.4178
  211MOL0     H28453   3.637  11.631  -1.230  0.4846  0.8778 -0.0514
  211MOL0     H28454   3.557  11.575  -1.087 -0.6153 -0.9328 -0.3400
  211MOL0     H28455   3.324  11.628  -1.230 -1.4951 -2.5756  0.9131
  211MOL0     H28456   3.425  11.488  -1.259 -2.0918  1.3232  1.7964
  211MOL0     H28457   3.480  11.731  -1.444 -0.6444 -1.1635 -2.1419
  211MOL0     H28458   3.516  11.554  -1.444  1.8425  0.5330  1.7190
  211MOL0     H28459   3.240  11.680  -1.452 -1.4414 -1.6932 -1.3460
  211MOL0     H28460   3.260  11.521  -1.506  1.0541 -0.4667 -1.0549
  211MOL0     H28461   3.372  11.768  -1.636 -2.6229  0.1739 -1.9359
  211MOL0     H28462   3.433  11.608  -1.684 -0.6854 -2.5901  1.9611
  211MOL0     H28463   3.152  11.725  -1.705  0.3672  0.8447 -2.2032
  211MOL0     H28464   3.178  11.551  -1.693  0.0524 -1.2883 -1.0366
  211MOL0     H28465   3.153  11.633  -1.925 -0.4117 -0.5569  1.5682
  211MOL0     H28466   3.310  11.548  -1.905 -1.0145 -0.8070  0.9280
  211MOL0     H28467   3.588  12.011  -0.950  0.3321  2.1393  0.9205
  211MOL0     H28468   3.661  12.063  -0.723  0.2319 -0.1849  1.8792
  211MOL0     H28469   3.737  12.111  -0.290 -0.5343  2.9818  3.1322
  211MOL0     H28470   3.877  12.063  -0.069 -0.7802  2.1406 -0.8956
  211MOL0     H28471   3.820  11.030   0.606 -1.6556  0.6902 -0.5080
  211MOL0     H28472   3.690  11.141   0.798  0.2217 -0.9549 -0.2151
  211MOL0     H28473   3.232  11.397   0.858 -1.8062  2.9194 -2.8116
  211MOL0     H28474   3.109  11.565   0.977  0.7977 -3.4279 -0.5276
  211MOL0     H28475   3.008  11.758   1.053 -1.6961 -0.2157  1.3259
  211MOL0     H28476   3.043  11.636   1.169  1.2897  0.2576  2.9106
  211MOL0     H28477   2.904  11.855   1.237 -0.0881 -2.0629 -2.1514
  211MOL0     H28478   3.047  11.942   1.229 -4.2332  1.3638 -0.0463
  211MOL0     H28479   3.168  11.818   1.410  0.9736 -2.5456  1.7033
  211MOL0     H28480   3.046  11.692   1.419 -0.9114 -0.6480 -2.4642
  211MOL0     H28481   2.998  11.992   1.493 -1.8979  0.5134 -0.8923
  211MOL0     H28482   3.029  11.851   1.605  0.6719 -0.0377 -0.4789
  211MOL0     H28483   2.641  11.767   1.556  0.5742 -0.9325 -1.3339
  211MOL0     H28484   3.484  11.740   1.108  1.5977 -4.0828  3.1943
  211MOL0     H28485   3.598  11.581   0.967 -0.4395  0.3421 -3.0581
  212MOL0     O28486  11.362   2.994   8.617 -0.0401  0.5100  0.0733
  212MOL0     C28487  11.326   3.043   8.510  0.2165  0.2450 -0.0627
  212MOL0     O28488  11.203   3.097   8.483  0.0317  0.2272  0.0502
  212MOL0     C28489  11.120   3.152   8.583 -0.9395 -0.0852 -0.6243
  212MOL0     C28490  11.158   3.203   8.712 -0.2796  0.2566  0.2532
  212MOL0     C28491  11.069   3.256   8.794 -0.3228  0.2376 -0.7001
  212MOL0     C28492  10.932   3.255   8.767  0.6253  0.1904 -0.1637
  212MOL0     O28493  10.835   3.300   8.844 -0.5137  0.6216 -0.0489
  212MOL0     C28494  10.874   3.382   8.951  1.1046  0.3034 -0.3483
  212MOL0     C28495  10.750   3.436   9.014 -0.5474  0.6766  0.5179
  212MOL0     C28496  10.773   3.477   9.156 -0.8445  0.7957  1.2663
  212MOL0     C28497  10.717   3.378   9.254 -0.0861  0.0702  0.4986
  212MOL0     C28498  10.570   3.397   9.277  0.7604  0.1058  0.5233
  212MOL0     C28499  10.520   3.363   9.417 -1.2826 -0.1898 -0.7364
  212MOL0     C28500  10.536   3.214   9.456  0.2493 -0.7589  0.1179
  212MOL0     C28501  10.647   3.191   9.566 -0.4702  0.8727 -0.4713
  212MOL0     N28502  10.660   3.050   9.591  0.0014 -0.2320  0.0227
  212MOL0     C28503  10.740   2.970   9.510  0.3046 -0.0169  0.3574
  212MOL0     C28504  10.716   2.847   9.568 -0.1152  0.5966  0.2551
  212MOL0     C28505  10.789   2.726   9.522 -0.3198 -0.2549 -0.2345
  212MOL0     C28506  10.912   2.707   9.606  0.0007  0.4568 -0.7303
  212MOL0     C28507  10.878   2.654   9.747 -0.3298  0.6522 -0.7860
  212MOL0     C28508  11.009   2.611   9.804  0.0271  0.1638 -0.9280
  212MOL0     O28509  11.116   2.708   9.799 -0.0911  0.9394  0.7871
  212MOL0     C28510  11.240   2.662   9.828  0.0250 -0.5926 -1.1389
  212MOL0     C28511  11.334   2.758   9.813 -0.2572 -0.0463 -0.2110
  212MOL0     C28512  11.467   2.751   9.862 -0.5648 -0.4354  0.8608
  212MOL0     C28513  11.552   2.872   9.853  1.1234 -0.0394 -1.4757
  212MOL0     C28514  11.510   2.620   9.901  0.4306 -0.2480 -0.4789
  212MOL0     C28515  11.653   2.593   9.949  0.1737  0.3507 -1.0244
  212MOL0     O28516  11.682   2.463   9.953 -0.4251  0.7744  0.7838
  212MOL0     C28517  11.802   2.431  10.009 -1.4854 -0.1825 -0.1515
  212MOL0     C28518  11.829   2.460  10.141  0.4880 -0.6336 -1.1608
  212MOL0     C28519  11.967   2.444  10.182  0.3159  1.0292 -0.0514
  212MOL0     C28520  12.067   2.395  10.106 -0.5779  0.2283  0.0097
  212MOL0     O28521  12.184   2.369  10.172  0.0883 -0.0773  0.0592
  212MOL0     C28522  12.292   2.447  10.144  0.0045 -0.2816  0.3108
  212MOL0     C28523  12.336   2.504  10.277  0.4402 -1.3538  0.9930
  212MOL0     C28524  12.484   2.521  10.268 -1.1258  0.1904 -1.1364
  212MOL0     C28525  12.531   2.607  10.390  0.4308 -0.3631  0.3339
  212MOL0     C28526  12.683   2.627  10.393  0.4679  0.2885 -0.1115
  212MOL0     C28527  12.731   2.709  10.283  0.1108 -0.5011  0.4251
  212MOL0     C28528  12.883   2.696  10.300  1.1945  0.0929  0.3257
  212MOL0     C28529  12.945   2.770  10.177 -0.3174 -0.0583 -0.1870
  212MOL0    Cl28530  13.108   2.819  10.227 -0.1989 -0.0543 -0.1040
  212MOL0     C28531  12.036   2.355   9.975 -0.8883  0.1205  0.2920
  212MOL0     C28532  11.904   2.381   9.928  0.8276  0.3148  0.7995
  212MOL0     O28533  11.728   2.683   9.975 -0.2274  0.5136 -0.1438
  212MOL0     C28534  11.416   2.511   9.893  0.2075  0.0683  0.3948
  212MOL0     C28535  11.281   2.536   9.862 -0.4618  0.6190  0.4001
  212MOL0     N28536  10.628   2.863   9.671  0.6699 -0.4907 -0.6002
  212MOL0     N28537  10.583   2.979   9.673  0.3871 -0.2635 -0.8592
  212MOL0     C28538  10.887   3.204   8.642  0.2270 -0.1015 -0.8515
  212MOL0     C28539  10.984   3.163   8.550 -0.0264  0.4816  0.2062
  212MOL0     C28540  11.424   3.060   8.405 -0.1391  0.3547  0.8097
  212MOL0     C28541  11.392   3.111   8.280 -0.5472 -0.0220  0.2261
  212MOL0     C28542  11.496   3.152   8.190  0.3213 -0.2048  0.4796
  212MOL0     C28543  11.626   3.147   8.224  0.1183 -0.2378 -0.7616
  212MOL0     O28544  11.713   3.195   8.133 -0.0134 -0.2486 -0.2432
  212MOL0     C28545  11.856   3.168   8.138  0.0663  0.3633  0.0262
  212MOL0     C28546  11.909   3.189   8.001 -1.0380 -0.2919  0.1492
  212MOL0     C28547  11.890   3.341   7.962  0.7466  0.3774 -0.2485
  212MOL0     C28548  11.943   3.349   7.820  0.4460 -0.8658 -0.0927
  212MOL0     C28549  11.911   3.487   7.777  0.0628  0.1030  1.0279
  212MOL0     C28550  11.859   3.594   7.747  0.2500  0.9868 -0.0488
  212MOL0     C28551  11.651   3.096   8.355  0.0485  0.6762 -0.2516
  212MOL0     C28552  11.558   3.043   8.438  0.1065  0.1666  0.0931
  212MOL0     H28553  11.264   3.203   8.735 -0.3034  0.4556  0.3687
  212MOL0     H28554  11.091   3.309   8.886 -0.4108 -1.4880  0.3733
  212MOL0     H28555  10.935   3.317   9.015  0.6068 -1.0272 -1.1896
  212MOL0     H28556  10.934   3.471   8.928 -0.2527  1.0010 -1.3100
  212MOL0     H28557  10.718   3.519   8.949  1.2115 -1.3858 -3.2605
  212MOL0     H28558  10.671   3.361   9.001 -0.1164  0.1872  0.7587
  212MOL0     H28559  10.881   3.487   9.171  0.0482 -1.0606 -2.5780
  212MOL0     H28560  10.725   3.573   9.178  0.3126  1.1690  2.2533
  212MOL0     H28561  10.740   3.276   9.220 -0.0706  1.1187 -2.9892
  212MOL0     H28562  10.765   3.398   9.351  2.1035  1.2882 -0.7673
  212MOL0     H28563  10.546   3.501   9.251 -0.1211  0.3126  2.0301
  212MOL0     H28564  10.529   3.335   9.196 -0.6452 -0.0317  1.3030
  212MOL0     H28565  10.570   3.423   9.493 -0.3827 -1.7851 -0.0133
  212MOL0     H28566  10.413   3.383   9.422 -1.1554  1.7671 -3.4741
  212MOL0     H28567  10.442   3.169   9.491 -0.6292  0.0953 -1.0472
  212MOL0     H28568  10.555   3.147   9.371 -1.0752 -0.3076 -0.5640
  212MOL0     H28569  10.630   3.253   9.655  1.8963  1.5061 -0.4002
  212MOL0     H28570  10.747   3.221   9.534 -0.6966 -0.6003 -2.8104
  212MOL0     H28571  10.799   3.002   9.425 -2.4516 -0.1902 -1.7390
  212MOL0     H28572  10.720   2.642   9.535 -2.7980  1.9259  1.8039
  212MOL0     H28573  10.823   2.748   9.421  1.5258  0.9153  0.5871
  212MOL0     H28574  10.979   2.794   9.616 -0.0699  0.3731  0.7218
  212MOL0     H28575  10.977   2.636   9.555 -0.6441 -0.0156 -0.8997
  212MOL0     H28576  10.819   2.562   9.743  1.6354 -0.8542  1.5805
  212MOL0     H28577  10.827   2.734   9.800  1.8537  0.0972  2.4796
  212MOL0     H28578  11.038   2.520   9.752 -0.8586  1.9077 -4.7919
  212MOL0     H28579  10.996   2.590   9.911  0.7597  0.8578 -0.6920
  212MOL0     H28580  11.296   2.853   9.777 -0.7132 -0.2518 -0.2841
  212MOL0     H28581  11.617   2.892   9.938 -2.5831  1.7035  1.2529
  212MOL0     H28582  11.606   2.859   9.759  2.9243 -0.6284 -0.3914
  212MOL0     H28583  11.487   2.960   9.841  4.1394  2.3698 -1.4978
  212MOL0     H28584  11.757   2.488  10.217 -0.5296  1.6360 -2.8290
  212MOL0     H28585  11.995   2.458  10.286  1.7381 -1.0629 -0.0949
  212MOL0     H28586  12.370   2.380  10.107  2.1844  2.0199  0.4955
  212MOL0     H28587  12.270   2.526  10.071  1.0700  0.2941  0.5896
  212MOL0     H28588  12.273   2.591  10.298  0.8202 -0.5732 -0.8686
  212MOL0     H28589  12.322   2.429  10.355 -0.1754 -3.2558 -0.8314
  212MOL0     H28590  12.523   2.566  10.177  3.3247  1.0017  0.9308
  212MOL0     H28591  12.536   2.425  10.274 -0.9835  0.2124 -1.8717
  212MOL0     H28592  12.480   2.703  10.385  0.3873 -0.1729  2.9855
  212MOL0     H28593  12.510   2.559  10.487  0.7086  1.4435  1.3296
  212MOL0     H28594  12.731   2.529  10.402 -1.2683 -0.4579  1.6644
  212MOL0     H28595  12.709   2.678  10.486  0.2749  2.9125 -1.4097
  212MOL0     H28596  12.695   2.667  10.189  1.7956 -2.3254  0.5236
  212MOL0     H28597  12.696   2.811  10.299 -1.3181 -1.2024  1.9733
  212MOL0     H28598  12.915   2.592  10.286  0.4969 -0.0104 -0.5700
  212MOL0     H28599  12.930   2.730  10.393  5.0484 -2.3125 -0.4903
  212MOL0     H28600  12.898   2.868  10.161 -0.8722 -0.6714 -2.7144
  212MOL0     H28601  12.957   2.720  10.081  0.1912 -0.2882 -0.0033
  212MOL0     H28602  12.113   2.301   9.920  1.5056  2.1142  1.4942
  212MOL0     H28603  11.888   2.356   9.824  2.4012 -0.8228  0.7992
  212MOL0     H28604  11.459   2.412   9.902  1.2497  0.4895  0.3019
  212MOL0     H28605  11.230   2.441   9.853  1.8747 -0.9261  2.2453
  212MOL0     H28606  10.781   3.185   8.630 -0.1377  0.5809  0.9639
  212MOL0     H28607  10.945   3.099   8.471  0.2678 -3.2221  2.7697
  212MOL0     H28608  11.293   3.145   8.252  0.6547  4.4591  0.5983
  212MOL0     H28609  11.452   3.201   8.103 -0.9722  0.7642  1.6249
  212MOL0     H28610  11.913   3.242   8.195  2.7066 -0.5723 -1.2618
  212MOL0     H28611  11.888   3.066   8.163  2.1901  1.2760  1.3189
  212MOL0     H28612  11.844   3.129   7.935 -0.6866  0.3922 -0.8343
  212MOL0     H28613  12.013   3.158   7.990  0.0714  1.5681  3.7000
  212MOL0     H28614  11.939   3.405   8.035  2.8596 -0.1426 -1.1472
  212MOL0     H28615  11.782   3.357   7.968  0.3322 -1.9905 -0.0917
  212MOL0     H28616  11.898   3.274   7.754 -1.1656 -0.1444  0.1163
  212MOL0     H28617  12.050   3.331   7.816  0.3927 -1.7075  1.2953
  212MOL0     H28618  11.817   3.691   7.729 -0.6610  0.8562  1.2733
  212MOL0     H28619  11.752   3.111   8.391 -0.8561  2.2888  1.8648
  212MOL0     H28620  11.588   3.002   8.533  1.3578  1.5119  0.3114
  213MOL0     O28621   2.369   6.427   2.779  0.2675 -0.3588 -0.2915
  213MOL0     C28622   2.300   6.339   2.734 -0.0465  0.2761  0.3085
  213MOL0     O28623   2.190   6.276   2.798  0.7293 -0.0285  0.2834
  213MOL0     C28624   2.185   6.258   2.933 -0.2676 -0.9595 -0.2769
  213MOL0     C28625   2.202   6.135   3.001  0.1536 -0.5603  1.1140
  213MOL0     C28626   2.206   6.143   3.139 -0.7875  0.1446 -0.4040
  213MOL0     C28627   2.179   6.259   3.218  0.7074  0.4500  1.0215
  213MOL0     O28628   2.179   6.233   3.357 -0.0206 -0.3290  0.0885
  213MOL0     C28629   2.171   6.346   3.441 -0.1638 -0.4199 -0.9784
  213MOL0     C28630   2.162   6.278   3.587 -0.8682 -0.3656 -0.1024
  213MOL0     C28631   2.196   6.371   3.705  0.4882  0.6580  0.2840
  213MOL0     C28632   2.222   6.299   3.840  0.1103 -0.2484 -0.2841
  213MOL0     C28633   2.269   6.391   3.962 -0.4559  0.3098  0.4565
  213MOL0     C28634   2.309   6.305   4.080 -0.1091  0.6855  0.3255
  213MOL0     C28635   2.381   6.377   4.196  0.1095  0.9715 -0.0102
  213MOL0     C28636   2.420   6.300   4.328  0.0623 -0.1973  0.2542
  213MOL0     N28637   2.524   6.202   4.318  0.3265  0.9335  0.5736
  213MOL0     C28638   2.660   6.217   4.300  0.3215 -0.1251 -0.1882
  213MOL0     C28639   2.720   6.095   4.325 -0.6324  0.1112 -0.3675
  213MOL0     C28640   2.862   6.049   4.346 -0.0187 -0.2136  0.1031
  213MOL0     C28641   2.920   5.983   4.226 -0.1526 -0.0497  0.4049
  213MOL0     C28642   2.900   5.833   4.225  0.0463  0.3308 -0.5044
  213MOL0     C28643   2.937   5.754   4.104 -0.4083  0.5543  0.9975
  213MOL0     O28644   3.076   5.784   4.070  0.5978  0.0754  0.5605
  213MOL0     C28645   3.150   5.712   3.978  0.2834 -0.0040  0.1609
  213MOL0     C28646   3.275   5.751   3.942 -0.1719 -0.5142 -0.7887
  213MOL0     C28647   3.359   5.685   3.851 -0.7643 -0.0459  0.1370
  213MOL0     C28648   3.492   5.742   3.820 -0.3125 -0.3900 -0.5191
  213MOL0     C28649   3.301   5.578   3.783 -0.4552 -0.0526  0.0735
  213MOL0     C28650   3.362   5.513   3.662  1.0445 -0.9206 -0.1310
  213MOL0     O28651   3.318   5.387   3.639 -0.7069  0.5114 -0.0936
  213MOL0     C28652   3.352   5.334   3.511  0.0005  0.4205  0.2885
  213MOL0     C28653   3.257   5.320   3.410  0.5050  0.0233  0.4576
  213MOL0     C28654   3.275   5.245   3.292  0.3121  0.2391 -0.9657
  213MOL0     C28655   3.401   5.183   3.274  0.3129 -0.3932 -0.4203
  213MOL0     O28656   3.403   5.098   3.172 -0.6708  0.6914 -0.8445
  213MOL0     C28657   3.423   4.955   3.203  0.3657 -0.9203  1.2278
  213MOL0     C28658   3.428   4.875   3.074  1.1593 -0.4620 -0.8548
  213MOL0     C28659   3.560   4.912   3.010  0.2702 -0.7552  0.2444
  213MOL0     C28660   3.610   4.777   2.967  0.5385  0.7078 -0.7189
  213MOL0     C28661   3.737   4.779   2.889 -0.3010 -0.2259  1.0365
  213MOL0     C28662   3.797   4.638   2.856  0.0771  0.3877  0.4600
  213MOL0     C28663   3.694   4.542   2.792  0.0980  0.2195  0.0003
  213MOL0     C28664   3.773   4.416   2.731 -0.3509  0.7526  0.3967
  213MOL0    Cl28665   3.835   4.469   2.578 -0.0316 -0.2728 -0.1889
  213MOL0     C28666   3.507   5.206   3.367 -1.0699 -0.6930  1.1182
  213MOL0     C28667   3.479   5.278   3.482 -0.9203 -0.6938  1.0188
  213MOL0     O28668   3.437   5.574   3.590  0.9568  0.0548  0.1587
  213MOL0     C28669   3.181   5.525   3.830 -0.8364  0.9182 -0.3374
  213MOL0     C28670   3.104   5.596   3.915 -0.4578 -0.6344 -0.7184
  213MOL0     N28671   2.614   6.004   4.342  0.0390  0.0755  0.6956
  213MOL0     N28672   2.505   6.072   4.351  0.5060 -0.0642 -0.4093
  213MOL0     C28673   2.143   6.378   3.145 -0.2181 -0.5841 -0.1903
  213MOL0     C28674   2.158   6.377   3.008  0.9514  0.5417  0.6305
  213MOL0     C28675   2.307   6.314   2.586 -0.3911  0.1546  1.1251
  213MOL0     C28676   2.201   6.234   2.532 -0.5874  0.2009 -0.1598
  213MOL0     C28677   2.208   6.203   2.402 -0.1672  0.4707 -0.3690
  213MOL0     C28678   2.296   6.259   2.311 -0.6430  0.3246 -0.2619
  213MOL0     O28679   2.281   6.221   2.177 -0.1179  0.1634 -0.3414
  213MOL0     C28680   2.382   6.248   2.087  0.8286  0.0284  0.3261
  213MOL0     C28681   2.356   6.182   1.954 -1.0666 -0.1407 -0.0449
  213MOL0     C28682   2.246   6.249   1.866  1.0655 -0.9902  0.3381
  213MOL0     C28683   2.201   6.152   1.749 -0.7737 -0.6565  0.2310
  213MOL0     C28684   2.313   6.115   1.664 -0.4383  0.1798 -0.6571
  213MOL0     C28685   2.400   6.103   1.584 -0.4751 -0.4669 -0.0551
  213MOL0     C28686   2.388   6.353   2.359  0.0636  0.5807 -0.3541
  213MOL0     C28687   2.400   6.372   2.501  0.6889 -0.7997 -0.2209
  213MOL0     H28688   2.237   6.047   2.948 -1.5044  0.1925 -1.3978
  213MOL0     H28689   2.225   6.053   3.198  0.4391  1.7066  1.7296
  213MOL0     H28690   2.256   6.414   3.435  0.0809 -0.8452 -3.3480
  213MOL0     H28691   2.079   6.403   3.425  0.6488  1.3292  0.3273
  213MOL0     H28692   2.060   6.240   3.602 -1.4116  0.3189 -1.8304
  213MOL0     H28693   2.241   6.203   3.593 -0.6523 -0.1634 -0.3820
  213MOL0     H28694   2.289   6.425   3.683  2.6385 -2.0902  1.9192
  213MOL0     H28695   2.129   6.455   3.726  0.8534  0.9319  0.3633
  213MOL0     H28696   2.131   6.246   3.869  0.5650  0.0101  1.7558
  213MOL0     H28697   2.304   6.230   3.820  0.0834 -0.0179 -1.2434
  213MOL0     H28698   2.347   6.462   3.932  1.2093 -0.0279  3.5061
  213MOL0     H28699   2.178   6.446   3.990 -0.4303 -0.3314  1.8757
  213MOL0     H28700   2.214   6.263   4.113  1.1908  0.2035  3.8992
  213MOL0     H28701   2.376   6.224   4.048  2.5354  2.8818 -0.0742
  213MOL0     H28702   2.469   6.421   4.148 -1.0566  2.8267 -0.5772
  213MOL0     H28703   2.329   6.470   4.221  0.3103  1.1843 -0.3614
  213MOL0     H28704   2.344   6.238   4.374  0.5974 -0.2607  1.0764
  213MOL0     H28705   2.450   6.378   4.400 -3.0532  1.9741 -0.5904
  213MOL0     H28706   2.711   6.313   4.293 -0.5781  0.2903 -1.5124
  213MOL0     H28707   2.922   6.140   4.357 -0.0259  0.3402 -3.3289
  213MOL0     H28708   2.859   5.986   4.436 -0.8076  0.2712  0.4248
  213MOL0     H28709   3.027   6.009   4.231  0.2096 -1.6401  2.5175
  213MOL0     H28710   2.886   6.032   4.134 -0.2881 -0.0660  0.4474
  213MOL0     H28711   2.801   5.811   4.266  0.3054  0.2540  0.1043
  213MOL0     H28712   2.968   5.792   4.300 -2.0713 -1.4537  0.5581
  213MOL0     H28713   2.884   5.787   4.015  0.5138 -0.5657  0.0018
  213MOL0     H28714   2.923   5.646   4.115  2.6980  0.2825  4.6379
  213MOL0     H28715   3.320   5.829   4.003 -1.4273 -1.5426  1.6068
  213MOL0     H28716   3.495   5.822   3.895  1.7721 -2.4090  1.7173
  213MOL0     H28717   3.567   5.665   3.841 -2.0995 -1.5059  2.4526
  213MOL0     H28718   3.489   5.797   3.725  3.7815 -1.2044 -1.3051
  213MOL0     H28719   3.156   5.357   3.426  0.1690 -0.4647 -0.4663
  213MOL0     H28720   3.206   5.238   3.209  0.4840  2.2495 -1.3308
  213MOL0     H28721   3.510   4.920   3.259  2.0396 -3.0901 -2.3265
  213MOL0     H28722   3.341   4.918   3.264 -1.2872  2.3342  1.2380
  213MOL0     H28723   3.419   4.774   3.113  0.0031  0.0253  0.1949
  213MOL0     H28724   3.345   4.891   3.005 -0.3089 -1.7234  0.5472
  213MOL0     H28725   3.624   4.967   3.080 -2.4051 -0.3076  2.5331
  213MOL0     H28726   3.547   4.978   2.923  0.7427 -2.8837 -1.5108
  213MOL0     H28727   3.624   4.715   3.057 -0.3436  0.1721 -0.9493
  213MOL0     H28728   3.529   4.722   2.920 -1.3525  2.8481 -0.1319
  213MOL0     H28729   3.817   4.831   2.942  1.6048 -0.1217 -1.6890
  213MOL0     H28730   3.723   4.841   2.800  0.4120  0.3351  1.3022
  213MOL0     H28731   3.886   4.653   2.794 -0.3858 -0.6162 -0.4865
  213MOL0     H28732   3.833   4.600   2.952 -0.7512  0.8159  0.9547
  213MOL0     H28733   3.635   4.589   2.713  0.2246 -0.6428 -0.6257
  213MOL0     H28734   3.626   4.508   2.870  1.9073  1.6576  2.3048
  213MOL0     H28735   3.703   4.336   2.704  1.7510 -0.2120 -2.6810
  213MOL0     H28736   3.850   4.381   2.800  0.8638 -1.9948 -2.1429
  213MOL0     H28737   3.603   5.170   3.331 -0.4310  1.9590 -0.0816
  213MOL0     H28738   3.556   5.300   3.556  2.5482 -4.4148 -1.0549
  213MOL0     H28739   3.135   5.432   3.798 -2.9135  1.3965  1.0731
  213MOL0     H28740   3.009   5.551   3.945 -0.8305  1.5379  1.7471
  213MOL0     H28741   2.097   6.459   3.201 -3.1825 -2.5974  0.5235
  213MOL0     H28742   2.145   6.469   2.953  0.2522 -1.0271 -2.0341
  213MOL0     H28743   2.126   6.191   2.598  0.4650 -1.3303  0.0767
  213MOL0     H28744   2.133   6.134   2.362  0.6621 -0.9305  0.4298
  213MOL0     H28745   2.394   6.354   2.066  1.3554 -0.6592 -3.5963
  213MOL0     H28746   2.477   6.213   2.129  0.8849  0.8983  0.9469
  213MOL0     H28747   2.332   6.079   1.983  2.4041 -1.2067 -0.4738
  213MOL0     H28748   2.451   6.186   1.901 -0.4572  1.2667  1.0722
  213MOL0     H28749   2.281   6.348   1.836 -0.1003  0.2267  2.6811
  213MOL0     H28750   2.154   6.266   1.923 -0.1965 -0.4478 -1.7523
  213MOL0     H28751   2.120   6.201   1.693 -0.4156 -0.5366 -0.1879
  213MOL0     H28752   2.160   6.056   1.782 -2.4611 -0.6183 -1.5727
  213MOL0     H28753   2.491   6.091   1.529 -0.6115 -0.0112 -0.3839
  213MOL0     H28754   2.456   6.400   2.288 -2.7300  3.5126 -1.3028
  213MOL0     H28755   2.471   6.435   2.553  0.4476 -0.0687 -0.7566
  214MOL0     O28756   0.717   7.451   4.519 -0.3015 -0.4575  0.2234
  214MOL0     C28757   0.605   7.403   4.495  0.8103  0.6047  1.1293
  214MOL0     O28758   0.571   7.277   4.453 -0.5987  0.2631  0.2310
  214MOL0     C28759   0.669   7.184   4.440 -0.2752 -0.3342 -0.0840
  214MOL0     C28760   0.649   7.100   4.331  0.2982  0.7707  0.4746
  214MOL0     C28761   0.746   7.005   4.295 -0.1729 -0.4191 -0.3468
  214MOL0     C28762   0.853   6.977   4.386  1.2085 -1.2698  1.0346
  214MOL0     O28763   0.930   6.868   4.375  0.3882 -0.4710 -0.5450
  214MOL0     C28764   0.862   6.758   4.431  0.3189  0.0547 -0.2557
  214MOL0     C28765   0.949   6.637   4.376  0.1104  0.5602  0.4291
  214MOL0     C28766   0.917   6.505   4.431 -0.3323 -0.1874 -0.2525
  214MOL0     C28767   1.050   6.435   4.449  0.6322  0.6969  0.2582
  214MOL0     C28768   1.028   6.289   4.507  0.6707  0.4757 -0.7675
  214MOL0     C28769   1.167   6.231   4.501 -0.7786  0.2715 -0.7917
  214MOL0     C28770   1.150   6.084   4.560  0.0977  0.1851  0.5161
  214MOL0     C28771   1.279   6.009   4.533 -0.2886  0.0063 -0.3986
  214MOL0     N28772   1.261   5.866   4.525  0.8408 -0.3029 -0.2652
  214MOL0     C28773   1.283   5.779   4.621  0.0515  0.6302 -0.3895
  214MOL0     C28774   1.225   5.668   4.574 -0.5564  0.2706 -0.4292
  214MOL0     C28775   1.217   5.542   4.663  0.3854 -0.7728  0.4814
  214MOL0     C28776   1.339   5.472   4.704 -0.4398  0.2022  0.7107
  214MOL0     C28777   1.301   5.329   4.758  0.1113  0.1626  0.4121
  214MOL0     C28778   1.426   5.248   4.805  0.5776 -0.6644 -0.0754
  214MOL0     O28779   1.479   5.301   4.929 -0.4088  0.5286 -0.4289
  214MOL0     C28780   1.408   5.279   5.043  0.2753  0.0767  0.2112
  214MOL0     C28781   1.383   5.382   5.126  1.4442  0.1006 -0.5072
  214MOL0     C28782   1.315   5.371   5.245  0.5254 -0.7271 -0.9637
  214MOL0     C28783   1.312   5.504   5.326  0.0702 -0.4799  0.5945
  214MOL0     C28784   1.239   5.253   5.273 -0.1153 -0.1921 -0.2732
  214MOL0     C28785   1.155   5.230   5.389  0.6587  0.1403 -1.1458
  214MOL0     O28786   1.128   5.106   5.427 -0.1898  0.2128  0.2227
  214MOL0     C28787   1.040   5.072   5.524 -0.1538  0.5199 -0.3464
  214MOL0     C28788   1.082   5.007   5.631 -0.1629 -0.5381 -0.7985
  214MOL0     C28789   1.002   4.965   5.742 -0.5648 -0.4951 -0.7092
  214MOL0     C28790   0.863   4.980   5.737 -0.2682  0.2345  0.5324
  214MOL0     O28791   0.786   4.918   5.836  0.1683 -0.2404  0.0848
  214MOL0     C28792   0.659   4.854   5.795  1.3567  0.3172 -0.6108
  214MOL0     C28793   0.593   4.810   5.930 -0.2495  0.4390 -0.2517
  214MOL0     C28794   0.475   4.722   5.904  0.9261  0.9998 -0.3186
  214MOL0     C28795   0.366   4.809   5.820  0.2525  0.1728 -0.6952
  214MOL0     C28796   0.223   4.756   5.827  0.1744  0.2334  0.5846
  214MOL0     C28797   0.134   4.828   5.716 -0.2925  1.8211  0.0258
  214MOL0     C28798  -0.012   4.773   5.728 -1.3197  0.1439  0.0813
  214MOL0     C28799  -0.077   4.819   5.865 -0.5005 -0.3687  0.2200
  214MOL0    Cl28800  -0.256   4.804   5.816 -0.0124  0.1849 -0.4359
  214MOL0     C28801   0.811   5.065   5.624 -1.0767  0.3211  0.5320
  214MOL0     C28802   0.903   5.108   5.519  0.9908  0.0023  0.0427
  214MOL0     O28803   1.121   5.329   5.456  0.1141  0.1598 -0.8300
  214MOL0     C28804   1.263   5.143   5.183  0.4340 -0.2025  0.1829
  214MOL0     C28805   1.360   5.152   5.079  0.9485  0.2454  1.2742
  214MOL0     N28806   1.192   5.687   4.440  0.8768  0.5383 -0.3241
  214MOL0     N28807   1.218   5.814   4.408 -0.6011  0.3262  0.5712
  214MOL0     C28808   0.859   7.059   4.497 -0.1093  0.0150 -0.0831
  214MOL0     C28809   0.772   7.163   4.527  0.5985  0.4354  0.3357
  214MOL0     C28810   0.495   7.489   4.507  0.3678 -0.6619  0.5833
  214MOL0     C28811   0.362   7.441   4.529  0.4932  0.9220 -0.2378
  214MOL0     C28812   0.250   7.531   4.534  0.6534  0.3444 -0.2722
  214MOL0     C28813   0.271   7.675   4.540  1.4170 -0.4861  0.5640
  214MOL0     O28814   0.173   7.781   4.518  0.1257 -0.6687  0.5435
  214MOL0     C28815   0.036   7.733   4.515  0.5539 -0.6043 -0.2404
  214MOL0     C28816  -0.020   7.692   4.654 -0.4575 -0.3719  0.3044
  214MOL0     C28817  -0.166   7.647   4.652 -0.8300 -1.2046  0.9328
  214MOL0     C28818  -0.177   7.521   4.564  0.6256 -0.4472  0.2263
  214MOL0     C28819  -0.120   7.399   4.618  0.2106  1.2218  0.4578
  214MOL0     C28820  -0.087   7.287   4.648  0.8629  0.3410 -1.3447
  214MOL0     C28821   0.399   7.715   4.546  0.2300  0.2665  0.0085
  214MOL0     C28822   0.506   7.629   4.524 -0.4913 -0.4688 -0.4369
  214MOL0     H28823   0.561   7.117   4.270 -1.2742 -2.2134  1.6911
  214MOL0     H28824   0.745   6.938   4.209 -0.3762 -2.5248  1.2165
  214MOL0     H28825   0.854   6.758   4.540 -1.7239 -2.6649 -0.2835
  214MOL0     H28826   0.760   6.752   4.392  0.6408  2.6904 -1.7045
  214MOL0     H28827   0.937   6.633   4.268  1.5114  1.9557  0.1833
  214MOL0     H28828   1.053   6.661   4.399 -0.2127  0.8213  1.7380
  214MOL0     H28829   0.866   6.511   4.528 -2.1699 -0.2272 -1.1830
  214MOL0     H28830   0.858   6.445   4.362  0.9679 -2.8999  0.8208
  214MOL0     H28831   1.100   6.435   4.352 -2.1637 -1.3230 -1.3202
  214MOL0     H28832   1.117   6.483   4.521 -0.1001  1.8762  0.1730
  214MOL0     H28833   0.987   6.293   4.608  2.6049 -1.8616  0.2175
  214MOL0     H28834   0.957   6.241   4.439 -0.3557 -1.0619  1.3165
  214MOL0     H28835   1.205   6.244   4.399 -1.6695 -0.1506 -1.1901
  214MOL0     H28836   1.237   6.292   4.559 -0.2402  1.4423 -2.5914
  214MOL0     H28837   1.131   6.095   4.667 -2.3506 -1.4463  0.3368
  214MOL0     H28838   1.073   6.038   4.497  1.7785 -0.9530 -0.7874
  214MOL0     H28839   1.359   6.027   4.605 -2.1647 -0.5272  1.9464
  214MOL0     H28840   1.321   6.032   4.434  3.3498  0.0818  0.9915
  214MOL0     H28841   1.319   5.792   4.723  1.6273 -2.1981 -0.4933
  214MOL0     H28842   1.170   5.573   4.757 -0.5323  3.1359 -1.0901
  214MOL0     H28843   1.148   5.481   4.604  0.1338  3.1436 -3.8589
  214MOL0     H28844   1.385   5.536   4.780  3.2497 -2.7571  1.2358
  214MOL0     H28845   1.413   5.462   4.624 -0.8847 -2.3783  0.5275
  214MOL0     H28846   1.251   5.271   4.680  1.6133  1.1569 -1.3861
  214MOL0     H28847   1.233   5.337   4.843  1.2629  0.5698  1.3303
  214MOL0     H28848   1.503   5.234   4.729 -1.2956  0.2909 -2.2868
  214MOL0     H28849   1.376   5.151   4.819 -2.7339  0.7240 -1.1748
  214MOL0     H28850   1.414   5.485   5.110  0.4948  1.1743  3.4957
  214MOL0     H28851   1.210   5.543   5.322  0.1647 -0.2975 -0.2630
  214MOL0     H28852   1.343   5.495   5.430 -0.3500  0.6537  0.8312
  214MOL0     H28853   1.379   5.581   5.286 -3.9046  2.2392 -1.4542
  214MOL0     H28854   1.189   4.992   5.631 -0.1334 -0.6856  1.8732
  214MOL0     H28855   1.055   4.922   5.826  0.8626  2.4783  0.0647
  214MOL0     H28856   0.583   4.911   5.741 -1.0506 -1.1701  1.0271
  214MOL0     H28857   0.685   4.772   5.727  0.0667 -0.4485 -0.2108
  214MOL0     H28858   0.665   4.754   5.990 -3.0747  0.1899  3.2800
  214MOL0     H28859   0.568   4.898   5.991  0.9824  0.5672  0.0997
  214MOL0     H28860   0.436   4.701   6.004 -0.2909  3.7231 -0.1283
  214MOL0     H28861   0.506   4.624   5.864  1.6561  0.6383  1.0801
  214MOL0     H28862   0.374   4.908   5.867  0.9966 -0.9325  1.6787
  214MOL0     H28863   0.391   4.817   5.714  0.0687 -1.3267 -0.8701
  214MOL0     H28864   0.175   4.782   5.922  0.6397 -0.5416  1.0445
  214MOL0     H28865   0.223   4.647   5.821 -3.0934  0.2374 -3.7736
  214MOL0     H28866   0.141   4.936   5.729  2.3146  1.4616  2.5866
  214MOL0     H28867   0.182   4.796   5.623 -0.6125 -2.4542  1.1222
  214MOL0     H28868  -0.006   4.664   5.738 -2.5268  0.1474  1.2140
  214MOL0     H28869  -0.062   4.806   5.637  0.9941  0.9363 -0.9545
  214MOL0     H28870  -0.042   4.921   5.882  1.8391 -0.4686 -3.0657
  214MOL0     H28871  -0.054   4.757   5.952  0.2593  0.4866  0.6450
  214MOL0     H28872   0.705   5.088   5.628 -1.0104  1.0038 -0.8200
  214MOL0     H28873   0.861   5.169   5.439 -0.2272  2.6239  2.4968
  214MOL0     H28874   1.227   5.042   5.202 -0.1125 -0.1918 -0.7543
  214MOL0     H28875   1.376   5.071   5.009  2.7506 -1.5490  3.5827
  214MOL0     H28876   0.946   7.034   4.557  0.7873  0.0832 -1.3096
  214MOL0     H28877   0.786   7.216   4.621  1.0646 -2.4915  2.0582
  214MOL0     H28878   0.345   7.334   4.531  2.4471  0.2451 -5.2077
  214MOL0     H28879   0.149   7.492   4.544  0.3446  1.4543  1.2233
  214MOL0     H28880  -0.011   7.827   4.485  2.0889  0.6674  1.1481
  214MOL0     H28881   0.026   7.665   4.430 -4.4572  1.4264 -1.6892
  214MOL0     H28882  -0.007   7.779   4.717  0.5235 -0.1394 -0.2022
  214MOL0     H28883   0.046   7.618   4.700  3.5264  2.5445 -0.1885
  214MOL0     H28884  -0.214   7.734   4.606  3.0661  1.6995  1.8527
  214MOL0     H28885  -0.211   7.633   4.751  0.0147  0.0540  1.5141
  214MOL0     H28886  -0.130   7.546   4.469  0.4934 -0.0107  0.2777
  214MOL0     H28887  -0.284   7.507   4.547  0.9223 -1.5645 -0.9041
  214MOL0     H28888  -0.043   7.193   4.675  0.4296  1.1803  3.0805
  214MOL0     H28889   0.417   7.821   4.554 -0.5048  0.4046 -0.1651
  214MOL0     H28890   0.602   7.675   4.504 -0.6114  0.2999  0.7131
  215MOL0     O28891   7.461   4.820   7.726  0.0669 -0.0695 -0.5915
  215MOL0     C28892   7.552   4.812   7.646  0.2547 -0.2757  0.8413
  215MOL0     O28893   7.535   4.811   7.506  0.3440  0.3124 -0.4536
  215MOL0     C28894   7.407   4.812   7.453  0.4847  0.0177  0.0089
  215MOL0     C28895   7.390   4.880   7.329 -0.0004  0.3999  0.8045
  215MOL0     C28896   7.269   4.885   7.255  0.2047  0.4103 -0.5655
  215MOL0     C28897   7.164   4.801   7.308  0.6461  0.0261 -0.1342
  215MOL0     O28898   7.041   4.787   7.245 -1.0169  0.4224 -1.1242
  215MOL0     C28899   7.050   4.778   7.104 -0.7918 -0.1654  0.2419
  215MOL0     C28900   7.168   4.688   7.044  0.2331 -0.1262  0.3103
  215MOL0     C28901   7.110   4.650   6.905 -0.3983 -0.1771  0.1392
  215MOL0     C28902   7.194   4.541   6.837  0.0693  0.1570  0.0720
  215MOL0     C28903   7.133   4.493   6.704 -1.4865 -0.2173 -0.6074
  215MOL0     C28904   7.006   4.417   6.720  0.9078 -0.8688  0.6262
  215MOL0     C28905   6.923   4.403   6.595  0.0850 -0.0454  0.6626
  215MOL0     C28906   6.803   4.322   6.623  0.7566 -0.1495  0.8823
  215MOL0     N28907   6.822   4.165   6.642  0.1010 -0.1203 -0.2537
  215MOL0     C28908   6.840   4.091   6.761 -0.3073 -0.3483 -0.3383
  215MOL0     C28909   6.800   3.965   6.732 -0.5270 -0.2348 -0.4437
  215MOL0     C28910   6.783   3.849   6.824 -0.0579  0.4812 -0.1811
  215MOL0     C28911   6.922   3.797   6.872  0.3162  1.0063 -0.6427
  215MOL0     C28912   6.913   3.707   7.003 -0.1763 -0.6428  0.5968
  215MOL0     C28913   7.062   3.666   7.032 -0.7910  0.2365  0.8688
  215MOL0     O28914   7.157   3.769   7.020  0.2918  0.0957  0.3172
  215MOL0     C28915   7.262   3.763   7.104  0.3939  0.3403 -0.0421
  215MOL0     C28916   7.322   3.637   7.118 -0.1033 -0.0013  1.2052
  215MOL0     C28917   7.439   3.641   7.197 -0.1869 -0.2803  0.0645
  215MOL0     C28918   7.505   3.507   7.200  0.1743 -0.0242 -0.0844
  215MOL0     C28919   7.497   3.756   7.255  0.2094 -0.0914 -0.5034
  215MOL0     C28920   7.627   3.756   7.333  0.1050 -0.4460  0.3264
  215MOL0     O28921   7.696   3.877   7.324 -0.3228  1.7612 -0.4847
  215MOL0     C28922   7.829   3.896   7.349 -0.2187 -0.1596  0.0383
  215MOL0     C28923   7.870   4.030   7.318  0.1964 -0.0169  0.0431
  215MOL0     C28924   8.000   4.063   7.350  0.1754 -0.6434 -0.5071
  215MOL0     C28925   8.098   3.981   7.401 -0.2881  0.3851  0.1798
  215MOL0     O28926   8.225   4.028   7.404 -0.9514  0.3995 -0.7134
  215MOL0     C28927   8.328   3.941   7.436  0.4432  0.9205 -0.7209
  215MOL0     C28928   8.346   3.924   7.592  0.1605  0.6095 -0.3157
  215MOL0     C28929   8.450   3.813   7.613  0.4914 -1.5488  0.0540
  215MOL0     C28930   8.489   3.797   7.755 -0.1763 -0.8538 -0.2600
  215MOL0     C28931   8.504   3.654   7.812  0.0510  0.3864  0.6169
  215MOL0     C28932   8.642   3.619   7.881  0.4468  1.3664 -1.1996
  215MOL0     C28933   8.663   3.714   8.006 -1.0945  0.2076  1.0733
  215MOL0     C28934   8.727   3.642   8.124  0.7582 -0.3805  0.3409
  215MOL0    Cl28935   8.875   3.552   8.090  0.1048  0.3699 -0.3295
  215MOL0     C28936   8.062   3.846   7.431  0.0736 -0.2356 -0.2563
  215MOL0     C28937   7.929   3.803   7.399  0.4879  0.0936  1.2726
  215MOL0     O28938   7.663   3.664   7.399 -0.0194  0.0537  0.2994
  215MOL0     C28939   7.425   3.875   7.237  0.6497  0.8805 -0.2127
  215MOL0     C28940   7.308   3.880   7.166  0.4570  0.0645 -0.3268
  215MOL0     N28941   6.764   3.958   6.604 -0.9023  0.0702 -0.6413
  215MOL0     N28942   6.769   4.082   6.550  0.5640  0.1485  0.6211
  215MOL0     C28943   7.180   4.730   7.426 -0.3811  0.2250 -0.1502
  215MOL0     C28944   7.303   4.734   7.497 -1.0334 -0.8205  0.2405
  215MOL0     C28945   7.687   4.774   7.699  0.2461 -0.1255 -0.7046
  215MOL0     C28946   7.710   4.776   7.841 -0.0517  0.8606 -0.9349
  215MOL0     C28947   7.829   4.746   7.895 -1.6216  0.4813 -0.2572
  215MOL0     C28948   7.944   4.722   7.820  0.3998 -0.0150 -0.6881
  215MOL0     O28949   8.061   4.691   7.888 -0.7435  0.5459  0.4570
  215MOL0     C28950   8.170   4.636   7.803 -0.2790 -0.4593 -0.6117
  215MOL0     C28951   8.273   4.551   7.889  0.6601 -0.5650  0.7708
  215MOL0     C28952   8.333   4.622   8.009  0.6611  0.3718 -0.5381
  215MOL0     C28953   8.424   4.744   7.978  0.7963  0.1330  0.2507
  215MOL0     C28954   8.544   4.723   7.895  0.4616 -0.0329  0.6296
  215MOL0     C28955   8.643   4.707   7.832  0.6198 -0.0997 -0.2784
  215MOL0     C28956   7.920   4.721   7.674 -0.0966  0.2073 -0.7439
  215MOL0     C28957   7.791   4.736   7.616  0.6157 -0.3608  0.4012
  215MOL0     H28958   7.474   4.937   7.290 -0.1570  0.7270  0.9402
  215MOL0     H28959   7.267   4.956   7.174  1.7037  2.4088  1.0318
  215MOL0     H28960   6.951   4.749   7.067  0.4260 -3.7288 -0.6172
  215MOL0     H28961   7.065   4.871   7.049  0.5299 -1.5602 -1.8829
  215MOL0     H28962   7.269   4.731   7.042 -0.2633  1.0477 -1.0063
  215MOL0     H28963   7.163   4.601   7.110 -0.3884 -1.3289 -1.2454
  215MOL0     H28964   7.005   4.618   6.903 -0.1035 -1.1279 -0.7234
  215MOL0     H28965   7.117   4.745   6.853 -0.7838 -0.8593 -1.2055
  215MOL0     H28966   7.296   4.575   6.820 -0.2575  2.0417  1.6223
  215MOL0     H28967   7.210   4.454   6.902  0.7942  0.9487  0.9755
  215MOL0     H28968   7.117   4.590   6.656  1.6019  0.4151 -0.5879
  215MOL0     H28969   7.204   4.436   6.643  1.0490 -0.0601  2.0071
  215MOL0     H28970   7.023   4.320   6.768  0.8035 -0.3888  1.6542
  215MOL0     H28971   6.947   4.476   6.790  1.0626 -0.1147  0.1319
  215MOL0     H28972   6.901   4.509   6.579  0.6752  0.1384  1.0700
  215MOL0     H28973   6.976   4.352   6.514  0.7340  0.4504  0.7748
  215MOL0     H28974   6.737   4.318   6.535 -0.0328 -0.9154  1.4870
  215MOL0     H28975   6.749   4.370   6.706 -1.9387 -0.1840 -0.7082
  215MOL0     H28976   6.875   4.123   6.858 -0.9448 -0.4524 -0.0661
  215MOL0     H28977   6.714   3.884   6.902 -0.6275 -2.4627  0.7642
  215MOL0     H28978   6.719   3.780   6.769 -2.2460  0.4799  2.2029
  215MOL0     H28979   6.970   3.891   6.903 -0.3478  0.2871  2.9729
  215MOL0     H28980   6.981   3.734   6.804  1.4157 -1.9345  2.7354
  215MOL0     H28981   6.844   3.624   6.985  2.1993 -2.4881 -0.5883
  215MOL0     H28982   6.876   3.769   7.085 -1.5131  1.0196 -1.1648
  215MOL0     H28983   7.110   3.582   6.980 -0.6536  0.0846  1.2363
  215MOL0     H28984   7.068   3.624   7.133  2.1100 -0.6465  0.4155
  215MOL0     H28985   7.294   3.552   7.056  2.2522 -0.3392  0.4735
  215MOL0     H28986   7.562   3.492   7.108 -0.6094 -1.4125 -0.3580
  215MOL0     H28987   7.582   3.497   7.277 -0.5139  0.7118  0.7206
  215MOL0     H28988   7.445   3.416   7.208  3.0882 -2.0471  0.3738
  215MOL0     H28989   7.796   4.097   7.276  1.2082  1.4645  0.5326
  215MOL0     H28990   8.043   4.161   7.333  3.3884 -1.4917  1.8598
  215MOL0     H28991   8.302   3.845   7.389 -0.2915  0.9766 -0.4315
  215MOL0     H28992   8.426   3.967   7.395  0.5650  0.4644 -0.7264
  215MOL0     H28993   8.384   4.015   7.639  1.0463 -0.1063  0.4204
  215MOL0     H28994   8.246   3.895   7.626 -1.3712  3.5845 -1.8982
  215MOL0     H28995   8.544   3.833   7.561  1.6269 -0.3078  2.4066
  215MOL0     H28996   8.412   3.715   7.582  0.1921 -1.8482  1.2933
  215MOL0     H28997   8.585   3.849   7.766 -0.0448 -0.3781 -2.8470
  215MOL0     H28998   8.411   3.841   7.818  0.8771  3.7189 -1.7117
  215MOL0     H28999   8.495   3.583   7.730  0.2702  1.6742 -0.5697
  215MOL0     H29000   8.422   3.634   7.881 -1.0349  1.6279 -0.2492
  215MOL0     H29001   8.637   3.512   7.905  2.4022  1.6665  0.9458
  215MOL0     H29002   8.722   3.625   7.806  1.6789 -3.5767 -0.6557
  215MOL0     H29003   8.568   3.751   8.047 -2.6057 -3.1287  0.9688
  215MOL0     H29004   8.725   3.797   7.971 -0.6918 -0.5803 -0.1261
  215MOL0     H29005   8.662   3.568   8.171  3.2443 -2.3031  0.9833
  215MOL0     H29006   8.752   3.714   8.203  0.8653  0.5573 -0.5199
  215MOL0     H29007   8.125   3.768   7.472  1.7232  0.6900 -0.9400
  215MOL0     H29008   7.895   3.700   7.410  0.7158 -0.0801  0.3928
  215MOL0     H29009   7.446   3.970   7.285 -0.4018  3.0507 -3.7181
  215MOL0     H29010   7.252   3.972   7.155 -1.3377 -0.8339  0.9472
  215MOL0     H29011   7.111   4.663   7.478 -0.5211 -0.3054 -1.0024
  215MOL0     H29012   7.305   4.668   7.584 -3.2284 -1.5753 -0.2113
  215MOL0     H29013   7.622   4.792   7.903  0.6962 -3.0239  1.4507
  215MOL0     H29014   7.835   4.742   8.003  0.0580  2.5678 -0.1956
  215MOL0     H29015   8.142   4.572   7.719 -2.0662 -0.3135 -0.1755
  215MOL0     H29016   8.221   4.720   7.755  4.5680 -1.9040  1.3566
  215MOL0     H29017   8.352   4.510   7.825 -0.4464 -3.3690  1.0485
  215MOL0     H29018   8.215   4.463   7.918 -0.3656 -0.8004 -1.7314
  215MOL0     H29019   8.391   4.546   8.062 -4.1919 -1.2528  3.1707
  215MOL0     H29020   8.253   4.653   8.077  2.6097  2.2493  1.0577
  215MOL0     H29021   8.448   4.806   8.065 -0.0041  2.2856 -0.9768
  215MOL0     H29022   8.354   4.819   7.940 -0.7943 -1.9228 -1.1170
  215MOL0     H29023   8.720   4.673   7.765  0.1724 -1.2665 -0.2186
  215MOL0     H29024   8.000   4.709   7.602 -0.9374  3.0743 -2.2867
  215MOL0     H29025   7.778   4.718   7.509  0.7749  4.4532 -0.6323
  216MOL0     O29026   3.288   0.297   6.544 -0.4513 -0.5811 -0.4863
  216MOL0     C29027   3.260   0.251   6.654 -1.1852  0.4907  0.8206
  216MOL0     O29028   3.150   0.272   6.725  0.7007 -0.5495 -0.3097
  216MOL0     C29029   3.047   0.347   6.669 -0.3170 -0.6334  0.2380
  216MOL0     C29030   3.048   0.492   6.672 -0.1006 -0.4575 -0.1389
  216MOL0     C29031   2.936   0.568   6.632  0.7924  0.1243 -0.3066
  216MOL0     C29032   2.820   0.509   6.588  0.2695 -0.3002 -0.2376
  216MOL0     O29033   2.715   0.587   6.550 -0.1154 -0.3776 -0.0314
  216MOL0     C29034   2.596   0.529   6.495 -0.5498  0.7826 -0.1355
  216MOL0     C29035   2.506   0.633   6.440 -0.2430  0.4073 -0.1689
  216MOL0     C29036   2.418   0.699   6.549  0.8674  0.4812  0.0225
  216MOL0     C29037   2.297   0.622   6.576 -0.3253 -0.2147  0.7815
  216MOL0     C29038   2.172   0.680   6.524  0.0097 -1.0690  0.5774
  216MOL0     C29039   2.051   0.597   6.539 -0.6396  0.1954 -0.5356
  216MOL0     C29040   1.934   0.648   6.443  0.8192  0.0276 -0.4027
  216MOL0     C29041   1.817   0.548   6.468  1.0545 -0.0071 -0.0273
  216MOL0     N29042   1.699   0.558   6.387 -0.4932 -0.1024 -0.1199
  216MOL0     C29043   1.575   0.613   6.419 -0.0381 -0.0366  1.0099
  216MOL0     C29044   1.494   0.573   6.312  0.7629 -0.0465 -0.4610
  216MOL0     C29045   1.344   0.606   6.299 -0.3613  0.5450  1.2219
  216MOL0     C29046   1.305   0.664   6.161 -0.6591 -0.8958  0.6403
  216MOL0     C29047   1.147   0.636   6.136 -0.7633 -0.0581  0.0330
  216MOL0     C29048   1.064   0.728   6.231 -0.4810  0.6614 -0.9448
  216MOL0     O29049   1.055   0.868   6.217  0.2271  0.5126  0.2236
  216MOL0     C29050   0.971   0.910   6.118  0.4133 -0.1396 -0.0415
  216MOL0     C29051   0.989   0.893   5.985  0.7992 -0.7534 -0.0481
  216MOL0     C29052   0.887   0.938   5.890 -0.6632 -0.8914 -0.2980
  216MOL0     C29053   0.939   0.909   5.747 -0.4439 -0.1991 -0.1228
  216MOL0     C29054   0.770   1.013   5.939 -0.1408 -0.6860 -0.0320
  216MOL0     C29055   0.660   1.064   5.857  0.9295 -0.8060  0.3208
  216MOL0     O29056   0.533   1.072   5.911 -0.4214 -0.1296 -0.2495
  216MOL0     C29057   0.444   1.167   5.865  0.5195 -0.4638  0.6395
  216MOL0     C29058   0.476   1.303   5.847  0.2819  0.5849 -1.0406
  216MOL0     C29059   0.367   1.388   5.809  0.6405 -0.2477 -0.1264
  216MOL0     C29060   0.229   1.348   5.784  0.1918  0.2986  0.6557
  216MOL0     O29061   0.119   1.427   5.738 -0.1058 -0.2455 -0.6712
  216MOL0     C29062   0.101   1.576   5.733  0.1485 -0.2704  0.3097
  216MOL0     C29063   0.189   1.634   5.625 -0.5500 -0.1490 -0.2263
  216MOL0     C29064   0.125   1.630   5.485  0.2917 -0.3878  0.2198
  216MOL0     C29065   0.050   1.769   5.453 -0.1480  0.0364 -0.6077
  216MOL0     C29066  -0.022   1.769   5.321  0.0497 -0.7701  0.5936
  216MOL0     C29067  -0.143   1.671   5.309  0.5723  0.5092  0.4291
  216MOL0     C29068  -0.253   1.698   5.408  0.6706 -0.2906 -0.0352
  216MOL0     C29069  -0.277   1.842   5.468  0.0045 -0.3236 -0.0896
  216MOL0    Cl29070  -0.325   1.948   5.324  0.0432 -0.3253 -0.3380
  216MOL0     C29071   0.210   1.208   5.786 -1.2035 -0.2638  0.4055
  216MOL0     C29072   0.313   1.129   5.838 -0.1962 -0.3314  0.3264
  216MOL0     O29073   0.694   1.102   5.748 -0.3428 -0.7398  0.5877
  216MOL0     C29074   0.774   1.042   6.072  0.1737  0.5559  0.2188
  216MOL0     C29075   0.868   0.990   6.158  0.7077  0.8779 -0.3287
  216MOL0     N29076   1.553   0.475   6.242  1.1042 -0.3359 -0.7445
  216MOL0     N29077   1.671   0.469   6.288  0.1862  0.9181  0.0737
  216MOL0     C29078   2.819   0.366   6.579  0.3997  0.4738 -0.3576
  216MOL0     C29079   2.931   0.285   6.608 -0.0801 -0.2939 -0.6214
  216MOL0     C29080   3.347   0.151   6.694 -0.9734  0.3057 -0.7693
  216MOL0     C29081   3.322   0.073   6.817  0.0190  0.2101 -1.4166
  216MOL0     C29082   3.397  -0.039   6.851 -0.9220 -1.2086 -0.3036
  216MOL0     C29083   3.498  -0.085   6.761 -0.1412  0.8014 -0.2184
  216MOL0     O29084   3.561  -0.207   6.781  1.1947  1.3823 -0.0615
  216MOL0     C29085   3.489  -0.311   6.841 -0.1118 -0.1539 -0.7090
  216MOL0     C29086   3.563  -0.443   6.847  0.6653 -0.3862  0.5040
  216MOL0     C29087   3.699  -0.427   6.927 -0.9711 -0.8505 -0.4554
  216MOL0     C29088   3.788  -0.549   6.929 -0.6356 -0.5561  1.4044
  216MOL0     C29089   3.754  -0.629   7.046 -0.9263  0.2092 -0.5151
  216MOL0     C29090   3.718  -0.691   7.140 -0.9022  1.5979  0.1935
  216MOL0     C29091   3.516  -0.012   6.644  0.0502 -0.2425  0.8972
  216MOL0     C29092   3.458   0.111   6.609  0.7637 -0.3540 -0.5583
  216MOL0     H29093   3.120   0.538   6.739 -2.1359  2.1711  0.3945
  216MOL0     H29094   2.936   0.677   6.635  2.7599  0.2998 -2.9098
  216MOL0     H29095   2.613   0.447   6.424 -2.7058  1.1475 -1.1679
  216MOL0     H29096   2.541   0.478   6.574 -2.8340  0.8497 -1.5809
  216MOL0     H29097   2.558   0.710   6.382 -0.3243  0.3075 -0.3723
  216MOL0     H29098   2.443   0.592   6.361  2.5112  0.2783 -2.4723
  216MOL0     H29099   2.474   0.714   6.642 -0.9392  2.7228  0.8575
  216MOL0     H29100   2.395   0.804   6.526  0.5070  0.4707  0.3172
  216MOL0     H29101   2.306   0.521   6.534  2.0798  1.0226 -2.1015
  216MOL0     H29102   2.279   0.611   6.683 -3.0404  2.9552  0.7925
  216MOL0     H29103   2.151   0.777   6.568 -0.3375 -0.7070 -0.3507
  216MOL0     H29104   2.198   0.684   6.418  1.2302 -3.3039  0.7098
  216MOL0     H29105   2.079   0.497   6.504 -0.1900  0.9364 -2.4283
  216MOL0     H29106   2.036   0.605   6.647  2.6564 -2.1533  0.2741
  216MOL0     H29107   1.915   0.756   6.454  0.4040 -0.0914  0.0717
  216MOL0     H29108   1.968   0.639   6.340 -0.0470  2.6874 -1.0079
  216MOL0     H29109   1.782   0.572   6.569 -3.8594 -0.7946 -1.2899
  216MOL0     H29110   1.865   0.450   6.462  0.0167 -0.4639 -1.2133
  216MOL0     H29111   1.552   0.677   6.503 -0.4568  0.5322  0.4650
  216MOL0     H29112   1.289   0.516   6.325 -0.6489 -0.4527 -2.2700
  216MOL0     H29113   1.320   0.689   6.366  0.8735  3.2649 -1.4189
  216MOL0     H29114   1.364   0.616   6.083 -1.1600 -1.3490  0.5311
  216MOL0     H29115   1.336   0.768   6.155 -0.2672 -1.1124 -1.9026
  216MOL0     H29116   1.137   0.529   6.157  2.5012 -0.4977 -0.1961
  216MOL0     H29117   1.115   0.647   6.032  2.1650  4.0252 -0.6706
  216MOL0     H29118   1.093   0.701   6.333  3.9175  1.6389 -1.7353
  216MOL0     H29119   0.964   0.686   6.218 -0.4342  0.9980 -2.5749
  216MOL0     H29120   1.080   0.850   5.945  1.8730  2.0349 -0.8320
  216MOL0     H29121   1.032   0.852   5.743 -2.3027 -3.4785 -0.1480
  216MOL0     H29122   0.863   0.851   5.695 -0.4203  0.7040 -1.2050
  216MOL0     H29123   0.954   1.001   5.690 -1.0008 -0.5003 -0.7587
  216MOL0     H29124   0.579   1.324   5.874  0.6875 -4.8694  3.6133
  216MOL0     H29125   0.381   1.493   5.787 -1.7300  0.0288 -0.5842
  216MOL0     H29126  -0.007   1.594   5.729  0.2679  0.5196  0.6537
  216MOL0     H29127   0.132   1.610   5.832  0.0137 -3.7329  1.6950
  216MOL0     H29128   0.218   1.737   5.650  0.5990 -0.0888 -1.6426
  216MOL0     H29129   0.281   1.576   5.629  2.1090  3.4831 -1.9839
  216MOL0     H29130   0.052   1.550   5.490  0.8590 -0.8496  1.5566
  216MOL0     H29131   0.206   1.609   5.414  2.1591  0.5840  1.9393
  216MOL0     H29132  -0.021   1.774   5.536 -0.6299 -1.5860 -0.8734
  216MOL0     H29133   0.124   1.849   5.455  1.5069 -1.4478  0.9832
  216MOL0     H29134   0.055   1.739   5.248  0.4930  2.3119 -0.3511
  216MOL0     H29135  -0.047   1.869   5.286  3.3602 -0.1748 -0.4681
  216MOL0     H29136  -0.187   1.670   5.209 -2.1182  2.3100  1.4868
  216MOL0     H29137  -0.099   1.573   5.332  1.0423  0.6735  0.2477
  216MOL0     H29138  -0.223   1.633   5.492  2.3487  1.9595  1.2329
  216MOL0     H29139  -0.341   1.660   5.356  1.4896  2.3068 -3.7045
  216MOL0     H29140  -0.187   1.869   5.524 -2.2404  0.0185  3.7239
  216MOL0     H29141  -0.362   1.854   5.535 -0.0417  2.8438 -0.5732
  216MOL0     H29142   0.116   1.164   5.755 -0.7819 -0.3204 -0.8574
  216MOL0     H29143   0.291   1.022   5.837  0.7485 -0.5401 -0.8271
  216MOL0     H29144   0.693   1.095   6.121  0.0270  0.8124 -0.2915
  216MOL0     H29145   0.855   1.004   6.265  0.0758 -3.1774  0.2755
  216MOL0     H29146   2.732   0.310   6.544  1.1339 -1.4108  0.6916
  216MOL0     H29147   2.932   0.176   6.606  0.8291 -0.4437  2.2522
  216MOL0     H29148   3.228   0.095   6.867 -0.9456 -0.0216 -3.0454
  216MOL0     H29149   3.404  -0.095   6.944 -3.8931 -0.4051  0.4959
  216MOL0     H29150   3.471  -0.284   6.945  2.5014 -0.3341 -0.1431
  216MOL0     H29151   3.391  -0.312   6.791  0.1864 -2.9790 -1.4288
  216MOL0     H29152   3.581  -0.479   6.745  0.6849 -1.8226  0.9948
  216MOL0     H29153   3.495  -0.515   6.894 -0.3473 -0.9806 -1.7591
  216MOL0     H29154   3.691  -0.388   7.029 -2.6173  2.0204 -1.5493
  216MOL0     H29155   3.755  -0.351   6.872 -1.6027 -0.0078  0.0530
  216MOL0     H29156   3.897  -0.533   6.929  0.1813 -4.6965 -0.6346
  216MOL0     H29157   3.773  -0.606   6.837  1.0522 -1.6900  1.7672
  216MOL0     H29158   3.704  -0.740   7.234 -0.0131  1.0370  0.0554
  216MOL0     H29159   3.585  -0.037   6.564 -1.1122 -0.0720 -0.2018
  216MOL0     H29160   3.479   0.169   6.520 -0.5926  1.4427  0.2312
  217MOL0     O29161   9.994   5.883   3.073 -0.2263 -0.0145 -0.5708
  217MOL0     C29162   9.972   5.993   3.119 -0.7232 -0.5715 -0.0046
  217MOL0     O29163   9.987   6.033   3.257  0.0027  0.4739  0.0782
  217MOL0     C29164  10.052   5.965   3.349 -0.0710  1.2579  0.9592
  217MOL0     C29165  10.164   5.869   3.340 -0.1261 -0.8478 -0.2561
  217MOL0     C29166  10.220   5.812   3.450  0.6287  0.8620 -0.3643
  217MOL0     C29167  10.165   5.848   3.581 -0.2114  0.0915 -0.4233
  217MOL0     O29168  10.224   5.804   3.699 -0.1590  0.2373  0.2452
  217MOL0     C29169  10.130   5.742   3.792 -0.4449 -0.1778 -0.4723
  217MOL0     C29170  10.205   5.618   3.848 -0.2400  0.5901  0.3866
  217MOL0     C29171  10.130   5.571   3.972  0.2700  0.2549  0.0996
  217MOL0     C29172  10.137   5.672   4.090 -0.4198  0.4090 -0.0207
  217MOL0     C29173  10.109   5.618   4.230  0.8996  0.2716  0.0809
  217MOL0     C29174   9.963   5.566   4.246 -0.3935  0.0683 -0.2591
  217MOL0     C29175   9.938   5.503   4.381 -0.4191 -0.1095 -0.1155
  217MOL0     C29176   9.982   5.362   4.387 -0.1333 -0.2862 -0.4405
  217MOL0     N29177  10.001   5.336   4.530 -0.0953  0.0351  0.9024
  217MOL0     C29178   9.924   5.246   4.592  0.2121  0.2312  0.2794
  217MOL0     C29179   9.979   5.238   4.711  0.2383  0.4057 -0.6698
  217MOL0     C29180   9.937   5.155   4.835 -0.3129  0.0039 -0.4835
  217MOL0     C29181   9.895   5.240   4.960 -0.5729  0.0347  0.9299
  217MOL0     C29182   9.923   5.171   5.090 -0.4909 -0.1812  0.0885
  217MOL0     C29183   9.876   5.257   5.203 -0.1816  0.2409 -0.1083
  217MOL0     O29184   9.739   5.250   5.202 -0.0610 -0.4715 -0.1293
  217MOL0     C29185   9.661   5.323   5.285  0.2546 -0.3122  0.2294
  217MOL0     C29186   9.693   5.422   5.379  0.1203  0.2434  0.7094
  217MOL0     C29187   9.587   5.506   5.432  0.5252 -0.4408 -0.1175
  217MOL0     C29188   9.632   5.595   5.536 -0.3362  0.7179  0.9306
  217MOL0     C29189   9.452   5.486   5.378 -0.3740  0.1496 -0.3739
  217MOL0     C29190   9.335   5.574   5.415 -0.5266  0.2632 -0.2971
  217MOL0     O29191   9.225   5.549   5.342 -0.2446 -0.3684  0.8308
  217MOL0     C29192   9.112   5.622   5.376 -0.9367  0.6785  1.3064
  217MOL0     C29193   9.109   5.765   5.349  0.3754  0.8618  0.1830
  217MOL0     C29194   8.991   5.833   5.395  0.1225 -0.6095  0.6965
  217MOL0     C29195   8.883   5.772   5.457 -0.4312 -0.1355 -0.2394
  217MOL0     O29196   8.773   5.857   5.488  0.1122  0.0517 -0.0155
  217MOL0     C29197   8.650   5.793   5.512  0.1551  0.3308  0.2335
  217MOL0     C29198   8.589   5.732   5.385 -1.0121 -0.3199  0.6981
  217MOL0     C29199   8.496   5.828   5.311 -0.5742  0.2209 -0.1518
  217MOL0     C29200   8.452   5.769   5.178 -0.8773 -0.2490  0.3245
  217MOL0     C29201   8.384   5.869   5.090  0.0435  0.7852 -0.0391
  217MOL0     C29202   8.405   5.834   4.950 -0.5957 -0.3816  0.1447
  217MOL0     C29203   8.318   5.903   4.844  0.3145  0.0552  0.0977
  217MOL0     C29204   8.375   6.030   4.807  0.1018  0.3462  0.1837
  217MOL0    Cl29205   8.290   6.095   4.666  0.3141 -0.0265  0.0159
  217MOL0     C29206   8.898   5.636   5.485  0.6561 -0.1312  0.0372
  217MOL0     C29207   9.010   5.558   5.451 -0.2534 -0.0638  0.0709
  217MOL0     O29208   9.351   5.650   5.510 -0.1993  0.6321  0.3069
  217MOL0     C29209   9.427   5.378   5.291  0.0291 -0.1769  0.0544
  217MOL0     C29210   9.528   5.299   5.248 -0.0313  0.5470  0.2555
  217MOL0     N29211  10.095   5.310   4.713 -0.3085  0.1142 -0.4661
  217MOL0     N29212  10.116   5.371   4.599  0.0765  0.3014 -0.0725
  217MOL0     C29213  10.053   5.937   3.584  0.1055 -0.3322  0.1521
  217MOL0     C29214   9.997   5.992   3.472 -0.3436  0.4795 -0.2733
  217MOL0     C29215   9.904   6.096   3.037 -0.0913  0.7872 -0.0372
  217MOL0     C29216   9.858   6.062   2.904  0.3382  0.6959 -0.5470
  217MOL0     C29217   9.800   6.165   2.830  0.2340  0.3452  0.0186
  217MOL0     C29218   9.783   6.295   2.874  0.9409 -0.2419  0.0156
  217MOL0     O29219   9.724   6.402   2.808  0.4968 -0.5360 -1.1727
  217MOL0     C29220   9.717   6.393   2.667 -0.9029  0.4897  0.2286
  217MOL0     C29221   9.723   6.535   2.614  0.1569 -0.0547  0.3419
  217MOL0     C29222   9.861   6.593   2.628 -0.6726  0.2532 -0.0330
  217MOL0     C29223   9.865   6.737   2.678  0.2005  0.9195 -0.3885
  217MOL0     C29224  10.004   6.786   2.649  0.3111  0.3414  0.1372
  217MOL0     C29225  10.111   6.830   2.621 -0.6556 -0.4787  0.6684
  217MOL0     C29226   9.839   6.329   2.997  0.2075 -0.0956  0.7299
  217MOL0     C29227   9.894   6.233   3.080 -0.3757 -0.2506  1.2141
  217MOL0     H29228  10.194   5.843   3.239  1.0731 -3.7809  0.7500
  217MOL0     H29229  10.303   5.742   3.448 -0.7627 -1.0295  1.9087
  217MOL0     H29230  10.109   5.815   3.871 -1.6425 -0.1154 -0.8370
  217MOL0     H29231  10.035   5.714   3.746  0.7421 -0.1746 -3.1116
  217MOL0     H29232  10.205   5.528   3.785  2.0400  0.3449  0.6559
  217MOL0     H29233  10.306   5.650   3.872 -0.0892  1.4591 -1.2573
  217MOL0     H29234  10.024   5.559   3.946  0.2831 -3.9978  1.2501
  217MOL0     H29235  10.174   5.477   4.005 -0.8048 -0.4100 -0.3043
  217MOL0     H29236  10.238   5.715   4.093 -0.3794  0.3904 -0.9798
  217MOL0     H29237  10.064   5.752   4.076 -1.3886 -0.5290 -0.4430
  217MOL0     H29238  10.176   5.535   4.253  0.6295  0.0825  0.1969
  217MOL0     H29239  10.114   5.704   4.298  1.9276  0.4715 -0.2288
  217MOL0     H29240   9.904   5.655   4.221  0.2461 -0.3555 -3.6730
  217MOL0     H29241   9.935   5.500   4.164  0.5716  0.5684 -1.0111
  217MOL0     H29242   9.990   5.561   4.459  0.3838 -1.1876  0.1657
  217MOL0     H29243   9.832   5.510   4.405 -0.4964 -0.1239 -0.4588
  217MOL0     H29244  10.075   5.343   4.332  1.4334  2.3834  1.0890
  217MOL0     H29245   9.906   5.293   4.348 -0.4455 -0.8850  1.1599
  217MOL0     H29246   9.834   5.201   4.552 -0.7691  1.7279  0.7209
  217MOL0     H29247   9.850   5.090   4.825 -0.4846  0.2540 -0.6112
  217MOL0     H29248  10.023   5.090   4.855 -0.4928 -0.6143 -1.6555
  217MOL0     H29249   9.791   5.264   4.934  0.3497  0.3709 -3.2935
  217MOL0     H29250   9.958   5.329   4.957  1.1095 -1.1272 -0.4200
  217MOL0     H29251  10.028   5.142   5.100 -0.7350 -1.4043 -0.6358
  217MOL0     H29252   9.865   5.080   5.069  2.4968 -1.9790 -1.0885
  217MOL0     H29253   9.911   5.360   5.191 -0.6411  1.0154  3.9130
  217MOL0     H29254   9.915   5.216   5.297 -0.6509  0.9298  0.3929
  217MOL0     H29255   9.796   5.427   5.414  0.7221  1.0876 -1.0851
  217MOL0     H29256   9.726   5.548   5.567 -0.9147 -0.9036  0.3453
  217MOL0     H29257   9.651   5.697   5.503 -1.0296  0.5382 -0.0948
  217MOL0     H29258   9.570   5.598   5.627 -0.4988 -1.9656  0.9865
  217MOL0     H29259   9.197   5.806   5.302  0.9985 -1.1510 -0.5429
  217MOL0     H29260   8.984   5.937   5.363 -2.3966 -0.9348 -0.0349
  217MOL0     H29261   8.660   5.725   5.597 -0.0532  0.3094  0.2413
  217MOL0     H29262   8.583   5.872   5.548 -1.1975 -0.6214 -0.1146
  217MOL0     H29263   8.670   5.686   5.327  1.4838  1.1926  2.7655
  217MOL0     H29264   8.543   5.636   5.412  2.1792 -2.3246 -0.3576
  217MOL0     H29265   8.550   5.921   5.297  0.5222 -0.5272 -1.0803
  217MOL0     H29266   8.408   5.853   5.371 -0.8747 -0.1767 -0.4208
  217MOL0     H29267   8.549   5.743   5.136  0.7417 -0.5032  3.8363
  217MOL0     H29268   8.398   5.674   5.184 -1.6770  0.1904  0.2463
  217MOL0     H29269   8.430   5.966   5.110 -0.4575  0.7202  1.5515
  217MOL0     H29270   8.279   5.875   5.120  0.0060  2.9318 -0.4833
  217MOL0     H29271   8.508   5.862   4.927  0.2736 -4.3546 -1.6006
  217MOL0     H29272   8.413   5.725   4.941  0.3923 -0.3370  0.3048
  217MOL0     H29273   8.222   5.927   4.889 -1.1310  0.9016 -3.1554
  217MOL0     H29274   8.289   5.836   4.763 -1.6827  1.3931 -0.3597
  217MOL0     H29275   8.478   6.024   4.771  1.0086  2.4363  2.1113
  217MOL0     H29276   8.384   6.096   4.894  1.9977 -0.8891  0.9863
  217MOL0     H29277   8.813   5.587   5.533  0.6659 -0.4805 -0.2966
  217MOL0     H29278   9.016   5.452   5.472 -0.3664 -0.2675 -0.8736
  217MOL0     H29279   9.327   5.336   5.278  0.3433 -1.6424  1.9379
  217MOL0     H29280   9.510   5.208   5.191  1.9818 -1.1800  2.2201
  217MOL0     H29281  10.025   5.970   3.684  2.7480  1.9512  0.2621
  217MOL0     H29282   9.907   6.049   3.490 -0.1172  0.0837  2.6379
  217MOL0     H29283   9.866   5.959   2.873  1.1195  0.6708 -0.2737
  217MOL0     H29284   9.746   6.129   2.743 -1.5820  1.3816  0.6430
  217MOL0     H29285   9.792   6.338   2.609  1.0331  1.3252  1.8140
  217MOL0     H29286   9.614   6.361   2.648 -0.7267 -2.1843  3.1170
  217MOL0     H29287   9.644   6.594   2.660  2.4261  3.2798  0.3216
  217MOL0     H29288   9.696   6.531   2.508  0.7818 -0.1177  0.1796
  217MOL0     H29289   9.911   6.574   2.532 -2.6218 -0.4329 -0.9574
  217MOL0     H29290   9.916   6.543   2.708 -0.6757  0.0932 -0.1310
  217MOL0     H29291   9.852   6.737   2.787  0.8735 -3.7018 -0.1226
  217MOL0     H29292   9.786   6.801   2.636 -2.1696 -0.0865  2.2166
  217MOL0     H29293  10.203   6.878   2.597 -0.5125 -1.8235 -1.7733
  217MOL0     H29294   9.842   6.434   3.024  2.8476  0.1156 -0.0822
  217MOL0     H29295   9.933   6.263   3.177  2.6253  0.2504 -0.0389
  218MOL0     O29296   0.556   8.654   9.208 -0.7253  0.0409 -0.3962
  218MOL0     C29297   0.510   8.679   9.321  0.2997 -0.8036  0.0795
  218MOL0     O29298   0.567   8.638   9.441  0.1872 -0.4761 -0.3563
  218MOL0     C29299   0.676   8.550   9.426  0.8075 -0.2917 -0.2367
  218MOL0     C29300   0.794   8.586   9.368  0.1135 -1.3588  0.4903
  218MOL0     C29301   0.900   8.502   9.330  0.4562 -0.2657  0.8440
  218MOL0     C29302   0.881   8.371   9.356  0.0328 -0.4926 -0.4774
  218MOL0     O29303   0.954   8.261   9.325 -0.0516  0.3650  0.5364
  218MOL0     C29304   1.095   8.267   9.327 -0.1821  0.8330  0.5979
  218MOL0     C29305   1.134   8.136   9.248  0.9056  0.7052  0.0342
  218MOL0     C29306   1.111   8.005   9.336  0.3014  0.0315  0.4436
  218MOL0     C29307   1.191   7.993   9.467  0.2554  0.1548  0.0707
  218MOL0     C29308   1.241   7.848   9.506 -1.4302 -0.5434 -0.7581
  218MOL0     C29309   1.350   7.827   9.615  0.1570 -0.1114 -0.1641
  218MOL0     C29310   1.310   7.905   9.745 -0.2886  0.0818 -0.3051
  218MOL0     C29311   1.386   7.874   9.875 -0.1632  0.5678  0.0566
  218MOL0     N29312   1.317   7.929   9.984 -0.3214 -0.5106 -0.0681
  218MOL0     C29313   1.347   8.048  10.039 -0.1031 -0.0056  0.2686
  218MOL0     C29314   1.236   8.066  10.124  0.2219 -0.3314  0.2215
  218MOL0     C29315   1.211   8.190  10.190  0.7772  0.2023 -1.1839
  218MOL0     C29316   1.156   8.296  10.093  0.1411 -0.0129 -0.7061
  218MOL0     C29317   1.024   8.271  10.022 -0.3685 -0.2741  0.3563
  218MOL0     C29318   0.916   8.210  10.119 -0.2462 -0.3975 -0.2920
  218MOL0     O29319   0.781   8.243  10.096 -0.3215 -0.7672  0.2068
  218MOL0     C29320   0.732   8.208   9.978 -0.2411 -0.4494  0.5384
  218MOL0     C29321   0.623   8.276   9.929  0.2262 -0.0552 -0.1489
  218MOL0     C29322   0.540   8.232   9.822 -0.4326 -0.4095 -0.7391
  218MOL0     C29323   0.442   8.342   9.791  0.7270  0.3944  0.9202
  218MOL0     C29324   0.578   8.135   9.730 -0.4868  1.2591  0.6486
  218MOL0     C29325   0.504   8.092   9.604 -0.4648  0.2342 -0.2560
  218MOL0     O29326   0.562   7.973   9.548  0.4252  0.4395  0.0918
  218MOL0     C29327   0.470   7.917   9.458 -0.9323  0.1632  0.1247
  218MOL0     C29328   0.472   7.953   9.323  0.4431 -0.0122 -0.6747
  218MOL0     C29329   0.386   7.887   9.233 -0.1962 -0.0962 -0.5135
  218MOL0     C29330   0.309   7.782   9.269 -0.2300  0.1196 -0.2159
  218MOL0     O29331   0.242   7.698   9.184  0.3875  0.7617 -0.1637
  218MOL0     C29332   0.279   7.687   9.042  0.3144 -0.8241  0.6985
  218MOL0     C29333   0.420   7.644   9.019  0.5947  0.4321 -0.5826
  218MOL0     C29334   0.435   7.518   8.932  0.0332 -0.3821  1.0747
  218MOL0     C29335   0.406   7.396   9.007 -0.8285  0.6586 -0.5001
  218MOL0     C29336   0.481   7.270   8.947 -0.2347 -0.4231 -0.0137
  218MOL0     C29337   0.459   7.146   9.037  0.0303 -0.5586  0.0353
  218MOL0     C29338   0.523   7.023   8.996 -0.1725  0.7861  0.1430
  218MOL0     C29339   0.530   6.931   9.116  0.2462  0.1822 -1.4405
  218MOL0    Cl29340   0.632   7.004   9.255  0.0852  0.0878  0.1252
  218MOL0     C29341   0.312   7.739   9.402  0.1293  0.2363 -0.1438
  218MOL0     C29342   0.405   7.801   9.488  0.2981 -0.2352 -0.5086
  218MOL0     O29343   0.401   8.148   9.576  0.3681  0.1217  0.5169
  218MOL0     C29344   0.690   8.066   9.769  0.2405  0.6878  0.3998
  218MOL0     C29345   0.756   8.099   9.889  0.0280 -0.3021  0.4388
  218MOL0     N29346   1.151   7.960  10.125  0.1480  0.4441  1.3041
  218MOL0     N29347   1.198   7.880  10.034  0.0370 -0.4430 -1.4179
  218MOL0     C29348   0.765   8.320   9.418 -0.2437  0.8688  0.1304
  218MOL0     C29349   0.661   8.408   9.443  0.3038  0.3553  0.4676
  218MOL0     C29350   0.388   8.763   9.325  0.5602 -0.4071  0.3450
  218MOL0     C29351   0.300   8.783   9.214 -0.8603  0.2169  0.0016
  218MOL0     C29352   0.172   8.838   9.231  0.6099  0.7016  0.3256
  218MOL0     C29353   0.132   8.898   9.347  0.5417 -0.4371 -0.5677
  218MOL0     O29354   0.010   8.959   9.357 -0.0393 -0.0768  0.1044
  218MOL0     C29355  -0.055   9.001   9.477  0.3446  0.4000 -0.5427
  218MOL0     C29356  -0.204   9.006   9.443  0.6369 -0.6195  0.6089
  218MOL0     C29357  -0.285   9.059   9.555 -0.3789 -1.1923 -0.3616
  218MOL0     C29358  -0.311   8.957   9.674  1.4963 -0.2010  0.6433
  218MOL0     C29359  -0.452   8.969   9.716  0.3848 -0.4777 -0.3366
  218MOL0     C29360  -0.570   8.988   9.742 -0.0429  0.2226 -0.4340
  218MOL0     C29361   0.220   8.877   9.458 -0.2354  0.0765 -1.0366
  218MOL0     C29362   0.341   8.807   9.451  0.2390 -0.1637  0.6297
  218MOL0     H29363   0.802   8.693   9.350  1.1153 -1.1402  2.0639
  218MOL0     H29364   0.989   8.541   9.280  1.8135 -0.8510  2.6989
  218MOL0     H29365   1.126   8.350   9.263 -0.1580  0.0792 -0.3903
  218MOL0     H29366   1.135   8.282   9.428 -1.3681  2.6417  0.8504
  218MOL0     H29367   1.071   8.128   9.158 -1.6450 -0.4763  1.7985
  218MOL0     H29368   1.240   8.135   9.221  0.6593 -1.7577 -1.1779
  218MOL0     H29369   1.006   8.001   9.368  0.1036 -3.1995 -0.2768
  218MOL0     H29370   1.143   7.915   9.283  0.4459  0.4366 -0.1748
  218MOL0     H29371   1.280   8.056   9.459  0.4841 -0.2991 -1.4452
  218MOL0     H29372   1.134   8.046   9.543 -0.4968  3.6071 -2.6409
  218MOL0     H29373   1.150   7.790   9.528 -3.7245  2.6582 -1.1885
  218MOL0     H29374   1.280   7.803   9.414  1.9506 -0.7498  0.6415
  218MOL0     H29375   1.369   7.721   9.635  2.2871 -0.3641 -2.9161
  218MOL0     H29376   1.449   7.859   9.579  0.7659 -1.1356  0.5320
  218MOL0     H29377   1.323   8.012   9.732 -2.7644  0.3114 -1.6508
  218MOL0     H29378   1.203   7.890   9.765  0.0268 -1.2729  0.4877
  218MOL0     H29379   1.491   7.901   9.860 -0.1413 -0.7269 -2.9849
  218MOL0     H29380   1.385   7.766   9.893  3.8678  0.8184  3.2201
  218MOL0     H29381   1.433   8.113  10.042  0.3497 -0.6044  3.1074
  218MOL0     H29382   1.141   8.157  10.267  0.8092 -0.8946 -1.6087
  218MOL0     H29383   1.295   8.229  10.248 -1.2646  1.6442  0.9658
  218MOL0     H29384   1.234   8.310  10.017  0.8975  0.5932  0.1586
  218MOL0     H29385   1.146   8.384  10.157 -0.7634  2.3659 -3.8720
  218MOL0     H29386   1.045   8.214   9.931  0.5604 -1.0992  1.0612
  218MOL0     H29387   0.999   8.372   9.991  0.4926 -0.5485 -1.3585
  218MOL0     H29388   0.949   8.246  10.217  0.9061  2.0170 -1.4810
  218MOL0     H29389   0.936   8.102  10.116  1.7199 -0.0680 -0.2924
  218MOL0     H29390   0.625   8.375   9.974  2.6390  0.8161 -1.9294
  218MOL0     H29391   0.423   8.398   9.883 -0.2992  0.3276  0.7614
  218MOL0     H29392   0.466   8.416   9.713  0.9448  1.3835  1.9083
  218MOL0     H29393   0.350   8.290   9.763 -0.1076  2.1717  0.1961
  218MOL0     H29394   0.539   8.035   9.297 -2.4609  2.4213 -1.0759
  218MOL0     H29395   0.392   7.928   9.133  4.5809 -2.1002 -1.3434
  218MOL0     H29396   0.208   7.617   8.996 -1.5554  2.3893 -1.7695
  218MOL0     H29397   0.269   7.789   9.003  0.5640 -0.8255  0.6294
  218MOL0     H29398   0.465   7.725   8.961  0.5121  0.6560 -0.3383
  218MOL0     H29399   0.480   7.630   9.110 -0.5966  1.1354  0.3380
  218MOL0     H29400   0.542   7.521   8.911  1.0537 -0.1240  5.2550
  218MOL0     H29401   0.383   7.527   8.836  0.6151 -2.3405  0.5321
  218MOL0     H29402   0.443   7.403   9.110 -0.5009 -2.5846 -0.2862
  218MOL0     H29403   0.300   7.369   9.003 -0.2818 -1.4920 -3.2165
  218MOL0     H29404   0.589   7.286   8.936  0.4200 -3.7616  0.4887
  218MOL0     H29405   0.443   7.246   8.847  3.0460 -2.2843 -0.9625
  218MOL0     H29406   0.507   7.179   9.129  0.9170 -1.2854 -0.1579
  218MOL0     H29407   0.354   7.121   9.057  0.3822  0.1346  3.4772
  218MOL0     H29408   0.623   7.049   8.959  0.2273  2.2347  2.0970
  218MOL0     H29409   0.462   6.975   8.919  2.7348 -0.3895 -1.6041
  218MOL0     H29410   0.584   6.841   9.085  2.3898  0.3869  1.3353
  218MOL0     H29411   0.433   6.899   9.155  0.6478  1.4542  0.7879
  218MOL0     H29412   0.256   7.648   9.417  0.1227  0.2703  0.0376
  218MOL0     H29413   0.407   7.769   9.592  0.5030 -1.3061 -0.8326
  218MOL0     H29414   0.723   7.976   9.717 -1.9503 -1.0601  1.8433
  218MOL0     H29415   0.826   8.025   9.926 -1.0943 -2.1601 -0.8818
  218MOL0     H29416   0.759   8.212   9.427 -2.3686  0.6926 -2.2005
  218MOL0     H29417   0.565   8.363   9.467  0.4254  0.3435  0.9271
  218MOL0     H29418   0.339   8.743   9.121  4.3535  0.9191  1.5925
  218MOL0     H29419   0.111   8.860   9.144  2.0818  3.8889 -0.0223
  218MOL0     H29420  -0.034   8.946   9.569 -0.9176  0.9093  0.0766
  218MOL0     H29421  -0.024   9.102   9.503 -0.2194  0.9733 -1.9561
  218MOL0     H29422  -0.250   8.917   9.398 -2.0438  1.6581 -1.5313
  218MOL0     H29423  -0.210   9.089   9.372 -1.2618  0.3266  1.7933
  218MOL0     H29424  -0.379   9.095   9.512  1.6102  4.5853 -0.8017
  218MOL0     H29425  -0.234   9.150   9.588  4.3352 -3.0715 -1.5954
  218MOL0     H29426  -0.234   8.958   9.752  1.1501  0.2699  0.9862
  218MOL0     H29427  -0.294   8.861   9.625 -0.7971  0.1438 -0.9532
  218MOL0     H29428  -0.673   9.004   9.766 -0.1393 -1.4174  0.3677
  218MOL0     H29429   0.192   8.912   9.557 -1.2304 -2.2429 -0.4360
  218MOL0     H29430   0.401   8.783   9.538  0.4505 -1.2384  0.1992
  219MOL0     O29431  10.129   9.659   3.253 -0.0548  0.0210  0.5940
  219MOL0     C29432  10.186   9.720   3.351 -0.2066 -0.9923  0.5477
  219MOL0     O29433  10.199   9.859   3.358  0.5055 -0.0548  0.6708
  219MOL0     C29434  10.140   9.927   3.250  0.1576  0.2949 -0.3909
  219MOL0     C29435  10.208   9.945   3.130 -0.8297  0.0447  0.8416
  219MOL0     C29436  10.150  10.042   3.041 -0.8127 -0.5405 -0.4228
  219MOL0     C29437  10.035  10.108   3.064  0.2552  0.7143  0.1118
  219MOL0     O29438   9.995  10.203   2.966  0.3476  0.6036 -0.0452
  219MOL0     C29439   9.855  10.230   2.928 -0.3620  0.2881  1.2836
  219MOL0     C29440   9.801  10.101   2.859 -0.1410 -0.9973 -0.5075
  219MOL0     C29441   9.884  10.070   2.727 -0.8262 -0.1112 -1.3156
  219MOL0     C29442   9.818   9.953   2.660 -0.1683  0.8387  0.3619
  219MOL0     C29443   9.895   9.889   2.534 -1.2140  0.5780 -0.2760
  219MOL0     C29444  10.009   9.802   2.582 -0.3028 -0.8953  0.4050
  219MOL0     C29445  10.070   9.737   2.465 -0.3866 -0.1731 -0.1980
  219MOL0     C29446  10.000   9.598   2.458 -0.4707 -0.2196 -0.0000
  219MOL0     N29447  10.004   9.538   2.328  0.4691 -0.0067  0.7449
  219MOL0     C29448  10.081   9.448   2.272  0.0227  0.4418 -0.1905
  219MOL0     C29449  10.030   9.430   2.150  0.1212  0.1293  0.2714
  219MOL0     C29450  10.075   9.320   2.060 -0.7956  0.0188  0.1578
  219MOL0     C29451  10.100   9.365   1.920  0.8068 -0.4117  0.1745
  219MOL0     C29452  10.222   9.457   1.913  0.5841  0.7934  0.8410
  219MOL0     C29453  10.254   9.505   1.772 -1.1062  0.9134  0.2801
  219MOL0     O29454  10.137   9.519   1.698 -0.3328 -0.1073  0.0582
  219MOL0     C29455  10.140   9.581   1.572  0.3206  0.1543 -0.2282
  219MOL0     C29456  10.022   9.639   1.528 -0.1190 -0.2398 -0.4494
  219MOL0     C29457  10.026   9.706   1.392  0.2492  0.1026 -0.8542
  219MOL0     C29458   9.897   9.785   1.357  0.2093 -0.8688 -0.1164
  219MOL0     C29459  10.132   9.686   1.304  0.6457 -0.2462  0.5314
  219MOL0     C29460  10.133   9.729   1.161  0.4169 -0.0237  0.0880
  219MOL0     O29461  10.249   9.705   1.096  0.0945 -0.2899 -0.3137
  219MOL0     C29462  10.278   9.751   0.970  0.4810 -0.2363 -0.2573
  219MOL0     C29463  10.206   9.727   0.844  0.2704 -0.1864  0.3242
  219MOL0     C29464  10.265   9.765   0.719 -0.7354  0.1557  0.4087
  219MOL0     C29465  10.380   9.834   0.723  0.0423 -0.5310  0.4554
  219MOL0     O29466  10.431   9.864   0.595  0.2753  0.6702 -0.3247
  219MOL0     C29467  10.563   9.799   0.572  1.0479  0.4955 -0.1921
  219MOL0     C29468  10.602   9.746   0.425 -0.3458 -0.1173  0.5434
  219MOL0     C29469  10.521   9.609   0.389 -0.9782 -0.1996 -0.2931
  219MOL0     C29470  10.547   9.537   0.259  0.8959  0.1998  0.5943
  219MOL0     C29471  10.431   9.459   0.197 -0.4660  0.0400  0.1722
  219MOL0     C29472  10.485   9.379   0.079 -0.0542 -0.3841 -0.7282
  219MOL0     C29473  10.403   9.261   0.036 -0.3480  0.1231 -0.2460
  219MOL0     C29474  10.286   9.297  -0.046 -1.0146 -0.3881  0.3978
  219MOL0    Cl29475  10.140   9.222   0.023 -0.4413  0.1104 -0.0467
  219MOL0     C29476  10.453   9.855   0.843 -0.3893 -0.0559  0.1979
  219MOL0     C29477  10.413   9.801   0.958 -0.2080  0.0330  0.2259
  219MOL0     O29478  10.037   9.795   1.118 -0.5861  0.9154  0.7467
  219MOL0     C29479  10.252   9.629   1.358  0.3490  0.2594  0.0633
  219MOL0     C29480  10.252   9.580   1.487 -0.6637 -1.1412 -0.2412
  219MOL0     N29481   9.930   9.526   2.124 -0.3054  0.0641  0.0607
  219MOL0     N29482   9.906   9.583   2.229 -0.7232 -0.0472 -0.1148
  219MOL0     C29483   9.959  10.072   3.169  0.9093 -0.3771 -0.5563
  219MOL0     C29484  10.011   9.991   3.269 -0.4796 -0.6265  1.4900
  219MOL0     C29485  10.249   9.647   3.463  0.1689 -0.4502  0.3125
  219MOL0     C29486  10.304   9.716   3.576  0.0334 -0.8203  1.3844
  219MOL0     C29487  10.379   9.642   3.667 -0.2307 -0.1222  0.4869
  219MOL0     C29488  10.391   9.504   3.660  0.0350  0.3727 -0.5193
  219MOL0     O29489  10.471   9.447   3.755 -0.3058 -0.8023  0.3346
  219MOL0     C29490  10.483   9.298   3.777 -0.5927  0.2667 -0.0740
  219MOL0     C29491  10.387   9.229   3.866  0.5222  0.1410  1.0260
  219MOL0     C29492  10.403   9.246   4.016  0.2467 -0.1370  0.6290
  219MOL0     C29493  10.321   9.139   4.093  0.0763 -0.2061  0.2232
  219MOL0     C29494  10.179   9.174   4.106  0.1411  0.2419 -1.0303
  219MOL0     C29495  10.060   9.175   4.131 -0.7398  0.1237 -0.2099
  219MOL0     C29496  10.328   9.439   3.553  0.8049 -0.1403  0.8115
  219MOL0     C29497  10.260   9.508   3.458  0.4618  0.4123  0.4265
  219MOL0     H29498  10.292   9.881   3.103 -2.0183 -1.1969 -0.0360
  219MOL0     H29499  10.183  10.041   2.938 -0.3971 -0.7248 -0.2904
  219MOL0     H29500   9.795  10.253   3.016 -1.1733  2.7518  0.1621
  219MOL0     H29501   9.840  10.318   2.865 -0.7260 -0.4216  0.3558
  219MOL0     H29502   9.797  10.018   2.931  0.5981  0.2785  1.0734
  219MOL0     H29503   9.700  10.134   2.835  0.3474 -0.0554 -1.3501
  219MOL0     H29504   9.896  10.144   2.648  1.9610 -1.9888 -2.8036
  219MOL0     H29505   9.979  10.023   2.752 -1.5532 -2.1990 -2.2834
  219MOL0     H29506   9.794   9.876   2.734 -0.7600 -1.2215 -1.8403
  219MOL0     H29507   9.724   9.987   2.615  0.7711  2.4476 -0.4871
  219MOL0     H29508   9.822   9.825   2.483 -2.3612 -0.6353  2.7008
  219MOL0     H29509   9.944   9.962   2.468 -1.0448  1.6412  1.0001
  219MOL0     H29510  10.079   9.867   2.635  0.4498 -1.2403 -0.1589
  219MOL0     H29511   9.967   9.740   2.661  0.8454 -1.7830  0.3263
  219MOL0     H29512  10.056   9.788   2.370  0.3218 -1.3467 -0.9617
  219MOL0     H29513  10.178   9.731   2.480 -0.4819 -0.3485  0.4666
  219MOL0     H29514   9.897   9.612   2.490 -0.1702  2.5095  0.0653
  219MOL0     H29515  10.047   9.530   2.529 -0.3763 -0.9174 -0.7139
  219MOL0     H29516  10.155   9.396   2.333 -2.0182  0.9784  2.9686
  219MOL0     H29517  10.172   9.281   2.093 -0.2679  0.7198 -0.5198
  219MOL0     H29518   9.995   9.245   2.057 -0.5604 -0.4248  2.7159
  219MOL0     H29519  10.010   9.414   1.882 -0.7487 -0.1759  3.7503
  219MOL0     H29520  10.119   9.276   1.859 -1.2946 -0.7538 -0.0502
  219MOL0     H29521  10.310   9.402   1.948  0.8168  3.6036  5.4653
  219MOL0     H29522  10.203   9.539   1.982 -2.4895  0.6828  0.2462
  219MOL0     H29523  10.321   9.430   1.730  2.0933  1.6911  3.4912
  219MOL0     H29524  10.302   9.603   1.777 -1.7870  1.2867 -0.4093
  219MOL0     H29525   9.935   9.651   1.591  0.8893  0.2663  0.8953
  219MOL0     H29526   9.827   9.788   1.442  1.4167  1.8220  0.9122
  219MOL0     H29527   9.929   9.888   1.338 -1.4098  0.0312  1.6401
  219MOL0     H29528   9.841   9.756   1.268  0.2654 -0.0180 -0.4438
  219MOL0     H29529  10.113   9.671   0.839 -1.5253  2.6460 -0.7780
  219MOL0     H29530  10.228   9.745   0.619  1.8202 -1.3793 -0.3326
  219MOL0     H29531  10.650   9.860   0.599  0.8094  0.0632  1.6770
  219MOL0     H29532  10.563   9.707   0.631 -0.1293 -1.8823 -3.6241
  219MOL0     H29533  10.576   9.829   0.359  1.2484 -2.2164 -3.0518
  219MOL0     H29534  10.711   9.732   0.419 -0.4926 -1.1425 -0.1920
  219MOL0     H29535  10.414   9.629   0.397 -0.6144  0.8877  3.4563
  219MOL0     H29536  10.547   9.543   0.472  0.1708 -0.8308 -1.1278
  219MOL0     H29537  10.580   9.619   0.193 -2.4423 -1.8884 -4.2094
  219MOL0     H29538  10.638   9.476   0.262  0.4039 -0.6509 -1.0161
  219MOL0     H29539  10.343   9.517   0.170 -2.4690 -3.5585 -1.9100
  219MOL0     H29540  10.399   9.390   0.276  0.5416 -0.3106  0.2906
  219MOL0     H29541  10.511   9.441  -0.007  0.0947  0.1193 -0.3291
  219MOL0     H29542  10.580   9.332   0.109 -0.6003 -0.6276  0.7241
  219MOL0     H29543  10.372   9.195   0.117  2.0973 -1.1464 -0.2481
  219MOL0     H29544  10.471   9.194  -0.018 -2.7623 -3.1575  0.4498
  219MOL0     H29545  10.319   9.259  -0.143  1.7995  1.6219  0.4405
  219MOL0     H29546  10.273   9.401  -0.076  0.3249 -1.2722 -4.0664
  219MOL0     H29547  10.547   9.909   0.844  1.5101 -3.1647  0.8027
  219MOL0     H29548  10.451   9.806   1.060 -3.8867  0.3144  1.7564
  219MOL0     H29549  10.349   9.621   1.310  0.5494  2.6670 -0.0934
  219MOL0     H29550  10.340   9.518   1.504 -0.4563 -1.0348 -0.8897
  219MOL0     H29551   9.856  10.108   3.173 -0.5993 -4.3002  2.3519
  219MOL0     H29552   9.953   9.971   3.358  0.3274 -4.6478  1.2702
  219MOL0     H29553  10.307   9.822   3.598 -0.5700 -0.0470 -1.7530
  219MOL0     H29554  10.416   9.694   3.756 -1.6834  0.6260  0.6755
  219MOL0     H29555  10.500   9.245   3.683  1.2028 -1.7060  1.2595
  219MOL0     H29556  10.580   9.288   3.827  0.4048  1.2777 -1.6964
  219MOL0     H29557  10.405   9.125   3.840  3.3619  1.4527 -3.2686
  219MOL0     H29558  10.286   9.264   3.844  0.5058 -0.4390  0.1406
  219MOL0     H29559  10.374   9.345   4.054  1.6475  0.3677  0.4325
  219MOL0     H29560  10.508   9.230   4.042  1.3731  1.1559 -2.6277
  219MOL0     H29561  10.365   9.132   4.193 -1.9757  2.5577  1.4763
  219MOL0     H29562  10.327   9.044   4.040  0.4909  0.8346 -1.6964
  219MOL0     H29563   9.956   9.162   4.153 -0.7623  0.1080 -0.3244
  219MOL0     H29564  10.334   9.331   3.539  0.8435  0.1410 -2.0325
  219MOL0     H29565  10.224   9.462   3.366  2.4596 -1.3684  0.4416
  220MOL0     O29566   8.227   6.937   0.666 -0.5748  0.5082 -0.3329
  220MOL0     C29567   8.330   6.882   0.694  0.5918  0.4670 -0.0058
  220MOL0     O29568   8.440   6.939   0.741 -0.7909 -0.5477  0.6239
  220MOL0     C29569   8.444   7.073   0.737 -0.7127  0.6688 -0.0249
  220MOL0     C29570   8.353   7.146   0.813  0.2301  0.2165 -0.3880
  220MOL0     C29571   8.343   7.282   0.793 -0.2191 -1.1218  0.2840
  220MOL0     C29572   8.421   7.359   0.704 -0.2296  0.4060 -0.3292
  220MOL0     O29573   8.411   7.501   0.719  0.4102  0.0670  0.7324
  220MOL0     C29574   8.418   7.583   0.606  0.3277  0.4106 -0.5747
  220MOL0     C29575   8.303   7.544   0.519 -0.8510 -0.6269  0.7503
  220MOL0     C29576   8.301   7.626   0.390 -0.4738 -0.7340 -0.9936
  220MOL0     C29577   8.196   7.555   0.295  0.1121 -0.0016 -0.2925
  220MOL0     C29578   8.179   7.644   0.162  0.7899 -0.0372 -0.0260
  220MOL0     C29579   8.299   7.676   0.083 -0.8814 -0.1686 -0.4630
  220MOL0     C29580   8.354   7.554   0.013 -0.4989  0.0982  0.9082
  220MOL0     C29581   8.486   7.570  -0.062  0.1472  0.5043 -0.6165
  220MOL0     N29582   8.600   7.577   0.026  0.0915 -1.0003 -0.4054
  220MOL0     C29583   8.664   7.696   0.056 -0.2765  0.3460 -0.4611
  220MOL0     C29584   8.773   7.655   0.129 -0.3206 -0.0582 -0.1161
  220MOL0     C29585   8.893   7.736   0.185 -0.1233 -0.2908  0.9832
  220MOL0     C29586   8.879   7.777   0.339  0.7312 -0.1470  0.0801
  220MOL0     C29587   8.755   7.854   0.384  0.3806 -0.6922  0.1158
  220MOL0     C29588   8.739   7.882   0.537  0.5956  0.4360 -0.9074
  220MOL0     O29589   8.604   7.928   0.559 -0.0315 -0.3147 -0.2726
  220MOL0     C29590   8.579   8.015   0.660 -0.5856  0.5733 -0.6596
  220MOL0     C29591   8.458   8.074   0.669  0.3988  0.1648  0.8443
  220MOL0     C29592   8.409   8.166   0.762  0.0005 -0.0994  0.1397
  220MOL0     C29593   8.259   8.202   0.758  0.3170 -0.3360  0.1439
  220MOL0     C29594   8.501   8.194   0.866  0.6840  0.7733 -0.6690
  220MOL0     C29595   8.466   8.297   0.967  0.4501 -0.3405  0.4966
  220MOL0     O29596   8.495   8.275   1.096 -0.2483 -0.4090  0.5681
  220MOL0     C29597   8.546   8.361   1.182 -0.8959 -0.6650 -0.3419
  220MOL0     C29598   8.540   8.319   1.310 -0.7145  0.0759 -0.4518
  220MOL0     C29599   8.578   8.405   1.417 -0.8280 -0.1146 -0.9641
  220MOL0     C29600   8.626   8.535   1.390 -0.1311  0.3542 -0.1095
  220MOL0     O29601   8.673   8.598   1.508 -1.0058  0.1019  0.0823
  220MOL0     C29602   8.688   8.736   1.502 -0.6062 -0.5564 -0.3696
  220MOL0     C29603   8.699   8.778   1.650  1.1329  0.9753 -0.8916
  220MOL0     C29604   8.633   8.916   1.670  0.4673 -0.1299  0.7212
  220MOL0     C29605   8.712   9.023   1.603  0.4475  0.0984 -0.4879
  220MOL0     C29606   8.640   9.154   1.624 -0.1371 -0.1602 -0.5957
  220MOL0     C29607   8.713   9.256   1.532 -0.4643  0.2474  0.5131
  220MOL0     C29608   8.697   9.405   1.564 -0.8695 -0.1431 -0.3294
  220MOL0     C29609   8.800   9.465   1.657 -1.0321  0.0256 -0.3700
  220MOL0    Cl29610   8.775   9.637   1.653  0.1599  0.6461  0.3582
  220MOL0     C29611   8.665   8.560   1.260  1.3046 -0.0186 -0.0964
  220MOL0     C29612   8.612   8.481   1.162 -0.1120 -0.6537  1.0628
  220MOL0     O29613   8.416   8.402   0.930  1.5072 -0.3061 -0.4031
  220MOL0     C29614   8.637   8.136   0.864  0.3007 -0.4111 -0.8233
  220MOL0     C29615   8.666   8.041   0.763  0.0429 -0.8942  0.0864
  220MOL0     N29616   8.780   7.517   0.123 -0.0886 -0.5818 -0.7436
  220MOL0     N29617   8.675   7.477   0.070  0.2403  0.5247 -0.1255
  220MOL0     C29618   8.511   7.284   0.628 -0.7057 -0.5213 -0.5506
  220MOL0     C29619   8.520   7.142   0.636 -0.9402 -0.2787 -1.6537
  220MOL0     C29620   8.339   6.733   0.660  0.2421 -0.2167 -0.0080
  220MOL0     C29621   8.417   6.647   0.741 -0.8197  0.5347  0.9791
  220MOL0     C29622   8.395   6.513   0.734  0.7470  0.9945 -0.4398
  220MOL0     C29623   8.326   6.447   0.634 -0.3201  0.7476 -0.2237
  220MOL0     O29624   8.296   6.312   0.615 -0.2781 -0.1980 -0.5079
  220MOL0     C29625   8.367   6.224   0.701 -0.3807 -0.1401  1.0281
  220MOL0     C29626   8.346   6.070   0.684  0.0533 -0.0114  0.0006
  220MOL0     C29627   8.228   6.026   0.591 -0.4267 -0.1785 -0.4142
  220MOL0     C29628   8.204   5.875   0.578 -0.1707  0.0537 -0.6794
  220MOL0     C29629   8.161   5.830   0.709  0.0211  0.3037 -0.1213
  220MOL0     C29630   8.117   5.772   0.812 -0.2718 -0.4760  0.2005
  220MOL0     C29631   8.255   6.537   0.552  0.8652  0.3785  0.6085
  220MOL0     C29632   8.265   6.672   0.561  0.0260  0.4713  0.8720
  220MOL0     H29633   8.280   7.105   0.881 -2.0007  3.8980 -0.3159
  220MOL0     H29634   8.289   7.346   0.862 -0.0569  0.0163 -0.6250
  220MOL0     H29635   8.421   7.691   0.625  3.6950  0.4278 -0.5878
  220MOL0     H29636   8.511   7.562   0.552 -0.1890 -2.0202 -0.6092
  220MOL0     H29637   8.338   7.447   0.482  1.8415  1.7821 -4.1143
  220MOL0     H29638   8.201   7.547   0.557 -1.8276 -0.3777 -1.6932
  220MOL0     H29639   8.260   7.724   0.417 -1.7298 -1.2597 -0.9051
  220MOL0     H29640   8.399   7.617   0.343 -0.1139 -3.4671  0.1189
  220MOL0     H29641   8.239   7.457   0.273 -1.7445 -0.8071 -0.4505
  220MOL0     H29642   8.101   7.534   0.343 -0.7287 -0.6665 -2.1360
  220MOL0     H29643   8.101   7.597   0.103  1.9953 -0.6617 -1.1703
  220MOL0     H29644   8.142   7.745   0.181  1.5700  0.2273  0.1316
  220MOL0     H29645   8.280   7.753   0.007 -1.6458  0.4915  0.3773
  220MOL0     H29646   8.378   7.715   0.147 -1.1352  3.6864 -2.2194
  220MOL0     H29647   8.365   7.465   0.076 -2.6016 -1.5514 -0.8879
  220MOL0     H29648   8.274   7.523  -0.055 -2.1829  1.8789  1.9792
  220MOL0     H29649   8.474   7.658  -0.126 -0.2265  0.0201 -1.2111
  220MOL0     H29650   8.499   7.483  -0.127 -0.6361  0.2806 -0.4818
  220MOL0     H29651   8.633   7.797   0.032 -0.3704  0.4688  0.1535
  220MOL0     H29652   8.984   7.677   0.173  0.1891 -0.0975  2.2302
  220MOL0     H29653   8.901   7.826   0.123  1.1764 -1.3849 -0.5161
  220MOL0     H29654   8.974   7.830   0.354  0.1456  1.6485 -2.1392
  220MOL0     H29655   8.869   7.693   0.408  1.1733  0.8260  1.3715
  220MOL0     H29656   8.668   7.795   0.354 -0.0542  0.6665 -1.4269
  220MOL0     H29657   8.751   7.951   0.332 -0.4577 -1.8670 -2.1305
  220MOL0     H29658   8.817   7.952   0.566 -0.2905  1.7282 -1.5265
  220MOL0     H29659   8.760   7.786   0.585  3.5522  1.1751 -0.5408
  220MOL0     H29660   8.390   8.068   0.585  0.7511  2.5003  0.3316
  220MOL0     H29661   8.238   8.301   0.718 -0.6298 -0.5792  0.0261
  220MOL0     H29662   8.214   8.124   0.696  5.3167  0.0717 -4.8009
  220MOL0     H29663   8.225   8.193   0.862 -1.8297 -0.9297 -0.5698
  220MOL0     H29664   8.500   8.222   1.341  0.8237  0.0862  1.8133
  220MOL0     H29665   8.564   8.374   1.520 -0.7813  0.3409 -0.8147
  220MOL0     H29666   8.777   8.771   1.448 -0.3321 -1.2093 -0.3466
  220MOL0     H29667   8.599   8.785   1.461 -0.4510  2.0437  2.0581
  220MOL0     H29668   8.640   8.707   1.708 -0.8907  1.6900 -1.9636
  220MOL0     H29669   8.805   8.774   1.675  1.0856  4.2223  0.2201
  220MOL0     H29670   8.623   8.927   1.778 -0.4408  0.2942  0.6087
  220MOL0     H29671   8.533   8.916   1.623  0.6052  0.0386  0.4224
  220MOL0     H29672   8.818   9.020   1.628  0.7162 -3.6950 -1.4188
  220MOL0     H29673   8.710   8.996   1.497  0.4616 -0.1314 -0.4313
  220MOL0     H29674   8.637   9.194   1.726 -1.5026 -1.2463 -0.1820
  220MOL0     H29675   8.536   9.145   1.593  0.0572 -1.1895 -1.0103
  220MOL0     H29676   8.820   9.231   1.541 -0.3107 -1.4124 -3.6545
  220MOL0     H29677   8.684   9.230   1.430 -2.7552  3.6503  0.1340
  220MOL0     H29678   8.597   9.419   1.606  0.1454  0.4152  2.0777
  220MOL0     H29679   8.693   9.457   1.468 -0.6381  0.7864  0.1604
  220MOL0     H29680   8.905   9.438   1.642 -0.7605  1.4669 -1.2546
  220MOL0     H29681   8.774   9.445   1.761 -2.7813  2.4821 -0.2492
  220MOL0     H29682   8.721   8.644   1.221  0.7355  1.4148  2.0517
  220MOL0     H29683   8.646   8.522   1.067 -0.5522 -1.7596  0.4061
  220MOL0     H29684   8.698   8.154   0.952 -0.6333 -1.4471  0.0733
  220MOL0     H29685   8.764   7.995   0.754  0.2043 -0.1572 -3.6891
  220MOL0     H29686   8.571   7.331   0.550  0.8435 -2.5170 -0.6499
  220MOL0     H29687   8.581   7.080   0.572  3.3955  1.1168  0.6929
  220MOL0     H29688   8.480   6.676   0.825  0.9279  0.8294 -0.3845
  220MOL0     H29689   8.443   6.463   0.817  1.7440  1.9904 -0.3922
  220MOL0     H29690   8.475   6.239   0.686 -0.8356  1.2890 -1.3036
  220MOL0     H29691   8.353   6.248   0.807 -1.0786 -0.0988  0.9281
  220MOL0     H29692   8.345   6.023   0.783 -3.5586 -1.0734 -0.3864
  220MOL0     H29693   8.429   6.037   0.622 -2.0351 -1.4093 -2.2191
  220MOL0     H29694   8.244   6.066   0.491 -0.3252  0.6068 -0.0935
  220MOL0     H29695   8.136   6.069   0.633  0.5759 -0.7959  2.6980
  220MOL0     H29696   8.296   5.828   0.545  1.9301  2.5178  1.2309
  220MOL0     H29697   8.125   5.864   0.502 -2.2298  0.6099  1.2621
  220MOL0     H29698   8.069   5.724   0.895 -2.6632  1.5160  0.0820
  220MOL0     H29699   8.197   6.493   0.471 -1.3408  1.9738  1.2317
  220MOL0     H29700   8.199   6.718   0.489 -0.9732 -3.2564 -0.8210
  221MOL0     O29701   6.888   0.725   6.573 -0.3413  0.2860 -1.0027
  221MOL0     C29702   6.932   0.615   6.547  0.1447 -0.1439 -0.3031
  221MOL0     O29703   7.065   0.571   6.553  0.2456  0.9739 -0.5712
  221MOL0     C29704   7.164   0.661   6.583  0.7754  0.6147 -0.1739
  221MOL0     C29705   7.166   0.793   6.535 -1.2548 -0.1775  0.8194
  221MOL0     C29706   7.283   0.869   6.547  0.3870  0.1727  0.9717
  221MOL0     C29707   7.393   0.814   6.610  0.1524  0.4358 -0.6525
  221MOL0     O29708   7.494   0.904   6.635 -0.1180 -0.0671  0.8378
  221MOL0     C29709   7.629   0.857   6.652 -0.5553 -0.0259 -0.7862
  221MOL0     C29710   7.715   0.989   6.666  0.2236  0.4408  1.0525
  221MOL0     C29711   7.867   0.969   6.701 -0.5354 -0.9880  0.7906
  221MOL0     C29712   7.885   0.911   6.846  0.0017  0.3102  0.3582
  221MOL0     C29713   8.024   0.871   6.898  0.7240 -0.2703 -1.1914
  221MOL0     C29714   8.101   0.984   6.960 -0.1586  0.1252  0.2037
  221MOL0     C29715   8.230   0.933   7.014  0.0909 -0.4917 -0.3497
  221MOL0     C29716   8.291   1.046   7.095 -0.2037 -0.9013  0.0264
  221MOL0     N29717   8.441   1.044   7.131 -0.6469  0.5565 -0.0893
  221MOL0     C29718   8.483   1.000   7.245 -0.0907  0.9458  0.5496
  221MOL0     C29719   8.615   1.024   7.244  0.2507  0.4217  0.5805
  221MOL0     C29720   8.708   0.979   7.346 -0.2596  0.5065  0.2146
  221MOL0     C29721   8.820   0.888   7.292 -0.2425  0.9713  0.6237
  221MOL0     C29722   8.918   0.831   7.406  0.8666 -0.0280  0.5022
  221MOL0     C29723   9.045   0.759   7.349  0.2970  0.2433 -0.1429
  221MOL0     O29724   8.985   0.640   7.281 -0.1330  0.3466  0.7453
  221MOL0     C29725   8.956   0.533   7.353  0.7469 -0.5915 -0.1035
  221MOL0     C29726   8.872   0.455   7.279  0.7768  0.5994  0.1245
  221MOL0     C29727   8.816   0.344   7.337  0.4705  0.6972 -0.9148
  221MOL0     C29728   8.735   0.254   7.241 -0.2293 -1.2052 -0.3655
  221MOL0     C29729   8.859   0.305   7.470 -0.5554 -0.3334  0.6662
  221MOL0     C29730   8.818   0.182   7.541 -0.0020 -0.0318 -0.0732
  221MOL0     O29731   8.761   0.083   7.462  0.6398 -0.0244  0.1086
  221MOL0     C29732   8.699  -0.017   7.524  1.3363  0.0479 -0.5161
  221MOL0     C29733   8.752  -0.148   7.522 -0.4017 -1.6035 -1.2318
  221MOL0     C29734   8.675  -0.252   7.567 -0.3397 -0.1525  0.0879
  221MOL0     C29735   8.541  -0.228   7.612 -0.0486  0.3207  1.0661
  221MOL0     O29736   8.459  -0.319   7.666  0.1144  0.1478  0.3168
  221MOL0     C29737   8.484  -0.456   7.636  0.5351 -0.1336 -0.6225
  221MOL0     C29738   8.369  -0.546   7.680 -0.0548 -0.8122  1.1607
  221MOL0     C29739   8.400  -0.689   7.639 -0.5907 -0.2885 -0.1136
  221MOL0     C29740   8.339  -0.785   7.740  0.7132  0.3020 -0.2921
  221MOL0     C29741   8.360  -0.930   7.688 -0.2547 -0.1196  0.4800
  221MOL0     C29742   8.269  -1.030   7.761 -0.7960 -0.1545  1.0099
  221MOL0     C29743   8.251  -1.158   7.678  0.5930  0.1752  0.5889
  221MOL0     C29744   8.318  -1.284   7.723 -0.1581 -0.8588 -0.2706
  221MOL0    Cl29745   8.208  -1.416   7.681  0.1724 -0.0499  0.5564
  221MOL0     C29746   8.497  -0.097   7.623  0.1327 -0.8449  1.2160
  221MOL0     C29747   8.574   0.005   7.568 -0.8910  0.7546 -1.5948
  221MOL0     O29748   8.819   0.187   7.662 -0.4000 -0.4047  0.1156
  221MOL0     C29749   8.947   0.394   7.545 -0.7585 -0.0322  1.1435
  221MOL0     C29750   8.991   0.516   7.489  0.7852  0.3773 -0.4083
  221MOL0     N29751   8.649   1.109   7.141  0.3996 -0.5017  0.1712
  221MOL0     N29752   8.539   1.121   7.075 -0.4411  0.2969 -0.3728
  221MOL0     C29753   7.386   0.685   6.666  0.5497 -0.4659  0.3951
  221MOL0     C29754   7.275   0.608   6.646 -0.0908 -0.3728  0.5302
  221MOL0     C29755   6.831   0.516   6.499 -0.7805  0.8489  0.1909
  221MOL0     C29756   6.864   0.376   6.466 -0.0423 -0.0580 -0.5354
  221MOL0     C29757   6.776   0.295   6.398 -0.1319 -0.0525 -0.2918
  221MOL0     C29758   6.649   0.341   6.351 -0.7092  0.1884  0.4792
  221MOL0     O29759   6.564   0.248   6.295  0.6097  0.4028  0.0954
  221MOL0     C29760   6.465   0.290   6.195 -0.2397 -0.0094  0.2657
  221MOL0     C29761   6.529   0.352   6.072 -0.7150 -0.6269 -0.0996
  221MOL0     C29762   6.630   0.265   5.996  0.7016  0.6623 -0.1072
  221MOL0     C29763   6.666   0.332   5.868  0.1707  0.3375  1.8494
  221MOL0     C29764   6.786   0.270   5.802 -0.2055 -0.2392 -0.1223
  221MOL0     C29765   6.873   0.218   5.734 -0.2937 -0.7924 -0.6296
  221MOL0     C29766   6.621   0.477   6.389 -0.8593  0.0900  0.4290
  221MOL0     C29767   6.709   0.561   6.462 -0.0135  0.2460 -0.9287
  221MOL0     H29768   7.083   0.834   6.478  0.0763 -0.7793 -1.6830
  221MOL0     H29769   7.270   0.975   6.525 -2.7424 -0.3784 -0.1857
  221MOL0     H29770   7.647   0.805   6.747  4.2554  2.9952  0.2852
  221MOL0     H29771   7.661   0.790   6.573 -0.4942 -0.4761 -0.3861
  221MOL0     H29772   7.697   1.032   6.567  0.2804  0.6941  1.1533
  221MOL0     H29773   7.674   1.047   6.749 -0.7718 -0.7028  1.3931
  221MOL0     H29774   7.929   0.930   6.620  0.3843  2.4269 -0.3203
  221MOL0     H29775   7.905   1.072   6.703  1.7952 -1.6302 -2.3886
  221MOL0     H29776   7.837   0.982   6.914 -0.1672  1.0809 -0.5495
  221MOL0     H29777   7.826   0.819   6.848 -2.2926  1.7153 -0.3289
  221MOL0     H29778   7.993   0.793   6.968 -3.7632  1.5565 -0.8064
  221MOL0     H29779   8.090   0.830   6.821  3.0706  0.2604  0.4574
  221MOL0     H29780   8.118   1.073   6.898  2.7319 -0.1469  0.4814
  221MOL0     H29781   8.034   1.005   7.044  1.8204  0.0265  1.8712
  221MOL0     H29782   8.218   0.848   7.082  0.6506  1.6462  2.6871
  221MOL0     H29783   8.306   0.895   6.945 -1.6550 -0.2151 -2.5097
  221MOL0     H29784   8.227   1.061   7.183 -1.0967  0.3357 -0.8059
  221MOL0     H29785   8.280   1.135   7.033 -1.0916 -0.8323  0.2625
  221MOL0     H29786   8.433   0.928   7.308  0.0746  0.0297 -0.3378
  221MOL0     H29787   8.761   1.066   7.386  2.4698 -1.3174  0.8310
  221MOL0     H29788   8.644   0.923   7.415 -2.4762 -2.3093 -3.7580
  221MOL0     H29789   8.889   0.932   7.219 -2.1253  1.1316 -1.1556
  221MOL0     H29790   8.768   0.804   7.244  0.0879  1.6163 -0.9531
  221MOL0     H29791   8.872   0.754   7.469  1.4321 -0.7504  0.0569
  221MOL0     H29792   8.946   0.912   7.474  0.7472  2.3701 -2.1082
  221MOL0     H29793   9.116   0.736   7.429 -2.3548 -2.5376  1.6071
  221MOL0     H29794   9.085   0.829   7.275 -1.6597  0.0133 -1.5155
  221MOL0     H29795   8.847   0.491   7.179 -0.6199  1.7043  0.8363
  221MOL0     H29796   8.691   0.311   7.159 -1.7833 -1.8913 -0.0401
  221MOL0     H29797   8.816   0.194   7.197  1.7739  0.8907  0.2543
  221MOL0     H29798   8.650   0.200   7.283 -1.6105  0.6984 -0.5819
  221MOL0     H29799   8.851  -0.179   7.489 -0.0113  1.2063 -3.0199
  221MOL0     H29800   8.715  -0.351   7.547 -1.6591 -0.9579  1.2420
  221MOL0     H29801   8.486  -0.471   7.528  2.1442 -1.2944 -0.4629
  221MOL0     H29802   8.573  -0.492   7.687 -0.0030  0.0535  0.4770
  221MOL0     H29803   8.363  -0.529   7.788  0.8418 -1.2839  1.2990
  221MOL0     H29804   8.280  -0.502   7.635  0.1331  1.9931  3.2861
  221MOL0     H29805   8.506  -0.714   7.647 -1.0270 -1.9203  1.2576
  221MOL0     H29806   8.371  -0.702   7.534  1.5836  0.6742 -0.8985
  221MOL0     H29807   8.385  -0.771   7.839  6.8928 -5.1171 -1.7429
  221MOL0     H29808   8.231  -0.766   7.740  0.8378  1.3213  1.8105
  221MOL0     H29809   8.464  -0.964   7.686  1.4517  4.3622 -0.6568
  221MOL0     H29810   8.321  -0.923   7.586  1.7157 -1.4242 -0.4326
  221MOL0     H29811   8.315  -1.045   7.859  0.2579  1.4587  0.7972
  221MOL0     H29812   8.176  -0.974   7.773 -0.6370  0.5775 -0.8506
  221MOL0     H29813   8.287  -1.148   7.575 -3.3112 -3.0040 -1.3377
  221MOL0     H29814   8.144  -1.172   7.662  0.5010  2.6975 -1.8760
  221MOL0     H29815   8.330  -1.283   7.831  3.4515 -1.3140 -0.5419
  221MOL0     H29816   8.422  -1.287   7.688 -0.1480 -0.8721 -0.2419
  221MOL0     H29817   8.404  -0.063   7.668  2.3661  3.8479  2.9691
  221MOL0     H29818   8.536   0.106   7.569  0.9793  1.6556  2.3420
  221MOL0     H29819   8.990   0.367   7.641 -0.5278  1.3881  1.4724
  221MOL0     H29820   9.054   0.582   7.548 -1.1760  2.5874 -0.6537
  221MOL0     H29821   7.466   0.630   6.716 -1.1656 -3.0222  0.4940
  221MOL0     H29822   7.256   0.507   6.683 -3.4459 -1.2954 -3.0638
  221MOL0     H29823   6.960   0.341   6.503 -0.3889  0.4320  0.8734
  221MOL0     H29824   6.812   0.194   6.379  0.8802  0.4015 -0.8842
  221MOL0     H29825   6.392   0.217   6.161  0.8970  0.4289 -3.6199
  221MOL0     H29826   6.406   0.364   6.250  2.2497  1.3282  1.3190
  221MOL0     H29827   6.589   0.442   6.091  0.7630 -1.8114  1.1769
  221MOL0     H29828   6.448   0.377   6.003 -0.4397 -0.7033 -0.4504
  221MOL0     H29829   6.586   0.165   5.982 -1.0336  1.1187  1.6840
  221MOL0     H29830   6.720   0.253   6.056 -0.3707  1.9164  1.8810
  221MOL0     H29831   6.682   0.438   5.889 -1.4600  1.4033 -1.5665
  221MOL0     H29832   6.581   0.327   5.798  1.0507  3.3016  0.4020
  221MOL0     H29833   6.926   0.167   5.656  1.5896 -0.8292  0.6064
  221MOL0     H29834   6.525   0.521   6.364 -0.1611  2.6507  1.8849
  221MOL0     H29835   6.672   0.662   6.475 -1.5546 -0.5290  1.2111
  222MOL0     O29836   8.214  10.566   9.929 -0.0389  0.4025  0.5008
  222MOL0     C29837   8.294  10.590   9.841  0.1977 -0.0136  0.3935
  222MOL0     O29838   8.259  10.589   9.705 -0.5398 -0.7824 -0.6969
  222MOL0     C29839   8.131  10.583   9.686 -0.3145  0.5461  0.6020
  222MOL0     C29840   8.062  10.700   9.653  0.5209 -0.7118 -0.1422
  222MOL0     C29841   7.927  10.693   9.608  0.3318 -0.2942  0.8248
  222MOL0     C29842   7.863  10.573   9.604 -0.7152  0.2946  0.6180
  222MOL0     O29843   7.733  10.583   9.562 -0.2139  0.2333  0.2635
  222MOL0     C29844   7.644  10.513   9.646  0.2952 -0.3624 -1.1450
  222MOL0     C29845   7.647  10.541   9.797 -0.1561  0.1535  0.4819
  222MOL0     C29846   7.538  10.439   9.845  0.3809 -1.1553  0.1140
  222MOL0     C29847   7.532  10.431   9.999  0.4090 -0.2414 -0.0173
  222MOL0     C29848   7.412  10.353  10.047  0.4588 -0.1324  0.5060
  222MOL0     C29849   7.418  10.339  10.209  0.1343  0.3991  0.4125
  222MOL0     C29850   7.552  10.275  10.267 -0.0861 -0.4804 -0.0720
  222MOL0     C29851   7.519  10.219  10.407 -0.3284  1.4294 -0.0914
  222MOL0     N29852   7.454  10.330  10.488 -0.5238  0.5132  0.3738
  222MOL0     C29853   7.513  10.424  10.566 -0.2101 -1.1167  0.6732
  222MOL0     C29854   7.406  10.491  10.610  0.1048  0.0074  1.3607
  222MOL0     C29855   7.435  10.629  10.686  1.4173  0.8099  0.8676
  222MOL0     C29856   7.297  10.698  10.721  0.2388  1.1202  0.0261
  222MOL0     C29857   7.327  10.845  10.746 -0.1316 -0.2600  0.0643
  222MOL0     C29858   7.188  10.928  10.725  0.1299  0.4509  1.2095
  222MOL0     O29859   7.104  10.906  10.833  0.5236 -0.1589  0.4665
  222MOL0     C29860   6.978  10.969  10.835 -0.3822 -0.5594 -0.4349
  222MOL0     C29861   6.931  11.068  10.749  0.2602 -0.7131  0.0361
  222MOL0     C29862   6.799  11.118  10.765 -0.1230  0.3106 -0.3076
  222MOL0     C29863   6.758  11.227  10.662  0.6255 -0.9927  0.8474
  222MOL0     C29864   6.712  11.068  10.872 -0.5315 -1.3859  0.2249
  222MOL0     C29865   6.583  11.134  10.900  1.2238  0.8538 -0.6507
  222MOL0     O29866   6.538  11.229  10.822  0.8425 -0.6666  1.0696
  222MOL0     C29867   6.417  11.296  10.854  1.0166  0.2692 -0.1468
  222MOL0     C29868   6.306  11.255  10.927 -0.1782  0.8504  0.1960
  222MOL0     C29869   6.188  11.340  10.945  0.6083 -0.1752 -0.3021
  222MOL0     C29870   6.197  11.470  10.883  0.0341 -0.8507 -0.3169
  222MOL0     O29871   6.098  11.568  10.855  0.4689  0.2144 -0.5301
  222MOL0     C29872   5.972  11.542  10.929  0.2301 -0.2112 -1.6124
  222MOL0     C29873   5.889  11.671  10.908 -0.3209 -0.2937 -1.0164
  222MOL0     C29874   5.747  11.639  10.944 -0.2097  0.0483  0.2534
  222MOL0     C29875   5.662  11.763  10.909 -0.7447  0.4208  1.0811
  222MOL0     C29876   5.507  11.756  10.944 -0.6521  0.4125  0.5806
  222MOL0     C29877   5.429  11.648  10.868  1.2713 -0.6733 -0.4052
  222MOL0     C29878   5.289  11.625  10.936 -0.0888 -0.1985  0.2804
  222MOL0     C29879   5.267  11.477  10.951  1.1420  0.8720 -0.2874
  222MOL0    Cl29880   5.133  11.458  11.060 -0.1908 -0.4872 -0.5465
  222MOL0     C29881   6.308  11.508  10.820  0.0025 -0.6636 -0.6021
  222MOL0     C29882   6.420  11.427  10.808 -0.2954  0.7191  0.9471
  222MOL0     O29883   6.531  11.111  11.008 -0.0391  0.4139  0.1352
  222MOL0     C29884   6.765  10.971  10.960  0.2025 -0.3173 -0.5845
  222MOL0     C29885   6.897  10.931  10.943  0.6690  0.0858  0.1546
  222MOL0     N29886   7.293  10.423  10.586 -0.1972 -0.2760  0.3709
  222MOL0     N29887   7.325  10.329  10.506  0.3119 -0.1916 -0.5622
  222MOL0     C29888   7.928  10.457   9.642  0.1853 -0.4547  0.3279
  222MOL0     C29889   8.069  10.459   9.674 -0.0789  0.4338  0.6287
  222MOL0     C29890   8.438  10.608   9.882  0.4194 -0.4294 -0.2607
  222MOL0     C29891   8.476  10.650  10.016 -0.6231  0.8661  0.1594
  222MOL0     C29892   8.617  10.673  10.036  0.2371 -0.4245 -0.4811
  222MOL0     C29893   8.712  10.651   9.928 -0.5265  0.6548 -0.6580
  222MOL0     O29894   8.852  10.664   9.935 -0.5520  0.1577  0.0234
  222MOL0     C29895   8.905  10.750  10.037  0.9665  0.2969  0.4130
  222MOL0     C29896   8.917  10.677  10.171 -0.2114 -0.3890 -0.4271
  222MOL0     C29897   9.042  10.591  10.176 -0.4107  0.9132 -0.3775
  222MOL0     C29898   9.069  10.529  10.314  0.0929 -0.8496  0.0095
  222MOL0     C29899   9.179  10.429  10.309  0.4642 -0.8319 -0.1351
  222MOL0     C29900   9.270  10.355  10.282  0.6555  0.3681  0.0805
  222MOL0     C29901   8.664  10.601   9.811  0.5964 -0.3884 -0.1292
  222MOL0     C29902   8.533  10.586   9.780  0.1848 -0.1425 -0.5366
  222MOL0     H29903   8.119  10.792   9.660 -0.3076 -0.2607  1.0194
  222MOL0     H29904   7.861  10.776   9.586  0.9134 -0.3917 -1.5823
  222MOL0     H29905   7.546  10.525   9.598  1.1817  1.7919 -2.5903
  222MOL0     H29906   7.666  10.406   9.641  1.6636 -0.0943 -1.3302
  222MOL0     H29907   7.740  10.509   9.846  0.2326  0.6104  0.0565
  222MOL0     H29908   7.625  10.648   9.802  2.6251  0.8059  0.7743
  222MOL0     H29909   7.440  10.469   9.806 -0.5686 -1.7840  1.8767
  222MOL0     H29910   7.559  10.336   9.813  0.1298 -1.0365 -0.4364
  222MOL0     H29911   7.629  10.403  10.042  1.2445  1.1247 -0.9265
  222MOL0     H29912   7.507  10.534  10.028 -1.5780 -1.1515  1.7765
  222MOL0     H29913   7.324  10.406  10.009  1.7452  0.3878 -2.0162
  222MOL0     H29914   7.410  10.254  10.000  0.2306  1.1018 -2.3251
  222MOL0     H29915   7.390  10.436  10.252  0.1118  0.1844  0.8940
  222MOL0     H29916   7.334  10.276  10.239  0.5669 -0.7738 -0.7742
  222MOL0     H29917   7.584  10.188  10.208 -1.4567 -0.2977 -1.1533
  222MOL0     H29918   7.622  10.358  10.256 -0.6474  0.3822  2.2312
  222MOL0     H29919   7.609  10.187  10.458  0.3890  2.7958 -0.4543
  222MOL0     H29920   7.441  10.143  10.396  1.7429 -0.4623 -3.4387
  222MOL0     H29921   7.620  10.438  10.581 -0.2497 -0.6281  0.5247
  222MOL0     H29922   7.492  10.614  10.777  2.2505  1.9585  0.5576
  222MOL0     H29923   7.498  10.694  10.623  1.9186  1.6226  2.1732
  222MOL0     H29924   7.255  10.649  10.810  0.9922  0.2523 -0.0834
  222MOL0     H29925   7.226  10.677  10.640 -0.6114  0.9462  0.7948
  222MOL0     H29926   7.404  10.901  10.692 -0.6923  1.7214  1.2242
  222MOL0     H29927   7.350  10.857  10.852 -3.7789 -2.3788  1.2767
  222MOL0     H29928   7.159  10.888  10.628 -1.9174  0.1288  1.9008
  222MOL0     H29929   7.226  11.030  10.713  0.5619  0.0674 -1.1151
  222MOL0     H29930   6.998  11.115  10.677 -0.2675 -3.2335 -2.2580
  222MOL0     H29931   6.716  11.322  10.697 -4.5949 -1.6821 -2.4764
  222MOL0     H29932   6.841  11.251  10.595 -1.6130  1.8719 -1.1648
  222MOL0     H29933   6.686  11.191  10.588 -1.3535  3.2165  0.4245
  222MOL0     H29934   6.313  11.155  10.966 -0.0727  0.0116 -1.8295
  222MOL0     H29935   6.095  11.300  10.985 -0.2186 -0.7093 -2.5884
  222MOL0     H29936   5.914  11.456  10.893 -1.3668  0.7124 -1.3471
  222MOL0     H29937   5.990  11.520  11.034  2.4482  0.0456 -1.8940
  222MOL0     H29938   5.915  11.747  10.982  0.6781 -1.7047  0.1544
  222MOL0     H29939   5.905  11.709  10.807  0.6429  1.4143 -0.2693
  222MOL0     H29940   5.744  11.618  11.052  2.5488  1.6798  0.7362
  222MOL0     H29941   5.703  11.559  10.885  0.2622 -2.1523  2.6700
  222MOL0     H29942   5.707  11.842  10.970  1.7851 -0.2881  0.2197
  222MOL0     H29943   5.676  11.791  10.804  0.3741 -0.9390  0.8410
  222MOL0     H29944   5.470  11.857  10.925  2.2293  1.3874 -0.4584
  222MOL0     H29945   5.493  11.730  11.050 -2.0410 -3.6362 -0.4310
  222MOL0     H29946   5.412  11.685  10.766 -1.9906  0.5685  0.4814
  222MOL0     H29947   5.484  11.553  10.864  0.0263 -1.4454  0.1885
  222MOL0     H29948   5.209  11.674  10.880 -1.0752 -0.8062  1.1150
  222MOL0     H29949   5.285  11.675  11.033  0.7454  1.0529 -0.3089
  222MOL0     H29950   5.351  11.430  11.004  0.4325 -0.8770 -0.6440
  222MOL0     H29951   5.257  11.430  10.853  0.9078  1.7294 -0.6828
  222MOL0     H29952   6.312  11.605  10.771  0.3237 -0.1439  0.4360
  222MOL0     H29953   6.506  11.455  10.748 -0.8296 -3.4236 -2.2053
  222MOL0     H29954   6.706  10.922  11.036 -0.0856 -1.1898 -1.3602
  222MOL0     H29955   6.934  10.864  11.020 -1.9309  1.3718  2.7280
  222MOL0     H29956   7.886  10.357   9.639  2.2249 -1.3533 -0.1096
  222MOL0     H29957   8.111  10.361   9.693  2.7758  0.2238 -4.7616
  222MOL0     H29958   8.401  10.666  10.092 -1.3795  0.1354 -0.4157
  222MOL0     H29959   8.653  10.719  10.128  3.5642  1.8375 -2.6689
  222MOL0     H29960   9.009  10.772  10.010  0.7226 -2.0640 -3.1153
  222MOL0     H29961   8.842  10.839  10.036  0.0281 -0.3607  0.1928
  222MOL0     H29962   8.826  10.617  10.183 -1.1395  0.3406 -3.1480
  222MOL0     H29963   8.911  10.754  10.249 -1.2967  1.1809 -1.9790
  222MOL0     H29964   9.126  10.658  10.154 -0.7685  2.8232  3.2125
  222MOL0     H29965   9.042  10.512  10.101 -0.7521 -0.0691  0.6198
  222MOL0     H29966   8.985  10.478  10.361 -1.7530 -0.7637 -2.9698
  222MOL0     H29967   9.098  10.613  10.379  0.7929  2.9989 -4.6797
  222MOL0     H29968   9.349  10.290  10.251  0.6022  1.0101 -1.5072
  222MOL0     H29969   8.735  10.574   9.734  1.0854 -2.2136  0.8904
  222MOL0     H29970   8.500  10.562   9.679 -2.3204  0.0658  0.1580
  223MOL0     O29971   2.181  10.750   2.123 -0.5822 -0.4707 -0.0057
  223MOL0     C29972   2.063  10.740   2.086 -0.1208 -0.8812 -0.2286
  223MOL0     O29973   1.959  10.667   2.142 -0.2568 -0.6448 -1.4995
  223MOL0     C29974   1.993  10.577   2.237  0.4418 -0.0422 -0.5086
  223MOL0     C29975   2.037  10.609   2.370 -0.9870 -0.4947  0.5161
  223MOL0     C29976   2.055  10.509   2.465 -0.1874  0.4630 -0.4038
  223MOL0     C29977   2.048  10.370   2.426 -0.8582  1.0890  0.3605
  223MOL0     O29978   2.074  10.261   2.517 -0.7189 -0.6289  1.1495
  223MOL0     C29979   2.070  10.284   2.655 -0.1049  0.6883  0.1684
  223MOL0     C29980   1.930  10.277   2.710 -0.1861  0.0104  0.1642
  223MOL0     C29981   1.932  10.325   2.859 -0.5463  0.8869  0.6047
  223MOL0     C29982   1.845  10.247   2.945  1.0989  0.7977 -0.4211
  223MOL0     C29983   1.845  10.283   3.097  0.9459 -0.2198 -0.2924
  223MOL0     C29984   1.767  10.170   3.161 -0.2206 -0.6838  0.4421
  223MOL0     C29985   1.765  10.195   3.312 -0.0049 -0.8254 -0.2019
  223MOL0     C29986   1.706  10.332   3.345  0.2466  0.3820  0.0314
  223MOL0     N29987   1.679  10.335   3.486 -0.8828 -0.1897 -0.1178
  223MOL0     C29988   1.756  10.386   3.594 -0.2558  1.1476  0.6293
  223MOL0     C29989   1.696  10.347   3.706 -1.4756 -0.2646  0.1639
  223MOL0     C29990   1.745  10.327   3.844 -0.4190  0.0847 -0.6711
  223MOL0     C29991   1.804  10.180   3.866  0.2322 -0.0987  0.3676
  223MOL0     C29992   1.787  10.145   4.018  0.9776  0.9319 -0.1770
  223MOL0     C29993   1.643  10.096   4.058  0.4826 -0.3667  0.0869
  223MOL0     O29994   1.631  10.013   4.175  0.3464 -0.6241  0.1914
  223MOL0     C29995   1.631  10.055   4.310 -1.0527 -0.0443 -0.8251
  223MOL0     C29996   1.571   9.977   4.401 -0.1766  0.7568  0.7175
  223MOL0     C29997   1.563  10.007   4.541  0.4286 -0.1170  0.0878
  223MOL0     C29998   1.487   9.897   4.614 -0.5355  0.3816 -0.0608
  223MOL0     C29999   1.620  10.127   4.595  0.4989 -0.2407  0.7500
  223MOL0     C30000   1.611  10.185   4.729 -0.9712 -0.3062  0.9288
  223MOL0     O30001   1.506  10.147   4.802 -0.1287 -0.0180 -0.1099
  223MOL0     C30002   1.480  10.236   4.900 -0.5480  0.2523 -0.9205
  223MOL0     C30003   1.552  10.240   5.015 -0.2847 -0.2907  0.1250
  223MOL0     C30004   1.532  10.333   5.116 -0.6213 -1.0360  0.9259
  223MOL0     C30005   1.438  10.431   5.089 -0.7006 -0.2457  0.0129
  223MOL0     O30006   1.439  10.522   5.189 -0.1920 -0.6538  0.1942
  223MOL0     C30007   1.309  10.574   5.230 -0.2697  0.3600 -0.1922
  223MOL0     C30008   1.311  10.716   5.277 -0.5535 -0.0173 -0.6490
  223MOL0     C30009   1.342  10.741   5.425  0.9476  0.0554 -0.0656
  223MOL0     C30010   1.339  10.886   5.471 -0.4451 -0.5071 -0.8785
  223MOL0     C30011   1.383  10.913   5.615  0.2263  0.4161  0.8665
  223MOL0     C30012   1.303  10.842   5.731  0.5287 -0.2925  0.7769
  223MOL0     C30013   1.361  10.888   5.856  0.7414  0.7303 -0.3765
  223MOL0     C30014   1.268  10.857   5.976  0.2907  0.9673  0.0887
  223MOL0    Cl30015   1.156  10.981   6.002  0.4389 -0.2758  0.1136
  223MOL0     C30016   1.365  10.439   4.969 -0.7665 -0.3924 -0.2590
  223MOL0     C30017   1.376  10.326   4.884 -0.8293  0.0069  0.2428
  223MOL0     O30018   1.699  10.270   4.760 -0.3619  0.1478  0.4755
  223MOL0     C30019   1.676  10.212   4.492 -0.0641 -0.2156  0.1560
  223MOL0     C30020   1.677  10.175   4.359  0.8398  0.4905  0.8204
  223MOL0     N30021   1.579  10.280   3.668 -0.2871  0.1680  0.6773
  223MOL0     N30022   1.572  10.275   3.539 -0.3915  0.5003 -0.2920
  223MOL0     C30023   2.016  10.340   2.299  0.2175  0.8086 -0.1359
  223MOL0     C30024   1.989  10.444   2.204 -0.1927  0.1620 -0.3136
  223MOL0     C30025   2.037  10.829   1.960 -0.5673  0.6604 -0.7695
  223MOL0     C30026   2.131  10.923   1.919  0.4250 -0.5910  0.8327
  223MOL0     C30027   2.111  10.998   1.807 -1.2742 -0.3340  0.4726
  223MOL0     C30028   2.001  10.988   1.723 -0.6657  0.6977  0.5498
  223MOL0     O30029   1.979  11.065   1.612  0.1181  0.7748 -0.8325
  223MOL0     C30030   2.066  11.182   1.583  0.4072  0.1795 -0.4673
  223MOL0     C30031   1.996  11.294   1.664 -0.2455 -0.4525 -1.4102
  223MOL0     C30032   2.022  11.429   1.590 -0.2623  0.5456  0.0252
  223MOL0     C30033   1.975  11.555   1.657 -0.1094  0.4716 -0.1254
  223MOL0     C30034   1.844  11.592   1.588  0.1150  0.1202  0.9583
  223MOL0     C30035   1.746  11.633   1.532  0.3837  1.2415 -0.3005
  223MOL0     C30036   1.925  10.870   1.750  0.0103  1.1195  0.6102
  223MOL0     C30037   1.937  10.796   1.869  0.0789  0.0318  0.9649
  223MOL0     H30038   2.051  10.714   2.396  2.9230 -0.8459  0.4323
  223MOL0     H30039   2.066  10.532   2.570 -2.5245  1.5270 -0.3284
  223MOL0     H30040   2.132  10.206   2.700  1.7021  3.1347  2.1709
  223MOL0     H30041   2.113  10.377   2.693 -0.2300  0.6388  0.4349
  223MOL0     H30042   1.859  10.340   2.657  1.3658  1.9316  0.2851
  223MOL0     H30043   1.899  10.172   2.703  2.4144 -0.7485 -1.0015
  223MOL0     H30044   2.037  10.323   2.892 -0.7086  0.3202  1.0937
  223MOL0     H30045   1.911  10.433   2.855  0.7486  1.2425  2.2284
  223MOL0     H30046   1.744  10.247   2.902  1.0011  1.3574 -0.2035
  223MOL0     H30047   1.898  10.152   2.940  1.8118  1.0321  1.7006
  223MOL0     H30048   1.946  10.272   3.136  0.8789 -4.7961 -0.8233
  223MOL0     H30049   1.801  10.380   3.120  0.6377 -0.5342  0.4967
  223MOL0     H30050   1.666  10.170   3.117  0.5010  2.2982 -1.4646
  223MOL0     H30051   1.814  10.073   3.144  0.2657 -0.6674  1.5766
  223MOL0     H30052   1.712  10.110   3.357 -1.8880 -0.0021 -0.7910
  223MOL0     H30053   1.869  10.185   3.344  0.4032 -0.6939 -1.4318
  223MOL0     H30054   1.613  10.346   3.288  0.9696 -0.5432 -1.4421
  223MOL0     H30055   1.776  10.412   3.319 -2.2559  1.4692 -4.5643
  223MOL0     H30056   1.856  10.424   3.577 -0.0203  0.0340 -0.6749
  223MOL0     H30057   1.810  10.410   3.872 -0.7087  0.9121 -2.3757
  223MOL0     H30058   1.654  10.338   3.905  0.1036  0.5584  0.0400
  223MOL0     H30059   1.908  10.175   3.833  0.3182 -1.9720  0.8484
  223MOL0     H30060   1.754  10.107   3.802 -0.9436  2.5472 -1.9772
  223MOL0     H30061   1.812  10.235   4.074  2.7076 -0.3217  1.1535
  223MOL0     H30062   1.864  10.071   4.041  1.7098  1.6971 -0.1453
  223MOL0     H30063   1.579  10.057   3.978  0.2517  1.0944 -0.4689
  223MOL0     H30064   1.604  10.195   4.084  1.2049  0.1245 -0.6648
  223MOL0     H30065   1.526   9.890   4.355  1.6012  0.2948 -0.2179
  223MOL0     H30066   1.548   9.808   4.597 -1.8359 -0.7575  0.9552
  223MOL0     H30067   1.485   9.918   4.721  1.9302  3.7883 -0.5547
  223MOL0     H30068   1.384   9.882   4.580 -1.4954  2.1882  1.8502
  223MOL0     H30069   1.642  10.179   5.023  0.4064  0.5203 -1.1731
  223MOL0     H30070   1.607  10.325   5.195  3.1098  0.9002 -2.0461
  223MOL0     H30071   1.226  10.561   5.161 -2.7926  1.7289  2.3669
  223MOL0     H30072   1.287  10.519   5.322 -1.8660  1.6478  0.2471
  223MOL0     H30073   1.387  10.777   5.228  0.8116 -0.8634  0.3362
  223MOL0     H30074   1.211  10.753   5.251 -0.5453 -0.9432 -2.1847
  223MOL0     H30075   1.442  10.699   5.438  1.4330  1.1805  0.0341
  223MOL0     H30076   1.277  10.676   5.484  0.3712 -1.2681 -2.0693
  223MOL0     H30077   1.391  10.946   5.394 -1.7141  0.8708 -0.7023
  223MOL0     H30078   1.233  10.912   5.464 -0.6878 -1.6438 -1.7099
  223MOL0     H30079   1.390  11.020   5.636  0.0973  0.4047  0.9720
  223MOL0     H30080   1.489  10.885   5.623  2.1402  5.3381 -2.2483
  223MOL0     H30081   1.196  10.867   5.728  0.4102 -0.7481  1.1233
  223MOL0     H30082   1.308  10.733   5.726  0.9110 -0.3949  2.6696
  223MOL0     H30083   1.375  10.996   5.848 -1.7185  1.1243 -0.1969
  223MOL0     H30084   1.452  10.827   5.865 -1.2389 -2.3988 -0.0649
  223MOL0     H30085   1.324  10.859   6.069  0.4718  1.3672 -0.0268
  223MOL0     H30086   1.220  10.759   5.963  0.4548  1.1609 -2.4535
  223MOL0     H30087   1.279  10.502   4.950 -1.7770 -2.3224 -2.4253
  223MOL0     H30088   1.305  10.327   4.802  0.0708  0.7408 -0.5513
  223MOL0     H30089   1.708  10.312   4.517  0.9580 -0.9940  2.1968
  223MOL0     H30090   1.720  10.243   4.286 -1.8175  2.9385  1.3044
  223MOL0     H30091   1.994  10.237   2.271  2.4763 -0.1739  1.3409
  223MOL0     H30092   1.963  10.416   2.102 -1.5110  2.1306 -0.5871
  223MOL0     H30093   2.226  10.932   1.970  1.7704  1.0402 -1.7540
  223MOL0     H30094   2.195  11.065   1.799  0.5929 -2.6420 -0.1912
  223MOL0     H30095   2.172  11.167   1.609  0.4977  0.6109 -0.5830
  223MOL0     H30096   2.058  11.204   1.477  0.3775  0.8161 -0.3399
  223MOL0     H30097   2.013  11.304   1.772 -1.6330  1.5294 -1.2988
  223MOL0     H30098   1.888  11.278   1.659 -0.5454  1.5511 -2.3298
  223MOL0     H30099   1.992  11.427   1.485  0.5317  0.9169 -0.2231
  223MOL0     H30100   2.131  11.438   1.600 -0.0501 -3.1266  4.2418
  223MOL0     H30101   2.056  11.624   1.634 -0.3464  0.5655 -0.7007
  223MOL0     H30102   1.963  11.547   1.765 -0.2987  0.3549 -0.1558
  223MOL0     H30103   1.648  11.648   1.491 -0.0013 -1.4916 -0.5285
  223MOL0     H30104   1.852  10.839   1.677 -0.6565  5.2757 -0.7194
  223MOL0     H30105   1.861  10.723   1.894  2.2656 -3.3821 -1.4429
  224MOL0     O30106   1.363   4.879   1.937 -0.3013 -0.0389 -0.4996
  224MOL0     C30107   1.394   4.761   1.966 -0.7079  0.4260 -0.9406
  224MOL0     O30108   1.429   4.661   1.873 -0.4563 -0.0494  0.4286
  224MOL0     C30109   1.405   4.680   1.738  1.0306  0.7202  0.8367
  224MOL0     C30110   1.353   4.568   1.664 -0.7009 -0.1855  0.1107
  224MOL0     C30111   1.354   4.564   1.528 -0.9006  0.2705  0.0838
  224MOL0     C30112   1.393   4.673   1.449  0.2183 -0.4162 -0.5531
  224MOL0     O30113   1.401   4.659   1.312  0.1735 -0.2004  0.2572
  224MOL0     C30114   1.426   4.529   1.256 -0.1349 -0.6825  0.6155
  224MOL0     C30115   1.566   4.474   1.297 -0.4627  0.6232 -0.3513
  224MOL0     C30116   1.687   4.532   1.209  0.4476  0.2932  0.0073
  224MOL0     C30117   1.826   4.474   1.226 -0.0007  0.1501 -0.3421
  224MOL0     C30118   1.889   4.522   1.368  0.1908  0.3168 -0.0489
  224MOL0     C30119   2.018   4.449   1.396 -0.0453  0.4872 -0.2413
  224MOL0     C30120   2.056   4.477   1.540 -0.6746 -0.6602 -0.3899
  224MOL0     C30121   2.189   4.406   1.572  0.2983  0.5268 -0.0794
  224MOL0     N30122   2.187   4.390   1.723  0.2819  0.4493  0.5903
  224MOL0     C30123   2.189   4.490   1.813 -0.6003 -0.9871  0.5412
  224MOL0     C30124   2.184   4.437   1.929 -0.1131  0.3987 -1.1601
  224MOL0     C30125   2.217   4.497   2.066 -0.2678  0.6749 -0.1851
  224MOL0     C30126   2.174   4.642   2.082  0.5500 -0.4125  0.2421
  224MOL0     C30127   2.195   4.693   2.221 -1.2365 -0.4698  0.5553
  224MOL0     C30128   2.180   4.839   2.237 -0.7385  0.4971 -0.0250
  224MOL0     O30129   2.200   4.887   2.370 -0.4273  0.0983  0.2501
  224MOL0     C30130   2.110   4.871   2.468  0.4445 -0.4289 -0.0658
  224MOL0     C30131   2.148   4.930   2.589 -0.4559 -0.3202 -0.1461
  224MOL0     C30132   2.072   4.924   2.704  0.9741  0.0795 -0.9693
  224MOL0     C30133   2.122   4.987   2.825 -0.2929 -0.1595  0.9820
  224MOL0     C30134   1.953   4.839   2.705 -0.0391 -0.5805  0.3703
  224MOL0     C30135   1.852   4.829   2.820 -0.6436  0.1061 -0.5316
  224MOL0     O30136   1.715   4.804   2.803 -0.3920  0.3385 -0.1206
  224MOL0     C30137   1.625   4.868   2.884 -0.0704  0.0230 -0.5809
  224MOL0     C30138   1.647   4.985   2.961 -0.3370 -0.2450 -0.0256
  224MOL0     C30139   1.540   5.064   2.994  0.0783 -0.8903 -0.1941
  224MOL0     C30140   1.409   5.019   2.979 -0.2901  0.2565 -0.5078
  224MOL0     O30141   1.299   5.079   3.039  0.0938 -0.3853 -1.1789
  224MOL0     C30142   1.176   5.018   3.033 -0.3838  0.1014 -0.2874
  224MOL0     C30143   1.098   5.085   3.146 -0.0498  0.7970  0.2437
  224MOL0     C30144   1.150   5.055   3.300 -0.0427 -0.2955 -0.2630
  224MOL0     C30145   1.181   5.190   3.378 -0.2541  0.7469 -0.4082
  224MOL0     C30146   1.069   5.285   3.410  0.9130 -0.9098 -0.0402
  224MOL0     C30147   1.121   5.417   3.451  0.0126 -0.3810  0.3969
  224MOL0     C30148   1.014   5.512   3.503 -0.7010 -0.4211  0.3258
  224MOL0     C30149   0.928   5.579   3.396 -1.0543 -0.1106 -0.9280
  224MOL0    Cl30150   0.811   5.453   3.342  0.0326  0.3520 -0.0042
  224MOL0     C30151   1.388   4.899   2.909 -0.0865 -0.1498  0.7689
  224MOL0     C30152   1.498   4.819   2.862  0.5180 -0.4517 -0.0023
  224MOL0     O30153   1.909   4.832   2.928 -0.7168  0.3328 -0.7306
  224MOL0     C30154   1.913   4.790   2.580  0.1106 -0.4204 -1.0094
  224MOL0     C30155   1.985   4.811   2.460  0.3425 -0.1061  0.1458
  224MOL0     N30156   2.166   4.303   1.912  0.0164  0.8926  0.1050
  224MOL0     N30157   2.163   4.273   1.785  0.1554  0.1694  0.0741
  224MOL0     C30158   1.415   4.791   1.514  0.0147 -0.0716 -0.1881
  224MOL0     C30159   1.429   4.797   1.662 -0.1789 -0.2492  0.2371
  224MOL0     C30160   1.417   4.724   2.109  0.2600 -0.1386 -0.3087
  224MOL0     C30161   1.412   4.822   2.215 -0.0554  0.1883 -0.0848
  224MOL0     C30162   1.440   4.769   2.348 -0.3687 -0.1911  0.6176
  224MOL0     C30163   1.456   4.635   2.381 -0.0344  0.0576 -0.1524
  224MOL0     O30164   1.468   4.602   2.516  0.1644 -0.8710  0.7823
  224MOL0     C30165   1.465   4.463   2.551 -0.4610  0.4616 -0.2189
  224MOL0     C30166   1.517   4.428   2.692 -0.1992  0.4552 -0.4892
  224MOL0     C30167   1.664   4.466   2.706 -0.2927  0.4645 -0.0226
  224MOL0     C30168   1.705   4.453   2.849  0.5627 -0.5389 -0.4766
  224MOL0     C30169   1.853   4.436   2.851 -0.1284 -0.2038  0.1467
  224MOL0     C30170   1.975   4.425   2.863 -0.2823 -0.1345  0.5990
  224MOL0     C30171   1.442   4.542   2.277 -0.4262  0.2127 -0.2975
  224MOL0     C30172   1.418   4.587   2.147 -0.2808 -0.0845 -1.3578
  224MOL0     H30173   1.343   4.478   1.724  1.7105  1.4734  3.3226
  224MOL0     H30174   1.321   4.466   1.496  0.6270 -2.2166  5.1198
  224MOL0     H30175   1.346   4.465   1.294  1.2899 -1.5366  2.2829
  224MOL0     H30176   1.408   4.529   1.148 -1.3277  2.9385  0.6550
  224MOL0     H30177   1.592   4.489   1.402  0.6733 -0.6306 -0.4246
  224MOL0     H30178   1.561   4.365   1.289 -0.9018  0.5227  1.0784
  224MOL0     H30179   1.646   4.508   1.110  0.7359 -2.7098  0.5189
  224MOL0     H30180   1.692   4.640   1.226  3.0523  0.0798  1.0866
  224MOL0     H30181   1.827   4.365   1.232  5.2946  0.0658  1.9926
  224MOL0     H30182   1.892   4.509   1.146  0.7658 -0.2308  0.1168
  224MOL0     H30183   1.899   4.631   1.368 -4.5772  0.9672  0.3475
  224MOL0     H30184   1.824   4.495   1.452 -1.2537  0.1858 -1.1658
  224MOL0     H30185   1.992   4.347   1.367  1.3081  0.9452 -3.5169
  224MOL0     H30186   2.096   4.470   1.321  0.7436 -2.1476 -0.2449
  224MOL0     H30187   2.067   4.581   1.570 -0.0637  0.0252 -2.7959
  224MOL0     H30188   1.976   4.428   1.598  0.3678 -2.1382 -0.1472
  224MOL0     H30189   2.280   4.454   1.537 -0.3904  0.1657 -2.5112
  224MOL0     H30190   2.202   4.307   1.527 -2.5136 -0.2497  0.5488
  224MOL0     H30191   2.198   4.593   1.780 -3.1516 -1.2581 -1.3154
  224MOL0     H30192   2.170   4.430   2.139  1.4321 -2.6701 -1.9468
  224MOL0     H30193   2.325   4.489   2.074 -0.3478  0.7250  1.0982
  224MOL0     H30194   2.068   4.648   2.059  0.2061 -1.0157  1.5777
  224MOL0     H30195   2.231   4.705   2.012  0.1316  1.5317  1.5717
  224MOL0     H30196   2.300   4.678   2.246 -1.1809 -1.7122 -0.3350
  224MOL0     H30197   2.131   4.638   2.289 -2.4171 -0.3719 -0.4421
  224MOL0     H30198   2.087   4.886   2.204  0.1402  0.5939 -2.5551
  224MOL0     H30199   2.252   4.890   2.173 -1.9999  1.2017 -0.9267
  224MOL0     H30200   2.242   4.984   2.598  1.7404 -4.1500  2.7551
  224MOL0     H30201   2.208   5.051   2.803 -0.1287 -0.6347  0.2109
  224MOL0     H30202   2.052   5.053   2.876 -0.0436  1.1919 -0.3799
  224MOL0     H30203   2.159   4.915   2.899 -0.3758  2.0936  3.3454
  224MOL0     H30204   1.749   5.021   2.969  0.1676 -1.9950  2.7357
  224MOL0     H30205   1.573   5.160   3.033  1.2791 -0.0231 -3.0252
  224MOL0     H30206   1.132   5.041   2.936 -0.9662  1.7967  0.3378
  224MOL0     H30207   1.191   4.911   3.049  1.8543  0.2405 -1.1258
  224MOL0     H30208   1.081   5.193   3.135 -1.9125  0.3918 -1.3704
  224MOL0     H30209   0.994   5.050   3.136 -0.3987  1.9901 -0.5061
  224MOL0     H30210   1.238   4.990   3.302  1.0200  0.9930 -1.8766
  224MOL0     H30211   1.078   5.000   3.361  2.3663 -0.9836  2.1547
  224MOL0     H30212   1.234   5.173   3.472  0.0525  2.8960 -0.1512
  224MOL0     H30213   1.265   5.233   3.322  0.7465 -1.3269 -0.5910
  224MOL0     H30214   1.018   5.237   3.493  2.1640  1.3964  2.2083
  224MOL0     H30215   0.995   5.308   3.332  0.1101 -0.3398  0.8786
  224MOL0     H30216   1.201   5.409   3.526 -0.1470 -3.1553  0.3865
  224MOL0     H30217   1.149   5.473   3.362 -3.3230 -0.4116 -0.7830
  224MOL0     H30218   1.064   5.599   3.547 -1.1285  0.0853 -0.1652
  224MOL0     H30219   0.947   5.465   3.575 -2.8120  2.6224  0.5149
  224MOL0     H30220   0.987   5.616   3.311  0.5202 -0.8505 -0.2099
  224MOL0     H30221   0.886   5.676   3.423 -1.3168  0.2030 -2.3642
  224MOL0     H30222   1.296   4.850   2.876  1.3614 -1.2444 -2.0123
  224MOL0     H30223   1.485   4.731   2.800 -0.9150 -1.2773  1.3917
  224MOL0     H30224   1.821   4.733   2.569 -0.4899  0.7124 -2.1095
  224MOL0     H30225   1.964   4.760   2.367  2.1430 -3.3502  1.3253
  224MOL0     H30226   1.435   4.881   1.456 -1.6510 -0.3489 -1.2607
  224MOL0     H30227   1.476   4.883   1.711 -1.8566  1.2449 -0.6529
  224MOL0     H30228   1.400   4.928   2.192  1.1057  0.4587  0.4733
  224MOL0     H30229   1.453   4.841   2.428  0.4741  0.5075 -0.1184
  224MOL0     H30230   1.364   4.423   2.551 -0.5646  0.7069  0.4796
  224MOL0     H30231   1.529   4.410   2.479  0.6750  0.9845  0.3702
  224MOL0     H30232   1.512   4.318   2.694 -1.4152  0.5125 -0.1048
  224MOL0     H30233   1.464   4.470   2.778 -0.0035 -1.8377  0.8471
  224MOL0     H30234   1.686   4.571   2.681 -1.4272  1.4965  2.8612
  224MOL0     H30235   1.724   4.402   2.640 -0.7994 -1.8833  1.6660
  224MOL0     H30236   1.652   4.364   2.886 -1.6655  1.1493  0.6043
  224MOL0     H30237   1.674   4.538   2.909 -2.0120 -0.6449 -1.5086
  224MOL0     H30238   2.079   4.397   2.871 -0.1128 -0.1303 -1.1945
  224MOL0     H30239   1.429   4.440   2.311 -0.1502  0.5837  0.9817
  224MOL0     H30240   1.417   4.508   2.073 -0.4710  0.0835 -1.5364
  225MOL0     O30241   5.831   9.712  10.367  0.5997 -0.6649 -0.7738
  225MOL0     C30242   5.810   9.646  10.468 -0.2054  0.6911 -0.0493
  225MOL0     O30243   5.717   9.539  10.485 -0.4573 -0.5826  0.0427
  225MOL0     C30244   5.641   9.513  10.370 -0.7157  0.3508 -0.4432
  225MOL0     C30245   5.687   9.512  10.234  0.5794  0.0861  0.4819
  225MOL0     C30246   5.598   9.487  10.129  0.4555 -1.0706 -0.3043
  225MOL0     C30247   5.467   9.467  10.157  0.0623  0.7505 -0.9821
  225MOL0     O30248   5.382   9.446  10.055 -0.2934 -0.1939  0.6864
  225MOL0     C30249   5.346   9.557   9.970 -0.8770  1.2511 -0.3696
  225MOL0     C30250   5.207   9.541   9.912 -0.0191 -0.0006 -0.0302
  225MOL0     C30251   5.105   9.515  10.021 -0.2630  0.0245  0.3086
  225MOL0     C30252   4.966   9.544   9.971  0.5931  0.3943 -0.2852
  225MOL0     C30253   4.850   9.530  10.073  0.0009 -0.5408 -0.1527
  225MOL0     C30254   4.720   9.588  10.023 -0.6389 -0.3551  0.7512
  225MOL0     C30255   4.656   9.498   9.914  0.1249 -0.1025 -0.0400
  225MOL0     C30256   4.509   9.537   9.872 -0.7192  0.3787 -0.6256
  225MOL0     N30257   4.409   9.503   9.971  0.1442 -0.0770  0.3762
  225MOL0     C30258   4.349   9.385   9.994  0.3046  1.2085 -0.0572
  225MOL0     C30259   4.292   9.397  10.114 -0.0664  0.4767  0.2638
  225MOL0     C30260   4.190   9.296  10.163 -0.2657 -0.9508  0.6540
  225MOL0     C30261   4.145   9.340  10.301 -0.1558 -0.5129  0.1399
  225MOL0     C30262   4.015   9.260  10.355  0.7672  0.3179 -0.1986
  225MOL0     C30263   4.017   9.105  10.364  0.0664  0.0052 -0.3048
  225MOL0     O30264   3.909   9.041  10.435 -0.0287 -0.4507 -1.1987
  225MOL0     C30265   3.919   8.910  10.471 -0.2509 -0.6018 -0.3352
  225MOL0     C30266   3.800   8.854  10.505  1.3348  0.4576 -0.0437
  225MOL0     C30267   3.789   8.718  10.552  0.6347  0.0908  1.8401
  225MOL0     C30268   3.656   8.689  10.603  0.5366  0.5219  0.5458
  225MOL0     C30269   3.913   8.637  10.557  0.3078  0.1844 -0.5802
  225MOL0     C30270   3.912   8.485  10.594 -0.1588 -0.0375  1.4742
  225MOL0     O30271   3.791   8.413  10.613  0.2166 -1.2634  0.2810
  225MOL0     C30272   3.798   8.277  10.625 -0.3442  0.0167 -0.9585
  225MOL0     C30273   3.790   8.202  10.507 -0.0444 -0.4913 -0.0286
  225MOL0     C30274   3.814   8.068  10.508 -0.5481  0.5348  0.1356
  225MOL0     C30275   3.837   8.006  10.637 -0.0676  0.3829  0.0773
  225MOL0     O30276   3.863   7.871  10.658 -0.0942 -0.5741 -0.7675
  225MOL0     C30277   3.921   7.788  10.556 -0.8108 -0.7443  0.4769
  225MOL0     C30278   4.004   7.675  10.616 -0.5451 -0.6327  0.5627
  225MOL0     C30279   3.938   7.569  10.708  0.3765  0.9584  0.5450
  225MOL0     C30280   4.049   7.448  10.728  0.3520 -0.7088  0.1129
  225MOL0     C30281   3.993   7.339  10.813 -0.3742 -0.2494 -0.6147
  225MOL0     C30282   4.038   7.197  10.781 -0.6821  0.4047 -0.1772
  225MOL0     C30283   4.195   7.181  10.797  0.4091  0.3680  0.1420
  225MOL0     C30284   4.238   7.196  10.946 -0.3163  0.7211 -0.2514
  225MOL0    Cl30285   4.192   7.034  11.019 -0.0823 -0.0984 -0.1043
  225MOL0     C30286   3.818   8.073  10.756 -1.1850 -0.4567  0.1523
  225MOL0     C30287   3.796   8.205  10.748  0.0951 -0.8659  1.1760
  225MOL0     O30288   4.022   8.431  10.593 -0.3808  0.3041  0.9945
  225MOL0     C30289   4.040   8.702  10.529 -0.7167  0.3110  0.3273
  225MOL0     C30290   4.037   8.839  10.488  0.5448  0.6661  0.1005
  225MOL0     N30291   4.304   9.526  10.158  0.7837  0.2555  1.0734
  225MOL0     N30292   4.384   9.588  10.075  0.6800  0.5979  0.1095
  225MOL0     C30293   5.413   9.473  10.285 -0.6896 -0.7713 -0.5851
  225MOL0     C30294   5.509   9.491  10.388  0.3193 -1.0997  0.3139
  225MOL0     C30295   5.895   9.688  10.588 -1.3549  0.0967  0.9030
  225MOL0     C30296   6.012   9.777  10.563 -0.2159  0.4982 -0.8436
  225MOL0     C30297   6.095   9.813  10.670  0.4734  0.7371 -0.2390
  225MOL0     C30298   6.064   9.774  10.800 -0.6427 -0.1401 -0.2032
  225MOL0     O30299   6.131   9.817  10.902  0.1820 -0.3155  0.0452
  225MOL0     C30300   6.273   9.795  10.926 -0.1453 -0.3321 -0.2703
  225MOL0     C30301   6.319   9.646  10.939 -0.1983  0.2538 -0.1570
  225MOL0     C30302   6.479   9.629  10.947  0.2014  0.0945  0.6954
  225MOL0     C30303   6.519   9.481  10.943  1.3885  0.0469 -0.1708
  225MOL0     C30304   6.660   9.480  10.904 -0.6243 -0.4413 -0.1508
  225MOL0     C30305   6.781   9.483  10.878 -1.0252  0.5904 -0.6762
  225MOL0     C30306   5.970   9.682  10.817  0.3598 -0.0869 -1.2455
  225MOL0     C30307   5.887   9.633  10.719 -0.8509 -0.0394  0.4703
  225MOL0     H30308   5.794   9.510  10.215  0.5363 -1.6673  0.1790
  225MOL0     H30309   5.630   9.486  10.025  0.3524 -1.0893 -0.3362
  225MOL0     H30310   5.349   9.650  10.028  0.9154  0.2313  1.3120
  225MOL0     H30311   5.410   9.562   9.882 -0.3456 -1.1257 -0.1864
  225MOL0     H30312   5.189   9.633   9.855  1.9878  0.6837  0.3563
  225MOL0     H30313   5.212   9.465   9.833 -0.0996  0.0072 -0.0427
  225MOL0     H30314   5.113   9.413  10.059 -1.0009 -0.3600 -0.5307
  225MOL0     H30315   5.136   9.590  10.095 -1.7719  1.7329 -0.7011
  225MOL0     H30316   4.964   9.646   9.932 -2.7584  0.0641 -1.2871
  225MOL0     H30317   4.941   9.483   9.884 -6.2481  0.5002  1.0106
  225MOL0     H30318   4.842   9.425  10.104  1.2237 -0.7867 -0.6279
  225MOL0     H30319   4.871   9.591  10.161 -3.8453  1.8262 -0.6414
  225MOL0     H30320   4.648   9.604  10.104 -0.8749 -0.5463  0.5818
  225MOL0     H30321   4.736   9.687   9.980  0.4811 -1.0980 -0.6128
  225MOL0     H30322   4.709   9.489   9.819 -1.5391 -1.0260 -0.9321
  225MOL0     H30323   4.650   9.396   9.953 -2.9906 -2.5039 -5.6052
  225MOL0     H30324   4.484   9.482   9.781  0.3242  0.8931 -1.2433
  225MOL0     H30325   4.504   9.639   9.832  0.5811 -0.4198 -2.9871
  225MOL0     H30326   4.344   9.296   9.932 -2.5933  1.1811  0.0572
  225MOL0     H30327   4.105   9.294  10.095 -0.3400  2.1491  0.5044
  225MOL0     H30328   4.227   9.193  10.168 -0.2462 -1.0012 -0.4166
  225MOL0     H30329   4.120   9.447  10.300  2.7496  0.2336  0.2286
  225MOL0     H30330   4.226   9.328  10.373  0.5172 -1.3795 -0.7220
  225MOL0     H30331   3.929   9.289  10.294  2.2802  0.5535 -2.3294
  225MOL0     H30332   3.989   9.307  10.451 -4.1893  2.2210 -2.1422
  225MOL0     H30333   4.115   9.090  10.411  1.2267  1.0745 -2.2480
  225MOL0     H30334   4.020   9.063  10.263 -1.4812  0.5956 -0.6188
  225MOL0     H30335   3.705   8.904  10.491  0.6375 -0.9932 -0.7311
  225MOL0     H30336   3.579   8.767  10.599 -0.9631 -0.9595 -1.3830
  225MOL0     H30337   3.620   8.608  10.539  1.6926 -0.9901  1.7219
  225MOL0     H30338   3.655   8.646  10.704 -0.0336 -0.9592 -0.0643
  225MOL0     H30339   3.787   8.244  10.407  0.7335  0.2141  0.2392
  225MOL0     H30340   3.831   8.013  10.416  3.0069 -0.3099  1.1278
  225MOL0     H30341   3.838   7.740  10.504  0.3301 -0.0876 -2.0823
  225MOL0     H30342   3.972   7.835  10.472  1.4238 -3.6931 -0.0210
  225MOL0     H30343   4.058   7.632  10.532 -2.5247 -0.4855 -0.8458
  225MOL0     H30344   4.073   7.730  10.680 -2.1663 -0.9299  2.7025
  225MOL0     H30345   3.849   7.528  10.660  0.8626  0.5723 -0.0479
  225MOL0     H30346   3.913   7.616  10.804  0.2839  1.5075  0.2558
  225MOL0     H30347   4.087   7.409  10.633  0.0082  1.3321 -0.9116
  225MOL0     H30348   4.137   7.480  10.784  0.4335 -1.9930  0.7670
  225MOL0     H30349   3.884   7.347  10.815 -0.3459  0.0017  0.8052
  225MOL0     H30350   4.019   7.362  10.916 -1.3368 -0.1152 -0.3894
  225MOL0     H30351   3.975   7.122  10.832  1.2710 -2.8667 -2.2003
  225MOL0     H30352   4.025   7.175  10.675  1.1733  0.5586 -0.4587
  225MOL0     H30353   4.242   7.262  10.741 -1.0126  0.0833 -1.5321
  225MOL0     H30354   4.227   7.087  10.751 -3.7845 -0.9258 -0.6112
  225MOL0     H30355   4.199   7.279  11.005  0.9253  0.8221  0.4813
  225MOL0     H30356   4.347   7.208  10.945 -0.1013 -0.7257  0.9009
  225MOL0     H30357   3.833   8.032  10.855 -0.2153  1.8128  0.9979
  225MOL0     H30358   3.805   8.258  10.842 -1.6979 -1.4639  1.7262
  225MOL0     H30359   4.137   8.652  10.531 -2.0445 -2.6182 -1.0564
  225MOL0     H30360   4.139   8.872  10.472  1.9634 -3.1899  0.1950
  225MOL0     H30361   5.306   9.473  10.300 -0.7929 -0.7641 -1.3073
  225MOL0     H30362   5.464   9.509  10.485 -0.0620  2.1885 -0.3737
  225MOL0     H30363   6.029   9.815  10.463 -0.3292  2.0826 -0.2877
  225MOL0     H30364   6.173   9.887  10.654 -0.5054  1.9275  0.2846
  225MOL0     H30365   6.321   9.851  10.845  0.3611  2.0123  1.5432
  225MOL0     H30366   6.302   9.853  11.013  2.2004 -2.1119  0.2202
  225MOL0     H30367   6.277   9.600  10.849 -1.0896 -4.9745  2.5141
  225MOL0     H30368   6.282   9.600  11.032  0.4601  0.4443  0.2037
  225MOL0     H30369   6.524   9.684  11.030 -0.2341  0.8052  0.4738
  225MOL0     H30370   6.511   9.687  10.860  0.0585 -3.3921 -1.8932
  225MOL0     H30371   6.446   9.433  10.876 -0.0513  0.1214  1.2776
  225MOL0     H30372   6.512   9.435  11.042  2.4999  2.2774  1.0031
  225MOL0     H30373   6.884   9.492  10.851 -0.4762  0.3436  1.1861
  225MOL0     H30374   5.952   9.635  10.914  2.5313 -0.3950 -0.9257
  225MOL0     H30375   5.805   9.568  10.749 -2.0610  0.7714 -0.9560
  226MOL0     O30376   0.315   2.082   6.282  0.3158 -0.0425 -0.4136
  226MOL0     C30377   0.211   2.110   6.339 -0.1454  1.1302  0.7776
  226MOL0     O30378   0.129   2.014   6.397  0.3867 -0.7173  0.0920
  226MOL0     C30379   0.157   1.885   6.441 -0.5374 -0.0242  0.7034
  226MOL0     C30380   0.057   1.785   6.446  0.1284  0.6232 -0.2279
  226MOL0     C30381   0.088   1.664   6.504 -0.0845  0.0216 -0.0542
  226MOL0     C30382   0.197   1.641   6.586  0.7619 -0.2565  0.5773
  226MOL0     O30383   0.202   1.522   6.657  0.5667  0.2219  0.4884
  226MOL0     C30384   0.322   1.485   6.739  0.3441 -0.6356  0.6502
  226MOL0     C30385   0.443   1.441   6.661 -0.3684  0.8028 -0.0444
  226MOL0     C30386   0.568   1.444   6.741 -1.8025 -0.0779 -0.8555
  226MOL0     C30387   0.692   1.398   6.668  0.2416 -0.0062 -0.0780
  226MOL0     C30388   0.822   1.428   6.739  0.6370 -0.3912 -0.0791
  226MOL0     C30389   0.845   1.356   6.876 -0.0078 -1.9334 -0.3772
  226MOL0     C30390   0.995   1.323   6.901  0.9580 -1.2645 -0.7587
  226MOL0     C30391   1.054   1.441   6.969  0.0488 -0.2137  0.0710
  226MOL0     N30392   1.191   1.409   7.005 -0.0391  0.4364  0.4551
  226MOL0     C30393   1.288   1.329   6.945 -0.7724  0.2236  0.3901
  226MOL0     C30394   1.398   1.335   7.024 -0.3518  0.3844 -0.2665
  226MOL0     C30395   1.522   1.255   7.009  0.6081 -0.9324  0.0406
  226MOL0     C30396   1.655   1.326   7.013 -0.7419  1.3464  0.2973
  226MOL0     C30397   1.760   1.222   7.012  0.1626  0.1370  0.0494
  226MOL0     C30398   1.905   1.270   7.034  1.0369  0.2526 -0.6779
  226MOL0     O30399   1.914   1.301   7.173  0.7829 -0.0060  0.5336
  226MOL0     C30400   1.963   1.223   7.273 -0.3541  0.4665 -0.1748
  226MOL0     C30401   2.005   1.283   7.400 -1.0139  1.2962 -0.0279
  226MOL0     C30402   2.068   1.208   7.490  0.3519  0.8672  1.0162
  226MOL0     C30403   2.105   1.276   7.611 -0.3824 -0.3420 -0.6324
  226MOL0     C30404   2.100   1.074   7.446  0.5152  0.8122  0.0504
  226MOL0     C30405   2.190   0.990   7.533  0.2138  0.6677  1.3259
  226MOL0     O30406   2.161   0.956   7.660  0.2249 -0.0149  0.3390
  226MOL0     C30407   2.267   0.897   7.724  0.4108  0.7101 -1.4542
  226MOL0     C30408   2.335   0.962   7.830 -0.1880  0.5651 -0.5715
  226MOL0     C30409   2.440   0.904   7.886 -0.6260 -0.1581 -0.7998
  226MOL0     C30410   2.481   0.770   7.854  0.2611  0.4505  0.4180
  226MOL0     O30411   2.595   0.731   7.926 -0.2122  0.2195  0.6835
  226MOL0     C30412   2.657   0.608   7.881  0.2224  0.2448  0.4619
  226MOL0     C30413   2.803   0.604   7.917  0.6815 -0.5582  0.5901
  226MOL0     C30414   2.878   0.495   7.831 -0.5073 -0.1934 -0.7087
  226MOL0     C30415   3.029   0.504   7.848 -0.1263 -1.3990 -0.4140
  226MOL0     C30416   3.097   0.632   7.812  0.2357  0.1349  0.4010
  226MOL0     C30417   3.250   0.622   7.786 -1.1994 -1.0754 -0.5260
  226MOL0     C30418   3.303   0.764   7.759 -0.3631 -0.6008 -1.0379
  226MOL0     C30419   3.454   0.774   7.766  0.4917  0.4564 -0.2146
  226MOL0    Cl30420   3.497   0.710   7.600 -0.0851 -0.4800 -0.4611
  226MOL0     C30421   2.430   0.706   7.738 -0.7466 -0.7076 -0.2863
  226MOL0     C30422   2.317   0.766   7.679 -0.4592 -0.6676  0.4406
  226MOL0     O30423   2.289   0.951   7.466 -0.0507 -0.5984 -0.2844
  226MOL0     C30424   2.045   1.008   7.336 -0.2268  0.3868  0.9377
  226MOL0     C30425   1.975   1.092   7.241  0.1616  0.8425  0.0357
  226MOL0     N30426   1.369   1.406   7.132  0.0840 -0.3276 -0.4667
  226MOL0     N30427   1.247   1.447   7.132 -0.4970 -0.9096 -0.3352
  226MOL0     C30428   0.297   1.738   6.578  0.3193  1.0975  0.6653
  226MOL0     C30429   0.286   1.853   6.489  0.6537 -0.5469 -0.2750
  226MOL0     C30430   0.154   2.245   6.307  0.0914 -0.2252  0.0776
  226MOL0     C30431   0.210   2.329   6.206  0.1160  0.1748  0.0777
  226MOL0     C30432   0.150   2.447   6.168  0.6392 -0.3931  0.2264
  226MOL0     C30433   0.035   2.499   6.232  0.3087 -0.0557  0.4316
  226MOL0     O30434  -0.029   2.614   6.211  0.1403  0.6105 -0.9574
  226MOL0     C30435  -0.012   2.691   6.096 -0.0176 -0.4807 -0.3755
  226MOL0     C30436   0.114   2.780   6.095 -0.1192  0.6931  0.2520
  226MOL0     C30437   0.073   2.909   6.164 -0.3547  0.1500  0.0816
  226MOL0     C30438   0.169   3.026   6.170 -0.1056 -0.5848  0.4355
  226MOL0     C30439   0.302   2.979   6.196 -0.2495 -1.1214 -0.4246
  226MOL0     C30440   0.400   2.937   6.249  1.0064  0.0488  0.0198
  226MOL0     C30441  -0.019   2.407   6.326  0.2155 -0.8281  0.0386
  226MOL0     C30442   0.039   2.288   6.369 -0.5492  0.4216 -0.6910
  226MOL0     H30443  -0.039   1.809   6.399 -0.6754 -1.3065  0.3422
  226MOL0     H30444   0.009   1.591   6.512  0.5577 -0.6561  0.2035
  226MOL0     H30445   0.363   1.567   6.800  1.1407  2.4759 -3.6387
  226MOL0     H30446   0.296   1.406   6.810 -1.5753 -0.9429 -0.3323
  226MOL0     H30447   0.432   1.336   6.632  3.0288  0.2958  0.1436
  226MOL0     H30448   0.459   1.490   6.564 -1.7615  0.6636 -0.3730
  226MOL0     H30449   0.583   1.549   6.768  1.2799  0.0252 -2.4709
  226MOL0     H30450   0.553   1.381   6.829  0.6026 -2.7194 -2.1794
  226MOL0     H30451   0.695   1.289   6.663  1.6632 -0.3556  4.3365
  226MOL0     H30452   0.698   1.449   6.571  3.5996 -0.0635  0.0022
  226MOL0     H30453   0.910   1.406   6.679 -0.6519 -1.0248 -1.8207
  226MOL0     H30454   0.817   1.535   6.759  1.3473  0.0793 -2.1957
  226MOL0     H30455   0.801   1.423   6.950  0.3964 -0.6309 -1.2784
  226MOL0     H30456   0.792   1.264   6.899 -1.3047 -0.7044  1.8670
  226MOL0     H30457   1.011   1.237   6.967  1.0893  0.7992  2.0818
  226MOL0     H30458   1.034   1.292   6.803 -1.4618 -0.2675 -2.1305
  226MOL0     H30459   0.994   1.457   7.059 -0.7730 -1.3321 -0.2600
  226MOL0     H30460   1.053   1.536   6.913  2.5175  1.0951  2.0369
  226MOL0     H30461   1.284   1.275   6.851  1.5031  0.1316  0.2929
  226MOL0     H30462   1.517   1.180   7.089  0.9744 -0.5178  0.4576
  226MOL0     H30463   1.517   1.202   6.914  3.6397 -1.7791  0.2396
  226MOL0     H30464   1.665   1.382   7.107 -0.7475 -2.6115  2.8744
  226MOL0     H30465   1.668   1.398   6.931  4.9166  2.2179  1.5552
  226MOL0     H30466   1.772   1.191   6.908 -0.8745  3.4366 -1.1853
  226MOL0     H30467   1.732   1.139   7.078 -3.0541  0.4968 -0.7220
  226MOL0     H30468   1.923   1.356   6.969 -1.7404  1.0371 -0.5149
  226MOL0     H30469   1.972   1.188   7.009 -0.8467 -1.4212 -0.5127
  226MOL0     H30470   1.971   1.383   7.425 -2.5524  0.4600  1.3668
  226MOL0     H30471   2.150   1.373   7.588  0.7456 -1.0925 -1.7543
  226MOL0     H30472   2.013   1.304   7.661  2.0904  1.8897  3.1571
  226MOL0     H30473   2.159   1.218   7.687 -0.7973 -1.8899 -1.4697
  226MOL0     H30474   2.297   1.060   7.855 -2.9650 -0.1323 -1.7211
  226MOL0     H30475   2.488   0.960   7.966 -0.3807  0.8984 -1.6604
  226MOL0     H30476   2.601   0.516   7.902  1.4443 -1.5440 -3.1410
  226MOL0     H30477   2.656   0.605   7.771  0.4386 -0.1482  0.4670
  226MOL0     H30478   2.846   0.705   7.917 -1.0526  0.2125  0.8389
  226MOL0     H30479   2.808   0.571   8.021  6.2391 -3.4719 -0.2042
  226MOL0     H30480   2.850   0.498   7.726  0.2849  0.6106 -0.9072
  226MOL0     H30481   2.848   0.393   7.859 -1.8514 -0.1775 -1.9549
  226MOL0     H30482   3.045   0.496   7.956 -2.0647 -0.6982 -0.0368
  226MOL0     H30483   3.076   0.419   7.798  1.4099 -1.9240  1.7703
  226MOL0     H30484   3.069   0.707   7.887 -2.2834 -2.0786  1.8674
  226MOL0     H30485   3.056   0.672   7.720 -2.4514 -0.9328  1.0438
  226MOL0     H30486   3.300   0.576   7.872  0.2765  0.6314 -0.4023
  226MOL0     H30487   3.274   0.572   7.692 -0.1243 -0.9506 -0.3296
  226MOL0     H30488   3.269   0.829   7.839 -1.1027  0.1240 -1.9233
  226MOL0     H30489   3.265   0.800   7.663  1.6159  0.8101 -1.3539
  226MOL0     H30490   3.490   0.706   7.844 -0.6506 -1.0299 -0.9178
  226MOL0     H30491   3.488   0.875   7.790  1.0638  0.4282 -0.8712
  226MOL0     H30492   2.469   0.609   7.709 -1.0083 -2.1906  3.7345
  226MOL0     H30493   2.275   0.720   7.591  2.2285 -1.4907 -0.5260
  226MOL0     H30494   2.068   0.904   7.316 -0.4581  0.7389 -1.4900
  226MOL0     H30495   1.952   1.049   7.144 -0.0124  1.9745 -0.4382
  226MOL0     H30496   0.385   1.719   6.640  0.4218 -1.1077 -0.0996
  226MOL0     H30497   0.368   1.923   6.478 -0.5282  0.7625 -1.1171
  226MOL0     H30498   0.303   2.302   6.158 -1.5733 -4.7958 -1.0070
  226MOL0     H30499   0.199   2.507   6.092 -0.8481 -0.9802 -1.2667
  226MOL0     H30500  -0.027   2.614   6.019 -3.7730 -3.0589  2.6033
  226MOL0     H30501  -0.096   2.759   6.079 -0.2337 -0.4198  0.8496
  226MOL0     H30502   0.147   2.797   5.992 -0.4043  2.4569  0.4235
  226MOL0     H30503   0.200   2.734   6.145 -0.8535 -0.1740  0.7600
  226MOL0     H30504   0.064   2.875   6.268 -1.2337 -1.1609 -0.3830
  226MOL0     H30505  -0.027   2.940   6.132  0.3144  0.0316 -2.3536
  226MOL0     H30506   0.144   3.092   6.254 -0.2709  0.2073 -0.2208
  226MOL0     H30507   0.174   3.084   6.077  2.5225  0.8082  1.3376
  226MOL0     H30508   0.492   2.889   6.276  1.3695  0.1134 -1.0638
  226MOL0     H30509  -0.117   2.429   6.367  0.3477 -1.4644  0.7231
  226MOL0     H30510  -0.026   2.227   6.432  0.1303 -2.2918 -2.4911
  227MOL0     O30511   1.863   2.346   3.910  0.2119  0.1436 -0.0652
  227MOL0     C30512   1.916   2.428   3.989  0.3422 -0.4678  0.2276
  227MOL0     O30513   2.045   2.417   4.027  0.6012 -0.5037 -0.6881
  227MOL0     C30514   2.136   2.327   3.973 -0.7160  0.4655  0.2195
  227MOL0     C30515   2.270   2.369   3.966 -0.4261  0.0761 -0.1317
  227MOL0     C30516   2.368   2.283   3.922  0.4471  0.1340  0.4581
  227MOL0     C30517   2.337   2.150   3.900  0.9987  1.0036 -0.6854
  227MOL0     O30518   2.433   2.047   3.879 -0.4914 -0.1983  0.9773
  227MOL0     C30519   2.569   2.076   3.828  0.3557 -0.1091  0.6189
  227MOL0     C30520   2.683   2.099   3.923 -0.0630  0.0766  0.3600
  227MOL0     C30521   2.730   1.962   3.984  0.1473  0.1690  0.8931
  227MOL0     C30522   2.825   1.976   4.095  0.0896 -0.5189  0.7996
  227MOL0     C30523   2.775   1.997   4.235  0.5371  0.2016  0.2696
  227MOL0     C30524   2.857   2.077   4.329 -0.7054 -1.7014  0.1364
  227MOL0     C30525   2.771   2.119   4.447 -0.0709  0.2449 -1.3068
  227MOL0     C30526   2.834   2.204   4.550 -0.6322 -1.1449 -0.2801
  227MOL0     N30527   2.737   2.228   4.656 -1.3674 -0.7203 -0.3440
  227MOL0     C30528   2.754   2.181   4.781 -0.0028  0.6683 -0.0461
  227MOL0     C30529   2.638   2.217   4.848  0.3990 -0.0435  0.2889
  227MOL0     C30530   2.610   2.182   4.990 -0.7179  0.0428 -0.0664
  227MOL0     C30531   2.463   2.142   5.015 -0.5910  0.0127 -0.8979
  227MOL0     C30532   2.427   2.122   5.161 -0.6818  0.3400  0.5142
  227MOL0     C30533   2.276   2.107   5.178 -0.5087  0.4539  0.6312
  227MOL0     O30534   2.251   2.114   5.319  0.0259 -0.8913 -0.1335
  227MOL0     C30535   2.255   2.000   5.403  1.1282  0.1041 -1.1002
  227MOL0     C30536   2.263   1.866   5.353 -1.3513  1.0830  0.3245
  227MOL0     C30537   2.269   1.764   5.447  0.0787 -0.0430  0.2726
  227MOL0     C30538   2.268   1.623   5.390 -0.3194  0.4072 -0.6655
  227MOL0     C30539   2.286   1.779   5.581  0.2107 -1.6184 -0.1339
  227MOL0     C30540   2.300   1.666   5.674  0.0300  0.4168 -0.8573
  227MOL0     O30541   2.372   1.562   5.644 -0.1441 -0.0070 -0.0914
  227MOL0     C30542   2.355   1.454   5.723 -0.1302  0.2850 -0.3073
  227MOL0     C30543   2.423   1.452   5.843 -0.2715  0.1262  0.5509
  227MOL0     C30544   2.418   1.345   5.929 -0.0369 -0.2204  0.9214
  227MOL0     C30545   2.359   1.225   5.886  0.9750 -0.7013  0.5824
  227MOL0     O30546   2.364   1.112   5.963  0.0206  0.8105 -0.4637
  227MOL0     C30547   2.299   1.132   6.088 -0.7048 -0.0651  0.8143
  227MOL0     C30548   2.142   1.102   6.091  0.5524 -0.1719  0.5848
  227MOL0     C30549   2.060   1.219   6.133  0.2080 -0.3110 -0.1844
  227MOL0     C30550   2.064   1.330   6.031 -0.2485 -0.5587 -0.9809
  227MOL0     C30551   1.966   1.440   6.071  0.1797 -0.1942 -0.2170
  227MOL0     C30552   1.968   1.556   5.969  0.2307  0.3680 -0.6205
  227MOL0     C30553   1.907   1.513   5.829  0.3945  0.0084  0.2430
  227MOL0     C30554   1.897   1.627   5.719  0.4359 -0.0622 -0.4455
  227MOL0    Cl30555   1.776   1.746   5.754 -0.2363 -0.3696  0.1717
  227MOL0     C30556   2.285   1.228   5.762  0.4758  0.3537  0.1805
  227MOL0     C30557   2.272   1.349   5.687 -0.0515  0.4937 -0.1810
  227MOL0     O30558   2.239   1.681   5.780 -0.3444 -0.0032  0.5274
  227MOL0     C30559   2.286   1.912   5.628 -0.5612  0.0261 -0.0920
  227MOL0     C30560   2.274   2.017   5.543  0.1588  1.2336  0.0632
  227MOL0     N30561   2.551   2.294   4.764 -0.1019 -0.7450  0.1531
  227MOL0     N30562   2.617   2.283   4.643 -0.1409 -0.2001  0.6924
  227MOL0     C30563   2.206   2.104   3.909 -0.6971 -0.0397 -0.8534
  227MOL0     C30564   2.108   2.191   3.950 -0.6180  0.1583  0.3226
  227MOL0     C30565   1.851   2.536   4.067  0.8793  0.8607  0.1820
  227MOL0     C30566   1.906   2.615   4.173  0.5511 -0.2374 -0.3478
  227MOL0     C30567   1.834   2.715   4.241 -0.8949  0.0868  0.0337
  227MOL0     C30568   1.700   2.731   4.205  0.4147  0.1099 -0.5363
  227MOL0     O30569   1.630   2.819   4.279 -0.4122 -0.6882 -0.3856
  227MOL0     C30570   1.662   2.954   4.243 -0.6959 -0.0260 -0.2342
  227MOL0     C30571   1.706   3.053   4.353 -1.3217  0.2599  0.4760
  227MOL0     C30572   1.592   3.074   4.446  0.2720  0.4137 -0.4905
  227MOL0     C30573   1.636   3.128   4.584  0.7085  0.4630 -0.4940
  227MOL0     C30574   1.735   3.235   4.572  0.0207 -0.0872  0.6601
  227MOL0     C30575   1.813   3.332   4.546  0.3086  0.9307  0.3414
  227MOL0     C30576   1.647   2.662   4.097  0.2809  0.8512 -0.4093
  227MOL0     C30577   1.716   2.560   4.029 -0.3942 -0.6768  0.5469
  227MOL0     H30578   2.303   2.466   4.002 -1.6678 -0.1736  1.8489
  227MOL0     H30579   2.466   2.328   3.911  0.6677 -0.5122 -0.3379
  227MOL0     H30580   2.609   2.010   3.751  3.5611  2.4925 -0.1638
  227MOL0     H30581   2.561   2.171   3.775 -0.8813 -0.4837  0.0849
  227MOL0     H30582   2.752   2.140   3.849 -2.1242 -0.6990 -2.1526
  227MOL0     H30583   2.664   2.169   4.004 -2.3921 -1.0646  0.8895
  227MOL0     H30584   2.644   1.897   4.005 -1.8645  0.4287 -4.7571
  227MOL0     H30585   2.788   1.915   3.904 -1.8644 -3.9495  1.5828
  227MOL0     H30586   2.893   1.890   4.100  3.8113  1.7156 -3.6048
  227MOL0     H30587   2.900   2.049   4.063 -1.4528 -0.6344 -3.7399
  227MOL0     H30588   2.674   2.038   4.226 -0.7663 -2.7845 -0.0232
  227MOL0     H30589   2.759   1.899   4.280  3.2864 -1.4962 -2.1303
  227MOL0     H30590   2.944   2.021   4.365  0.7362  0.7989  0.7518
  227MOL0     H30591   2.877   2.169   4.275 -1.9653 -1.6144 -0.2250
  227MOL0     H30592   2.681   2.171   4.412 -1.2105 -0.3492  0.6268
  227MOL0     H30593   2.742   2.027   4.498  2.0256 -0.2274 -0.8930
  227MOL0     H30594   2.857   2.298   4.500  0.1013 -0.7489  0.7483
  227MOL0     H30595   2.930   2.169   4.591  0.2002  2.8119  1.6286
  227MOL0     H30596   2.837   2.117   4.812 -2.1642 -3.0556 -1.2910
  227MOL0     H30597   2.674   2.103   5.030 -1.7670 -0.6696  0.2123
  227MOL0     H30598   2.629   2.267   5.057 -2.5227 -0.8648  1.6936
  227MOL0     H30599   2.438   2.052   4.959 -0.8978 -0.0436 -0.6757
  227MOL0     H30600   2.410   2.226   4.968  3.7949  2.1951 -2.5118
  227MOL0     H30601   2.462   2.203   5.225  0.5586 -0.2284  0.5849
  227MOL0     H30602   2.490   2.039   5.193 -1.1009 -0.5304 -0.8184
  227MOL0     H30603   2.245   2.009   5.141 -0.6503  0.6043  0.3501
  227MOL0     H30604   2.225   2.190   5.129  0.7668  0.8366 -0.0946
  227MOL0     H30605   2.255   1.853   5.245 -0.2313  1.9980  0.1090
  227MOL0     H30606   2.223   1.620   5.291 -0.9464  0.4572 -0.3848
  227MOL0     H30607   2.365   1.571   5.392  1.9004  3.7953  4.9290
  227MOL0     H30608   2.193   1.560   5.440  0.7315 -0.6451 -0.3453
  227MOL0     H30609   2.477   1.541   5.874  1.6483 -1.1549  1.0488
  227MOL0     H30610   2.442   1.374   6.031 -2.6266  3.0673  0.7984
  227MOL0     H30611   2.333   1.061   6.163 -0.2153 -1.5441 -0.7407
  227MOL0     H30612   2.319   1.228   6.136  2.1316 -0.6198  0.8777
  227MOL0     H30613   2.111   1.065   5.993  1.0491 -2.6609  1.2958
  227MOL0     H30614   2.121   1.021   6.161 -2.8422 -0.9268 -1.0840
  227MOL0     H30615   2.087   1.258   6.231  2.8525  0.2692 -1.0681
  227MOL0     H30616   1.955   1.188   6.139  0.5137 -1.3640 -0.0214
  227MOL0     H30617   2.165   1.371   6.017 -0.4864 -0.0545 -1.2145
  227MOL0     H30618   2.054   1.285   5.931  1.6773 -2.1513 -0.5340
  227MOL0     H30619   1.989   1.481   6.170 -1.7349  3.0284 -0.9640
  227MOL0     H30620   1.867   1.399   6.090  0.4035  0.2410  2.0987
  227MOL0     H30621   1.897   1.629   6.010 -1.2719 -1.9467  1.1581
  227MOL0     H30622   2.059   1.616   5.966 -0.5422  1.9556  2.7564
  227MOL0     H30623   1.810   1.467   5.848  1.9519 -2.2711  3.4126
  227MOL0     H30624   1.967   1.430   5.791  0.6590  0.8619 -1.2779
  227MOL0     H30625   1.868   1.569   5.631  1.0390 -2.0204  0.5879
  227MOL0     H30626   1.994   1.673   5.697  1.3276 -2.0613 -0.9853
  227MOL0     H30627   2.236   1.137   5.730 -0.6044  1.6891 -2.2779
  227MOL0     H30628   2.195   1.334   5.613 -2.2705 -2.5631  2.4694
  227MOL0     H30629   2.283   1.924   5.736 -1.3247  4.1039 -0.4260
  227MOL0     H30630   2.245   2.114   5.582 -2.0612  1.6035 -2.2148
  227MOL0     H30631   2.178   2.000   3.895  3.9747 -1.7267  0.2569
  227MOL0     H30632   2.005   2.162   3.962 -0.4821 -0.5119 -0.1103
  227MOL0     H30633   2.001   2.576   4.208 -0.4764 -2.1585  0.4530
  227MOL0     H30634   1.866   2.758   4.335 -0.5756 -0.3940  0.1443
  227MOL0     H30635   1.756   2.961   4.187  0.6914 -1.2939  1.7939
  227MOL0     H30636   1.578   2.983   4.179 -1.9585 -0.8928  0.9618
  227MOL0     H30637   1.744   3.149   4.315 -2.0194  1.4535  2.6280
  227MOL0     H30638   1.784   3.006   4.413 -0.2547 -0.4337 -1.3641
  227MOL0     H30639   1.537   2.982   4.467 -0.2138  0.7561 -0.2524
  227MOL0     H30640   1.534   3.160   4.410  1.0823  1.3374  0.3496
  227MOL0     H30641   1.672   3.046   4.646 -2.9861  1.2276  3.0889
  227MOL0     H30642   1.544   3.167   4.630  0.0343 -2.8841  1.3458
  227MOL0     H30643   1.890   3.407   4.536  1.8925 -0.3218  2.2409
  227MOL0     H30644   1.548   2.696   4.068  0.0451 -0.0995 -0.7546
  227MOL0     H30645   1.668   2.499   3.953 -1.9008  2.1457 -0.9183
  228MOL0     O30646   9.020   7.885   6.630  0.4846  0.3132  0.2918
  228MOL0     C30647   8.967   7.876   6.518 -0.1917  0.3890 -0.3298
  228MOL0     O30648   8.852   7.817   6.491  0.0008  0.3349  0.2246
  228MOL0     C30649   8.786   7.736   6.575 -0.9400  0.0483 -0.4845
  228MOL0     C30650   8.811   7.596   6.580 -1.2127 -0.4875 -0.0240
  228MOL0     C30651   8.747   7.514   6.669  0.8423  0.2800 -0.4156
  228MOL0     C30652   8.640   7.558   6.744  1.0428 -0.4388 -0.3309
  228MOL0     O30653   8.556   7.486   6.834  0.8642  0.1218  0.2250
  228MOL0     C30654   8.627   7.384   6.908  0.5255 -0.0205 -0.5556
  228MOL0     C30655   8.559   7.251   6.908  0.2355  0.8974  0.3617
  228MOL0     C30656   8.626   7.148   7.003 -0.8418 -0.4446  1.0807
  228MOL0     C30657   8.579   6.993   6.977  0.1830  0.1127 -0.3227
  228MOL0     C30658   8.646   6.891   7.080 -0.1315 -0.0097 -0.1009
  228MOL0     C30659   8.797   6.870   7.032 -0.0926 -1.1233  1.0671
  228MOL0     C30660   8.865   6.775   7.125 -0.2259 -0.1424  0.5052
  228MOL0     C30661   9.016   6.779   7.123  0.1830  0.8310 -0.4563
  228MOL0     N30662   9.085   6.905   7.151  0.0520  0.2428  1.0111
  228MOL0     C30663   9.054   6.982   7.257  0.5425 -0.1294 -0.4897
  228MOL0     C30664   9.141   7.089   7.253 -0.7014  1.2731 -0.3875
  228MOL0     C30665   9.145   7.191   7.361 -0.7491 -0.5716 -0.2111
  228MOL0     C30666   9.177   7.130   7.502 -0.2753  0.8244  0.8309
  228MOL0     C30667   9.323   7.072   7.500  0.2092 -0.3987  0.1260
  228MOL0     C30668   9.372   7.048   7.647  0.6776 -0.1986 -0.7801
  228MOL0     O30669   9.357   6.919   7.708  0.1748 -0.0097 -0.5059
  228MOL0     C30670   9.335   6.798   7.644  1.1025  0.9609 -0.7058
  228MOL0     C30671   9.446   6.713   7.621 -0.3711 -0.0528  0.5372
  228MOL0     C30672   9.421   6.581   7.565 -0.3413 -0.4510 -1.3592
  228MOL0     C30673   9.541   6.490   7.548 -0.6437 -0.1698 -0.3245
  228MOL0     C30674   9.296   6.540   7.522  0.1672  0.3387 -0.0968
  228MOL0     C30675   9.261   6.411   7.459 -0.2603  0.3521 -0.3306
  228MOL0     O30676   9.342   6.305   7.469 -0.0636 -0.2312 -0.3418
  228MOL0     C30677   9.300   6.168   7.465 -0.2355 -0.0064  0.9896
  228MOL0     C30678   9.395   6.085   7.524 -0.7531  0.0814 -1.3732
  228MOL0     C30679   9.361   5.944   7.530 -0.9891 -0.6657 -0.3484
  228MOL0     C30680   9.241   5.891   7.480  1.4375 -0.6077  0.4968
  228MOL0     O30681   9.218   5.756   7.485  0.8535  0.8404  0.7113
  228MOL0     C30682   9.307   5.669   7.411 -0.6977  0.7040 -0.3421
  228MOL0     C30683   9.238   5.544   7.366  1.1861 -0.6013  0.4113
  228MOL0     C30684   9.230   5.455   7.490  0.8462  0.9089  0.2017
  228MOL0     C30685   9.267   5.315   7.440 -0.5633 -0.2304 -0.6487
  228MOL0     C30686   9.270   5.221   7.567  1.2175 -0.2589 -0.0209
  228MOL0     C30687   9.282   5.070   7.533  0.2354 -0.2290 -0.1548
  228MOL0     C30688   9.150   4.989   7.509 -0.4717 -0.5671 -1.4394
  228MOL0     C30689   9.166   4.835   7.532 -0.5614  0.2000 -0.9436
  228MOL0    Cl30690   9.243   4.743   7.411 -0.0141 -0.0379  0.0532
  228MOL0     C30691   9.144   5.976   7.426  0.7946 -0.3214  0.2472
  228MOL0     C30692   9.178   6.113   7.414 -0.4739  0.2952 -1.0058
  228MOL0     O30693   9.160   6.413   7.388  0.1668  0.5944  0.6729
  228MOL0     C30694   9.195   6.635   7.547  0.1221 -0.6403  0.1393
  228MOL0     C30695   9.205   6.762   7.606  0.2996  0.3812  0.8090
  228MOL0     N30696   9.227   7.065   7.146  0.0112  0.3213 -1.0136
  228MOL0     N30697   9.194   6.953   7.079 -0.0808 -0.7886 -0.7929
  228MOL0     C30698   8.613   7.689   6.744  0.2031 -0.2670  0.7598
  228MOL0     C30699   8.678   7.775   6.650 -0.3475  0.4757 -1.4929
  228MOL0     C30700   9.035   7.943   6.405 -0.7129  0.0063  0.5906
  228MOL0     C30701   9.129   8.031   6.427 -0.5710 -0.5422 -0.3402
  228MOL0     C30702   9.175   8.113   6.318 -0.7791 -0.3606  0.0609
  228MOL0     C30703   9.127   8.100   6.188  0.0774 -0.2867  0.2147
  228MOL0     O30704   9.154   8.178   6.076 -0.7467  0.2066 -0.0983
  228MOL0     C30705   9.240   8.289   6.106  0.5930 -0.3622  1.0129
  228MOL0     C30706   9.388   8.265   6.121  0.4875 -0.2530  0.3714
  228MOL0     C30707   9.454   8.209   5.994  0.7562 -0.9279 -0.3776
  228MOL0     C30708   9.599   8.194   6.031  0.6256  0.4172 -0.0221
  228MOL0     C30709   9.675   8.325   6.024 -0.5737  0.9165 -0.1380
  228MOL0     C30710   9.734   8.428   5.999  0.1553 -0.3174 -0.2443
  228MOL0     C30711   9.030   8.007   6.165 -0.0156  0.1758 -0.1014
  228MOL0     C30712   8.987   7.931   6.273  0.1351  0.5119  0.4121
  228MOL0     H30713   8.879   7.556   6.505 -2.5913 -0.4850 -1.3206
  228MOL0     H30714   8.772   7.409   6.657  3.5673  1.1172 -3.6164
  228MOL0     H30715   8.715   7.371   6.845 -0.0267 -0.7570 -1.2091
  228MOL0     H30716   8.654   7.433   7.002 -0.9050  0.7172 -0.4928
  228MOL0     H30717   8.455   7.274   6.929 -0.2546 -0.7979  0.0042
  228MOL0     H30718   8.561   7.209   6.806 -1.5382  1.2515  0.1579
  228MOL0     H30719   8.733   7.156   6.980 -1.3771 -1.0399 -2.2352
  228MOL0     H30720   8.610   7.175   7.107 -0.6991  4.1534  0.1132
  228MOL0     H30721   8.477   6.982   7.014 -0.2906 -1.2635 -1.9368
  228MOL0     H30722   8.581   6.962   6.873  0.9511 -0.0904 -0.2517
  228MOL0     H30723   8.645   6.938   7.179 -0.0974 -2.5866  1.2296
  228MOL0     H30724   8.598   6.793   7.093 -1.4235  0.6529  0.2713
  228MOL0     H30725   8.812   6.836   6.929  0.1568 -0.2940  0.8230
  228MOL0     H30726   8.848   6.966   7.024 -0.3235 -1.1284 -1.6708
  228MOL0     H30727   8.836   6.777   7.231  0.5594 -0.5345  0.7333
  228MOL0     H30728   8.831   6.675   7.098 -2.5714  0.1527  2.0758
  228MOL0     H30729   9.046   6.739   7.026 -0.6278  1.5033 -1.0014
  228MOL0     H30730   9.038   6.695   7.189 -3.5835 -0.0875 -0.1414
  228MOL0     H30731   8.964   6.974   7.317  0.6090  0.0618 -0.3665
  228MOL0     H30732   9.222   7.265   7.336 -0.5532 -1.5436 -2.8466
  228MOL0     H30733   9.053   7.250   7.354 -0.1850  0.5822  1.4557
  228MOL0     H30734   9.106   7.051   7.527  2.6855 -3.0940 -1.9766
  228MOL0     H30735   9.179   7.208   7.579  1.3560 -0.1900  1.8563
  228MOL0     H30736   9.390   7.142   7.449  1.8293 -0.5079  1.9928
  228MOL0     H30737   9.329   6.981   7.439 -2.3551 -0.1213 -0.6723
  228MOL0     H30738   9.328   7.113   7.723 -1.4371  0.0016 -2.0956
  228MOL0     H30739   9.481   7.052   7.641  0.9547 -0.4715  2.2199
  228MOL0     H30740   9.549   6.745   7.634  0.1633 -0.2289 -2.4570
  228MOL0     H30741   9.570   6.486   7.442 -2.5686  2.0767 -1.0262
  228MOL0     H30742   9.625   6.527   7.608 -1.2351 -1.8668  1.6738
  228MOL0     H30743   9.534   6.392   7.596 -0.7184  0.2810  0.6028
  228MOL0     H30744   9.487   6.126   7.565  0.0198 -2.4469 -0.4282
  228MOL0     H30745   9.430   5.872   7.573 -1.4162 -0.3861  0.8426
  228MOL0     H30746   9.342   5.716   7.319 -1.4545 -1.3029 -1.7147
  228MOL0     H30747   9.391   5.641   7.474 -0.5332  2.0389  0.0732
  228MOL0     H30748   9.136   5.576   7.343  0.9706  1.1562  3.2368
  228MOL0     H30749   9.297   5.501   7.285 -2.8776  0.5889 -3.6398
  228MOL0     H30750   9.126   5.465   7.523  1.4573  3.9255  1.5526
  228MOL0     H30751   9.287   5.493   7.575 -0.1145 -0.1350  1.3491
  228MOL0     H30752   9.200   5.274   7.364 -1.7260 -3.2110  1.7633
  228MOL0     H30753   9.367   5.311   7.396 -2.3467 -2.0817 -5.1127
  228MOL0     H30754   9.183   5.228   7.632  0.1017 -2.6958 -1.1205
  228MOL0     H30755   9.356   5.238   7.632  1.5173 -2.2578  0.1933
  228MOL0     H30756   9.344   5.064   7.443  1.6948  0.9216  0.7363
  228MOL0     H30757   9.349   5.027   7.608  0.7090 -1.3765 -1.1904
  228MOL0     H30758   9.120   5.006   7.405 -1.9656  1.9531 -0.6765
  228MOL0     H30759   9.068   5.022   7.572 -0.1890 -3.1357  0.4473
  228MOL0     H30760   9.062   4.807   7.551 -0.7539  0.5483 -1.4543
  228MOL0     H30761   9.219   4.811   7.624 -1.8994 -1.7135 -0.6226
  228MOL0     H30762   9.048   5.929   7.411  0.9043 -0.7974  1.0179
  228MOL0     H30763   9.111   6.183   7.365 -2.7520 -0.0109  1.3912
  228MOL0     H30764   9.095   6.594   7.531  0.3568 -1.1904  0.0542
  228MOL0     H30765   9.114   6.818   7.621 -0.5276 -0.4538 -0.8210
  228MOL0     H30766   8.535   7.726   6.810  0.5521 -1.9058  2.1648
  228MOL0     H30767   8.637   7.876   6.656 -0.3873  0.4009 -0.2517
  228MOL0     H30768   9.169   8.056   6.525 -1.8282 -4.1201  1.2412
  228MOL0     H30769   9.253   8.185   6.342  0.7789 -2.0311  0.2142
  228MOL0     H30770   9.220   8.359   6.024  1.6983 -2.0963 -0.8306
  228MOL0     H30771   9.213   8.346   6.195  0.8481 -1.0862  1.5647
  228MOL0     H30772   9.410   8.206   6.211  0.5331 -0.1245  0.4461
  228MOL0     H30773   9.430   8.365   6.133 -3.1963  1.5810 -0.5604
  228MOL0     H30774   9.431   8.279   5.913  1.3635  0.2247  0.4152
  228MOL0     H30775   9.402   8.116   5.967  0.3856 -0.3998 -1.5830
  228MOL0     H30776   9.650   8.143   5.949 -1.3074  4.1750 -3.9823
  228MOL0     H30777   9.608   8.147   6.130 -1.2420  1.6508  0.7881
  228MOL0     H30778   9.778   8.521   5.968 -0.3388  0.2343  0.6598
  228MOL0     H30779   8.992   7.987   6.065  0.0629 -3.0009  0.3742
  228MOL0     H30780   8.916   7.854   6.246 -0.3907  1.2501 -0.3540
  229MOL0     O30781  10.368   3.242   1.774  0.8810  0.6775 -0.2033
  229MOL0     C30782  10.313   3.206   1.882  0.0307  0.1426 -0.6350
  229MOL0     O30783  10.344   3.098   1.960  0.5028  0.6717 -0.2722
  229MOL0     C30784  10.413   2.994   1.909 -0.5615  0.1805 -0.6224
  229MOL0     C30785  10.404   2.947   1.778 -0.3582 -0.3430 -0.6437
  229MOL0     C30786  10.457   2.825   1.746  0.0701  0.1163 -0.2677
  229MOL0     C30787  10.532   2.754   1.833  0.3793  0.2077  0.6875
  229MOL0     O30788  10.576   2.629   1.811  0.1429 -0.3469 -0.0638
  229MOL0     C30789  10.526   2.553   1.702 -0.6777  0.6061 -0.1442
  229MOL0     C30790  10.586   2.419   1.697 -1.1751  0.2324 -0.1271
  229MOL0     C30791  10.557   2.326   1.571  0.0928 -0.0376 -0.5925
  229MOL0     C30792  10.636   2.190   1.577  0.7032 -0.7669 -0.2212
  229MOL0     C30793  10.597   2.095   1.470  0.1264  0.0690  0.3021
  229MOL0     C30794  10.677   2.097   1.340 -0.0215 -0.5158 -0.2834
  229MOL0     C30795  10.826   2.077   1.370  0.0072  0.0207  0.3647
  229MOL0     C30796  10.899   2.014   1.241 -0.0652 -0.1069  0.2362
  229MOL0     N30797  11.037   2.000   1.287 -0.5558 -0.2855  0.4398
  229MOL0     C30798  11.140   2.101   1.306 -0.3463  0.5774  0.8541
  229MOL0     C30799  11.246   2.038   1.355 -0.3768 -0.2625 -0.4431
  229MOL0     C30800  11.371   2.110   1.385  0.0945 -0.4983  0.7038
  229MOL0     C30801  11.431   2.150   1.241  0.6258 -0.0227  0.0647
  229MOL0     C30802  11.470   2.023   1.159  0.3572  0.2889 -0.3162
  229MOL0     C30803  11.532   2.052   1.018 -0.6278  0.5918  0.7800
  229MOL0     O30804  11.524   1.932   0.932  0.0112 -0.1808 -0.4543
  229MOL0     C30805  11.400   1.896   0.895  0.7613 -0.2709 -0.0048
  229MOL0     C30806  11.393   1.763   0.861  0.5870  0.0412  0.1585
  229MOL0     C30807  11.272   1.696   0.826 -1.5257  0.0398 -0.1212
  229MOL0     C30808  11.273   1.558   0.782  0.3588 -0.4566 -0.3802
  229MOL0     C30809  11.151   1.774   0.840 -0.9964  1.1769  0.5624
  229MOL0     C30810  11.010   1.720   0.811  0.2424  0.2446 -0.5020
  229MOL0     O30811  10.922   1.806   0.840 -0.1180 -0.2307  0.0046
  229MOL0     C30812  10.786   1.790   0.828 -0.7278  0.5033  0.4595
  229MOL0     C30813  10.717   1.732   0.935 -0.2667 -0.0126 -1.5085
  229MOL0     C30814  10.575   1.733   0.947 -0.0896  0.1801 -0.1554
  229MOL0     C30815  10.504   1.782   0.837  0.3145 -0.0683  0.8882
  229MOL0     O30816  10.370   1.797   0.838  0.1503 -0.5828  0.3126
  229MOL0     C30817  10.301   1.681   0.888  0.9382 -0.3496 -0.1934
  229MOL0     C30818  10.148   1.691   0.848 -0.2563 -0.2016  0.2849
  229MOL0     C30819  10.118   1.776   0.726 -0.0474  0.0855 -0.0765
  229MOL0     C30820   9.976   1.792   0.694 -0.0681 -0.1763 -0.0355
  229MOL0     C30821   9.916   1.665   0.644 -1.3848  0.1293  0.5281
  229MOL0     C30822   9.782   1.691   0.599 -0.1293 -0.7186  0.9869
  229MOL0     C30823   9.697   1.568   0.589  0.7062 -0.2657 -0.8480
  229MOL0     C30824   9.658   1.522   0.739 -0.1683  0.2485 -0.3900
  229MOL0    Cl30825   9.581   1.357   0.745  0.0251  0.0684 -0.1312
  229MOL0     C30826  10.580   1.847   0.737 -0.3588  0.5634  0.9493
  229MOL0     C30827  10.721   1.843   0.722 -0.4822 -0.5170 -0.2810
  229MOL0     O30828  10.986   1.612   0.755 -0.0579 -0.7753 -0.4495
  229MOL0     C30829  11.163   1.902   0.881  0.9296  0.0913 -0.2258
  229MOL0     C30830  11.283   1.971   0.910  0.4068  1.1070  0.2613
  229MOL0     N30831  11.218   1.902   1.372 -0.0065  0.2935 -0.3593
  229MOL0     N30832  11.099   1.880   1.326  0.9806 -0.4859 -0.4054
  229MOL0     C30833  10.532   2.793   1.973  0.0571  0.5491  1.0571
  229MOL0     C30834  10.476   2.916   2.014  0.8785  0.5270  0.9614
  229MOL0     C30835  10.203   3.292   1.920  0.7685  0.7176  0.2827
  229MOL0     C30836  10.114   3.270   2.035  0.5208 -0.2464 -0.0255
  229MOL0     C30837  10.024   3.366   2.081  0.0496 -0.0581 -0.3918
  229MOL0     C30838  10.018   3.493   2.016  0.0535 -0.5413 -0.1431
  229MOL0     O30839   9.935   3.595   2.068  0.0496  1.0004 -0.3695
  229MOL0     C30840   9.896   3.584   2.201 -0.2710  0.2591  1.0529
  229MOL0     C30841   9.998   3.609   2.307 -0.3327  1.1357 -0.1071
  229MOL0     C30842  10.098   3.716   2.263 -0.7717 -0.4604 -0.3905
  229MOL0     C30843  10.170   3.775   2.381 -0.1263 -0.4457 -0.3796
  229MOL0     C30844  10.243   3.899   2.347  0.3326 -0.5459 -0.5103
  229MOL0     C30845  10.311   4.002   2.324 -1.8762  0.6739  0.1020
  229MOL0     C30846  10.095   3.513   1.894  0.0107  0.0192  0.0122
  229MOL0     C30847  10.166   3.406   1.845  0.2102 -0.2537  0.0459
  229MOL0     H30848  10.362   3.000   1.692  4.1905  2.0035 -1.7413
  229MOL0     H30849  10.435   2.787   1.646  2.7347  3.0579 -2.1714
  229MOL0     H30850  10.417   2.541   1.707 -0.5178 -1.5804 -0.8568
  229MOL0     H30851  10.555   2.591   1.604  1.0607  3.3953  1.3067
  229MOL0     H30852  10.693   2.431   1.717 -1.4230  2.0570  0.2592
  229MOL0     H30853  10.542   2.369   1.784  2.0283  1.6276  2.5051
  229MOL0     H30854  10.450   2.306   1.558 -0.0256 -0.9838  1.4668
  229MOL0     H30855  10.582   2.385   1.483 -4.1332  2.6836 -0.2788
  229MOL0     H30856  10.745   2.201   1.582  0.9204 -2.5154 -0.5868
  229MOL0     H30857  10.617   2.159   1.679  2.5906  0.5788  0.6101
  229MOL0     H30858  10.614   1.994   1.509  3.2830  0.0318 -0.8731
  229MOL0     H30859  10.490   2.103   1.446 -0.1266 -0.5629  1.1457
  229MOL0     H30860  10.635   2.016   1.278  0.4777 -0.5712 -0.5559
  229MOL0     H30861  10.658   2.189   1.285 -2.8469 -0.3804  0.7847
  229MOL0     H30862  10.875   2.167   1.409 -3.2695  1.4840  1.4293
  229MOL0     H30863  10.832   2.001   1.448  1.3671  0.5319  0.7807
  229MOL0     H30864  10.894   2.072   1.149 -2.2799 -1.3165 -0.4783
  229MOL0     H30865  10.861   1.919   1.203 -0.8664  0.3534 -0.1443
  229MOL0     H30866  11.124   2.203   1.275  2.4925  2.0298  3.5673
  229MOL0     H30867  11.352   2.197   1.450  2.5619  0.3251  0.4407
  229MOL0     H30868  11.443   2.044   1.434  0.4893  0.1688  1.0363
  229MOL0     H30869  11.516   2.217   1.253 -1.8494  3.2390  0.8736
  229MOL0     H30870  11.366   2.217   1.184  1.7598  1.1455  0.0980
  229MOL0     H30871  11.372   1.980   1.138 -0.6361  0.4045  3.3538
  229MOL0     H30872  11.529   1.963   1.230  0.2876  3.7495  2.9939
  229MOL0     H30873  11.637   2.078   1.039 -0.3703 -0.5177  0.9646
  229MOL0     H30874  11.488   2.133   0.959  1.1872  0.4030 -0.9616
  229MOL0     H30875  11.482   1.705   0.838  1.1744  1.8257 -2.6026
  229MOL0     H30876  11.195   1.536   0.708  0.1015 -0.1745 -0.1957
  229MOL0     H30877  11.375   1.542   0.747  1.1011 -2.7854  2.4342
  229MOL0     H30878  11.264   1.479   0.858  4.7069 -0.2001  0.6282
  229MOL0     H30879  10.779   1.697   1.018  0.4123  1.2330 -1.4604
  229MOL0     H30880  10.529   1.695   1.037  0.8997 -3.1082 -0.8991
  229MOL0     H30881  10.344   1.593   0.838  2.8651  0.1627  0.4519
  229MOL0     H30882  10.306   1.662   0.995  2.1458  2.8096  0.4176
  229MOL0     H30883  10.101   1.596   0.822 -1.3817  0.2196  0.7373
  229MOL0     H30884  10.093   1.733   0.932 -1.4774 -0.3750 -0.4102
  229MOL0     H30885  10.177   1.739   0.641  1.7176  0.7467  0.8108
  229MOL0     H30886  10.152   1.879   0.746 -0.3375  0.2178 -0.2678
  229MOL0     H30887   9.934   1.833   0.786 -0.6933 -3.9191  1.5300
  229MOL0     H30888   9.948   1.872   0.624 -2.6743  0.4944  1.6319
  229MOL0     H30889   9.926   1.591   0.724  2.6858  2.2405  2.2295
  229MOL0     H30890   9.972   1.623   0.560  1.1170  0.0124  2.1765
  229MOL0     H30891   9.738   1.770   0.661  0.2805 -0.7024  1.2576
  229MOL0     H30892   9.797   1.728   0.497  0.7731  2.2861  2.0981
  229MOL0     H30893   9.739   1.487   0.529  1.8913 -0.7830  0.6455
  229MOL0     H30894   9.601   1.595   0.543  0.6526  2.2295  0.5426
  229MOL0     H30895   9.594   1.602   0.776  1.3915  2.5328 -2.3233
  229MOL0     H30896   9.745   1.511   0.803 -1.9400 -0.0380  2.1196
  229MOL0     H30897  10.527   1.903   0.660  2.4177 -0.1366 -1.6794
  229MOL0     H30898  10.778   1.874   0.635 -0.7391 -0.0898 -0.3025
  229MOL0     H30899  11.072   1.959   0.886 -2.3261 -4.5196 -0.3231
  229MOL0     H30900  11.284   2.073   0.948  0.6551  0.7620  1.1988
  229MOL0     H30901  10.577   2.722   2.042 -1.5417 -2.0559 -0.3858
  229MOL0     H30902  10.476   2.957   2.114  2.0348  1.4165  0.6128
  229MOL0     H30903  10.124   3.177   2.090 -0.2667 -0.8726 -0.8993
  229MOL0     H30904   9.948   3.347   2.156 -1.7660  5.3609 -0.3962
  229MOL0     H30905   9.828   3.669   2.206 -1.4809 -0.7105  1.6530
  229MOL0     H30906   9.842   3.491   2.224  1.4907 -0.8309  1.0262
  229MOL0     H30907  10.046   3.517   2.343  0.3556  0.5880 -2.3116
  229MOL0     H30908   9.939   3.655   2.387  1.1995  0.9906  1.1436
  229MOL0     H30909  10.038   3.793   2.214  1.3658  1.2868 -0.4237
  229MOL0     H30910  10.167   3.672   2.191  1.1781 -0.2133  1.2360
  229MOL0     H30911  10.242   3.706   2.426  0.4303  1.8448  2.5973
  229MOL0     H30912  10.085   3.798   2.446 -1.0737 -0.1832 -1.6728
  229MOL0     H30913  10.378   4.086   2.328 -2.7559  1.3807  3.3008
  229MOL0     H30914  10.070   3.608   1.849 -0.1285 -0.4684 -0.9788
  229MOL0     H30915  10.202   3.423   1.744  2.1851  2.0886  1.0396
  230MOL0     O30916   2.395   0.870   5.217  0.6219 -0.2721  0.0294
  230MOL0     C30917   2.462   0.919   5.134 -0.4006  0.5274  0.2210
  230MOL0     O30918   2.582   0.867   5.088  0.1988 -0.7266  0.1774
  230MOL0     C30919   2.642   0.765   5.156  0.3092 -0.3513 -1.3444
  230MOL0     C30920   2.652   0.652   5.084 -1.4211 -0.2376  0.5033
  230MOL0     C30921   2.715   0.542   5.152  0.4384 -0.0164 -0.2348
  230MOL0     C30922   2.745   0.535   5.284 -0.1031 -0.1863 -0.1430
  230MOL0     O30923   2.812   0.421   5.323  0.3809 -0.3036 -0.1728
  230MOL0     C30924   2.930   0.451   5.401 -0.7550 -0.4317  0.9197
  230MOL0     C30925   2.988   0.324   5.468 -0.2071 -0.9466 -0.0545
  230MOL0     C30926   2.892   0.273   5.585 -0.1333  0.2049  1.1799
  230MOL0     C30927   2.957   0.145   5.640  0.1555  0.8472 -0.4461
  230MOL0     C30928   2.885   0.089   5.767  0.0655 -0.0768 -0.5417
  230MOL0     C30929   2.916  -0.058   5.792 -0.7261 -0.1520 -0.4717
  230MOL0     C30930   3.058  -0.096   5.759 -0.9406 -0.6618 -0.2772
  230MOL0     C30931   3.094  -0.238   5.805  0.0159  0.5538  0.3097
  230MOL0     N30932   3.164  -0.231   5.931 -0.0376 -0.0596 -0.0985
  230MOL0     C30933   3.112  -0.267   6.054 -0.1701  0.3125 -0.7869
  230MOL0     C30934   3.215  -0.231   6.145 -0.6303 -0.3641  0.2109
  230MOL0     C30935   3.206  -0.232   6.292  0.6084  0.3677 -0.5064
  230MOL0     C30936   3.097  -0.126   6.357 -0.1389 -0.5123 -0.0255
  230MOL0     C30937   3.129  -0.107   6.508  0.0253  0.5075 -0.5915
  230MOL0     C30938   3.166  -0.234   6.586  0.6124 -0.2052  0.1000
  230MOL0     O30939   3.078  -0.339   6.563 -0.2476 -0.1336 -0.2947
  230MOL0     C30940   3.099  -0.441   6.654 -1.1301  0.3922  0.2819
  230MOL0     C30941   3.181  -0.547   6.614 -0.7274 -0.7556  0.5188
  230MOL0     C30942   3.213  -0.654   6.701 -1.0346 -0.3564  0.3169
  230MOL0     C30943   3.293  -0.769   6.643  0.5898 -0.6050 -0.2978
  230MOL0     C30944   3.176  -0.646   6.837  0.6140  0.0441  0.8159
  230MOL0     C30945   3.217  -0.744   6.935  0.8866  0.8404  0.9697
  230MOL0     O30946   3.251  -0.875   6.902  1.0500  0.3237 -0.5274
  230MOL0     C30947   3.323  -0.961   6.980  0.0802 -0.1659  0.4642
  230MOL0     C30948   3.336  -1.092   6.926  0.2841  0.2130 -0.0465
  230MOL0     C30949   3.394  -1.196   6.996 -0.5150 -0.0585  0.2140
  230MOL0     C30950   3.453  -1.180   7.114  1.1739 -0.8466 -0.5919
  230MOL0     O30951   3.503  -1.288   7.175 -0.7569 -0.2682  0.1431
  230MOL0     C30952   3.453  -1.332   7.302 -0.8382  0.3717  0.1462
  230MOL0     C30953   3.564  -1.429   7.353 -0.0018  0.9575 -0.3955
  230MOL0     C30954   3.517  -1.485   7.488  0.1995  0.1081 -0.7233
  230MOL0     C30955   3.635  -1.554   7.559  0.6090 -0.8691  0.6655
  230MOL0     C30956   3.608  -1.595   7.700 -2.1039 -0.1768  0.6991
  230MOL0     C30957   3.593  -1.479   7.786  0.6251  0.2818  0.4359
  230MOL0     C30958   3.612  -1.507   7.937  0.3182  0.1893 -1.0328
  230MOL0     C30959   3.484  -1.530   8.007 -0.2293 -0.3287 -0.4458
  230MOL0    Cl30960   3.493  -1.546   8.174 -0.3350  0.1585  0.0389
  230MOL0     C30961   3.453  -1.053   7.161 -0.3433 -0.1771 -1.0613
  230MOL0     C30962   3.392  -0.936   7.097 -0.4514  0.7181 -0.6921
  230MOL0     O30963   3.202  -0.709   7.047 -0.3441  0.7650  0.1393
  230MOL0     C30964   3.089  -0.540   6.878  0.0178 -0.1051 -0.6616
  230MOL0     C30965   3.067  -0.434   6.792  0.5950  0.3640 -0.1935
  230MOL0     N30966   3.322  -0.181   6.079  0.3868 -0.5475  0.8761
  230MOL0     N30967   3.290  -0.194   5.956  0.0396 -0.7282 -0.3279
  230MOL0     C30968   2.715   0.652   5.362  0.0754  0.4423 -0.0312
  230MOL0     C30969   2.670   0.768   5.294  0.6374  0.3769  0.4586
  230MOL0     C30970   2.387   1.023   5.058 -0.0687 -0.8482 -0.3358
  230MOL0     C30971   2.447   1.065   4.948  0.5412  0.4476 -0.2778
  230MOL0     C30972   2.386   1.172   4.873  0.1713  0.3958 -0.5346
  230MOL0     C30973   2.259   1.229   4.911  0.3393  0.2956  0.4464
  230MOL0     O30974   2.205   1.328   4.828 -0.2604  0.7383 -0.0628
  230MOL0     C30975   2.064   1.363   4.850  0.4666  0.3373 -0.0561
  230MOL0     C30976   2.002   1.426   4.724 -0.0860  0.7720 -1.1918
  230MOL0     C30977   1.869   1.471   4.783  0.5355 -0.5397  0.7966
  230MOL0     C30978   1.753   1.509   4.680 -0.6522  1.2032 -0.4421
  230MOL0     C30979   1.820   1.603   4.584 -0.0332  0.5142 -0.6908
  230MOL0     C30980   1.894   1.680   4.526  0.3638 -0.5003  0.6083
  230MOL0     C30981   2.194   1.179   5.023 -0.7895  1.1586 -0.7380
  230MOL0     C30982   2.270   1.091   5.110  0.1503  0.1167  0.5779
  230MOL0     H30983   2.632   0.650   4.977  0.1271 -0.0555  0.1776
  230MOL0     H30984   2.739   0.453   5.095 -1.5237 -1.6168  1.3095
  230MOL0     H30985   3.007   0.490   5.334 -2.0690 -1.7457 -1.5072
  230MOL0     H30986   2.936   0.527   5.480 -2.0233  2.3318 -1.4334
  230MOL0     H30987   2.999   0.254   5.386 -4.7839 -1.9756 -0.0375
  230MOL0     H30988   3.086   0.350   5.510 -1.5096  1.2854  1.8518
  230MOL0     H30989   2.885   0.354   5.659  0.0587  1.8136 -0.4727
  230MOL0     H30990   2.790   0.259   5.548  1.1872  0.3536 -2.9908
  230MOL0     H30991   2.944   0.068   5.564 -0.0927  0.4024  0.0420
  230MOL0     H30992   3.060   0.171   5.666  0.2307  2.5638 -2.2478
  230MOL0     H30993   2.917   0.147   5.854 -0.9454 -1.5244  0.8646
  230MOL0     H30994   2.776   0.095   5.773 -0.0984 -3.0439  2.1354
  230MOL0     H30995   2.920  -0.058   5.902  0.6737 -0.2591 -0.4989
  230MOL0     H30996   2.834  -0.122   5.759 -0.5984 -0.2804 -0.5394
  230MOL0     H30997   3.088  -0.083   5.655  1.7735 -1.3384  0.3427
  230MOL0     H30998   3.128  -0.031   5.812  0.1814 -2.5098  0.5966
  230MOL0     H30999   3.157  -0.285   5.729  0.5557  2.1442 -0.2689
  230MOL0     H31000   3.003  -0.298   5.819  0.8229 -0.5836  0.8635
  230MOL0     H31001   3.008  -0.293   6.073 -0.0849  1.8355  2.4745
  230MOL0     H31002   3.164  -0.331   6.312 -1.2466  1.1719 -0.2960
  230MOL0     H31003   3.302  -0.219   6.344 -0.2484  2.8776  0.6043
  230MOL0     H31004   2.998  -0.172   6.348 -0.5990 -0.3097  3.0188
  230MOL0     H31005   3.096  -0.034   6.296  0.3278 -0.1825  0.4585
  230MOL0     H31006   3.045  -0.058   6.557  2.5634  3.8731  0.8293
  230MOL0     H31007   3.219  -0.045   6.510  0.6217 -0.3256  2.1432
  230MOL0     H31008   3.163  -0.212   6.693 -0.4321  4.2462 -0.6022
  230MOL0     H31009   3.268  -0.264   6.562  1.0389  2.7683 -2.5174
  230MOL0     H31010   3.220  -0.557   6.513  0.2220 -1.3458  0.9316
  230MOL0     H31011   3.288  -0.778   6.534 -2.3314 -2.6604 -0.1249
  230MOL0     H31012   3.394  -0.763   6.684  0.5316  0.8623 -0.3055
  230MOL0     H31013   3.243  -0.862   6.671 -0.0354  0.3783  2.2023
  230MOL0     H31014   3.273  -1.117   6.842  0.2388 -2.4197  0.6969
  230MOL0     H31015   3.389  -1.298   6.958  0.3512 -0.5797  1.4010
  230MOL0     H31016   3.432  -1.247   7.367  1.7167  0.4267  1.0404
  230MOL0     H31017   3.366  -1.397   7.290  0.0712 -1.1510  1.3874
  230MOL0     H31018   3.587  -1.506   7.279  0.8975 -1.2889  2.0881
  230MOL0     H31019   3.660  -1.376   7.357  0.6161  0.2893 -3.6449
  230MOL0     H31020   3.431  -1.552   7.481  0.9237 -0.7372 -1.7821
  230MOL0     H31021   3.485  -1.397   7.545  1.4259  0.6213 -0.7906
  230MOL0     H31022   3.666  -1.638   7.496  0.7898  0.0004 -0.4256
  230MOL0     H31023   3.715  -1.481   7.553  0.6860 -1.0377 -3.6874
  230MOL0     H31024   3.696  -1.654   7.726 -2.1090 -2.2007 -3.1623
  230MOL0     H31025   3.530  -1.669   7.722 -1.9165 -0.1979  1.3109
  230MOL0     H31026   3.668  -1.406   7.753 -0.7220  1.3691 -0.3224
  230MOL0     H31027   3.497  -1.432   7.762 -0.3267 -1.8472 -0.1610
  230MOL0     H31028   3.651  -1.421   7.991  2.6399 -0.4475 -1.6032
  230MOL0     H31029   3.678  -1.594   7.946  1.3437  1.1238  0.9770
  230MOL0     H31030   3.425  -1.618   7.978 -4.0931  0.8913  2.7861
  230MOL0     H31031   3.428  -1.438   7.993 -0.8336 -0.4173  1.1692
  230MOL0     H31032   3.500  -1.020   7.253 -0.0360  0.6703 -1.5121
  230MOL0     H31033   3.395  -0.846   7.157  2.0880 -0.5882  1.3223
  230MOL0     H31034   3.044  -0.541   6.977 -3.8051  0.9244 -2.2422
  230MOL0     H31035   2.989  -0.370   6.831  2.1451  2.1732  0.0992
  230MOL0     H31036   2.753   0.659   5.463  1.2169  1.4498 -0.5163
  230MOL0     H31037   2.646   0.857   5.350 -1.7544 -1.3593  2.4265
  230MOL0     H31038   2.545   1.032   4.916  1.7655  0.6081  2.9896
  230MOL0     H31039   2.435   1.207   4.783 -1.5090 -0.4840 -1.8468
  230MOL0     H31040   2.014   1.266   4.853  1.8172 -0.4019 -0.6563
  230MOL0     H31041   2.073   1.416   4.946 -1.8683 -0.4180  0.6458
  230MOL0     H31042   2.000   1.347   4.649  2.7267  0.7252 -1.3356
  230MOL0     H31043   2.050   1.518   4.689  2.4310  0.5342  1.2673
  230MOL0     H31044   1.898   1.564   4.833 -0.2273 -0.3225  0.8479
  230MOL0     H31045   1.823   1.393   4.845 -1.7886  1.2900  1.5040
  230MOL0     H31046   1.671   1.565   4.727 -0.8100  0.2933  0.4050
  230MOL0     H31047   1.716   1.418   4.631  1.8688  0.3859 -0.9702
  230MOL0     H31048   1.941   1.763   4.477  1.5359 -1.2295  0.4505
  230MOL0     H31049   2.096   1.215   5.052 -0.1371  2.2579  0.2256
  230MOL0     H31050   2.228   1.041   5.197 -0.6523  0.8474  0.6279
  231MOL0     O31051   6.678   6.181   5.453 -0.3459 -0.3507 -0.6476
  231MOL0     C31052   6.724   6.289   5.477  0.0803 -0.4460  0.0344
  231MOL0     O31053   6.857   6.316   5.494  0.0387  0.1689  0.3645
  231MOL0     C31054   6.940   6.207   5.509 -0.6731 -0.2957  0.0402
  231MOL0     C31055   7.064   6.217   5.447 -0.0074 -0.0623  0.0132
  231MOL0     C31056   7.168   6.124   5.462 -0.3205 -0.2352  0.4129
  231MOL0     C31057   7.142   6.012   5.534 -0.6139  0.7253  0.3074
  231MOL0     O31058   7.249   5.931   5.554 -0.0041 -0.6283  0.1840
  231MOL0     C31059   7.259   5.831   5.451 -0.1423 -0.5775 -0.7500
  231MOL0     C31060   7.358   5.721   5.472 -0.1929 -0.0284 -0.6272
  231MOL0     C31061   7.375   5.643   5.341  0.0524 -0.2497 -0.0710
  231MOL0     C31062   7.270   5.532   5.336 -0.5981  0.6430 -0.0856
  231MOL0     C31063   7.267   5.466   5.193  0.6429 -0.1852 -0.0112
  231MOL0     C31064   7.143   5.382   5.190 -0.0177  0.1945  0.0907
  231MOL0     C31065   7.144   5.252   5.272  0.5123 -0.6979 -0.4729
  231MOL0     C31066   7.023   5.162   5.260 -0.6711 -1.1953  0.4330
  231MOL0     N31067   7.013   5.049   5.353 -0.7178 -0.4714 -0.3183
  231MOL0     C31068   7.105   4.948   5.344  0.1864  0.1567 -0.0205
  231MOL0     C31069   7.075   4.866   5.450  0.7645  0.4034 -0.9067
  231MOL0     C31070   7.151   4.735   5.481 -0.3636 -0.7190 -1.2095
  231MOL0     C31071   7.117   4.613   5.393 -0.0815 -0.1379  0.2336
  231MOL0     C31072   7.022   4.505   5.453  0.6538 -0.3738  0.8920
  231MOL0     C31073   6.877   4.548   5.485 -0.2672 -0.3872  0.4165
  231MOL0     O31074   6.795   4.440   5.527 -0.2490  0.0100  0.0575
  231MOL0     C31075   6.691   4.465   5.604 -0.3568  0.8905 -0.7050
  231MOL0     C31076   6.644   4.583   5.655  0.5493  0.9757 -0.1839
  231MOL0     C31077   6.522   4.598   5.723 -0.4649 -1.0639 -0.3444
  231MOL0     C31078   6.473   4.736   5.773  0.4529  0.0186  0.0504
  231MOL0     C31079   6.438   4.480   5.741  0.5645 -0.1268  0.9583
  231MOL0     C31080   6.311   4.474   5.824  0.3534  0.6754 -0.7980
  231MOL0     O31081   6.256   4.343   5.827  0.0860  0.4650 -0.7315
  231MOL0     C31082   6.124   4.315   5.866  0.8119  0.1742 -0.7305
  231MOL0     C31083   6.103   4.188   5.928  1.1692 -1.0631 -0.3514
  231MOL0     C31084   5.977   4.147   5.967 -1.0385  0.1817  0.4809
  231MOL0     C31085   5.862   4.223   5.919  0.0734 -0.2581 -0.5874
  231MOL0     O31086   5.732   4.178   5.927  0.1565  0.2572  0.3377
  231MOL0     C31087   5.713   4.040   5.875  0.0913  0.1316 -0.1798
  231MOL0     C31088   5.566   3.993   5.839 -0.0159  0.1653 -0.2418
  231MOL0     C31089   5.522   4.052   5.707 -0.4929  0.2861  0.4305
  231MOL0     C31090   5.375   4.008   5.685 -0.8057  0.3382  0.0947
  231MOL0     C31091   5.327   4.056   5.541  0.7660 -0.7181 -0.1563
  231MOL0     C31092   5.222   3.954   5.491 -0.1600 -0.8078  0.6496
  231MOL0     C31093   5.187   3.983   5.349  0.1762 -0.2252  0.4456
  231MOL0     C31094   5.108   3.875   5.282  1.4758  0.2600  0.8405
  231MOL0    Cl31095   4.986   3.808   5.389  0.0953 -0.5391 -0.1945
  231MOL0     C31096   5.872   4.354   5.879 -0.5010  0.0720  0.2972
  231MOL0     C31097   6.006   4.391   5.845 -0.1207  0.0693  0.2859
  231MOL0     O31098   6.266   4.567   5.883  0.0960  0.1200 -0.9459
  231MOL0     C31099   6.487   4.360   5.686 -0.5244 -0.7878  0.2062
  231MOL0     C31100   6.612   4.357   5.611  0.1093 -0.3827 -0.9609
  231MOL0     N31101   6.949   4.906   5.524 -0.2396  0.5718  0.8452
  231MOL0     N31102   6.930   5.029   5.466  0.6926 -0.4524 -0.6159
  231MOL0     C31103   7.025   6.006   5.606  0.4689 -0.7138 -0.3185
  231MOL0     C31104   6.915   6.096   5.596 -0.5528  0.8981 -0.4288
  231MOL0     C31105   6.639   6.405   5.494 -0.8244 -0.4857 -0.1238
  231MOL0     C31106   6.513   6.387   5.547 -0.1569  0.3153  0.5254
  231MOL0     C31107   6.426   6.492   5.563  0.1167  0.0572  0.6239
  231MOL0     C31108   6.467   6.627   5.540 -0.1874 -0.5755  0.3940
  231MOL0     O31109   6.381   6.741   5.571  0.3697  0.2133  0.1054
  231MOL0     C31110   6.333   6.803   5.450  0.3439 -0.8718  0.6261
  231MOL0     C31111   6.217   6.896   5.487 -1.2170 -0.7471 -0.6707
  231MOL0     C31112   6.266   7.010   5.580 -0.1973 -0.5028  0.7030
  231MOL0     C31113   6.171   7.139   5.580 -0.9151  0.3923  0.2012
  231MOL0     C31114   6.204   7.233   5.689 -0.3006  0.0490  0.4445
  231MOL0     C31115   6.225   7.316   5.767  0.1663  0.3080 -0.4500
  231MOL0     C31116   6.603   6.650   5.500 -0.6961  0.8102 -0.5085
  231MOL0     C31117   6.689   6.535   5.485 -0.9238 -0.5297 -0.0078
  231MOL0     H31118   7.071   6.289   5.367  2.2707 -2.1864 -1.8612
  231MOL0     H31119   7.262   6.139   5.409  0.1474 -0.9783  1.0027
  231MOL0     H31120   7.160   5.785   5.445  0.1134 -1.4086  0.8672
  231MOL0     H31121   7.275   5.876   5.352 -1.5346  1.2875 -0.1864
  231MOL0     H31122   7.451   5.777   5.480  0.0989 -0.6425  0.5320
  231MOL0     H31123   7.327   5.658   5.556  0.0292  0.2345 -0.3436
  231MOL0     H31124   7.351   5.715   5.262  1.8824  1.5329  0.9047
  231MOL0     H31125   7.478   5.608   5.339  1.2203  2.9107 -0.8955
  231MOL0     H31126   7.303   5.451   5.402  1.8782 -1.2632 -3.3136
  231MOL0     H31127   7.174   5.567   5.373 -0.1257  3.1639 -1.0643
  231MOL0     H31128   7.263   5.541   5.114 -3.7246  0.0605  0.1940
  231MOL0     H31129   7.355   5.402   5.177  0.9031 -0.0507  0.8260
  231MOL0     H31130   7.055   5.438   5.222  0.7912  1.6864 -0.2151
  231MOL0     H31131   7.127   5.343   5.088 -0.9351 -2.3222  1.0962
  231MOL0     H31132   7.225   5.194   5.226  3.7725  1.4714  2.1480
  231MOL0     H31133   7.168   5.268   5.377  3.4473 -0.5355 -1.0867
  231MOL0     H31134   7.014   5.138   5.153 -0.9606  2.7320 -0.5960
  231MOL0     H31135   6.931   5.217   5.282 -0.1773 -0.1601 -0.0146
  231MOL0     H31136   7.180   4.929   5.268 -0.4743 -3.1854 -0.0081
  231MOL0     H31137   7.256   4.763   5.469  0.7604 -4.2483 -0.9579
  231MOL0     H31138   7.132   4.719   5.588  0.0285 -1.6829 -1.2702
  231MOL0     H31139   7.213   4.569   5.366  0.9675  0.2133  3.0649
  231MOL0     H31140   7.063   4.652   5.305  2.7206  0.7958 -1.1846
  231MOL0     H31141   7.077   4.449   5.530  2.6720  0.1413 -0.0940
  231MOL0     H31142   7.005   4.450   5.361 -0.9539  0.4118  0.6857
  231MOL0     H31143   6.841   4.595   5.394  2.6519  0.5425 -0.3603
  231MOL0     H31144   6.889   4.625   5.562  1.7514  0.0569 -0.2586
  231MOL0     H31145   6.714   4.666   5.649  1.3828  0.2881 -0.1806
  231MOL0     H31146   6.402   4.776   5.700  1.8266 -1.5116 -2.2600
  231MOL0     H31147   6.439   4.728   5.877  1.7001  2.6858  0.7532
  231MOL0     H31148   6.549   4.812   5.751  0.0080 -0.3285 -3.2476
  231MOL0     H31149   6.191   4.135   5.960  3.1629  2.7474  1.1432
  231MOL0     H31150   5.964   4.057   6.027  1.1861 -0.4146  0.1416
  231MOL0     H31151   5.760   4.029   5.776 -2.4646 -0.8629 -1.3903
  231MOL0     H31152   5.749   3.965   5.946 -1.1694 -0.6955 -0.3731
  231MOL0     H31153   5.569   3.883   5.835 -0.7352  0.1317 -0.0911
  231MOL0     H31154   5.494   4.017   5.917 -1.3910  2.0082 -1.9867
  231MOL0     H31155   5.582   4.007   5.627 -2.8123 -1.1607 -0.6030
  231MOL0     H31156   5.537   4.160   5.720  1.5254  0.1853 -0.7295
  231MOL0     H31157   5.358   3.900   5.689  1.5509 -0.1693 -1.2454
  231MOL0     H31158   5.320   4.064   5.761  3.4468  3.2741  1.4340
  231MOL0     H31159   5.412   4.049   5.474  1.0232 -2.8604  0.3285
  231MOL0     H31160   5.296   4.161   5.545  2.9902  0.0229 -1.3293
  231MOL0     H31161   5.269   3.856   5.500  0.4569 -0.6098 -0.3027
  231MOL0     H31162   5.135   3.959   5.558  1.1952  0.3319  2.4531
  231MOL0     H31163   5.281   3.991   5.294  0.9663  2.0233  1.9958
  231MOL0     H31164   5.134   4.078   5.362  2.1666  2.0211 -4.9121
  231MOL0     H31165   5.166   3.798   5.230  0.2812  1.0232 -1.8061
  231MOL0     H31166   5.072   3.931   5.195 -0.3434 -2.2319 -0.1605
  231MOL0     H31167   5.783   4.408   5.853 -3.5293 -3.8595  1.4862
  231MOL0     H31168   6.023   4.491   5.806  2.2393  0.0468  1.0908
  231MOL0     H31169   6.432   4.267   5.690 -2.4762  0.2660 -0.4948
  231MOL0     H31170   6.641   4.259   5.574 -1.7005 -1.7299  0.9131
  231MOL0     H31171   7.022   5.931   5.684  1.8963  0.7622  1.2632
  231MOL0     H31172   6.825   6.096   5.656  0.9906  5.5864  2.4637
  231MOL0     H31173   6.481   6.290   5.585 -0.6616  0.4284  0.3957
  231MOL0     H31174   6.331   6.447   5.593  0.4433 -1.6914 -0.7404
  231MOL0     H31175   6.412   6.855   5.395 -0.3251 -0.6621 -0.1463
  231MOL0     H31176   6.289   6.728   5.384 -1.7469  0.1288  0.8126
  231MOL0     H31177   6.138   6.840   5.537 -3.0691  3.8622  2.2652
  231MOL0     H31178   6.173   6.934   5.395  2.1407 -2.5637 -3.2421
  231MOL0     H31179   6.361   7.046   5.539 -0.7761  0.8196  0.4582
  231MOL0     H31180   6.284   6.984   5.685  0.9878  2.4993  1.3549
  231MOL0     H31181   6.063   7.122   5.581 -0.5854 -1.9751  1.3222
  231MOL0     H31182   6.187   7.193   5.486  1.5171 -2.4280 -1.1889
  231MOL0     H31183   6.240   7.390   5.844 -3.1818 -0.4444  1.1222
  231MOL0     H31184   6.639   6.752   5.505 -0.1040  0.5663  2.2626
  231MOL0     H31185   6.793   6.563   5.470 -0.7742 -2.2209 -3.0207
  232MOL0     O31186  11.084   6.214   5.468 -1.0593 -0.2213  0.7356
  232MOL0     C31187  11.080   6.317   5.529  0.3117 -0.5597  0.3435
  232MOL0     O31188  10.978   6.410   5.538  0.3369 -0.9219  0.0782
  232MOL0     C31189  10.888   6.412   5.436 -0.1527 -0.5480 -0.6012
  232MOL0     C31190  10.751   6.421   5.474 -1.1399  0.0896  0.2388
  232MOL0     C31191  10.661   6.403   5.378 -0.6972  0.0477  0.2530
  232MOL0     C31192  10.690   6.377   5.244  0.9535  0.7886  0.4078
  232MOL0     O31193  10.579   6.375   5.150 -0.5047  0.4626 -0.3127
  232MOL0     C31194  10.600   6.309   5.024 -0.5217 -0.6463  0.6681
  232MOL0     C31195  10.524   6.401   4.922 -0.6338  1.0778  0.3035
  232MOL0     C31196  10.500   6.335   4.783 -0.5600 -0.1571 -0.6372
  232MOL0     C31197  10.439   6.427   4.673  0.3343 -0.3314  0.3648
  232MOL0     C31198  10.449   6.374   4.526  0.1159 -0.5248  0.3104
  232MOL0     C31199  10.431   6.489   4.430  0.0119 -0.8637 -0.3594
  232MOL0     C31200  10.442   6.429   4.295  0.4260 -0.3198  0.0975
  232MOL0     C31201  10.489   6.534   4.191 -0.7219 -0.2751 -0.9960
  232MOL0     N31202  10.397   6.640   4.173 -0.0446  0.0455 -0.0184
  232MOL0     C31203  10.264   6.609   4.140  0.2106  0.1168 -0.3013
  232MOL0     C31204  10.186   6.706   4.190  0.2816  0.7196 -0.4406
  232MOL0     C31205  10.032   6.704   4.182  0.1665  0.0635 -0.7457
  232MOL0     C31206   9.953   6.672   4.045  0.1120  0.2260 -0.6121
  232MOL0     C31207   9.807   6.638   4.092 -0.3840 -0.6787 -0.2121
  232MOL0     C31208   9.732   6.743   4.163  0.2399  0.1132  0.8797
  232MOL0     O31209   9.598   6.704   4.181  0.4607 -0.3288  0.5138
  232MOL0     C31210   9.530   6.788   4.258 -0.5239  0.9058 -0.2497
  232MOL0     C31211   9.444   6.725   4.348 -0.2033 -1.5240 -0.6348
  232MOL0     C31212   9.367   6.808   4.437  0.1477  0.4617 -0.0179
  232MOL0     C31213   9.263   6.741   4.521 -0.6756 -0.7497 -0.6541
  232MOL0     C31214   9.380   6.954   4.446 -0.4539  0.4231 -0.3938
  232MOL0     C31215   9.299   7.044   4.538 -0.4577 -0.1683 -0.9106
  232MOL0     O31216   9.183   6.999   4.593 -0.7037 -0.2408  0.3095
  232MOL0     C31217   9.075   7.073   4.635  0.0368  0.0019  0.7981
  232MOL0     C31218   9.076   7.212   4.625 -0.4083  0.3177  0.1644
  232MOL0     C31219   8.972   7.286   4.667  0.0188 -0.5347 -0.2430
  232MOL0     C31220   8.853   7.222   4.706 -0.4125  0.3672 -0.2754
  232MOL0     O31221   8.742   7.305   4.718 -0.6926 -0.0807 -0.4643
  232MOL0     C31222   8.609   7.266   4.743  0.1531  0.7035 -0.9586
  232MOL0     C31223   8.572   7.240   4.893 -0.7350 -0.6752 -0.3370
  232MOL0     C31224   8.415   7.219   4.900  0.2030  0.2477 -1.6323
  232MOL0     C31225   8.377   7.091   4.984 -0.2150  0.7426  0.0541
  232MOL0     C31226   8.365   6.966   4.902 -0.0261 -0.0809 -0.0055
  232MOL0     C31227   8.345   6.844   4.985  0.0722 -1.2291 -1.1501
  232MOL0     C31228   8.468   6.824   5.074 -0.1702 -0.3715  1.2141
  232MOL0     C31229   8.485   6.678   5.127 -0.0791 -0.2415 -0.6159
  232MOL0    Cl31230   8.633   6.697   5.239 -0.2836 -0.2977 -0.6044
  232MOL0     C31231   8.849   7.077   4.718  0.1029 -0.3050  1.8326
  232MOL0     C31232   8.961   7.009   4.672  0.2023  0.3701  0.6909
  232MOL0     O31233   9.360   7.148   4.571  0.4678  0.2670  0.0253
  232MOL0     C31234   9.481   7.002   4.360  0.1471  0.0718  0.0852
  232MOL0     C31235   9.544   6.927   4.260 -0.0871 -0.5173  0.3464
  232MOL0     N31236  10.276   6.795   4.249 -0.8479  0.0079 -0.1796
  232MOL0     N31237  10.396   6.739   4.258  1.2061 -0.3979  0.2648
  232MOL0     C31238  10.825   6.374   5.208  0.9445 -0.8598 -0.5483
  232MOL0     C31239  10.921   6.389   5.305 -0.0375  0.0078 -0.1270
  232MOL0     C31240  11.203   6.342   5.620 -0.8134  0.3805 -0.0032
  232MOL0     C31241  11.218   6.456   5.690 -0.7377 -0.1261 -0.1138
  232MOL0     C31242  11.323   6.473   5.783  1.1317  0.9384 -0.0672
  232MOL0     C31243  11.418   6.376   5.810  0.2296  0.2292 -0.0728
  232MOL0     O31244  11.503   6.410   5.913 -0.7944  0.3711  0.0677
  232MOL0     C31245  11.573   6.307   5.985  0.4792  0.1786 -0.3750
  232MOL0     C31246  11.668   6.361   6.095  0.4296  0.1195  0.8144
  232MOL0     C31247  11.583   6.395   6.222  0.1240  0.7193  1.1024
  232MOL0     C31248  11.654   6.457   6.340 -0.1201  1.1327  0.1835
  232MOL0     C31249  11.702   6.593   6.334  0.1112 -0.5296  0.6930
  232MOL0     C31250  11.747   6.715   6.322  0.1256  0.2889  0.1541
  232MOL0     C31251  11.417   6.254   5.732 -0.3427 -1.2939 -0.7820
  232MOL0     C31252  11.311   6.243   5.637  1.2189 -0.1220 -0.3590
  232MOL0     H31253  10.731   6.430   5.580 -0.0688  1.1526  0.3645
  232MOL0     H31254  10.554   6.395   5.397 -1.4186 -0.3728 -3.2660
  232MOL0     H31255  10.704   6.326   4.992 -0.1284  0.0596  2.2351
  232MOL0     H31256  10.566   6.207   5.005 -0.6160 -0.2843 -1.3157
  232MOL0     H31257  10.423   6.418   4.960 -1.6345  1.8980 -2.5233
  232MOL0     H31258  10.574   6.498   4.915 -0.5181  0.9880 -0.1541
  232MOL0     H31259  10.596   6.302   4.742 -1.9542 -1.3368 -3.1843
  232MOL0     H31260  10.436   6.247   4.794  0.7647 -1.3489 -1.8819
  232MOL0     H31261  10.334   6.440   4.701 -0.2017 -1.8529 -0.8221
  232MOL0     H31262  10.484   6.527   4.679 -2.3558  0.9442  1.3357
  232MOL0     H31263  10.549   6.333   4.511  2.7031  3.7877  3.2990
  232MOL0     H31264  10.368   6.301   4.514 -1.2214 -0.1142  4.7948
  232MOL0     H31265  10.331   6.532   4.443  1.2233  1.8299  0.8418
  232MOL0     H31266  10.504   6.566   4.456 -0.1771 -0.5812 -0.6579
  232MOL0     H31267  10.510   6.343   4.286  1.6621  0.8124 -3.0759
  232MOL0     H31268  10.346   6.401   4.252  0.8733  1.3644 -2.1822
  232MOL0     H31269  10.514   6.495   4.092  0.7761  1.9058 -1.5685
  232MOL0     H31270  10.584   6.571   4.231 -0.8968 -0.4000 -0.4604
  232MOL0     H31271  10.234   6.516   4.093  1.1840 -2.3968  3.5959
  232MOL0     H31272  10.001   6.635   4.261  1.5376  2.1429  1.7928
  232MOL0     H31273   9.996   6.806   4.203 -0.6287  0.1355 -2.3201
  232MOL0     H31274  10.000   6.589   3.992  1.1175  2.0779 -2.8152
  232MOL0     H31275   9.956   6.753   3.971 -1.8219  0.6239 -0.2895
  232MOL0     H31276   9.804   6.554   4.162 -0.4596 -0.2347  0.3200
  232MOL0     H31277   9.749   6.604   4.005  0.2444 -1.3220 -0.3971
  232MOL0     H31278   9.733   6.835   4.103 -1.8257  1.1915  2.3350
  232MOL0     H31279   9.787   6.771   4.254  0.3621 -1.3145  1.2711
  232MOL0     H31280   9.428   6.618   4.345  0.7620 -1.6504 -2.6916
  232MOL0     H31281   9.159   6.757   4.491 -0.7481  0.6589  0.2532
  232MOL0     H31282   9.285   6.634   4.513 -0.7998 -0.6419 -3.9961
  232MOL0     H31283   9.272   6.772   4.625 -0.0669 -1.8583 -0.3621
  232MOL0     H31284   9.166   7.257   4.584 -0.3242 -1.2635 -1.5187
  232MOL0     H31285   8.985   7.393   4.664  2.5023 -0.7593  0.1033
  232MOL0     H31286   8.541   7.335   4.693 -3.1553 -1.4289  0.2172
  232MOL0     H31287   8.592   7.172   4.690 -0.7284 -2.1964  3.8417
  232MOL0     H31288   8.637   7.158   4.926  0.3305  1.0656  2.1767
  232MOL0     H31289   8.593   7.336   4.941 -3.0737 -1.1695  1.9311
  232MOL0     H31290   8.381   7.199   4.798 -1.0323 -1.7728 -0.8983
  232MOL0     H31291   8.361   7.308   4.933 -1.3053  0.1837 -3.7216
  232MOL0     H31292   8.462   7.090   5.052  1.5866  1.8274 -2.0712
  232MOL0     H31293   8.280   7.096   5.034  0.0743 -2.1779  1.1275
  232MOL0     H31294   8.455   6.960   4.841 -0.7902  1.1842 -1.3593
  232MOL0     H31295   8.285   6.978   4.827  1.6286  0.9928 -1.6927
  232MOL0     H31296   8.253   6.857   5.043  1.1275 -1.3883  0.6565
  232MOL0     H31297   8.325   6.763   4.914 -1.7722  1.1990 -3.6114
  232MOL0     H31298   8.472   6.895   5.157 -2.3866 -0.2978  1.3408
  232MOL0     H31299   8.554   6.848   5.011 -2.0155  3.2353 -0.1959
  232MOL0     H31300   8.515   6.607   5.049 -0.9281  0.0832 -1.2398
  232MOL0     H31301   8.401   6.644   5.189 -0.3523  3.6397  1.4355
  232MOL0     H31302   8.763   7.018   4.747 -0.4025  0.4343  1.8796
  232MOL0     H31303   8.964   6.900   4.677  1.1352  0.4391  2.2574
  232MOL0     H31304   9.506   7.107   4.350  3.6188 -0.6908 -0.4226
  232MOL0     H31305   9.592   6.996   4.191 -1.2158  1.0124  1.0312
  232MOL0     H31306  10.860   6.353   5.107  2.8903 -1.0720  0.1300
  232MOL0     H31307  11.027   6.380   5.282 -0.5243 -0.3281 -2.4269
  232MOL0     H31308  11.152   6.542   5.690  0.1881  0.6770  2.4485
  232MOL0     H31309  11.325   6.568   5.835 -0.3978  0.0022  1.8176
  232MOL0     H31310  11.515   6.221   6.021 -0.9885  2.0196  1.9092
  232MOL0     H31311  11.648   6.262   5.919  2.5799  0.6310  1.5725
  232MOL0     H31312  11.723   6.443   6.048 -2.1724  1.7520  0.3728
  232MOL0     H31313  11.743   6.285   6.119  1.0650  0.5578  0.2623
  232MOL0     H31314  11.538   6.301   6.254  4.1865 -0.6495  3.5132
  232MOL0     H31315  11.508   6.467   6.188  0.8975  0.4261 -1.4212
  232MOL0     H31316  11.729   6.383   6.368  0.2562  1.5725  0.3456
  232MOL0     H31317  11.583   6.452   6.424 -1.2607 -0.9963 -0.8278
  232MOL0     H31318  11.789   6.813   6.321 -1.3682  0.9602  0.0551
  232MOL0     H31319  11.483   6.177   5.770  0.3162  0.8523  2.9842
  232MOL0     H31320  11.299   6.147   5.588  1.2452  1.1495 -3.0329
  233MOL0     O31321   6.480   2.563  10.893  0.7357  1.0324  0.4299
  233MOL0     C31322   6.514   2.667  10.947  0.4274  0.0935 -0.3962
  233MOL0     O31323   6.420   2.758  10.992 -0.8120 -0.7565 -0.1794
  233MOL0     C31324   6.322   2.718  11.079  0.9621 -0.1401  0.4125
  233MOL0     C31325   6.239   2.821  11.131 -0.9056  0.1327 -1.3102
  233MOL0     C31326   6.126   2.780  11.211  0.4531 -0.5214  0.3290
  233MOL0     C31327   6.104   2.644  11.255 -0.2713 -0.2844 -0.2515
  233MOL0     O31328   5.991   2.612  11.320  0.2062  0.8135 -0.5963
  233MOL0     C31329   5.999   2.622  11.457  0.1758 -0.4388 -0.0708
  233MOL0     C31330   5.858   2.650  11.519 -0.7374 -0.2302  0.5175
  233MOL0     C31331   5.870   2.645  11.668 -0.1838  0.8468  1.5724
  233MOL0     C31332   5.763   2.743  11.729  0.0003  0.5512  0.2905
  233MOL0     C31333   5.747   2.721  11.879  0.6115  0.0643  0.3987
  233MOL0     C31334   5.868   2.751  11.965 -0.7510  0.4928  0.1743
  233MOL0     C31335   5.840   2.697  12.113 -0.4763  0.0401 -0.1740
  233MOL0     C31336   5.956   2.737  12.207 -0.6679 -0.5737  0.2669
  233MOL0     N31337   5.943   2.701  12.346  0.1027  1.0686 -0.7396
  233MOL0     C31338   5.911   2.575  12.383 -0.3839 -0.0877 -1.1025
  233MOL0     C31339   5.875   2.589  12.514 -0.4727  0.1455 -0.3034
  233MOL0     C31340   5.834   2.472  12.610 -0.1208 -0.6177 -0.9420
  233MOL0     C31341   5.716   2.499  12.693 -0.1031  0.5497 -0.1898
  233MOL0     C31342   5.594   2.554  12.612  0.1583 -0.2491 -0.5241
  233MOL0     C31343   5.524   2.436  12.546  1.0456  0.8883 -0.2850
  233MOL0     O31344   5.394   2.466  12.492  0.2869  0.1944  0.9803
  233MOL0     C31345   5.388   2.541  12.374 -0.1385 -0.2535  1.4101
  233MOL0     C31346   5.270   2.602  12.349  0.7777  0.1757 -1.1574
  233MOL0     C31347   5.245   2.692  12.244  0.5587  0.0343  0.0247
  233MOL0     C31348   5.114   2.736  12.205  0.7960  0.4238  0.3104
  233MOL0     C31349   5.348   2.730  12.156 -0.3289  0.3823 -0.4617
  233MOL0     C31350   5.329   2.831  12.048  0.1956 -0.4574  0.1564
  233MOL0     O31351   5.230   2.932  12.073 -0.5443  0.6769 -0.7632
  233MOL0     C31352   5.196   3.021  11.972 -0.2026  0.0835  0.5111
  233MOL0     C31353   5.134   3.134  12.021 -0.1609 -0.9324 -0.5899
  233MOL0     C31354   5.096   3.242  11.936  0.0883 -0.4820 -0.9316
  233MOL0     C31355   5.122   3.228  11.796  0.3201 -0.4148 -0.1958
  233MOL0     O31356   5.092   3.331  11.711  0.3091  0.1145 -0.6687
  233MOL0     C31357   5.199   3.399  11.646 -0.1602 -0.6671 -1.0067
  233MOL0     C31358   5.153   3.522  11.563 -0.4078  1.4061 -0.6857
  233MOL0     C31359   5.220   3.517  11.421 -0.3750  0.7711  0.2347
  233MOL0     C31360   5.154   3.608  11.319  0.4193  0.0371 -0.0459
  233MOL0     C31361   5.189   3.768  11.348  0.4609 -0.5262 -0.4786
  233MOL0     C31362   5.073   3.856  11.305 -0.0031  0.7040 -0.3174
  233MOL0     C31363   5.089   4.013  11.305  1.0820 -0.4117  0.3153
  233MOL0     C31364   4.956   4.077  11.268 -0.2111 -0.1357 -0.0542
  233MOL0    Cl31365   4.927   4.060  11.084  0.8469  0.0155  0.1383
  233MOL0     C31366   5.166   3.103  11.745 -0.3555  1.1828  0.3670
  233MOL0     C31367   5.193   2.996  11.834 -0.3110 -0.6073 -0.7160
  233MOL0     O31368   5.407   2.833  11.954  1.1204  0.0087 -0.2298
  233MOL0     C31369   5.470   2.666  12.176 -0.6383 -0.6688 -0.3503
  233MOL0     C31370   5.493   2.575  12.281 -0.3778 -0.6122 -0.0099
  233MOL0     N31371   5.890   2.725  12.552 -0.5971 -0.5221  0.1696
  233MOL0     N31372   5.934   2.786  12.446  0.3925  0.5754 -0.0246
  233MOL0     C31373   6.196   2.556  11.216 -0.9211  0.0064 -0.6321
  233MOL0     C31374   6.301   2.589  11.124 -1.0760  0.9384  0.0267
  233MOL0     C31375   6.658   2.698  10.972 -0.1574 -0.8710  0.9441
  233MOL0     C31376   6.764   2.610  10.937 -0.1445 -0.0873  0.1380
  233MOL0     C31377   6.892   2.631  10.966  0.6298 -0.0951 -0.0491
  233MOL0     C31378   6.932   2.745  11.044 -0.1845 -0.6109 -0.0861
  233MOL0     O31379   7.064   2.790  11.058  0.5354 -0.1773 -0.5266
  233MOL0     C31380   7.160   2.710  10.988  0.0495 -0.6547  0.6320
  233MOL0     C31381   7.297   2.757  11.016  0.4320  0.2822  0.6353
  233MOL0     C31382   7.391   2.684  10.930 -0.1214 -0.3269 -0.2264
  233MOL0     C31383   7.529   2.757  10.920 -0.1706 -0.6758  0.5632
  233MOL0     C31384   7.525   2.863  10.815  0.2197 -1.4687 -0.5613
  233MOL0     C31385   7.510   2.928  10.713 -0.3227  0.2054  0.3656
  233MOL0     C31386   6.831   2.828  11.085 -0.6435  0.1734 -1.2386
  233MOL0     C31387   6.705   2.818  11.035 -0.1299 -0.8052 -0.4463
  233MOL0     H31388   6.261   2.925  11.110  0.6215  0.3956  1.1141
  233MOL0     H31389   6.051   2.849  11.249 -0.5349 -0.7653 -1.0801
  233MOL0     H31390   6.042   2.528  11.494  1.8451  0.0590 -0.6477
  233MOL0     H31391   6.070   2.699  11.486  1.8035 -0.1437 -4.1582
  233MOL0     H31392   5.820   2.747  11.485  0.2053  0.9246  2.5705
  233MOL0     H31393   5.786   2.572  11.492 -0.6168 -0.9137  2.0941
  233MOL0     H31394   5.843   2.545  11.702 -1.7502  1.1847  1.4139
  233MOL0     H31395   5.975   2.667  11.691  0.6651  0.8159 -1.7435
  233MOL0     H31396   5.792   2.849  11.726  2.3455  0.1204  2.7848
  233MOL0     H31397   5.668   2.727  11.678  0.3141 -5.8463  0.8507
  233MOL0     H31398   5.665   2.788  11.903 -1.4118 -2.5485  1.1941
  233MOL0     H31399   5.716   2.616  11.890  0.0440 -0.1271 -2.2773
  233MOL0     H31400   5.952   2.695  11.922 -3.2071 -2.8402 -0.6220
  233MOL0     H31401   5.899   2.856  11.962 -1.0241  0.6500  1.9498
  233MOL0     H31402   5.750   2.749  12.149 -1.3081 -1.7507  0.4732
  233MOL0     H31403   5.823   2.589  12.102 -4.7218  0.7159 -2.6014
  233MOL0     H31404   5.960   2.846  12.217  0.1022 -0.5403 -0.3425
  233MOL0     H31405   6.049   2.701  12.162  0.0772  1.5126 -0.0033
  233MOL0     H31406   5.901   2.486  12.321  0.2478  0.7309 -2.4340
  233MOL0     H31407   5.812   2.379  12.557 -0.9949 -0.1106 -1.5014
  233MOL0     H31408   5.914   2.443  12.678 -0.4157 -1.7235 -1.0572
  233MOL0     H31409   5.747   2.559  12.780 -0.6955 -2.1675  2.0263
  233MOL0     H31410   5.673   2.411  12.742 -2.5843  2.5287  1.5078
  233MOL0     H31411   5.630   2.624  12.536 -0.1512 -1.5947 -1.9522
  233MOL0     H31412   5.539   2.608  12.690  3.3487  2.3607  0.1267
  233MOL0     H31413   5.498   2.348  12.604 -0.0686 -0.6668 -2.9645
  233MOL0     H31414   5.589   2.391  12.469  2.4719  3.6396 -0.8357
  233MOL0     H31415   5.193   2.576  12.421  0.5064  0.8265 -1.2004
  233MOL0     H31416   5.096   2.843  12.220 -2.8794  0.3439 -2.0880
  233MOL0     H31417   5.089   2.705  12.102  0.9737 -0.8384  0.6291
  233MOL0     H31418   5.041   2.687  12.270 -0.1230  1.1148 -0.1743
  233MOL0     H31419   5.109   3.127  12.126 -3.0397  1.4437 -1.0043
  233MOL0     H31420   5.047   3.330  11.976  1.5537  0.0868 -0.2854
  233MOL0     H31421   5.275   3.441  11.713 -1.0497  3.8697 -2.4961
  233MOL0     H31422   5.250   3.331  11.577 -1.2454  0.2474 -2.7542
  233MOL0     H31423   5.044   3.511  11.562 -0.2281 -1.3990  0.7425
  233MOL0     H31424   5.180   3.615  11.614  2.5650 -0.2222  0.9594
  233MOL0     H31425   5.209   3.414  11.384  1.4305 -0.8823  3.7722
  233MOL0     H31426   5.329   3.521  11.417 -0.3750  0.2509 -0.6926
  233MOL0     H31427   5.195   3.596  11.219  0.8553 -0.8307  0.2268
  233MOL0     H31428   5.047   3.587  11.308  0.7958 -3.4658  1.4346
  233MOL0     H31429   5.290   3.786  11.309  1.7016 -2.8563  1.3399
  233MOL0     H31430   5.208   3.782  11.455 -0.3609 -5.4400  0.5459
  233MOL0     H31431   5.055   3.830  11.201  1.0921 -0.3662 -0.2690
  233MOL0     H31432   4.984   3.824  11.360  0.6050 -1.6814 -0.6267
  233MOL0     H31433   5.166   4.035  11.230  0.6615 -3.8031 -1.2628
  233MOL0     H31434   5.117   4.064  11.398  0.4118  2.6327 -1.0372
  233MOL0     H31435   4.964   4.186  11.273  2.2155  0.0243 -3.7695
  233MOL0     H31436   4.871   4.042  11.328  0.0973  0.3986  0.7191
  233MOL0     H31437   5.163   3.083  11.639  0.4601 -2.6939  0.9245
  233MOL0     H31438   5.223   2.900  11.793  2.4471  0.0897 -0.5371
  233MOL0     H31439   5.542   2.665  12.094 -0.4885  3.9737 -0.5531
  233MOL0     H31440   5.594   2.540  12.298  1.2453  2.2091 -2.6710
  233MOL0     H31441   6.195   2.448  11.232  0.2851  0.0145 -0.3681
  233MOL0     H31442   6.379   2.520  11.092 -0.4043  2.7308 -2.5632
  233MOL0     H31443   6.727   2.516  10.897  1.5943 -1.3468  1.3122
  233MOL0     H31444   6.962   2.553  10.936 -0.4955 -1.1530  0.0040
  233MOL0     H31445   7.155   2.607  11.025 -0.4893 -1.3231 -1.2007
  233MOL0     H31446   7.137   2.710  10.881  5.2946 -3.8227 -0.8655
  233MOL0     H31447   7.308   2.728  11.120  0.3249 -3.3645 -0.2392
  233MOL0     H31448   7.308   2.865  10.999 -2.3890  0.4492 -0.8661
  233MOL0     H31449   7.357   2.674  10.827 -3.0636 -0.2124  0.6391
  233MOL0     H31450   7.415   2.589  10.978 -1.2615  0.2543  1.5918
  233MOL0     H31451   7.599   2.683  10.880 -0.4757 -0.7594  0.1707
  233MOL0     H31452   7.559   2.816  11.007  1.3166  0.5433 -0.7035
  233MOL0     H31453   7.489   2.981  10.622 -0.5540  2.2154  1.5217
  233MOL0     H31454   6.868   2.909  11.148  0.2766  0.5339 -2.2226
  233MOL0     H31455   6.634   2.897  11.057  0.4594  0.0306 -1.4270
  234MOL0     O31456   0.680   1.457  10.970 -0.5106 -0.6560 -0.5667
  234MOL0     C31457   0.684   1.351  11.023  0.0444 -0.0751 -0.8149
  234MOL0     O31458   0.674   1.327  11.163  0.2338 -0.5021  0.1009
  234MOL0     C31459   0.674   1.432  11.251 -0.2728  0.7945  1.2390
  234MOL0     C31460   0.595   1.420  11.362  0.4035  0.7987 -0.5661
  234MOL0     C31461   0.592   1.514  11.472  0.4698 -0.4523  0.0825
  234MOL0     C31462   0.673   1.631  11.457 -0.4368 -0.4527  0.5086
  234MOL0     O31463   0.665   1.727  11.555  0.2879  0.6565 -0.8887
  234MOL0     C31464   0.541   1.772  11.608 -0.1769  0.0239 -0.8098
  234MOL0     C31465   0.533   1.745  11.760  0.1182 -0.3447 -0.3375
  234MOL0     C31466   0.606   1.843  11.853  0.1292  0.1606  0.0229
  234MOL0     C31467   0.752   1.878  11.806 -0.7387  0.4540 -0.9901
  234MOL0     C31468   0.840   1.940  11.924  0.3548  0.6036 -1.1545
  234MOL0     C31469   0.763   2.051  12.002 -0.4769 -1.2209  0.2427
  234MOL0     C31470   0.829   2.095  12.130 -0.0326  0.8676  0.5693
  234MOL0     C31471   0.820   1.973  12.235  0.3259  0.2071  0.7303
  234MOL0     N31472   0.858   2.016  12.368 -0.6503  0.2633 -0.1894
  234MOL0     C31473   0.766   2.041  12.470  0.0217  0.5306  0.0648
  234MOL0     C31474   0.847   2.067  12.576  1.2006  0.9809 -0.0782
  234MOL0     C31475   0.791   2.107  12.710 -0.4488  0.3246 -0.8468
  234MOL0     C31476   0.754   1.978  12.788 -0.0994  0.0340 -0.1571
  234MOL0     C31477   0.674   2.003  12.914  0.7078 -0.5193  0.6407
  234MOL0     C31478   0.585   1.878  12.951  0.5950 -0.6517 -0.8399
  234MOL0     O31479   0.668   1.761  12.971  0.1315 -0.8216  0.5408
  234MOL0     C31480   0.604   1.647  13.005  0.4096  0.1661  0.2264
  234MOL0     C31481   0.589   1.590  13.135  0.2448 -0.0683  0.5260
  234MOL0     C31482   0.527   1.467  13.155  0.4599 -0.0006  1.1563
  234MOL0     C31483   0.491   1.429  13.293  0.2391 -0.4616 -0.2427
  234MOL0     C31484   0.472   1.398  13.036 -0.8814  0.0787 -0.1204
  234MOL0     C31485   0.403   1.268  13.053 -0.3499  0.6028  0.8598
  234MOL0     O31486   0.382   1.210  13.173 -0.4737  0.4210 -0.5337
  234MOL0     C31487   0.299   1.107  13.204  0.0999 -0.0355  0.0110
  234MOL0     C31488   0.332   0.967  13.172  0.1032 -0.2098  0.1571
  234MOL0     C31489   0.240   0.865  13.210 -0.3215 -0.4173  0.2188
  234MOL0     C31490   0.124   0.886  13.280 -0.0498 -0.0362  0.3211
  234MOL0     O31491   0.037   0.783  13.306 -0.5210 -0.8003 -0.5440
  234MOL0     C31492   0.066   0.645  13.257  0.4160 -0.4727  0.4468
  234MOL0     C31493  -0.038   0.553  13.318 -0.2364 -1.0567 -0.5570
  234MOL0     C31494  -0.168   0.562  13.257  1.5755  0.2330 -0.4913
  234MOL0     C31495  -0.274   0.477  13.329  0.5454  0.7718  0.7763
  234MOL0     C31496  -0.406   0.493  13.268  0.6249  0.0517  0.2466
  234MOL0     C31497  -0.519   0.458  13.359  0.2477 -0.1579 -0.3364
  234MOL0     C31498  -0.518   0.307  13.394 -0.1621 -0.3811  0.2371
  234MOL0     C31499  -0.648   0.273  13.461 -0.4064  0.2194  0.2966
  234MOL0    Cl31500  -0.655   0.339  13.635 -0.1678  0.0147 -0.3631
  234MOL0     C31501   0.091   1.022  13.296 -0.3504  0.5940  0.2870
  234MOL0     C31502   0.173   1.129  13.262 -1.2178 -0.3071 -0.1017
  234MOL0     O31503   0.368   1.213  12.945 -0.1585 -0.2244  0.4488
  234MOL0     C31504   0.476   1.466  12.909  0.1182 -0.3864 -0.3300
  234MOL0     C31505   0.537   1.590  12.894 -0.1801 -0.0519 -1.2581
  234MOL0     N31506   0.981   2.038  12.548  0.0911 -1.2720  0.6722
  234MOL0     N31507   0.986   2.010  12.428 -0.4031 -0.4570  0.2689
  234MOL0     C31508   0.756   1.650  11.344 -0.4486 -0.3009 -0.0047
  234MOL0     C31509   0.758   1.546  11.244 -0.8017 -1.1325  0.7234
  234MOL0     C31510   0.669   1.238  10.924 -0.5785  0.6104  0.0344
  234MOL0     C31511   0.601   1.122  10.976 -0.3754  0.5712 -0.7244
  234MOL0     C31512   0.551   1.028  10.884 -0.0576  0.7853 -0.3178
  234MOL0     C31513   0.571   1.049  10.741  0.6251  0.0034 -0.1497
  234MOL0     O31514   0.514   0.958  10.653 -0.8388 -0.0605 -0.0752
  234MOL0     C31515   0.509   0.815  10.675  1.0301  0.3239 -0.2245
  234MOL0     C31516   0.365   0.773  10.707 -1.1391  0.2001  0.6367
  234MOL0     C31517   0.352   0.621  10.727  0.1389 -0.0413  0.1402
  234MOL0     C31518   0.249   0.593  10.834  0.3015 -0.6750 -0.2824
  234MOL0     C31519   0.289   0.646  10.959  0.1586  0.1837 -0.1107
  234MOL0     C31520   0.312   0.679  11.069  0.7751  0.3708 -0.4008
  234MOL0     C31521   0.623   1.170  10.691  0.0014  0.0521 -0.1326
  234MOL0     C31522   0.678   1.260  10.786 -0.0335 -0.3913  0.2870
  234MOL0     H31523   0.539   1.327  11.368  3.4990 -1.1178  2.4983
  234MOL0     H31524   0.527   1.496  11.557  1.0030  0.2058  0.6417
  234MOL0     H31525   0.535   1.879  11.586 -0.5606  0.3315  0.6674
  234MOL0     H31526   0.460   1.715  11.563  0.6452 -1.0315 -1.0037
  234MOL0     H31527   0.430   1.750  11.794  1.3729  0.2683  3.8869
  234MOL0     H31528   0.559   1.640  11.777 -1.2303 -0.6385 -0.0042
  234MOL0     H31529   0.537   1.928  11.855 -0.7800 -0.4948 -1.4426
  234MOL0     H31530   0.607   1.794  11.950  2.1645 -1.6124 -0.8097
  234MOL0     H31531   0.805   1.787  11.776 -0.5436  0.2291  0.0138
  234MOL0     H31532   0.754   1.951  11.724 -1.6562  1.5903 -0.0365
  234MOL0     H31533   0.856   1.855  11.990 -0.4737  2.0689  1.0611
  234MOL0     H31534   0.937   1.967  11.883  1.3838 -2.7948 -1.1939
  234MOL0     H31535   0.755   2.138  11.935 -0.0947 -0.7879  0.7491
  234MOL0     H31536   0.663   2.012  12.025 -0.1020 -2.0077  0.5575
  234MOL0     H31537   0.931   2.119  12.100  0.2344 -1.6413 -0.8113
  234MOL0     H31538   0.776   2.181  12.173  1.4912  1.3171  1.6447
  234MOL0     H31539   0.876   1.885  12.201 -1.2560 -0.8977  0.8569
  234MOL0     H31540   0.714   1.950  12.248  0.5174  0.3482  2.7544
  234MOL0     H31541   0.659   2.026  12.470  0.0044  0.6396  0.5660
  234MOL0     H31542   0.870   2.156  12.767 -1.3345 -3.0576  3.8980
  234MOL0     H31543   0.703   2.172  12.700 -2.3091 -1.7883  0.7496
  234MOL0     H31544   0.847   1.931  12.823 -1.3016 -1.9409  0.5600
  234MOL0     H31545   0.704   1.904  12.724 -1.6608 -1.7200  2.8785
  234MOL0     H31546   0.608   2.089  12.902 -0.0532 -1.2318 -0.4277
  234MOL0     H31547   0.739   2.033  12.997  0.5531 -0.8331  0.8797
  234MOL0     H31548   0.507   1.862  12.876  0.2703  0.3126 -0.7187
  234MOL0     H31549   0.526   1.901  13.040 -0.0998 -1.0204 -1.1954
  234MOL0     H31550   0.626   1.657  13.212 -0.2335  1.3065 -0.3945
  234MOL0     H31551   0.539   1.334  13.318 -2.0794 -1.7657 -0.5101
  234MOL0     H31552   0.525   1.507  13.363  0.4565  3.1017 -3.9508
  234MOL0     H31553   0.385   1.410  13.311 -0.1120 -0.1108 -1.8297
  234MOL0     H31554   0.429   0.938  13.133  0.7469  2.3684 -0.3361
  234MOL0     H31555   0.286   0.768  13.198 -0.5664 -0.9343  2.9008
  234MOL0     H31556   0.058   0.637  13.148 -0.1494 -2.0929  0.5817
  234MOL0     H31557   0.165   0.603  13.273  0.0080 -2.7382 -2.1629
  234MOL0     H31558  -0.007   0.450  13.297  4.3558  0.1094 -0.6226
  234MOL0     H31559  -0.038   0.573  13.426 -2.5298  0.5552 -0.7893
  234MOL0     H31560  -0.154   0.548  13.150 -1.0253  2.7263 -1.2777
  234MOL0     H31561  -0.196   0.666  13.273 -0.7493 -0.5244  0.9077
  234MOL0     H31562  -0.240   0.374  13.316 -0.6803  0.7252 -4.5916
  234MOL0     H31563  -0.273   0.499  13.436 -2.3650  0.8411  0.8931
  234MOL0     H31564  -0.401   0.434  13.176 -1.2428 -3.2502  2.0656
  234MOL0     H31565  -0.415   0.600  13.247  3.1194  0.5701  1.4314
  234MOL0     H31566  -0.537   0.529  13.440  0.3060 -0.1670 -0.3150
  234MOL0     H31567  -0.599   0.480  13.287  2.4921  2.6153 -2.2376
  234MOL0     H31568  -0.441   0.292  13.471  0.5825  2.6388  0.1830
  234MOL0     H31569  -0.496   0.242  13.309 -4.1625 -0.1019 -1.1974
  234MOL0     H31570  -0.651   0.164  13.472  1.4525  0.1884  0.8576
  234MOL0     H31571  -0.733   0.304  13.399  0.2712  0.0497 -0.7567
  234MOL0     H31572  -0.009   1.042  13.333  0.2183  3.4843  0.4631
  234MOL0     H31573   0.144   1.231  13.286  3.2108  1.4859 -1.3519
  234MOL0     H31574   0.434   1.415  12.823 -0.0319 -1.4963  0.3773
  234MOL0     H31575   0.548   1.641  12.799  0.2539  0.1874 -1.0837
  234MOL0     H31576   0.814   1.739  11.323 -2.6436  1.5771  1.3460
  234MOL0     H31577   0.828   1.550  11.162 -0.9066 -0.3100  0.6580
  234MOL0     H31578   0.594   1.116  11.084  2.1426 -0.8404 -0.5703
  234MOL0     H31579   0.487   0.943  10.904 -0.5133  0.9537 -1.0408
  234MOL0     H31580   0.550   0.765  10.588  3.4674 -0.5769  1.3489
  234MOL0     H31581   0.574   0.782  10.756 -0.6160 -0.5327  0.8226
  234MOL0     H31582   0.307   0.789  10.615 -0.3862 -4.4311 -0.9250
  234MOL0     H31583   0.317   0.825  10.790 -0.8518  2.1320 -0.3522
  234MOL0     H31584   0.445   0.572  10.755 -0.4399 -0.8856  0.6256
  234MOL0     H31585   0.308   0.568  10.642 -2.7547  1.3320  0.6533
  234MOL0     H31586   0.246   0.486  10.856 -1.6182  0.0715  4.0546
  234MOL0     H31587   0.153   0.638  10.808  0.1706  0.0412  1.3540
  234MOL0     H31588   0.313   0.702  11.173 -1.3164 -3.8957  0.7605
  234MOL0     H31589   0.619   1.197  10.586  1.5561 -1.7372 -0.7227
  234MOL0     H31590   0.715   1.355  10.748 -0.1950  1.2376  3.8419
  235MOL0     O31591   3.085   8.243   7.069 -0.4625  0.6845 -0.0835
  235MOL0     C31592   2.993   8.172   7.111  0.1802  1.2652 -0.7544
  235MOL0     O31593   2.982   8.128   7.235  1.3791  0.3841 -0.1113
  235MOL0     C31594   3.074   8.175   7.322  0.0643  0.1486  0.6472
  235MOL0     C31595   3.161   8.078   7.377 -0.0901  0.1371 -0.2471
  235MOL0     C31596   3.270   8.118   7.466 -0.0999 -0.7680  0.1127
  235MOL0     C31597   3.272   8.247   7.523 -0.0938  0.2176  0.6175
  235MOL0     O31598   3.377   8.290   7.598  0.3368 -0.2220  0.2697
  235MOL0     C31599   3.494   8.308   7.520 -0.1953  0.3967 -0.1996
  235MOL0     C31600   3.600   8.385   7.603  1.3640 -0.5310  0.0005
  235MOL0     C31601   3.737   8.400   7.544  0.8841  0.0146  0.9628
  235MOL0     C31602   3.854   8.321   7.624 -0.2650 -0.5394  0.7779
  235MOL0     C31603   3.980   8.376   7.575 -0.6993  0.0624 -0.5199
  235MOL0     C31604   4.108   8.322   7.624  0.6893  1.3580 -0.2539
  235MOL0     C31605   4.153   8.347   7.763  1.2141  0.0135  0.7878
  235MOL0     C31606   4.304   8.356   7.776  0.8829  0.3041 -0.5176
  235MOL0     N31607   4.336   8.400   7.908 -0.2235  0.0644  0.1176
  235MOL0     C31608   4.346   8.309   8.006 -0.6675  0.8534 -0.1717
  235MOL0     C31609   4.450   8.358   8.083 -0.2362 -0.1064 -0.9666
  235MOL0     C31610   4.517   8.291   8.200  0.7876  0.2431 -0.2254
  235MOL0     C31611   4.645   8.346   8.255 -0.5135 -0.3214 -0.5257
  235MOL0     C31612   4.677   8.247   8.369 -0.6378 -0.4129 -0.1442
  235MOL0     C31613   4.775   8.299   8.477  0.4132 -0.2270 -0.0531
  235MOL0     O31614   4.804   8.201   8.581  0.6847  0.1333  0.1389
  235MOL0     C31615   4.893   8.237   8.676 -0.1136 -0.4194  0.1631
  235MOL0     C31616   4.977   8.352   8.669 -0.7487 -0.2391  1.3889
  235MOL0     C31617   5.070   8.374   8.777 -0.8201  1.0122 -0.1767
  235MOL0     C31618   5.169   8.483   8.762 -0.2859 -0.2677  0.0676
  235MOL0     C31619   5.066   8.287   8.891  0.6507 -0.1153  0.5574
  235MOL0     C31620   5.154   8.305   9.002 -0.3253  0.9825 -0.4233
  235MOL0     O31621   5.281   8.334   8.966  0.3779 -0.3333 -0.2326
  235MOL0     C31622   5.389   8.345   9.052  0.7524  0.4351  0.1152
  235MOL0     C31623   5.392   8.303   9.179  0.2981  0.5790  0.7508
  235MOL0     C31624   5.501   8.325   9.256  0.8932 -0.7068 -0.9323
  235MOL0     C31625   5.610   8.401   9.216  0.4991  0.0169 -1.2684
  235MOL0     O31626   5.717   8.420   9.309 -0.0042 -0.9201 -0.1141
  235MOL0     C31627   5.695   8.453   9.440  0.3476 -0.2761  0.2483
  235MOL0     C31628   5.823   8.420   9.521  0.4685  0.4611  0.1468
  235MOL0     C31629   5.851   8.268   9.491  0.4672  0.3815  0.5039
  235MOL0     C31630   5.975   8.224   9.546  0.2194  0.1970 -0.0738
  235MOL0     C31631   6.009   8.081   9.502 -1.2208  1.1354  1.6571
  235MOL0     C31632   6.146   8.016   9.545  0.9303 -0.0030  0.6784
  235MOL0     C31633   6.169   7.872   9.493 -0.3609  0.7081  0.4232
  235MOL0     C31634   6.060   7.777   9.543  0.7554 -0.1070  0.0370
  235MOL0    Cl31635   6.105   7.605   9.534  0.2110  0.1385  0.1567
  235MOL0     C31636   5.600   8.458   9.088 -0.0222 -0.7243 -0.7822
  235MOL0     C31637   5.489   8.428   9.003 -1.0420 -0.5568 -0.6261
  235MOL0     O31638   5.106   8.326   9.115 -0.0164 -0.0251  0.7288
  235MOL0     C31639   4.987   8.170   8.884  0.3249 -0.5062  0.2089
  235MOL0     C31640   4.906   8.144   8.782  0.4237 -0.8999  0.4427
  235MOL0     N31641   4.481   8.484   8.036 -0.1915 -0.1150  0.3227
  235MOL0     N31642   4.416   8.506   7.930 -0.0732 -0.9041 -0.1748
  235MOL0     C31643   3.174   8.334   7.481 -0.6021 -0.8748  0.0926
  235MOL0     C31644   3.083   8.311   7.375  0.6472  0.0817  0.1694
  235MOL0     C31645   2.879   8.121   7.030  0.3099 -0.0102 -0.5421
  235MOL0     C31646   2.848   8.190   6.916  0.3924 -0.4069 -0.4577
  235MOL0     C31647   2.736   8.158   6.845  0.4619 -0.6774  0.9147
  235MOL0     C31648   2.653   8.049   6.873 -0.1401 -0.6777  0.0980
  235MOL0     O31649   2.542   8.047   6.786  0.1595 -0.4564 -0.2680
  235MOL0     C31650   2.429   7.967   6.819  0.1934 -0.0924 -0.7828
  235MOL0     C31651   2.428   7.830   6.769  0.7212 -0.6621 -0.2523
  235MOL0     C31652   2.292   7.759   6.812 -1.1880 -0.0218 -0.1291
  235MOL0     C31653   2.186   7.750   6.689 -0.1878  0.6762  0.1084
  235MOL0     C31654   2.158   7.882   6.633 -0.5809 -0.1126 -0.4134
  235MOL0     C31655   2.137   7.995   6.592  0.3377  0.3642  0.0581
  235MOL0     C31656   2.696   7.970   6.978  0.2190  0.1979  0.0313
  235MOL0     C31657   2.805   8.007   7.059  0.1142 -0.7003  0.9438
  235MOL0     H31658   3.144   7.973   7.355 -0.1777  0.4425 -1.7688
  235MOL0     H31659   3.339   8.038   7.490  0.0259 -1.3449 -1.9406
  235MOL0     H31660   3.542   8.217   7.483  1.2441  1.3103 -0.6546
  235MOL0     H31661   3.472   8.369   7.431 -0.9627  2.3910  1.2650
  235MOL0     H31662   3.563   8.482   7.637 -0.4805 -1.4816  0.9037
  235MOL0     H31663   3.604   8.322   7.692 -1.6673 -1.8933 -0.6743
  235MOL0     H31664   3.733   8.350   7.447 -0.4115  0.1210  0.9522
  235MOL0     H31665   3.750   8.508   7.543 -1.3612  0.3217 -0.2288
  235MOL0     H31666   3.841   8.350   7.729 -1.3577  1.4353  0.1508
  235MOL0     H31667   3.851   8.212   7.614 -0.2682 -0.3515 -2.2551
  235MOL0     H31668   3.985   8.365   7.466  1.2214  0.0839 -0.4567
  235MOL0     H31669   3.980   8.484   7.592  4.3749  0.0080  1.4968
  235MOL0     H31670   4.108   8.213   7.610 -1.2186  1.1783  0.8132
  235MOL0     H31671   4.179   8.355   7.548  3.7844 -2.9876  0.3552
  235MOL0     H31672   4.109   8.440   7.800  0.7188  1.0615 -2.1670
  235MOL0     H31673   4.121   8.256   7.815 -0.4620  0.0356 -0.1267
  235MOL0     H31674   4.355   8.430   7.714  0.3228  2.8017  1.8012
  235MOL0     H31675   4.348   8.258   7.752 -2.0504 -1.8067  1.8568
  235MOL0     H31676   4.301   8.211   8.023 -0.7763  0.8386 -0.5350
  235MOL0     H31677   4.438   8.275   8.274  1.5727  1.7874  1.0175
  235MOL0     H31678   4.525   8.184   8.179  4.5648 -0.6679  4.0269
  235MOL0     H31679   4.641   8.446   8.299  2.3736 -0.5874  0.5793
  235MOL0     H31680   4.730   8.347   8.186  1.4579  1.2112  1.7510
  235MOL0     H31681   4.714   8.156   8.321 -0.2381 -1.0964  1.3920
  235MOL0     H31682   4.583   8.234   8.422  1.0901  1.2429  3.7660
  235MOL0     H31683   4.738   8.395   8.516  3.6312  0.7155  0.9777
  235MOL0     H31684   4.870   8.328   8.431  0.5387  0.7416  0.7846
  235MOL0     H31685   4.986   8.410   8.577  0.2317  0.6946  2.0401
  235MOL0     H31686   5.184   8.529   8.860  0.7196  0.5507 -0.4479
  235MOL0     H31687   5.265   8.441   8.732 -1.0351 -2.9048  1.0831
  235MOL0     H31688   5.123   8.569   8.712 -3.2284  0.0093  2.8662
  235MOL0     H31689   5.319   8.228   9.208 -0.0832 -0.6467 -2.8253
  235MOL0     H31690   5.525   8.285   9.354 -0.5609  1.4743  0.4035
  235MOL0     H31691   5.672   8.560   9.450 -2.2220 -0.9188  2.0946
  235MOL0     H31692   5.614   8.400   9.491  2.2443 -3.5099  0.1725
  235MOL0     H31693   5.906   8.491   9.509 -2.8846  5.2495  2.0838
  235MOL0     H31694   5.786   8.419   9.624 -3.1400  0.3703 -0.9987
  235MOL0     H31695   5.861   8.262   9.383  2.1375  0.6018  0.6215
  235MOL0     H31696   5.771   8.206   9.532  2.7130 -3.3204 -0.3087
  235MOL0     H31697   6.058   8.289   9.516  0.5224 -0.8165 -1.5232
  235MOL0     H31698   5.970   8.232   9.655 -1.3189  1.1375 -0.1809
  235MOL0     H31699   6.014   8.077   9.393  0.1417  1.0930  1.7026
  235MOL0     H31700   5.933   8.006   9.525  0.4053 -1.0937  0.1929
  235MOL0     H31701   6.224   8.083   9.507 -0.8231  2.8870  1.8456
  235MOL0     H31702   6.151   8.020   9.654 -0.1417 -3.6532  0.9794
  235MOL0     H31703   6.259   7.827   9.535 -2.6332 -1.5968  3.1753
  235MOL0     H31704   6.174   7.863   9.384 -1.3746 -2.5610  0.5223
  235MOL0     H31705   5.968   7.782   9.484  0.9595 -0.6156 -0.3380
  235MOL0     H31706   6.044   7.802   9.648  0.6556 -0.8686  0.2070
  235MOL0     H31707   5.675   8.534   9.067  1.8581 -1.8224  1.4308
  235MOL0     H31708   5.482   8.473   8.904 -2.3624 -0.2422 -0.4131
  235MOL0     H31709   4.985   8.087   8.955 -0.8746 -2.6028 -2.1067
  235MOL0     H31710   4.838   8.059   8.781  0.5154 -0.9755  0.5279
  235MOL0     H31711   3.171   8.430   7.530  1.2778 -1.1075  0.7493
  235MOL0     H31712   3.018   8.383   7.327 -1.5763 -1.6458  0.4209
  235MOL0     H31713   2.902   8.284   6.904 -0.6657  0.1393 -1.1344
  235MOL0     H31714   2.714   8.211   6.753  2.4167 -2.0384 -0.4194
  235MOL0     H31715   2.416   7.961   6.928  0.9395 -0.1841 -0.6926
  235MOL0     H31716   2.343   8.020   6.776 -1.3828 -1.0760  0.9899
  235MOL0     H31717   2.512   7.776   6.814  0.7563  0.5214  1.1579
  235MOL0     H31718   2.444   7.830   6.660  0.4584  1.8691 -0.3367
  235MOL0     H31719   2.243   7.807   6.898 -1.6713 -0.8256  0.0502
  235MOL0     H31720   2.321   7.659   6.846  2.9079  0.9877 -0.1356
  235MOL0     H31721   2.094   7.708   6.730 -1.8345  0.8522 -3.0900
  235MOL0     H31722   2.233   7.689   6.611  2.5376  2.2383  0.3974
  235MOL0     H31723   2.133   8.092   6.548 -0.0637  0.2552 -0.1476
  235MOL0     H31724   2.634   7.887   7.010 -0.3083  0.8181  0.6613
  235MOL0     H31725   2.842   7.939   7.135 -2.7594 -0.5162  2.6620
  236MOL0     O31726   7.755  10.583   7.906 -0.3014 -0.4374 -0.5417
  236MOL0     C31727   7.865  10.603   7.965  1.0881  0.2534 -0.2816
  236MOL0     O31728   7.928  10.723   7.984 -0.5030 -0.5676 -0.2036
  236MOL0     C31729   7.852  10.839   8.001 -0.5032  0.1997 -0.3595
  236MOL0     C31730   7.858  10.887   8.136 -0.1820 -0.1714  0.0243
  236MOL0     C31731   7.775  10.992   8.176  1.3537 -0.3487 -1.2539
  236MOL0     C31732   7.695  11.063   8.088 -0.4233 -0.7495 -0.4504
  236MOL0     O31733   7.622  11.181   8.119  0.5306 -0.0746  0.4127
  236MOL0     C31734   7.474  11.178   8.114 -0.1293  0.7715  0.0914
  236MOL0     C31735   7.437  11.194   8.261  0.2502  0.5905 -0.3067
  236MOL0     C31736   7.293  11.142   8.306 -0.5598 -0.1125  1.2286
  236MOL0     C31737   7.265  11.194   8.447  0.5483  0.4055 -0.4924
  236MOL0     C31738   7.118  11.166   8.478  0.7055 -0.1814  0.5472
  236MOL0     C31739   7.086  11.235   8.612 -0.6517  1.2334 -0.6756
  236MOL0     C31740   6.940  11.290   8.627  0.8611  0.4761 -0.7562
  236MOL0     C31741   6.918  11.332   8.773 -0.1196 -0.0111  0.5284
  236MOL0     N31742   6.774  11.351   8.811  0.1941 -0.0222  0.9336
  236MOL0     C31743   6.705  11.451   8.748 -0.0244 -0.1618  0.5758
  236MOL0     C31744   6.577  11.422   8.781 -0.5693  0.1312 -0.6320
  236MOL0     C31745   6.447  11.488   8.733 -0.2848  0.5600 -0.1887
  236MOL0     C31746   6.382  11.401   8.621  0.1514  0.9753  0.0075
  236MOL0     C31747   6.271  11.471   8.551 -0.5831  0.0979 -0.3431
  236MOL0     C31748   6.284  11.453   8.398 -0.0237  0.1148  0.3867
  236MOL0     O31749   6.260  11.319   8.358  0.4665  0.0781  0.0834
  236MOL0     C31750   6.258  11.288   8.228  0.7198 -0.1095 -1.1176
  236MOL0     C31751   6.214  11.161   8.196  0.0209 -0.1614  0.9574
  236MOL0     C31752   6.195  11.121   8.060 -0.8853  0.0875 -0.2330
  236MOL0     C31753   6.142  10.982   8.026 -0.8771  0.4872  0.3112
  236MOL0     C31754   6.211  11.220   7.953  0.4720  0.6178  1.1519
  236MOL0     C31755   6.203  11.181   7.801  0.4296 -0.1335  0.9342
  236MOL0     O31756   6.283  11.246   7.701 -0.0437  0.1008 -0.1867
  236MOL0     C31757   6.322  11.207   7.570  0.2097 -0.6797 -0.6258
  236MOL0     C31758   6.436  11.264   7.523  0.0196  0.2171  0.2774
  236MOL0     C31759   6.488  11.236   7.395  0.1156  0.1613  0.2459
  236MOL0     C31760   6.416  11.140   7.314 -0.1469 -0.6716 -0.6535
  236MOL0     O31761   6.474  11.113   7.200 -1.0084 -0.1854 -0.4055
  236MOL0     C31762   6.497  10.979   7.177  0.2376  0.2065  0.0213
  236MOL0     C31763   6.582  10.955   7.050 -0.5234 -0.3373  0.7448
  236MOL0     C31764   6.568  10.803   6.992 -0.2875 -0.5707 -0.3981
  236MOL0     C31765   6.594  10.699   7.103 -0.1013  1.1248  0.1334
  236MOL0     C31766   6.648  10.580   7.020  0.4941 -0.3369  0.6472
  236MOL0     C31767   6.559  10.530   6.915  1.1540 -0.0901 -0.2327
  236MOL0     C31768   6.583  10.382   6.890 -0.3004  0.5346  0.6848
  236MOL0     C31769   6.718  10.345   6.818 -0.1681  0.8618  0.2051
  236MOL0    Cl31770   6.707  10.399   6.649  0.2355  0.7249  0.1261
  236MOL0     C31771   6.290  11.092   7.363  0.5230  0.0935 -0.3270
  236MOL0     C31772   6.251  11.123   7.493  0.9415  0.1249  0.4264
  236MOL0     O31773   6.112  11.104   7.777  0.3819 -0.1432 -0.0608
  236MOL0     C31774   6.250  11.348   7.988 -0.0219  0.0195  0.0298
  236MOL0     C31775   6.279  11.384   8.124 -0.1933  0.7500  0.6199
  236MOL0     N31776   6.573  11.312   8.865  0.8107  0.4953 -0.3371
  236MOL0     N31777   6.701  11.268   8.879 -0.7197  0.2437 -0.0242
  236MOL0     C31778   7.696  11.012   7.956 -0.3754 -0.4535  0.1599
  236MOL0     C31779   7.770  10.894   7.911 -0.2513  0.5275  0.3534
  236MOL0     C31780   7.945  10.479   7.978  0.1434 -0.1735 -0.0138
  236MOL0     C31781   8.052  10.481   8.062 -0.3161 -1.0920  0.2253
  236MOL0     C31782   8.124  10.366   8.092 -0.2731  0.4931  0.0462
  236MOL0     C31783   8.100  10.252   8.019  0.6205 -0.1121  0.2774
  236MOL0     O31784   8.181  10.139   8.050  0.2528 -0.1316  0.4856
  236MOL0     C31785   8.141  10.012   8.007  0.3412 -0.0916 -0.5411
  236MOL0     C31786   8.012   9.973   8.070 -0.4246  0.7523 -1.0610
  236MOL0     C31787   8.016  10.002   8.224  1.2120 -0.2136 -0.2721
  236MOL0     C31788   7.866  10.000   8.282 -0.8069 -0.1408  0.4422
  236MOL0     C31789   7.766   9.904   8.238 -0.2708 -0.7133 -0.3277
  236MOL0     C31790   7.685   9.829   8.195 -0.2595  0.2315 -0.3305
  236MOL0     C31791   7.998  10.251   7.920  0.4172 -0.0283 -0.7376
  236MOL0     C31792   7.928  10.366   7.899 -0.0209 -0.2814 -0.7396
  236MOL0     H31793   7.916  10.831   8.209 -0.0830  0.8723  0.7683
  236MOL0     H31794   7.761  11.031   8.276  2.3941  0.1529 -1.2893
  236MOL0     H31795   7.427  11.259   8.058 -1.0611 -0.0241 -0.2940
  236MOL0     H31796   7.433  11.082   8.081 -0.3875  0.8343  0.2317
  236MOL0     H31797   7.505  11.124   8.310 -1.0202  0.7038  1.7080
  236MOL0     H31798   7.458  11.299   8.283  0.3114  1.3579 -3.4725
  236MOL0     H31799   7.216  11.186   8.244  0.9912  2.1651  0.8094
  236MOL0     H31800   7.291  11.033   8.293 -0.4601  0.1011 -0.7951
  236MOL0     H31801   7.337  11.140   8.510  0.9161 -1.1877 -2.1920
  236MOL0     H31802   7.298  11.298   8.454  1.4596  0.0467  1.4466
  236MOL0     H31803   7.052  11.214   8.406  0.5639  0.4620  1.0968
  236MOL0     H31804   7.104  11.057   8.473  0.9669 -0.1495 -1.9315
  236MOL0     H31805   7.113  11.163   8.691 -0.8965  0.5217 -1.2293
  236MOL0     H31806   7.149  11.323   8.628 -0.2695  1.0791 -1.2927
  236MOL0     H31807   6.917  11.376   8.563 -2.5438 -1.8365 -2.9188
  236MOL0     H31808   6.871  11.215   8.589 -1.5673  1.5081  1.2817
  236MOL0     H31809   6.975  11.424   8.787 -2.5794  1.2300  3.4771
  236MOL0     H31810   6.957  11.254   8.840 -0.0825  1.4081  2.2151
  236MOL0     H31811   6.746  11.538   8.699  0.9867 -0.8570  0.1609
  236MOL0     H31812   6.375  11.508   8.813 -1.4189 -0.5015 -0.8976
  236MOL0     H31813   6.472  11.586   8.691 -3.8420  1.6344 -0.1226
  236MOL0     H31814   6.357  11.310   8.676  0.3660 -0.9598 -2.8839
  236MOL0     H31815   6.461  11.369   8.553 -1.4263 -1.1768 -0.9192
  236MOL0     H31816   6.267  11.578   8.575  2.5219 -0.2909  2.4964
  236MOL0     H31817   6.185  11.419   8.594 -1.0362  1.1365  0.0371
  236MOL0     H31818   6.384  11.481   8.366 -0.6919 -0.9439 -3.0712
  236MOL0     H31819   6.222  11.529   8.348  1.4482 -1.0727 -3.6141
  236MOL0     H31820   6.201  11.096   8.283  3.4348 -0.1869  1.6110
  236MOL0     H31821   6.141  10.916   8.114  1.7150  1.1176  0.8913
  236MOL0     H31822   6.040  10.984   7.985 -0.0452 -2.8645 -2.3997
  236MOL0     H31823   6.218  10.940   7.960 -0.9651 -1.0603  1.1471
  236MOL0     H31824   6.477  11.349   7.577 -2.7879  2.0951 -0.3326
  236MOL0     H31825   6.576  11.285   7.356  0.5703 -0.3796  0.5807
  236MOL0     H31826   6.525  10.927   7.270 -1.2291  3.4695  2.4917
  236MOL0     H31827   6.398  10.935   7.166  0.0952  0.7695 -1.1555
  236MOL0     H31828   6.553  11.037   6.984  1.9638 -1.0527 -1.3887
  236MOL0     H31829   6.689  10.971   7.067 -0.1580 -0.3736 -1.3084
  236MOL0     H31830   6.642  10.791   6.912 -1.7109  2.1922 -2.2938
  236MOL0     H31831   6.468  10.774   6.958 -1.0202 -0.1371  1.2681
  236MOL0     H31832   6.667  10.727   7.178 -0.0087  1.8571 -0.2278
  236MOL0     H31833   6.498  10.681   7.154 -1.1739 -1.6421 -2.4999
  236MOL0     H31834   6.669  10.500   7.092  1.7029  0.1323  0.8315
  236MOL0     H31835   6.738  10.603   6.962  1.4965  1.9648  2.8954
  236MOL0     H31836   6.452  10.533   6.941  0.6213 -1.5343 -2.0533
  236MOL0     H31837   6.581  10.579   6.820  1.7680 -1.3112 -0.7410
  236MOL0     H31838   6.502  10.338   6.831 -0.6529  1.0852  0.7449
  236MOL0     H31839   6.573  10.325   6.983  2.5811 -0.9735  0.1645
  236MOL0     H31840   6.731  10.237   6.825 -1.5269  0.6402 -0.3016
  236MOL0     H31841   6.805  10.382   6.872  0.8634 -2.4793  1.0350
  236MOL0     H31842   6.233  11.032   7.293  1.4695 -3.5746  1.7923
  236MOL0     H31843   6.161  11.074   7.529 -0.2177  1.6521 -0.2660
  236MOL0     H31844   6.267  11.422   7.911 -1.7875 -0.6731 -1.0954
  236MOL0     H31845   6.330  11.479   8.135  1.0925  0.2201 -0.4759
  236MOL0     H31846   7.640  11.061   7.877  4.0016  1.2000 -2.2671
  236MOL0     H31847   7.751  10.833   7.823  2.0127  1.2684 -0.7113
  236MOL0     H31848   8.082  10.567   8.121  3.9611 -2.9731  1.1721
  236MOL0     H31849   8.195  10.359   8.174  1.2154  0.1285 -1.2269
  236MOL0     H31850   8.137  10.016   7.898  1.5007  2.4563 -0.5658
  236MOL0     H31851   8.217   9.935   8.027  0.5152  1.1430  5.7274
  236MOL0     H31852   7.995   9.871   8.035  1.4241 -0.3738  1.0463
  236MOL0     H31853   7.928  10.028   8.029 -1.8796 -0.7278 -0.1999
  236MOL0     H31854   8.051  10.102   8.250  2.6513 -0.7886  0.0540
  236MOL0     H31855   8.078   9.938   8.287 -0.9372 -0.3697  1.8787
  236MOL0     H31856   7.828  10.103   8.277  2.3157  1.1487  0.8888
  236MOL0     H31857   7.861   9.989   8.391  0.3719 -0.1192  0.5098
  236MOL0     H31858   7.614   9.763   8.150 -0.1221 -0.9393  1.1036
  236MOL0     H31859   7.982  10.163   7.859  1.5475  1.0740 -2.7213
  236MOL0     H31860   7.847  10.362   7.827  0.0297  1.0572 -0.8888
  237MOL0     O31861   9.992   7.845   3.531  0.8610 -0.0970  0.1974
  237MOL0     C31862   9.982   7.725   3.532 -0.0452 -0.1536 -0.7799
  237MOL0     O31863  10.072   7.640   3.474 -0.1836 -0.5762  0.7934
  237MOL0     C31864  10.191   7.689   3.428  0.2329 -0.8946  0.5133
  237MOL0     C31865  10.266   7.623   3.323  0.5514  0.2925 -0.3479
  237MOL0     C31866  10.396   7.656   3.285  0.4524  0.5876 -1.0110
  237MOL0     C31867  10.465   7.764   3.349  0.2521  0.2459  0.5177
  237MOL0     O31868  10.592   7.799   3.312  0.1869 -0.3791  0.7082
  237MOL0     C31869  10.699   7.705   3.303 -0.5805  0.3435 -0.2283
  237MOL0     C31870  10.777   7.697   3.435  0.7146  0.2866  0.6071
  237MOL0     C31871  10.796   7.823   3.508  0.9982 -0.5089  0.7972
  237MOL0     C31872  10.925   7.895   3.478  0.9030 -0.4463 -0.6010
  237MOL0     C31873  10.906   8.043   3.507  0.7553  0.4845  0.8211
  237MOL0     C31874  11.018   8.116   3.440 -0.3648  0.6037  0.4699
  237MOL0     C31875  11.064   8.255   3.496  0.4597  1.0618  0.2972
  237MOL0     C31876  11.213   8.277   3.464  0.0117 -0.3636 -0.2654
  237MOL0     N31877  11.237   8.301   3.328 -0.0313  0.6039  0.0783
  237MOL0     C31878  11.145   8.333   3.227 -0.1654  0.2876  1.0120
  237MOL0     C31879  11.218   8.312   3.113 -0.9457 -0.0944 -0.3782
  237MOL0     C31880  11.179   8.359   2.982  1.2410  0.1847  0.3902
  237MOL0     C31881  11.076   8.243   2.941 -0.6457  0.4390 -0.2078
  237MOL0     C31882  10.993   8.288   2.822  0.7371  0.1437  0.7459
  237MOL0     C31883  10.915   8.166   2.770 -0.0068 -0.4898  0.6923
  237MOL0     O31884  10.852   8.217   2.652  0.3541 -0.0730  0.7375
  237MOL0     C31885  10.736   8.151   2.613 -0.7858  1.1642 -0.2526
  237MOL0     C31886  10.632   8.152   2.710  0.6415  0.0179  0.6159
  237MOL0     C31887  10.508   8.099   2.685  0.6895  0.5119 -1.3444
  237MOL0     C31888  10.404   8.126   2.800  0.7826 -0.2212  0.3253
  237MOL0     C31889  10.493   8.031   2.558  0.0905 -0.2886  0.7561
  237MOL0     C31890  10.365   7.970   2.523  0.6576  0.8251 -0.1876
  237MOL0     O31891  10.302   7.900   2.625  0.4244 -0.2865  0.6252
  237MOL0     C31892  10.193   7.817   2.603 -0.0553 -0.0813 -0.2938
  237MOL0     C31893  10.078   7.834   2.683  0.7319 -0.3695  0.2924
  237MOL0     C31894   9.954   7.762   2.659  0.3046  0.2209 -0.7395
  237MOL0     C31895   9.951   7.655   2.570  0.3056 -0.3178  0.0172
  237MOL0     O31896   9.833   7.595   2.528 -0.1004  0.2744 -0.1771
  237MOL0     C31897   9.734   7.563   2.628 -0.4121 -0.5936  0.2243
  237MOL0     C31898   9.620   7.484   2.571  0.2879 -0.4020  0.4053
  237MOL0     C31899   9.526   7.446   2.681 -0.5704 -0.2664  0.7458
  237MOL0     C31900   9.451   7.311   2.672  1.3281  0.2293 -0.2467
  237MOL0     C31901   9.366   7.292   2.795  0.4365  0.4541  1.4094
  237MOL0     C31902   9.281   7.168   2.782 -0.2059  0.7025  0.6106
  237MOL0     C31903   9.176   7.171   2.671 -0.8547 -0.0622  0.7601
  237MOL0     C31904   9.107   7.038   2.651  1.2372  0.6245  0.3510
  237MOL0    Cl31905   9.208   6.891   2.604  0.1192  0.4505  0.3470
  237MOL0     C31906  10.066   7.639   2.488  0.3375 -0.1687 -1.1775
  237MOL0     C31907  10.185   7.718   2.509 -0.0060 -0.0845 -0.4484
  237MOL0     O31908  10.318   7.977   2.409 -0.7918  0.2432  0.6480
  237MOL0     C31909  10.592   8.028   2.458  0.3319  0.4952 -0.2600
  237MOL0     C31910  10.714   8.091   2.487 -0.1845  0.1177 -0.3513
  237MOL0     N31911  11.351   8.279   3.142  0.8557  0.4384 -0.5908
  237MOL0     N31912  11.359   8.286   3.266 -0.2663 -0.0446 -0.4246
  237MOL0     C31913  10.390   7.829   3.447  0.6077 -0.8469 -0.2997
  237MOL0     C31914  10.264   7.787   3.492 -0.5809 -0.6744  0.4614
  237MOL0     C31915   9.860   7.658   3.578 -0.2042 -0.1769  0.9593
  237MOL0     C31916   9.854   7.514   3.576  0.3006 -0.6979  0.1584
  237MOL0     C31917   9.724   7.453   3.576 -0.8162  0.2129  0.4887
  237MOL0     C31918   9.609   7.523   3.626  0.4237  0.6693 -0.1116
  237MOL0     O31919   9.497   7.447   3.644 -0.7492  0.7227  0.8216
  237MOL0     C31920   9.393   7.510   3.717 -0.5578  0.4870  0.2778
  237MOL0     C31921   9.408   7.500   3.870 -0.3553  0.0448 -0.1963
  237MOL0     C31922   9.283   7.539   3.938 -0.3973  0.4120  0.6871
  237MOL0     C31923   9.202   7.415   3.988 -0.0098 -0.1314 -0.7601
  237MOL0     C31924   9.253   7.348   4.108 -0.4622 -0.0400  0.3477
  237MOL0     C31925   9.270   7.290   4.217  0.7588  0.5180 -0.3988
  237MOL0     C31926   9.626   7.664   3.654 -0.8513  0.6403  0.1636
  237MOL0     C31927   9.750   7.726   3.626  1.2803  1.2039  0.2649
  237MOL0     H31928  10.228   7.535   3.271  0.4222  0.2878 -0.2445
  237MOL0     H31929  10.437   7.608   3.197 -1.1503 -4.3857  0.6380
  237MOL0     H31930  10.672   7.602   3.279 -0.1653  0.4026 -0.9972
  237MOL0     H31931  10.780   7.734   3.235  1.7237 -3.1887  0.7226
  237MOL0     H31932  10.726   7.623   3.497 -1.6443 -0.5228 -2.1387
  237MOL0     H31933  10.873   7.661   3.395  1.1251  0.6963  1.2015
  237MOL0     H31934  10.704   7.881   3.499  0.6363 -1.2147 -0.2294
  237MOL0     H31935  10.806   7.805   3.616 -1.0279  0.5400  1.2260
  237MOL0     H31936  11.005   7.843   3.531  0.0022 -1.4783 -0.2261
  237MOL0     H31937  10.948   7.885   3.372  2.9607 -0.4770 -0.1997
  237MOL0     H31938  10.807   8.081   3.481 -0.7672 -2.5177  1.6748
  237MOL0     H31939  10.911   8.061   3.615  0.0941  0.4064  0.8687
  237MOL0     H31940  11.107   8.052   3.441  0.5415  1.8503  1.1531
  237MOL0     H31941  10.979   8.134   3.339 -2.1896  3.1907  1.5476
  237MOL0     H31942  11.004   8.336   3.453 -0.1657  1.1076  1.2231
  237MOL0     H31943  11.052   8.249   3.605 -0.5670  1.0306  0.1889
  237MOL0     H31944  11.283   8.199   3.495  0.4779 -0.3960 -1.3670
  237MOL0     H31945  11.241   8.367   3.520 -1.2681 -1.9012  3.1120
  237MOL0     H31946  11.040   8.357   3.242 -0.1030  0.4970  1.1030
  237MOL0     H31947  11.129   8.456   2.990  1.2894  0.2013  0.4884
  237MOL0     H31948  11.262   8.360   2.911 -0.2631  0.9754 -1.4555
  237MOL0     H31949  11.019   8.217   3.032  1.4547 -2.1447  0.4947
  237MOL0     H31950  11.131   8.153   2.911  0.7260  1.1200  0.1922
  237MOL0     H31951  11.058   8.317   2.739 -0.5476 -2.1006 -1.1855
  237MOL0     H31952  10.930   8.373   2.850 -1.8160 -1.0583 -0.9129
  237MOL0     H31953  10.848   8.122   2.844 -1.4384 -3.5670 -2.1772
  237MOL0     H31954  10.979   8.081   2.744  1.5024  0.6697  0.4624
  237MOL0     H31955  10.648   8.219   2.794  0.2483  0.8496  0.0319
  237MOL0     H31956  10.412   8.049   2.878  3.3016 -0.4289 -0.0625
  237MOL0     H31957  10.416   8.219   2.856  1.5498 -1.4424  2.2751
  237MOL0     H31958  10.305   8.129   2.752  0.8140 -2.6991 -0.0202
  237MOL0     H31959  10.071   7.911   2.759  3.1362  0.0706  0.1697
  237MOL0     H31960   9.863   7.788   2.712  0.1578  2.0279 -1.7972
  237MOL0     H31961   9.776   7.497   2.704 -2.6552 -2.5535 -0.0942
  237MOL0     H31962   9.701   7.656   2.675  3.6433  1.5528 -0.7407
  237MOL0     H31963   9.567   7.531   2.488  1.1540 -1.3398 -0.7301
  237MOL0     H31964   9.658   7.388   2.532  1.1037  0.6251 -1.4650
  237MOL0     H31965   9.455   7.529   2.694  0.7539  1.0171  0.0167
  237MOL0     H31966   9.586   7.440   2.773  1.8708  0.4903 -0.7027
  237MOL0     H31967   9.391   7.320   2.581 -1.8353 -1.7810  1.4481
  237MOL0     H31968   9.522   7.232   2.645  2.2325  0.6324  0.8707
  237MOL0     H31969   9.295   7.372   2.818 -0.6968 -0.2874  0.6370
  237MOL0     H31970   9.434   7.261   2.875  2.2394  1.0220  0.1458
  237MOL0     H31971   9.330   7.071   2.766 -1.6761  0.3698 -2.6282
  237MOL0     H31972   9.236   7.157   2.882 -1.2200  0.6521  0.1584
  237MOL0     H31973   9.219   7.211   2.579  3.9259 -0.5397  2.4897
  237MOL0     H31974   9.088   7.227   2.702 -2.1842 -2.9710  2.6841
  237MOL0     H31975   9.038   7.060   2.570  1.9799 -0.7997 -0.7258
  237MOL0     H31976   9.064   7.013   2.749  2.4123  1.5030  1.1203
  237MOL0     H31977  10.048   7.556   2.420 -1.9945 -0.2171 -0.5873
  237MOL0     H31978  10.267   7.694   2.442  1.1409  1.3379  0.3881
  237MOL0     H31979  10.571   7.986   2.360  1.8809  2.7906 -1.6663
  237MOL0     H31980  10.792   8.076   2.413 -0.9908  0.0879 -1.2214
  237MOL0     H31981  10.450   7.895   3.509 -0.3134 -1.3250  1.1473
  237MOL0     H31982  10.231   7.835   3.584 -0.9867  1.8196 -0.9098
  237MOL0     H31983   9.936   7.445   3.562  0.0483 -0.7884 -1.0558
  237MOL0     H31984   9.727   7.345   3.575  4.1427  0.1331  0.3361
  237MOL0     H31985   9.382   7.614   3.684 -0.7754 -0.3181 -2.4470
  237MOL0     H31986   9.314   7.442   3.686 -0.4913  0.5697 -0.0775
  237MOL0     H31987   9.494   7.566   3.884  0.7916  0.1101 -5.4615
  237MOL0     H31988   9.445   7.402   3.903 -0.4534  0.2767  0.6240
  237MOL0     H31989   9.222   7.606   3.878 -0.6195 -1.1640 -0.9478
  237MOL0     H31990   9.303   7.591   4.033  1.9704 -2.0167  1.6501
  237MOL0     H31991   9.186   7.339   3.911  0.7917 -1.5474  0.4253
  237MOL0     H31992   9.099   7.446   4.006 -0.0457  0.1490 -1.4115
  237MOL0     H31993   9.284   7.228   4.304  0.0666 -0.7842 -1.1770
  237MOL0     H31994   9.548   7.734   3.682  0.0442  1.4991  0.6020
  237MOL0     H31995   9.757   7.832   3.647  2.0185  1.2142  0.0121
  238MOL0     O31996   0.305   8.881  10.144 -0.0185  1.0118  0.2669
  238MOL0     C31997   0.184   8.886  10.183  0.1438  0.1221  0.4303
  238MOL0     O31998   0.068   8.831  10.114  0.2434  0.3312  0.0988
  238MOL0     C31999   0.070   8.771   9.992  0.7889 -0.2305  0.1141
  238MOL0     C32000  -0.044   8.780   9.916  0.8439  0.1832  0.2990
  238MOL0     C32001  -0.047   8.732   9.785  0.4349 -0.4304  0.2740
  238MOL0     C32002   0.060   8.659   9.738 -0.4597  1.2227  0.8828
  238MOL0     O32003   0.039   8.613   9.607  0.4928 -0.4005  0.6056
  238MOL0     C32004   0.112   8.496   9.561  0.1289  0.4838  0.5279
  238MOL0     C32005   0.042   8.437   9.440 -0.1428 -0.9256  0.1782
  238MOL0     C32006   0.145   8.349   9.373 -0.7633  0.7485  0.5051
  238MOL0     C32007   0.210   8.401   9.244  0.2361 -0.1902  0.4223
  238MOL0     C32008   0.342   8.336   9.213  0.5532 -0.1448 -0.0199
  238MOL0     C32009   0.399   8.395   9.077 -0.2453  0.2608  0.0351
  238MOL0     C32010   0.289   8.375   8.963 -0.4208 -0.7654  0.4816
  238MOL0     C32011   0.344   8.351   8.815 -0.4238  0.5102  0.0737
  238MOL0     N32012   0.415   8.224   8.794  0.9557 -0.5780  0.4339
  238MOL0     C32013   0.381   8.132   8.697  0.1505 -0.0792  0.4848
  238MOL0     C32014   0.456   8.019   8.718 -0.4591  0.4780 -0.1340
  238MOL0     C32015   0.454   7.895   8.640 -0.5849 -0.1939  0.1289
  238MOL0     C32016   0.560   7.798   8.684  0.2505 -0.2671 -0.0319
  238MOL0     C32017   0.549   7.661   8.614  0.1992  0.8970 -0.3006
  238MOL0     C32018   0.580   7.668   8.468 -0.4383 -0.0034  1.0508
  238MOL0     O32019   0.714   7.716   8.435 -0.4899 -0.0541 -0.5412
  238MOL0     C32020   0.815   7.623   8.449 -0.4453  0.5121 -0.4443
  238MOL0     C32021   0.935   7.658   8.518  0.0738  0.4924 -0.2043
  238MOL0     C32022   1.037   7.556   8.529  0.2559 -0.6501 -0.2827
  238MOL0     C32023   1.170   7.590   8.583  0.2964  0.3802  0.3574
  238MOL0     C32024   1.011   7.428   8.483 -0.7325  0.7949 -0.0767
  238MOL0     C32025   1.118   7.320   8.497  0.3715 -0.3085  0.5909
  238MOL0     O32026   1.071   7.202   8.539 -0.4389  0.0750 -0.5875
  238MOL0     C32027   1.169   7.117   8.591  0.0461  0.1218  0.9299
  238MOL0     C32028   1.279   7.152   8.667  0.6653 -0.6051 -0.2916
  238MOL0     C32029   1.358   7.054   8.714  0.1176  0.4198  1.1545
  238MOL0     C32030   1.327   6.925   8.673 -1.2643 -0.1051  0.3122
  238MOL0     O32031   1.419   6.822   8.709  0.4962 -0.0469 -0.2892
  238MOL0     C32032   1.412   6.784   8.848  0.0328 -0.8159 -0.2479
  238MOL0     C32033   1.512   6.674   8.868 -0.1205  0.0233  0.2190
  238MOL0     C32034   1.465   6.533   8.828  0.8087  0.3533 -0.6763
  238MOL0     C32035   1.553   6.439   8.916 -0.4171 -0.0098  0.3494
  238MOL0     C32036   1.515   6.291   8.898 -0.5731  0.0234  1.0027
  238MOL0     C32037   1.489   6.234   8.752 -0.0151  0.7058  0.8337
  238MOL0     C32038   1.611   6.249   8.662  0.2696 -0.1763  0.5105
  238MOL0     C32039   1.585   6.224   8.510  0.4537 -0.1177 -0.1784
  238MOL0    Cl32040   1.556   6.054   8.452  0.4061 -0.4396  0.3990
  238MOL0     C32041   1.225   6.883   8.596 -0.3937 -0.9972  0.9318
  238MOL0     C32042   1.142   6.985   8.552 -0.7079  0.2620 -0.5084
  238MOL0     O32043   1.234   7.340   8.458  0.5152  0.1713 -0.1360
  238MOL0     C32044   0.905   7.401   8.397 -0.3194  0.5505 -0.0315
  238MOL0     C32045   0.807   7.500   8.384 -0.4246 -0.5244  0.1471
  238MOL0     N32046   0.529   8.038   8.831 -0.1191 -1.4384  0.7924
  238MOL0     N32047   0.504   8.163   8.870 -0.9344 -0.3272 -0.7231
  238MOL0     C32048   0.175   8.638   9.824  0.7672 -0.0304  0.6120
  238MOL0     C32049   0.181   8.700   9.946  0.8406 -0.5792 -0.5912
  238MOL0     C32050   0.167   8.964  10.305  0.5361 -0.4017 -0.4310
  238MOL0     C32051   0.043   9.004  10.359  0.2899 -0.0193  0.1579
  238MOL0     C32052   0.024   9.093  10.461  0.0597  0.0512  0.2816
  238MOL0     C32053   0.132   9.137  10.532 -0.1645  0.7820  0.0352
  238MOL0     O32054   0.112   9.219  10.635 -0.1268 -0.1845 -0.7404
  238MOL0     C32055   0.198   9.224  10.750 -0.4793 -0.2861 -0.3877
  238MOL0     C32056   0.099   9.245  10.863  1.0417 -0.3631  0.3635
  238MOL0     C32057   0.000   9.125  10.898  0.1572 -0.2651  0.0726
  238MOL0     C32058  -0.076   9.156  11.026 -0.0620 -0.3060  0.2392
  238MOL0     C32059  -0.162   9.051  11.076  0.5239  0.1025  0.2068
  238MOL0     C32060  -0.227   8.962  11.125  1.0106  0.3472  0.2897
  238MOL0     C32061   0.258   9.095  10.487  0.0288 -0.7063  0.8204
  238MOL0     C32062   0.269   9.016  10.378  0.3559 -0.3774 -0.6547
  238MOL0     H32063  -0.132   8.828   9.957 -1.7656 -3.2575 -0.8887
  238MOL0     H32064  -0.138   8.731   9.726  1.0575 -0.8848 -0.7094
  238MOL0     H32065   0.218   8.512   9.541 -0.5808  3.9421 -1.2102
  238MOL0     H32066   0.109   8.422   9.641 -4.6725 -1.3477 -0.9764
  238MOL0     H32067  -0.049   8.380   9.463 -0.2952 -1.3419 -1.3151
  238MOL0     H32068   0.012   8.515   9.369  1.4408 -0.0421  0.4372
  238MOL0     H32069   0.222   8.315   9.442 -1.3879  0.8650  1.2761
  238MOL0     H32070   0.082   8.261   9.356 -0.6330  0.2096  2.5427
  238MOL0     H32071   0.131   8.386   9.170  0.8448 -0.2150 -0.2279
  238MOL0     H32072   0.232   8.506   9.263 -1.1173 -0.2824  2.9466
  238MOL0     H32073   0.416   8.357   9.290  1.9079 -4.2954  0.0410
  238MOL0     H32074   0.328   8.228   9.201 -0.0982  0.0220 -0.8874
  238MOL0     H32075   0.421   8.500   9.095  2.0787 -0.4265  1.7490
  238MOL0     H32076   0.489   8.336   9.058 -1.3635 -2.0481  1.4153
  238MOL0     H32077   0.225   8.289   8.982  0.0643 -1.6856 -1.7348
  238MOL0     H32078   0.223   8.462   8.955  0.6683 -0.0871 -2.9328
  238MOL0     H32079   0.419   8.430   8.804 -2.1839  2.2917  0.4107
  238MOL0     H32080   0.278   8.374   8.732  0.7426 -1.6537 -1.5524
  238MOL0     H32081   0.317   8.151   8.612  1.1428  1.3643  0.0291
  238MOL0     H32082   0.355   7.850   8.642 -0.3889 -0.5952  1.0074
  238MOL0     H32083   0.465   7.933   8.538  1.6710 -0.0309  0.3841
  238MOL0     H32084   0.544   7.781   8.790  1.4144  0.0787  0.2063
  238MOL0     H32085   0.655   7.851   8.674  0.6663 -0.8770  0.5734
  238MOL0     H32086   0.443   7.635   8.620 -0.1693  2.4744  0.7907
  238MOL0     H32087   0.622   7.590   8.656 -0.9312 -1.7672 -2.5008
  238MOL0     H32088   0.511   7.738   8.420 -0.4166  0.7972  2.1378
  238MOL0     H32089   0.557   7.566   8.436 -1.7921 -0.4679  3.2592
  238MOL0     H32090   0.940   7.756   8.563 -0.3684  0.6285 -0.4464
  238MOL0     H32091   1.253   7.598   8.512 -0.5174  1.5711 -0.4939
  238MOL0     H32092   1.151   7.680   8.642 -0.0347 -0.3157  1.3653
  238MOL0     H32093   1.198   7.524   8.667  2.2494  0.9304  0.1871
  238MOL0     H32094   1.329   7.246   8.689 -0.8462  0.3469 -0.8150
  238MOL0     H32095   1.443   7.082   8.775  0.2324  2.0671  0.2758
  238MOL0     H32096   1.438   6.868   8.913 -1.1339 -1.0209  0.5158
  238MOL0     H32097   1.313   6.751   8.883 -0.3066 -1.3844 -1.6701
  238MOL0     H32098   1.599   6.706   8.810 -0.7498  2.0495  0.3380
  238MOL0     H32099   1.557   6.679   8.967  3.5975 -1.7691 -1.1999
  238MOL0     H32100   1.484   6.514   8.722  1.2941  2.2561 -0.9701
  238MOL0     H32101   1.362   6.513   8.857  0.8402  3.6051  2.2545
  238MOL0     H32102   1.652   6.449   8.869 -1.5588  1.0422 -1.9727
  238MOL0     H32103   1.561   6.461   9.023 -0.3537 -0.9924  0.5572
  238MOL0     H32104   1.424   6.267   8.953 -2.9304  2.4675 -1.4872
  238MOL0     H32105   1.596   6.235   8.946 -0.7485 -1.8861 -0.7699
  238MOL0     H32106   1.457   6.130   8.763 -0.3461  0.6844 -0.2074
  238MOL0     H32107   1.414   6.298   8.704  1.1084  1.5669  0.1830
  238MOL0     H32108   1.688   6.187   8.708 -1.5220 -1.8214  1.4530
  238MOL0     H32109   1.650   6.351   8.676 -2.6198  0.8362  2.1120
  238MOL0     H32110   1.671   6.268   8.459  1.0014 -0.0691  0.7509
  238MOL0     H32111   1.508   6.298   8.491  0.8758  0.1708 -0.7907
  238MOL0     H32112   1.205   6.782   8.561 -1.3406 -0.8246  0.9588
  238MOL0     H32113   1.050   6.973   8.495  0.3582 -0.4743 -2.1128
  238MOL0     H32114   0.900   7.309   8.341 -0.9465  0.4705  0.1482
  238MOL0     H32115   0.712   7.463   8.346 -0.5286 -0.0703 -0.0371
  238MOL0     H32116   0.267   8.596   9.785  0.8454  0.3518  0.3746
  238MOL0     H32117   0.266   8.676  10.009  1.7935 -2.4120 -2.4621
  238MOL0     H32118  -0.038   8.973  10.294 -2.4683  1.5579  2.6175
  238MOL0     H32119  -0.077   9.105  10.498  0.3315  1.7386  0.5580
  238MOL0     H32120   0.269   9.142  10.765 -1.8430 -1.0240  2.5506
  238MOL0     H32121   0.265   9.311  10.752 -0.2294 -0.4901  1.4674
  238MOL0     H32122   0.034   9.333  10.857  2.5393  0.8412  0.9645
  238MOL0     H32123   0.164   9.261  10.950  0.7527 -1.5617  0.8180
  238MOL0     H32124   0.059   9.033  10.904  0.7119  0.0006 -1.0654
  238MOL0     H32125  -0.070   9.105  10.817  1.1501  0.2603 -0.9483
  238MOL0     H32126  -0.121   9.254  11.010  0.4438 -0.2405 -0.8559
  238MOL0     H32127   0.004   9.177  11.098  0.2936 -1.1427  0.1089
  238MOL0     H32128  -0.290   8.885  11.165 -0.4862  1.1777 -0.4129
  238MOL0     H32129   0.345   9.145  10.527 -1.3924  0.2736  2.8620
  238MOL0     H32130   0.374   9.002  10.356  1.1709 -2.6904  3.6853
  239MOL0     O32131   3.137   3.181   3.517 -0.3391  0.5866 -0.8712
  239MOL0     C32132   3.046   3.157   3.593 -0.1375  0.3673 -0.1115
  239MOL0     O32133   2.977   3.251   3.659 -0.5451 -0.7985 -0.4349
  239MOL0     C32134   3.029   3.376   3.661 -0.3173 -0.4890 -0.7548
  239MOL0     C32135   2.973   3.471   3.572  0.8285  1.4310  0.1486
  239MOL0     C32136   3.027   3.597   3.560 -0.6583 -0.1235 -0.0374
  239MOL0     C32137   3.130   3.639   3.644  0.6143  0.8904  0.3263
  239MOL0     O32138   3.161   3.774   3.651  0.1009 -0.3159  0.1489
  239MOL0     C32139   3.103   3.870   3.569 -0.4122 -0.5666 -0.5331
  239MOL0     C32140   3.170   3.996   3.608 -0.0532 -1.2003  1.0520
  239MOL0     C32141   3.163   4.039   3.757 -0.0194  0.6873 -0.0052
  239MOL0     C32142   3.266   4.153   3.771  0.3869  1.1429  0.0130
  239MOL0     C32143   3.290   4.199   3.922 -0.2268  0.4405  0.2366
  239MOL0     C32144   3.407   4.297   3.949 -0.6581 -0.3090 -0.6574
  239MOL0     C32145   3.400   4.349   4.093 -0.6075  0.5973  0.8159
  239MOL0     C32146   3.535   4.372   4.143 -0.6380  0.1136 -0.5160
  239MOL0     N32147   3.620   4.463   4.059  1.0435 -0.5363 -0.4789
  239MOL0     C32148   3.759   4.484   4.083  0.8954  0.3086  0.2651
  239MOL0     C32149   3.790   4.590   4.003  0.3699  0.0486 -0.6720
  239MOL0     C32150   3.920   4.665   4.004 -0.0103 -1.1983 -0.1532
  239MOL0     C32151   3.990   4.668   3.866 -0.3372  0.7645 -0.4179
  239MOL0     C32152   3.984   4.799   3.781  0.7296 -0.4782 -0.7087
  239MOL0     C32153   4.074   4.798   3.666  0.0656  0.3285 -0.2405
  239MOL0     O32154   3.999   4.799   3.551 -0.2079  0.9398  0.6284
  239MOL0     C32155   4.080   4.811   3.442  0.2514 -0.6669  0.4224
  239MOL0     C32156   4.218   4.828   3.429  0.0151  0.7829  0.7713
  239MOL0     C32157   4.280   4.839   3.302  0.5177 -0.3881 -0.2383
  239MOL0     C32158   4.428   4.860   3.300 -0.5713  1.1706 -0.7185
  239MOL0     C32159   4.205   4.828   3.186  0.1581  1.1550 -0.0584
  239MOL0     C32160   4.274   4.825   3.044 -0.8397  1.0346 -0.9436
  239MOL0     O32161   4.222   4.740   2.953 -0.6039 -0.5858  0.1489
  239MOL0     C32162   4.256   4.731   2.819 -0.2112  1.0697 -1.2490
  239MOL0     C32163   4.180   4.630   2.747  0.2893 -0.1034 -0.1443
  239MOL0     C32164   4.201   4.613   2.612 -0.4368 -0.3274 -0.0336
  239MOL0     C32165   4.297   4.692   2.543 -0.9199  0.7938 -0.5389
  239MOL0     O32166   4.318   4.661   2.408  0.2513  0.0510 -0.1362
  239MOL0     C32167   4.394   4.751   2.328 -0.7794  0.7660  0.1717
  239MOL0     C32168   4.348   4.892   2.331 -0.5390 -0.1920  0.1035
  239MOL0     C32169   4.462   4.970   2.257 -0.0837  0.2794  0.8765
  239MOL0     C32170   4.445   5.119   2.275 -0.3203  0.6693 -0.5831
  239MOL0     C32171   4.312   5.163   2.213 -0.3197 -0.1744 -0.1233
  239MOL0     C32172   4.286   5.311   2.240  0.9283 -0.2599  0.1682
  239MOL0     C32173   4.179   5.388   2.162 -0.7166  0.0487 -0.3225
  239MOL0     C32174   4.038   5.372   2.226  0.3685 -0.9888 -0.5743
  239MOL0    Cl32175   4.017   5.502   2.347 -0.0045  0.1811 -0.7204
  239MOL0     C32176   4.383   4.778   2.611  0.3790 -0.2347 -0.5714
  239MOL0     C32177   4.350   4.798   2.748 -0.2269  0.5105  0.0585
  239MOL0     O32178   4.364   4.898   3.027  0.0031 -0.4423 -0.5896
  239MOL0     C32179   4.063   4.828   3.194 -0.4966 -0.6190 -0.4176
  239MOL0     C32180   4.004   4.810   3.317 -0.1990  0.0602 -0.1854
  239MOL0     N32181   3.679   4.630   3.929 -0.2800  0.1353 -0.5482
  239MOL0     N32182   3.587   4.553   3.958 -0.4698 -0.1912 -0.7837
  239MOL0     C32183   3.184   3.552   3.730  0.5644  0.2733 -0.1363
  239MOL0     C32184   3.137   3.421   3.739  1.0556  0.5855 -0.4790
  239MOL0     C32185   3.005   3.009   3.593  0.7271 -0.3285 -0.5509
  239MOL0     C32186   3.097   2.913   3.564 -0.3524  0.2971  0.2495
  239MOL0     C32187   3.070   2.769   3.572  0.2168  0.4047 -0.5122
  239MOL0     C32188   2.946   2.735   3.606  0.3392  0.8369 -0.1149
  239MOL0     O32189   2.919   2.606   3.608  0.3468  0.5395  0.3932
  239MOL0     C32190   2.843   2.553   3.726  0.7179  0.0845 -0.1260
  239MOL0     C32191   2.896   2.593   3.873 -1.1945  0.9553 -0.2096
  239MOL0     C32192   2.803   2.541   3.985 -1.2398  0.1436  1.1453
  239MOL0     C32193   2.870   2.566   4.117  0.3259 -0.3318 -0.4012
  239MOL0     C32194   2.777   2.509   4.215 -0.6193 -0.7487  1.1069
  239MOL0     C32195   2.693   2.465   4.283  0.5350 -0.1096 -0.2759
  239MOL0     C32196   2.853   2.834   3.634 -0.3691  0.1920 -0.4859
  239MOL0     C32197   2.876   2.969   3.633  0.3344  0.6697  0.3525
  239MOL0     H32198   2.899   3.432   3.502  3.4241  2.5091 -3.5271
  239MOL0     H32199   2.970   3.670   3.504 -2.2463 -0.7511  0.7017
  239MOL0     H32200   3.114   3.850   3.462 -1.1636 -2.8528 -0.2292
  239MOL0     H32201   2.997   3.866   3.596  0.0630 -4.3522  1.4928
  239MOL0     H32202   3.267   4.013   3.559  0.4881  1.4139  2.7852
  239MOL0     H32203   3.101   4.065   3.558  2.3086  1.2565  0.9092
  239MOL0     H32204   3.064   4.072   3.788 -0.2860  0.4398 -0.5810
  239MOL0     H32205   3.191   3.957   3.823  1.3871  1.1689  0.0330
  239MOL0     H32206   3.363   4.125   3.729 -0.2473 -0.4636 -0.4720
  239MOL0     H32207   3.226   4.231   3.706  0.8812  0.1165 -1.5776
  239MOL0     H32208   3.203   4.253   3.958 -1.7373  0.2057 -2.7711
  239MOL0     H32209   3.324   4.110   3.977 -2.3783 -0.2101  0.5832
  239MOL0     H32210   3.499   4.246   3.921 -1.1924 -2.6393  1.4368
  239MOL0     H32211   3.396   4.383   3.883  1.9894 -0.8881 -1.9563
  239MOL0     H32212   3.330   4.433   4.104 -0.8625  0.2779  1.7090
  239MOL0     H32213   3.357   4.285   4.170  2.1870  1.2690  3.1045
  239MOL0     H32214   3.592   4.280   4.155 -0.6059 -0.0597 -1.8255
  239MOL0     H32215   3.514   4.414   4.242 -2.4836 -3.4809  0.7756
  239MOL0     H32216   3.814   4.434   4.163 -2.0752 -1.1818  1.5444
  239MOL0     H32217   3.899   4.768   4.035 -0.6567 -1.7702  1.4182
  239MOL0     H32218   3.981   4.618   4.082  1.7305  0.5698 -0.3676
  239MOL0     H32219   3.934   4.593   3.810 -1.4271  1.7640 -0.6929
  239MOL0     H32220   4.096   4.641   3.874 -1.0871 -1.9214  2.4514
  239MOL0     H32221   3.999   4.886   3.846 -0.1680  0.2851 -1.4768
  239MOL0     H32222   3.885   4.814   3.737  0.3708  1.7793  0.6988
  239MOL0     H32223   4.144   4.714   3.673  1.1220  0.7013 -4.0117
  239MOL0     H32224   4.119   4.897   3.680 -2.4641  1.2938  1.7858
  239MOL0     H32225   4.284   4.841   3.514  1.9249  3.4711 -0.9514
  239MOL0     H32226   4.488   4.784   3.249 -0.3866  1.5297 -1.0461
  239MOL0     H32227   4.436   4.961   3.257 -0.1663  0.6164 -2.0078
  239MOL0     H32228   4.463   4.862   3.404  0.7585  4.0461 -1.1113
  239MOL0     H32229   4.114   4.568   2.807  0.4282 -0.0553  0.0588
  239MOL0     H32230   4.150   4.534   2.557 -2.2152  0.5019  0.3292
  239MOL0     H32231   4.498   4.754   2.362 -0.2552  0.8695 -1.3747
  239MOL0     H32232   4.387   4.724   2.223  1.0093  0.2893  0.1453
  239MOL0     H32233   4.263   4.886   2.263 -0.1432  0.7275 -0.4862
  239MOL0     H32234   4.319   4.925   2.431 -2.7400 -1.3393 -0.0950
  239MOL0     H32235   4.463   4.939   2.152  0.5490 -0.9969  1.2374
  239MOL0     H32236   4.565   4.947   2.286  0.7758  4.3871  1.6654
  239MOL0     H32237   4.445   5.141   2.382  0.6055 -2.4403  0.1684
  239MOL0     H32238   4.534   5.171   2.239  2.1502 -1.5621  1.7367
  239MOL0     H32239   4.227   5.104   2.247 -0.5723  1.1896  1.7712
  239MOL0     H32240   4.336   5.138   2.109  3.7781 -1.3679  0.9040
  239MOL0     H32241   4.264   5.309   2.347  1.2680  0.9638  0.2657
  239MOL0     H32242   4.379   5.367   2.227 -0.7414  2.1490 -2.6840
  239MOL0     H32243   4.174   5.342   2.063  0.5793 -2.0593  0.5278
  239MOL0     H32244   4.196   5.495   2.146  1.9397 -0.5031 -1.8020
  239MOL0     H32245   4.020   5.272   2.267  1.5191 -0.5731  1.0253
  239MOL0     H32246   3.962   5.390   2.150  3.4100 -1.0510 -3.9045
  239MOL0     H32247   4.465   4.826   2.558 -1.0966 -1.4523 -4.2111
  239MOL0     H32248   4.418   4.863   2.803  0.4694  1.7743 -2.1718
  239MOL0     H32249   4.002   4.832   3.104  1.8331  0.5879 -2.0597
  239MOL0     H32250   3.897   4.795   3.314 -0.6114  1.5602  2.7346
  239MOL0     H32251   3.268   3.572   3.795 -1.3865 -0.6831  2.9262
  239MOL0     H32252   3.157   3.344   3.812  0.1447  0.9460  0.1635
  239MOL0     H32253   3.201   2.927   3.538 -1.3998  2.8439 -3.3812
  239MOL0     H32254   3.149   2.698   3.553 -0.1918 -0.3660  0.5297
  239MOL0     H32255   2.743   2.595   3.713  0.8903  1.2161  1.9171
  239MOL0     H32256   2.846   2.444   3.731  0.9189  0.0762 -0.4245
  239MOL0     H32257   2.901   2.702   3.879 -1.3962  0.9971 -0.7645
  239MOL0     H32258   2.994   2.547   3.884 -2.7983 -2.9415 -0.5905
  239MOL0     H32259   2.792   2.434   3.965  2.5841  0.1486 -2.1417
  239MOL0     H32260   2.713   2.600   3.962  0.4306  1.7775 -1.8119
  239MOL0     H32261   2.898   2.672   4.125 -0.6223 -0.1428  0.7122
  239MOL0     H32262   2.954   2.503   4.144 -1.0808 -0.8263  3.5934
  239MOL0     H32263   2.606   2.433   4.337 -0.4567 -0.2103 -1.8797
  239MOL0     H32264   2.750   2.802   3.645  0.0378 -1.2743 -0.7534
  239MOL0     H32265   2.789   3.034   3.638  0.0392  0.9848 -4.1580
  240MOL0     O32266   9.299   6.251   6.369  0.3946 -0.3266 -0.5775
  240MOL0     C32267   9.296   6.313   6.263 -0.0185 -0.1971 -0.7699
  240MOL0     O32268   9.260   6.441   6.238  0.5300 -1.0844 -0.0476
  240MOL0     C32269   9.264   6.539   6.333  0.1632  0.4621 -0.1190
  240MOL0     C32270   9.321   6.663   6.286 -0.6733  0.3709  0.6025
  240MOL0     C32271   9.340   6.763   6.373  0.4459 -0.8063 -0.4994
  240MOL0     C32272   9.305   6.757   6.509  0.5604 -0.6500 -0.1319
  240MOL0     O32273   9.339   6.857   6.597  0.4015 -0.1698  0.1053
  240MOL0     C32274   9.477   6.863   6.647 -0.6854 -1.2234 -0.3266
  240MOL0     C32275   9.528   7.013   6.660  0.9732 -0.1254 -0.1375
  240MOL0     C32276   9.499   7.094   6.535  0.1465  0.3429  0.2492
  240MOL0     C32277   9.539   7.243   6.535  0.1516  0.6357 -0.0956
  240MOL0     C32278   9.677   7.266   6.502  0.0364  0.2096 -0.3345
  240MOL0     C32279   9.704   7.409   6.508 -0.9769 -0.3845  0.1653
  240MOL0     C32280   9.847   7.421   6.467  0.3228 -0.1147 -0.5938
  240MOL0     C32281   9.883   7.576   6.465 -0.1915  0.0074 -0.0691
  240MOL0     N32282   9.969   7.606   6.578  0.7350 -0.3265  0.0837
  240MOL0     C32283   9.933   7.579   6.711 -0.2599 -0.4482  0.0104
  240MOL0     C32284  10.009   7.671   6.784  0.7259  0.1991  1.1761
  240MOL0     C32285  10.017   7.690   6.932  0.0263 -0.1297  0.5985
  240MOL0     C32286  10.103   7.577   6.999 -0.1620 -0.7475 -0.2833
  240MOL0     C32287  10.128   7.611   7.135  0.1344  0.2518 -0.1024
  240MOL0     C32288  10.012   7.655   7.217 -0.8783 -0.1644  0.7109
  240MOL0     O32289  10.057   7.691   7.341 -0.4961  0.1645  0.0367
  240MOL0     C32290   9.963   7.716   7.435  0.7793  0.1617  0.1362
  240MOL0     C32291  10.012   7.712   7.568  1.5418 -0.1872  0.2630
  240MOL0     C32292   9.920   7.744   7.675  0.1998  1.1688  0.3215
  240MOL0     C32293   9.971   7.722   7.809  0.2617 -0.4913 -0.6616
  240MOL0     C32294   9.789   7.799   7.655  0.5893  0.2356  0.0179
  240MOL0     C32295   9.701   7.841   7.761  0.0347  0.4167  0.9264
  240MOL0     O32296   9.567   7.839   7.735 -0.4636 -0.1315  0.0430
  240MOL0     C32297   9.494   7.867   7.850 -0.5478  0.0559 -0.2405
  240MOL0     C32298   9.449   7.994   7.898 -0.2646 -0.1440  0.0484
  240MOL0     C32299   9.375   8.000   8.018 -0.1741  0.2612 -0.2571
  240MOL0     C32300   9.346   7.886   8.093 -0.1173 -0.0359 -0.5048
  240MOL0     O32301   9.269   7.896   8.200  0.5253 -0.3066 -0.5330
  240MOL0     C32302   9.261   8.023   8.277 -0.8485  0.2396  0.8619
  240MOL0     C32303   9.198   7.998   8.416  0.1294 -0.0243  0.8985
  240MOL0     C32304   9.295   7.950   8.524 -0.0149 -0.2103  0.1474
  240MOL0     C32305   9.237   7.845   8.612  0.3939  0.0050  0.9490
  240MOL0     C32306   9.112   7.887   8.687 -0.0795  0.0363 -0.1710
  240MOL0     C32307   9.042   7.773   8.775 -0.5645  0.0793  0.8766
  240MOL0     C32308   8.971   7.671   8.685  0.3120  0.8736 -0.3278
  240MOL0     C32309   8.959   7.531   8.738 -0.5695  0.6229  0.4912
  240MOL0    Cl32310   8.844   7.435   8.627 -0.3586 -0.0608  0.2213
  240MOL0     C32311   9.389   7.765   8.043 -0.2159  0.0261  0.1636
  240MOL0     C32312   9.457   7.753   7.918 -0.6071 -0.0314 -0.6107
  240MOL0     O32313   9.751   7.878   7.863 -0.7076 -0.1075  0.6851
  240MOL0     C32314   9.752   7.815   7.520  0.5688  0.4599 -0.5765
  240MOL0     C32315   9.835   7.769   7.417  0.1449 -0.8077 -0.1720
  240MOL0     N32316  10.066   7.753   6.694  0.6909 -0.8994  1.1343
  240MOL0     N32317  10.051   7.717   6.570  0.2325  0.4244  0.1715
  240MOL0     C32318   9.231   6.645   6.558 -0.0087 -1.1263  0.6926
  240MOL0     C32319   9.221   6.527   6.471 -0.6092 -0.0711 -0.7939
  240MOL0     C32320   9.320   6.231   6.142  1.1524 -0.2645 -0.0705
  240MOL0     C32321   9.300   6.275   6.017 -0.5259 -0.8460  0.2898
  240MOL0     C32322   9.343   6.200   5.904  0.3278 -0.1110  0.3858
  240MOL0     C32323   9.390   6.073   5.917 -0.2545  0.0245  0.3116
  240MOL0     O32324   9.414   6.011   5.795  0.0708  0.5066 -0.2002
  240MOL0     C32325   9.443   5.867   5.780  0.3327  0.8889 -0.6116
  240MOL0     C32326   9.319   5.779   5.818  0.5096 -0.9937 -0.4317
  240MOL0     C32327   9.184   5.821   5.734 -0.6848 -0.2670 -0.0293
  240MOL0     C32328   9.059   5.806   5.815  0.4147 -0.5868  0.1483
  240MOL0     C32329   9.053   5.872   5.952 -0.8400  0.2965 -0.1399
  240MOL0     C32330   9.085   5.926   6.057 -0.3069  0.8408  0.1532
  240MOL0     C32331   9.407   6.024   6.053 -0.0426 -0.2622 -0.1959
  240MOL0     C32332   9.371   6.109   6.155  0.0611  0.3459  0.4119
  240MOL0     H32333   9.337   6.679   6.180 -0.7968 -2.9251 -0.0100
  240MOL0     H32334   9.380   6.851   6.323 -1.5942 -0.4878 -1.6681
  240MOL0     H32335   9.469   6.816   6.745 -0.8778 -1.7893 -0.6082
  240MOL0     H32336   9.537   6.790   6.592 -1.0757 -1.8345  0.0522
  240MOL0     H32337   9.472   7.057   6.743 -0.7708 -2.1578 -0.1366
  240MOL0     H32338   9.634   7.040   6.668 -0.0502  4.3980  0.6844
  240MOL0     H32339   9.557   7.049   6.454 -0.8227  2.7309 -1.9082
  240MOL0     H32340   9.395   7.081   6.504  0.1617  4.1921 -2.1871
  240MOL0     H32341   9.471   7.291   6.464 -0.4115  0.6337  0.4253
  240MOL0     H32342   9.518   7.287   6.634 -0.4428 -2.3642  1.2221
  240MOL0     H32343   9.739   7.211   6.573 -2.5164 -1.2991  0.9104
  240MOL0     H32344   9.703   7.235   6.401 -0.7501  1.7940 -1.0549
  240MOL0     H32345   9.654   7.469   6.431 -0.1966  1.3457  0.9490
  240MOL0     H32346   9.696   7.451   6.608 -2.0254 -1.4203  0.5289
  240MOL0     H32347   9.914   7.376   6.541  0.6505  1.2676 -0.0177
  240MOL0     H32348   9.876   7.385   6.367  1.1802  1.7601 -1.0793
  240MOL0     H32349   9.797   7.643   6.467 -0.1647  0.2115  4.1908
  240MOL0     H32350   9.939   7.602   6.375 -0.7667  0.6880 -0.2360
  240MOL0     H32351   9.869   7.498   6.745  1.8189 -2.3566 -0.4003
  240MOL0     H32352  10.062   7.787   6.954 -1.3384  1.0251 -1.4190
  240MOL0     H32353   9.918   7.684   6.980  1.0913  0.6936  3.0603
  240MOL0     H32354  10.187   7.558   6.931 -1.2477 -2.8732 -1.1143
  240MOL0     H32355  10.043   7.486   6.999 -0.3392 -0.7403  2.6440
  240MOL0     H32356  10.198   7.695   7.130 -2.3544  2.4525 -0.0704
  240MOL0     H32357  10.183   7.527   7.179 -4.2870 -3.8413 -1.5073
  240MOL0     H32358   9.937   7.575   7.222 -0.1411 -1.4368 -3.9659
  240MOL0     H32359   9.962   7.741   7.172  1.5524 -0.1404 -2.2759
  240MOL0     H32360  10.117   7.685   7.578  1.0711 -3.0160 -1.2766
  240MOL0     H32361  10.054   7.651   7.798  1.1350  0.8782 -4.5201
  240MOL0     H32362   9.996   7.819   7.852 -0.4143 -0.3612 -0.5620
  240MOL0     H32363   9.904   7.671   7.879  1.8089 -0.7823  0.6911
  240MOL0     H32364   9.470   8.086   7.845 -1.1475 -0.0552 -0.1541
  240MOL0     H32365   9.339   8.098   8.047  0.5421  0.6669 -0.7292
  240MOL0     H32366   9.359   8.068   8.289 -0.6861 -0.5194  2.8363
  240MOL0     H32367   9.199   8.097   8.225 -2.7254 -0.6664  1.7150
  240MOL0     H32368   9.140   8.085   8.448 -2.3340 -0.3384 -2.2492
  240MOL0     H32369   9.135   7.911   8.396  2.0970 -1.8759  2.2489
  240MOL0     H32370   9.329   8.032   8.588  1.0422 -1.7040  1.5910
  240MOL0     H32371   9.373   7.907   8.461 -2.7344 -1.5042 -2.6413
  240MOL0     H32372   9.213   7.757   8.551  1.7104  1.6150 -2.0837
  240MOL0     H32373   9.303   7.805   8.691 -0.9546  0.4031  2.3261
  240MOL0     H32374   9.041   7.922   8.612  1.1633 -0.5274 -1.6533
  240MOL0     H32375   9.140   7.973   8.749 -2.5671 -1.8668  4.0874
  240MOL0     H32376   9.122   7.738   8.839 -1.7331  0.9161  2.8777
  240MOL0     H32377   8.973   7.817   8.848 -0.6143  3.5094 -1.0104
  240MOL0     H32378   9.030   7.665   8.593  1.1635 -0.6479  0.2764
  240MOL0     H32379   8.870   7.709   8.666  0.6930  0.5759 -3.6000
  240MOL0     H32380   8.916   7.535   8.838  1.4228  1.5437  1.3659
  240MOL0     H32381   9.059   7.490   8.750 -0.8196  0.0271  0.5556
  240MOL0     H32382   9.349   7.679   8.096 -1.8633  1.6063  1.6254
  240MOL0     H32383   9.485   7.650   7.896 -0.4801 -0.5223  1.5812
  240MOL0     H32384   9.655   7.854   7.488 -0.8171 -3.6428 -2.1129
  240MOL0     H32385   9.788   7.782   7.320 -1.3589  4.4794  0.9247
  240MOL0     H32386   9.210   6.632   6.664  0.2432  0.1689  0.9128
  240MOL0     H32387   9.182   6.433   6.508  0.0405  0.0478  0.2245
  240MOL0     H32388   9.264   6.377   6.007  2.7693  0.5498  1.5989
  240MOL0     H32389   9.338   6.245   5.805  1.1880  0.6986  0.6881
  240MOL0     H32390   9.462   5.844   5.674 -2.5347  1.4998 -1.3367
  240MOL0     H32391   9.527   5.844   5.845  0.6467  1.5667 -0.7706
  240MOL0     H32392   9.295   5.784   5.925  0.3161  0.3948 -0.5164
  240MOL0     H32393   9.352   5.676   5.807  5.5248 -0.0780  2.8967
  240MOL0     H32394   9.168   5.758   5.646 -3.3084 -0.2621  0.3791
  240MOL0     H32395   9.188   5.924   5.697 -3.2857 -0.8578 -2.2729
  240MOL0     H32396   9.037   5.700   5.829  1.1448 -0.3933  3.5609
  240MOL0     H32397   8.979   5.841   5.749  1.6321  0.1787 -0.9948
  240MOL0     H32398   9.123   5.958   6.151  2.6484 -4.3282  1.1220
  240MOL0     H32399   9.428   5.918   6.060  0.2777 -0.2036 -0.2431
  240MOL0     H32400   9.393   6.074   6.256 -2.5657 -0.7217  0.7021
  241MOL0     O32401  11.197   9.085   5.635  0.2279 -0.2447  0.6519
  241MOL0     C32402  11.297   9.105   5.568 -0.5277  0.8924 -1.2615
  241MOL0     O32403  11.322   9.054   5.445 -0.2202  0.1745 -0.2383
  241MOL0     C32404  11.228   9.009   5.367  0.9771  0.1565  1.2960
  241MOL0     C32405  11.272   8.935   5.257 -0.2558 -0.0117 -0.2962
  241MOL0     C32406  11.192   8.884   5.166 -0.1438 -0.1041 -1.1878
  241MOL0     C32407  11.060   8.910   5.168  0.0049  0.8688  0.4249
  241MOL0     O32408  10.986   8.835   5.076 -0.1372 -0.0602 -0.7539
  241MOL0     C32409  10.851   8.881   5.059  0.3801  0.5225  0.0121
  241MOL0     C32410  10.774   8.802   4.958 -0.8657  0.2183  1.4375
  241MOL0     C32411  10.624   8.839   4.955 -0.4348 -1.5159 -0.7147
  241MOL0     C32412  10.554   8.807   4.820 -1.0787 -0.2936 -0.2028
  241MOL0     C32413  10.403   8.794   4.859 -0.2154 -0.6380 -0.4948
  241MOL0     C32414  10.332   8.912   4.924 -0.2411  0.1718  0.3040
  241MOL0     C32415  10.361   9.056   4.853 -0.8782 -0.4469 -0.8650
  241MOL0     C32416  10.259   9.161   4.878 -0.8984  0.8290 -0.3322
  241MOL0     N32417  10.292   9.286   4.798 -0.8051  0.4678 -0.3915
  241MOL0     C32418  10.292   9.294   4.655  0.6824  0.2875 -0.0196
  241MOL0     C32419  10.253   9.425   4.638  0.7621  0.7539 -0.6517
  241MOL0     C32420  10.217   9.492   4.503 -0.3515 -0.0317 -0.1209
  241MOL0     C32421  10.349   9.543   4.455  0.4125 -0.5411 -0.4876
  241MOL0     C32422  10.338   9.612   4.320  0.9507 -0.3799  0.0180
  241MOL0     C32423  10.473   9.689   4.295  0.0083 -0.4199 -0.1906
  241MOL0     O32424  10.489   9.698   4.149 -0.0179  0.9041 -0.7892
  241MOL0     C32425  10.601   9.769   4.104 -1.5640 -0.6654 -1.6197
  241MOL0     C32426  10.674   9.861   4.188  0.9358  0.0847  0.1698
  241MOL0     C32427  10.782   9.938   4.130  0.6810  1.0137  0.2711
  241MOL0     C32428  10.832  10.048   4.218  1.0458  0.0121  0.5108
  241MOL0     C32429  10.825   9.915   3.999 -0.0343  0.3519  0.2552
  241MOL0     C32430  10.940   9.980   3.940 -0.5603  0.8682 -0.2721
  241MOL0     O32431  10.933   9.999   3.803 -0.2219 -1.1218 -0.7575
  241MOL0     C32432  11.046   9.995   3.731 -0.0764  0.2897  0.6366
  241MOL0     C32433  11.066  10.099   3.638  0.7090 -0.0181  0.1433
  241MOL0     C32434  11.177  10.100   3.554 -0.7730 -0.1175  0.5413
  241MOL0     C32435  11.275  10.000   3.565 -1.0595 -1.0485 -0.2608
  241MOL0     O32436  11.381   9.984   3.478  0.1483  0.8324 -0.2740
  241MOL0     C32437  11.436  10.098   3.405 -0.0085 -0.5731 -0.2182
  241MOL0     C32438  11.541  10.053   3.303 -0.1098  0.8232  0.4166
  241MOL0     C32439  11.651   9.952   3.364  0.5762 -0.1107  0.0870
  241MOL0     C32440  11.754   9.912   3.263 -0.4353  0.7884 -0.2369
  241MOL0     C32441  11.882   9.848   3.324 -0.4339 -1.0716  0.1063
  241MOL0     C32442  11.987   9.840   3.216 -0.0623  0.5733 -0.3324
  241MOL0     C32443  11.961   9.734   3.097 -0.8021  0.6721 -0.0921
  241MOL0     C32444  12.049   9.745   2.968 -0.0719 -0.0243 -0.3467
  241MOL0    Cl32445  12.046   9.906   2.886  0.2755  0.0702 -0.1903
  241MOL0     C32446  11.254   9.902   3.662  0.3268  0.1827 -0.6152
  241MOL0     C32447  11.142   9.893   3.741  0.3979 -0.4186 -0.2889
  241MOL0     O32448  11.039   9.996   4.007 -0.6206 -0.5881  0.0201
  241MOL0     C32449  10.744   9.827   3.919 -0.2792 -0.1976 -0.6655
  241MOL0     C32450  10.634   9.764   3.973 -1.0566  1.0771  0.9849
  241MOL0     N32451  10.235   9.483   4.757 -0.3605  0.0721  0.4374
  241MOL0     N32452  10.260   9.403   4.850  0.3641 -0.0107  0.2907
  241MOL0     C32453  11.009   8.993   5.260  0.7045  0.2961  0.7016
  241MOL0     C32454  11.090   9.045   5.364  0.8245 -0.4722  0.9049
  241MOL0     C32455  11.390   9.199   5.635 -0.1718 -0.0057 -0.0941
  241MOL0     C32456  11.386   9.215   5.780 -0.3919 -0.4791 -0.0380
  241MOL0     C32457  11.470   9.312   5.833  0.5211  0.0603  0.4808
  241MOL0     C32458  11.561   9.383   5.759 -0.5638  0.2257  0.2342
  241MOL0     O32459  11.634   9.478   5.828 -0.9905  0.1880 -0.1100
  241MOL0     C32460  11.756   9.533   5.764 -0.8551  0.1536 -0.2935
  241MOL0     C32461  11.807   9.635   5.859  0.6466  0.0233  0.6990
  241MOL0     C32462  11.960   9.643   5.839 -0.9736  0.7742  0.3350
  241MOL0     C32463  12.025   9.736   5.944 -0.4952  0.0854  0.2123
  241MOL0     C32464  11.969   9.865   5.939 -0.2774 -0.2781 -0.3701
  241MOL0     C32465  11.906   9.969   5.950  0.2433 -0.8715 -0.3990
  241MOL0     C32466  11.573   9.370   5.622 -0.7153  0.6926  0.2413
  241MOL0     C32467  11.480   9.279   5.561 -0.4853 -0.0419  0.7696
  241MOL0     H32468  11.376   8.909   5.240  1.2804  4.7637  0.2913
  241MOL0     H32469  11.240   8.820   5.093  0.9963  1.9506 -2.3257
  241MOL0     H32470  10.794   8.874   5.152 -0.8131 -1.6034 -0.8140
  241MOL0     H32471  10.856   8.985   5.027 -1.9964  1.8069  3.2543
  241MOL0     H32472  10.820   8.806   4.859 -4.3694 -0.2043 -0.3744
  241MOL0     H32473  10.779   8.695   4.983  2.1301 -0.1796 -0.3877
  241MOL0     H32474  10.582   8.777   5.035 -1.7785  2.5020  1.9682
  241MOL0     H32475  10.607   8.944   4.980 -0.6417 -2.0117  1.4115
  241MOL0     H32476  10.579   8.888   4.751 -3.3457 -0.3146 -1.1350
  241MOL0     H32477  10.593   8.714   4.777  0.9556  0.1035  0.6587
  241MOL0     H32478  10.332   8.771   4.779 -0.6314 -0.6406 -0.1306
  241MOL0     H32479  10.403   8.711   4.931  4.2349 -0.6776 -0.2527
  241MOL0     H32480  10.228   8.883   4.912  0.2904 -2.6216  1.6380
  241MOL0     H32481  10.339   8.913   5.034 -2.5487 -1.6293  0.5509
  241MOL0     H32482  10.460   9.090   4.884  0.0413 -3.3429 -0.3047
  241MOL0     H32483  10.368   9.034   4.746  2.9365 -1.3276 -0.5662
  241MOL0     H32484  10.256   9.185   4.984 -0.3746 -0.3042 -0.0473
  241MOL0     H32485  10.157   9.127   4.859 -0.4601  0.4581 -2.3284
  241MOL0     H32486  10.299   9.223   4.574 -2.8746  0.8703 -1.0087
  241MOL0     H32487  10.172   9.432   4.424 -1.0712  0.2008  0.1060
  241MOL0     H32488  10.149   9.575   4.525 -2.4542 -1.7465  0.1423
  241MOL0     H32489  10.420   9.461   4.443 -0.4038 -0.9502 -3.5399
  241MOL0     H32490  10.389   9.613   4.529 -1.3792 -0.3653  0.3655
  241MOL0     H32491  10.269   9.696   4.334 -0.7139 -1.6019 -0.4437
  241MOL0     H32492  10.323   9.549   4.231  1.5835 -0.8230  0.2224
  241MOL0     H32493  10.554   9.626   4.331 -1.2548 -1.1643  1.5445
  241MOL0     H32494  10.465   9.788   4.341 -4.1543 -0.8082  0.3596
  241MOL0     H32495  10.657   9.873   4.295 -0.4508  0.2932 -0.0432
  241MOL0     H32496  10.902  10.114   4.166 -0.6987  0.5672 -1.2398
  241MOL0     H32497  10.756  10.115   4.258  1.5711  0.3775  0.8958
  241MOL0     H32498  10.886  10.003   4.302 -1.5978 -0.4986  2.0343
  241MOL0     H32499  10.993  10.178   3.625 -0.1583 -1.1284 -2.6030
  241MOL0     H32500  11.176  10.176   3.476 -0.6609  1.8058  2.3282
  241MOL0     H32501  11.357  10.148   3.347  0.3483 -0.0037 -0.2142
  241MOL0     H32502  11.488  10.163   3.475 -2.6857 -0.8867  2.2825
  241MOL0     H32503  11.494  10.009   3.215 -0.3881  1.9713 -0.0319
  241MOL0     H32504  11.591  10.140   3.260 -0.5970  0.9463  0.0859
  241MOL0     H32505  11.598   9.862   3.398  2.2889 -1.6594 -1.1115
  241MOL0     H32506  11.689   9.997   3.456  0.9331  3.4807 -1.6544
  241MOL0     H32507  11.706   9.850   3.187 -1.0358  0.0845  0.6919
  241MOL0     H32508  11.785  10.005   3.214  0.2411  0.0457 -1.2536
  241MOL0     H32509  11.867   9.749   3.367 -5.0862 -0.2597  0.9198
  241MOL0     H32510  11.923   9.910   3.404 -1.1603 -1.1605  0.5536
  241MOL0     H32511  11.982   9.929   3.152  3.5710 -0.8487 -2.9112
  241MOL0     H32512  12.087   9.835   3.259 -0.1361 -3.8000 -0.2625
  241MOL0     H32513  11.860   9.742   3.058 -0.5530  0.0850 -0.8778
  241MOL0     H32514  11.976   9.640   3.151 -1.7738  0.4114 -0.2706
  241MOL0     H32515  12.018   9.665   2.900  0.0768 -0.2579 -0.1416
  241MOL0     H32516  12.154   9.725   2.988  0.5528  1.2455 -2.1110
  241MOL0     H32517  11.331   9.831   3.691  0.2443  0.2104 -0.3259
  241MOL0     H32518  11.147   9.819   3.820 -0.7379  2.4440  2.6821
  241MOL0     H32519  10.764   9.803   3.815 -4.0130  1.6221 -1.9615
  241MOL0     H32520  10.587   9.698   3.901 -0.5946  3.1306 -1.3355
  241MOL0     H32521  10.904   9.020   5.254  0.4239 -0.7616  0.5235
  241MOL0     H32522  11.040   9.117   5.428 -0.9483 -1.6645  0.9259
  241MOL0     H32523  11.328   9.159   5.853 -1.9149  0.2000 -0.6811
  241MOL0     H32524  11.458   9.327   5.940  1.5891  0.0001  0.6223
  241MOL0     H32525  11.819   9.446   5.741 -3.4038 -0.8762 -4.3030
  241MOL0     H32526  11.733   9.583   5.670 -3.3950  1.6847  1.0458
  241MOL0     H32527  11.781   9.620   5.964  0.2086  1.0046  0.7345
  241MOL0     H32528  11.760   9.729   5.830  0.4092 -0.5897 -1.0286
  241MOL0     H32529  12.002   9.664   5.740 -2.4082  2.4078  0.0210
  241MOL0     H32530  11.995   9.542   5.863  0.0519  0.7796 -1.0365
  241MOL0     H32531  12.127   9.734   5.904 -0.0695  1.7343  1.1308
  241MOL0     H32532  12.020   9.700   6.047 -2.3869 -1.9181 -0.5077
  241MOL0     H32533  11.848  10.058   5.968  0.3778 -0.8631  0.0065
  241MOL0     H32534  11.640   9.438   5.571 -1.6053  0.6970 -0.9566
  241MOL0     H32535  11.477   9.290   5.453 -1.7194  0.3651  0.8305
  242MOL0     O32536   3.844   7.634   2.294  0.0015 -0.1454  1.1028
  242MOL0     C32537   3.872   7.705   2.389  0.3477  0.2567  0.1903
  242MOL0     O32538   3.791   7.802   2.451  0.2236  0.3985 -0.1987
  242MOL0     C32539   3.658   7.820   2.423 -0.2547  0.0797  0.2386
  242MOL0     C32540   3.609   7.948   2.400 -0.1101  0.0728 -0.1308
  242MOL0     C32541   3.478   7.971   2.389  0.3487  0.0234 -0.1378
  242MOL0     C32542   3.382   7.868   2.383 -0.9145  0.2999  0.8882
  242MOL0     O32543   3.255   7.884   2.337  0.5831 -0.1759 -0.3967
  242MOL0     C32544   3.192   8.014   2.320 -0.1386 -0.2053  0.5502
  242MOL0     C32545   3.042   7.989   2.297  0.2998  0.5730  0.4151
  242MOL0     C32546   3.011   7.953   2.148  0.5146 -0.1811 -0.1135
  242MOL0     C32547   2.963   7.815   2.113  0.6176 -0.3640 -0.6180
  242MOL0     C32548   2.999   7.771   1.975 -0.8053  0.6508  0.8602
  242MOL0     C32549   2.900   7.837   1.882 -0.2316  0.2161 -0.3083
  242MOL0     C32550   2.926   7.819   1.719 -0.7716  0.7533 -1.1191
  242MOL0     C32551   3.040   7.918   1.671 -0.6107 -0.8893  0.4164
  242MOL0     N32552   3.177   7.882   1.705 -0.5284  0.3750 -0.8790
  242MOL0     C32553   3.276   7.955   1.763 -0.0539  0.7246 -0.7495
  242MOL0     C32554   3.385   7.871   1.770  0.9243 -0.0599  0.8144
  242MOL0     C32555   3.519   7.895   1.835  0.0732 -0.2470  0.1848
  242MOL0     C32556   3.551   7.783   1.935  0.0259 -0.6733  0.5830
  242MOL0     C32557   3.697   7.776   1.983  0.4979 -0.5706 -0.0734
  242MOL0     C32558   3.752   7.902   2.068 -0.5543  0.2234 -0.0832
  242MOL0     O32559   3.888   7.888   2.106 -1.1890 -0.6088 -0.3538
  242MOL0     C32560   3.973   7.905   2.008  0.3927  0.0695  0.9195
  242MOL0     C32561   3.981   8.028   1.942 -0.7024 -0.3154 -0.0066
  242MOL0     C32562   4.075   8.045   1.831 -0.7030 -0.2263 -0.6046
  242MOL0     C32563   4.081   8.178   1.772 -0.9079 -1.3267 -0.7166
  242MOL0     C32564   4.141   7.935   1.774 -0.7289  0.3963  0.9319
  242MOL0     C32565   4.233   7.931   1.664 -0.6188 -0.8440  0.5667
  242MOL0     O32566   4.233   7.818   1.587  0.0697  0.0341  0.4870
  242MOL0     C32567   4.311   7.827   1.465 -1.0359  0.0787 -1.1256
  242MOL0     C32568   4.435   7.757   1.457 -0.0861  0.1468 -0.3676
  242MOL0     C32569   4.506   7.733   1.336 -0.2658  0.6901 -0.6851
  242MOL0     C32570   4.442   7.777   1.223  0.2670  0.6825  0.6196
  242MOL0     O32571   4.509   7.746   1.109  0.6965  0.7425 -0.0417
  242MOL0     C32572   4.521   7.864   1.026 -0.4665  0.1680 -0.3038
  242MOL0     C32573   4.524   7.819   0.880  0.3350  0.4131  0.7100
  242MOL0     C32574   4.654   7.735   0.852  0.0673  0.4846 -0.2758
  242MOL0     C32575   4.703   7.742   0.699 -0.0376 -0.1037 -0.2013
  242MOL0     C32576   4.816   7.644   0.664 -0.0302  0.2510  0.1107
  242MOL0     C32577   4.769   7.504   0.634 -0.2680  0.6176 -0.8343
  242MOL0     C32578   4.881   7.403   0.674  0.0968  1.7102 -1.0266
  242MOL0     C32579   4.874   7.270   0.597  0.4824 -0.1937  0.3159
  242MOL0    Cl32580   4.973   7.135   0.659 -0.1033 -0.1545 -0.3221
  242MOL0     C32581   4.315   7.840   1.226 -0.4391 -0.8700 -0.7939
  242MOL0     C32582   4.251   7.873   1.346 -0.3291 -0.1582 -0.1073
  242MOL0     O32583   4.302   8.028   1.640  0.0305 -0.5501 -0.5213
  242MOL0     C32584   4.139   7.814   1.844  0.2109  0.4074 -0.9982
  242MOL0     C32585   4.049   7.795   1.964  0.9158  0.9851  0.3012
  242MOL0     N32586   3.358   7.756   1.705  0.1017 -0.3406 -0.0154
  242MOL0     N32587   3.236   7.764   1.672  0.7790  0.6306 -0.4256
  242MOL0     C32588   3.421   7.745   2.426  0.2450 -0.0225  0.5088
  242MOL0     C32589   3.557   7.715   2.449  0.7119 -0.2330 -1.0313
  242MOL0     C32590   4.000   7.678   2.461 -0.2282  0.4475 -0.5835
  242MOL0     C32591   3.996   7.660   2.598 -0.3321 -1.7350  0.3878
  242MOL0     C32592   4.105   7.640   2.684  0.2613 -0.5326  0.2975
  242MOL0     C32593   4.230   7.635   2.616  0.7708 -0.1405 -0.7890
  242MOL0     O32594   4.343   7.607   2.679 -0.2234  0.9149  0.3078
  242MOL0     C32595   4.441   7.703   2.708  0.1697 -0.2580  1.0712
  242MOL0     C32596   4.560   7.707   2.608 -0.6309 -0.9604 -0.1143
  242MOL0     C32597   4.620   7.565   2.585 -0.3577 -0.3506 -0.1041
  242MOL0     C32598   4.746   7.543   2.497 -0.6530  0.4396 -0.0848
  242MOL0     C32599   4.870   7.612   2.527  0.4003  1.0993 -0.4913
  242MOL0     C32600   4.967   7.682   2.555 -1.2162  0.2301 -0.5552
  242MOL0     C32601   4.243   7.668   2.478  0.1242  0.0974 -0.1472
  242MOL0     C32602   4.124   7.689   2.398 -0.2475  0.2738 -0.1731
  242MOL0     H32603   3.692   8.016   2.385  1.3013 -1.9232 -2.0205
  242MOL0     H32604   3.451   8.075   2.376 -0.8149 -0.3221 -0.6480
  242MOL0     H32605   3.189   8.072   2.413  0.1869 -1.8290  1.6267
  242MOL0     H32606   3.244   8.075   2.246  0.3661  0.5500  1.4935
  242MOL0     H32607   3.004   7.911   2.363  1.1256  0.7291  1.0909
  242MOL0     H32608   2.988   8.079   2.327  0.4001  0.0577  2.2153
  242MOL0     H32609   2.941   8.025   2.104  1.2288  0.6141  0.0121
  242MOL0     H32610   3.101   7.977   2.091 -0.4851  4.3926 -0.2065
  242MOL0     H32611   3.023   7.754   2.181  2.4468 -0.3992 -2.1716
  242MOL0     H32612   2.860   7.787   2.137  0.0743  2.1666  0.2787
  242MOL0     H32613   3.104   7.799   1.971 -1.1164  3.1817  4.9530
  242MOL0     H32614   2.984   7.664   1.959  0.5426  0.3281  1.5847
  242MOL0     H32615   2.808   7.785   1.910 -1.1273  3.0008  2.4136
  242MOL0     H32616   2.890   7.945   1.894 -1.8958  0.2038 -1.2897
  242MOL0     H32617   2.945   7.718   1.682 -0.2120  0.2718  0.3851
  242MOL0     H32618   2.837   7.855   1.667 -0.3522  1.5073 -1.3165
  242MOL0     H32619   3.025   8.012   1.724  1.0837 -1.1474  1.4243
  242MOL0     H32620   3.023   7.946   1.567 -1.1812  4.8023  1.7219
  242MOL0     H32621   3.261   8.059   1.793 -1.2017  1.2337 -2.8917
  242MOL0     H32622   3.601   7.908   1.763  0.7419  1.7273  1.2140
  242MOL0     H32623   3.521   7.991   1.888 -1.3412 -0.9815  1.6113
  242MOL0     H32624   3.525   7.690   1.884  1.0647 -0.4943 -0.2860
  242MOL0     H32625   3.480   7.801   2.017  0.6469 -0.6376  1.1231
  242MOL0     H32626   3.756   7.778   1.890 -0.0620  4.3547 -0.6134
  242MOL0     H32627   3.708   7.685   2.042  0.1015 -1.5812 -1.4888
  242MOL0     H32628   3.685   7.935   2.148  0.9215  4.0568 -0.2594
  242MOL0     H32629   3.743   7.986   1.999 -2.2464  0.3044  0.2064
  242MOL0     H32630   3.938   8.114   1.993  1.3593  0.8733 -0.1427
  242MOL0     H32631   4.080   8.173   1.663  1.3973 -0.6843 -0.8195
  242MOL0     H32632   4.000   8.247   1.800 -0.3487 -1.7443  2.2900
  242MOL0     H32633   4.179   8.221   1.791 -1.1363 -0.6464 -1.0320
  242MOL0     H32634   4.464   7.697   1.543  2.1854  1.6954  0.0464
  242MOL0     H32635   4.590   7.666   1.328 -0.0201  1.2667 -3.9785
  242MOL0     H32636   4.443   7.941   1.029 -0.4336  0.2415 -1.1004
  242MOL0     H32637   4.612   7.913   1.059  0.5348 -0.2309 -2.3054
  242MOL0     H32638   4.437   7.761   0.847 -2.1201  4.4385 -0.6182
  242MOL0     H32639   4.518   7.904   0.812 -5.7147 -1.7601 -2.2131
  242MOL0     H32640   4.640   7.635   0.894  1.7730  1.1949  2.1965
  242MOL0     H32641   4.738   7.767   0.914 -1.6700  0.2404  2.3615
  242MOL0     H32642   4.623   7.715   0.630 -2.4321  3.9547  0.6246
  242MOL0     H32643   4.734   7.846   0.684 -0.7831  0.2000  0.3192
  242MOL0     H32644   4.871   7.643   0.759  1.5715  0.9963 -0.7600
  242MOL0     H32645   4.878   7.696   0.590 -1.3821  3.6300  1.1781
  242MOL0     H32646   4.681   7.481   0.696 -1.3445  3.6096 -1.0999
  242MOL0     H32647   4.733   7.502   0.531 -2.7301  1.4482 -0.0755
  242MOL0     H32648   4.863   7.374   0.778 -0.4423  2.2503 -0.9636
  242MOL0     H32649   4.986   7.435   0.672  1.4558 -2.1508 -0.0325
  242MOL0     H32650   4.922   7.294   0.502  1.5848 -0.1895  0.8480
  242MOL0     H32651   4.770   7.238   0.586  0.3564  0.4371 -0.3462
  242MOL0     H32652   4.271   7.867   1.131 -0.8415  0.7930 -0.1759
  242MOL0     H32653   4.152   7.919   1.348  0.0887  0.7991 -0.7967
  242MOL0     H32654   4.187   7.719   1.821 -0.9936 -0.4307 -0.2035
  242MOL0     H32655   4.033   7.701   2.016  1.3618  1.6076  1.6033
  242MOL0     H32656   3.343   7.670   2.431  1.2016 -0.9575  2.5905
  242MOL0     H32657   3.576   7.612   2.477 -1.7748 -0.0791  1.6270
  242MOL0     H32658   3.905   7.691   2.647  0.5766  1.3277  0.3599
  242MOL0     H32659   4.092   7.632   2.791 -1.4277 -1.0580  0.0913
  242MOL0     H32660   4.386   7.797   2.706  1.7079  0.7050 -1.4131
  242MOL0     H32661   4.478   7.683   2.809 -0.4533 -0.9004  1.1831
  242MOL0     H32662   4.641   7.776   2.632 -1.0700 -0.3780 -0.2860
  242MOL0     H32663   4.521   7.750   2.515 -1.8302  2.2169  1.7083
  242MOL0     H32664   4.544   7.498   2.543  0.0515 -0.3970 -0.7698
  242MOL0     H32665   4.663   7.519   2.675 -0.2194 -0.3591 -0.1754
  242MOL0     H32666   4.724   7.564   2.392 -0.0315 -2.6536 -0.9325
  242MOL0     H32667   4.770   7.436   2.500 -0.4747  0.4910  0.3611
  242MOL0     H32668   5.053   7.739   2.581 -0.8331  0.6783 -2.6201
  242MOL0     H32669   4.345   7.665   2.441  0.6136  0.3667  1.1170
  242MOL0     H32670   4.128   7.702   2.290  0.7831 -3.2556 -0.6848
  243MOL0     O32671   5.251   6.123   9.992  0.1792 -0.0758  1.1108
  243MOL0     C32672   5.363   6.138   9.928  0.2865 -0.7243  1.5306
  243MOL0     O32673   5.401   6.257   9.867  0.7614 -0.4822 -0.0826
  243MOL0     C32674   5.324   6.372   9.871 -0.3037 -0.0260  0.6100
  243MOL0     C32675   5.287   6.436   9.764  0.1199  0.8767 -0.2336
  243MOL0     C32676   5.220   6.560   9.762  0.0190  0.9677  0.5386
  243MOL0     C32677   5.206   6.634   9.877 -0.2902 -1.1926 -0.8546
  243MOL0     O32678   5.146   6.761   9.901 -0.3737 -0.2709  0.3743
  243MOL0     C32679   5.075   6.829   9.799  0.6878  0.2963  0.1653
  243MOL0     C32680   5.032   6.958   9.847 -0.3532  0.1905  0.6442
  243MOL0     C32681   4.975   7.045   9.733  0.0891 -0.8278  0.1579
  243MOL0     C32682   4.821   7.077   9.754 -0.8061 -0.8581  0.1624
  243MOL0     C32683   4.773   7.199   9.669  0.1309 -0.4383 -0.3843
  243MOL0     C32684   4.827   7.328   9.738 -0.1973 -0.1092 -0.2236
  243MOL0     C32685   4.795   7.455   9.676  0.2581  0.2747 -0.7523
  243MOL0     C32686   4.855   7.570   9.744  0.0683  0.6179 -1.1901
  243MOL0     N32687   4.802   7.696   9.702  0.2203  0.5192 -0.3777
  243MOL0     C32688   4.697   7.766   9.761  0.0370  0.4983  0.1690
  243MOL0     C32689   4.658   7.850   9.670 -0.7541  0.2503 -0.7428
  243MOL0     C32690   4.568   7.968   9.692  0.8016 -0.1404  0.3851
  243MOL0     C32691   4.427   7.945   9.630 -0.2991 -0.3461  0.7967
  243MOL0     C32692   4.350   8.071   9.589 -0.6844  0.1055  0.8875
  243MOL0     C32693   4.306   8.052   9.439  0.1035 -0.9434 -0.1168
  243MOL0     O32694   4.419   8.084   9.358 -0.8041 -0.5209 -0.7865
  243MOL0     C32695   4.425   8.191   9.277 -0.3190  0.7556  0.5265
  243MOL0     C32696   4.543   8.220   9.214  0.7986  0.1914 -0.6599
  243MOL0     C32697   4.571   8.323   9.122  0.0240  0.4082 -1.8040
  243MOL0     C32698   4.720   8.343   9.089  0.9789 -0.0771 -0.0686
  243MOL0     C32699   4.456   8.408   9.082 -0.3723  0.0477 -0.0064
  243MOL0     C32700   4.455   8.521   8.979  0.1240 -0.2128  1.0871
  243MOL0     O32701   4.573   8.540   8.917 -0.3109  0.3505 -0.5363
  243MOL0     C32702   4.583   8.590   8.789  0.5447  0.1809  0.3374
  243MOL0     C32703   4.485   8.587   8.683  0.8088 -0.6826 -1.0313
  243MOL0     C32704   4.513   8.628   8.558 -0.5363 -1.1016 -0.0398
  243MOL0     C32705   4.639   8.698   8.541 -0.9459 -0.2474  1.0385
  243MOL0     O32706   4.677   8.758   8.421  0.0715  0.0280 -0.0583
  243MOL0     C32707   4.601   8.741   8.301 -0.5476 -0.3612 -0.2293
  243MOL0     C32708   4.677   8.771   8.178 -0.5223 -0.0167  0.4155
  243MOL0     C32709   4.786   8.666   8.157  0.3198  0.2204  0.1043
  243MOL0     C32710   4.896   8.716   8.066  0.1395 -0.4263 -1.4311
  243MOL0     C32711   4.865   8.777   7.927  0.8186 -0.0219  0.5367
  243MOL0     C32712   4.745   8.728   7.845 -0.5897  0.3371  0.7139
  243MOL0     C32713   4.730   8.798   7.705  0.1508 -0.3303 -0.9016
  243MOL0     C32714   4.598   8.798   7.646 -0.1168 -0.1394  0.0219
  243MOL0    Cl32715   4.528   8.629   7.674  0.4951  0.4023 -0.0373
  243MOL0     C32716   4.742   8.698   8.639  0.4929  0.5766 -0.9509
  243MOL0     C32717   4.712   8.640   8.760  0.0080  0.4464  0.4497
  243MOL0     O32718   4.347   8.581   8.949 -0.5258  0.1714 -0.1633
  243MOL0     C32719   4.327   8.367   9.137 -0.5536  0.5267  0.3935
  243MOL0     C32720   4.311   8.265   9.235 -0.0270  0.4205  0.4776
  243MOL0     N32721   4.723   7.837   9.558  0.1488  0.6206 -0.0889
  243MOL0     N32722   4.821   7.760   9.578 -0.6639 -0.2381  0.1032
  243MOL0     C32723   5.266   6.578   9.991  0.5687  0.0099 -0.1559
  243MOL0     C32724   5.330   6.455   9.986  0.3260 -0.0908 -1.3265
  243MOL0     C32725   5.453   6.018   9.903 -0.1547 -1.2610 -0.5133
  243MOL0     C32726   5.588   6.039   9.896 -0.5641 -0.0252  0.4495
  243MOL0     C32727   5.671   5.916   9.901 -0.6460 -1.2650  0.5099
  243MOL0     C32728   5.615   5.793   9.914 -0.0758 -0.4315  0.6312
  243MOL0     O32729   5.697   5.684   9.930 -0.5617  0.0960 -0.3469
  243MOL0     C32730   5.651   5.546   9.905  0.0155 -0.1650 -0.5784
  243MOL0     C32731   5.640   5.526   9.746  0.2680 -0.8421 -0.6233
  243MOL0     C32732   5.626   5.384   9.689  0.5558  0.1356 -0.7068
  243MOL0     C32733   5.485   5.327   9.701 -0.4094  0.1229  0.0023
  243MOL0     C32734   5.469   5.221   9.604 -0.0083 -0.9147  0.4769
  243MOL0     C32735   5.429   5.127   9.540 -0.7502  0.4077  0.4784
  243MOL0     C32736   5.472   5.779   9.923 -0.5522 -0.3848 -0.2530
  243MOL0     C32737   5.398   5.889   9.905  0.0506 -0.6860 -0.3050
  243MOL0     H32738   5.318   6.410   9.663 -0.1768  2.5019 -0.7733
  243MOL0     H32739   5.176   6.600   9.671  0.6771 -2.3547 -1.4344
  243MOL0     H32740   5.130   6.836   9.705 -1.8950  1.6372 -1.3713
  243MOL0     H32741   4.984   6.770   9.784  2.3321 -2.4073  0.3334
  243MOL0     H32742   4.968   6.952   9.935  0.7817 -3.4148  1.3878
  243MOL0     H32743   5.126   7.010   9.870  0.2424 -0.2465 -0.7252
  243MOL0     H32744   5.019   7.145   9.740 -0.7220 -0.2335 -2.2521
  243MOL0     H32745   4.988   7.020   9.628  0.4832  0.7006 -0.1831
  243MOL0     H32746   4.771   6.984   9.727  2.7544 -2.9432  0.2139
  243MOL0     H32747   4.803   7.097   9.860  1.8253  2.0479  0.1915
  243MOL0     H32748   4.801   7.192   9.563 -2.4784 -2.5560 -1.0224
  243MOL0     H32749   4.665   7.206   9.679 -0.1390 -2.9750 -0.8873
  243MOL0     H32750   4.785   7.327   9.840  0.4983  1.6999  0.1193
  243MOL0     H32751   4.936   7.320   9.736 -0.0663 -1.5117  3.4671
  243MOL0     H32752   4.823   7.441   9.571  0.2334 -1.5410 -0.5486
  243MOL0     H32753   4.686   7.465   9.680  0.3301  2.4373 -2.3224
  243MOL0     H32754   4.958   7.567   9.706  0.0016 -0.3425 -1.3274
  243MOL0     H32755   4.858   7.564   9.853 -2.9220 -2.5043 -1.0891
  243MOL0     H32756   4.665   7.767   9.865  0.7169  1.0895  0.3744
  243MOL0     H32757   4.558   7.986   9.799 -0.5022 -1.2910  0.4860
  243MOL0     H32758   4.615   8.058   9.651 -2.8928  1.8228  0.0912
  243MOL0     H32759   4.370   7.891   9.706 -1.3840  0.3088  0.4608
  243MOL0     H32760   4.446   7.888   9.538 -0.5664  2.1076 -0.8685
  243MOL0     H32761   4.410   8.162   9.600  0.1596 -0.0004 -2.0126
  243MOL0     H32762   4.261   8.098   9.646 -3.6301  2.5776 -4.1758
  243MOL0     H32763   4.213   8.108   9.429  1.9516  2.3490 -0.2945
  243MOL0     H32764   4.290   7.944   9.433 -1.3476 -0.7472 -0.2030
  243MOL0     H32765   4.626   8.165   9.256 -0.3565 -1.8005 -0.8441
  243MOL0     H32766   4.739   8.339   8.981  1.6293 -2.3753  0.0708
  243MOL0     H32767   4.763   8.432   9.135  0.7607 -1.1006  2.2404
  243MOL0     H32768   4.776   8.263   9.138 -0.0066 -0.1466  0.9965
  243MOL0     H32769   4.383   8.554   8.697 -0.4184  3.4791  1.8429
  243MOL0     H32770   4.454   8.602   8.471 -0.5289 -1.4398  0.0586
  243MOL0     H32771   4.564   8.639   8.290 -1.8353  0.1023 -0.3566
  243MOL0     H32772   4.513   8.806   8.303  0.8486  1.6221  1.3655
  243MOL0     H32773   4.607   8.781   8.094 -0.7769  1.7442  0.7948
  243MOL0     H32774   4.732   8.865   8.192  0.0559 -0.3123  0.1591
  243MOL0     H32775   4.735   8.592   8.095  0.0869 -2.5921  3.3631
  243MOL0     H32776   4.830   8.624   8.249  1.9313  0.4801 -0.5097
  243MOL0     H32777   4.949   8.786   8.132 -4.4528  1.0427  1.2232
  243MOL0     H32778   4.959   8.629   8.047 -1.9879 -2.3211 -0.3396
  243MOL0     H32779   4.955   8.753   7.870  0.0417 -1.4499 -0.1391
  243MOL0     H32780   4.845   8.881   7.953 -0.2886 -0.8774  3.4161
  243MOL0     H32781   4.754   8.620   7.829  1.9364  0.3893  1.4589
  243MOL0     H32782   4.653   8.735   7.904 -0.0231  1.9068  1.4536
  243MOL0     H32783   4.797   8.745   7.637  0.9597 -0.4167 -0.0591
  243MOL0     H32784   4.763   8.902   7.711  0.3480 -0.4743  3.2515
  243MOL0     H32785   4.599   8.814   7.538  2.5996 -0.2337 -0.0481
  243MOL0     H32786   4.536   8.869   7.701 -0.6867 -1.4324  1.1125
  243MOL0     H32787   4.837   8.748   8.622  0.5976  0.5249 -0.5319
  243MOL0     H32788   4.789   8.660   8.834 -0.5240  4.5987  0.1205
  243MOL0     H32789   4.236   8.417   9.105 -0.4919 -0.4640 -1.4642
  243MOL0     H32790   4.212   8.231   9.267 -0.1774 -1.3593 -1.6751
  243MOL0     H32791   5.278   6.641  10.078  0.7552  0.2610 -0.3605
  243MOL0     H32792   5.376   6.419  10.078 -1.8135 -0.8462 -0.4732
  243MOL0     H32793   5.631   6.138   9.906 -0.0269 -0.3773  1.8915
  243MOL0     H32794   5.779   5.924   9.913 -0.5204 -2.5754  0.4050
  243MOL0     H32795   5.733   5.487   9.948  0.0795 -0.7911 -1.5292
  243MOL0     H32796   5.553   5.528   9.948 -0.0129 -0.5991 -0.8251
  243MOL0     H32797   5.733   5.560   9.699 -0.5063  4.7072  1.1495
  243MOL0     H32798   5.550   5.579   9.710 -1.4718 -2.2288  1.4675
  243MOL0     H32799   5.701   5.317   9.731 -0.6839 -1.0493 -0.3251
  243MOL0     H32800   5.661   5.379   9.585 -0.5653  1.1797 -1.1757
  243MOL0     H32801   5.411   5.404   9.678 -1.3784 -1.2410 -1.6918
  243MOL0     H32802   5.459   5.286   9.800 -1.2468 -0.8315 -0.5905
  243MOL0     H32803   5.402   5.051   9.471  3.2276 -2.2945  1.5796
  243MOL0     H32804   5.422   5.684   9.939  1.2670 -1.0878  1.7417
  243MOL0     H32805   5.290   5.892   9.902  0.0876  0.2818 -1.6504
  244MOL0     O32806   8.401   5.777   8.984 -0.6029 -0.3604 -0.5177
  244MOL0     C32807   8.501   5.713   8.956 -0.4377 -0.4317 -0.6632
  244MOL0     O32808   8.618   5.712   9.031  1.4672 -0.3871  0.3556
  244MOL0     C32809   8.634   5.786   9.149  0.1933  1.9149  0.0888
  244MOL0     C32810   8.529   5.799   9.233  0.1591  0.0790 -1.0237
  244MOL0     C32811   8.546   5.861   9.352  0.3796  0.3498 -0.2367
  244MOL0     C32812   8.665   5.912   9.400  0.4227  1.4797  0.1896
  244MOL0     O32813   8.678   5.984   9.512  0.3222 -0.3405 -0.2832
  244MOL0     C32814   8.597   5.940   9.623 -0.3344  0.1148  0.5788
  244MOL0     C32815   8.619   6.024   9.753 -0.5057 -0.5281  0.5642
  244MOL0     C32816   8.580   5.951   9.877  1.6191  0.2804  0.1032
  244MOL0     C32817   8.424   5.929   9.883 -0.2980 -0.5423  0.6096
  244MOL0     C32818   8.393   5.860  10.011 -0.4766 -0.4779 -0.3051
  244MOL0     C32819   8.244   5.837  10.026 -0.2811 -0.5566  0.1706
  244MOL0     C32820   8.199   5.827  10.177  0.0284  0.1268 -0.1053
  244MOL0     C32821   8.212   5.686  10.248  0.1283  0.3121 -0.7033
  244MOL0     N32822   8.134   5.698  10.370  0.3538 -0.0496  0.0689
  244MOL0     C32823   8.182   5.717  10.500 -0.2748 -0.5676 -0.2755
  244MOL0     C32824   8.072   5.713  10.581  0.4251  0.9496  0.2643
  244MOL0     C32825   8.065   5.714  10.730 -0.8048 -0.3162 -0.6860
  244MOL0     C32826   8.018   5.588  10.803 -0.0021  0.8654 -0.2252
  244MOL0     C32827   7.970   5.608  10.953 -0.1831  0.1089  0.7411
  244MOL0     C32828   7.881   5.492  10.999  0.5081  0.1231  0.0413
  244MOL0     O32829   7.911   5.362  10.956  0.0037 -0.4668  0.6265
  244MOL0     C32830   7.830   5.258  10.982  0.9031  0.4483  0.0326
  244MOL0     C32831   7.699   5.256  11.022 -0.0722  0.4102  0.8563
  244MOL0     C32832   7.630   5.130  11.044  0.6953 -0.4994  0.1671
  244MOL0     C32833   7.478   5.130  11.079  0.4464 -0.6017  0.5185
  244MOL0     C32834   7.699   5.008  11.038 -0.2476  0.0123 -0.2264
  244MOL0     C32835   7.645   4.869  11.066 -0.1212  0.0907  0.3330
  244MOL0     O32836   7.516   4.853  11.099  0.0202  0.1712  0.2421
  244MOL0     C32837   7.487   4.739  11.180  0.0113  1.1051 -0.0981
  244MOL0     C32838   7.473   4.604  11.132  0.0264 -0.0490 -0.6742
  244MOL0     C32839   7.435   4.507  11.220 -1.5192 -0.2753  0.3389
  244MOL0     C32840   7.389   4.534  11.351  0.5994  0.1281 -0.2370
  244MOL0     O32841   7.332   4.428  11.419 -0.8284  0.1588 -0.0529
  244MOL0     C32842   7.235   4.456  11.516 -0.0235  0.5296 -0.2351
  244MOL0     C32843   7.167   4.330  11.566 -1.1380  0.4065 -0.0124
  244MOL0     C32844   7.074   4.268  11.463 -0.1803  0.6249 -0.9712
  244MOL0     C32845   6.946   4.207  11.539 -0.0086 -0.6584  0.5001
  244MOL0     C32846   6.855   4.132  11.441 -0.1734 -0.0668 -0.4930
  244MOL0     C32847   6.784   4.229  11.342 -0.3493  0.0333 -0.4458
  244MOL0     C32848   6.692   4.148  11.248 -0.1168 -0.2621  0.3547
  244MOL0     C32849   6.650   4.234  11.131 -1.3390 -0.2249 -0.1542
  244MOL0    Cl32850   6.516   4.175  11.030  0.6988  0.1091 -0.0321
  244MOL0     C32851   7.410   4.671  11.400 -0.5758  0.7753  0.7297
  244MOL0     C32852   7.459   4.767  11.313 -0.0169 -0.5841 -0.3793
  244MOL0     O32853   7.722   4.776  11.051  0.3963 -0.5271  0.2045
  244MOL0     C32854   7.838   5.015  11.010 -0.6533 -0.0364 -0.1295
  244MOL0     C32855   7.897   5.136  10.976  0.6230  0.6570 -0.1016
  244MOL0     N32856   7.960   5.686  10.504 -0.2177  0.1717 -0.2898
  244MOL0     N32857   8.001   5.676  10.378 -0.8414  0.2308 -0.4824
  244MOL0     C32858   8.774   5.908   9.308 -0.4474 -0.6084 -0.2781
  244MOL0     C32859   8.757   5.840   9.186 -0.1958  0.1590 -0.4080
  244MOL0     C32860   8.494   5.624   8.832  0.1788 -0.6517 -0.6232
  244MOL0     C32861   8.610   5.581   8.774  0.0351 -0.8469 -0.3933
  244MOL0     C32862   8.608   5.477   8.672  0.0625  1.1673 -0.3542
  244MOL0     C32863   8.486   5.440   8.615 -0.2317 -1.0374  0.0362
  244MOL0     O32864   8.478   5.356   8.514 -0.4328 -0.2276  0.5474
  244MOL0     C32865   8.429   5.229   8.564  0.0957  0.0385 -0.1272
  244MOL0     C32866   8.378   5.153   8.432 -0.0916 -0.2148  0.5739
  244MOL0     C32867   8.479   5.139   8.318 -0.5419  0.1547  0.4438
  244MOL0     C32868   8.424   5.116   8.181 -0.9161  0.3904  0.3728
  244MOL0     C32869   8.327   5.003   8.175 -0.4273  0.4479  0.2700
  244MOL0     C32870   8.222   4.943   8.165 -0.2687 -0.1761  0.2429
  244MOL0     C32871   8.375   5.524   8.652  0.6152  1.3256 -0.4538
  244MOL0     C32872   8.377   5.614   8.758 -0.0032  0.3062 -0.4609
  244MOL0     H32873   8.430   5.759   9.213 -0.2190  1.4127 -1.9648
  244MOL0     H32874   8.460   5.874   9.417  0.0236  1.3721 -0.8964
  244MOL0     H32875   8.492   5.953   9.596 -0.5603 -3.5184 -0.8267
  244MOL0     H32876   8.612   5.834   9.647 -1.3590 -0.5943 -1.6572
  244MOL0     H32877   8.725   6.048   9.757  0.3628 -3.9751  0.9262
  244MOL0     H32878   8.575   6.122   9.730 -1.7470 -0.2655  3.4902
  244MOL0     H32879   8.629   5.855   9.891 -3.5854 -2.5505  1.6167
  244MOL0     H32880   8.614   6.007   9.965  1.2328  2.3589 -0.9900
  244MOL0     H32881   8.373   6.025   9.878 -0.3608 -0.5726  0.6738
  244MOL0     H32882   8.379   5.869   9.802 -2.5311 -0.8537  1.9927
  244MOL0     H32883   8.448   5.767  10.026 -0.3680 -0.7451 -2.1449
  244MOL0     H32884   8.429   5.931  10.086 -0.0074 -1.5422  0.4959
  244MOL0     H32885   8.194   5.923   9.982  1.2043 -0.7628 -2.0973
  244MOL0     H32886   8.215   5.754   9.961 -0.9784  0.1748 -0.4702
  244MOL0     H32887   8.264   5.897  10.231 -1.4782  0.9005  0.7534
  244MOL0     H32888   8.094   5.856  10.182  0.3843  1.4018  0.2747
  244MOL0     H32889   8.318   5.658  10.252 -0.2127 -0.9738 -0.4359
  244MOL0     H32890   8.170   5.605  10.188 -1.4365  4.0936 -5.3378
  244MOL0     H32891   8.286   5.714  10.529 -1.0208  1.1137  3.0169
  244MOL0     H32892   8.165   5.746  10.762  0.7903 -2.4699 -3.0799
  244MOL0     H32893   8.002   5.802  10.744  2.1738  1.7241  0.8437
  244MOL0     H32894   8.095   5.511  10.788  0.5074  1.1076  0.9979
  244MOL0     H32895   7.937   5.550  10.741  1.7320  0.9892 -2.7436
  244MOL0     H32896   7.919   5.703  10.967  0.2182  0.3997  0.2838
  244MOL0     H32897   8.067   5.612  11.003  0.6416  2.4816 -0.8750
  244MOL0     H32898   7.777   5.512  10.971  0.2407 -1.7032 -0.3419
  244MOL0     H32899   7.898   5.484  11.107  0.9103 -1.4741 -0.1199
  244MOL0     H32900   7.644   5.348  11.040  0.6600  0.7249  1.5434
  244MOL0     H32901   7.456   5.065  11.164  0.9332  0.1765  1.2536
  244MOL0     H32902   7.439   5.228  11.106  2.1679  0.8333 -1.7907
  244MOL0     H32903   7.425   5.090  10.992  1.6046 -2.6509  0.6905
  244MOL0     H32904   7.493   4.581  11.028  1.6814  1.4397 -0.7139
  244MOL0     H32905   7.453   4.409  11.177  3.9171  0.7615 -0.4215
  244MOL0     H32906   7.293   4.504  11.596 -2.9647  1.3216  1.5488
  244MOL0     H32907   7.164   4.532  11.483  1.0732  1.4250 -0.6194
  244MOL0     H32908   7.250   4.260  11.580 -1.4507 -0.9921 -3.9094
  244MOL0     H32909   7.114   4.352  11.659 -0.0880  0.9823  0.4590
  244MOL0     H32910   7.122   4.175  11.431  1.9705 -0.2492  3.8575
  244MOL0     H32911   7.042   4.334  11.382  1.7015  0.5327 -1.8407
  244MOL0     H32912   6.985   4.140  11.617 -0.9668 -0.3971  1.2245
  244MOL0     H32913   6.898   4.286  11.597  0.8524  1.9246 -2.0572
  244MOL0     H32914   6.775   4.086  11.500 -0.9392  0.8052 -0.8437
  244MOL0     H32915   6.897   4.047  11.386 -0.9863 -1.2163  0.5944
  244MOL0     H32916   6.713   4.300  11.385 -0.0943  0.9408 -1.4796
  244MOL0     H32917   6.858   4.291  11.290  1.5046 -1.7418 -0.0360
  244MOL0     H32918   6.602   4.116  11.301 -1.0598  0.2798 -0.8710
  244MOL0     H32919   6.753   4.062  11.220  1.6395  1.5047 -1.5416
  244MOL0     H32920   6.741   4.236  11.070 -1.5392 -0.8871 -0.4809
  244MOL0     H32921   6.622   4.335  11.161 -0.7284  1.0667 -3.4992
  244MOL0     H32922   7.389   4.703  11.502 -0.5120  1.2183  0.6068
  244MOL0     H32923   7.482   4.864  11.357  2.2160 -1.3926  0.3589
  244MOL0     H32924   7.895   4.925  10.989 -0.1185  0.0547  0.8842
  244MOL0     H32925   7.999   5.134  10.939  0.4720 -2.4382 -0.6730
  244MOL0     H32926   8.869   5.957   9.328  0.5717 -2.6031 -0.0251
  244MOL0     H32927   8.841   5.841   9.117 -1.3773 -1.7139 -2.0012
  244MOL0     H32928   8.703   5.616   8.818 -1.4453  0.7469  1.6576
  244MOL0     H32929   8.699   5.424   8.646 -2.5539 -4.7933  1.0266
  244MOL0     H32930   8.514   5.171   8.600  2.2607  0.7700 -3.5622
  244MOL0     H32931   8.344   5.236   8.632 -0.1240 -0.4806 -0.3412
  244MOL0     H32932   8.299   5.220   8.397 -0.4491 -0.3828  1.0507
  244MOL0     H32933   8.338   5.052   8.447 -1.6889  0.5126  1.4306
  244MOL0     H32934   8.540   5.050   8.335 -3.1037 -1.8365 -0.1163
  244MOL0     H32935   8.550   5.222   8.322 -1.1414  0.7339 -0.5295
  244MOL0     H32936   8.514   5.092   8.124 -0.8967 -1.1169  0.9859
  244MOL0     H32937   8.363   5.200   8.146 -2.9493 -0.1696  2.3411
  244MOL0     H32938   8.122   4.904   8.166 -0.1209 -0.5642  0.6266
  244MOL0     H32939   8.285   5.497   8.599  1.0694 -0.7088 -0.2990
  244MOL0     H32940   8.285   5.663   8.787 -1.2155 -1.8056 -0.5453
  245MOL0     O32941   9.184   9.018   5.160  0.2635  0.4955 -0.6075
  245MOL0     C32942   9.251   9.103   5.098 -0.0098 -0.2863  1.0039
  245MOL0     O32943   9.385   9.098   5.062 -0.1997 -0.1062 -0.0976
  245MOL0     C32944   9.463   9.011   5.134 -0.7342  0.2950 -0.0826
  245MOL0     C32945   9.438   8.878   5.163  0.0156  0.7938 -0.4700
  245MOL0     C32946   9.533   8.807   5.238  0.1969  0.5434 -1.1089
  245MOL0     C32947   9.636   8.862   5.289 -0.6689 -0.2188 -0.5859
  245MOL0     O32948   9.717   8.766   5.354  0.2464  0.4533 -0.2608
  245MOL0     C32949   9.755   8.786   5.488  0.1029 -0.0966  0.3945
  245MOL0     C32950   9.834   8.656   5.511  0.0577  0.7375  0.4596
  245MOL0     C32951   9.960   8.667   5.595 -0.7911 -0.2471  0.4947
  245MOL0     C32952  10.062   8.763   5.548  0.0276  0.4107 -0.3347
  245MOL0     C32953  10.206   8.715   5.597  0.4338 -0.2814  0.9830
  245MOL0     C32954  10.329   8.795   5.544 -0.2471  0.8051 -0.1245
  245MOL0     C32955  10.326   8.806   5.396  0.4629 -0.6872 -0.6497
  245MOL0     C32956  10.460   8.812   5.319  0.2446 -0.1457 -0.2513
  245MOL0     N32957  10.537   8.933   5.365 -0.3755  0.2525 -0.3182
  245MOL0     C32958  10.526   9.062   5.335  0.7332  0.4783 -0.4940
  245MOL0     C32959  10.618   9.128   5.405  0.6891 -0.0990  0.3436
  245MOL0     C32960  10.660   9.276   5.420  0.3008  0.2054 -0.6678
  245MOL0     C32961  10.807   9.302   5.395 -0.5241 -0.7503  0.7424
  245MOL0     C32962  10.836   9.443   5.405  0.0356 -0.5970 -1.5924
  245MOL0     C32963  10.986   9.468   5.378  0.2899 -0.2266  0.0707
  245MOL0     O32964  11.016   9.611   5.397  0.1980 -0.0949  0.5336
  245MOL0     C32965  11.148   9.649   5.391 -0.7430 -0.3294 -0.3626
  245MOL0     C32966  11.194   9.743   5.489  0.1319 -0.3106 -0.3290
  245MOL0     C32967  11.328   9.781   5.513  0.6617  0.4319  0.2152
  245MOL0     C32968  11.342   9.894   5.614 -0.7037  0.4353  0.2667
  245MOL0     C32969  11.425   9.714   5.442 -0.1036  0.6458 -0.3906
  245MOL0     C32970  11.565   9.769   5.438 -0.4473  0.3522  0.6232
  245MOL0     O32971  11.587   9.903   5.441 -0.7721  0.4763 -0.3314
  245MOL0     C32972  11.719   9.957   5.456  0.4522 -0.5445  0.1621
  245MOL0     C32973  11.742  10.080   5.405  0.6211 -0.6521  0.5680
  245MOL0     C32974  11.862  10.153   5.424  0.0827 -0.2570  0.1973
  245MOL0     C32975  11.964  10.092   5.492 -0.1581  0.2026 -0.1701
  245MOL0     O32976  12.085  10.154   5.493  0.1241 -0.2034 -1.0886
  245MOL0     C32977  12.211  10.090   5.533 -0.1309  0.1201 -0.0223
  245MOL0     C32978  12.324  10.189   5.512 -1.0282 -0.2506 -0.3485
  245MOL0     C32979  12.361  10.196   5.364  0.1409 -0.4058 -0.1108
  245MOL0     C32980  12.455  10.324   5.352  0.3361  0.2683  0.9153
  245MOL0     C32981  12.515  10.338   5.208  0.0700 -0.0034 -0.4773
  245MOL0     C32982  12.423  10.376   5.095  0.0028  0.2102 -0.3898
  245MOL0     C32983  12.499  10.414   4.962 -0.3971  1.1028 -1.0899
  245MOL0     C32984  12.441  10.340   4.847 -0.4588 -1.0950 -0.3998
  245MOL0    Cl32985  12.528  10.388   4.702  0.1551  0.3646  0.3423
  245MOL0     C32986  11.946   9.972   5.557  0.4461  0.6538  0.4185
  245MOL0     C32987  11.819   9.909   5.540  0.9386 -0.6606  0.4813
  245MOL0     O32988  11.656   9.685   5.430  0.4314  0.1655  0.1553
  245MOL0     C32989  11.386   9.614   5.348  0.4835  0.4550 -0.5908
  245MOL0     C32990  11.250   9.578   5.326  0.5063  0.5001  0.3239
  245MOL0     N32991  10.690   9.034   5.474 -1.1063 -0.9531 -0.1970
  245MOL0     N32992  10.637   8.923   5.456 -0.1937 -1.0094  0.4488
  245MOL0     C32993   9.673   8.995   5.277  0.0824  0.3227  0.4137
  245MOL0     C32994   9.583   9.062   5.195 -0.1304  0.1486  0.1394
  245MOL0     C32995   9.185   9.217   5.038  0.5125 -0.2147  0.1865
  245MOL0     C32996   9.051   9.248   5.076 -0.2060  0.7387 -0.4926
  245MOL0     C32997   8.992   9.364   5.029 -0.5640  0.0734 -0.6342
  245MOL0     C32998   9.046   9.448   4.931  0.5113  0.7985  0.0499
  245MOL0     O32999   8.967   9.564   4.907  0.1166 -0.5355 -0.2158
  245MOL0     C33000   9.033   9.666   4.821  0.0475  0.6784 -0.0318
  245MOL0     C33001   8.968   9.668   4.680 -0.7013 -0.1830 -0.1615
  245MOL0     C33002   8.825   9.720   4.702 -0.6890  0.0740  0.5578
  245MOL0     C33003   8.809   9.876   4.694 -0.0997 -0.2556  0.2053
  245MOL0     C33004   8.676   9.914   4.722  0.0845 -0.0206 -0.4438
  245MOL0     C33005   8.561   9.956   4.743 -0.5099 -0.0346  0.0674
  245MOL0     C33006   9.173   9.413   4.872  0.1970 -0.5821 -0.1290
  245MOL0     C33007   9.238   9.306   4.940 -0.5435 -0.3950 -0.3431
  245MOL0     H33008   9.346   8.834   5.126 -0.0859  0.6025 -0.0047
  245MOL0     H33009   9.518   8.700   5.249  3.4338  0.0162 -1.0362
  245MOL0     H33010   9.813   8.879   5.495 -0.8424  0.4329  1.3289
  245MOL0     H33011   9.664   8.790   5.548  0.0041 -1.5392  0.3825
  245MOL0     H33012   9.764   8.582   5.551 -1.8217  1.0289 -2.0449
  245MOL0     H33013   9.870   8.617   5.416 -0.9002  1.0940 -0.0590
  245MOL0     H33014   9.930   8.686   5.699  0.4612 -1.7006  1.1785
  245MOL0     H33015  10.016   8.573   5.601  1.1058  0.9005  2.8953
  245MOL0     H33016  10.067   8.773   5.439 -2.6759  2.6899 -0.3601
  245MOL0     H33017  10.035   8.862   5.585 -0.4525  0.3936 -0.6392
  245MOL0     H33018  10.201   8.705   5.705 -3.6174 -1.1531  0.8753
  245MOL0     H33019  10.222   8.617   5.550  0.4578  0.7421 -1.2833
  245MOL0     H33020  10.324   8.889   5.600 -0.2814  1.0006 -0.4582
  245MOL0     H33021  10.419   8.738   5.570  0.2120  1.4036 -0.3685
  245MOL0     H33022  10.273   8.724   5.349  1.7117 -2.2203  0.4999
  245MOL0     H33023  10.275   8.901   5.376  0.0877 -1.0330 -1.3419
  245MOL0     H33024  10.430   8.807   5.214 -3.0896 -1.2994  0.6528
  245MOL0     H33025  10.514   8.720   5.346 -0.3176  0.1786  2.2498
  245MOL0     H33026  10.459   9.104   5.260 -0.2112  2.4936  1.3569
  245MOL0     H33027  10.601   9.343   5.357 -1.3986  0.8935  1.5259
  245MOL0     H33028  10.636   9.317   5.519 -2.8852  1.6224 -1.9001
  245MOL0     H33029  10.849   9.270   5.299  1.2204 -2.3012  1.9500
  245MOL0     H33030  10.859   9.244   5.472  1.5332  3.3692  2.8235
  245MOL0     H33031  10.818   9.458   5.511  1.0968  0.1358 -1.5065
  245MOL0     H33032  10.772   9.501   5.337  1.8499 -0.3684 -3.1734
  245MOL0     H33033  11.012   9.441   5.275  0.6103 -2.6585  0.7508
  245MOL0     H33034  11.048   9.405   5.442 -0.2700 -0.3052  0.5347
  245MOL0     H33035  11.112   9.779   5.550 -0.5873 -0.5841 -1.1101
  245MOL0     H33036  11.439   9.888   5.663 -0.3761 -1.0524 -0.5008
  245MOL0     H33037  11.331   9.996   5.576  0.4092  0.1823 -0.7873
  245MOL0     H33038  11.263   9.885   5.688 -1.1723 -0.0222 -0.2769
  245MOL0     H33039  11.657  10.124   5.353  1.6337 -1.0284 -1.5260
  245MOL0     H33040  11.871  10.257   5.393  1.5405 -0.7831 -1.2086
  245MOL0     H33041  12.207  10.061   5.639  2.2654  0.7398  0.3008
  245MOL0     H33042  12.225  10.003   5.468 -0.2579  0.6290 -0.7317
  245MOL0     H33043  12.296  10.291   5.539  0.8934  0.3361 -0.4134
  245MOL0     H33044  12.414  10.176   5.574 -3.1030 -0.8271  2.7865
  245MOL0     H33045  12.277  10.225   5.299  2.1739  0.9938 -2.2967
  245MOL0     H33046  12.394  10.100   5.323  0.2328  0.0742 -1.1953
  245MOL0     H33047  12.416  10.421   5.383 -0.1235 -0.4531  2.7474
  245MOL0     H33048  12.541  10.303   5.417  1.8460  0.7578 -0.8373
  245MOL0     H33049  12.558  10.241   5.181 -0.3771 -1.3306  2.9741
  245MOL0     H33050  12.607  10.397   5.204 -0.5304  0.9274 -0.8882
  245MOL0     H33051  12.357  10.291   5.075  0.3009 -0.1288  0.0742
  245MOL0     H33052  12.365  10.462   5.130  1.2260 -0.0201  2.4046
  245MOL0     H33053  12.600  10.374   4.967 -0.5960  0.7083  0.0949
  245MOL0     H33054  12.496  10.520   4.937 -2.0170  0.7585 -2.5482
  245MOL0     H33055  12.339  10.377   4.835 -0.2662 -0.3988  0.0434
  245MOL0     H33056  12.435  10.231   4.855 -2.0516 -1.0129 -0.1421
  245MOL0     H33057  12.026   9.926   5.613  1.1163 -1.4401 -2.0925
  245MOL0     H33058  11.793   9.813   5.584 -0.2206  0.8691  3.4163
  245MOL0     H33059  11.466   9.568   5.290 -0.2273 -1.5575 -0.0446
  245MOL0     H33060  11.224   9.522   5.237  0.2556  1.9352 -0.5410
  245MOL0     H33061   9.764   9.039   5.318  0.3248  0.4014 -0.1950
  245MOL0     H33062   9.608   9.166   5.177 -0.2419  0.1078 -0.2576
  245MOL0     H33063   8.997   9.200   5.157  4.5894 -1.6992  1.7007
  245MOL0     H33064   8.901   9.398   5.077  0.5074 -0.5139  2.0029
  245MOL0     H33065   9.018   9.762   4.873 -1.9976  1.5261 -1.9628
  245MOL0     H33066   9.139   9.659   4.798  0.5191  2.4996  1.2796
  245MOL0     H33067   8.982   9.578   4.619  0.8903  1.1829 -1.9630
  245MOL0     H33068   9.026   9.738   4.619  0.4228 -0.5480  0.4713
  245MOL0     H33069   8.786   9.693   4.800 -0.5169 -1.2841  0.2653
  245MOL0     H33070   8.777   9.675   4.615  2.9667 -0.9050 -1.1657
  245MOL0     H33071   8.838   9.913   4.595 -3.6269  1.7012 -0.2681
  245MOL0     H33072   8.871   9.915   4.775 -0.1247 -4.4363  2.5441
  245MOL0     H33073   8.466   9.987   4.782  0.1391  1.3312  0.6171
  245MOL0     H33074   9.226   9.461   4.790  0.1735 -1.3057 -0.5746
  245MOL0     H33075   9.341   9.287   4.911 -0.2354 -2.0933  1.6437
  246MOL0     O33076   0.044   3.975   7.129 -0.1414 -0.9971 -0.1496
  246MOL0     C33077   0.074   4.069   7.199  0.2168  0.1467 -0.0955
  246MOL0     O33078  -0.019   4.155   7.263 -0.0426 -0.2218  0.1154
  246MOL0     C33079  -0.148   4.124   7.264 -0.0903 -0.1017  0.1536
  246MOL0     C33080  -0.218   4.120   7.386  0.2145  0.5046 -0.0614
  246MOL0     C33081  -0.349   4.070   7.386  0.7665 -0.9404 -0.3632
  246MOL0     C33082  -0.411   4.035   7.260 -0.1019 -0.5037 -0.4707
  246MOL0     O33083  -0.542   3.994   7.238 -0.8576  0.2849 -0.7345
  246MOL0     C33084  -0.642   4.028   7.337  0.7373  0.4178 -0.1740
  246MOL0     C33085  -0.780   3.998   7.276  0.1563 -0.4963  0.2385
  246MOL0     C33086  -0.876   4.113   7.326 -1.1114 -0.7008  0.1160
  246MOL0     C33087  -1.009   4.117   7.262  0.1531 -0.6642  0.7273
  246MOL0     C33088  -1.098   4.238   7.317  0.3187 -0.0948  0.3402
  246MOL0     C33089  -1.191   4.300   7.211  0.1813  0.1098 -0.0492
  246MOL0     C33090  -1.251   4.430   7.264  0.2453 -0.5602 -1.4065
  246MOL0     C33091  -1.340   4.501   7.162  0.0174  0.1061  0.4856
  246MOL0     N33092  -1.456   4.427   7.118  0.7941 -0.4472  0.2453
  246MOL0     C33093  -1.472   4.329   7.015 -0.4034 -0.8766  0.4961
  246MOL0     C33094  -1.593   4.285   7.033  0.6599  0.0202  0.2028
  246MOL0     C33095  -1.662   4.181   6.952  0.6246  0.5749  0.8187
  246MOL0     C33096  -1.767   4.233   6.860  0.3599  0.0190  0.3750
  246MOL0     C33097  -1.865   4.122   6.822  0.9507 -0.4414  0.0181
  246MOL0     C33098  -1.995   4.183   6.769 -0.1819 -1.3510 -0.2240
  246MOL0     O33099  -1.980   4.250   6.637 -0.3036  0.2817 -0.2371
  246MOL0     C33100  -2.001   4.391   6.640  0.3528  1.2913  0.0929
  246MOL0     C33101  -1.890   4.477   6.616 -0.1901 -0.1111 -0.3700
  246MOL0     C33102  -1.911   4.617   6.609  0.4426  1.1766  0.5077
  246MOL0     C33103  -1.792   4.690   6.551  0.4611  0.0359 -0.3550
  246MOL0     C33104  -2.042   4.666   6.619 -0.1428 -0.3079 -0.2443
  246MOL0     C33105  -2.072   4.817   6.623 -0.1274  0.0343 -0.6146
  246MOL0     O33106  -1.989   4.917   6.573 -0.2454 -0.6307 -0.4292
  246MOL0     C33107  -2.041   5.035   6.524  0.6511 -0.1617  0.2393
  246MOL0     C33108  -2.130   5.110   6.598  0.2432 -1.0592  0.1488
  246MOL0     C33109  -2.178   5.238   6.538 -0.2476  0.4003 -0.7520
  246MOL0     C33110  -2.165   5.263   6.405 -0.7610  0.2349 -0.5297
  246MOL0     O33111  -2.224   5.389   6.359 -1.3092  0.6442 -1.2726
  246MOL0     C33112  -2.167   5.429   6.236  0.8841 -0.9523 -0.7170
  246MOL0     C33113  -2.253   5.366   6.122  0.2435  0.2945  0.5864
  246MOL0     C33114  -2.194   5.394   5.983 -0.6332  0.6539  0.2003
  246MOL0     C33115  -2.276   5.333   5.864 -0.2204 -0.5808 -0.8384
  246MOL0     C33116  -2.185   5.229   5.791  0.0155  0.4630 -0.3130
  246MOL0     C33117  -2.202   5.090   5.853 -0.9422  0.8176  0.4223
  246MOL0     C33118  -2.163   4.977   5.746  0.0260  0.3224  0.6365
  246MOL0     C33119  -2.177   4.845   5.821 -0.9617 -0.3906  0.0368
  246MOL0    Cl33120  -2.113   4.706   5.743  0.2191 -0.4540 -0.5163
  246MOL0     C33121  -2.076   5.182   6.336  0.1667  0.0956 -1.1202
  246MOL0     C33122  -2.028   5.060   6.388  0.0535  0.2164  0.1449
  246MOL0     O33123  -2.187   4.837   6.651  0.7000 -0.2532 -0.4329
  246MOL0     C33124  -2.150   4.580   6.619  0.0205  0.2917  0.2347
  246MOL0     C33125  -2.131   4.442   6.635  0.6221 -0.0844  1.0610
  246MOL0     N33126  -1.654   4.352   7.144 -0.4784  0.1502 -0.1686
  246MOL0     N33127  -1.572   4.433   7.191 -1.1236 -0.1632 -0.1592
  246MOL0     C33128  -0.343   4.061   7.139 -0.5354  0.3221 -0.1764
  246MOL0     C33129  -0.218   4.107   7.138 -0.1602  0.5797  0.1692
  246MOL0     C33130   0.218   4.107   7.219  1.0632 -0.3210  0.3673
  246MOL0     C33131   0.310   4.094   7.112 -0.5135  0.7407 -0.6458
  246MOL0     C33132   0.442   4.145   7.132  0.1870  0.7905 -0.2950
  246MOL0     C33133   0.479   4.208   7.250  0.9200 -0.1379  0.5971
  246MOL0     O33134   0.591   4.276   7.271 -1.1619  0.1749 -0.2495
  246MOL0     C33135   0.712   4.210   7.218 -0.1675 -0.4358  0.1240
  246MOL0     C33136   0.835   4.294   7.227  0.8623  0.4582  0.1399
  246MOL0     C33137   0.962   4.218   7.217 -0.4586  0.6913  0.1039
  246MOL0     C33138   1.008   4.223   7.076  0.5737  0.8218  0.8766
  246MOL0     C33139   0.923   4.149   6.986 -0.2499  0.6470 -0.5283
  246MOL0     C33140   0.848   4.098   6.903 -0.5941 -0.2736 -0.1819
  246MOL0     C33141   0.386   4.209   7.354  0.3451 -0.3855 -0.4778
  246MOL0     C33142   0.258   4.170   7.337  0.0269  0.1898  0.4087
  246MOL0     H33143  -0.152   4.129   7.472  5.1449 -2.3886 -3.0236
  246MOL0     H33144  -0.396   4.064   7.483  0.4384  0.9250 -0.3645
  246MOL0     H33145  -0.628   3.962   7.423 -1.9192  0.0046  0.0207
  246MOL0     H33146  -0.632   4.134   7.363  0.1491  0.4583 -0.1054
  246MOL0     H33147  -0.778   4.012   7.167  1.1924  0.7546  0.3970
  246MOL0     H33148  -0.819   3.898   7.295  0.6395 -0.8949 -0.8005
  246MOL0     H33149  -0.904   4.088   7.429  0.1936 -0.8880  0.4406
  246MOL0     H33150  -0.827   4.208   7.305 -1.2752 -0.9372 -1.4638
  246MOL0     H33151  -0.985   4.129   7.156  0.3108 -1.6812  0.6360
  246MOL0     H33152  -1.067   4.026   7.276  0.8162 -1.0740  0.8524
  246MOL0     H33153  -1.156   4.203   7.402  1.1545 -2.1996  0.1305
  246MOL0     H33154  -1.042   4.323   7.356  0.6175  1.2303 -2.7208
  246MOL0     H33155  -1.127   4.326   7.126 -1.1310  0.2085 -1.0397
  246MOL0     H33156  -1.273   4.234   7.179 -1.2644  1.4548  0.7408
  246MOL0     H33157  -1.308   4.406   7.354  0.6749 -2.1727 -1.5360
  246MOL0     H33158  -1.169   4.498   7.287 -0.0648 -0.7257  0.3746
  246MOL0     H33159  -1.280   4.534   7.077  0.3945  0.0006  0.7105
  246MOL0     H33160  -1.378   4.593   7.207 -1.5887 -1.8441  3.5605
  246MOL0     H33161  -1.402   4.292   6.941 -0.0732  0.1950  0.2470
  246MOL0     H33162  -1.581   4.131   6.899  1.2778 -0.2061  2.4720
  246MOL0     H33163  -1.711   4.114   7.022 -0.1823  2.0626  1.7302
  246MOL0     H33164  -1.714   4.280   6.776  0.2692  0.9630  0.8272
  246MOL0     H33165  -1.812   4.318   6.913 -0.9172 -0.1383 -0.4240
  246MOL0     H33166  -1.891   4.072   6.916 -1.7115  0.0963 -0.3466
  246MOL0     H33167  -1.824   4.051   6.750 -0.4157 -1.4048  0.1590
  246MOL0     H33168  -2.040   4.248   6.844 -1.4286 -1.3019 -0.9821
  246MOL0     H33169  -2.074   4.108   6.759 -1.8483  0.5117 -1.9364
  246MOL0     H33170  -1.795   4.426   6.602  0.5636  1.8034 -2.9459
  246MOL0     H33171  -1.756   4.761   6.627  0.9274  2.0235 -2.3154
  246MOL0     H33172  -1.711   4.623   6.521  1.1166  0.2999  0.7376
  246MOL0     H33173  -1.823   4.760   6.473 -1.6879  0.4842  0.8218
  246MOL0     H33174  -2.136   5.090   6.705 -0.6570  0.9533  0.5167
  246MOL0     H33175  -2.237   5.312   6.590 -2.7040 -0.3551 -2.2579
  246MOL0     H33176  -2.189   5.537   6.236  2.0901 -0.5641  3.2710
  246MOL0     H33177  -2.059   5.425   6.227  1.0536  2.5422 -1.8016
  246MOL0     H33178  -2.258   5.258   6.136  3.5822  0.2300  2.2352
  246MOL0     H33179  -2.354   5.408   6.132  0.4893  1.4783 -1.3737
  246MOL0     H33180  -2.093   5.353   5.981 -0.5447  0.6401  2.4553
  246MOL0     H33181  -2.176   5.500   5.964  0.1129 -0.1067 -4.3342
  246MOL0     H33182  -2.363   5.274   5.896  1.0725 -1.5416  1.0721
  246MOL0     H33183  -2.301   5.406   5.786  0.4101 -0.6720 -1.1303
  246MOL0     H33184  -2.086   5.274   5.784 -0.9555  2.7626 -0.2667
  246MOL0     H33185  -2.211   5.222   5.685  2.4577 -1.0003 -0.8818
  246MOL0     H33186  -2.129   5.069   5.932  0.1734  0.7948 -0.5803
  246MOL0     H33187  -2.302   5.062   5.886 -0.1826 -1.2978  1.0926
  246MOL0     H33188  -2.058   4.981   5.717 -0.3433 -1.8901 -1.3166
  246MOL0     H33189  -2.240   4.981   5.668 -0.5703  3.4262  1.2452
  246MOL0     H33190  -2.283   4.824   5.839 -0.7633 -1.4782  0.0228
  246MOL0     H33191  -2.127   4.855   5.917  0.4098 -0.9396 -0.5867
  246MOL0     H33192  -2.052   5.203   6.232  4.7157 -0.1996 -0.3169
  246MOL0     H33193  -1.962   4.994   6.331 -1.2988 -0.9715 -0.0951
  246MOL0     H33194  -2.254   4.608   6.607  0.3245  0.6945 -1.8116
  246MOL0     H33195  -2.221   4.382   6.643 -1.5065  2.6595 -0.5936
  246MOL0     H33196  -0.388   4.040   7.043 -0.9066  3.5308 -0.7930
  246MOL0     H33197  -0.166   4.133   7.047  2.3670  0.2905  1.4229
  246MOL0     H33198   0.293   4.032   7.025  1.3777 -3.2202  1.5133
  246MOL0     H33199   0.511   4.133   7.050 -1.1061 -0.3846 -1.2569
  246MOL0     H33200   0.732   4.122   7.280 -0.3206  0.0184  0.8317
  246MOL0     H33201   0.702   4.173   7.116 -0.3877 -0.8902  0.3059
  246MOL0     H33202   0.831   4.336   7.328 -1.6965  3.3690 -1.0115
  246MOL0     H33203   0.821   4.382   7.163 -1.1345  0.0552 -0.0191
  246MOL0     H33204   0.944   4.113   7.244 -3.8748  1.5795  1.7398
  246MOL0     H33205   1.041   4.270   7.271  0.2732 -0.5088  0.2344
  246MOL0     H33206   1.102   4.174   7.048 -2.3393 -2.5025 -4.9914
  246MOL0     H33207   1.013   4.320   7.027 -0.2192  0.7108  0.5606
  246MOL0     H33208   0.785   4.044   6.835  3.1252 -0.5881 -3.8018
  246MOL0     H33209   0.415   4.248   7.451 -0.0936 -1.1602 -0.0276
  246MOL0     H33210   0.187   4.193   7.416 -1.6130  0.2427 -1.0233
  247MOL0     O33211   1.015   6.584   3.619 -0.0197 -0.8543 -0.3015
  247MOL0     C33212   1.122   6.546   3.666  0.0807  0.4319  0.5978
  247MOL0     O33213   1.188   6.603   3.772  0.2170  0.8863  0.2369
  247MOL0     C33214   1.148   6.723   3.816 -0.0916  0.0128  0.4890
  247MOL0     C33215   1.166   6.741   3.955  0.1042 -0.0425 -0.2302
  247MOL0     C33216   1.103   6.849   4.022  0.1203 -0.1357 -0.1366
  247MOL0     C33217   1.039   6.944   3.947  1.0004 -0.3198 -0.8114
  247MOL0     O33218   0.982   7.043   4.020 -0.1942 -0.4208 -0.8870
  247MOL0     C33219   0.982   7.178   3.965  0.1720  0.2619 -0.8680
  247MOL0     C33220   1.115   7.256   3.994 -0.5629 -0.0094 -0.8861
  247MOL0     C33221   1.120   7.288   4.146 -0.4694 -0.0337  0.1780
  247MOL0     C33222   1.058   7.427   4.183 -0.4258 -0.2829 -0.7085
  247MOL0     C33223   1.011   7.445   4.334  0.6103 -0.1215 -0.5202
  247MOL0     C33224   1.106   7.479   4.449 -0.0556 -0.6647  0.2865
  247MOL0     C33225   1.045   7.462   4.584 -0.5742  0.1484 -0.3759
  247MOL0     C33226   1.157   7.485   4.698 -0.2956 -0.1201  0.2211
  247MOL0     N33227   1.109   7.511   4.839  0.3841 -0.5701  0.5371
  247MOL0     C33228   1.047   7.628   4.880 -1.1380  0.4738 -0.2946
  247MOL0     C33229   0.973   7.587   4.986  0.5672  0.3028  0.6977
  247MOL0     C33230   0.880   7.666   5.066 -0.0510 -0.6238  0.2251
  247MOL0     C33231   0.744   7.690   4.998 -0.6926  0.4521  0.6840
  247MOL0     C33232   0.668   7.558   4.977 -0.4541 -0.3521  1.0091
  247MOL0     C33233   0.678   7.516   4.830  0.4648 -0.2474  0.5430
  247MOL0     O33234   0.574   7.418   4.816  0.2741 -0.5976 -0.1014
  247MOL0     C33235   0.599   7.287   4.852 -0.4550  0.0708  0.6869
  247MOL0     C33236   0.734   7.228   4.867  1.4067  0.0051  0.9308
  247MOL0     C33237   0.754   7.100   4.908 -0.7860 -0.4935 -1.4695
  247MOL0     C33238   0.898   7.064   4.949  0.2829 -0.0809 -0.2361
  247MOL0     C33239   0.643   7.015   4.939  0.2454 -0.0819 -0.4039
  247MOL0     C33240   0.639   6.871   4.959 -0.2204 -0.2483 -0.8889
  247MOL0     O33241   0.738   6.797   4.900  0.3174 -0.9479  0.7064
  247MOL0     C33242   0.751   6.659   4.905  0.8034 -0.2838 -0.6151
  247MOL0     C33243   0.655   6.572   4.952 -0.2433 -0.2183 -0.8163
  247MOL0     C33244   0.675   6.435   4.942 -0.3812 -1.4457 -0.4270
  247MOL0     C33245   0.805   6.377   4.918  0.3562 -0.3573  0.4536
  247MOL0     O33246   0.829   6.244   4.900 -0.1366  0.0797 -1.0371
  247MOL0     C33247   0.737   6.151   4.945 -0.0695  0.2224 -0.6302
  247MOL0     C33248   0.798   6.011   4.901 -0.6652 -1.5382  0.0083
  247MOL0     C33249   0.941   5.968   4.956 -1.0913 -0.1016 -0.5107
  247MOL0     C33250   0.989   5.829   4.900 -0.2962 -0.0981  0.5332
  247MOL0     C33251   0.888   5.712   4.881 -0.3257  0.0819 -0.2711
  247MOL0     C33252   0.808   5.669   5.000 -0.0848 -0.2607  0.3146
  247MOL0     C33253   0.786   5.522   5.016  0.1249  0.3958 -0.4112
  247MOL0     C33254   0.917   5.458   5.084 -1.0561  0.4018  0.1521
  247MOL0    Cl33255   0.908   5.293   5.158  0.1200 -0.1665 -0.2254
  247MOL0     C33256   0.909   6.464   4.899  0.6817  0.2789 -0.5946
  247MOL0     C33257   0.882   6.604   4.891 -0.1457  0.0708 -0.5761
  247MOL0     O33258   0.552   6.832   5.033 -0.1898  0.0990 -0.1739
  247MOL0     C33259   0.520   7.069   4.909  0.1067 -0.3824 -0.1516
  247MOL0     C33260   0.494   7.203   4.870 -0.0256 -0.0539 -0.2632
  247MOL0     N33261   1.003   7.454   5.011  0.0505  0.1550  0.3298
  247MOL0     N33262   1.072   7.404   4.914  0.1235  0.3102 -0.6626
  247MOL0     C33263   1.020   6.923   3.812  0.1398  1.1861 -0.2414
  247MOL0     C33264   1.066   6.815   3.742  0.0174 -0.3505 -0.3925
  247MOL0     C33265   1.174   6.423   3.601  0.0592  0.3363  0.1532
  247MOL0     C33266   1.119   6.363   3.483  0.3659 -0.2958 -0.4184
  247MOL0     C33267   1.171   6.246   3.427 -1.4732 -0.1559 -0.3480
  247MOL0     C33268   1.287   6.179   3.476  0.3865  0.3293  0.0592
  247MOL0     O33269   1.320   6.050   3.440  1.2515 -0.6490  0.7737
  247MOL0     C33270   1.436   6.029   3.354  0.3144  0.4430 -0.2595
  247MOL0     C33271   1.414   5.896   3.281  0.8076 -0.0238  0.3130
  247MOL0     C33272   1.516   5.876   3.168  0.5479  0.2576  0.4407
  247MOL0     C33273   1.465   5.756   3.089  0.3452 -0.3659  0.0865
  247MOL0     C33274   1.472   5.620   3.156  0.3953 -0.8497 -0.4022
  247MOL0     C33275   1.492   5.514   3.212  0.4762 -0.3139  0.2065
  247MOL0     C33276   1.346   6.248   3.593 -0.1529  0.6732  0.9419
  247MOL0     C33277   1.290   6.365   3.647 -0.0017  0.4389  0.5828
  247MOL0     H33278   1.222   6.673   4.017 -0.9877  0.5466  1.4898
  247MOL0     H33279   1.102   6.854   4.130  3.3277  0.7185 -0.0570
  247MOL0     H33280   0.961   7.193   3.858  0.6603  4.2550 -0.5731
  247MOL0     H33281   0.895   7.227   4.011 -0.5676 -0.0351 -1.9039
  247MOL0     H33282   1.207   7.205   3.963  1.3143  4.2967 -3.2185
  247MOL0     H33283   1.113   7.349   3.937 -1.0346 -0.5769 -1.8104
  247MOL0     H33284   1.047   7.226   4.199  0.3108 -0.3874  0.8570
  247MOL0     H33285   1.212   7.263   4.200 -1.0133  0.9863  1.6448
  247MOL0     H33286   1.127   7.508   4.158 -1.3567  1.2092  1.2736
  247MOL0     H33287   0.970   7.441   4.119 -0.8133  0.0544 -0.1072
  247MOL0     H33288   0.937   7.524   4.347  0.1957 -0.2580 -1.9092
  247MOL0     H33289   0.965   7.352   4.370  0.3442  0.8183  1.7052
  247MOL0     H33290   1.194   7.416   4.432 -0.0333 -0.5761  0.0822
  247MOL0     H33291   1.140   7.580   4.423  2.8201 -1.4723  0.5221
  247MOL0     H33292   0.968   7.539   4.596 -0.3009  1.1790 -4.1533
  247MOL0     H33293   1.005   7.362   4.600 -2.8182  0.7360 -1.8607
  247MOL0     H33294   1.231   7.559   4.666 -0.9764  0.3449 -0.2852
  247MOL0     H33295   1.212   7.391   4.706  0.8970  0.3113 -2.1356
  247MOL0     H33296   1.059   7.729   4.841 -2.3636  0.9942  0.6218
  247MOL0     H33297   0.866   7.603   5.155  0.2237 -1.5770 -0.3980
  247MOL0     H33298   0.940   7.756   5.083  0.9007 -1.5996  2.4147
  247MOL0     H33299   0.736   7.746   4.904 -1.0446 -3.8909 -2.1329
  247MOL0     H33300   0.689   7.751   5.070 -2.1298  0.2764 -0.2141
  247MOL0     H33301   0.563   7.582   5.000  0.2668  2.9372  1.4022
  247MOL0     H33302   0.702   7.482   5.048  0.3507 -2.3960 -1.4110
  247MOL0     H33303   0.778   7.472   4.821 -0.1775 -1.8064  0.8721
  247MOL0     H33304   0.667   7.599   4.759 -0.2494 -0.0119  0.9288
  247MOL0     H33305   0.829   7.279   4.861  0.7003  1.3298  0.7905
  247MOL0     H33306   0.941   6.997   4.874  1.6242  0.3872  0.1025
  247MOL0     H33307   0.972   7.144   4.952 -1.8130  2.2155 -3.2152
  247MOL0     H33308   0.901   7.011   5.045  2.4315  1.3124  0.5286
  247MOL0     H33309   0.556   6.611   4.975 -0.7955 -2.7617  1.6828
  247MOL0     H33310   0.590   6.373   4.968 -2.1344  1.5443  1.5698
  247MOL0     H33311   0.725   6.157   5.054 -3.5296 -3.8062 -0.5101
  247MOL0     H33312   0.635   6.166   4.910 -0.0758  2.1017  0.0794
  247MOL0     H33313   0.730   5.939   4.946 -1.3963  0.9370  3.2630
  247MOL0     H33314   0.819   6.011   4.794  1.4097 -1.6746  0.3564
  247MOL0     H33315   0.939   5.959   5.065 -0.3372 -2.5319 -0.6474
  247MOL0     H33316   1.012   6.045   4.922 -0.2730 -0.0486  1.2347
  247MOL0     H33317   1.025   5.843   4.797 -3.3114  2.1109 -0.3733
  247MOL0     H33318   1.072   5.795   4.963  1.9475  1.2833 -1.4909
  247MOL0     H33319   0.955   5.628   4.858 -1.9722 -1.6138  0.8498
  247MOL0     H33320   0.820   5.733   4.798  2.2353  3.0057 -1.8368
  247MOL0     H33321   0.864   5.718   5.080 -0.2798  1.2956 -0.4719
  247MOL0     H33322   0.709   5.717   4.996 -0.4844 -0.7365  2.7453
  247MOL0     H33323   0.771   5.474   4.919  2.3250 -1.5895  0.1338
  247MOL0     H33324   0.700   5.518   5.083  0.2474  1.9434 -0.1276
  247MOL0     H33325   0.945   5.522   5.168  0.2368 -2.2740  1.9084
  247MOL0     H33326   0.992   5.467   5.004 -2.2646  0.6992 -0.9876
  247MOL0     H33327   1.013   6.438   4.881 -0.1095 -2.1069 -2.1903
  247MOL0     H33328   0.971   6.665   4.879  0.1764  0.2096  2.0877
  247MOL0     H33329   0.436   7.001   4.918  1.1231 -1.5011  1.5992
  247MOL0     H33330   0.390   7.231   4.865  0.3527  1.8012  1.0506
  247MOL0     H33331   0.947   6.974   3.749 -1.0560 -0.4301 -0.2425
  247MOL0     H33332   1.035   6.804   3.638  1.3822 -1.4480 -0.7091
  247MOL0     H33333   1.028   6.398   3.436  0.4824  1.9822  0.9120
  247MOL0     H33334   1.128   6.221   3.331  2.9886  0.1065 -2.6521
  247MOL0     H33335   1.446   6.111   3.282  1.4265 -0.8555 -1.6652
  247MOL0     H33336   1.521   6.013   3.422  1.1148 -2.5276 -1.7746
  247MOL0     H33337   1.314   5.905   3.239  2.2189  1.6775 -3.0742
  247MOL0     H33338   1.411   5.816   3.356  2.6923 -0.2469  0.1885
  247MOL0     H33339   1.613   5.868   3.219  1.4017 -2.2667 -1.3689
  247MOL0     H33340   1.529   5.966   3.107 -1.9866 -0.2032 -0.9282
  247MOL0     H33341   1.521   5.743   2.996  1.7634 -0.9105  0.9772
  247MOL0     H33342   1.364   5.781   3.055  0.4806  3.0457  1.8226
  247MOL0     H33343   1.493   5.422   3.267 -1.9380 -0.5939 -0.1012
  247MOL0     H33344   1.426   6.199   3.649 -0.7105 -0.1144  1.0667
  247MOL0     H33345   1.336   6.397   3.740  0.6202  1.2767  0.0079
  248MOL0     O33346  11.417   0.241   2.671  0.6010 -0.1122 -0.2781
  248MOL0     C33347  11.414   0.215   2.549 -0.4399 -0.7527 -0.4976
  248MOL0     O33348  11.400   0.081   2.495 -0.7937  0.5212  0.0217
  248MOL0     C33349  11.443  -0.023   2.572 -0.9629 -0.0495 -0.8412
  248MOL0     C33350  11.516  -0.037   2.701 -0.7870  0.1639  0.3715
  248MOL0     C33351  11.529  -0.163   2.764  0.0442 -0.5811 -1.0706
  248MOL0     C33352  11.470  -0.278   2.719 -0.5033  0.2776 -0.4431
  248MOL0     O33353  11.471  -0.401   2.787  0.4025 -0.1132 -0.0127
  248MOL0     C33354  11.533  -0.429   2.911 -0.9098  0.9402 -1.2701
  248MOL0     C33355  11.529  -0.576   2.909 -0.6251 -0.2750  0.0251
  248MOL0     C33356  11.611  -0.631   3.033 -0.0426  0.5301  0.0531
  248MOL0     C33357  11.518  -0.637   3.146 -0.5187 -0.5169 -1.0034
  248MOL0     C33358  11.598  -0.643   3.280 -0.4573 -1.1600 -0.0673
  248MOL0     C33359  11.502  -0.656   3.392 -0.3762 -0.7356 -0.1857
  248MOL0     C33360  11.569  -0.673   3.535  0.3155  0.2505 -0.5851
  248MOL0     C33361  11.473  -0.726   3.638 -0.0603  0.0910 -0.5254
  248MOL0     N33362  11.360  -0.629   3.677  0.2602  0.7994 -0.4008
  248MOL0     C33363  11.263  -0.653   3.770 -0.0924  0.0741  0.5952
  248MOL0     C33364  11.210  -0.538   3.799  0.0007 -0.3803 -0.3814
  248MOL0     C33365  11.090  -0.523   3.893  0.1835 -0.4050  0.5771
  248MOL0     C33366  10.980  -0.437   3.821  1.0479  0.4126 -0.0266
  248MOL0     C33367  10.849  -0.437   3.894  0.1899 -0.5818  0.3812
  248MOL0     C33368  10.743  -0.358   3.808 -0.3094  0.5395  1.0492
  248MOL0     O33369  10.607  -0.400   3.834 -0.1360  0.3036 -0.0969
  248MOL0     C33370  10.495  -0.314   3.811 -0.1422 -0.0043 -0.6152
  248MOL0     C33371  10.375  -0.345   3.877 -0.1038 -0.2838  0.5825
  248MOL0     C33372  10.264  -0.260   3.858 -0.5035 -0.5422  0.0123
  248MOL0     C33373  10.134  -0.296   3.936 -0.7948  0.8369  0.7909
  248MOL0     C33374  10.259  -0.154   3.766 -0.7084  0.7593  0.6519
  248MOL0     C33375  10.136  -0.083   3.720  0.4484  0.5313 -0.3350
  248MOL0     O33376  10.164   0.014   3.633 -0.2250  0.4247 -0.3138
  248MOL0     C33377  10.073   0.102   3.600 -0.0997  0.7152  0.6911
  248MOL0     C33378   9.929   0.087   3.566  1.0861 -0.0412  0.0481
  248MOL0     C33379   9.856   0.205   3.527 -0.4385  0.1297  0.5518
  248MOL0     C33380   9.906   0.329   3.547  0.0489 -0.4603  0.7322
  248MOL0     O33381   9.816   0.431   3.540 -0.4360  0.0134  0.0062
  248MOL0     C33382   9.860   0.553   3.583  0.5831 -0.7614  0.1627
  248MOL0     C33383   9.749   0.647   3.541  0.4050  0.2155 -0.0170
  248MOL0     C33384   9.619   0.629   3.616  0.4079  1.3767  0.6450
  248MOL0     C33385   9.624   0.683   3.756 -0.3400 -0.6617  0.0513
  248MOL0     C33386   9.509   0.637   3.832 -0.7133 -0.5025 -0.2118
  248MOL0     C33387   9.532   0.667   3.983  1.0742 -0.3573 -0.0679
  248MOL0     C33388   9.404   0.617   4.077 -0.4479 -0.5858  0.1902
  248MOL0     C33389   9.310   0.734   4.112 -0.2337  0.0025  0.3882
  248MOL0    Cl33390   9.244   0.824   3.983  0.5515  0.2603 -0.2841
  248MOL0     C33391  10.031   0.339   3.598  0.2129 -0.7094  0.3408
  248MOL0     C33392  10.109   0.228   3.612 -0.3569 -0.9869 -0.4039
  248MOL0     O33393  10.020  -0.103   3.761  0.3830 -0.4345 -0.6430
  248MOL0     C33394  10.380  -0.135   3.692  0.0237 -1.2252 -0.4290
  248MOL0     C33395  10.500  -0.203   3.728 -0.0042 -0.3535  0.3516
  248MOL0     N33396  11.274  -0.435   3.737  0.5695 -0.8618 -0.8738
  248MOL0     N33397  11.357  -0.495   3.658 -0.1279  0.0936 -0.4654
  248MOL0     C33398  11.395  -0.266   2.602  0.1744  0.0511  0.2778
  248MOL0     C33399  11.393  -0.145   2.531  0.5616  0.6174  0.0922
  248MOL0     C33400  11.425   0.340   2.458 -0.1492 -0.1335  0.3554
  248MOL0     C33401  11.377   0.327   2.334  0.1467 -0.4482  0.7077
  248MOL0     C33402  11.383   0.422   2.231 -0.2797  0.4624  0.2984
  248MOL0     C33403  11.432   0.548   2.254 -0.3244  0.4931 -0.4454
  248MOL0     O33404  11.438   0.626   2.139  0.1146 -0.9620 -0.2090
  248MOL0     C33405  11.461   0.767   2.158  0.4997 -0.8945  0.6340
  248MOL0     C33406  11.354   0.852   2.229 -0.5621  0.9974 -0.3132
  248MOL0     C33407  11.392   1.000   2.249 -0.4003  0.0811  1.3200
  248MOL0     C33408  11.438   1.088   2.136  0.1739 -0.6173 -1.0532
  248MOL0     C33409  11.359   1.079   2.019 -0.0120  0.6130  0.5417
  248MOL0     C33410  11.280   1.058   1.925  0.5231 -0.4051 -1.4210
  248MOL0     C33411  11.473   0.571   2.392  0.5725  0.0252 -0.7121
  248MOL0     C33412  11.475   0.467   2.488 -0.1026 -0.1016  0.5068
  248MOL0     H33413  11.556   0.054   2.744 -0.7355 -0.2366  1.1805
  248MOL0     H33414  11.592  -0.152   2.851 -1.2267  0.0085 -0.2037
  248MOL0     H33415  11.636  -0.393   2.905 -0.8607  0.9584 -0.4636
  248MOL0     H33416  11.488  -0.391   3.003  1.2006 -3.6385  2.0501
  248MOL0     H33417  11.426  -0.613   2.914 -0.1310 -1.7760 -0.3468
  248MOL0     H33418  11.580  -0.615   2.821 -1.3122  1.7022 -1.2972
  248MOL0     H33419  11.643  -0.735   3.017 -3.2557 -0.5782  0.1359
  248MOL0     H33420  11.696  -0.567   3.059  2.3972 -1.5622 -2.1242
  248MOL0     H33421  11.455  -0.547   3.148  0.4575  0.1623  0.0884
  248MOL0     H33422  11.455  -0.727   3.135 -2.0425  0.1377  1.5818
  248MOL0     H33423  11.669  -0.726   3.275 -2.1666 -2.9304  2.5126
  248MOL0     H33424  11.658  -0.552   3.290 -2.1332 -0.1862  1.7958
  248MOL0     H33425  11.425  -0.579   3.385 -2.1939 -2.4968 -0.7354
  248MOL0     H33426  11.433  -0.741   3.385 -0.1863 -1.0067  0.9585
  248MOL0     H33427  11.646  -0.750   3.526 -2.0743 -2.0456 -3.7140
  248MOL0     H33428  11.614  -0.587   3.585  1.0267 -0.5375  0.1499
  248MOL0     H33429  11.516  -0.748   3.735 -1.1882 -0.2789 -0.0892
  248MOL0     H33430  11.436  -0.824   3.606  0.8244 -0.7877  1.0476
  248MOL0     H33431  11.240  -0.750   3.814  3.0033 -1.6902 -1.3024
  248MOL0     H33432  11.050  -0.623   3.913 -0.4172 -0.5890 -1.3397
  248MOL0     H33433  11.110  -0.479   3.991  0.8459 -2.4327  1.4108
  248MOL0     H33434  10.968  -0.472   3.718  0.1369 -0.9407  0.5159
  248MOL0     H33435  11.012  -0.333   3.808 -2.0097  1.2780 -1.4741
  248MOL0     H33436  10.865  -0.374   3.982  3.9526 -3.0097  1.7145
  248MOL0     H33437  10.819  -0.538   3.923  3.1822 -1.4842  0.7257
  248MOL0     H33438  10.764  -0.353   3.701  2.1476  1.9757  1.5035
  248MOL0     H33439  10.747  -0.253   3.839  1.7710  0.0960  2.5165
  248MOL0     H33440  10.359  -0.427   3.946  1.5347  0.7936  2.3380
  248MOL0     H33441  10.097  -0.209   3.991  1.3980  0.3300  3.2765
  248MOL0     H33442  10.069  -0.337   3.857  3.3351  0.0904 -2.5641
  248MOL0     H33443  10.143  -0.376   4.011 -1.1656  1.3001  1.3346
  248MOL0     H33444   9.889  -0.014   3.566  2.1934 -0.9255  6.3434
  248MOL0     H33445   9.755   0.203   3.487 -0.4035 -0.7027  0.4870
  248MOL0     H33446   9.883   0.559   3.690  1.4019  2.0438 -0.0759
  248MOL0     H33447   9.946   0.568   3.518 -0.4348  0.4733 -0.9607
  248MOL0     H33448   9.771   0.751   3.569 -1.2126  0.9414 -1.2451
  248MOL0     H33449   9.732   0.642   3.433 -2.4510 -1.4474  0.4081
  248MOL0     H33450   9.610   0.522   3.637 -2.1138  1.4110  0.0693
  248MOL0     H33451   9.522   0.659   3.577 -0.6297 -0.5580  1.5916
  248MOL0     H33452   9.720   0.667   3.805 -0.2829 -0.0512  0.1416
  248MOL0     H33453   9.614   0.791   3.745  0.8813 -0.5807 -0.3085
  248MOL0     H33454   9.495   0.530   3.810  1.1417 -0.9995  0.8491
  248MOL0     H33455   9.414   0.687   3.807 -0.8898 -0.1052  1.1490
  248MOL0     H33456   9.604   0.594   4.020 -0.8573 -1.9717  0.7541
  248MOL0     H33457   9.552   0.774   3.993 -1.8259  0.1547  1.4134
  248MOL0     H33458   9.447   0.575   4.169 -1.7433 -4.1447 -0.6784
  248MOL0     H33459   9.356   0.528   4.036  1.7783 -0.9813 -1.7956
  248MOL0     H33460   9.363   0.819   4.154  0.7043  0.1504 -1.0152
  248MOL0     H33461   9.239   0.693   4.185 -1.3944  0.6667 -0.3375
  248MOL0     H33462  10.078   0.431   3.630  0.3180  0.4386 -2.7365
  248MOL0     H33463  10.205   0.263   3.650 -1.0647  0.7438 -0.1182
  248MOL0     H33464  10.400  -0.051   3.626  1.2264 -0.3090  1.0370
  248MOL0     H33465  10.595  -0.175   3.684  0.0864  1.0641  1.3926
  248MOL0     H33466  11.347  -0.358   2.569 -1.1856  0.5334  0.8056
  248MOL0     H33467  11.329  -0.132   2.444 -0.2293 -0.5365  0.4758
  248MOL0     H33468  11.322   0.235   2.316  0.4980 -0.6264  0.5135
  248MOL0     H33469  11.347   0.404   2.130 -0.1403  0.7053  0.2046
  248MOL0     H33470  11.547   0.781   2.224 -0.6624  0.9395  1.8243
  248MOL0     H33471  11.476   0.812   2.059 -0.4306  2.4709  1.9002
  248MOL0     H33472  11.330   0.810   2.327  1.0065  2.3472  0.7152
  248MOL0     H33473  11.265   0.844   2.167 -0.1510  3.8772 -1.4669
  248MOL0     H33474  11.474   1.013   2.321 -0.4506  4.8500  0.8653
  248MOL0     H33475  11.305   1.046   2.298 -0.6687 -0.2556  1.1608
  248MOL0     H33476  11.531   1.043   2.100 -0.8655 -1.6044 -2.6311
  248MOL0     H33477  11.453   1.188   2.176 -0.0231 -0.3056 -1.7520
  248MOL0     H33478  11.210   1.037   1.847  3.5930 -5.0094 -3.3705
  248MOL0     H33479  11.503   0.667   2.434  3.3946 -0.8917 -0.4570
  248MOL0     H33480  11.508   0.483   2.591 -0.8739  1.5610  0.5304
  249MOL0     O33481   5.198   3.541   9.359  0.2527 -0.4968 -0.1150
  249MOL0     C33482   5.218   3.423   9.365  0.2590 -0.0727  0.1617
  249MOL0     O33483   5.230   3.344   9.250 -0.0135  0.2179 -0.6709
  249MOL0     C33484   5.201   3.397   9.129  0.9449  0.0313 -0.4463
  249MOL0     C33485   5.095   3.343   9.066 -0.4245 -0.8046 -0.7655
  249MOL0     C33486   5.045   3.402   8.955 -0.6283 -0.0413 -0.6554
  249MOL0     C33487   5.107   3.509   8.892 -0.8595 -0.1092 -0.5318
  249MOL0     O33488   5.055   3.545   8.775  0.7928  0.2659 -0.2671
  249MOL0     C33489   5.014   3.684   8.768  0.0935 -0.2515  0.9055
  249MOL0     C33490   4.909   3.698   8.653 -0.1882 -0.3701 -0.3589
  249MOL0     C33491   4.971   3.704   8.514  0.4852 -0.6178  0.2894
  249MOL0     C33492   4.852   3.707   8.405 -0.5562  0.1828 -0.2646
  249MOL0     C33493   4.796   3.562   8.371  1.0469  0.0946 -1.0410
  249MOL0     C33494   4.765   3.539   8.221 -1.1340  0.3837 -0.9915
  249MOL0     C33495   4.736   3.393   8.206  0.2416  0.2031  0.5047
  249MOL0     C33496   4.748   3.347   8.067 -0.2923  0.7949 -0.8768
  249MOL0     N33497   4.715   3.200   8.058  0.2697  0.3918  0.1451
  249MOL0     C33498   4.586   3.148   8.047  0.9851  0.0094 -0.1494
  249MOL0     C33499   4.605   3.014   8.039 -0.0766  0.2327 -0.7250
  249MOL0     C33500   4.489   2.911   8.036  0.2813 -0.7314  0.8416
  249MOL0     C33501   4.437   2.894   7.889 -0.3694  0.4829 -0.3976
  249MOL0     C33502   4.546   2.841   7.789 -0.4212 -0.1252 -0.0103
  249MOL0     C33503   4.614   2.719   7.843  0.0034  1.0169 -0.0900
  249MOL0     O33504   4.710   2.674   7.745 -0.0721 -0.2289 -0.0812
  249MOL0     C33505   4.739   2.538   7.743 -0.8217  0.3847 -0.6899
  249MOL0     C33506   4.868   2.490   7.726  0.9243 -0.2232 -0.5500
  249MOL0     C33507   4.898   2.357   7.729 -0.5995  0.4750  0.0154
  249MOL0     C33508   5.047   2.320   7.720  0.1481  1.0056  1.0842
  249MOL0     C33509   4.799   2.252   7.741 -0.0456 -0.5208  0.3006
  249MOL0     C33510   4.810   2.102   7.733 -1.4941  0.3359  0.3071
  249MOL0     O33511   4.693   2.029   7.728  0.5303 -0.0292  0.1077
  249MOL0     C33512   4.687   1.904   7.680 -0.9002 -1.2836  0.5860
  249MOL0     C33513   4.650   1.785   7.746 -0.0578 -0.5268  0.1947
  249MOL0     C33514   4.640   1.668   7.677 -0.7318  0.0775 -0.6842
  249MOL0     C33515   4.662   1.658   7.541 -0.0215 -0.7144 -0.2922
  249MOL0     O33516   4.654   1.540   7.472  0.4956  0.9926 -0.0797
  249MOL0     C33517   4.756   1.437   7.494  1.0175 -0.3211 -0.3804
  249MOL0     C33518   4.703   1.304   7.443 -0.0863 -0.2813  1.2985
  249MOL0     C33519   4.796   1.199   7.488 -1.1808 -0.2359  1.2705
  249MOL0     C33520   4.769   1.066   7.417  0.0821  0.5429 -0.2955
  249MOL0     C33521   4.855   0.950   7.466 -0.9576 -0.7195  0.0384
  249MOL0     C33522   4.830   0.833   7.370  0.2822 -1.1246  0.2195
  249MOL0     C33523   4.890   0.706   7.405 -0.6286 -0.1364  0.8883
  249MOL0     C33524   5.041   0.722   7.424 -0.0167 -0.3222  0.3400
  249MOL0    Cl33525   5.123   0.561   7.442  0.0174 -0.2176 -0.0406
  249MOL0     C33526   4.688   1.774   7.473 -0.7890  0.3780  0.7588
  249MOL0     C33527   4.705   1.897   7.539  0.6701 -0.8366  0.2214
  249MOL0     O33528   4.925   2.045   7.744 -0.1081 -0.1583 -0.2228
  249MOL0     C33529   4.659   2.303   7.761 -0.5067  1.0592  0.3031
  249MOL0     C33530   4.639   2.443   7.746  0.0703 -0.1204 -1.0512
  249MOL0     N33531   4.740   2.986   8.034 -0.7920  0.5253  1.1574
  249MOL0     N33532   4.804   3.097   8.043  0.4549  0.2958  0.1253
  249MOL0     C33533   5.221   3.565   8.955  0.3737 -0.0944 -0.0989
  249MOL0     C33534   5.272   3.499   9.073  0.9889 -0.0573  0.4144
  249MOL0     C33535   5.244   3.354   9.502 -0.0345  0.2926  0.5238
  249MOL0     C33536   5.265   3.212   9.510 -0.2666 -0.0215  0.3641
  249MOL0     C33537   5.314   3.161   9.640  0.4371 -0.7424  1.1317
  249MOL0     C33538   5.306   3.237   9.756 -0.7272 -0.5794 -0.4956
  249MOL0     O33539   5.316   3.191   9.887 -0.2311  0.6500  0.0262
  249MOL0     C33540   5.320   3.051   9.911 -0.2656  0.1703  0.1983
  249MOL0     C33541   5.331   3.024  10.060  0.5141  0.9921 -0.3626
  249MOL0     C33542   5.480   3.042  10.100  0.4262 -0.2901 -0.2902
  249MOL0     C33543   5.497   3.035  10.255 -0.4527 -0.5360  0.2694
  249MOL0     C33544   5.469   2.896  10.302 -0.3154 -0.5287 -1.0491
  249MOL0     C33545   5.450   2.776  10.331 -0.0598 -0.3341 -0.0861
  249MOL0     C33546   5.269   3.375   9.738  1.2647 -0.7553  0.2059
  249MOL0     C33547   5.244   3.428   9.616  0.5366 -0.1206  0.1839
  249MOL0     H33548   5.050   3.258   9.116 -0.4780 -0.1276  0.3668
  249MOL0     H33549   4.966   3.357   8.895 -0.7741 -1.6479  0.6486
  249MOL0     H33550   4.959   3.724   8.854 -1.3583  1.8129 -0.8740
  249MOL0     H33551   5.108   3.738   8.759  0.2503 -0.5266  0.8860
  249MOL0     H33552   4.826   3.627   8.660  2.2343 -3.3562  0.0675
  249MOL0     H33553   4.855   3.791   8.671  1.3082  0.8885 -1.9853
  249MOL0     H33554   5.034   3.793   8.505 -3.9626  2.6550 -4.5790
  249MOL0     H33555   5.039   3.621   8.492 -0.2843 -1.0285 -0.5887
  249MOL0     H33556   4.766   3.767   8.436 -1.6944 -1.5208  0.0574
  249MOL0     H33557   4.892   3.740   8.309 -1.5222 -0.5367 -0.9293
  249MOL0     H33558   4.870   3.492   8.410  0.4148  2.1296  4.7590
  249MOL0     H33559   4.701   3.555   8.424  1.1884  0.3719 -0.7477
  249MOL0     H33560   4.680   3.597   8.185 -0.7712  2.0913  0.7371
  249MOL0     H33561   4.854   3.558   8.160 -1.0442 -0.6183 -1.1861
  249MOL0     H33562   4.802   3.332   8.268 -1.5847 -0.6341  1.7266
  249MOL0     H33563   4.629   3.377   8.224  0.1667 -0.8288 -0.7315
  249MOL0     H33564   4.849   3.357   8.027 -0.4291 -0.0361 -1.4585
  249MOL0     H33565   4.682   3.413   8.009 -0.1067  1.2184 -0.6086
  249MOL0     H33566   4.490   3.191   8.072  1.6222  1.6120 -0.3359
  249MOL0     H33567   4.515   2.808   8.064  1.4878 -0.0373  2.4194
  249MOL0     H33568   4.402   2.954   8.086 -0.1465 -0.2935 -0.2546
  249MOL0     H33569   4.401   2.992   7.855  1.3558  0.3973 -2.7405
  249MOL0     H33570   4.349   2.830   7.879 -2.1203  2.6466  0.3397
  249MOL0     H33571   4.620   2.919   7.766  2.5204 -3.3870 -2.8108
  249MOL0     H33572   4.496   2.828   7.693 -1.4378 -0.0801  0.4976
  249MOL0     H33573   4.535   2.647   7.864  1.2579  0.3727  2.9931
  249MOL0     H33574   4.661   2.727   7.942 -0.6432  0.5729  0.2636
  249MOL0     H33575   4.933   2.574   7.706 -3.4638  3.4031 -1.2406
  249MOL0     H33576   5.063   2.274   7.818 -0.2778 -0.6038  0.4387
  249MOL0     H33577   5.081   2.250   7.643 -0.2338 -1.9929  3.4586
  249MOL0     H33578   5.114   2.406   7.713  0.5001  0.7157  0.8448
  249MOL0     H33579   4.631   1.792   7.853 -0.6815  1.2538  0.0116
  249MOL0     H33580   4.624   1.574   7.728  2.0558 -0.2374 -0.2256
  249MOL0     H33581   4.847   1.471   7.444 -0.3140  1.4379 -1.8019
  249MOL0     H33582   4.763   1.447   7.602 -2.9069  0.2921 -0.0025
  249MOL0     H33583   4.601   1.288   7.477 -0.4066  1.0125  1.0051
  249MOL0     H33584   4.703   1.309   7.334 -0.9109  1.2087  1.3409
  249MOL0     H33585   4.808   1.175   7.594  2.3789 -3.4041  0.3594
  249MOL0     H33586   4.898   1.222   7.455 -0.3000 -3.8765  0.9488
  249MOL0     H33587   4.670   1.022   7.428  1.7980 -3.3991  1.7489
  249MOL0     H33588   4.784   1.075   7.309 -4.9923 -1.2932 -1.4015
  249MOL0     H33589   4.839   0.935   7.573  0.0130 -3.7695 -0.1765
  249MOL0     H33590   4.958   0.978   7.443 -0.6243 -0.7281  1.4784
  249MOL0     H33591   4.721   0.823   7.367  0.0315  0.0529  3.0475
  249MOL0     H33592   4.867   0.852   7.269  2.1396 -0.5168  0.9646
  249MOL0     H33593   4.868   0.642   7.319 -0.0074  3.1180 -1.9358
  249MOL0     H33594   4.853   0.659   7.496  0.9106 -1.6653  0.7677
  249MOL0     H33595   5.058   0.773   7.519  0.3570  0.6297 -0.2256
  249MOL0     H33596   5.088   0.782   7.346  0.7992 -2.9339 -1.3154
  249MOL0     H33597   4.701   1.759   7.366 -0.0184 -0.7286  0.9886
  249MOL0     H33598   4.721   1.987   7.480 -0.3857 -1.0996 -0.4785
  249MOL0     H33599   4.567   2.246   7.773  0.1074 -0.3812 -1.4783
  249MOL0     H33600   4.535   2.475   7.741  0.0792  0.0831 -0.0503
  249MOL0     H33601   5.253   3.665   8.927 -2.4649  2.1111  3.4856
  249MOL0     H33602   5.348   3.556   9.127  1.8377 -0.6644 -0.1195
  249MOL0     H33603   5.259   3.160   9.416  1.9979  0.9520 -0.3926
  249MOL0     H33604   5.345   3.057   9.649  2.3462 -0.3834 -0.5192
  249MOL0     H33605   5.228   3.008   9.873  1.2790 -1.2149 -2.1918
  249MOL0     H33606   5.398   3.005   9.850 -1.5409  1.9856 -3.0420
  249MOL0     H33607   5.306   2.919  10.076  3.8859  0.0184 -0.7549
  249MOL0     H33608   5.258   3.080  10.119 -0.1557  1.7867 -1.8874
  249MOL0     H33609   5.507   3.143  10.068 -0.0694 -0.8296 -2.5762
  249MOL0     H33610   5.533   2.962  10.049 -0.6186 -2.0598  1.2834
  249MOL0     H33611   5.421   3.097  10.303  0.5809  1.7684 -0.9370
  249MOL0     H33612   5.597   3.062  10.289 -1.2226 -1.9948  4.3663
  249MOL0     H33613   5.428   2.672  10.340 -0.6679 -0.1657  0.4661
  249MOL0     H33614   5.257   3.449   9.817  2.2134  0.2039 -0.5253
  249MOL0     H33615   5.217   3.533   9.620  2.6607  0.4571  0.5162
  250MOL0     O33616  11.132   2.762   4.961  0.2370 -0.4588 -0.4612
  250MOL0     C33617  11.256   2.775   4.952 -0.1563  1.2758 -0.8374
  250MOL0     O33618  11.326   2.857   4.867 -0.4331  0.7621 -0.4145
  250MOL0     C33619  11.260   2.884   4.752 -0.9876 -0.2045 -0.4781
  250MOL0     C33620  11.226   2.788   4.655 -0.1092  0.0573 -0.6306
  250MOL0     C33621  11.160   2.830   4.534  0.4809  0.0338  0.2834
  250MOL0     C33622  11.122   2.964   4.510  0.8834  0.1642 -0.5908
  250MOL0     O33623  11.049   2.999   4.394  0.0630 -0.7626  1.2801
  250MOL0     C33624  11.102   3.100   4.316 -0.7119 -0.5740  0.8682
  250MOL0     C33625  11.121   3.057   4.171  0.6524  0.2312 -0.8716
  250MOL0     C33626  11.182   2.917   4.151  0.2592 -0.0980  0.7698
  250MOL0     C33627  11.334   2.896   4.182 -0.2333 -0.4395  0.3352
  250MOL0     C33628  11.372   2.753   4.142 -0.2907  0.0524 -0.5921
  250MOL0     C33629  11.387   2.737   3.989 -0.1374  0.6792  0.6439
  250MOL0     C33630  11.423   2.589   3.955 -0.8066  0.6327 -0.4815
  250MOL0     C33631  11.436   2.568   3.814 -0.6792 -0.0378  0.9222
  250MOL0     N33632  11.324   2.607   3.738 -0.0325  0.9436 -0.0339
  250MOL0     C33633  11.204   2.545   3.715 -0.7434  0.3536  0.0351
  250MOL0     C33634  11.149   2.623   3.616  0.4643  1.1142  0.9358
  250MOL0     C33635  11.021   2.579   3.533 -0.9867 -0.4267  0.1948
  250MOL0     C33636  11.056   2.485   3.421 -0.0185  0.2433  0.5844
  250MOL0     C33637  10.926   2.427   3.345  0.1878 -0.0684 -0.2909
  250MOL0     C33638  10.832   2.542   3.292 -1.0009  0.0774  0.2716
  250MOL0     O33639  10.704   2.498   3.259  0.2506  0.2194 -0.6560
  250MOL0     C33640  10.627   2.586   3.177  0.1398 -0.0241  0.0988
  250MOL0     C33641  10.634   2.725   3.199  0.2199 -0.0634  0.5986
  250MOL0     C33642  10.569   2.808   3.111  1.4688  0.5557  0.4011
  250MOL0     C33643  10.594   2.957   3.123  1.4934  0.3722 -0.7091
  250MOL0     C33644  10.491   2.756   3.009 -0.0478  0.7158  0.1726
  250MOL0     C33645  10.434   2.835   2.891 -0.7420  0.5032 -0.4165
  250MOL0     O33646  10.509   2.938   2.843  0.8363  0.2003 -0.1989
  250MOL0     C33647  10.459   3.013   2.743  0.2796  0.1899  0.3066
  250MOL0     C33648  10.429   2.970   2.612  0.0574 -0.1838  0.0720
  250MOL0     C33649  10.391   3.042   2.511 -1.3584 -0.6900 -0.3240
  250MOL0     C33650  10.376   3.184   2.541 -0.4177  0.2261  0.8830
  250MOL0     O33651  10.348   3.276   2.446 -0.4734 -0.1762  0.0348
  250MOL0     C33652  10.408   3.260   2.320  0.9302 -0.0547 -0.0730
  250MOL0     C33653  10.404   3.383   2.237  0.1301  0.1813 -0.1775
  250MOL0     C33654  10.440   3.519   2.295 -0.4217 -0.8458  0.8313
  250MOL0     C33655  10.596   3.523   2.314  0.0702  0.3625  0.3033
  250MOL0     C33656  10.632   3.668   2.330  0.1231  0.2065  1.0931
  250MOL0     C33657  10.704   3.701   2.461 -0.2684  0.1972 -0.1408
  250MOL0     C33658  10.758   3.852   2.446 -1.5966  0.5885 -0.3476
  250MOL0     C33659  10.830   3.905   2.563 -0.3899 -0.2327 -0.4396
  250MOL0    Cl33660  10.907   4.052   2.507 -0.2538 -0.4475 -0.3492
  250MOL0     C33661  10.392   3.239   2.667  0.7832  0.4411  0.6111
  250MOL0     C33662  10.426   3.141   2.769  0.0106 -0.0692  0.6664
  250MOL0     O33663  10.320   2.802   2.854 -0.2189 -0.3041 -0.5643
  250MOL0     C33664  10.482   2.615   2.998  0.6856  0.6512  0.6420
  250MOL0     C33665  10.551   2.525   3.077 -0.1896 -0.7614  0.5515
  250MOL0     N33666  11.231   2.711   3.564 -1.2227 -0.3297  0.4215
  250MOL0     N33667  11.332   2.705   3.639  0.2850 -0.3484 -0.4135
  250MOL0     C33668  11.173   3.054   4.603  1.0750  0.6086 -0.2447
  250MOL0     C33669  11.239   3.020   4.719 -1.1970  0.0642 -1.5047
  250MOL0     C33670  11.327   2.696   5.054  0.4244  1.7136  0.3630
  250MOL0     C33671  11.255   2.622   5.159 -0.0186 -1.1061 -0.6015
  250MOL0     C33672  11.316   2.568   5.270 -0.3428  0.3900  1.0058
  250MOL0     C33673  11.452   2.581   5.282  0.1781 -0.2361  0.2452
  250MOL0     O33674  11.520   2.520   5.384 -0.6910 -0.3508 -0.1772
  250MOL0     C33675  11.561   2.389   5.363  1.0990  0.3713 -0.5310
  250MOL0     C33676  11.603   2.323   5.492  0.1592 -0.1080 -0.2700
  250MOL0     C33677  11.484   2.263   5.568 -0.5919  0.9038  0.8472
  250MOL0     C33678  11.485   2.116   5.543 -0.1904  0.2146 -0.3612
  250MOL0     C33679  11.581   2.050   5.644 -1.4110  0.1656 -0.4144
  250MOL0     C33680  11.644   2.000   5.733  1.1366  0.2298  0.2380
  250MOL0     C33681  11.527   2.653   5.182  0.5640 -0.0364  0.0099
  250MOL0     C33682  11.467   2.705   5.065 -0.8282  0.5260 -1.5201
  250MOL0     H33683  11.237   2.681   4.670  0.9922  0.0141 -1.6189
  250MOL0     H33684  11.127   2.753   4.465  2.2693  0.3253 -0.9730
  250MOL0     H33685  11.041   3.190   4.327 -0.1671 -0.2499  1.3105
  250MOL0     H33686  11.199   3.131   4.358 -1.1115  1.1066  0.6487
  250MOL0     H33687  11.019   3.056   4.132 -0.2015 -4.5613  0.7804
  250MOL0     H33688  11.182   3.133   4.120 -1.5295  2.9723  0.3637
  250MOL0     H33689  11.121   2.849   4.211 -0.5498 -0.6003 -0.5721
  250MOL0     H33690  11.167   2.885   4.047  3.3582 -0.1832  0.2375
  250MOL0     H33691  11.394   2.967   4.125 -0.1654  0.8491  1.9411
  250MOL0     H33692  11.374   2.918   4.282  0.5100 -1.1471  0.1986
  250MOL0     H33693  11.472   2.731   4.181 -0.4479 -3.4252 -1.8099
  250MOL0     H33694  11.295   2.682   4.173 -0.2105  0.5745  0.8533
  250MOL0     H33695  11.298   2.774   3.938 -0.6229  0.6983  1.5040
  250MOL0     H33696  11.467   2.804   3.957  1.4585 -1.8196 -1.0179
  250MOL0     H33697  11.521   2.567   3.997 -1.2540 -2.3530 -0.7760
  250MOL0     H33698  11.356   2.511   3.994  1.6556 -1.6725 -0.5562
  250MOL0     H33699  11.445   2.460   3.799 -0.4978 -0.0042  0.7854
  250MOL0     H33700  11.529   2.618   3.785 -0.8001  0.4888  1.4310
  250MOL0     H33701  11.167   2.455   3.763  0.1776  0.5033  1.0799
  250MOL0     H33702  10.961   2.530   3.610  0.6153  1.0383  2.5279
  250MOL0     H33703  10.981   2.675   3.500  0.9867 -0.3416 -2.2993
  250MOL0     H33704  11.121   2.407   3.461 -0.2872 -0.7580 -0.8356
  250MOL0     H33705  11.107   2.550   3.349 -0.2355 -1.0674 -0.7990
  250MOL0     H33706  10.867   2.380   3.425 -0.1110  0.1160 -0.4018
  250MOL0     H33707  10.955   2.356   3.267 -0.7252  0.0908 -0.7904
  250MOL0     H33708  10.875   2.601   3.210 -0.9610  0.9117  0.8779
  250MOL0     H33709  10.824   2.620   3.368  0.1507  0.3119  0.1696
  250MOL0     H33710  10.698   2.770   3.274 -2.3457  2.2129  1.6276
  250MOL0     H33711  10.492   2.997   3.124  1.2740 -0.1596  0.6873
  250MOL0     H33712  10.644   2.978   3.218  3.7330 -3.5011 -0.7832
  250MOL0     H33713  10.656   3.001   3.044 -0.2333 -1.6237 -3.3393
  250MOL0     H33714  10.445   2.864   2.594 -0.4165  0.0357 -1.8234
  250MOL0     H33715  10.364   2.977   2.428  0.8665 -1.8560 -0.2377
  250MOL0     H33716  10.513   3.232   2.335  1.1737  0.3653 -0.8919
  250MOL0     H33717  10.368   3.173   2.267  0.3256 -0.1611  0.5560
  250MOL0     H33718  10.456   3.365   2.143 -0.5244 -1.7048 -0.2266
  250MOL0     H33719  10.309   3.403   2.186 -1.3999  3.3322  3.4329
  250MOL0     H33720  10.390   3.549   2.388 -2.1535  1.3752 -0.6872
  250MOL0     H33721  10.394   3.592   2.228 -2.4694 -2.7149  0.0878
  250MOL0     H33722  10.632   3.463   2.398  1.2974  0.2592 -0.2751
  250MOL0     H33723  10.638   3.478   2.224  0.7315 -2.6236  1.9741
  250MOL0     H33724  10.542   3.728   2.317 -2.1267 -2.9082  1.1401
  250MOL0     H33725  10.702   3.699   2.252 -0.2701 -1.0915  0.1854
  250MOL0     H33726  10.646   3.700   2.553  3.1660 -2.3881  2.2991
  250MOL0     H33727  10.773   3.619   2.483 -0.0622  1.0991  3.0771
  250MOL0     H33728  10.667   3.912   2.439 -1.4657  0.6781 -1.6000
  250MOL0     H33729  10.828   3.871   2.364 -0.0664  0.4911  0.9092
  250MOL0     H33730  10.893   3.818   2.584  0.4311 -0.3465 -3.0284
  250MOL0     H33731  10.764   3.919   2.649 -3.7758  2.0828 -3.1188
  250MOL0     H33732  10.380   3.347   2.669  3.3820  0.7716  0.9185
  250MOL0     H33733  10.445   3.180   2.869  1.1208 -3.7418  2.0367
  250MOL0     H33734  10.420   2.587   2.914 -0.7877  1.8948  1.2589
  250MOL0     H33735  10.545   2.420   3.048  0.6079 -0.5530 -0.4560
  250MOL0     H33736  11.150   3.160   4.596  3.2704  1.1863  0.5577
  250MOL0     H33737  11.268   3.097   4.789 -0.1380  0.1489 -2.0170
  250MOL0     H33738  11.149   2.606   5.148  0.2342 -2.2211 -1.6600
  250MOL0     H33739  11.261   2.510   5.344  0.4773  0.5224  1.7234
  250MOL0     H33740  11.483   2.324   5.322  0.0878 -0.4943  2.4634
  250MOL0     H33741  11.637   2.372   5.287  1.5308 -0.6053  0.0994
  250MOL0     H33742  11.661   2.390   5.556 -0.7590  0.2344  0.2341
  250MOL0     H33743  11.675   2.250   5.453 -1.1650 -0.3983 -2.3308
  250MOL0     H33744  11.392   2.307   5.527 -0.3295  1.8305  1.2324
  250MOL0     H33745  11.484   2.283   5.675 -0.2124  1.3325  0.7675
  250MOL0     H33746  11.502   2.095   5.437 -0.6890 -2.0766 -0.0467
  250MOL0     H33747  11.386   2.073   5.562 -0.0157  0.2851  0.7446
  250MOL0     H33748  11.704   1.958   5.811  1.1525  2.1188  1.3089
  250MOL0     H33749  11.632   2.679   5.188  0.3878  2.2074 -3.4099
  250MOL0     H33750  11.518   2.758   4.985 -0.1686  0.5781 -1.0726
  251MOL0     O33751  11.447   0.876   7.681  0.0745 -0.0456  0.2646
  251MOL0     C33752  11.508   0.911   7.775  0.0050  0.0326 -0.1673
  251MOL0     O33753  11.534   1.042   7.802  0.2550  0.1312  0.0631
  251MOL0     C33754  11.479   1.134   7.713  0.6791 -0.1576  0.1548
  251MOL0     C33755  11.539   1.204   7.612  0.4635 -0.3219  0.6556
  251MOL0     C33756  11.469   1.298   7.535 -0.1010 -0.3609  0.2085
  251MOL0     C33757  11.326   1.337   7.560 -0.1933  0.8587 -0.0606
  251MOL0     O33758  11.248   1.438   7.503 -0.8033 -0.4762  0.2195
  251MOL0     C33759  11.291   1.488   7.371  0.0624  0.2612 -0.5694
  251MOL0     C33760  11.190   1.582   7.316  0.3058  1.3312  0.6105
  251MOL0     C33761  11.132   1.685   7.416  0.2633  0.0874  0.5596
  251MOL0     C33762  11.032   1.784   7.345  0.1610  0.4783  0.3372
  251MOL0     C33763  10.968   1.886   7.446  0.2370  0.7176  0.5053
  251MOL0     C33764  11.068   1.988   7.501 -0.0491 -0.3682  0.5794
  251MOL0     C33765  10.982   2.082   7.599  0.0846  0.5435  0.0650
  251MOL0     C33766  10.936   2.014   7.732  0.1026  0.5853 -0.1639
  251MOL0     N33767  10.891   2.118   7.823  0.7465  0.3793  1.1012
  251MOL0     C33768  10.945   2.125   7.949  0.1582 -1.0425 -0.6829
  251MOL0     C33769  10.892   2.242   8.002 -0.1579 -0.1822 -0.3659
  251MOL0     C33770  10.950   2.305   8.125  0.8522 -0.8520  0.0848
  251MOL0     C33771  11.038   2.431   8.092  0.1514 -0.2308  0.6393
  251MOL0     C33772  11.077   2.502   8.223  0.3724 -1.3594 -0.0670
  251MOL0     C33773  11.164   2.621   8.195 -0.0855 -0.2575 -0.7533
  251MOL0     O33774  11.241   2.640   8.312  0.6348 -0.2628  0.1449
  251MOL0     C33775  11.375   2.675   8.294  0.5882  0.8490 -0.2424
  251MOL0     C33776  11.476   2.625   8.389 -0.6604  0.7337  0.6054
  251MOL0     C33777  11.607   2.650   8.360 -0.7262  0.0691 -0.5059
  251MOL0     C33778  11.705   2.598   8.457  0.5322 -0.0323  0.2267
  251MOL0     C33779  11.650   2.721   8.243  0.4939  0.7117  0.6968
  251MOL0     C33780  11.785   2.711   8.193 -0.0000  0.0999 -0.1240
  251MOL0     O33781  11.821   2.597   8.118 -0.4720  0.4055  0.0270
  251MOL0     C33782  11.734   2.500   8.100  0.1735  0.9912  0.1224
  251MOL0     C33783  11.726   2.386   8.185 -0.5964 -0.7303 -0.3025
  251MOL0     C33784  11.644   2.278   8.155 -0.5010 -0.7836 -0.4173
  251MOL0     C33785  11.558   2.286   8.049  0.1942  0.3438 -0.5141
  251MOL0     O33786  11.475   2.172   8.037 -0.0183 -0.2841 -0.1561
  251MOL0     C33787  11.421   2.153   7.900 -0.6793 -0.1811  0.1195
  251MOL0     C33788  11.315   2.035   7.886  0.3268 -0.2832  0.7349
  251MOL0     C33789  11.390   1.903   7.873  0.5920 -0.4913  0.2186
  251MOL0     C33790  11.299   1.784   7.878 -0.6873  1.1968 -0.1183
  251MOL0     C33791  11.369   1.644   7.837  0.5937 -0.2920 -0.3716
  251MOL0     C33792  11.470   1.596   7.936 -0.2032  0.1480 -1.0122
  251MOL0     C33793  11.524   1.457   7.899  0.2499 -0.4391 -0.1653
  251MOL0     C33794  11.651   1.426   7.979 -1.2835  0.7742 -0.5709
  251MOL0    Cl33795  11.622   1.434   8.151  0.5315 -0.3366  0.2183
  251MOL0     C33796  11.564   2.389   7.959 -0.7578 -0.0665  0.5475
  251MOL0     C33797  11.660   2.499   7.982  0.5898 -1.0647 -0.1906
  251MOL0     O33798  11.861   2.798   8.223 -0.6293  0.2577 -0.5913
  251MOL0     C33799  11.555   2.783   8.164  0.7276 -0.2341  0.0332
  251MOL0     C33800  11.418   2.761   8.185 -0.7266  0.5357 -0.1220
  251MOL0     N33801  10.810   2.302   7.904 -0.0403  1.2128 -0.5891
  251MOL0     N33802  10.805   2.224   7.800  0.0513 -0.0767 -0.2735
  251MOL0     C33803  11.265   1.268   7.658  0.0840 -0.8858 -0.4134
  251MOL0     C33804  11.340   1.171   7.732 -0.1426  1.2327  0.0187
  251MOL0     C33805  11.564   0.808   7.864  0.2672  0.0348 -0.2274
  251MOL0     C33806  11.580   0.844   8.004 -0.7422  0.4841 -0.1764
  251MOL0     C33807  11.620   0.747   8.090  0.5062 -0.6574  0.8990
  251MOL0     C33808  11.645   0.613   8.039 -0.3132 -0.1154 -0.4255
  251MOL0     O33809  11.696   0.522   8.129  0.6894  0.6699  0.6636
  251MOL0     C33810  11.789   0.414   8.091  0.7563 -0.0155 -0.6599
  251MOL0     C33811  11.929   0.475   8.050 -0.0135  0.0738  0.3563
  251MOL0     C33812  12.043   0.369   8.052 -0.1318 -0.4836 -0.0318
  251MOL0     C33813  12.002   0.224   8.000  0.4630  0.3366  0.4274
  251MOL0     C33814  11.953   0.219   7.865 -1.0041 -0.3380  0.8643
  251MOL0     C33815  11.900   0.219   7.758 -0.1504  0.2642  0.1783
  251MOL0     C33816  11.635   0.590   7.905 -0.3707  0.5729  0.3042
  251MOL0     C33817  11.590   0.683   7.810 -0.4830 -0.6914 -0.5978
  251MOL0     H33818  11.647   1.195   7.604  0.3854 -2.3337  1.3534
  251MOL0     H33819  11.530   1.349   7.460  0.1214 -0.4822  0.3075
  251MOL0     H33820  11.382   1.546   7.390 -0.9788  1.5064  0.8296
  251MOL0     H33821  11.308   1.407   7.299  1.3794  1.0928 -1.2470
  251MOL0     H33822  11.243   1.628   7.232  3.5495 -2.7415  0.0997
  251MOL0     H33823  11.106   1.527   7.274  0.2909  1.2908  0.6939
  251MOL0     H33824  11.074   1.643   7.499  1.4047  0.0988  1.3910
  251MOL0     H33825  11.212   1.751   7.450  0.5579 -0.8850  1.8301
  251MOL0     H33826  11.081   1.843   7.268 -1.5070  1.7352  0.2025
  251MOL0     H33827  10.954   1.718   7.305 -1.0569 -2.1982  5.9944
  251MOL0     H33828  10.898   1.951   7.392  1.0583  0.9319 -0.3118
  251MOL0     H33829  10.927   1.829   7.530  3.7948 -1.5133  0.9258
  251MOL0     H33830  11.156   1.931   7.535 -0.0566 -0.8792 -0.2404
  251MOL0     H33831  11.100   2.065   7.430  0.2972 -1.1590 -0.1408
  251MOL0     H33832  11.042   2.170   7.622 -2.7251  2.4378  0.6343
  251MOL0     H33833  10.892   2.119   7.548 -0.1317 -1.7298 -1.3328
  251MOL0     H33834  11.013   1.954   7.782 -0.6075 -1.1757 -1.1042
  251MOL0     H33835  10.867   1.932   7.714  1.9619 -2.1861  3.8131
  251MOL0     H33836  11.022   2.063   7.994  0.1064 -0.6317 -0.0161
  251MOL0     H33837  10.863   2.331   8.186  1.4653  0.5282  0.4243
  251MOL0     H33838  11.011   2.224   8.166  1.5510  0.5794  2.0508
  251MOL0     H33839  10.992   2.508   8.030 -0.6835 -1.0083  0.2742
  251MOL0     H33840  11.112   2.397   8.019  0.5350  1.6061  0.1082
  251MOL0     H33841  11.119   2.422   8.285  1.2333 -1.0535 -0.2441
  251MOL0     H33842  10.993   2.542   8.280  1.6309 -0.8531  1.5300
  251MOL0     H33843  11.107   2.712   8.174 -2.7555 -1.3162  1.3143
  251MOL0     H33844  11.217   2.603   8.101 -3.0372  1.6832 -2.9361
  251MOL0     H33845  11.456   2.553   8.468 -0.3374  0.0333  0.0688
  251MOL0     H33846  11.660   2.624   8.554 -0.0519  2.8133 -0.7165
  251MOL0     H33847  11.708   2.492   8.431 -0.6245  0.1291 -0.5964
  251MOL0     H33848  11.800   2.653   8.449  0.2064  0.2325 -2.6970
  251MOL0     H33849  11.801   2.373   8.263 -0.7711  0.0743  0.0121
  251MOL0     H33850  11.664   2.195   8.223  2.5328  1.3376  1.5306
  251MOL0     H33851  11.359   2.236   7.865  0.5664  1.7288  2.1769
  251MOL0     H33852  11.508   2.137   7.835  0.7556 -0.3373  2.0108
  251MOL0     H33853  11.256   2.032   7.978 -0.6291  0.0741  0.1447
  251MOL0     H33854  11.243   2.062   7.808 -0.6748 -0.4290  1.5864
  251MOL0     H33855  11.467   1.887   7.949 -0.7643 -1.0708  1.5067
  251MOL0     H33856  11.441   1.901   7.776  1.3527  1.8432  0.5089
  251MOL0     H33857  11.242   1.777   7.971 -1.2229 -0.4480 -0.5432
  251MOL0     H33858  11.219   1.800   7.805 -1.6210  2.5028  1.1415
  251MOL0     H33859  11.432   1.653   7.748 -0.3010  2.1105 -0.8449
  251MOL0     H33860  11.299   1.560   7.841 -0.5007  0.5865  3.0131
  251MOL0     H33861  11.549   1.668   7.957  0.3598 -0.5087 -0.8182
  251MOL0     H33862  11.414   1.581   8.029  0.7122 -0.6590 -0.5653
  251MOL0     H33863  11.541   1.455   7.791 -0.7037  0.6622 -0.3622
  251MOL0     H33864  11.453   1.379   7.929  0.9681 -0.1500  2.6134
  251MOL0     H33865  11.717   1.510   7.956 -0.0593 -0.5196 -2.0306
  251MOL0     H33866  11.691   1.328   7.955 -0.8412  0.7629  0.1894
  251MOL0     H33867  11.500   2.388   7.871  0.2123  3.3198 -0.3510
  251MOL0     H33868  11.688   2.566   7.901  1.7895  1.5150  2.2105
  251MOL0     H33869  11.566   2.853   8.082 -3.2796  1.6889  0.9248
  251MOL0     H33870  11.351   2.821   8.124  1.2766  2.0218 -0.9869
  251MOL0     H33871  11.163   1.282   7.691 -0.5223 -3.9746 -0.7228
  251MOL0     H33872  11.280   1.115   7.804  0.0467 -5.0790 -3.9492
  251MOL0     H33873  11.549   0.937   8.051  0.5266  0.4344  0.8393
  251MOL0     H33874  11.627   0.754   8.198  0.2289  1.8486  0.8178
  251MOL0     H33875  11.786   0.362   8.187 -0.6416  1.5190  0.1842
  251MOL0     H33876  11.739   0.348   8.020 -0.9427 -0.6156  1.0207
  251MOL0     H33877  11.953   0.560   8.115 -2.7925  1.8460 -0.7435
  251MOL0     H33878  11.928   0.508   7.946  1.8872 -1.8080 -0.3341
  251MOL0     H33879  12.062   0.362   8.159  0.0899 -0.7478 -0.0871
  251MOL0     H33880  12.125   0.406   7.990 -1.2848 -0.8101 -1.8576
  251MOL0     H33881  11.925   0.182   8.065  0.7830  0.7491  1.0863
  251MOL0     H33882  12.079   0.149   8.022  1.7320  1.0175 -1.4234
  251MOL0     H33883  11.858   0.224   7.660 -0.1099 -3.6274 -0.1965
  251MOL0     H33884  11.654   0.488   7.871 -0.9210  0.9533 -1.1892
  251MOL0     H33885  11.570   0.660   7.706 -0.5982  1.5890 -1.1351
  252MOL0     O33886   1.608   3.076   5.122  0.2394  0.3297  0.4926
  252MOL0     C33887   1.575   3.192   5.090 -0.4594  0.3414  0.2465
  252MOL0     O33888   1.458   3.256   5.115 -0.6698 -0.5565  0.2940
  252MOL0     C33889   1.361   3.170   5.166  0.2133 -0.2429  0.1162
  252MOL0     C33890   1.338   3.149   5.301 -0.6903  0.0746  0.5499
  252MOL0     C33891   1.237   3.067   5.333  1.0423 -0.3448  0.0642
  252MOL0     C33892   1.164   2.993   5.249  0.2452 -0.3770  0.4280
  252MOL0     O33893   1.073   2.908   5.295  1.0285  0.2262  0.2190
  252MOL0     C33894   1.006   2.804   5.216 -0.1549  0.8684  0.0859
  252MOL0     C33895   0.859   2.825   5.234  0.0279 -0.3623  0.1530
  252MOL0     C33896   0.819   2.811   5.383 -0.3829 -0.1341  0.0086
  252MOL0     C33897   0.679   2.797   5.425 -0.4871  0.1077 -0.6296
  252MOL0     C33898   0.613   2.670   5.371 -0.1500 -0.0637  0.3254
  252MOL0     C33899   0.480   2.633   5.446 -0.3639 -0.4398 -0.1358
  252MOL0     C33900   0.420   2.503   5.397  0.4890 -0.6851 -0.4004
  252MOL0     C33901   0.501   2.382   5.447  0.0919  0.0115  0.1300
  252MOL0     N33902   0.493   2.275   5.348 -0.0018 -0.2987 -0.0784
  252MOL0     C33903   0.406   2.173   5.351 -0.0052  0.4187  0.6367
  252MOL0     C33904   0.445   2.093   5.247 -0.2106 -0.0514 -0.5659
  252MOL0     C33905   0.403   1.954   5.201  0.8361 -0.0262 -0.4404
  252MOL0     C33906   0.512   1.860   5.164 -0.1759  1.1660  0.3201
  252MOL0     C33907   0.468   1.717   5.148  0.7144 -0.1877  0.2203
  252MOL0     C33908   0.574   1.625   5.206 -0.2778  0.4590  0.5112
  252MOL0     O33909   0.568   1.639   5.346 -0.5088  0.0646 -0.0053
  252MOL0     C33910   0.670   1.590   5.418 -0.0761 -0.2162 -0.4113
  252MOL0     C33911   0.798   1.645   5.408 -0.9227 -1.2610  1.1970
  252MOL0     C33912   0.906   1.599   5.488 -0.4191  0.3899  0.7715
  252MOL0     C33913   1.046   1.669   5.470  0.8317 -0.5664  0.6365
  252MOL0     C33914   0.881   1.491   5.578 -0.5789 -0.9591 -0.3324
  252MOL0     C33915   0.979   1.442   5.674  0.1898 -0.3197  0.1397
  252MOL0     O33916   0.978   1.306   5.681  0.5780 -0.3845 -0.2200
  252MOL0     C33917   1.069   1.262   5.765 -0.4809 -0.6673 -0.0626
  252MOL0     C33918   1.029   1.250   5.900 -0.6629 -0.1440 -0.3401
  252MOL0     C33919   1.123   1.215   5.993  0.5067 -0.4272  0.9767
  252MOL0     C33920   1.252   1.176   5.967  0.3383  0.5844 -0.1317
  252MOL0     O33921   1.346   1.143   6.066  0.4345  0.6458 -0.0182
  252MOL0     C33922   1.475   1.084   6.022 -0.2561  0.7842  0.2171
  252MOL0     C33923   1.577   1.075   6.136 -0.4403  0.4970 -1.3564
  252MOL0     C33924   1.568   1.198   6.237  0.1574  0.5948  0.2077
  252MOL0     C33925   1.698   1.201   6.335  0.9968  0.4622  0.1335
  252MOL0     C33926   1.686   1.097   6.447 -0.0993 -0.3840 -0.3034
  252MOL0     C33927   1.805   1.103   6.552  0.0614 -0.3211 -0.0034
  252MOL0     C33928   1.777   1.006   6.673 -0.7917  0.3314  0.2194
  252MOL0     C33929   1.726   0.864   6.644  0.0114  0.0285  0.9132
  252MOL0    Cl33930   1.789   0.750   6.774 -0.0498 -0.1985 -0.6257
  252MOL0     C33931   1.278   1.166   5.826 -0.2383  0.8112 -0.9689
  252MOL0     C33932   1.191   1.216   5.725  0.1003  0.9880 -0.2421
  252MOL0     O33933   1.040   1.520   5.745 -0.7922 -0.5271  0.0712
  252MOL0     C33934   0.754   1.444   5.596 -0.0113  0.9219  0.5195
  252MOL0     C33935   0.654   1.490   5.516  0.7874 -0.7540  0.4135
  252MOL0     N33936   0.554   2.156   5.180 -0.6548 -0.9386 -0.2919
  252MOL0     N33937   0.583   2.265   5.246 -0.4131  0.3607  1.3173
  252MOL0     C33938   1.194   3.010   5.116  0.1308  0.0212  0.1798
  252MOL0     C33939   1.290   3.097   5.075  0.9795 -0.0647 -0.3318
  252MOL0     C33940   1.673   3.269   5.015 -0.6763 -0.7035 -0.8565
  252MOL0     C33941   1.803   3.224   4.988 -0.6922 -1.6982  0.0583
  252MOL0     C33942   1.900   3.320   4.928 -0.3990  0.0146 -0.3255
  252MOL0     C33943   1.858   3.451   4.898  0.6085 -0.7496  0.7830
  252MOL0     O33944   1.938   3.547   4.832 -0.3940  0.2155 -0.3024
  252MOL0     C33945   2.045   3.509   4.753  0.6909 -0.3782 -0.1407
  252MOL0     C33946   2.068   3.613   4.646 -0.5315 -0.2684  0.6446
  252MOL0     C33947   2.183   3.558   4.547 -0.5323 -0.1023 -0.4824
  252MOL0     C33948   2.322   3.578   4.606  0.0685 -0.0668 -0.3507
  252MOL0     C33949   2.385   3.713   4.587  0.0317 -0.1315 -0.6995
  252MOL0     C33950   2.447   3.815   4.568  1.1466 -0.0402  0.6149
  252MOL0     C33951   1.728   3.492   4.925  0.0120  0.0625 -1.3147
  252MOL0     C33952   1.631   3.401   4.980 -0.4701  0.7624  0.1692
  252MOL0     H33953   1.395   3.201   5.378  3.0283  0.5546 -2.2340
  252MOL0     H33954   1.218   3.046   5.438  1.8551 -2.6583 -0.1932
  252MOL0     H33955   1.031   2.796   5.110  0.7273  3.4892  0.0339
  252MOL0     H33956   1.036   2.708   5.259  2.7697  1.9847  0.8029
  252MOL0     H33957   0.839   2.915   5.174 -1.3295 -1.2582 -0.8087
  252MOL0     H33958   0.814   2.742   5.180  0.7238  0.7767 -2.3071
  252MOL0     H33959   0.870   2.724   5.424  1.8704  0.8293 -0.5825
  252MOL0     H33960   0.853   2.900   5.436  0.0611  0.9234 -1.9602
  252MOL0     H33961   0.669   2.777   5.533 -1.0435 -1.2466 -0.9022
  252MOL0     H33962   0.624   2.887   5.397 -0.1486  0.2752 -0.7472
  252MOL0     H33963   0.585   2.681   5.265  2.4965  1.9653 -0.2870
  252MOL0     H33964   0.683   2.587   5.384 -0.4857 -0.7848 -1.8952
  252MOL0     H33965   0.489   2.622   5.555  0.3725 -1.0412 -0.2517
  252MOL0     H33966   0.422   2.723   5.422 -0.0292 -0.5527 -1.4333
  252MOL0     H33967   0.316   2.498   5.431 -0.8086  0.3374 -3.7946
  252MOL0     H33968   0.411   2.503   5.288 -0.0995 -3.2056 -0.4013
  252MOL0     H33969   0.455   2.363   5.544  0.1895 -0.7376  0.0324
  252MOL0     H33970   0.607   2.406   5.456  0.0338 -0.0663  1.0707
  252MOL0     H33971   0.330   2.148   5.425 -1.4679 -1.3412 -1.3293
  252MOL0     H33972   0.340   1.918   5.283 -1.4703  3.5767 -0.4439
  252MOL0     H33973   0.330   1.964   5.120  1.8575 -0.9341 -1.5117
  252MOL0     H33974   0.597   1.869   5.232  0.3627 -1.8308  0.1798
  252MOL0     H33975   0.532   1.886   5.060  0.8241 -1.0768 -0.0999
  252MOL0     H33976   0.454   1.690   5.043  2.6318 -1.5824  0.2512
  252MOL0     H33977   0.374   1.696   5.199 -1.5698 -0.7211 -3.7958
  252MOL0     H33978   0.675   1.640   5.168  1.3438 -2.4862  3.1310
  252MOL0     H33979   0.539   1.524   5.181  1.0829  0.1999 -0.4345
  252MOL0     H33980   0.822   1.723   5.336  0.5505 -2.1351  0.7091
  252MOL0     H33981   1.033   1.764   5.523 -1.0838 -0.2635 -0.2864
  252MOL0     H33982   1.127   1.605   5.507  1.9151 -0.4413 -1.3380
  252MOL0     H33983   1.065   1.696   5.365  2.7815 -1.4747  0.7183
  252MOL0     H33984   0.925   1.263   5.930 -0.5732 -3.5334  1.9953
  252MOL0     H33985   1.103   1.210   6.100  0.0165 -2.0762  0.8470
  252MOL0     H33986   1.455   0.983   5.983 -1.7734  0.4952  1.6278
  252MOL0     H33987   1.534   1.138   5.947 -0.0109  3.3590  2.1506
  252MOL0     H33988   1.557   0.984   6.194 -0.2890  0.4916 -1.3143
  252MOL0     H33989   1.678   1.072   6.095  1.4820 -1.0793  2.9786
  252MOL0     H33990   1.479   1.180   6.298  1.1418 -1.1924  1.1773
  252MOL0     H33991   1.551   1.291   6.181  2.1237  0.5867 -0.4759
  252MOL0     H33992   1.787   1.179   6.274  0.4271 -1.4842 -0.0715
  252MOL0     H33993   1.714   1.304   6.366  0.5109  0.2950  0.9709
  252MOL0     H33994   1.679   0.997   6.402  0.3818 -0.0089 -1.2383
  252MOL0     H33995   1.588   1.111   6.493 -0.2326 -0.3131 -0.6055
  252MOL0     H33996   1.898   1.081   6.498 -0.2500  0.1677 -0.7619
  252MOL0     H33997   1.812   1.203   6.595  0.7327  0.1613 -1.1829
  252MOL0     H33998   1.721   1.056   6.752  3.1373  0.7641  3.0278
  252MOL0     H33999   1.874   0.989   6.720  0.3142  1.8675 -1.3579
  252MOL0     H34000   1.753   0.825   6.546 -0.0328  0.7043  0.6249
  252MOL0     H34001   1.617   0.872   6.639  0.0977  0.3233 -1.6554
  252MOL0     H34002   1.370   1.134   5.778 -1.2430 -0.8567 -1.8867
  252MOL0     H34003   1.236   1.198   5.628  3.3231 -0.2487  1.3552
  252MOL0     H34004   0.731   1.365   5.667  2.6716 -0.4152  0.0468
  252MOL0     H34005   0.559   1.441   5.537 -0.2293  0.4113 -1.2474
  252MOL0     H34006   1.135   2.949   5.049 -0.8529 -2.6033  3.1980
  252MOL0     H34007   1.297   3.116   4.968  2.2655  2.0301  0.0787
  252MOL0     H34008   1.836   3.121   5.003  3.3582 -0.8670 -1.7501
  252MOL0     H34009   1.994   3.284   4.888  1.0556  2.2910  0.8579
  252MOL0     H34010   2.129   3.517   4.821  0.9175 -2.5004 -0.0851
  252MOL0     H34011   2.036   3.410   4.706  0.4149  0.2932 -1.5391
  252MOL0     H34012   2.096   3.713   4.681  2.2933  1.4008 -5.0971
  252MOL0     H34013   1.978   3.643   4.592 -0.3327  0.9847  0.9768
  252MOL0     H34014   2.169   3.601   4.448  0.4727 -0.2130 -0.6891
  252MOL0     H34015   2.161   3.451   4.539 -1.8855  0.1997 -1.0421
  252MOL0     H34016   2.391   3.514   4.551 -0.9145 -1.4147 -0.0503
  252MOL0     H34017   2.323   3.558   4.714 -2.2463 -1.1974 -0.4926
  252MOL0     H34018   2.510   3.901   4.553  2.7095 -1.4298 -1.5167
  252MOL0     H34019   1.694   3.589   4.890 -1.4766 -1.2727 -3.8329
  252MOL0     H34020   1.528   3.434   4.982 -0.7001  0.1000 -0.4073
  253MOL0     O34021   0.417   6.859   9.634  0.6362 -0.3096 -0.0983
  253MOL0     C34022   0.466   6.778   9.710  0.7455 -0.0065 -0.9065
  253MOL0     O34023   0.564   6.787   9.802 -0.8636  0.0794 -0.0234
  253MOL0     C34024   0.629   6.910   9.808  0.1635 -0.1583 -0.5363
  253MOL0     C34025   0.698   6.923   9.930  0.0442  0.4746  0.5680
  253MOL0     C34026   0.775   7.036   9.962 -0.4848 -1.2878 -0.5118
  253MOL0     C34027   0.803   7.134   9.868  0.0131  0.0505  0.1441
  253MOL0     O34028   0.862   7.246   9.918  0.5658 -0.8913 -0.1414
  253MOL0     C34029   0.871   7.370   9.841 -0.1697  1.5255  0.3379
  253MOL0     C34030   0.937   7.476   9.920 -0.4646  1.1351  0.0374
  253MOL0     C34031   1.079   7.448   9.951 -0.4029 -0.3490 -1.3484
  253MOL0     C34032   1.142   7.523  10.070  0.0459 -0.2679 -0.2362
  253MOL0     C34033   1.203   7.423  10.168 -0.8666 -0.1649 -0.2089
  253MOL0     C34034   1.298   7.496  10.275  0.6234 -0.5295  0.0019
  253MOL0     C34035   1.445   7.516  10.238 -0.3422  0.0678  0.0823
  253MOL0     C34036   1.509   7.622  10.324  0.6303  0.1001 -0.5004
  253MOL0     N34037   1.587   7.714  10.245  0.2306 -0.8693 -0.6418
  253MOL0     C34038   1.700   7.670  10.186 -0.7189 -0.3917  0.6732
  253MOL0     C34039   1.746   7.773  10.113 -0.0970 -0.5638  0.3030
  253MOL0     C34040   1.880   7.770  10.054  0.2570  0.4048 -0.0790
  253MOL0     C34041   1.877   7.715   9.909  1.0699  0.6424  0.7798
  253MOL0     C34042   1.891   7.824   9.797 -0.4350 -0.1534  0.3412
  253MOL0     C34043   1.800   7.938   9.804 -0.3940 -0.4313 -0.1497
  253MOL0     O34044   1.778   7.993   9.679 -0.4609 -0.1609  0.1822
  253MOL0     C34045   1.681   8.091   9.667  0.1487  1.0979  0.5471
  253MOL0     C34046   1.657   8.137   9.542 -0.5084  0.9488  0.2748
  253MOL0     C34047   1.555   8.240   9.515  0.1122 -1.0938  0.8150
  253MOL0     C34048   1.544   8.290   9.371  0.5862 -0.1093 -0.4173
  253MOL0     C34049   1.469   8.278   9.626 -0.0741  0.5200  0.2605
  253MOL0     C34050   1.348   8.364   9.617 -1.2897  0.8533 -0.5275
  253MOL0     O34051   1.247   8.330   9.708  0.1586 -0.4698 -1.3046
  253MOL0     C34052   1.146   8.419   9.725  0.0083  0.4902 -0.1147
  253MOL0     C34053   1.015   8.378   9.689  0.7040  0.0055 -0.0254
  253MOL0     C34054   0.903   8.463   9.725  0.6399 -0.1279  0.1839
  253MOL0     C34055   0.922   8.586   9.778  0.0979 -0.5630  0.1912
  253MOL0     O34056   0.830   8.678   9.824 -0.6683 -0.1873  1.0513
  253MOL0     C34057   0.701   8.632   9.860 -0.5197  0.5541 -0.6578
  253MOL0     C34058   0.630   8.748   9.916  1.2473 -0.0206 -0.0799
  253MOL0     C34059   0.557   8.818   9.805  0.5344  0.0546  0.0348
  253MOL0     C34060   0.494   8.944   9.858  0.9715  0.8932  0.4580
  253MOL0     C34061   0.484   9.046   9.742  0.5409 -0.1193  0.2616
  253MOL0     C34062   0.399   9.171   9.788 -1.0441  0.6163 -0.0207
  253MOL0     C34063   0.249   9.148   9.764  0.0352  0.7427  0.0158
  253MOL0     C34064   0.160   9.254   9.836 -0.1871  0.8529  0.1069
  253MOL0    Cl34065   0.157   9.225  10.010  0.2369  0.6245  0.4947
  253MOL0     C34066   1.054   8.626   9.804  0.2925  0.1322 -0.7174
  253MOL0     C34067   1.157   8.551   9.764  0.4876  0.0760  0.1136
  253MOL0     O34068   1.349   8.457   9.538  0.1622  0.2668 -0.0871
  253MOL0     C34069   1.497   8.232   9.751  0.7709 -0.3716 -0.2923
  253MOL0     C34070   1.597   8.135   9.770  0.1299 -0.6638  0.0991
  253MOL0     N34071   1.647   7.875  10.113 -0.2737 -0.1193  0.2349
  253MOL0     N34072   1.552   7.839  10.188  0.1333  0.2941  0.0750
  253MOL0     C34073   0.750   7.116   9.734 -0.4364 -0.2857 -0.3684
  253MOL0     C34074   0.662   7.009   9.706 -0.9728 -0.7758 -0.2927
  253MOL0     C34075   0.423   6.640   9.678  0.0778 -0.7265 -0.5950
  253MOL0     C34076   0.350   6.612   9.562 -1.2298 -0.3091  0.7595
  253MOL0     C34077   0.298   6.486   9.548  0.1052  1.4011 -0.0677
  253MOL0     C34078   0.293   6.389   9.655 -1.0582 -0.1529  1.0452
  253MOL0     O34079   0.234   6.266   9.647  0.2665  0.6895 -0.7340
  253MOL0     C34080   0.102   6.258   9.591 -0.8921 -0.0634  0.4738
  253MOL0     C34081   0.053   6.121   9.628  0.8141 -0.4056  0.2238
  253MOL0     C34082  -0.086   6.097   9.568 -0.6615 -0.0908 -0.4207
  253MOL0     C34083  -0.170   6.010   9.659  0.9863 -0.1858 -0.6392
  253MOL0     C34084  -0.309   6.033   9.617 -0.1691  0.1946  1.3421
  253MOL0     C34085  -0.425   6.053   9.587 -0.4133 -0.5431 -0.5217
  253MOL0     C34086   0.378   6.420   9.758 -0.1105  0.5383 -0.5503
  253MOL0     C34087   0.438   6.544   9.769 -0.1307  0.5140 -0.3264
  253MOL0     H34088   0.694   6.835   9.993 -0.2506  2.4824  3.5468
  253MOL0     H34089   0.825   7.045  10.058  0.7861  0.8590 -1.2976
  253MOL0     H34090   0.938   7.340   9.760 -1.8770 -0.9668 -0.2688
  253MOL0     H34091   0.775   7.408   9.806 -1.0439 -1.9270 -1.4866
  253MOL0     H34092   0.924   7.562   9.854 -3.8724 -1.0836 -2.5293
  253MOL0     H34093   0.880   7.493  10.012  0.5353  3.1207  0.3282
  253MOL0     H34094   1.093   7.340   9.962  0.3227  0.0120  3.8303
  253MOL0     H34095   1.125   7.494   9.863 -0.5461  3.9658  0.5779
  253MOL0     H34096   1.216   7.590  10.027 -1.4709  0.7248 -1.4259
  253MOL0     H34097   1.068   7.583  10.125 -1.8044 -2.1044 -0.5777
  253MOL0     H34098   1.131   7.356  10.216  1.4249 -4.2343 -1.9987
  253MOL0     H34099   1.269   7.362  10.105  1.7393  0.9578  1.2794
  253MOL0     H34100   1.241   7.583  10.309 -0.4739 -1.7728  1.4820
  253MOL0     H34101   1.297   7.435  10.366  1.9482 -2.7114 -1.3792
  253MOL0     H34102   1.502   7.423  10.248  0.6295  0.6874  0.4067
  253MOL0     H34103   1.459   7.538  10.132  0.3540 -3.5873 -0.7290
  253MOL0     H34104   1.575   7.585  10.403 -1.0483  0.4070  1.0962
  253MOL0     H34105   1.424   7.675  10.368  0.3670  2.6804 -3.6663
  253MOL0     H34106   1.747   7.575  10.210  0.3313  0.5836  2.7157
  253MOL0     H34107   1.931   7.867  10.059  1.7202 -0.1813 -2.1834
  253MOL0     H34108   1.942   7.696  10.105  1.5568 -1.6794 -4.2227
  253MOL0     H34109   1.787   7.659   9.883  2.3812 -0.5598 -1.4533
  253MOL0     H34110   1.961   7.646   9.902 -1.1331 -2.1285 -0.1976
  253MOL0     H34111   1.880   7.770   9.702 -2.9941  2.2639 -0.8838
  253MOL0     H34112   1.995   7.857   9.783  0.6818 -3.9844 -1.8007
  253MOL0     H34113   1.848   8.006   9.875 -0.6425 -0.1556 -0.2446
  253MOL0     H34114   1.708   7.899   9.848  1.3304 -2.8634  1.5635
  253MOL0     H34115   1.725   8.109   9.462  1.2655  0.9487  1.7169
  253MOL0     H34116   1.542   8.204   9.303 -1.5686 -0.8208  0.4500
  253MOL0     H34117   1.453   8.350   9.356 -0.5219 -1.6450 -0.0349
  253MOL0     H34118   1.624   8.357   9.338  0.8716 -0.7323 -1.0130
  253MOL0     H34119   1.010   8.286   9.632  1.3260  0.4280 -0.7772
  253MOL0     H34120   0.802   8.436   9.694  0.3647  1.6850 -0.6616
  253MOL0     H34121   0.657   8.587   9.771  1.5158  2.2742 -2.6678
  253MOL0     H34122   0.709   8.566   9.947  1.4995  1.3740 -0.1500
  253MOL0     H34123   0.558   8.703   9.986  0.5786 -2.0302 -1.9133
  253MOL0     H34124   0.698   8.816   9.967  2.8676 -2.9113  1.9135
  253MOL0     H34125   0.482   8.748   9.768  0.9790 -0.3977 -0.0156
  253MOL0     H34126   0.620   8.848   9.721 -1.5228  1.5141 -1.0698
  253MOL0     H34127   0.393   8.923   9.895 -0.0505  0.2118 -2.4683
  253MOL0     H34128   0.551   8.991   9.939 -0.0329  3.1113 -0.0552
  253MOL0     H34129   0.451   9.011   9.644  3.3332  1.8901 -1.5529
  253MOL0     H34130   0.588   9.071   9.718  0.0819 -0.2247 -2.0879
  253MOL0     H34131   0.416   9.189   9.894  3.6083 -6.5547  1.2044
  253MOL0     H34132   0.437   9.260   9.737  2.2802 -0.4121  0.3937
  253MOL0     H34133   0.205   9.051   9.790  1.8779 -0.2399 -0.3595
  253MOL0     H34134   0.243   9.144   9.655 -1.4606 -2.0811  0.1073
  253MOL0     H34135   0.055   9.243   9.811  0.0416 -3.6480  0.1970
  253MOL0     H34136   0.200   9.355   9.827  1.7048  0.1465  0.0901
  253MOL0     H34137   1.066   8.730   9.832 -0.6257 -0.1416  0.7675
  253MOL0     H34138   1.252   8.600   9.748  0.5653 -0.7447 -2.5926
  253MOL0     H34139   1.439   8.254   9.840 -1.2069 -3.6560 -0.6034
  253MOL0     H34140   1.603   8.090   9.869  2.9470 -2.9382 -0.9564
  253MOL0     H34141   0.769   7.184   9.652  1.5070  0.2731  0.5001
  253MOL0     H34142   0.623   7.001   9.605 -2.6847  2.7885 -0.0700
  253MOL0     H34143   0.328   6.688   9.488 -0.1523 -0.1160  0.6232
  253MOL0     H34144   0.244   6.480   9.454  1.4399 -2.3247 -0.7845
  253MOL0     H34145   0.036   6.338   9.626  0.1883 -0.0288  2.5904
  253MOL0     H34146   0.106   6.268   9.482 -1.4713  1.5460  0.5693
  253MOL0     H34147   0.045   6.109   9.737  1.3612  0.4345  0.3646
  253MOL0     H34148   0.124   6.049   9.587  0.9205  0.7316 -1.6898
  253MOL0     H34149  -0.079   6.050   9.469 -1.5697  0.1093 -0.5911
  253MOL0     H34150  -0.128   6.197   9.558 -0.3679 -0.0168 -0.9794
  253MOL0     H34151  -0.166   6.027   9.767  1.3001  1.4824 -0.8919
  253MOL0     H34152  -0.154   5.903   9.641 -2.6584 -1.1583  1.0350
  253MOL0     H34153  -0.525   6.077   9.557 -1.3226 -0.9520  1.9559
  253MOL0     H34154   0.386   6.343   9.833 -2.9788 -0.4069 -1.1170
  253MOL0     H34155   0.509   6.557   9.850 -1.6161 -0.2843  1.1730
  254MOL0     O34156   1.711   7.521   4.145  0.5878 -0.3044  0.3535
  254MOL0     C34157   1.611   7.467   4.103 -0.6564  1.0000  0.2600
  254MOL0     O34158   1.551   7.362   4.159  0.2376 -0.2175 -0.0494
  254MOL0     C34159   1.538   7.364   4.295  0.1546  1.5399 -0.3574
  254MOL0     C34160   1.567   7.239   4.357 -0.3558 -0.2419  0.3479
  254MOL0     C34161   1.554   7.229   4.503  0.3035  0.2144 -0.4998
  254MOL0     C34162   1.518   7.340   4.581 -0.0603  0.0038  0.1118
  254MOL0     O34163   1.477   7.311   4.715 -0.3315 -0.4050  0.7735
  254MOL0     C34164   1.579   7.345   4.807  0.2142 -0.0625  0.4854
  254MOL0     C34165   1.573   7.236   4.912 -0.2985  0.7070  0.2989
  254MOL0     C34166   1.680   7.264   5.029 -0.4001  0.2913 -0.8141
  254MOL0     C34167   1.679   7.144   5.128 -0.4140 -0.1713  0.3053
  254MOL0     C34168   1.769   7.149   5.250  0.1227 -0.3234  0.6884
  254MOL0     C34169   1.776   7.018   5.338  0.5640  0.0231 -0.4631
  254MOL0     C34170   1.903   6.932   5.321  0.1006  0.1211  0.2156
  254MOL0     C34171   1.858   6.806   5.246 -0.2852  0.2296  0.8901
  254MOL0     N34172   1.972   6.725   5.208  0.2585  0.2426  1.0316
  254MOL0     C34173   1.974   6.589   5.240 -0.3922  0.3494  0.2043
  254MOL0     C34174   2.107   6.542   5.211  1.0866 -0.7862  0.2612
  254MOL0     C34175   2.158   6.400   5.214 -0.1571 -0.3688  0.9218
  254MOL0     C34176   2.097   6.324   5.096 -0.1364 -0.3823  1.5239
  254MOL0     C34177   2.145   6.382   4.959  0.5963 -0.4387 -0.6274
  254MOL0     C34178   2.191   6.281   4.865 -0.1990 -0.2700  1.3849
  254MOL0     O34179   2.067   6.222   4.808  0.2131  0.4509  0.8150
  254MOL0     C34180   2.031   6.257   4.678 -0.0708  0.5938  0.5238
  254MOL0     C34181   1.907   6.310   4.665 -0.3172 -0.5930  0.0198
  254MOL0     C34182   1.849   6.331   4.540  0.2803 -0.1335 -0.1322
  254MOL0     C34183   1.697   6.347   4.545 -0.1286  0.1322 -0.4413
  254MOL0     C34184   1.920   6.312   4.418 -0.1397 -0.6120 -0.7955
  254MOL0     C34185   1.854   6.334   4.287 -0.7628  0.3040  0.1304
  254MOL0     O34186   1.887   6.236   4.196  0.3383  0.0099 -0.5697
  254MOL0     C34187   1.845   6.257   4.070  0.5915  0.2460  0.2250
  254MOL0     C34188   1.741   6.174   4.021 -0.2754 -0.3110 -0.3250
  254MOL0     C34189   1.701   6.197   3.891  0.4741  1.2490 -0.4937
  254MOL0     C34190   1.752   6.282   3.799 -0.6365 -1.0007 -1.4400
  254MOL0     O34191   1.703   6.280   3.666 -0.2109 -0.4052 -0.0265
  254MOL0     C34192   1.755   6.371   3.563  0.9447  0.6311  0.2829
  254MOL0     C34193   1.699   6.335   3.422  0.1472  0.6951  0.6816
  254MOL0     C34194   1.740   6.428   3.319 -1.2528 -0.0139 -0.3054
  254MOL0     C34195   1.675   6.401   3.182 -0.1656 -0.0838  0.5805
  254MOL0     C34196   1.722   6.267   3.130 -0.3953  0.0158 -0.2342
  254MOL0     C34197   1.660   6.238   2.994 -0.6852 -0.7397 -0.5075
  254MOL0     C34198   1.728   6.306   2.871 -0.0775 -0.4005  0.0167
  254MOL0     C34199   1.812   6.198   2.790  0.0800  0.7317 -0.4981
  254MOL0    Cl34200   1.861   6.270   2.635  0.4504  0.1031 -0.3280
  254MOL0     C34201   1.850   6.366   3.851  0.0510  0.1151  0.0620
  254MOL0     C34202   1.898   6.361   3.988  0.3800  0.0348  0.2091
  254MOL0     O34203   1.783   6.431   4.264  0.5033  0.0871 -0.1564
  254MOL0     C34204   2.048   6.253   4.434 -0.1567 -1.2862  0.8403
  254MOL0     C34205   2.109   6.231   4.561 -0.7580  0.5029 -0.2599
  254MOL0     N34206   2.173   6.655   5.160  0.7230  0.5407  1.4760
  254MOL0     N34207   2.095   6.761   5.169  0.4788 -1.4333 -0.6267
  254MOL0     C34208   1.480   7.462   4.514  0.7659 -0.8309 -0.1617
  254MOL0     C34209   1.494   7.471   4.374 -0.5941 -0.4563 -0.8303
  254MOL0     C34210   1.569   7.493   3.966  1.0310 -0.2086  0.5325
  254MOL0     C34211   1.639   7.586   3.894 -0.9389  0.6702 -0.0548
  254MOL0     C34212   1.590   7.629   3.764 -0.2345  1.0518  0.7270
  254MOL0     C34213   1.469   7.581   3.711  0.6344  0.5150 -0.2871
  254MOL0     O34214   1.417   7.654   3.606  1.3586  0.2899  0.4987
  254MOL0     C34215   1.284   7.617   3.557  0.1546  0.3637 -0.1590
  254MOL0     C34216   1.225   7.695   3.443 -0.1229  0.7925 -1.0101
  254MOL0     C34217   1.314   7.698   3.312 -0.6146 -0.7781 -0.6539
  254MOL0     C34218   1.230   7.706   3.188 -0.2417 -0.1170  0.4730
  254MOL0     C34219   1.132   7.813   3.200 -1.7188 -0.9944  0.1184
  254MOL0     C34220   1.044   7.901   3.199 -0.8032  0.1342  1.0286
  254MOL0     C34221   1.404   7.475   3.788 -0.4436 -0.7300  0.8403
  254MOL0     C34222   1.456   7.436   3.911  0.4578 -0.7326  0.3151
  254MOL0     H34223   1.587   7.149   4.301  2.0035 -0.7004  1.7792
  254MOL0     H34224   1.574   7.135   4.553  2.2366  0.0607 -1.4642
  254MOL0     H34225   1.681   7.357   4.768 -0.4401 -2.6296 -2.4084
  254MOL0     H34226   1.568   7.443   4.854  2.1216  0.2909  0.3041
  254MOL0     H34227   1.475   7.224   4.959 -2.0340  0.1976 -3.1289
  254MOL0     H34228   1.587   7.140   4.861 -3.6152  0.0921  0.3170
  254MOL0     H34229   1.780   7.274   4.986 -0.9330  1.1895 -1.9108
  254MOL0     H34230   1.644   7.346   5.092 -2.7401 -1.1171 -0.1855
  254MOL0     H34231   1.573   7.128   5.152 -1.3478  2.9439 -1.1865
  254MOL0     H34232   1.706   7.052   5.074  0.4331 -0.0162  0.4489
  254MOL0     H34233   1.868   7.191   5.234  0.1607  0.0009  1.6744
  254MOL0     H34234   1.717   7.228   5.306 -0.4010  2.5940 -3.5011
  254MOL0     H34235   1.770   7.051   5.443 -3.4437  0.4925 -0.6895
  254MOL0     H34236   1.683   6.962   5.328  1.3970 -1.3399 -0.8646
  254MOL0     H34237   1.979   6.982   5.259  0.8586 -2.1348 -0.7894
  254MOL0     H34238   1.949   6.895   5.414  0.9455 -1.4572 -0.7770
  254MOL0     H34239   1.811   6.855   5.161 -0.6032 -3.1262 -1.0059
  254MOL0     H34240   1.788   6.749   5.307  0.8689 -3.1515 -0.6944
  254MOL0     H34241   1.895   6.527   5.283 -1.2799  1.3614  0.0827
  254MOL0     H34242   2.266   6.384   5.223 -0.2094 -2.0430 -0.8926
  254MOL0     H34243   2.112   6.362   5.306 -1.6913 -1.8937 -0.4255
  254MOL0     H34244   1.988   6.326   5.091 -0.1265  2.0350 -2.7371
  254MOL0     H34245   2.112   6.215   5.096 -1.7263 -0.6590 -0.6283
  254MOL0     H34246   2.219   6.459   4.980 -1.1152  0.9428  0.6172
  254MOL0     H34247   2.058   6.435   4.919  0.1335  0.8320  1.8753
  254MOL0     H34248   2.251   6.207   4.920 -3.3907 -3.0475  1.4665
  254MOL0     H34249   2.254   6.337   4.795 -0.8283  0.6186  1.5161
  254MOL0     H34250   1.852   6.329   4.757 -1.9598 -3.5806 -0.2160
  254MOL0     H34251   1.672   6.453   4.534 -0.2645  0.6168  3.4379
  254MOL0     H34252   1.645   6.280   4.475 -1.9198  0.0815  0.8694
  254MOL0     H34253   1.654   6.329   4.644  2.0513 -1.6435  0.2674
  254MOL0     H34254   1.711   6.094   4.087 -0.0046 -0.8070 -0.7982
  254MOL0     H34255   1.618   6.139   3.852  1.1599  1.2510 -2.0278
  254MOL0     H34256   1.758   6.478   3.586  0.4775  0.3410  1.8359
  254MOL0     H34257   1.862   6.348   3.568  0.2085 -3.3178  1.1508
  254MOL0     H34258   1.734   6.234   3.402  1.4238  1.2842 -0.1227
  254MOL0     H34259   1.589   6.331   3.418  0.2384 -1.2980 -1.9032
  254MOL0     H34260   1.849   6.424   3.309 -0.5795  0.9044  4.3918
  254MOL0     H34261   1.715   6.532   3.342  1.0747  0.0186  2.8119
  254MOL0     H34262   1.566   6.403   3.186 -0.2430  1.0887 -1.1972
  254MOL0     H34263   1.707   6.481   3.114 -2.6193  1.5447  1.1968
  254MOL0     H34264   1.686   6.182   3.188  2.3107 -1.7001 -0.8899
  254MOL0     H34265   1.831   6.266   3.129 -0.3016 -1.0603 -4.1466
  254MOL0     H34266   1.672   6.130   2.986 -1.3062 -0.6967 -2.7391
  254MOL0     H34267   1.554   6.262   2.984 -0.7050 -1.1256 -1.3242
  254MOL0     H34268   1.790   6.391   2.901 -2.1416  1.6188 -1.0881
  254MOL0     H34269   1.649   6.349   2.808 -2.5685 -0.8310  2.6136
  254MOL0     H34270   1.742   6.116   2.774  1.3962 -0.4546 -0.4513
  254MOL0     H34271   1.901   6.158   2.841 -2.2533 -2.8935  1.1275
  254MOL0     H34272   1.883   6.439   3.778 -1.6850  0.1476 -0.7659
  254MOL0     H34273   1.981   6.421   4.024  0.6432 -0.4423  0.4071
  254MOL0     H34274   2.107   6.212   4.352  1.6805 -0.4681  1.7079
  254MOL0     H34275   2.205   6.187   4.585 -1.0224 -0.8237 -1.5049
  254MOL0     H34276   1.424   7.548   4.550 -0.7011 -0.6913 -2.5611
  254MOL0     H34277   1.457   7.558   4.321  0.0217 -0.8863 -2.0112
  254MOL0     H34278   1.733   7.629   3.925 -0.8829 -0.6994  1.8376
  254MOL0     H34279   1.645   7.700   3.703 -2.2408  2.1590  0.1221
  254MOL0     H34280   1.285   7.510   3.536 -0.4787  0.2613  0.2917
  254MOL0     H34281   1.216   7.627   3.642  0.3052 -3.9818  0.6817
  254MOL0     H34282   1.209   7.797   3.480  0.0896  1.1753 -1.9534
  254MOL0     H34283   1.138   7.633   3.424  0.4369 -0.2751 -0.1818
  254MOL0     H34284   1.377   7.609   3.300  0.3416 -0.4510  1.5277
  254MOL0     H34285   1.378   7.787   3.316  0.1809 -1.2070 -2.5249
  254MOL0     H34286   1.179   7.609   3.179  1.4387 -0.8768 -1.5867
  254MOL0     H34287   1.288   7.720   3.097  0.5498 -2.9326  0.4367
  254MOL0     H34288   0.972   7.979   3.190  1.7976  2.4287 -2.6584
  254MOL0     H34289   1.305   7.438   3.761 -0.6132 -0.5972  1.2743
  254MOL0     H34290   1.402   7.363   3.971  0.6661  0.1367  1.6167
  255MOL0     O34291   2.191  10.629   2.936 -0.3674  0.5299 -0.4545
  255MOL0     C34292   2.090  10.706   2.926 -0.1392 -0.7345 -0.2365
  255MOL0     O34293   1.990  10.737   3.015 -1.0901  1.1091 -0.0002
  255MOL0     C34294   2.001  10.689   3.152 -0.0144 -0.4179  0.3816
  255MOL0     C34295   2.007  10.556   3.198 -0.3428  0.1025  1.9047
  255MOL0     C34296   2.024  10.524   3.332  0.0372 -0.3794 -0.1293
  255MOL0     C34297   2.043  10.626   3.424  0.2148 -0.7128  0.8925
  255MOL0     O34298   2.024  10.600   3.555 -0.4467 -0.4638 -0.7019
  255MOL0     C34299   2.130  10.647   3.636 -0.0636 -0.5185 -0.1396
  255MOL0     C34300   2.090  10.622   3.780 -0.4571  0.0653  0.4817
  255MOL0     C34301   2.116  10.471   3.809  0.2192  1.1777 -0.6946
  255MOL0     C34302   2.253  10.432   3.851 -0.0345  0.5374 -0.0437
  255MOL0     C34303   2.246  10.308   3.933 -0.2213  0.9770  0.6965
  255MOL0     C34304   2.221  10.176   3.842 -0.0523  0.1764  0.3325
  255MOL0     C34305   2.258  10.040   3.932  0.2550  0.0597  0.8803
  255MOL0     C34306   2.247   9.922   3.837  0.2353  0.3195  1.0948
  255MOL0     N34307   2.317   9.799   3.895  0.7743 -0.5145 -0.2215
  255MOL0     C34308   2.241   9.682   3.897 -0.2925  0.0878 -0.0949
  255MOL0     C34309   2.329   9.584   3.934  0.0081 -0.7526  1.2581
  255MOL0     C34310   2.289   9.453   3.965 -0.5959  0.2406 -0.2428
  255MOL0     C34311   2.186   9.390   3.872 -0.1299 -0.1630  0.2411
  255MOL0     C34312   2.134   9.257   3.951 -1.0989 -0.6741  0.6302
  255MOL0     C34313   2.027   9.184   3.869  0.0391  1.2340  0.3173
  255MOL0     O34314   2.078   9.129   3.743 -0.8642 -0.0807  0.2091
  255MOL0     C34315   1.983   9.056   3.666 -0.0535  1.0849  0.3600
  255MOL0     C34316   2.028   8.971   3.564 -0.8285  0.2951 -0.3838
  255MOL0     C34317   1.947   8.900   3.471 -1.0748  0.2279 -0.8661
  255MOL0     C34318   2.008   8.838   3.354 -0.3117 -0.2885 -0.0866
  255MOL0     C34319   1.804   8.912   3.487 -0.3312  0.3634 -0.8309
  255MOL0     C34320   1.701   8.867   3.397 -1.3794  0.6054  0.4334
  255MOL0     O34321   1.735   8.774   3.300  0.6054  0.3929 -0.1879
  255MOL0     C34322   1.650   8.750   3.194  0.2882  0.2876  0.0080
  255MOL0     C34323   1.511   8.698   3.205 -0.1983  0.3157  0.8549
  255MOL0     C34324   1.443   8.670   3.084  0.3443 -0.6852 -0.4375
  255MOL0     C34325   1.503   8.680   2.964 -0.4341 -0.9111 -0.2770
  255MOL0     O34326   1.425   8.629   2.865  0.3387 -0.3194  0.3701
  255MOL0     C34327   1.423   8.488   2.849 -0.3162  0.7273  0.3132
  255MOL0     C34328   1.536   8.433   2.763  0.2746  0.1763 -0.4341
  255MOL0     C34329   1.533   8.467   2.618 -0.2601  0.2611 -0.4286
  255MOL0     C34330   1.616   8.598   2.588  0.5244 -0.1118 -0.7080
  255MOL0     C34331   1.641   8.600   2.430 -0.2243 -1.1628  0.8547
  255MOL0     C34332   1.688   8.744   2.387  0.1467  0.5209 -1.1498
  255MOL0     C34333   1.698   8.728   2.232 -0.6833 -0.8841  0.7741
  255MOL0     C34334   1.744   8.854   2.165  0.5154 -0.3609 -0.1961
  255MOL0    Cl34335   1.913   8.879   2.215  0.4503  0.2849 -0.4903
  255MOL0     C34336   1.643   8.710   2.951  0.8394  0.8118  0.1619
  255MOL0     C34337   1.714   8.744   3.069 -0.0607  0.3149  0.4261
  255MOL0     O34338   1.597   8.920   3.409  0.0224 -0.5186  0.2122
  255MOL0     C34339   1.759   8.989   3.596  0.3726 -0.3817  0.8274
  255MOL0     C34340   1.846   9.059   3.679 -0.2999 -0.0480  0.2993
  255MOL0     N34341   2.451   9.635   3.913 -0.1403  0.5772 -0.1266
  255MOL0     N34342   2.448   9.763   3.891 -0.1128 -0.0619 -0.8149
  255MOL0     C34343   2.031  10.758   3.384 -0.0072  1.0511  0.7510
  255MOL0     C34344   2.010  10.787   3.249 -0.6058  0.0923  0.1622
  255MOL0     C34345   2.060  10.770   2.789  0.2490  0.1820  0.4163
  255MOL0     C34346   1.938  10.829   2.751 -0.4188  0.1642  0.2654
  255MOL0     C34347   1.924  10.898   2.637  0.4651  0.0797  0.5186
  255MOL0     C34348   2.032  10.929   2.556 -1.2160  0.5227 -0.3805
  255MOL0     O34349   2.019  10.999   2.435 -0.0176  0.6653  0.4465
  255MOL0     C34350   2.130  11.027   2.340 -0.5245  0.4638 -1.3676
  255MOL0     C34351   2.091  11.094   2.216  0.3113  0.0981 -0.1045
  255MOL0     C34352   2.053  11.239   2.228  0.0597 -0.9871 -0.2323
  255MOL0     C34353   2.037  11.297   2.089  1.5873  0.2713  0.1603
  255MOL0     C34354   1.979  11.433   2.097  0.6188  0.3491 -0.7902
  255MOL0     C34355   1.925  11.543   2.114  0.2401 -0.7242  0.4054
  255MOL0     C34356   2.157  10.886   2.603  0.3222  0.1516  0.1794
  255MOL0     C34357   2.172  10.807   2.719 -0.1606  0.0258 -0.6267
  255MOL0     H34358   1.996  10.473   3.129 -5.7251  0.2424  2.1720
  255MOL0     H34359   2.017  10.419   3.356  0.1698 -0.3594 -0.0040
  255MOL0     H34360   2.227  10.602   3.615 -0.4529 -3.3400  3.2363
  255MOL0     H34361   2.133  10.756   3.628 -1.2308 -0.4506  0.1219
  255MOL0     H34362   2.162  10.670   3.846 -2.2282  1.7606  1.2731
  255MOL0     H34363   1.987  10.651   3.803 -0.6617 -0.9636  0.9115
  255MOL0     H34364   2.049  10.458   3.894  0.2774  2.0956 -0.4958
  255MOL0     H34365   2.078  10.406   3.730  1.3315  0.0683 -0.3561
  255MOL0     H34366   2.311  10.408   3.761 -1.3421 -1.4777 -0.4145
  255MOL0     H34367   2.291  10.508   3.920 -0.5573 -0.6172  1.5483
  255MOL0     H34368   2.340  10.300   3.989  0.7262  1.7036 -0.7504
  255MOL0     H34369   2.169  10.306   4.011  0.2100  1.4767  1.1489
  255MOL0     H34370   2.119  10.188   3.804 -0.1850  0.1139  0.6695
  255MOL0     H34371   2.294  10.192   3.762  0.4474  1.1827  0.9796
  255MOL0     H34372   2.359  10.056   3.972  0.0650  1.7504  0.7506
  255MOL0     H34373   2.190  10.029   4.017 -1.3778 -0.0092 -0.4068
  255MOL0     H34374   2.300   9.943   3.744  1.9112  1.3899  2.2136
  255MOL0     H34375   2.140   9.907   3.822  0.5113 -0.6774  0.0112
  255MOL0     H34376   2.133   9.692   3.899 -0.0825  3.5495  0.0490
  255MOL0     H34377   2.384   9.400   3.951  0.2936  2.1733 -1.8667
  255MOL0     H34378   2.269   9.430   4.070  2.0437  1.4470  0.6014
  255MOL0     H34379   2.242   9.359   3.784  0.4858  0.2119  0.4938
  255MOL0     H34380   2.108   9.464   3.853  1.6473  1.3777 -1.3964
  255MOL0     H34381   2.110   9.272   4.057  1.7954 -1.7028  1.5364
  255MOL0     H34382   2.220   9.192   3.936  1.1077  2.5095 -2.0065
  255MOL0     H34383   1.946   9.255   3.849 -1.3122  0.1060  1.5392
  255MOL0     H34384   1.989   9.098   3.924  1.8219  0.5160  0.5023
  255MOL0     H34385   2.136   8.957   3.554 -1.0595 -1.7855 -0.3673
  255MOL0     H34386   1.962   8.886   3.267  2.0801  0.5270 -0.9491
  255MOL0     H34387   2.116   8.844   3.344  0.0269 -2.4372  1.5719
  255MOL0     H34388   1.985   8.731   3.365  0.8685 -0.3481  2.5219
  255MOL0     H34389   1.471   8.689   3.306  0.3967  0.8051  1.1462
  255MOL0     H34390   1.342   8.629   3.081 -0.8486  2.0458 -0.7615
  255MOL0     H34391   1.433   8.442   2.948  0.2483 -2.5918 -1.1807
  255MOL0     H34392   1.339   8.429   2.812  0.6882 -1.7869  1.7743
  255MOL0     H34393   1.627   8.471   2.810  1.9145 -0.2692 -3.0813
  255MOL0     H34394   1.551   8.325   2.771  4.3031  0.6728  0.6524
  255MOL0     H34395   1.431   8.474   2.579 -0.0416 -0.5275 -1.1594
  255MOL0     H34396   1.582   8.386   2.563 -0.5318  2.7505 -4.8018
  255MOL0     H34397   1.568   8.689   2.626  0.7211  0.1656 -1.1175
  255MOL0     H34398   1.706   8.566   2.642 -0.0396 -3.3796 -1.4517
  255MOL0     H34399   1.548   8.572   2.379  0.5802 -1.7182 -0.3746
  255MOL0     H34400   1.719   8.528   2.404  0.1292 -0.0452 -1.5179
  255MOL0     H34401   1.618   8.824   2.415  0.7297  1.1720 -1.5113
  255MOL0     H34402   1.786   8.779   2.420  1.0221 -1.3138 -1.6626
  255MOL0     H34403   1.604   8.704   2.181  0.3293 -2.8697 -0.3095
  255MOL0     H34404   1.749   8.633   2.212 -1.6380 -0.9970 -1.3883
  255MOL0     H34405   1.676   8.935   2.190 -0.0410 -1.4759  2.2684
  255MOL0     H34406   1.749   8.844   2.056  0.6114 -0.5762 -0.1731
  255MOL0     H34407   1.696   8.701   2.858 -1.3715 -0.6454 -1.0534
  255MOL0     H34408   1.821   8.761   3.058 -0.1448  0.1458 -0.8167
  255MOL0     H34409   1.653   9.004   3.617  0.2158 -0.1971 -0.0487
  255MOL0     H34410   1.798   9.128   3.748 -1.0000 -1.4009  1.1945
  255MOL0     H34411   2.026  10.836   3.459 -1.2237  1.5140  0.2206
  255MOL0     H34412   2.007  10.892   3.222 -1.2805 -0.5556 -2.6230
  255MOL0     H34413   1.854  10.822   2.819 -0.6616  6.4843  1.1796
  255MOL0     H34414   1.827  10.936   2.604  0.1735 -1.2067 -0.1488
  255MOL0     H34415   2.215  11.075   2.390  0.3354 -3.2091  1.1205
  255MOL0     H34416   2.170  10.931   2.306  1.7400  0.0904  1.8267
  255MOL0     H34417   2.000  11.047   2.178 -0.0146  2.0891 -1.9785
  255MOL0     H34418   2.170  11.084   2.141 -1.2831  1.3015 -2.0411
  255MOL0     H34419   2.135  11.293   2.277 -0.6699  0.7987 -0.9039
  255MOL0     H34420   1.967  11.264   2.291  0.7003 -0.2218  0.3688
  255MOL0     H34421   1.970  11.235   2.029 -1.9513  0.7837  3.2530
  255MOL0     H34422   2.138  11.296   2.045 -0.0359  0.3743 -4.0653
  255MOL0     H34423   1.880  11.636   2.142  1.8551 -0.7356  3.5425
  255MOL0     H34424   2.245  10.916   2.547 -1.9316  4.0742 -1.6557
  255MOL0     H34425   2.278  10.795   2.744 -0.0933  0.1243 -0.8658
  256MOL0     O34426   4.749   8.851   9.510 -0.3687 -0.4748 -0.2148
  256MOL0     C34427   4.805   8.957   9.485 -0.0155  0.0364 -1.1336
  256MOL0     O34428   4.758   9.050   9.397 -0.5306 -0.1744  0.1868
  256MOL0     C34429   4.651   9.044   9.311 -0.7614 -1.2170  1.1686
  256MOL0     C34430   4.605   8.931   9.241 -0.6984  0.7247  0.5135
  256MOL0     C34431   4.489   8.929   9.167  0.2226 -0.7525 -1.1547
  256MOL0     C34432   4.430   9.040   9.127  0.0607  0.0328  0.3163
  256MOL0     O34433   4.337   9.051   9.030 -0.4792 -0.0376  0.0678
  256MOL0     C34434   4.369   8.986   8.901  0.2689  0.6287 -0.5699
  256MOL0     C34435   4.266   9.030   8.802  0.5533 -0.3215 -0.1005
  256MOL0     C34436   4.263   8.954   8.662  0.8582 -0.3356  0.2291
  256MOL0     C34437   4.184   8.813   8.669 -0.5383  0.3474 -0.6849
  256MOL0     C34438   4.037   8.830   8.708 -0.3214 -0.4404  0.0235
  256MOL0     C34439   3.968   8.703   8.754  0.4554 -0.2302 -0.2285
  256MOL0     C34440   3.843   8.669   8.678 -0.0881 -0.6560 -0.1553
  256MOL0     C34441   3.722   8.751   8.728 -0.8196  0.1221  0.2171
  256MOL0     N34442   3.615   8.730   8.632 -0.9775  0.4787  0.2614
  256MOL0     C34443   3.572   8.821   8.530 -0.8344 -1.1121 -0.2895
  256MOL0     C34444   3.486   8.749   8.457  0.4861  0.9294 -0.4010
  256MOL0     C34445   3.412   8.802   8.343  0.0366  0.6042 -0.4361
  256MOL0     C34446   3.331   8.932   8.374 -0.7953 -0.1301 -0.3376
  256MOL0     C34447   3.210   8.905   8.455 -0.3047  0.4005 -0.3337
  256MOL0     C34448   3.112   9.023   8.466  0.5627  0.9722  0.0331
  256MOL0     O34449   3.105   9.094   8.348 -0.1768  0.5594  0.5256
  256MOL0     C34450   3.019   9.203   8.346 -0.0616 -0.7730 -0.8075
  256MOL0     C34451   2.924   9.239   8.438 -0.5753 -0.0657 -0.2096
  256MOL0     C34452   2.832   9.355   8.420 -0.1807  0.2532  0.2676
  256MOL0     C34453   2.731   9.377   8.536 -0.0147  0.4817 -1.0267
  256MOL0     C34454   2.842   9.435   8.294  0.3899 -0.7439 -1.0905
  256MOL0     C34455   2.765   9.554   8.276 -1.2238  0.6230  0.7340
  256MOL0     O34456   2.724   9.565   8.144  0.2028  0.5886 -0.3146
  256MOL0     C34457   2.643   9.673   8.108 -0.0010  0.5442  0.4586
  256MOL0     C34458   2.687   9.765   8.001 -0.0398  0.1965  0.2760
  256MOL0     C34459   2.611   9.882   7.971 -0.1395  0.1083  0.0551
  256MOL0     C34460   2.498   9.912   8.053 -0.1954 -0.5315  0.7713
  256MOL0     O34461   2.425  10.024   8.028  0.0954 -0.3676  0.8460
  256MOL0     C34462   2.462  10.126   7.930  0.4785 -0.7552 -0.2540
  256MOL0     C34463   2.573  10.210   7.993  0.0943 -0.3818 -0.3457
  256MOL0     C34464   2.528  10.294   8.105  0.6982 -0.1325  0.2536
  256MOL0     C34465   2.625  10.403   8.134 -0.5791 -0.3791 -0.2927
  256MOL0     C34466   2.586  10.466   8.269 -0.8001 -0.7569  0.2922
  256MOL0     C34467   2.671  10.603   8.297 -0.3694  0.1170 -0.4858
  256MOL0     C34468   2.636  10.654   8.442  0.0599 -0.2250  0.4124
  256MOL0     C34469   2.755  10.724   8.503 -0.3366 -0.6326 -1.0898
  256MOL0    Cl34470   2.890  10.617   8.534 -0.1012 -0.3934 -0.5093
  256MOL0     C34471   2.472   9.834   8.163  0.8538  0.3000  1.1858
  256MOL0     C34472   2.539   9.711   8.183 -0.1497 -0.3095 -1.1728
  256MOL0     O34473   2.750   9.639   8.364  0.5813  0.6950  0.6531
  256MOL0     C34474   2.936   9.390   8.194 -1.3271  1.0371  0.6902
  256MOL0     C34475   3.016   9.280   8.224 -0.3186 -0.1760 -0.1294
  256MOL0     N34476   3.478   8.615   8.502  0.9579 -0.4609 -0.0392
  256MOL0     N34477   3.551   8.608   8.617  0.3624  1.1867  0.6654
  256MOL0     C34478   4.463   9.156   9.190 -0.7042  0.0485 -0.3546
  256MOL0     C34479   4.580   9.158   9.277  0.4216 -0.3863  0.9945
  256MOL0     C34480   4.921   9.009   9.559 -0.7043  0.2353  0.0805
  256MOL0     C34481   4.969   9.132   9.540  0.9532 -0.3236 -0.1709
  256MOL0     C34482   5.083   9.185   9.617  0.0318 -0.5580  0.2382
  256MOL0     C34483   5.141   9.109   9.717 -0.2008  0.2236 -0.4976
  256MOL0     O34484   5.244   9.174   9.779 -0.0490 -0.7890 -0.0299
  256MOL0     C34485   5.339   9.092   9.852  0.7281 -0.0148  0.3694
  256MOL0     C34486   5.318   9.074  10.000 -0.8577  0.2777 -0.2777
  256MOL0     C34487   5.178   9.104  10.051 -0.4777  0.6405 -0.6401
  256MOL0     C34488   5.175   9.119  10.210  0.5797 -0.7159  0.4236
  256MOL0     C34489   5.195   8.997  10.283 -0.1704 -0.7428  0.8082
  256MOL0     C34490   5.232   8.891  10.337 -0.2250  0.4769  0.6579
  256MOL0     C34491   5.094   8.973   9.736  0.0121  0.8686  0.1619
  256MOL0     C34492   4.980   8.928   9.667  0.1168  0.6018  0.2809
  256MOL0     H34493   4.639   8.830   9.264 -1.7683 -0.5388 -2.7771
  256MOL0     H34494   4.446   8.835   9.134  0.0193 -1.8487  1.8832
  256MOL0     H34495   4.470   9.016   8.872 -0.0640  1.9952 -0.3992
  256MOL0     H34496   4.358   8.878   8.911 -3.0724  1.0197  1.7847
  256MOL0     H34497   4.163   9.027   8.838  1.2727 -0.8533  2.0019
  256MOL0     H34498   4.279   9.138   8.785  0.2706  0.1339  2.2982
  256MOL0     H34499   4.216   9.018   8.587 -0.2538 -2.1414 -0.7058
  256MOL0     H34500   4.364   8.946   8.620 -0.3388 -0.2215 -3.0032
  256MOL0     H34501   4.200   8.760   8.575  3.8536 -0.0728  0.1005
  256MOL0     H34502   4.223   8.749   8.750 -5.4724 -1.7133  0.4409
  256MOL0     H34503   4.020   8.899   8.791 -0.0734 -0.7373  0.3208
  256MOL0     H34504   3.991   8.867   8.615 -0.8331 -3.4845 -1.0546
  256MOL0     H34505   4.032   8.614   8.750 -0.1230 -0.6147 -1.6440
  256MOL0     H34506   3.943   8.720   8.859 -0.2797 -0.6092 -0.3310
  256MOL0     H34507   3.859   8.680   8.570 -0.1768  1.9939  0.0238
  256MOL0     H34508   3.824   8.564   8.703 -4.0316 -0.7657 -2.7452
  256MOL0     H34509   3.751   8.856   8.718 -1.5309  0.2131 -1.2036
  256MOL0     H34510   3.686   8.717   8.825 -1.6949  2.7485  0.8832
  256MOL0     H34511   3.612   8.922   8.521 -0.5434 -1.3261 -1.5746
  256MOL0     H34512   3.489   8.820   8.267 -0.8878 -2.1420 -2.1562
  256MOL0     H34513   3.347   8.734   8.289 -1.1195  0.7377  0.7324
  256MOL0     H34514   3.307   8.979   8.278  0.7312 -2.1143 -1.7724
  256MOL0     H34515   3.393   9.004   8.430 -2.1611  0.7471  0.1107
  256MOL0     H34516   3.256   8.884   8.552 -1.1670 -1.6383 -0.3168
  256MOL0     H34517   3.164   8.812   8.419 -0.1805 -0.4564  1.5833
  256MOL0     H34518   3.147   9.100   8.536 -0.5139  3.7111 -2.2483
  256MOL0     H34519   3.017   8.976   8.494  1.7820 -1.4742  0.3947
  256MOL0     H34520   2.902   9.166   8.515  0.5708 -1.1800 -0.8858
  256MOL0     H34521   2.786   9.368   8.630  0.2123  1.4292 -1.0607
  256MOL0     H34522   2.680   9.473   8.538  3.0537  2.2346  0.5802
  256MOL0     H34523   2.658   9.296   8.541  1.3060 -0.7079  2.1934
  256MOL0     H34524   2.772   9.735   7.939  0.0325  1.8920 -0.5060
  256MOL0     H34525   2.637   9.933   7.879  1.5027 -2.1191 -0.7983
  256MOL0     H34526   2.493  10.076   7.838  0.9024  2.4638 -2.0094
  256MOL0     H34527   2.367  10.179   7.918 -0.2376 -1.7141  0.8325
  256MOL0     H34528   2.657  10.147   8.022  0.2544 -0.0038  0.0321
  256MOL0     H34529   2.615  10.271   7.913  2.1549 -0.2871  0.7556
  256MOL0     H34530   2.507  10.222   8.185 -0.1489 -0.8774 -0.6059
  256MOL0     H34531   2.430  10.337   8.080  1.5882  1.0192 -1.4284
  256MOL0     H34532   2.731  10.379   8.144 -0.0635  2.2883  2.3202
  256MOL0     H34533   2.612  10.486   8.064 -0.1005  0.2907  0.3919
  256MOL0     H34534   2.610  10.389   8.343 -0.6149 -1.6146 -0.6334
  256MOL0     H34535   2.484  10.504   8.282  0.3516  2.6140  0.3881
  256MOL0     H34536   2.780  10.596   8.294 -0.2634  1.5857 -0.9258
  256MOL0     H34537   2.654  10.682   8.224 -4.4485  0.3330  0.4497
  256MOL0     H34538   2.617  10.566   8.504  1.7164 -2.4985 -2.0936
  256MOL0     H34539   2.561  10.733   8.436 -1.5477 -1.7497 -0.4532
  256MOL0     H34540   2.730  10.770   8.599  2.0863 -0.5189 -0.4498
  256MOL0     H34541   2.777  10.806   8.434 -1.3292  0.5418 -0.0712
  256MOL0     H34542   2.404   9.872   8.238 -0.6560  1.9506 -0.9065
  256MOL0     H34543   2.504   9.649   8.265 -0.6413  0.3326 -0.8829
  256MOL0     H34544   2.952   9.441   8.099 -1.6178  0.8079  0.5173
  256MOL0     H34545   3.081   9.234   8.150 -1.5131 -1.5612 -0.3624
  256MOL0     H34546   4.411   9.248   9.165 -1.2198  0.2255  1.2404
  256MOL0     H34547   4.594   9.247   9.337  0.8092 -2.1423  3.7032
  256MOL0     H34548   4.928   9.206   9.472  1.3090 -1.2419 -1.4092
  256MOL0     H34549   5.127   9.280   9.589  0.1334 -0.8092 -0.4969
  256MOL0     H34550   5.345   8.991   9.810 -1.3408 -1.1991  2.6623
  256MOL0     H34551   5.433   9.148   9.843  0.8449 -0.3533 -0.7180
  256MOL0     H34552   5.387   9.143  10.049 -0.8645  0.2976 -0.2960
  256MOL0     H34553   5.352   8.973  10.026 -2.3647  0.4660  2.8259
  256MOL0     H34554   5.108   9.025  10.025 -0.8438  1.0114 -0.7868
  256MOL0     H34555   5.151   9.192   9.993 -0.9785 -1.5296 -3.9333
  256MOL0     H34556   5.078   9.161  10.238 -0.9141 -3.2736 -0.6040
  256MOL0     H34557   5.254   9.186  10.245 -0.7567  0.9320  0.4508
  256MOL0     H34558   5.270   8.808  10.393  0.0822  2.1837  3.1675
  256MOL0     H34559   5.150   8.910   9.805 -1.6590 -0.6502  0.1989
  256MOL0     H34560   4.974   8.821   9.686  1.4229  0.3702 -0.5090
  257MOL0     O34561   8.177  11.382  10.268  0.1502 -0.2799 -1.1665
  257MOL0     C34562   8.091  11.445  10.331 -1.2664 -0.9076  1.3437
  257MOL0     O34563   8.096  11.485  10.463 -0.0545 -0.0117 -0.4325
  257MOL0     C34564   8.204  11.467  10.543 -0.0027  0.7097  1.4236
  257MOL0     C34565   8.195  11.377  10.652 -0.0291 -0.2401 -0.2289
  257MOL0     C34566   8.313  11.346  10.731  0.3850 -1.1045  1.3624
  257MOL0     C34567   8.441  11.392  10.696 -0.1768 -0.0934  0.7887
  257MOL0     O34568   8.556  11.369  10.777  0.9447 -0.7631 -0.2067
  257MOL0     C34569   8.571  11.233  10.819  0.0349 -0.4159  0.1233
  257MOL0     C34570   8.718  11.206  10.856  0.2143 -1.0961  0.4331
  257MOL0     C34571   8.754  11.059  10.871 -1.0803  0.6634  0.4175
  257MOL0     C34572   8.757  11.008  11.019 -0.5609  0.0554 -0.1365
  257MOL0     C34573   8.758  10.863  11.056  0.0439  0.1631  0.5141
  257MOL0     C34574   8.836  10.764  10.960  0.6509 -0.6228  0.1920
  257MOL0     C34575   8.848  10.627  11.035 -0.8383 -0.1183 -0.4779
  257MOL0     C34576   8.947  10.529  10.962  0.5285 -0.5545 -0.8832
  257MOL0     N34577   8.912  10.503  10.819  0.4069  0.1888  0.2877
  257MOL0     C34578   8.836  10.393  10.782  0.3262 -0.9691 -1.1727
  257MOL0     C34579   8.773  10.416  10.664  0.4537 -0.2794 -0.0766
  257MOL0     C34580   8.675  10.328  10.607  0.1226 -0.7922 -0.0006
  257MOL0     C34581   8.590  10.385  10.493  0.0949 -0.2681 -0.9112
  257MOL0     C34582   8.665  10.414  10.370 -0.5012 -0.9474  0.7187
  257MOL0     C34583   8.622  10.341  10.242 -0.1631  0.0863 -0.1027
  257MOL0     O34584   8.628  10.205  10.272  1.0986 -0.0266 -0.0813
  257MOL0     C34585   8.733  10.135  10.217 -0.8846  0.7704  0.3943
  257MOL0     C34586   8.873  10.164  10.195  0.3730  1.2726 -0.9987
  257MOL0     C34587   8.960  10.054  10.164  0.1640 -0.2641  0.3163
  257MOL0     C34588   9.107  10.086  10.129 -0.2933  0.0711  0.2606
  257MOL0     C34589   8.918   9.919  10.167  0.1484  0.7640 -0.3526
  257MOL0     C34590   9.015   9.808  10.144  0.2616 -0.6582 -1.4266
  257MOL0     O34591   9.141   9.810  10.199  0.1432 -0.6965  0.5099
  257MOL0     C34592   9.201   9.692  10.186  0.4247  0.5822 -0.1340
  257MOL0     C34593   9.248   9.618  10.301  0.7738  0.0861  0.5649
  257MOL0     C34594   9.328   9.503  10.275 -0.9948 -0.0182 -0.4526
  257MOL0     C34595   9.360   9.466  10.144 -0.0425  0.2010  0.6558
  257MOL0     O34596   9.447   9.370  10.100 -0.7709  0.5220 -0.1269
  257MOL0     C34597   9.508   9.283  10.195  0.1659 -0.5298  0.0900
  257MOL0     C34598   9.565   9.172  10.115  0.6852  0.4009 -0.2215
  257MOL0     C34599   9.626   9.050  10.188  0.6247  0.1030  0.0126
  257MOL0     C34600   9.705   9.072  10.323 -0.7577 -0.2862  0.0615
  257MOL0     C34601   9.710   8.940  10.400 -0.2436 -0.2315 -0.8436
  257MOL0     C34602   9.779   8.980  10.533  0.0380  0.6441 -0.5165
  257MOL0     C34603   9.784   8.851  10.618  0.9693  0.1375  0.5432
  257MOL0     C34604   9.881   8.870  10.734 -0.2273  0.1552 -0.8043
  257MOL0    Cl34605   9.803   8.770  10.868 -0.2235 -0.0894  0.2065
  257MOL0     C34606   9.318   9.544  10.042 -0.3524  0.1536  0.5442
  257MOL0     C34607   9.242   9.659  10.061 -0.3495  0.9321  1.0851
  257MOL0     O34608   8.966   9.712  10.088 -0.1999  0.9176  0.5068
  257MOL0     C34609   8.782   9.899  10.175 -0.6231 -0.5412 -0.4981
  257MOL0     C34610   8.692   9.999  10.203  0.1268  0.7537  0.4291
  257MOL0     N34611   8.830  10.533  10.611  0.0112  0.6153 -0.1676
  257MOL0     N34612   8.915  10.575  10.707 -0.7675 -0.9591  0.4191
  257MOL0     C34613   8.453  11.471  10.590 -0.0544 -1.1079  0.6135
  257MOL0     C34614   8.336  11.506  10.511 -0.0011 -0.2723 -0.1477
  257MOL0     C34615   7.958  11.483  10.262  0.1422  0.7865 -0.5353
  257MOL0     C34616   7.909  11.429  10.143 -0.0857  0.1170  0.0832
  257MOL0     C34617   7.784  11.475  10.089  0.3618 -0.5467 -0.2744
  257MOL0     C34618   7.707  11.567  10.160 -0.4152 -0.0531 -0.2318
  257MOL0     O34619   7.588  11.626  10.116  0.8417  0.5878  0.1950
  257MOL0     C34620   7.541  11.586   9.981 -0.5113 -0.0966 -0.2835
  257MOL0     C34621   7.628  11.658   9.872  0.2626 -0.3038  0.6022
  257MOL0     C34622   7.596  11.805   9.820  0.3683 -0.3327 -0.4305
  257MOL0     C34623   7.614  11.916   9.922  0.2633  0.4416  0.8291
  257MOL0     C34624   7.484  11.947   9.980  0.4765  1.7200  0.1557
  257MOL0     C34625   7.380  11.974  10.035 -0.3486  0.1343  0.0261
  257MOL0     C34626   7.769  11.634  10.273 -0.7903  0.1708  0.0116
  257MOL0     C34627   7.887  11.589  10.326  0.6133  0.5639 -0.1286
  257MOL0     H34628   8.091  11.349  10.666 -0.0366  0.7145  2.0145
  257MOL0     H34629   8.310  11.295  10.826  1.7332  2.2225  3.3483
  257MOL0     H34630   8.518  11.215  10.913  2.2004  0.3681  1.5883
  257MOL0     H34631   8.549  11.158  10.743  0.4982 -0.5391  0.1061
  257MOL0     H34632   8.785  11.256  10.785  2.8642 -2.5075  1.7659
  257MOL0     H34633   8.729  11.256  10.953  3.1048 -2.0436  0.7111
  257MOL0     H34634   8.695  10.995  10.805 -1.1416  0.2698  0.8468
  257MOL0     H34635   8.859  11.041  10.846 -1.2971 -1.9241  1.0160
  257MOL0     H34636   8.842  11.052  11.071  2.2329 -2.4765 -2.2805
  257MOL0     H34637   8.661  11.038  11.063 -0.4595  1.5568 -0.8806
  257MOL0     H34638   8.828  10.852  11.139  2.2608 -1.3840 -1.4134
  257MOL0     H34639   8.659  10.829  11.087 -1.0313  0.5951 -2.1606
  257MOL0     H34640   8.774  10.752  10.871 -1.0129 -1.3234  1.3933
  257MOL0     H34641   8.934  10.802  10.932  1.2974 -1.8845  0.6613
  257MOL0     H34642   8.879  10.644  11.138  2.6836  0.4746 -1.4976
  257MOL0     H34643   8.750  10.578  11.039  0.6661 -3.3285  2.8378
  257MOL0     H34644   8.952  10.431  11.011 -1.5545 -2.2195 -3.7530
  257MOL0     H34645   9.048  10.570  10.972  0.8490 -1.6328  0.8776
  257MOL0     H34646   8.818  10.317  10.857  0.6727  0.0580 -0.0132
  257MOL0     H34647   8.728  10.243  10.563  1.2164  0.4607 -1.1700
  257MOL0     H34648   8.601  10.288  10.678 -3.0809 -0.7316 -3.0293
  257MOL0     H34649   8.542  10.478  10.525  1.5694 -0.6285  2.8994
  257MOL0     H34650   8.525  10.297  10.490  1.3788 -1.2530 -0.9333
  257MOL0     H34651   8.772  10.403  10.390 -0.3035 -2.4782 -0.8870
  257MOL0     H34652   8.646  10.520  10.354  0.5774 -0.5145  2.1042
  257MOL0     H34653   8.688  10.366  10.157 -0.8760  0.2195 -0.6270
  257MOL0     H34654   8.521  10.378  10.222 -0.5215 -0.4426  0.7242
  257MOL0     H34655   8.908  10.267  10.191 -0.8473  1.7132 -0.6839
  257MOL0     H34656   9.147  10.026  10.047  1.3725  1.4679 -0.0176
  257MOL0     H34657   9.120  10.189  10.094 -0.3899 -0.0464 -0.1330
  257MOL0     H34658   9.174  10.070  10.214 -0.7737 -0.0709  0.6151
  257MOL0     H34659   9.241   9.646  10.405 -1.0165  1.6394  0.0862
  257MOL0     H34660   9.383   9.459  10.358 -1.4657 -1.6195 -0.9385
  257MOL0     H34661   9.578   9.334  10.262  0.5123 -2.8922  1.6761
  257MOL0     H34662   9.432   9.228  10.251 -1.0294 -0.0252 -0.9952
  257MOL0     H34663   9.485   9.123  10.060 -0.5742 -3.1696  4.1642
  257MOL0     H34664   9.654   9.198  10.057  1.9573 -0.4944  1.2509
  257MOL0     H34665   9.692   8.997  10.119 -1.8623  0.8423 -3.1786
  257MOL0     H34666   9.538   8.988  10.206  0.7280 -0.6884 -1.9520
  257MOL0     H34667   9.811   9.092  10.304  0.2209 -4.5048  0.1156
  257MOL0     H34668   9.660   9.154  10.381 -0.9748 -0.5299  0.2386
  257MOL0     H34669   9.778   8.881  10.338  1.2980 -0.0005  0.5537
  257MOL0     H34670   9.608   8.900  10.400 -0.8359  1.2081  0.1028
  257MOL0     H34671   9.876   9.028  10.520  0.4799  2.2844  5.6082
  257MOL0     H34672   9.714   9.051  10.586 -2.3523 -2.2202  0.6703
  257MOL0     H34673   9.817   8.766  10.557  3.8075  0.6511  1.2207
  257MOL0     H34674   9.681   8.836  10.653  0.2596 -1.6729 -1.9895
  257MOL0     H34675   9.881   8.977  10.757  1.3108 -0.2559  1.4304
  257MOL0     H34676   9.981   8.833  10.712 -0.3279 -2.6651  2.6290
  257MOL0     H34677   9.346   9.523   9.939 -0.6002 -1.8399  0.8548
  257MOL0     H34678   9.221   9.720   9.973  2.2749  2.4199  1.3978
  257MOL0     H34679   8.748   9.796  10.176  3.0270 -1.8915 -1.2843
  257MOL0     H34680   8.595   9.974  10.244 -0.6809 -0.4278 -2.0092
  257MOL0     H34681   8.547  11.507  10.550  0.8088 -1.3285  2.3765
  257MOL0     H34682   8.357  11.568  10.424  0.8350  0.3323  0.4763
  257MOL0     H34683   7.960  11.343  10.102  2.7702  0.6285  2.2892
  257MOL0     H34684   7.754  11.429   9.996 -1.9625 -2.0811  1.1298
  257MOL0     H34685   7.555  11.482   9.952 -0.4710  0.3988 -2.1830
  257MOL0     H34686   7.439  11.616   9.954 -0.6976 -2.3330 -2.4346
  257MOL0     H34687   7.639  11.590   9.787 -0.0354  1.0677 -0.5805
  257MOL0     H34688   7.729  11.669   9.910  0.1110 -2.9626  2.0393
  257MOL0     H34689   7.496  11.803   9.777 -0.2215  4.3911  0.2828
  257MOL0     H34690   7.658  11.822   9.731  1.7701 -0.6975  0.4268
  257MOL0     H34691   7.636  12.009   9.870 -2.4864  0.9419  0.4060
  257MOL0     H34692   7.687  11.883   9.997  0.4735 -2.1358 -0.3818
  257MOL0     H34693   7.288  11.997  10.085  0.4251  0.1044  1.5266
  257MOL0     H34694   7.708  11.712  10.318 -0.3173 -1.6897  4.3510
  257MOL0     H34695   7.923  11.643  10.414 -2.0566  0.5476  1.0489
  258MOL0     O34696   3.134   6.946   1.550  0.2484  0.0666  1.4699
  258MOL0     C34697   3.066   6.867   1.619 -0.0715 -0.2309  0.5601
  258MOL0     O34698   2.996   6.761   1.559 -0.0025  0.1067  0.3382
  258MOL0     C34699   3.033   6.693   1.435  0.1329  0.7258 -0.5289
  258MOL0     C34700   2.970   6.568   1.431 -0.2445 -0.2462 -0.4705
  258MOL0     C34701   2.998   6.487   1.314 -0.4288  0.8767 -0.2761
  258MOL0     C34702   3.090   6.522   1.221  0.5515 -0.0060  0.7497
  258MOL0     O34703   3.118   6.434   1.121  0.2116  0.2018  0.1849
  258MOL0     C34704   3.009   6.383   1.043 -0.3477 -0.9035  0.3530
  258MOL0     C34705   3.061   6.371   0.897  1.3375 -1.4842  0.0237
  258MOL0     C34706   2.945   6.349   0.817  0.1643 -0.3438  0.9552
  258MOL0     C34707   2.975   6.352   0.661  0.5904 -0.1790 -0.4613
  258MOL0     C34708   2.912   6.235   0.576 -0.1616 -0.1193 -0.3530
  258MOL0     C34709   2.957   6.090   0.607 -0.2029  0.3126 -0.5049
  258MOL0     C34710   2.881   5.986   0.522  0.8146 -0.2411  0.1760
  258MOL0     C34711   2.972   5.871   0.484 -0.1460  0.2727  0.5544
  258MOL0     N34712   3.065   5.902   0.368  0.3050 -0.0097 -0.5168
  258MOL0     C34713   3.195   5.953   0.375  0.1634 -0.5792 -0.7993
  258MOL0     C34714   3.243   5.956   0.252  0.0054  1.5682  1.4419
  258MOL0     C34715   3.377   5.989   0.209  0.2857  0.0441 -0.8029
  258MOL0     C34716   3.487   5.892   0.266 -0.5399 -0.4052 -0.3490
  258MOL0     C34717   3.634   5.950   0.243 -0.2010 -0.6306  0.2405
  258MOL0     C34718   3.708   5.872   0.138 -0.0640  0.0705 -0.3444
  258MOL0     O34719   3.644   5.896   0.006  0.1557 -0.1491 -0.4005
  258MOL0     C34720   3.685   5.817  -0.106 -0.8237  0.6654 -0.4431
  258MOL0     C34721   3.801   5.732  -0.106  0.4527 -0.4957 -0.1318
  258MOL0     C34722   3.849   5.681  -0.221  0.9022 -0.6835 -0.4890
  258MOL0     C34723   3.981   5.607  -0.198 -0.0380  0.9530  0.1470
  258MOL0     C34724   3.779   5.691  -0.340  0.7947 -0.0284  0.2570
  258MOL0     C34725   3.797   5.607  -0.460 -0.4436 -0.3645 -0.9003
  258MOL0     O34726   3.794   5.666  -0.582 -0.3488  0.6827 -0.1506
  258MOL0     C34727   3.774   5.581  -0.695  0.1332  0.0604  0.0681
  258MOL0     C34728   3.666   5.598  -0.777 -0.1129  0.0325 -0.4451
  258MOL0     C34729   3.620   5.504  -0.866 -0.2716 -0.1902  0.5183
  258MOL0     C34730   3.697   5.394  -0.898 -0.4316 -0.4197  0.4616
  258MOL0     O34731   3.655   5.302  -1.001  0.1650 -0.2272  0.0355
  258MOL0     C34732   3.746   5.202  -1.029 -0.3385 -0.0370 -0.0495
  258MOL0     C34733   3.683   5.110  -1.141 -0.1549 -0.5997 -0.3118
  258MOL0     C34734   3.705   5.162  -1.289 -0.0104  0.1978 -0.2252
  258MOL0     C34735   3.594   5.100  -1.377  0.9390  0.5058  0.3201
  258MOL0     C34736   3.575   5.180  -1.511  0.0726  0.0973  0.7433
  258MOL0     C34737   3.700   5.147  -1.610  0.4228  0.0019  0.0400
  258MOL0     C34738   3.692   5.241  -1.735 -0.0775  0.9985  0.0365
  258MOL0     C34739   3.741   5.373  -1.701  0.0515 -0.1960 -1.1541
  258MOL0    Cl34740   3.716   5.464  -1.846  0.2069 -0.1361 -0.2509
  258MOL0     C34741   3.820   5.387  -0.833  0.0466 -0.0926  0.0858
  258MOL0     C34742   3.862   5.476  -0.736  0.1364 -0.0670 -0.4977
  258MOL0     O34743   3.813   5.486  -0.444 -1.0116 -0.0442  0.2583
  258MOL0     C34744   3.664   5.770  -0.347 -0.2823 -0.1121 -0.3672
  258MOL0     C34745   3.621   5.833  -0.233 -0.4612  0.5585  0.2249
  258MOL0     N34746   3.145   5.910   0.157  0.0893  0.3030 -0.3330
  258MOL0     N34747   3.040   5.878   0.235  0.3815 -0.8174  0.7236
  258MOL0     C34748   3.146   6.646   1.226  0.1486  0.2165 -0.3269
  258MOL0     C34749   3.111   6.732   1.333  1.1020 -0.2845  0.7552
  258MOL0     C34750   3.056   6.875   1.768  0.3224  0.7024  0.3841
  258MOL0     C34751   3.112   6.983   1.842 -0.2322 -0.2306 -0.2048
  258MOL0     C34752   3.099   6.987   1.982 -0.6297  0.0446  0.6923
  258MOL0     C34753   3.035   6.899   2.052  0.5112 -0.2417  0.3242
  258MOL0     O34754   3.027   6.906   2.187 -0.9740  0.0669 -0.2382
  258MOL0     C34755   3.140   6.882   2.259 -0.0649  0.6252  0.0108
  258MOL0     C34756   3.185   7.006   2.335 -0.0589 -0.2719 -0.1760
  258MOL0     C34757   3.083   7.091   2.411  0.0379 -0.0890 -0.7999
  258MOL0     C34758   3.024   7.019   2.534  0.6273 -0.3233  0.6922
  258MOL0     C34759   3.127   6.991   2.632  0.1467 -0.9138 -0.3059
  258MOL0     C34760   3.213   6.962   2.721  0.2126 -0.0598 -0.1351
  258MOL0     C34761   2.963   6.801   1.975  1.1145  0.3038 -0.8696
  258MOL0     C34762   2.986   6.783   1.838 -0.4215  0.3254 -0.3282
  258MOL0     H34763   2.897   6.528   1.500  0.7015 -1.2298 -0.0061
  258MOL0     H34764   2.957   6.387   1.309 -2.9778  1.8609 -0.5102
  258MOL0     H34765   2.994   6.280   1.077  0.5096 -1.5504 -1.1179
  258MOL0     H34766   2.926   6.454   1.040  2.0505  2.0682 -1.2130
  258MOL0     H34767   3.098   6.472   0.876 -0.9429 -1.1317 -2.9307
  258MOL0     H34768   3.142   6.299   0.880  0.5498 -2.0844 -1.3770
  258MOL0     H34769   2.910   6.249   0.844  0.4243 -1.9888 -3.8565
  258MOL0     H34770   2.862   6.419   0.831  1.8065  2.3080 -1.4572
  258MOL0     H34771   2.938   6.444   0.615 -0.8882 -0.0102  0.9720
  258MOL0     H34772   3.085   6.355   0.654  0.5371  0.7292 -0.9584
  258MOL0     H34773   2.803   6.247   0.583 -0.4379 -1.1760 -2.2918
  258MOL0     H34774   2.918   6.255   0.469 -2.6266  1.3176 -0.2951
  258MOL0     H34775   3.065   6.092   0.592  0.6234  5.3174  3.3011
  258MOL0     H34776   2.944   6.069   0.714 -2.0168 -1.0816 -0.9530
  258MOL0     H34777   2.789   5.950   0.568 -0.8574  0.1184 -2.6363
  258MOL0     H34778   2.857   6.029   0.425 -2.1496 -3.8290 -0.9426
  258MOL0     H34779   2.902   5.787   0.473 -2.2861  1.3371  4.2207
  258MOL0     H34780   3.035   5.851   0.571 -0.8685 -2.1931  0.5775
  258MOL0     H34781   3.245   5.969   0.470 -1.0190 -0.5443 -0.1583
  258MOL0     H34782   3.380   6.002   0.101 -2.0169  1.1965 -0.7843
  258MOL0     H34783   3.389   6.087   0.256 -2.3120 -0.7454  1.8641
  258MOL0     H34784   3.488   5.799   0.209  0.6896 -0.1889 -0.7095
  258MOL0     H34785   3.470   5.883   0.373 -1.0051  0.6455 -0.3229
  258MOL0     H34786   3.686   5.965   0.339 -0.5350  1.9381  0.0775
  258MOL0     H34787   3.630   6.054   0.209  4.2083 -0.6703 -1.0306
  258MOL0     H34788   3.700   5.764   0.152 -0.4785  0.1986  0.4964
  258MOL0     H34789   3.811   5.907   0.122 -1.0272  2.4921 -1.7280
  258MOL0     H34790   3.855   5.711  -0.015  0.0286  1.9321  0.7645
  258MOL0     H34791   4.048   5.602  -0.284 -1.7845 -0.8679 -1.2158
  258MOL0     H34792   4.033   5.636  -0.107 -1.1803 -1.6911  1.7798
  258MOL0     H34793   3.961   5.502  -0.174 -1.0650  0.3076 -3.0171
  258MOL0     H34794   3.599   5.681  -0.760 -2.1287 -1.4884 -0.6554
  258MOL0     H34795   3.526   5.519  -0.918 -0.2756 -1.2565  0.1958
  258MOL0     H34796   3.844   5.244  -1.055 -0.2496  0.8274  1.5506
  258MOL0     H34797   3.766   5.133  -0.947 -1.5752 -2.2651 -1.5181
  258MOL0     H34798   3.713   5.007  -1.124 -1.7275 -1.0413 -0.0849
  258MOL0     H34799   3.574   5.109  -1.133 -0.1389 -1.1845 -0.1859
  258MOL0     H34800   3.802   5.127  -1.327  0.6948 -2.1273  3.2688
  258MOL0     H34801   3.687   5.269  -1.291  1.9083  0.6191  1.7524
  258MOL0     H34802   3.622   4.996  -1.397 -0.9402 -0.0978  0.6141
  258MOL0     H34803   3.494   5.097  -1.331  2.3753  1.6400  3.8872
  258MOL0     H34804   3.557   5.285  -1.486 -0.8158 -0.2121  1.4740
  258MOL0     H34805   3.482   5.148  -1.558  0.8697  0.8602 -1.4668
  258MOL0     H34806   3.795   5.168  -1.560 -1.0434  1.8835  2.2334
  258MOL0     H34807   3.699   5.045  -1.650  1.7739  1.0009 -2.8567
  258MOL0     H34808   3.590   5.243  -1.773 -1.1756  2.8283  2.8164
  258MOL0     H34809   3.746   5.203  -1.823 -2.5903 -1.1330 -0.7278
  258MOL0     H34810   3.845   5.362  -1.670 -0.0915  2.6775  0.7292
  258MOL0     H34811   3.694   5.423  -1.616  0.3206 -1.1485 -0.4238
  258MOL0     H34812   3.900   5.318  -0.859  0.4073  0.6487 -0.8567
  258MOL0     H34813   3.951   5.475  -0.674 -0.9583  0.2842  1.1755
  258MOL0     H34814   3.613   5.784  -0.441  0.8891  1.6261 -0.8174
  258MOL0     H34815   3.536   5.900  -0.224 -0.1039  1.2406 -1.1523
  258MOL0     H34816   3.212   6.693   1.154 -0.3653  1.0915 -0.2334
  258MOL0     H34817   3.147   6.834   1.333 -3.1664  1.4682  2.8254
  258MOL0     H34818   3.154   7.071   1.795 -4.2546  0.7053 -2.5200
  258MOL0     H34819   3.144   7.071   2.035 -0.2520  0.0651  0.3454
  258MOL0     H34820   3.112   6.809   2.335  1.1355 -0.3921 -0.4958
  258MOL0     H34821   3.223   6.853   2.195  1.8732  5.5565 -0.1365
  258MOL0     H34822   3.233   7.063   2.255  2.4160  1.7903  2.5732
  258MOL0     H34823   3.269   6.984   2.401 -1.1035  0.7756  1.5670
  258MOL0     H34824   2.998   7.119   2.348 -1.8925  0.9156  2.0466
  258MOL0     H34825   3.135   7.176   2.456 -2.3901  0.6100  0.8967
  258MOL0     H34826   2.991   6.923   2.494  1.4824  0.2477 -1.5278
  258MOL0     H34827   2.942   7.074   2.580 -2.1741 -0.0984 -3.9408
  258MOL0     H34828   3.276   6.918   2.795 -1.7959 -2.3626  0.3659
  258MOL0     H34829   2.892   6.737   2.026  2.8357 -1.0762 -0.0938
  258MOL0     H34830   2.946   6.692   1.793  0.2631  1.1158 -2.6344
  259MOL0     O34831  10.122   0.543   1.178 -0.1792 -0.1930  0.7334
  259MOL0     C34832  10.142   0.539   1.300  0.6197  0.4366 -0.2030
  259MOL0     O34833  10.236   0.595   1.374  0.2396  0.0710  0.2592
  259MOL0     C34834  10.323   0.686   1.331  0.0700 -0.5963  0.0682
  259MOL0     C34835  10.358   0.710   1.196 -0.1446  0.4813 -0.5059
  259MOL0     C34836  10.449   0.806   1.172 -0.1845 -0.2663  1.0937
  259MOL0     C34837  10.514   0.876   1.273 -0.4252 -0.0022 -0.2623
  259MOL0     O34838  10.591   0.986   1.244 -0.2137 -0.3684  0.2914
  259MOL0     C34839  10.703   0.944   1.166 -0.4035  0.1362 -0.3667
  259MOL0     C34840  10.820   1.046   1.183  0.7059 -0.8879  0.2716
  259MOL0     C34841  10.937   1.004   1.101 -0.0560 -0.0835  0.5769
  259MOL0     C34842  11.044   1.101   1.126  1.2145 -0.5528  0.2585
  259MOL0     C34843  11.164   1.069   1.039 -0.5718 -0.0145  0.3424
  259MOL0     C34844  11.208   0.916   1.040 -0.3559 -0.3046 -0.7067
  259MOL0     C34845  11.344   0.879   0.989 -0.9939 -0.3870  0.0918
  259MOL0     C34846  11.390   0.942   0.860 -0.3686 -1.6953  0.0948
  259MOL0     N34847  11.447   1.084   0.884 -0.2438 -0.1956 -0.0454
  259MOL0     C34848  11.509   1.125   0.996 -0.8659 -0.1014  0.5986
  259MOL0     C34849  11.553   1.247   0.964  0.9397  0.1252 -0.1855
  259MOL0     C34850  11.626   1.331   1.064 -0.3089 -0.3093  0.0190
  259MOL0     C34851  11.660   1.473   1.012 -0.0738  0.2755  0.7767
  259MOL0     C34852  11.776   1.536   1.084  0.7575  0.9249  0.4290
  259MOL0     C34853  11.831   1.664   1.028 -0.3935 -0.5926 -0.3616
  259MOL0     O34854  11.752   1.788   1.050  0.4635  0.9393 -0.0222
  259MOL0     C34855  11.802   1.866   1.152  0.0504  0.3265  0.5281
  259MOL0     C34856  11.876   1.983   1.143 -0.1693  0.2712 -0.2705
  259MOL0     C34857  11.893   2.080   1.238  0.3472 -0.6512 -0.0252
  259MOL0     C34858  11.944   2.218   1.207  0.0833 -0.0503  0.0482
  259MOL0     C34859  11.834   2.048   1.360 -0.2428  0.4251 -0.5551
  259MOL0     C34860  11.829   2.147   1.471  0.1447  0.2068  0.5395
  259MOL0     O34861  11.713   2.167   1.535 -0.4935  0.0154 -0.0042
  259MOL0     C34862  11.711   2.266   1.633 -0.1005 -0.4985 -0.8435
  259MOL0     C34863  11.774   2.390   1.629 -0.3183  0.3424 -0.3500
  259MOL0     C34864  11.761   2.488   1.728  0.5857 -0.4727  0.1130
  259MOL0     C34865  11.668   2.452   1.822  0.6207 -1.1746 -1.0359
  259MOL0     O34866  11.633   2.553   1.903 -0.2452 -0.4241 -0.1722
  259MOL0     C34867  11.670   2.538   2.044  0.5705 -0.5507 -0.3614
  259MOL0     C34868  11.668   2.682   2.093 -0.0765  1.2598 -0.8931
  259MOL0     C34869  11.539   2.751   2.093  0.3664  0.1063  0.0152
  259MOL0     C34870  11.565   2.892   2.130 -0.1363  0.3662 -0.2532
  259MOL0     C34871  11.435   2.959   2.164  0.2816 -0.4700 -0.1962
  259MOL0     C34872  11.383   2.927   2.306  0.3108 -0.1751 -0.3897
  259MOL0     C34873  11.311   3.039   2.383 -0.1960  0.1859 -0.5363
  259MOL0     C34874  11.232   2.983   2.510  0.0270 -0.4458 -0.0744
  259MOL0    Cl34875  11.319   2.906   2.657  0.1274 -0.3062  0.0468
  259MOL0     C34876  11.617   2.327   1.846 -0.4571  0.2351  0.3353
  259MOL0     C34877  11.643   2.232   1.750  0.9862  0.2340  0.1695
  259MOL0     O34878  11.942   2.175   1.512  0.2046  0.0989 -0.2648
  259MOL0     C34879  11.775   1.919   1.384  0.0010  0.4899  0.0446
  259MOL0     C34880  11.762   1.821   1.280  0.0964 -0.8369  0.6258
  259MOL0     N34881  11.520   1.275   0.827  0.8930  0.3446 -0.1949
  259MOL0     N34882  11.450   1.173   0.792  0.5011 -0.0765 -0.0355
  259MOL0     C34883  10.477   0.848   1.405  0.8863  0.1652 -0.9210
  259MOL0     C34884  10.383   0.751   1.438 -0.0833  0.5266 -0.9555
  259MOL0     C34885  10.040   0.458   1.367  0.8740 -0.4570 -0.4985
  259MOL0     C34886  10.058   0.431   1.499 -0.3593 -1.0732 -0.2833
  259MOL0     C34887   9.959   0.379   1.577  0.1872  0.6256 -0.5602
  259MOL0     C34888   9.838   0.340   1.516  0.1222 -0.1657 -0.0087
  259MOL0     O34889   9.726   0.288   1.574  0.3555  0.2298  0.1414
  259MOL0     C34890   9.706   0.246   1.710  0.9621  0.0133 -0.7143
  259MOL0     C34891   9.766   0.108   1.749  0.3546  1.6284 -0.7585
  259MOL0     C34892   9.677   0.015   1.836 -0.3742 -0.0340 -0.6474
  259MOL0     C34893   9.745  -0.129   1.852 -0.2610 -0.3723  0.6541
  259MOL0     C34894   9.758  -0.206   1.729  0.0400 -0.2796 -0.0436
  259MOL0     C34895   9.797  -0.268   1.634  0.6102  1.0548  0.6736
  259MOL0     C34896   9.817   0.369   1.384 -0.0600  0.8178 -0.0216
  259MOL0     C34897   9.919   0.432   1.312  0.4817  0.0551  0.6161
  259MOL0     H34898  10.322   0.645   1.117 -0.7702  0.0015  0.1636
  259MOL0     H34899  10.460   0.836   1.068 -1.5760  1.8267  1.4805
  259MOL0     H34900  10.748   0.854   1.209  3.2983  2.5400  1.3522
  259MOL0     H34901  10.672   0.915   1.066  1.1306 -1.8634 -0.3353
  259MOL0     H34902  10.788   1.148   1.160 -1.4868 -1.4747  0.5503
  259MOL0     H34903  10.839   1.041   1.290  2.8256 -1.4175 -0.0893
  259MOL0     H34904  10.967   0.905   1.137 -0.5679  0.4496  2.6404
  259MOL0     H34905  10.912   1.004   0.995 -0.1434 -1.3070  0.5811
  259MOL0     H34906  11.025   1.208   1.110  0.1243 -0.9483 -1.3511
  259MOL0     H34907  11.073   1.079   1.229 -0.2958 -2.2756  0.3596
  259MOL0     H34908  11.160   1.101   0.935  0.7597  1.6560  0.7598
  259MOL0     H34909  11.248   1.118   1.089 -0.2529 -1.4590  1.2833
  259MOL0     H34910  11.216   0.885   1.145  1.1376 -0.0388 -0.7096
  259MOL0     H34911  11.136   0.856   0.985  1.2240 -2.5731 -0.4160
  259MOL0     H34912  11.407   0.896   1.077 -1.1458  0.0470  0.1191
  259MOL0     H34913  11.333   0.771   0.975 -1.0897 -0.6076  1.6900
  259MOL0     H34914  11.305   0.938   0.792  0.8872 -1.7920 -1.5236
  259MOL0     H34915  11.466   0.874   0.821  1.5361  0.1982  0.3156
  259MOL0     H34916  11.527   1.071   1.088  0.3938 -0.3927  0.2095
  259MOL0     H34917  11.566   1.324   1.156 -4.9988 -2.6996 -2.7819
  259MOL0     H34918  11.725   1.289   1.085  1.0375  3.3639  1.8063
  259MOL0     H34919  11.575   1.542   1.013 -0.1795  0.2403 -1.2573
  259MOL0     H34920  11.682   1.458   0.906  0.7509  0.0605  0.9749
  259MOL0     H34921  11.855   1.462   1.096  0.8017  1.3659  3.9692
  259MOL0     H34922  11.736   1.561   1.183 -0.7152 -0.5000  0.2405
  259MOL0     H34923  11.846   1.646   0.921  2.0224  1.1830 -0.4285
  259MOL0     H34924  11.928   1.688   1.074  0.8211 -0.6860 -2.6963
  259MOL0     H34925  11.910   2.013   1.044  0.6358  2.9270  0.7142
  259MOL0     H34926  12.001   2.270   1.284 -1.8980  1.7895  0.3664
  259MOL0     H34927  12.007   2.200   1.120 -1.1503 -0.3606 -0.8084
  259MOL0     H34928  11.862   2.282   1.174  1.2936  1.0848 -0.8260
  259MOL0     H34929  11.839   2.398   1.542  1.2448 -1.9403  0.5021
  259MOL0     H34930  11.811   2.584   1.716 -0.5803  0.2828  1.0043
  259MOL0     H34931  11.590   2.476   2.086 -0.9803  1.7038  0.2193
  259MOL0     H34932  11.768   2.490   2.052  2.3441  2.9514  0.6974
  259MOL0     H34933  11.714   2.672   2.192  1.6287 -3.7183 -1.8854
  259MOL0     H34934  11.738   2.741   2.034  2.6209 -0.6350  0.1976
  259MOL0     H34935  11.478   2.699   2.167 -0.8324  1.2532 -0.1315
  259MOL0     H34936  11.489   2.759   1.996 -1.0155 -1.1068  0.5890
  259MOL0     H34937  11.643   2.910   2.205 -1.0269  3.4716  0.0711
  259MOL0     H34938  11.602   2.954   2.047  0.9852 -0.5661 -0.4685
  259MOL0     H34939  11.356   2.939   2.090  0.5106  1.2110 -0.9418
  259MOL0     H34940  11.449   3.067   2.169  1.2276 -0.6430  2.2767
  259MOL0     H34941  11.315   2.842   2.299 -3.0089  2.3200 -1.0489
  259MOL0     H34942  11.475   2.907   2.362  0.7875  1.5358 -0.4993
  259MOL0     H34943  11.245   3.096   2.316  1.1529  1.6849 -0.6716
  259MOL0     H34944  11.389   3.109   2.414  0.1937 -0.8296  0.8247
  259MOL0     H34945  11.165   2.907   2.469  0.1631 -1.4347  1.4119
  259MOL0     H34946  11.172   3.066   2.548  0.3851 -0.1122 -0.2349
  259MOL0     H34947  11.546   2.299   1.924  1.5674 -0.0411  2.1785
  259MOL0     H34948  11.598   2.134   1.746 -1.2047  1.1906 -3.6874
  259MOL0     H34949  11.733   1.901   1.483  1.4619 -3.1729  0.1732
  259MOL0     H34950  11.700   1.734   1.298 -1.0165 -0.3830 -0.7416
  259MOL0     H34951  10.516   0.910   1.485 -3.3651  0.4534  1.1630
  259MOL0     H34952  10.352   0.726   1.539 -1.2228  2.4525 -0.8004
  259MOL0     H34953  10.155   0.444   1.545 -0.1673 -1.2314 -0.6446
  259MOL0     H34954   9.969   0.369   1.684 -2.7688 -1.2655 -0.3392
  259MOL0     H34955   9.743   0.316   1.785  2.0082 -0.4615 -0.7743
  259MOL0     H34956   9.597   0.253   1.712  0.7956 -1.9022 -1.2882
  259MOL0     H34957   9.859   0.120   1.805  0.2411 -0.4787 -0.0289
  259MOL0     H34958   9.805   0.061   1.658  1.4887  1.3041 -0.1345
  259MOL0     H34959   9.586  -0.003   1.777  0.7619  0.1759 -2.5762
  259MOL0     H34960   9.661   0.065   1.932 -0.3744  0.6898 -1.0101
  259MOL0     H34961   9.691  -0.202   1.913 -0.5586 -1.3395 -0.7056
  259MOL0     H34962   9.842  -0.113   1.900  0.5478 -2.4638 -0.1430
  259MOL0     H34963   9.846  -0.331   1.562  1.9302  3.3147 -0.5260
  259MOL0     H34964   9.717   0.354   1.344  0.2672 -2.9514  0.2975
  259MOL0     H34965   9.898   0.460   1.210 -0.4069 -1.2760  0.4151
  260MOL0     O34966   3.468   8.365   5.209  0.1703 -0.2857 -0.1099
  260MOL0     C34967   3.561   8.348   5.132 -0.5007  0.5212  0.5938
  260MOL0     O34968   3.698   8.346   5.156 -0.3946  0.2094 -0.1442
  260MOL0     C34969   3.717   8.342   5.288 -0.1819 -0.0680 -0.2935
  260MOL0     C34970   3.799   8.437   5.348  0.4478 -0.2000  0.0695
  260MOL0     C34971   3.830   8.433   5.474  1.0164 -0.8469 -0.5286
  260MOL0     C34972   3.781   8.327   5.557  0.4856 -0.7815  1.8772
  260MOL0     O34973   3.821   8.322   5.690 -0.2785  0.5373 -0.7530
  260MOL0     C34974   3.757   8.226   5.776  1.0924  0.6589  0.1612
  260MOL0     C34975   3.805   8.235   5.921 -0.7409  0.1660  0.6900
  260MOL0     C34976   3.718   8.200   6.041 -1.3905  0.3172 -0.0573
  260MOL0     C34977   3.804   8.182   6.164 -0.1985  0.3561 -0.5289
  260MOL0     C34978   3.744   8.238   6.291 -0.3039  0.2443  0.7984
  260MOL0     C34979   3.670   8.128   6.368  0.5958  0.7286 -0.2322
  260MOL0     C34980   3.552   8.040   6.318  0.1007  0.4937  0.0356
  260MOL0     C34981   3.450   8.125   6.255 -0.2206 -0.4882  0.3568
  260MOL0     N34982   3.391   8.217   6.357 -0.0797 -0.2128 -0.0545
  260MOL0     C34983   3.287   8.178   6.444 -0.3064  0.2856 -0.5665
  260MOL0     C34984   3.262   8.285   6.526 -0.2063  0.5134 -0.2440
  260MOL0     C34985   3.156   8.291   6.642  0.3566 -0.2661 -0.3609
  260MOL0     C34986   3.014   8.268   6.596 -0.2339  0.2886 -0.0721
  260MOL0     C34987   2.983   8.365   6.478  0.1880  0.0807  0.4349
  260MOL0     C34988   2.970   8.298   6.344  0.6680 -0.5923  0.0126
  260MOL0     O34989   2.892   8.387   6.263  0.3069  0.3786  0.4220
  260MOL0     C34990   2.949   8.474   6.173 -0.5127  0.4274  1.1003
  260MOL0     C34991   3.081   8.508   6.167  0.1413  0.5923 -0.5147
  260MOL0     C34992   3.140   8.594   6.070  0.2004  0.4549 -1.4384
  260MOL0     C34993   3.293   8.615   6.086  0.2560  0.5267 -0.0182
  260MOL0     C34994   3.059   8.644   5.963  0.2591 -0.3772 -0.4449
  260MOL0     C34995   3.112   8.726   5.851  0.3578  0.6193  0.4802
  260MOL0     O34996   3.006   8.798   5.794  0.8597 -0.3318  0.7155
  260MOL0     C34997   3.023   8.895   5.693 -0.3069  1.0506 -0.0379
  260MOL0     C34998   2.968   8.875   5.571 -0.1354 -0.1307  0.5867
  260MOL0     C34999   2.975   8.967   5.457 -0.7752 -1.0089 -0.1307
  260MOL0     C35000   3.046   9.084   5.480  0.4924  0.1766  0.3787
  260MOL0     O35001   3.056   9.187   5.384  0.1762 -0.0753 -0.2210
  260MOL0     C35002   3.091   9.150   5.247  0.1209 -0.5960  0.5795
  260MOL0     C35003   3.041   9.275   5.167  0.4066  0.1579  0.6062
  260MOL0     C35004   2.888   9.259   5.145 -1.2637  0.1559 -0.7949
  260MOL0     C35005   2.809   9.349   5.058  0.1839 -0.2292  0.2849
  260MOL0     C35006   2.656   9.326   5.045 -0.1775 -0.4237  0.2937
  260MOL0     C35007   2.634   9.222   4.939 -0.2927 -0.6678  0.7554
  260MOL0     C35008   2.490   9.222   4.903 -0.2315 -0.0665  0.1451
  260MOL0     C35009   2.448   9.087   4.860  0.5174 -1.0760  0.0985
  260MOL0    Cl35010   2.291   9.095   4.759 -0.2665 -0.0029  0.1101
  260MOL0     C35011   3.099   9.109   5.608 -1.0358 -0.5496  0.0310
  260MOL0     C35012   3.084   9.012   5.714  0.3318 -0.4274 -0.1227
  260MOL0     O35013   3.230   8.720   5.815  0.0044  0.2986  0.9633
  260MOL0     C35014   2.920   8.619   5.977 -0.3379  0.1767  0.5311
  260MOL0     C35015   2.866   8.532   6.074 -0.0627  0.1121 -0.2780
  260MOL0     N35016   3.346   8.388   6.477  0.4014 -0.6797 -0.2526
  260MOL0     N35017   3.434   8.342   6.393  0.1622 -0.1469  0.3975
  260MOL0     C35018   3.694   8.229   5.502  0.2266 -0.1501  0.8260
  260MOL0     C35019   3.666   8.236   5.362  0.2655 -0.1516 -0.1705
  260MOL0     C35020   3.519   8.307   4.995  0.4681  0.1571 -0.1582
  260MOL0     C35021   3.563   8.369   4.874  0.9334  0.7818  0.0390
  260MOL0     C35022   3.518   8.313   4.751 -0.3909  1.0692 -0.4099
  260MOL0     C35023   3.432   8.201   4.750 -0.9426  1.0951 -0.5206
  260MOL0     O35024   3.398   8.139   4.635 -0.3325 -0.1359 -0.1607
  260MOL0     C35025   3.424   8.196   4.505  0.1300  0.0294  0.1787
  260MOL0     C35026   3.337   8.317   4.473 -0.1893 -1.1263  0.4521
  260MOL0     C35027   3.329   8.342   4.320  0.3467 -0.3082 -0.1452
  260MOL0     C35028   3.460   8.383   4.252 -0.9763  0.0568  0.0756
  260MOL0     C35029   3.526   8.263   4.213 -0.0095 -0.7646  0.3673
  260MOL0     C35030   3.557   8.147   4.175  0.0448 -0.5715 -1.0096
  260MOL0     C35031   3.399   8.143   4.873  1.0141 -0.1546 -1.2675
  260MOL0     C35032   3.440   8.196   4.992 -0.6419 -0.0691  0.1268
  260MOL0     H35033   3.816   8.521   5.281 -2.4094  0.4274  0.0069
  260MOL0     H35034   3.901   8.506   5.512 -1.2851  1.4273 -0.2692
  260MOL0     H35035   3.649   8.244   5.786  1.3172  1.5580  1.2879
  260MOL0     H35036   3.764   8.124   5.740 -1.0276  0.4902  0.0914
  260MOL0     H35037   3.898   8.178   5.920 -0.3015  0.8780 -0.6379
  260MOL0     H35038   3.847   8.335   5.939 -1.3282  0.4287  0.6101
  260MOL0     H35039   3.642   8.278   6.047  1.7725  3.8273 -1.8389
  260MOL0     H35040   3.654   8.112   6.030  0.9075 -1.3099 -1.5626
  260MOL0     H35041   3.821   8.076   6.184 -3.5780  0.2173  2.6812
  260MOL0     H35042   3.901   8.233   6.158 -0.8150  1.6983  0.3150
  260MOL0     H35043   3.815   8.286   6.360 -0.4874  2.2430 -0.3167
  260MOL0     H35044   3.682   8.327   6.277  1.7629  1.9807  2.0542
  260MOL0     H35045   3.737   8.054   6.414 -0.3884 -1.7446 -2.4849
  260MOL0     H35046   3.631   8.188   6.450  1.7054 -1.5065  2.0734
  260MOL0     H35047   3.593   7.964   6.251  1.5575  1.6125 -0.4025
  260MOL0     H35048   3.491   7.991   6.393  2.1972 -1.6102  0.5013
  260MOL0     H35049   3.369   8.064   6.216  0.9588 -0.1923 -2.8728
  260MOL0     H35050   3.485   8.181   6.168  0.9938 -1.4278  0.2146
  260MOL0     H35051   3.239   8.082   6.460 -0.9065  0.8199  1.0300
  260MOL0     H35052   3.165   8.224   6.728 -3.2582  0.6168  0.8619
  260MOL0     H35053   3.167   8.394   6.678  0.3036 -0.3472 -0.1141
  260MOL0     H35054   2.949   8.312   6.672 -1.2003  3.2003 -2.3596
  260MOL0     H35055   2.988   8.164   6.578  0.7294  0.5911 -4.4040
  260MOL0     H35056   3.055   8.447   6.464 -0.1362  0.4762  1.0380
  260MOL0     H35057   2.892   8.422   6.498  0.4360  2.8235 -4.6067
  260MOL0     H35058   2.914   8.204   6.353  4.5084 -3.2037 -1.0970
  260MOL0     H35059   3.065   8.265   6.301 -0.7802 -2.2121 -2.1435
  260MOL0     H35060   3.148   8.461   6.239  2.7315  1.2327 -2.3538
  260MOL0     H35061   3.321   8.721   6.093 -0.4945  0.7120  0.3506
  260MOL0     H35062   3.348   8.560   6.163  2.4487 -0.1944 -1.9988
  260MOL0     H35063   3.336   8.571   5.996 -1.0160 -0.5696 -0.1126
  260MOL0     H35064   2.913   8.782   5.565 -1.2580  0.4796  1.0162
  260MOL0     H35065   2.934   8.951   5.358 -1.6990 -0.7073  0.1919
  260MOL0     H35066   3.200   9.148   5.244  0.2530 -1.3684  3.2572
  260MOL0     H35067   3.042   9.064   5.200  2.8751 -2.2477  0.5221
  260MOL0     H35068   3.062   9.366   5.223 -0.2107 -0.2302  1.5049
  260MOL0     H35069   3.084   9.285   5.067 -0.8445 -0.1042  0.0142
  260MOL0     H35070   2.854   9.256   5.249  1.5294 -0.3335  0.1958
  260MOL0     H35071   2.866   9.161   5.103 -4.3648  0.1869  0.5025
  260MOL0     H35072   2.814   9.440   5.119  2.0055  0.1917 -0.4101
  260MOL0     H35073   2.856   9.368   4.961 -0.6835 -2.1491 -0.5773
  260MOL0     H35074   2.608   9.416   5.004  0.3854 -0.2468  0.0148
  260MOL0     H35075   2.602   9.316   5.139 -0.1779  2.6983  0.7369
  260MOL0     H35076   2.693   9.246   4.851 -1.0630  1.0004  0.6691
  260MOL0     H35077   2.673   9.124   4.969 -0.1618 -0.9635 -0.3355
  260MOL0     H35078   2.478   9.299   4.826  0.3421  0.4267  0.5436
  260MOL0     H35079   2.425   9.257   4.984  0.4222 -1.5092  1.3338
  260MOL0     H35080   2.444   9.024   4.949  0.4605 -0.2062  0.7317
  260MOL0     H35081   2.528   9.044   4.799 -1.3428 -1.5766 -2.1282
  260MOL0     H35082   3.160   9.197   5.624 -0.8099 -0.0157 -3.1927
  260MOL0     H35083   3.133   9.019   5.811  3.0612 -0.2359 -1.4049
  260MOL0     H35084   2.851   8.658   5.902  1.9258 -0.5811 -2.1302
  260MOL0     H35085   2.760   8.524   6.092  0.4602 -0.0050  3.5204
  260MOL0     H35086   3.640   8.161   5.567  0.5680 -1.2674 -0.0221
  260MOL0     H35087   3.608   8.153   5.324 -0.7200 -0.7582  2.5005
  260MOL0     H35088   3.629   8.456   4.872  0.7037  0.9642 -1.9616
  260MOL0     H35089   3.559   8.366   4.665  3.0691  2.0987  1.6867
  260MOL0     H35090   3.531   8.215   4.490 -0.3873  1.3844 -2.2684
  260MOL0     H35091   3.392   8.112   4.443 -2.1406  0.9279  0.0680
  260MOL0     H35092   3.396   8.397   4.518  1.6619 -2.2855  0.1951
  260MOL0     H35093   3.236   8.323   4.515 -0.4103  1.1436 -0.2660
  260MOL0     H35094   3.259   8.426   4.307  0.6618  0.2134  1.3732
  260MOL0     H35095   3.287   8.250   4.278  0.9762 -0.1843 -1.0517
  260MOL0     H35096   3.525   8.417   4.333 -2.1915 -0.3561  1.2651
  260MOL0     H35097   3.448   8.458   4.174  1.6528 -0.4042 -0.8894
  260MOL0     H35098   3.590   8.050   4.143 -1.3887 -1.5676  0.3626
  260MOL0     H35099   3.331   8.059   4.880 -0.6253  1.2238  0.0311
  260MOL0     H35100   3.409   8.139   5.080  2.1462 -0.6441  0.8425
  261MOL0     O35101   0.461   3.440   6.750  0.4604  0.0838  0.7055
  261MOL0     C35102   0.454   3.319   6.736 -0.2228  0.1993  0.7319
  261MOL0     O35103   0.363   3.251   6.665 -0.0406 -0.5828 -0.9189
  261MOL0     C35104   0.262   3.317   6.599 -0.3608  0.2070 -0.7605
  261MOL0     C35105   0.255   3.303   6.458 -0.1294  0.6618 -0.0383
  261MOL0     C35106   0.164   3.380   6.388 -0.4081 -0.3380 -0.0125
  261MOL0     C35107   0.076   3.468   6.454  0.0990  0.5164  0.4987
  261MOL0     O35108  -0.040   3.516   6.398  0.1594  0.4005 -0.1987
  261MOL0     C35109  -0.067   3.471   6.264  0.0847  0.3434  0.1002
  261MOL0     C35110  -0.220   3.491   6.233 -0.1729 -0.0555  0.2687
  261MOL0     C35111  -0.274   3.509   6.080 -0.9658  0.2070  0.0603
  261MOL0     C35112  -0.181   3.448   5.981  0.2182  0.1140 -0.0241
  261MOL0     C35113  -0.231   3.449   5.836  0.1851  0.9196  0.4976
  261MOL0     C35114  -0.146   3.363   5.751 -0.5087 -1.8201 -0.7651
  261MOL0     C35115  -0.187   3.354   5.604  0.4233 -0.4806 -0.6314
  261MOL0     C35116  -0.163   3.487   5.523 -0.0059 -1.6370  0.7842
  261MOL0     N35117  -0.254   3.505   5.404  0.4218  0.5103  1.0354
  261MOL0     C35118  -0.390   3.539   5.398  0.7187 -0.4183 -0.5048
  261MOL0     C35119  -0.426   3.533   5.268 -1.5999 -0.4338  1.1933
  261MOL0     C35120  -0.544   3.582   5.200  1.2152 -0.5163 -0.1282
  261MOL0     C35121  -0.666   3.592   5.296 -0.5765 -0.4225 -0.4220
  261MOL0     C35122  -0.708   3.461   5.355  0.1025 -0.2615  0.0404
  261MOL0     C35123  -0.836   3.464   5.430  0.1855 -0.0151  0.2171
  261MOL0     O35124  -0.899   3.330   5.421 -1.4167 -0.4430  0.6404
  261MOL0     C35125  -1.017   3.327   5.480  0.0594  0.3842  0.0634
  261MOL0     C35126  -1.130   3.309   5.399 -0.1348 -0.3907 -0.5010
  261MOL0     C35127  -1.260   3.300   5.462  0.3325  0.3283 -0.1260
  261MOL0     C35128  -1.390   3.298   5.377  1.2144  0.8242  0.4055
  261MOL0     C35129  -1.265   3.282   5.603  0.6762 -0.2417 -0.5026
  261MOL0     C35130  -1.395   3.252   5.676  1.0744 -0.4386  0.9020
  261MOL0     O35131  -1.501   3.184   5.611 -0.1045  0.3187  0.9496
  261MOL0     C35132  -1.600   3.148   5.694  0.2421 -0.3780  0.3013
  261MOL0     C35133  -1.731   3.195   5.693 -0.0039 -0.6337  0.1282
  261MOL0     C35134  -1.838   3.134   5.762  0.1828 -0.7554 -0.1749
  261MOL0     C35135  -1.812   3.040   5.863 -0.4410 -0.5930 -0.0824
  261MOL0     O35136  -1.917   3.007   5.938  1.1255 -0.0669 -0.5012
  261MOL0     C35137  -1.883   2.909   6.039 -0.3803  0.5147  0.1746
  261MOL0     C35138  -1.969   2.899   6.163  1.2416 -0.6401 -0.5304
  261MOL0     C35139  -1.999   3.037   6.236  0.1625 -0.1130  0.4285
  261MOL0     C35140  -1.874   3.133   6.240 -0.6705 -0.9893  0.2213
  261MOL0     C35141  -1.873   3.220   6.368  0.3542 -0.0638 -0.6278
  261MOL0     C35142  -2.006   3.280   6.396  0.6677  0.3966 -0.3536
  261MOL0     C35143  -1.993   3.354   6.534  0.6151  0.0776  0.0974
  261MOL0     C35144  -2.121   3.427   6.565 -0.1504 -0.7673 -0.7389
  261MOL0    Cl35145  -2.211   3.326   6.681  0.0494 -0.4626 -0.1886
  261MOL0     C35146  -1.673   3.001   5.873  0.0646 -0.3077 -1.1100
  261MOL0     C35147  -1.575   3.050   5.783  0.1825 -0.2133  0.0171
  261MOL0     O35148  -1.395   3.303   5.786 -0.0373  0.3907 -0.2730
  261MOL0     C35149  -1.150   3.297   5.682 -0.7643  0.7634  0.4631
  261MOL0     C35150  -1.031   3.329   5.615  0.2726 -0.5623  0.0553
  261MOL0     N35151  -0.312   3.480   5.195  0.1360 -1.0515  0.2752
  261MOL0     N35152  -0.215   3.468   5.273  0.6960 -0.4855 -0.0577
  261MOL0     C35153   0.090   3.480   6.589  0.1651 -0.2553 -0.3029
  261MOL0     C35154   0.175   3.404   6.662  0.7206  0.0334  0.5625
  261MOL0     C35155   0.557   3.235   6.803 -0.9801  0.7474  1.5310
  261MOL0     C35156   0.592   3.105   6.757  0.7968  0.2382  0.1993
  261MOL0     C35157   0.673   3.020   6.828  0.6203  0.3767  0.4731
  261MOL0     C35158   0.709   3.054   6.957 -0.2209 -1.1730 -0.3506
  261MOL0     O35159   0.795   2.986   7.033 -0.4347  0.1069 -0.5251
  261MOL0     C35160   0.765   2.848   7.054 -0.0112 -0.1313 -0.2315
  261MOL0     C35161   0.883   2.784   7.136  0.3801  0.0937  0.0941
  261MOL0     C35162   0.888   2.860   7.261 -0.8542 -0.0379  0.1767
  261MOL0     C35163   0.940   2.780   7.381  0.6800 -0.0710 -0.1236
  261MOL0     C35164   0.843   2.679   7.431 -0.1941  0.2433  0.3191
  261MOL0     C35165   0.772   2.582   7.456  0.7216 -0.5169  1.1701
  261MOL0     C35166   0.690   3.183   7.000  0.2355  0.1651  1.3788
  261MOL0     C35167   0.602   3.266   6.929 -0.5365 -0.3706  0.7258
  261MOL0     H35168   0.332   3.236   6.420  2.4739  4.0175 -1.2496
  261MOL0     H35169   0.170   3.363   6.281  3.5540 -1.1777  0.1670
  261MOL0     H35170   0.000   3.516   6.190  0.1585 -0.2104 -0.1821
  261MOL0     H35171  -0.061   3.361   6.263 -1.8541 -0.4413  7.8015
  261MOL0     H35172  -0.279   3.411   6.280 -0.6395 -0.4563 -0.9757
  261MOL0     H35173  -0.254   3.577   6.291  2.1268 -0.7432  2.8615
  261MOL0     H35174  -0.366   3.452   6.064 -0.1335 -0.7207 -1.6340
  261MOL0     H35175  -0.290   3.616   6.061 -1.2629  0.5846  2.1575
  261MOL0     H35176  -0.088   3.506   5.980 -1.1074  2.3574  0.6964
  261MOL0     H35177  -0.165   3.346   6.017 -0.1090  0.4967  1.2517
  261MOL0     H35178  -0.329   3.402   5.847  1.7306 -2.4672  1.1642
  261MOL0     H35179  -0.253   3.548   5.796 -0.2265 -0.4243 -2.9801
  261MOL0     H35180  -0.040   3.391   5.757 -0.6259 -1.6038  2.7012
  261MOL0     H35181  -0.164   3.262   5.791 -4.1060 -1.4763 -1.2451
  261MOL0     H35182  -0.117   3.283   5.559  3.7788  0.8301  2.0345
  261MOL0     H35183  -0.288   3.316   5.589  0.9400 -1.0810 -2.9926
  261MOL0     H35184  -0.058   3.475   5.498  1.0852  1.8778  2.9698
  261MOL0     H35185  -0.181   3.573   5.588 -0.5032 -1.5553  0.5465
  261MOL0     H35186  -0.463   3.575   5.469 -1.7346 -2.8882 -1.5798
  261MOL0     H35187  -0.535   3.680   5.151 -2.0003  0.6074  1.2864
  261MOL0     H35188  -0.553   3.502   5.126  1.1469 -1.9532  1.3691
  261MOL0     H35189  -0.746   3.642   5.239  2.2770  2.9268 -1.8817
  261MOL0     H35190  -0.642   3.659   5.379  2.0872 -1.8361  0.0439
  261MOL0     H35191  -0.650   3.414   5.435 -2.8714 -0.5679  2.1644
  261MOL0     H35192  -0.719   3.398   5.266 -4.1281  1.4956 -0.9368
  261MOL0     H35193  -0.912   3.530   5.386 -0.9893 -1.6227 -0.2418
  261MOL0     H35194  -0.822   3.511   5.527 -0.6181 -2.4034  1.5627
  261MOL0     H35195  -1.121   3.322   5.292  0.0079  2.7321 -0.2154
  261MOL0     H35196  -1.380   3.333   5.273 -0.6964  0.4338  0.0613
  261MOL0     H35197  -1.414   3.192   5.381 -0.3502  1.1060 -0.6442
  261MOL0     H35198  -1.461   3.361   5.430 -0.6038 -1.0344  0.2785
  261MOL0     H35199  -1.739   3.282   5.628  2.3072  0.4245  1.1672
  261MOL0     H35200  -1.944   3.154   5.750 -0.7003 -4.1126  0.9216
  261MOL0     H35201  -1.880   2.804   6.009 -3.7298  0.5288 -0.5479
  261MOL0     H35202  -1.779   2.922   6.073  0.8256 -2.7277 -1.8430
  261MOL0     H35203  -2.062   2.847   6.138  2.9513 -3.4486 -1.5149
  261MOL0     H35204  -1.920   2.825   6.227  0.1242 -0.7755  0.1927
  261MOL0     H35205  -2.031   3.026   6.340 -1.1861 -0.0545  0.0371
  261MOL0     H35206  -2.083   3.085   6.185  1.6324  2.6949  0.4621
  261MOL0     H35207  -1.787   3.068   6.257  1.2708  1.9323  2.6101
  261MOL0     H35208  -1.870   3.195   6.150  2.2678  0.1399  1.0119
  261MOL0     H35209  -1.793   3.292   6.385  0.0274 -0.1066  1.3865
  261MOL0     H35210  -1.852   3.152   6.452  0.4384 -0.7663 -1.2089
  261MOL0     H35211  -2.024   3.352   6.315  0.8180 -1.2012 -1.8451
  261MOL0     H35212  -2.094   3.215   6.406  3.2257 -3.4127 -0.7304
  261MOL0     H35213  -1.912   3.426   6.518  0.5545  0.0639 -0.2737
  261MOL0     H35214  -1.964   3.282   6.611 -2.8610  0.9182  2.3968
  261MOL0     H35215  -2.181   3.442   6.475  0.8448 -0.1945 -1.3196
  261MOL0     H35216  -2.096   3.520   6.617 -1.4062 -0.5734 -0.4564
  261MOL0     H35217  -1.639   2.932   5.949  0.7876 -2.2011 -3.0478
  261MOL0     H35218  -1.476   3.010   5.804 -0.3332 -1.1744  0.6939
  261MOL0     H35219  -1.153   3.281   5.790 -5.3222 -0.5109  0.3685
  261MOL0     H35220  -0.941   3.354   5.670  1.5368 -3.2932 -0.5991
  261MOL0     H35221   0.011   3.530   6.643 -0.0381 -1.1388  0.2388
  261MOL0     H35222   0.169   3.412   6.770  0.6884  2.6068  0.4420
  261MOL0     H35223   0.568   3.081   6.654  0.1238  1.4246  0.0568
  261MOL0     H35224   0.697   2.928   6.776  1.4006  0.6361  0.3706
  261MOL0     H35225   0.672   2.838   7.111  0.3030  0.5394  0.4218
  261MOL0     H35226   0.767   2.796   6.958 -0.5099  1.7171 -1.2895
  261MOL0     H35227   0.976   2.803   7.082 -0.2938  1.3725 -0.6636
  261MOL0     H35228   0.868   2.678   7.159  2.7751  0.3317  3.5866
  261MOL0     H35229   0.793   2.903   7.294 -0.1767  0.7170  1.2196
  261MOL0     H35230   0.966   2.936   7.251 -2.0370  0.8769 -5.9069
  261MOL0     H35231   0.957   2.850   7.463 -3.4140 -0.3685  1.2472
  261MOL0     H35232   1.031   2.728   7.352  1.3095  1.5779 -1.2266
  261MOL0     H35233   0.694   2.510   7.470 -2.0679  2.3020  1.2155
  261MOL0     H35234   0.729   3.214   7.096  4.1026 -0.4708  0.1926
  261MOL0     H35235   0.573   3.361   6.973 -0.4927 -0.4038  0.8275
  262MOL0     O35236   9.050   8.341   9.101  0.1507 -0.4119 -0.2967
  262MOL0     C35237   9.137   8.341   9.014  0.5645 -0.8917 -1.3048
  262MOL0     O35238   9.217   8.228   8.981  0.0134 -0.0904 -0.0186
  262MOL0     C35239   9.187   8.105   9.036 -0.9773  0.4713 -0.7561
  262MOL0     C35240   9.294   8.021   9.020 -0.0131  1.1705 -0.2436
  262MOL0     C35241   9.290   7.881   9.059  0.0736 -0.0830  0.0686
  262MOL0     C35242   9.175   7.836   9.129  0.1759  0.0396  0.5823
  262MOL0     O35243   9.167   7.703   9.164  0.0074 -1.1057  0.6821
  262MOL0     C35244   9.048   7.636   9.161 -0.6731 -0.3726 -0.2456
  262MOL0     C35245   9.070   7.482   9.161  0.5532 -0.5377 -0.8185
  262MOL0     C35246   8.945   7.409   9.201  0.5390  1.4304  0.4133
  262MOL0     C35247   8.968   7.253   9.200  0.2610  0.2890 -0.5685
  262MOL0     C35248   8.831   7.171   9.189 -0.2584 -1.2203  0.0058
  262MOL0     C35249   8.827   7.047   9.277  0.6394  1.5783 -1.2178
  262MOL0     C35250   8.950   6.956   9.233 -0.1945  0.1323 -0.1204
  262MOL0     C35251   8.961   6.822   9.310  0.2750 -0.5229  0.3666
  262MOL0     N35252   8.969   6.835   9.450 -0.2990 -0.5448  0.3539
  262MOL0     C35253   9.074   6.853   9.527 -0.6135 -0.3197  0.2675
  262MOL0     C35254   9.037   6.825   9.655 -0.8313 -0.3413  1.1060
  262MOL0     C35255   9.129   6.808   9.769  0.0174  0.9642  0.9311
  262MOL0     C35256   9.210   6.669   9.739  0.4229  0.6514 -0.4966
  262MOL0     C35257   9.249   6.634   9.880  0.0843  0.0758  0.0781
  262MOL0     C35258   9.331   6.507   9.876  0.1016 -0.4363  0.3790
  262MOL0     O35259   9.379   6.472  10.010 -0.2579  0.6301 -0.4742
  262MOL0     C35260   9.481   6.372  10.025  0.0522 -0.6209 -0.9598
  262MOL0     C35261   9.499   6.277   9.931 -0.9851 -0.5203 -0.7264
  262MOL0     C35262   9.601   6.179   9.938 -0.5061  0.1379 -0.1336
  262MOL0     C35263   9.605   6.081   9.827  0.8495 -0.4240 -0.7338
  262MOL0     C35264   9.687   6.173  10.049  0.8727 -0.9085  0.2713
  262MOL0     C35265   9.773   6.059  10.067  0.1428 -0.9925  0.3878
  262MOL0     O35266   9.724   5.957  10.149  0.0604 -0.4043  0.2195
  262MOL0     C35267   9.811   5.850  10.169  0.7962 -0.2537  0.7955
  262MOL0     C35268   9.836   5.765  10.060 -0.5223  0.5930  0.3932
  262MOL0     C35269   9.927   5.661  10.078  0.7388 -0.5882 -0.0666
  262MOL0     C35270   9.984   5.640  10.198 -0.6882  0.2816 -0.8159
  262MOL0     O35271  10.080   5.550  10.231  0.0277  0.4380  0.4191
  262MOL0     C35272  10.109   5.443  10.145 -0.9707  0.4515 -0.1860
  262MOL0     C35273  10.188   5.355  10.244  0.2170  0.1282 -0.0454
  262MOL0     C35274  10.224   5.232  10.174 -0.0580  0.0199  0.2533
  262MOL0     C35275  10.295   5.117  10.258 -0.0611 -0.1558 -0.4246
  262MOL0     C35276  10.318   4.980  10.193 -0.0989 -1.4349  0.3500
  262MOL0     C35277  10.353   4.883  10.299 -0.2122  0.2778  0.3589
  262MOL0     C35278  10.400   4.760  10.225 -0.1217  0.4723  0.3211
  262MOL0     C35279  10.424   4.650  10.333  0.0043 -0.3251  0.0362
  262MOL0    Cl35280  10.443   4.496  10.257 -0.2426 -0.0458 -0.0505
  262MOL0     C35281   9.964   5.730  10.306  0.4928  0.5230 -0.3682
  262MOL0     C35282   9.871   5.834  10.294 -0.2390  0.3514 -0.2697
  262MOL0     O35283   9.876   6.057   9.997 -0.7905  0.4341 -0.0641
  262MOL0     C35284   9.664   6.268  10.152  1.2121 -0.0188 -0.3980
  262MOL0     C35285   9.568   6.370  10.138 -0.1967  0.0306  0.2388
  262MOL0     N35286   8.905   6.796   9.652 -0.2034 -0.0112  0.7608
  262MOL0     N35287   8.865   6.794   9.529 -1.2790  0.7620 -0.4999
  262MOL0     C35288   9.061   7.924   9.136  0.2592  0.8924  0.4966
  262MOL0     C35289   9.070   8.056   9.085  0.2423 -0.3009 -0.3217
  262MOL0     C35290   9.155   8.465   8.930 -0.5072 -0.8897  0.7250
  262MOL0     C35291   9.073   8.578   8.937 -0.5578  0.3632  0.6414
  262MOL0     C35292   9.078   8.683   8.844 -0.2143 -1.2530  0.2907
  262MOL0     C35293   9.181   8.677   8.753 -0.1119 -0.2706  0.7745
  262MOL0     O35294   9.201   8.771   8.648 -0.1846 -0.4118 -0.2551
  262MOL0     C35295   9.133   8.895   8.649 -0.1366 -0.3312  0.8645
  262MOL0     C35296   9.188   8.966   8.527  0.0735  0.6724  0.1340
  262MOL0     C35297   9.110   9.102   8.493 -0.4571 -0.1353 -0.9198
  262MOL0     C35298   8.983   9.058   8.419  0.2826 -1.4172  0.4121
  262MOL0     C35299   8.921   9.187   8.373 -0.3134  0.1950  0.1689
  262MOL0     C35300   8.857   9.286   8.338  0.5622  0.1862  0.6665
  262MOL0     C35301   9.258   8.564   8.735 -0.3835 -0.7741  0.3132
  262MOL0     C35302   9.256   8.463   8.826 -0.6113  0.2067 -0.9373
  262MOL0     H35303   9.390   8.044   8.974  0.2250 -2.0602 -1.6146
  262MOL0     H35304   9.378   7.817   9.051  1.1666  1.4768 -1.0212
  262MOL0     H35305   8.992   7.659   9.253 -1.0524 -2.6186  0.1225
  262MOL0     H35306   8.987   7.666   9.075 -0.2054  0.7068 -0.2197
  262MOL0     H35307   9.088   7.451   9.057 -0.9379  0.2400 -1.3386
  262MOL0     H35308   9.146   7.449   9.232  3.0596  2.8556 -1.7134
  262MOL0     H35309   8.897   7.420   9.299 -0.7127 -0.2927  0.0486
  262MOL0     H35310   8.866   7.432   9.128 -1.3035 -5.7781 -0.5801
  262MOL0     H35311   9.026   7.228   9.111  1.0682 -1.5213  0.4238
  262MOL0     H35312   9.017   7.219   9.292  0.2206 -1.5343 -1.1895
  262MOL0     H35313   8.744   7.231   9.218  0.5198 -1.7798  4.0751
  262MOL0     H35314   8.819   7.155   9.081 -0.0938  2.3882 -0.6950
  262MOL0     H35315   8.836   7.080   9.381 -2.0994  2.0079 -1.0605
  262MOL0     H35316   8.732   6.998   9.257  0.4503  0.2157  2.2964
  262MOL0     H35317   8.950   6.938   9.126  3.6926 -5.5110  0.4535
  262MOL0     H35318   9.046   7.004   9.253  0.2785 -0.3665 -1.1492
  262MOL0     H35319   9.049   6.767   9.276  0.2138 -0.5434  0.2373
  262MOL0     H35320   8.868   6.774   9.277  0.6515 -0.2506 -1.1878
  262MOL0     H35321   9.166   6.888   9.483  0.9179 -1.1011  2.6745
  262MOL0     H35322   9.202   6.889   9.780  0.2073  1.0336 -0.6256
  262MOL0     H35323   9.069   6.794   9.859  0.5886  1.0050  1.3233
  262MOL0     H35324   9.302   6.681   9.680  1.3994  2.5466  1.2958
  262MOL0     H35325   9.152   6.598   9.679  0.4332 -1.1853  1.5606
  262MOL0     H35326   9.156   6.621   9.935 -0.9600  2.2287 -1.0668
  262MOL0     H35327   9.308   6.713   9.928  1.7152 -1.8680  1.4171
  262MOL0     H35328   9.406   6.525   9.799  0.2394 -0.8463  0.4161
  262MOL0     H35329   9.267   6.427   9.838  3.4126 -2.4897 -1.2596
  262MOL0     H35330   9.436   6.264   9.843 -0.2600 -2.0463 -1.0564
  262MOL0     H35331   9.613   5.976   9.857 -1.3920 -1.5883 -3.6920
  262MOL0     H35332   9.511   6.086   9.771 -0.4554 -2.7923  1.0451
  262MOL0     H35333   9.693   6.111   9.770  2.7390 -2.7731  0.7732
  262MOL0     H35334   9.776   5.771   9.970 -0.7019 -2.0750  0.2542
  262MOL0     H35335   9.948   5.594   9.995  3.9927 -0.0003  0.1461
  262MOL0     H35336  10.014   5.400  10.114 -1.5514  1.4463  0.1920
  262MOL0     H35337  10.175   5.471  10.062  2.0017  1.2580  2.2334
  262MOL0     H35338  10.288   5.397  10.264  0.4786  1.1297 -3.0113
  262MOL0     H35339  10.137   5.334  10.338 -1.8503  0.3977 -1.0584
  262MOL0     H35340  10.269   5.258  10.078 -0.7265 -0.9106 -0.3320
  262MOL0     H35341  10.122   5.196  10.159  0.5561 -1.8169  0.2172
  262MOL0     H35342  10.391   5.154  10.296 -1.1132  2.1496  0.1957
  262MOL0     H35343  10.222   5.108  10.339  2.1468  1.0615  1.8458
  262MOL0     H35344  10.391   4.975  10.112  1.3135  0.2529  1.4383
  262MOL0     H35345  10.224   4.946  10.150 -0.7779 -4.4045  3.7838
  262MOL0     H35346  10.434   4.935  10.351 -0.2923  0.7669  0.0018
  262MOL0     H35347  10.261   4.865  10.354  1.5992 -1.3783  3.0879
  262MOL0     H35348  10.495   4.789  10.179  1.2080  2.6161  3.9521
  262MOL0     H35349  10.321   4.726  10.157  1.0233 -3.1903  0.6616
  262MOL0     H35350  10.330   4.632  10.386 -0.1077  0.6057  0.1668
  262MOL0     H35351  10.505   4.676  10.401  1.5566 -0.1110 -1.8032
  262MOL0     H35352  10.006   5.717  10.405 -0.9673  0.8131  0.3066
  262MOL0     H35353   9.850   5.912  10.367 -2.9610 -1.5892  1.1781
  262MOL0     H35354   9.714   6.257  10.248 -0.4760  2.0682  0.8141
  262MOL0     H35355   9.546   6.449  10.209  2.4874  0.4704  0.6833
  262MOL0     H35356   8.962   7.890   9.167 -0.0778  0.0828 -1.3562
  262MOL0     H35357   8.980   8.118   9.077  0.6883  0.5019  0.6788
  262MOL0     H35358   8.986   8.577   9.002 -0.2806 -0.4770  1.0155
  262MOL0     H35359   9.008   8.766   8.844  0.8817 -0.2877 -0.5116
  262MOL0     H35360   9.031   8.866   8.621  0.1307 -1.7057  1.2484
  262MOL0     H35361   9.146   8.957   8.737  4.5606  0.9323 -0.4492
  262MOL0     H35362   9.183   8.906   8.435  3.8212 -1.3861  1.0488
  262MOL0     H35363   9.296   8.972   8.543  0.7051 -0.8846 -2.7170
  262MOL0     H35364   9.169   9.171   8.432 -0.2572  0.6342  0.1260
  262MOL0     H35365   9.078   9.142   8.589  0.3642 -2.5414  0.4499
  262MOL0     H35366   8.924   9.003   8.493  3.1145 -0.4573  3.6800
  262MOL0     H35367   9.007   8.993   8.335  3.0775 -1.4077  1.1091
  262MOL0     H35368   8.781   9.358   8.317  0.1164 -0.0123  1.5463
  262MOL0     H35369   9.322   8.565   8.648 -1.7972 -1.6897 -0.7850
  262MOL0     H35370   9.326   8.383   8.805 -0.2194  0.7054 -1.5660
  263MOL0     O35371   8.072   7.089   8.809  0.3529  0.1189  0.4503
  263MOL0     C35372   8.055   6.972   8.793  0.2146  0.4671 -0.5452
  263MOL0     O35373   7.963   6.887   8.856  0.4642 -0.6955 -0.0268
  263MOL0     C35374   7.888   6.945   8.959  0.5667  0.2874 -0.1618
  263MOL0     C35375   7.936   7.000   9.077  0.0082 -0.3756  0.2770
  263MOL0     C35376   7.849   7.025   9.192  0.1212  1.0764  0.4593
  263MOL0     C35377   7.713   7.002   9.178 -0.3411 -0.0867  0.3254
  263MOL0     O35378   7.623   7.003   9.289 -0.8150  0.1755  0.0576
  263MOL0     C35379   7.686   7.020   9.414 -0.2633 -0.0439  0.7041
  263MOL0     C35380   7.581   6.956   9.513  0.0366 -0.0718  0.7573
  263MOL0     C35381   7.602   7.018   9.653  0.7201  0.9733  0.2861
  263MOL0     C35382   7.479   6.999   9.744  0.1913 -0.0908 -0.1020
  263MOL0     C35383   7.502   7.037   9.894 -0.0654 -0.3800 -0.4520
  263MOL0     C35384   7.413   6.962   9.997 -0.8775  0.6034  0.4394
  263MOL0     C35385   7.276   7.007  10.019  0.3515 -0.4756 -0.4509
  263MOL0     C35386   7.201   6.927  10.130  0.4589  0.3382  0.5514
  263MOL0     N35387   7.186   6.781  10.109  0.4051  0.2483 -1.2241
  263MOL0     C35388   7.276   6.678  10.109 -0.4939  0.3094  0.0719
  263MOL0     C35389   7.211   6.571  10.089  0.6277 -0.1002 -0.8361
  263MOL0     C35390   7.270   6.435  10.082 -1.2818 -0.4747 -1.0959
  263MOL0     C35391   7.195   6.331  10.174  0.4567  1.1561 -0.0936
  263MOL0     C35392   7.284   6.203  10.201  0.6525 -0.2105 -0.3682
  263MOL0     C35393   7.187   6.074  10.208 -0.3625  0.2992 -0.2627
  263MOL0     O35394   7.256   5.965  10.268  1.1326  0.0832 -0.5171
  263MOL0     C35395   7.192   5.874  10.347 -0.0830 -0.0350  0.2208
  263MOL0     C35396   7.055   5.859  10.358  1.2811 -0.1401  0.2478
  263MOL0     C35397   7.003   5.747  10.438 -0.4430  0.1305 -0.0949
  263MOL0     C35398   6.864   5.694  10.418  0.3047  0.1429 -0.2648
  263MOL0     C35399   7.097   5.677  10.525  0.3662  0.2687  0.6431
  263MOL0     C35400   7.043   5.577  10.624  0.0346  0.9292  0.5357
  263MOL0     O35401   7.125   5.469  10.625 -0.5167 -0.3004  0.0911
  263MOL0     C35402   7.088   5.363  10.703  0.0747  0.5527  0.2331
  263MOL0     C35403   7.180   5.299  10.787  0.3830 -0.9599  0.7830
  263MOL0     C35404   7.143   5.195  10.869 -0.3825  0.5396  0.2607
  263MOL0     C35405   7.019   5.149  10.865 -0.0192 -0.4581  0.9536
  263MOL0     O35406   6.971   5.049  10.941  0.0169 -0.1403  0.0856
  263MOL0     C35407   6.959   5.070  11.080  0.5006 -0.2873  1.2459
  263MOL0     C35408   6.850   5.167  11.110 -0.1712  0.5226  0.4079
  263MOL0     C35409   6.707   5.124  11.089 -0.2892 -0.2712 -0.3594
  263MOL0     C35410   6.677   5.076  10.945  0.4103 -1.1477 -0.0633
  263MOL0     C35411   6.529   5.046  10.931  0.4368  0.3431 -0.5149
  263MOL0     C35412   6.483   4.918  10.999  0.0726 -0.1669  0.5481
  263MOL0     C35413   6.575   4.796  10.999  0.4777 -0.1454  0.2015
  263MOL0     C35414   6.504   4.660  10.964 -0.9542 -0.0093  0.0981
  263MOL0    Cl35415   6.455   4.661  10.802 -0.0028 -0.1018 -0.3942
  263MOL0     C35416   6.938   5.189  10.751  0.4076 -0.9377 -0.5037
  263MOL0     C35417   6.972   5.292  10.667  0.1667 -0.3159 -0.7339
  263MOL0     O35418   6.936   5.580  10.682  0.5475 -0.8067 -0.6597
  263MOL0     C35419   7.235   5.685  10.511 -0.7249 -0.5094 -0.7010
  263MOL0     C35420   7.276   5.787  10.419  0.3007  0.3678  0.7137
  263MOL0     N35421   7.079   6.596  10.067 -0.4268 -0.6262 -0.2158
  263MOL0     N35422   7.063   6.720  10.091  0.1075  0.1697 -0.7827
  263MOL0     C35423   7.651   6.970   9.051  0.8652 -0.6303  0.2910
  263MOL0     C35424   7.745   6.936   8.946 -0.2402  0.0903 -0.5619
  263MOL0     C35425   8.129   6.893   8.693 -0.8760 -0.4223  1.0342
  263MOL0     C35426   8.113   6.757   8.666 -0.6655  0.2942 -0.1522
  263MOL0     C35427   8.192   6.694   8.570  0.2022  0.8552 -0.6632
  263MOL0     C35428   8.287   6.764   8.494 -1.2515 -0.6733  0.2567
  263MOL0     O35429   8.368   6.685   8.414 -0.1422 -0.5374  0.0955
  263MOL0     C35430   8.451   6.745   8.319 -0.9927  0.1033 -0.7586
  263MOL0     C35431   8.480   6.635   8.215 -0.5419 -0.8819  0.1550
  263MOL0     C35432   8.382   6.605   8.104  0.2623  0.2272  0.3537
  263MOL0     C35433   8.410   6.683   7.973 -0.8932 -0.6947 -0.0160
  263MOL0     C35434   8.307   6.666   7.870  0.5238  0.2652  1.2058
  263MOL0     C35435   8.212   6.682   7.793  0.2322  0.2364 -0.5414
  263MOL0     C35436   8.289   6.898   8.512 -0.1299  0.4143  0.2433
  263MOL0     C35437   8.216   6.964   8.606  0.8428  0.0870  0.2945
  263MOL0     H35438   8.040   7.032   9.085  0.8735 -2.4127 -1.7193
  263MOL0     H35439   7.895   7.053   9.286 -1.8564  1.8125  1.2624
  263MOL0     H35440   7.772   6.954   9.419 -0.2048 -0.1959 -1.4649
  263MOL0     H35441   7.708   7.126   9.434 -1.1514  0.1559  0.6806
  263MOL0     H35442   7.479   6.975   9.476  0.5902 -0.6176 -1.1631
  263MOL0     H35443   7.603   6.849   9.519  1.5233  0.2793  2.0875
  263MOL0     H35444   7.684   6.965   9.703 -2.3382 -3.1618  1.4799
  263MOL0     H35445   7.640   7.120   9.644 -1.1879  1.6961 -0.0608
  263MOL0     H35446   7.393   7.061   9.716  1.1180  2.1741  1.7076
  263MOL0     H35447   7.443   6.897   9.731  0.0442  0.1018 -1.3062
  263MOL0     H35448   7.601   6.996   9.913 -0.3421 -1.0131 -0.3753
  263MOL0     H35449   7.506   7.146   9.901 -3.3567  0.0286 -2.7357
  263MOL0     H35450   7.420   6.855   9.980 -1.6960  0.4245  1.1376
  263MOL0     H35451   7.451   6.979  10.099 -0.9032  0.2486  0.5075
  263MOL0     H35452   7.269   7.116  10.033 -1.9347 -0.0897 -3.5082
  263MOL0     H35453   7.214   6.997   9.929  0.6528  1.2716 -0.8990
  263MOL0     H35454   7.101   6.971  10.127 -0.0676 -0.8677 -0.2130
  263MOL0     H35455   7.246   6.947  10.228  1.5994 -2.4641  0.6739
  263MOL0     H35456   7.384   6.690  10.101 -0.7099  3.8714  0.8386
  263MOL0     H35457   7.282   6.400   9.979 -0.2875  2.9732 -2.3068
  263MOL0     H35458   7.368   6.447  10.130 -3.0498 -0.2661  2.8685
  263MOL0     H35459   7.108   6.298  10.116  1.7546  0.1157 -1.5439
  263MOL0     H35460   7.173   6.378  10.270 -0.1425  1.7779 -0.5257
  263MOL0     H35461   7.332   6.222  10.297 -0.7704 -0.4895  0.4276
  263MOL0     H35462   7.365   6.188  10.128  0.7300 -3.2045  0.1982
  263MOL0     H35463   7.152   6.062  10.104  1.2300 -2.5156 -0.5580
  263MOL0     H35464   7.098   6.102  10.265 -2.8368 -1.5399 -2.8825
  263MOL0     H35465   6.979   5.915  10.304 -0.5975 -0.7307  2.1421
  263MOL0     H35466   6.812   5.762  10.350 -3.1559 -1.5212  0.4901
  263MOL0     H35467   6.874   5.602  10.358  1.8770  0.9462 -1.3266
  263MOL0     H35468   6.812   5.673  10.511 -0.5773  0.2138 -0.7312
  263MOL0     H35469   7.284   5.328  10.794 -0.5291  2.7069  1.4804
  263MOL0     H35470   7.218   5.137  10.923 -2.6141  0.0562  3.1279
  263MOL0     H35471   6.931   4.970  11.116 -2.9852  0.5081  1.0427
  263MOL0     H35472   7.058   5.108  11.106  0.5418  1.1602 -0.8066
  263MOL0     H35473   6.858   5.184  11.218 -1.8037 -0.5694  0.7336
  263MOL0     H35474   6.870   5.264  11.063  1.7286 -0.6276 -1.2855
  263MOL0     H35475   6.651   5.214  11.115  3.3129  1.5976  1.7494
  263MOL0     H35476   6.673   5.046  11.158  0.0376 -0.0790  0.0201
  263MOL0     H35477   6.700   5.156  10.874  2.4372  0.0626  1.8280
  263MOL0     H35478   6.745   4.991  10.931  0.1953 -1.5571  1.2538
  263MOL0     H35479   6.508   5.015  10.828  0.5539 -4.0148  0.5619
  263MOL0     H35480   6.467   5.131  10.962  0.1516 -0.3932  1.0161
  263MOL0     H35481   6.438   4.933  11.098 -0.3982 -2.9445  0.8442
  263MOL0     H35482   6.383   4.893  10.963 -0.6281  0.5738  1.8654
  263MOL0     H35483   6.627   4.782  11.094 -0.7971 -0.6393  0.8459
  263MOL0     H35484   6.646   4.806  10.916  0.3748  2.9405  0.3813
  263MOL0     H35485   6.428   4.637  11.038  0.1119  0.3063  1.3207
  263MOL0     H35486   6.582   4.584  10.976 -1.1934 -0.0126  1.8664
  263MOL0     H35487   6.849   5.132  10.729 -1.2978  1.6673 -0.8239
  263MOL0     H35488   6.920   5.310  10.574  2.4916 -1.4985 -2.3405
  263MOL0     H35489   7.314   5.629  10.560  0.9564  1.9342 -0.4573
  263MOL0     H35490   7.384   5.793  10.412  0.3077  0.0442  0.5216
  263MOL0     H35491   7.543   6.958   9.046  0.8137 -0.0279 -0.1356
  263MOL0     H35492   7.709   6.909   8.847 -1.3753  0.7373 -0.3445
  263MOL0     H35493   8.029   6.703   8.709 -2.4474  1.8652 -1.5238
  263MOL0     H35494   8.197   6.587   8.552 -0.7310  0.5036  1.0298
  263MOL0     H35495   8.404   6.828   8.265 -2.3814 -0.1056  0.0885
  263MOL0     H35496   8.546   6.779   8.361 -0.5068 -2.1282  0.1027
  263MOL0     H35497   8.507   6.548   8.275  0.7299 -0.0369  0.8573
  263MOL0     H35498   8.573   6.663   8.165 -0.1542 -2.1046  0.1610
  263MOL0     H35499   8.281   6.635   8.133  0.4405  0.0088  1.2571
  263MOL0     H35500   8.381   6.499   8.078  0.4484  0.3276 -0.0759
  263MOL0     H35501   8.504   6.644   7.931  0.4236 -0.3898  2.4563
  263MOL0     H35502   8.428   6.786   8.004  1.0880 -0.5514 -1.4471
  263MOL0     H35503   8.120   6.684   7.737 -1.4810  0.4134  2.1173
  263MOL0     H35504   8.367   6.954   8.463  0.3380 -1.5000 -1.3257
  263MOL0     H35505   8.209   7.072   8.615 -2.3351 -0.1293  1.5394
  264MOL0     O35506   6.911   2.181   1.830 -0.0917  0.8863 -0.6797
  264MOL0     C35507   6.911   2.078   1.761  0.4726 -0.3515  0.3278
  264MOL0     O35508   6.998   1.979   1.757  0.5396 -0.3827 -0.1874
  264MOL0     C35509   7.104   1.974   1.837 -0.1150  0.2093 -1.0393
  264MOL0     C35510   7.166   2.092   1.905  1.0301  0.2503  0.4789
  264MOL0     C35511   7.276   2.083   1.986 -0.8549  0.0110 -0.4472
  264MOL0     C35512   7.330   1.951   2.012 -0.5900 -1.2603 -0.5960
  264MOL0     O35513   7.426   1.928   2.106  0.0924  0.9613  0.1611
  264MOL0     C35514   7.527   2.027   2.129 -0.3387  0.7354  0.1749
  264MOL0     C35515   7.652   1.946   2.175 -0.4542 -0.4606 -0.1557
  264MOL0     C35516   7.783   2.029   2.192  0.4733 -0.0127  0.4565
  264MOL0     C35517   7.902   1.936   2.211 -0.1746  1.0746  0.6441
  264MOL0     C35518   8.033   2.009   2.183  0.4069  0.5660 -0.5375
  264MOL0     C35519   8.144   1.900   2.169  0.0971  0.2322 -0.0943
  264MOL0     C35520   8.281   1.950   2.112 -0.0668  0.1916  0.1676
  264MOL0     C35521   8.250   1.979   1.954 -0.9439  0.9407 -0.4178
  264MOL0     N35522   8.384   2.026   1.891 -0.8899  0.1948  0.1408
  264MOL0     C35523   8.405   2.158   1.853  0.1280 -1.1413 -0.5037
  264MOL0     C35524   8.515   2.156   1.782 -0.0606  0.3433  1.3792
  264MOL0     C35525   8.577   2.274   1.697  1.3523  0.1070  0.2190
  264MOL0     C35526   8.686   2.356   1.775 -0.6359 -0.7366  0.5719
  264MOL0     C35527   8.622   2.432   1.892 -0.5825 -0.2556  0.7624
  264MOL0     C35528   8.705   2.397   2.010  0.4849 -0.8411  0.4206
  264MOL0     O35529   8.648   2.268   2.051 -0.3186  0.4957 -0.5327
  264MOL0     C35530   8.717   2.196   2.154  0.3750 -0.2293 -0.2445
  264MOL0     C35531   8.837   2.247   2.228  1.0085 -0.3134  0.1483
  264MOL0     C35532   8.901   2.171   2.325 -0.3120  0.6547  0.3547
  264MOL0     C35533   9.028   2.223   2.383 -1.0251 -0.3857 -0.7429
  264MOL0     C35534   8.836   2.044   2.360 -0.9309  0.0936 -0.2331
  264MOL0     C35535   8.904   1.953   2.468  1.0337  0.1419  0.5274
  264MOL0     O35536   8.823   1.889   2.559 -0.4124  0.4558  0.0346
  264MOL0     C35537   8.850   1.758   2.598  0.4496  0.6786 -0.2318
  264MOL0     C35538   8.806   1.734   2.733  0.2480 -0.1235  0.9278
  264MOL0     C35539   8.810   1.606   2.792 -0.5708 -0.1966  0.4415
  264MOL0     C35540   8.868   1.506   2.713 -0.3816  0.6372 -0.6039
  264MOL0     O35541   8.884   1.382   2.771 -0.2908  0.0624 -0.3893
  264MOL0     C35542   8.767   1.318   2.826  0.1921  0.6200 -0.6330
  264MOL0     C35543   8.786   1.163   2.808 -0.6050 -0.8041 -0.1985
  264MOL0     C35544   8.735   1.076   2.918  0.3070  0.8899  0.0171
  264MOL0     C35545   8.736   0.921   2.886  0.4109 -0.6844 -0.2426
  264MOL0     C35546   8.869   0.854   2.858 -0.2437 -0.2478  0.4481
  264MOL0     C35547   8.882   0.727   2.952  0.0516 -1.3647 -1.0075
  264MOL0     C35548   9.021   0.663   2.936 -0.2874  0.2044 -1.3412
  264MOL0     C35549   9.002   0.508   2.938  0.2399  0.6005  0.0644
  264MOL0    Cl35550   8.987   0.461   2.765  0.0575 -0.3439 -0.6318
  264MOL0     C35551   8.924   1.535   2.588  0.6890  1.0408  0.2349
  264MOL0     C35552   8.900   1.651   2.523  0.4316  1.1949 -0.7530
  264MOL0     O35553   9.030   1.949   2.470 -0.9252  0.3983 -0.1398
  264MOL0     C35554   8.708   2.011   2.310  0.0860  0.4327  0.0766
  264MOL0     C35555   8.653   2.075   2.203  0.2018 -0.8464  0.7019
  264MOL0     N35556   8.564   2.025   1.777 -0.9298  0.2790 -1.0701
  264MOL0     N35557   8.482   1.942   1.837  0.8965 -0.4493  0.4494
  264MOL0     C35558   7.299   1.849   1.927 -0.4769  0.0754 -0.1828
  264MOL0     C35559   7.184   1.859   1.845 -0.2315 -0.5207  0.3054
  264MOL0     C35560   6.789   2.059   1.685  0.1971  0.5816  1.1313
  264MOL0     C35561   6.757   1.927   1.628 -0.9678 -1.1768 -0.0534
  264MOL0     C35562   6.635   1.900   1.561  0.0562 -0.0546  1.2213
  264MOL0     C35563   6.553   2.011   1.530  0.7753  0.5828 -0.0787
  264MOL0     O35564   6.425   2.004   1.472  0.2416  0.3011 -0.7532
  264MOL0     C35565   6.392   1.869   1.430 -0.3794  1.0194 -0.9180
  264MOL0     C35566   6.237   1.874   1.419 -0.2724 -0.4811  0.4288
  264MOL0     C35567   6.179   1.740   1.371  0.3109 -0.0005  0.3135
  264MOL0     C35568   6.036   1.760   1.326  0.1070 -0.1997 -0.1988
  264MOL0     C35569   5.972   1.633   1.267 -1.1086  0.5485 -0.0936
  264MOL0     C35570   5.905   1.550   1.205 -0.1780 -0.3054 -0.2187
  264MOL0     C35571   6.596   2.137   1.575  0.3842  1.2030 -0.7593
  264MOL0     C35572   6.692   2.164   1.656 -0.2021  1.0608 -1.2873
  264MOL0     H35573   7.127   2.194   1.903  2.9855  1.0297 -0.2050
  264MOL0     H35574   7.317   2.165   2.044  1.0281 -0.9394 -0.3489
  264MOL0     H35575   7.559   2.077   2.037 -4.0661 -1.8492 -2.8798
  264MOL0     H35576   7.496   2.103   2.201  2.6506  1.1920  1.0924
  264MOL0     H35577   7.631   1.883   2.262  2.8808 -0.3757  0.8745
  264MOL0     H35578   7.676   1.876   2.094  0.1818  2.2126 -2.4178
  264MOL0     H35579   7.799   2.095   2.107  3.5788 -0.9567  0.1774
  264MOL0     H35580   7.775   2.095   2.279 -1.9057 -0.2615  0.4815
  264MOL0     H35581   7.915   1.906   2.315  1.1700 -0.0098  0.1974
  264MOL0     H35582   7.891   1.847   2.148  3.6435 -2.0745  3.8499
  264MOL0     H35583   8.035   2.063   2.088  4.1801  3.7939  1.0406
  264MOL0     H35584   8.042   2.080   2.266  0.3786  0.8397 -0.7666
  264MOL0     H35585   8.172   1.842   2.257  0.0166 -0.8028 -0.7314
  264MOL0     H35586   8.101   1.817   2.112 -1.4266 -1.9186  3.8607
  264MOL0     H35587   8.306   2.043   2.162 -1.6607 -0.5982  2.5881
  264MOL0     H35588   8.355   1.869   2.118 -3.5374 -3.4567 -1.5490
  264MOL0     H35589   8.187   2.068   1.953 -1.2879  0.7374  1.0959
  264MOL0     H35590   8.193   1.904   1.898 -0.0496 -1.3071  1.5223
  264MOL0     H35591   8.345   2.247   1.866  3.7184  1.4900 -0.4350
  264MOL0     H35592   8.616   2.242   1.600  0.7212 -2.8316  0.8338
  264MOL0     H35593   8.489   2.339   1.692  0.0591 -1.0969  3.9685
  264MOL0     H35594   8.728   2.435   1.712 -1.5838  0.7047  1.6767
  264MOL0     H35595   8.771   2.291   1.798 -0.2768 -0.5571 -0.2382
  264MOL0     H35596   8.514   2.419   1.906 -1.2326 -0.3224 -3.1441
  264MOL0     H35597   8.640   2.539   1.875 -2.2009  0.3603  2.6059
  264MOL0     H35598   8.684   2.468   2.090  0.8461  0.2845 -0.4532
  264MOL0     H35599   8.814   2.403   2.000  0.9479  0.4120  4.4547
  264MOL0     H35600   8.873   2.348   2.209 -2.3657  1.0887  0.5628
  264MOL0     H35601   9.114   2.166   2.347 -0.8635 -0.6760  0.0594
  264MOL0     H35602   9.066   2.319   2.348  2.3485 -1.5801 -0.7583
  264MOL0     H35603   9.018   2.232   2.492  0.0820 -0.0797 -0.6579
  264MOL0     H35604   8.770   1.806   2.805 -0.8057 -0.7361  1.0293
  264MOL0     H35605   8.778   1.576   2.891  1.2582 -2.3609  0.4738
  264MOL0     H35606   8.755   1.349   2.931 -2.2278 -0.5454 -0.4884
  264MOL0     H35607   8.676   1.357   2.779 -0.3344  1.4178  0.9595
  264MOL0     H35608   8.741   1.138   2.712  0.4409 -1.1600 -0.6101
  264MOL0     H35609   8.890   1.133   2.795  0.0471  0.9169  0.7313
  264MOL0     H35610   8.635   1.110   2.947  0.8402  1.7714  0.8568
  264MOL0     H35611   8.802   1.094   3.002  1.6243  1.2872 -1.0919
  264MOL0     H35612   8.699   0.871   2.976  1.6774 -0.3556  0.4886
  264MOL0     H35613   8.668   0.892   2.806  0.9185 -2.0546 -0.2118
  264MOL0     H35614   8.954   0.918   2.881 -2.8131  2.4539  3.4006
  264MOL0     H35615   8.874   0.822   2.754  0.3708  0.4874  0.2416
  264MOL0     H35616   8.869   0.743   3.059 -1.3323  2.4412 -1.5982
  264MOL0     H35617   8.800   0.659   2.925 -3.1971  0.5259  3.0391
  264MOL0     H35618   9.083   0.699   3.019 -0.2868 -1.0923 -0.7585
  264MOL0     H35619   9.061   0.692   2.838 -3.3944 -0.8906 -3.0693
  264MOL0     H35620   8.914   0.473   2.994 -0.1666  1.4215 -0.0511
  264MOL0     H35621   9.095   0.468   2.979  1.4298  0.9515 -2.1181
  264MOL0     H35622   8.974   1.460   2.528  2.4582 -0.2015  3.0410
  264MOL0     H35623   8.941   1.677   2.426  1.8383 -0.8596 -0.7674
  264MOL0     H35624   8.663   1.914   2.329  1.1053 -0.7333 -2.8095
  264MOL0     H35625   8.565   2.040   2.150  0.6405  1.7071 -1.9889
  264MOL0     H35626   7.345   1.752   1.940 -0.0192  0.4195  0.9333
  264MOL0     H35627   7.159   1.764   1.799  3.0032 -0.6446 -1.4695
  264MOL0     H35628   6.820   1.839   1.638  1.5528 -0.1584 -4.4907
  264MOL0     H35629   6.622   1.798   1.525 -1.4764  0.3546  0.5065
  264MOL0     H35630   6.436   1.863   1.330 -1.2676 -0.9774 -1.2421
  264MOL0     H35631   6.415   1.786   1.497 -0.8819  0.4234 -1.4607
  264MOL0     H35632   6.209   1.958   1.356  0.3400  0.3022  1.1666
  264MOL0     H35633   6.204   1.876   1.523  2.6987 -4.8335  1.7483
  264MOL0     H35634   6.190   1.672   1.455  1.8813 -3.5467 -2.4886
  264MOL0     H35635   6.237   1.697   1.288 -0.0887 -0.0141  0.0395
  264MOL0     H35636   6.038   1.832   1.244  2.0530  1.5534  1.2934
  264MOL0     H35637   5.979   1.801   1.409  0.6462  0.0261  0.0636
  264MOL0     H35638   5.844   1.477   1.155 -4.2696  1.9509  1.0105
  264MOL0     H35639   6.528   2.219   1.552  1.1334  2.1145  0.2098
  264MOL0     H35640   6.719   2.260   1.698  3.9139  0.7427 -2.7629
  265MOL0     O35641   9.171   7.519   3.125  0.2801 -0.0103  0.0679
  265MOL0     C35642   9.262   7.470   3.191  0.0640  0.1762  0.9964
  265MOL0     O35643   9.389   7.527   3.216  0.5829  0.6488 -0.2716
  265MOL0     C35644   9.422   7.640   3.148 -0.7845 -0.6257 -0.1519
  265MOL0     C35645   9.457   7.756   3.224 -1.0048  0.4784  0.6289
  265MOL0     C35646   9.520   7.860   3.158  0.2429 -1.5089  0.3425
  265MOL0     C35647   9.526   7.870   3.023  0.0527 -0.2959 -0.0115
  265MOL0     O35648   9.596   7.982   2.978 -0.2794  1.2145 -0.0731
  265MOL0     C35649   9.612   8.001   2.837  0.2661  0.3804 -0.2621
  265MOL0     C35650   9.700   8.118   2.812  0.1145  1.4065 -0.8479
  265MOL0     C35651   9.844   8.077   2.796 -0.1507  0.4271 -0.1515
  265MOL0     C35652   9.942   8.183   2.822  0.1506 -0.7258 -0.0311
  265MOL0     C35653   9.928   8.311   2.738 -0.0994 -0.0504  0.6384
  265MOL0     C35654  10.063   8.399   2.732  0.0400 -0.1188  0.1341
  265MOL0     C35655  10.112   8.445   2.871 -0.4885  0.8128 -0.3371
  265MOL0     C35656  10.078   8.593   2.880  0.2359  0.6489 -0.8137
  265MOL0     N35657  10.106   8.628   3.022 -0.0459  0.3896  0.7620
  265MOL0     C35658  10.005   8.642   3.099  0.7660  0.6895  0.4609
  265MOL0     C35659  10.046   8.689   3.220  0.0499 -1.4028  0.1078
  265MOL0     C35660   9.974   8.688   3.358  0.6327 -1.1120  0.0787
  265MOL0     C35661   9.878   8.566   3.374 -0.6779 -0.2544 -0.5892
  265MOL0     C35662   9.840   8.549   3.518  0.8662 -0.4408  0.4162
  265MOL0     C35663   9.725   8.458   3.547  0.1803 -0.0110 -0.9707
  265MOL0     O35664   9.741   8.337   3.476  0.5603  0.5504 -0.1163
  265MOL0     C35665   9.632   8.247   3.505  0.1503  0.3263 -0.7693
  265MOL0     C35666   9.501   8.280   3.551 -0.4032 -0.2978  0.2461
  265MOL0     C35667   9.403   8.175   3.558  0.2115 -0.2979 -0.0282
  265MOL0     C35668   9.272   8.208   3.619  0.1966 -0.9256 -0.0163
  265MOL0     C35669   9.435   8.043   3.531  0.7703 -0.6221  0.8506
  265MOL0     C35670   9.335   7.939   3.507  0.7080  0.8341  0.3290
  265MOL0     O35671   9.219   7.961   3.439  0.4093 -0.3323 -0.5404
  265MOL0     C35672   9.110   7.882   3.456  0.1226 -0.8151  0.2046
  265MOL0     C35673   8.980   7.936   3.473 -0.2515  0.3920 -0.4518
  265MOL0     C35674   8.874   7.851   3.480  0.6613 -0.8151  1.0291
  265MOL0     C35675   8.888   7.728   3.430  0.2854 -0.5769  0.0534
  265MOL0     O35676   8.776   7.665   3.415  0.3217  0.0479  0.0702
  265MOL0     C35677   8.765   7.591   3.290 -0.4520 -0.1747 -1.4773
  265MOL0     C35678   8.624   7.604   3.231  0.2201 -0.1688  0.1041
  265MOL0     C35679   8.527   7.532   3.321 -0.1594 -0.9620  0.5755
  265MOL0     C35680   8.400   7.524   3.236  1.5149  0.7597 -0.2304
  265MOL0     C35681   8.289   7.452   3.328  0.8980  0.8150 -0.2918
  265MOL0     C35682   8.302   7.306   3.359 -0.2720  0.5636 -1.0752
  265MOL0     C35683   8.179   7.249   3.443  0.2671 -0.9238 -0.7020
  265MOL0     C35684   8.207   7.109   3.506  0.1468 -0.1700 -0.0635
  265MOL0    Cl35685   8.295   6.986   3.402  0.0002  0.1847  0.6064
  265MOL0     C35686   9.011   7.666   3.417  0.0137 -0.7884  0.1134
  265MOL0     C35687   9.125   7.745   3.432 -0.0411 -0.0892  0.8879
  265MOL0     O35688   9.373   7.830   3.555  0.3894 -0.3394  0.3581
  265MOL0     C35689   9.573   8.016   3.489 -0.2628 -0.7384  0.2776
  265MOL0     C35690   9.661   8.117   3.471  0.7486 -0.4301  0.1942
  265MOL0     N35691  10.186   8.703   3.204  0.3344 -0.1423 -0.0278
  265MOL0     N35692  10.223   8.659   3.090 -0.5094  0.9468 -0.0653
  265MOL0     C35693   9.485   7.759   2.947 -0.0444 -0.0480 -0.3652
  265MOL0     C35694   9.431   7.644   3.008  0.3521  0.3702 -0.2222
  265MOL0     C35695   9.229   7.347   3.264  0.0966  0.9374 -1.0569
  265MOL0     C35696   9.310   7.302   3.366 -0.0604  0.1888  0.6578
  265MOL0     C35697   9.279   7.191   3.438 -0.0713  0.4403 -0.4195
  265MOL0     C35698   9.161   7.122   3.419  0.6149 -0.2913 -0.6742
  265MOL0     O35699   9.139   7.014   3.504 -0.1995  0.5868  0.5019
  265MOL0     C35700   9.176   6.891   3.427  0.2400 -0.2162 -0.0653
  265MOL0     C35701   9.072   6.787   3.431 -0.3937  0.0219 -0.1950
  265MOL0     C35702   9.057   6.756   3.578  0.5228  0.5360  0.5136
  265MOL0     C35703   8.919   6.696   3.625  1.3457 -0.5776 -0.0992
  265MOL0     C35704   8.808   6.793   3.604  0.2063 -0.0324  0.9484
  265MOL0     C35705   8.720   6.874   3.600 -0.2131 -0.0461 -0.8563
  265MOL0     C35706   9.077   7.170   3.320  0.4556  0.0898  0.5875
  265MOL0     C35707   9.113   7.274   3.236  0.6557  0.1994 -0.6525
  265MOL0     H35708   9.435   7.758   3.331 -1.6068 -1.7838  0.5889
  265MOL0     H35709   9.541   7.948   3.218 -2.2466  1.7144 -3.0292
  265MOL0     H35710   9.638   7.909   2.784  1.2997  0.0482  0.7699
  265MOL0     H35711   9.517   8.036   2.794 -1.4030 -2.0723  1.1859
  265MOL0     H35712   9.674   8.172   2.721 -3.2126 -1.6522 -1.9320
  265MOL0     H35713   9.684   8.188   2.895 -1.3167 -0.6146  0.6921
  265MOL0     H35714   9.865   7.989   2.857 -0.5363  0.5603  0.1818
  265MOL0     H35715   9.863   8.049   2.692  0.7216 -0.6532  0.2828
  265MOL0     H35716   9.945   8.205   2.929 -0.3344 -1.8845  0.2315
  265MOL0     H35717  10.041   8.146   2.794 -0.4388 -2.6299  0.2502
  265MOL0     H35718   9.905   8.273   2.638 -1.5315 -1.9210  1.6202
  265MOL0     H35719   9.841   8.374   2.756  1.1481  3.1078 -3.0080
  265MOL0     H35720  10.147   8.359   2.675  1.2153  2.3249  0.0475
  265MOL0     H35721  10.035   8.492   2.682  1.9834  1.2842  1.4879
  265MOL0     H35722  10.069   8.380   2.948  1.4075 -0.9439 -0.6684
  265MOL0     H35723  10.220   8.428   2.866 -0.7471 -1.1286 -5.2011
  265MOL0     H35724   9.972   8.603   2.857  0.6248  1.3829 -2.4154
  265MOL0     H35725  10.127   8.664   2.813 -1.2459  0.6330 -1.9624
  265MOL0     H35726   9.906   8.606   3.072  0.5408  2.5655 -1.4447
  265MOL0     H35727  10.045   8.701   3.440  2.7646  1.4662 -2.0177
  265MOL0     H35728   9.908   8.775   3.363  0.7261 -1.0446  0.1219
  265MOL0     H35729   9.936   8.480   3.339  1.2082  0.6647  0.1585
  265MOL0     H35730   9.785   8.588   3.321 -1.9716  1.7819  2.2725
  265MOL0     H35731   9.823   8.652   3.550  1.1522 -0.3695  0.3422
  265MOL0     H35732   9.927   8.510   3.572  1.9273  0.6966 -0.4146
  265MOL0     H35733   9.631   8.505   3.514 -0.4943 -2.0222 -2.0605
  265MOL0     H35734   9.718   8.434   3.653  1.1783  0.6843 -0.7326
  265MOL0     H35735   9.466   8.381   3.573 -1.6239 -0.3650 -1.2533
  265MOL0     H35736   9.191   8.175   3.554  1.7739  0.0800 -2.6763
  265MOL0     H35737   9.268   8.155   3.715 -2.8301 -0.0180  0.4621
  265MOL0     H35738   9.271   8.314   3.646 -0.3293 -0.8168 -0.4525
  265MOL0     H35739   8.983   8.044   3.481 -1.4872  0.3085  2.4399
  265MOL0     H35740   8.769   7.875   3.494 -0.1113 -3.0755 -0.4160
  265MOL0     H35741   8.824   7.633   3.208  0.4031 -1.0548 -1.3320
  265MOL0     H35742   8.792   7.485   3.302  1.0535  0.0353 -2.6742
  265MOL0     H35743   8.597   7.710   3.221 -0.3860 -0.4907 -2.0157
  265MOL0     H35744   8.633   7.548   3.138  0.2918 -0.0481  0.0378
  265MOL0     H35745   8.519   7.588   3.415  3.7678 -1.9437  1.6857
  265MOL0     H35746   8.565   7.438   3.362 -0.5407 -0.2079  2.8043
  265MOL0     H35747   8.353   7.622   3.220 -1.2729  0.0742  2.6827
  265MOL0     H35748   8.404   7.475   3.138 -0.9834  1.4687 -0.7606
  265MOL0     H35749   8.192   7.487   3.290  1.4463  1.3157 -1.2739
  265MOL0     H35750   8.297   7.496   3.428  0.1411 -1.3618  0.7799
  265MOL0     H35751   8.310   7.256   3.262 -0.7036  0.6156 -1.1390
  265MOL0     H35752   8.390   7.287   3.421  0.4286  0.2985 -2.1246
  265MOL0     H35753   8.090   7.239   3.381 -0.5449  3.3487 -0.5778
  265MOL0     H35754   8.141   7.317   3.521 -0.3668 -1.0474 -0.8954
  265MOL0     H35755   8.109   7.078   3.544  0.0011  3.3207  2.9292
  265MOL0     H35756   8.283   7.114   3.585 -0.0234 -1.2088  0.1819
  265MOL0     H35757   9.022   7.560   3.394  1.3097  0.0795 -4.0927
  265MOL0     H35758   9.215   7.693   3.402 -1.5933 -1.9671 -0.8334
  265MOL0     H35759   9.600   7.915   3.458 -2.0097 -1.2334  0.2475
  265MOL0     H35760   9.759   8.094   3.430  0.5081  0.5874 -1.0268
  265MOL0     H35761   9.488   7.768   2.838  2.2025 -0.7719 -0.4199
  265MOL0     H35762   9.394   7.563   2.946  0.5939 -0.6092  0.8687
  265MOL0     H35763   9.404   7.348   3.392 -1.0098  0.6441  3.5753
  265MOL0     H35764   9.344   7.160   3.519  1.5578  2.7334 -0.7390
  265MOL0     H35765   9.185   6.932   3.326 -1.4801  0.9333  0.2096
  265MOL0     H35766   9.270   6.849   3.464 -0.0173  0.1892  1.1039
  265MOL0     H35767   9.102   6.707   3.363  0.6502  0.7280 -0.6081
  265MOL0     H35768   8.978   6.832   3.396  0.3086  1.0224 -0.8743
  265MOL0     H35769   9.059   6.850   3.634  2.3208 -0.5037  2.3729
  265MOL0     H35770   9.148   6.703   3.609  1.2176 -0.2082 -2.4748
  265MOL0     H35771   8.941   6.683   3.732  2.0514  0.5369 -0.0934
  265MOL0     H35772   8.898   6.594   3.594 -2.1069  0.1723 -0.6455
  265MOL0     H35773   8.636   6.939   3.584  1.1789  1.9580 -0.5289
  265MOL0     H35774   8.986   7.114   3.303  1.4700 -3.0690  4.1361
  265MOL0     H35775   9.042   7.309   3.161 -1.0819  0.5834  1.0914
  266MOL0     O35776   3.472   3.007   7.442 -0.5756 -0.3131 -0.2492
  266MOL0     C35777   3.577   3.069   7.447  0.3174  0.4386  0.1696
  266MOL0     O35778   3.683   3.034   7.366 -0.1491 -0.2974  0.1665
  266MOL0     C35779   3.692   2.923   7.295  0.5015 -0.0952 -0.7047
  266MOL0     C35780   3.658   2.809   7.353  0.3561  0.0822 -0.7674
  266MOL0     C35781   3.662   2.689   7.288 -0.4956 -1.1580  0.0208
  266MOL0     C35782   3.687   2.688   7.145 -0.4103 -0.1548 -0.5214
  266MOL0     O35783   3.690   2.560   7.086 -0.1033 -0.3836  0.3560
  266MOL0     C35784   3.778   2.531   6.970  0.3306  0.5746 -1.0152
  266MOL0     C35785   3.749   2.385   6.919 -0.7842  0.5031  0.1296
  266MOL0     C35786   3.790   2.280   7.022  0.7382  0.2950 -0.2247
  266MOL0     C35787   3.940   2.260   7.019  0.3575 -0.6242 -0.2479
  266MOL0     C35788   3.978   2.156   6.903 -0.1154  0.2376 -0.3037
  266MOL0     C35789   4.120   2.111   6.937  1.0990  0.6035  0.3305
  266MOL0     C35790   4.218   2.229   6.927 -0.1113  0.7944 -0.4607
  266MOL0     C35791   4.371   2.187   6.923  0.0039  0.0948  0.7065
  266MOL0     N35792   4.403   2.180   6.777 -0.0625 -0.4961  0.4148
  266MOL0     C35793   4.354   2.089   6.684  0.8500 -0.6060 -0.4478
  266MOL0     C35794   4.439   2.100   6.584 -0.4436 -0.4224 -0.1871
  266MOL0     C35795   4.437   2.010   6.465  0.6520  0.3844  0.1609
  266MOL0     C35796   4.326   2.051   6.363 -0.8922  0.1915  0.0151
  266MOL0     C35797   4.380   2.163   6.268  0.2353  0.0971  0.4076
  266MOL0     C35798   4.268   2.225   6.188  0.0347  0.0906 -0.0135
  266MOL0     O35799   4.181   2.126   6.126  0.1093  1.0465  1.0836
  266MOL0     C35800   4.236   2.087   5.995  0.9555 -0.8315 -0.0184
  266MOL0     C35801   4.183   2.158   5.885  0.1337 -0.0162  0.4329
  266MOL0     C35802   4.236   2.131   5.752  0.6616  0.3764  0.0833
  266MOL0     C35803   4.175   2.211   5.640 -0.2244 -0.2064 -0.3215
  266MOL0     C35804   4.326   2.026   5.735 -0.0284 -0.7289  0.7873
  266MOL0     C35805   4.384   1.990   5.605  0.5736 -0.0318 -1.2524
  266MOL0     O35806   4.409   2.090   5.509 -0.2845  0.3392 -0.7812
  266MOL0     C35807   4.408   2.038   5.381 -1.3094 -0.5336 -0.3001
  266MOL0     C35808   4.293   2.047   5.319  0.3086  0.0665  0.6271
  266MOL0     C35809   4.276   2.027   5.181 -0.1453 -0.2487  0.3661
  266MOL0     C35810   4.397   2.010   5.103 -0.1560 -0.2523 -0.1542
  266MOL0     O35811   4.412   1.988   4.968  0.1583 -0.4118 -0.1030
  266MOL0     C35812   4.301   1.938   4.897  0.6070 -1.1382 -0.0322
  266MOL0     C35813   4.352   1.842   4.789  0.2149  0.2261 -1.0264
  266MOL0     C35814   4.358   1.701   4.846 -0.8158  0.8927  0.8265
  266MOL0     C35815   4.442   1.606   4.756 -0.0504  0.8303 -1.2286
  266MOL0     C35816   4.486   1.485   4.844 -0.4614 -0.0269 -0.6828
  266MOL0     C35817   4.595   1.401   4.785 -0.2007 -0.1734  0.5757
  266MOL0     C35818   4.553   1.356   4.641 -1.6374  1.1179 -0.0267
  266MOL0     C35819   4.644   1.236   4.590  0.3967 -1.1643  0.0859
  266MOL0    Cl35820   4.595   1.202   4.434  0.1734  0.5607 -0.4224
  266MOL0     C35821   4.522   2.006   5.166  0.6039  0.1354 -0.5601
  266MOL0     C35822   4.534   2.024   5.308  0.3344 -0.2675  0.8520
  266MOL0     O35823   4.414   1.872   5.588 -0.3027 -1.7583  0.5798
  266MOL0     C35824   4.365   1.950   5.839  0.0425  0.0778  0.3470
  266MOL0     C35825   4.324   1.986   5.971 -0.1740  0.0602  0.3980
  266MOL0     N35826   4.530   2.203   6.612 -0.0832  0.7184  0.7406
  266MOL0     N35827   4.507   2.247   6.728 -0.7855  1.1340 -0.0614
  266MOL0     C35828   3.702   2.811   7.079  0.1939 -0.0543 -0.2425
  266MOL0     C35829   3.709   2.928   7.157 -0.0839  0.6671 -0.8199
  266MOL0     C35830   3.597   3.192   7.531  0.4669  1.0958  0.5145
  266MOL0     C35831   3.493   3.234   7.608 -0.7307 -0.3735  0.4381
  266MOL0     C35832   3.525   3.346   7.695  0.0402  0.7038 -0.5613
  266MOL0     C35833   3.652   3.407   7.707  0.1105 -0.3709 -1.3934
  266MOL0     O35834   3.689   3.510   7.796 -0.1340  0.8823  0.0448
  266MOL0     C35835   3.632   3.504   7.933 -0.0724 -0.3601  0.4714
  266MOL0     C35836   3.701   3.615   8.006 -0.2167 -0.1886  0.5696
  266MOL0     C35837   3.839   3.601   8.049 -1.3953  0.2710 -0.3363
  266MOL0     C35838   3.847   3.489   8.160 -0.1138  1.0574  0.3771
  266MOL0     C35839   3.915   3.539   8.281 -0.3547  0.1504 -0.7888
  266MOL0     C35840   3.953   3.601   8.376  0.1489 -0.0488 -0.3687
  266MOL0     C35841   3.749   3.354   7.632  0.0999 -0.8728  0.2669
  266MOL0     C35842   3.723   3.253   7.541 -0.2007  0.7328  0.1967
  266MOL0     H35843   3.636   2.800   7.459  1.5263  2.5372 -0.2376
  266MOL0     H35844   3.652   2.600   7.349 -6.1721 -1.0936 -0.3604
  266MOL0     H35845   3.758   2.595   6.883  2.8515  2.5409 -0.2657
  266MOL0     H35846   3.882   2.548   6.998 -0.2757 -0.3642  2.1741
  266MOL0     H35847   3.642   2.377   6.900 -0.9701  5.7248 -2.6467
  266MOL0     H35848   3.792   2.384   6.818 -1.0053  3.7148 -0.0858
  266MOL0     H35849   3.760   2.315   7.121 -0.1133 -1.3064  0.1251
  266MOL0     H35850   3.743   2.188   6.985 -0.3841  1.3656 -1.5538
  266MOL0     H35851   3.988   2.357   7.002 -0.6583 -0.0651  0.0053
  266MOL0     H35852   3.969   2.224   7.118  0.2042  1.7258  0.7398
  266MOL0     H35853   3.901   2.079   6.901  1.5841 -1.8136  3.5087
  266MOL0     H35854   3.973   2.212   6.808 -2.3721 -1.1226 -1.0681
  266MOL0     H35855   4.125   2.051   7.028  2.1987 -3.4578 -2.1498
  266MOL0     H35856   4.142   2.029   6.869 -0.7037 -0.2458  0.7187
  266MOL0     H35857   4.199   2.276   6.830 -1.0746  1.7284  0.1522
  266MOL0     H35858   4.205   2.293   7.015 -0.6267  0.6430 -0.4234
  266MOL0     H35859   4.390   2.095   6.979  0.8847  1.8487  3.5215
  266MOL0     H35860   4.439   2.264   6.960  1.1218 -0.4494 -0.1423
  266MOL0     H35861   4.281   2.010   6.703  2.2382 -1.3451  2.4759
  266MOL0     H35862   4.536   2.015   6.417  1.5827 -1.4222  1.7500
  266MOL0     H35863   4.422   1.906   6.496  1.1899 -0.2312 -1.4855
  266MOL0     H35864   4.239   2.084   6.421 -1.3180 -2.2589  0.8923
  266MOL0     H35865   4.291   1.967   6.303 -0.2265  0.3324 -0.5824
  266MOL0     H35866   4.456   2.127   6.198 -0.5475  0.6855 -0.7801
  266MOL0     H35867   4.435   2.248   6.309 -1.0873  2.0684 -1.6903
  266MOL0     H35868   4.310   2.287   6.108 -1.4484 -0.0407 -0.9217
  266MOL0     H35869   4.194   2.284   6.244 -0.9783 -3.0878  2.2394
  266MOL0     H35870   4.105   2.230   5.908  0.4402  0.1886  0.8566
  266MOL0     H35871   4.259   2.246   5.580  0.9818  0.3038  1.5861
  266MOL0     H35872   4.115   2.154   5.569  0.5704  2.1103 -3.0122
  266MOL0     H35873   4.118   2.301   5.666  1.9142  0.8052  1.2051
  266MOL0     H35874   4.208   2.093   5.368 -0.1964 -0.2692  0.0721
  266MOL0     H35875   4.185   2.037   5.123  2.8800  3.8694 -4.6270
  266MOL0     H35876   4.234   1.892   4.970 -2.2475  2.0199 -0.4186
  266MOL0     H35877   4.245   2.020   4.852  2.7528  0.4991  0.1181
  266MOL0     H35878   4.296   1.838   4.695  0.1354  0.5635 -0.9941
  266MOL0     H35879   4.453   1.864   4.753 -0.1430 -0.9828 -2.9458
  266MOL0     H35880   4.262   1.654   4.868  0.9517 -2.8742  1.3139
  266MOL0     H35881   4.409   1.710   4.942  1.0031  3.6170 -0.2737
  266MOL0     H35882   4.380   1.568   4.674 -0.1112  0.7867 -1.1629
  266MOL0     H35883   4.529   1.662   4.722 -0.6491  2.4896 -0.1720
  266MOL0     H35884   4.408   1.409   4.851 -0.1411 -0.3363 -0.4670
  266MOL0     H35885   4.514   1.520   4.943  2.1542  0.0448 -1.3828
  266MOL0     H35886   4.693   1.451   4.785  1.2163 -2.7687  0.8047
  266MOL0     H35887   4.598   1.315   4.853 -6.6228 -1.3075  0.0222
  266MOL0     H35888   4.540   1.436   4.568  1.5281  1.5088 -0.2629
  266MOL0     H35889   4.450   1.320   4.650 -1.3048  0.5268  2.1916
  266MOL0     H35890   4.609   1.160   4.661 -1.9508  1.8657  2.5232
  266MOL0     H35891   4.752   1.252   4.589  0.5589 -2.0593  1.0311
  266MOL0     H35892   4.618   2.001   5.115 -0.7803  0.6866 -3.4442
  266MOL0     H35893   4.626   2.024   5.364 -0.1060  1.4877  1.6352
  266MOL0     H35894   4.422   1.857   5.833  0.8941  0.6632 -1.2582
  266MOL0     H35895   4.349   1.919   6.053  2.0542 -2.5055 -2.1883
  266MOL0     H35896   3.720   2.820   6.972 -0.5296  2.8694 -0.1920
  266MOL0     H35897   3.732   3.020   7.102  1.2281  0.3914 -0.7604
  266MOL0     H35898   3.392   3.194   7.609 -1.1350  0.5845 -0.1677
  266MOL0     H35899   3.449   3.366   7.770 -0.0359 -1.6123  0.0456
  266MOL0     H35900   3.525   3.524   7.922  0.3866  1.8130 -0.5020
  266MOL0     H35901   3.644   3.408   7.984 -0.4475  0.8236  2.9181
  266MOL0     H35902   3.636   3.646   8.088 -2.4846 -1.6643 -0.5862
  266MOL0     H35903   3.695   3.704   7.942  0.4362 -0.2373  0.4299
  266MOL0     H35904   3.874   3.698   8.085  1.0666 -0.3660 -0.8810
  266MOL0     H35905   3.900   3.565   7.966  0.8911  0.7382  1.0729
  266MOL0     H35906   3.906   3.408   8.116  0.0942  1.6180 -0.3990
  266MOL0     H35907   3.743   3.465   8.182 -0.4840  2.1824 -0.0358
  266MOL0     H35908   3.982   3.650   8.467  0.7372  0.4980 -0.8515
  266MOL0     H35909   3.847   3.400   7.643 -0.6102  0.0968  4.1139
  266MOL0     H35910   3.798   3.224   7.468  1.3394  2.2676  1.0971
  267MOL0     O35911   2.113   3.833   6.912 -0.0171 -0.0712 -0.2366
  267MOL0     C35912   2.086   3.736   6.983  0.4034 -0.6258 -0.6424
  267MOL0     O35913   1.963   3.713   7.044 -0.1777 -0.1765  0.1068
  267MOL0     C35914   1.861   3.801   7.049  0.2760  0.0256 -1.1120
  267MOL0     C35915   1.771   3.761   7.143  0.0399  0.0334  0.8573
  267MOL0     C35916   1.648   3.830   7.175 -0.0586 -0.6989  1.4465
  267MOL0     C35917   1.624   3.941   7.093  0.5859 -0.2679 -1.2771
  267MOL0     O35918   1.514   4.022   7.094  0.4936  0.0437  0.0229
  267MOL0     C35919   1.401   3.998   7.180 -0.2732  0.5696 -0.1110
  267MOL0     C35920   1.313   3.901   7.109  0.6485  0.5818 -0.2808
  267MOL0     C35921   1.194   3.855   7.194 -0.0877  0.5387  0.1975
  267MOL0     C35922   1.118   3.728   7.132 -0.5700  0.6774 -0.6477
  267MOL0     C35923   0.976   3.717   7.167  0.5599 -0.1228  0.0507
  267MOL0     C35924   0.916   3.579   7.122  0.4578 -0.0043 -0.6585
  267MOL0     C35925   0.991   3.453   7.165  0.1856  0.3102 -0.2457
  267MOL0     C35926   0.982   3.413   7.319 -0.8585 -0.2972  0.1357
  267MOL0     N35927   0.860   3.341   7.353  0.4682 -0.3402  0.0544
  267MOL0     C35928   0.728   3.389   7.341 -0.8234 -0.0453  0.2638
  267MOL0     C35929   0.652   3.299   7.406 -0.2923  1.1036 -0.0072
  267MOL0     C35930   0.511   3.321   7.438 -1.2794 -0.4114  0.8819
  267MOL0     C35931   0.400   3.314   7.329 -0.9674 -0.5137 -1.3341
  267MOL0     C35932   0.382   3.170   7.261 -0.3085 -0.3527 -0.2146
  267MOL0     C35933   0.299   3.183   7.148  0.0745 -0.2214 -0.1689
  267MOL0     O35934   0.289   3.062   7.069  0.5522  0.6794  0.6296
  267MOL0     C35935   0.201   3.057   6.970  1.5835  0.3337 -0.2304
  267MOL0     C35936   0.200   2.940   6.885 -1.3268  0.2271 -0.0893
  267MOL0     C35937   0.123   2.931   6.767  0.1882 -0.4570  1.0686
  267MOL0     C35938   0.150   2.812   6.670  0.7251  0.1905  0.4416
  267MOL0     C35939   0.025   3.033   6.742 -0.3905 -0.1918  0.0024
  267MOL0     C35940  -0.081   3.030   6.634  0.5017 -0.2032 -0.2254
  267MOL0     O35941  -0.125   3.155   6.588 -0.1638  0.6062  0.1108
  267MOL0     C35942  -0.256   3.164   6.544 -0.7187  0.5849 -1.2940
  267MOL0     C35943  -0.346   3.250   6.611  0.0954  0.1469  0.7390
  267MOL0     C35944  -0.476   3.244   6.578  0.3971 -0.2787  0.1284
  267MOL0     C35945  -0.530   3.151   6.484  0.8764  0.1279 -0.0618
  267MOL0     O35946  -0.664   3.164   6.462 -1.3659  0.4058  0.0473
  267MOL0     C35947  -0.734   3.057   6.384  0.1391  0.4433 -0.4028
  267MOL0     C35948  -0.712   2.916   6.442  0.1999  0.7287 -0.3295
  267MOL0     C35949  -0.836   2.820   6.431 -0.0072 -0.2143 -0.6972
  267MOL0     C35950  -0.870   2.790   6.287  0.1933  0.4644  0.3972
  267MOL0     C35951  -0.819   2.655   6.222  0.0898 -0.3814 -0.9006
  267MOL0     C35952  -0.672   2.651   6.223 -0.7455 -0.1238 -0.3908
  267MOL0     C35953  -0.607   2.752   6.119  1.8238 -0.1983  0.3785
  267MOL0     C35954  -0.462   2.711   6.116 -1.3396 -0.0614  0.2023
  267MOL0    Cl35955  -0.352   2.838   6.039 -0.4243 -0.2417  0.3986
  267MOL0     C35956  -0.437   3.071   6.411 -0.1916 -0.3925 -0.1499
  267MOL0     C35957  -0.304   3.076   6.448 -0.2257  0.8548  0.9007
  267MOL0     O35958  -0.115   2.921   6.591 -0.4859  0.3423 -0.3247
  267MOL0     C35959   0.023   3.148   6.830 -0.0883  0.1636 -1.1760
  267MOL0     C35960   0.107   3.160   6.939  0.9171 -0.1628 -0.9476
  267MOL0     N35961   0.735   3.187   7.438 -0.1911 -0.7573 -0.1611
  267MOL0     N35962   0.858   3.218   7.404 -0.2075 -0.3781  0.1723
  267MOL0     C35963   1.711   3.983   7.001  0.0135  0.1609 -0.1949
  267MOL0     C35964   1.828   3.911   6.972  0.6341 -0.4097 -0.4667
  267MOL0     C35965   2.198   3.638   6.992 -0.5551 -0.3899  0.4505
  267MOL0     C35966   2.201   3.524   7.080  0.0812 -0.5186  0.1249
  267MOL0     C35967   2.289   3.419   7.058 -0.7564 -0.1015 -0.3767
  267MOL0     C35968   2.387   3.430   6.953 -0.3826  0.3292  0.3832
  267MOL0     O35969   2.464   3.322   6.926 -0.3489  0.6380  0.0097
  267MOL0     C35970   2.534   3.297   6.800  0.4821 -0.0935  1.1409
  267MOL0     C35971   2.570   3.154   6.787 -0.2999 -0.6487  0.8447
  267MOL0     C35972   2.461   3.052   6.833 -0.0588  0.3588  0.5023
  267MOL0     C35973   2.469   2.926   6.752  0.4326 -0.4342 -0.6906
  267MOL0     C35974   2.596   2.865   6.767 -0.9481  1.3073 -0.5460
  267MOL0     C35975   2.685   2.784   6.803  0.3090 -0.1465  0.2797
  267MOL0     C35976   2.382   3.542   6.867  0.0886  0.0581 -0.5347
  267MOL0     C35977   2.301   3.654   6.894  0.4851  0.6285  0.1670
  267MOL0     H35978   1.808   3.703   7.226 -3.3510 -0.6263  2.0498
  267MOL0     H35979   1.589   3.793   7.258 -1.8342 -0.3087  0.4064
  267MOL0     H35980   1.422   3.961   7.281  0.1307 -0.7117 -0.6491
  267MOL0     H35981   1.340   4.089   7.189  0.7661  1.2274  0.4598
  267MOL0     H35982   1.280   3.947   7.014  0.2709  1.3582  0.2135
  267MOL0     H35983   1.377   3.815   7.089 -2.1906 -1.4286 -1.4686
  267MOL0     H35984   1.230   3.830   7.294  1.1294 -2.1181 -0.7946
  267MOL0     H35985   1.123   3.938   7.194  0.6620  1.1906  0.9839
  267MOL0     H35986   1.119   3.730   7.023 -1.0006 -0.3398 -0.6853
  267MOL0     H35987   1.171   3.641   7.172  0.1190  2.3209  2.2896
  267MOL0     H35988   0.965   3.724   7.276  3.2664 -0.5989  0.4063
  267MOL0     H35989   0.925   3.806   7.127 -0.0597  0.9647  2.9833
  267MOL0     H35990   0.813   3.575   7.157  0.8525  0.2133  0.5586
  267MOL0     H35991   0.910   3.588   7.013  2.8394 -1.7412 -1.0131
  267MOL0     H35992   0.966   3.361   7.112  0.5410 -1.6274  2.7253
  267MOL0     H35993   1.098   3.464   7.146  0.9905  0.5501  3.6380
  267MOL0     H35994   0.992   3.501   7.383 -3.0638  0.9308 -1.1076
  267MOL0     H35995   1.069   3.357   7.355 -1.2030  0.5921  2.4753
  267MOL0     H35996   0.698   3.488   7.308  1.2977  0.2258 -1.0266
  267MOL0     H35997   0.482   3.251   7.517 -1.6342  0.3883  1.4714
  267MOL0     H35998   0.512   3.418   7.489 -0.3785 -0.4152  0.9037
  267MOL0     H35999   0.423   3.392   7.255  0.7486  0.4064  0.0850
  267MOL0     H36000   0.308   3.333   7.386  0.1042 -1.9871  1.0103
  267MOL0     H36001   0.339   3.102   7.335 -0.5668  1.2493  1.1666
  267MOL0     H36002   0.472   3.125   7.219 -2.1526 -2.7892 -1.8602
  267MOL0     H36003   0.344   3.256   7.080 -0.5627 -2.0264 -2.6733
  267MOL0     H36004   0.196   3.209   7.174  0.3367  1.4131 -0.6396
  267MOL0     H36005   0.276   2.865   6.898  0.0714  1.3237 -1.5137
  267MOL0     H36006   0.149   2.840   6.564  4.0138 -1.5002 -0.1473
  267MOL0     H36007   0.249   2.774   6.696  0.0896 -1.9352 -0.0510
  267MOL0     H36008   0.077   2.730   6.671 -2.4841  2.6631 -2.8449
  267MOL0     H36009  -0.325   3.312   6.698  0.0586 -2.8171  3.0267
  267MOL0     H36010  -0.549   3.300   6.636 -0.6580 -5.1606  4.3387
  267MOL0     H36011  -0.842   3.070   6.394  0.2182 -0.0299  1.3769
  267MOL0     H36012  -0.693   3.054   6.283  0.7525  5.4772 -0.5625
  267MOL0     H36013  -0.622   2.872   6.398 -0.7227 -0.2439 -1.3374
  267MOL0     H36014  -0.687   2.929   6.547  0.1564  0.5421 -0.2959
  267MOL0     H36015  -0.920   2.874   6.476  1.3223  0.8737  0.5805
  267MOL0     H36016  -0.811   2.728   6.483  2.5208  2.1535  2.7611
  267MOL0     H36017  -0.978   2.775   6.279  0.4162 -0.8543 -0.4797
  267MOL0     H36018  -0.840   2.873   6.223 -4.2132  0.7639 -1.6168
  267MOL0     H36019  -0.865   2.642   6.124 -0.4437  0.8050 -0.8277
  267MOL0     H36020  -0.857   2.571   6.280 -2.0424  0.7533 -0.5759
  267MOL0     H36021  -0.637   2.677   6.323  0.4395  0.2882 -0.8985
  267MOL0     H36022  -0.640   2.549   6.199  0.2116 -0.0653  0.5806
  267MOL0     H36023  -0.624   2.858   6.140  2.7488  0.5016 -2.1452
  267MOL0     H36024  -0.652   2.729   6.022  3.3845 -0.3204 -0.3429
  267MOL0     H36025  -0.449   2.613   6.070  4.2563 -0.1760  1.3757
  267MOL0     H36026  -0.425   2.697   6.218  0.8468 -3.3182 -0.9201
  267MOL0     H36027  -0.460   2.997   6.334  0.2196 -0.9019  0.2090
  267MOL0     H36028  -0.226   3.014   6.404  0.1213  0.8084  1.5794
  267MOL0     H36029  -0.050   3.227   6.815 -0.9961 -0.5262 -0.5132
  267MOL0     H36030   0.115   3.257   6.986  0.4818 -0.0504 -1.1061
  267MOL0     H36031   1.695   4.069   6.936 -0.3432 -1.8834 -3.0450
  267MOL0     H36032   1.886   3.955   6.892  1.6776 -2.0685 -0.6746
  267MOL0     H36033   2.115   3.508   7.144  0.4357  2.7911  1.6394
  267MOL0     H36034   2.291   3.326   7.114 -1.4167 -0.3455 -0.7577
  267MOL0     H36035   2.469   3.322   6.715  0.2155 -0.6186  1.1892
  267MOL0     H36036   2.625   3.358   6.797  0.8628 -0.6854 -0.4171
  267MOL0     H36037   2.655   3.138   6.853  0.1586 -0.4017  0.3225
  267MOL0     H36038   2.605   3.126   6.687 -2.9330 -1.6809  0.1312
  267MOL0     H36039   2.362   3.093   6.807  0.0441 -0.4691 -1.3751
  267MOL0     H36040   2.474   3.039   6.941  0.1671  0.6454  0.5114
  267MOL0     H36041   2.460   2.956   6.647  3.1365  0.0505 -0.8719
  267MOL0     H36042   2.385   2.858   6.768 -0.0099  0.2325 -0.1217
  267MOL0     H36043   2.766   2.722   6.835  0.8073  0.4003  0.1055
  267MOL0     H36044   2.444   3.547   6.778  0.1603  3.3300 -0.4239
  267MOL0     H36045   2.317   3.742   6.833  2.7274 -0.6355 -1.1934
  268MOL0     O36046   0.012   0.131   6.552 -0.2452 -0.1084 -0.9499
  268MOL0     C36047  -0.043   0.079   6.448  1.8011  0.6295 -0.2280
  268MOL0     O36048  -0.083  -0.052   6.435  0.0965  0.0227  0.0324
  268MOL0     C36049  -0.068  -0.134   6.544 -0.1579  0.0372  0.0478
  268MOL0     C36050  -0.094  -0.111   6.681  1.1165 -0.0012  0.5614
  268MOL0     C36051  -0.108  -0.215   6.772  0.2173  1.4181  0.1987
  268MOL0     C36052  -0.091  -0.347   6.732  0.1826  0.1684  0.6389
  268MOL0     O36053  -0.098  -0.452   6.821 -0.2467 -0.0352 -0.4921
  268MOL0     C36054  -0.219  -0.451   6.896  0.1897 -0.0329 -1.3322
  268MOL0     C36055  -0.338  -0.475   6.808 -0.8295 -0.4333  1.0830
  268MOL0     C36056  -0.470  -0.516   6.874  0.0887  0.3131  0.6809
  268MOL0     C36057  -0.523  -0.406   6.953 -0.0479 -0.6813 -0.9569
  268MOL0     C36058  -0.668  -0.427   7.011  0.8149  0.6194 -0.0132
  268MOL0     C36059  -0.723  -0.283   7.071 -0.5291  0.2444  0.2358
  268MOL0     C36060  -0.794  -0.311   7.199  0.1928 -0.1853  0.5692
  268MOL0     C36061  -0.810  -0.187   7.283  1.0844 -0.2373 -0.6671
  268MOL0     N36062  -0.879  -0.215   7.405  0.2820  0.1466 -0.1462
  268MOL0     C36063  -1.019  -0.214   7.422  0.6911  0.9029 -0.4403
  268MOL0     C36064  -1.040  -0.258   7.547 -0.4656 -0.2989  0.0823
  268MOL0     C36065  -1.174  -0.259   7.611  0.0991 -0.6949 -0.6722
  268MOL0     C36066  -1.205  -0.406   7.644  0.5617  0.0776  1.8533
  268MOL0     C36067  -1.351  -0.440   7.672 -0.4310 -0.5291 -0.1823
  268MOL0     C36068  -1.367  -0.581   7.735  0.1288  0.0440  0.4193
  268MOL0     O36069  -1.281  -0.674   7.668 -0.5106 -0.1660  0.5913
  268MOL0     C36070  -1.313  -0.711   7.535 -0.0255  1.2518 -0.7666
  268MOL0     C36071  -1.208  -0.708   7.444  0.2126 -0.7891  0.2151
  268MOL0     C36072  -1.222  -0.755   7.312 -0.2036 -0.7553 -0.3787
  268MOL0     C36073  -1.106  -0.755   7.223  0.0101 -0.3194  0.2467
  268MOL0     C36074  -1.346  -0.813   7.268 -0.4025 -0.4392  0.1012
  268MOL0     C36075  -1.378  -0.884   7.145  0.5548 -0.3428  0.2335
  268MOL0     O36076  -1.503  -0.856   7.084  0.5051  0.1258 -0.1189
  268MOL0     C36077  -1.547  -0.944   6.983  0.7439 -0.1349 -0.3823
  268MOL0     C36078  -1.597  -0.897   6.861  0.4031 -0.0013 -0.1939
  268MOL0     C36079  -1.638  -0.985   6.758 -0.0326 -0.5755  0.0592
  268MOL0     C36080  -1.622  -1.126   6.776 -0.5736  0.6785  0.2112
  268MOL0     O36081  -1.675  -1.202   6.672 -0.6553 -0.1857 -0.2553
  268MOL0     C36082  -1.675  -1.341   6.674  0.4831 -0.0605 -0.1340
  268MOL0     C36083  -1.787  -1.398   6.584 -0.3661  0.2653  0.6472
  268MOL0     C36084  -1.789  -1.556   6.589 -0.8264 -0.5714 -0.5599
  268MOL0     C36085  -1.918  -1.589   6.516 -0.6623 -0.5691 -0.0865
  268MOL0     C36086  -1.959  -1.729   6.531  0.6161  0.5628 -0.4868
  268MOL0     C36087  -2.096  -1.756   6.448 -0.4772 -0.1485 -1.1432
  268MOL0     C36088  -2.072  -1.757   6.297 -0.9132  0.1697  0.7110
  268MOL0     C36089  -2.167  -1.836   6.209 -0.5068 -0.6293  0.3037
  268MOL0    Cl36090  -2.347  -1.804   6.226  0.3799 -0.2295  0.1356
  268MOL0     C36091  -1.568  -1.177   6.900  0.0657  0.1910  0.3485
  268MOL0     C36092  -1.538  -1.085   6.995  0.3485 -0.3677 -0.9197
  268MOL0     O36093  -1.280  -0.949   7.107  0.6413 -0.5029 -0.3181
  268MOL0     C36094  -1.452  -0.798   7.360 -0.2711 -0.1988 -0.1882
  268MOL0     C36095  -1.437  -0.752   7.487  0.6543  0.2254 -0.2991
  268MOL0     N36096  -0.916  -0.290   7.604  0.6549  0.7609 -0.6668
  268MOL0     N36097  -0.819  -0.267   7.515  0.7480  0.4365  0.6049
  268MOL0     C36098  -0.060  -0.375   6.599  0.5030  0.4596 -0.5912
  268MOL0     C36099  -0.041  -0.269   6.511  0.7780 -0.1851  0.0529
  268MOL0     C36100  -0.066   0.173   6.340  1.3383 -0.5008 -0.3044
  268MOL0     C36101  -0.106   0.307   6.363 -0.7313 -0.3693 -0.7784
  268MOL0     C36102  -0.139   0.396   6.255 -0.1928  0.2495 -0.3314
  268MOL0     C36103  -0.149   0.346   6.121  0.2972 -0.5991 -0.1597
  268MOL0     O36104  -0.184   0.416   6.014  0.7472  0.4218  0.0460
  268MOL0     C36105  -0.271   0.533   6.032 -0.5780  1.2685  0.6949
  268MOL0     C36106  -0.368   0.550   5.908  0.2429  0.7245  0.1999
  268MOL0     C36107  -0.495   0.596   5.966  0.7423  0.2515 -0.0795
  268MOL0     C36108  -0.591   0.670   5.880 -0.0774 -0.0796 -0.1604
  268MOL0     C36109  -0.729   0.608   5.882 -0.4135 -0.1798  0.3035
  268MOL0     C36110  -0.841   0.570   5.864 -0.4510 -0.2312  0.2752
  268MOL0     C36111  -0.114   0.214   6.103  0.0727  0.5188 -0.3743
  268MOL0     C36112  -0.071   0.132   6.208 -0.8207 -0.4234 -0.3625
  268MOL0     H36113  -0.126  -0.010   6.705  1.6609  0.9448 -2.2921
  268MOL0     H36114  -0.134  -0.196   6.876 -2.0753 -0.6600  0.0950
  268MOL0     H36115  -0.207  -0.540   6.958  3.2582  2.7160  2.4829
  268MOL0     H36116  -0.238  -0.372   6.969 -1.5402 -1.7204  0.1270
  268MOL0     H36117  -0.349  -0.384   6.748 -1.5846  0.0088  1.8695
  268MOL0     H36118  -0.309  -0.555   6.739 -0.8185  1.1195 -0.8260
  268MOL0     H36119  -0.551  -0.542   6.805  0.4015  0.9317  0.0626
  268MOL0     H36120  -0.457  -0.602   6.939 -3.2258 -1.1969 -0.4573
  268MOL0     H36121  -0.461  -0.381   7.039 -3.5608  2.8971  0.8400
  268MOL0     H36122  -0.531  -0.319   6.888  0.9389 -0.3404 -0.6376
  268MOL0     H36123  -0.737  -0.464   6.935  0.0301  2.2136 -0.1191
  268MOL0     H36124  -0.669  -0.504   7.089 -0.4371  0.1642 -0.4631
  268MOL0     H36125  -0.642  -0.210   7.085  0.2153 -0.9748  2.8964
  268MOL0     H36126  -0.800  -0.256   6.998  0.4164 -1.9725 -1.7169
  268MOL0     H36127  -0.889  -0.360   7.175  0.6594  0.5849 -3.7361
  268MOL0     H36128  -0.749  -0.388   7.263  0.4519 -0.6708 -0.1725
  268MOL0     H36129  -0.877  -0.117   7.232 -2.1775 -0.8929  2.3631
  268MOL0     H36130  -0.710  -0.145   7.301  0.7592  0.5989 -0.7381
  268MOL0     H36131  -1.098  -0.165   7.366 -2.3233  0.3878  3.0066
  268MOL0     H36132  -1.168  -0.195   7.699  1.3356  3.4811 -3.5072
  268MOL0     H36133  -1.253  -0.223   7.545 -0.2564  0.4633  0.3446
  268MOL0     H36134  -1.130  -0.455   7.707  1.3720 -1.1080  0.0578
  268MOL0     H36135  -1.191  -0.458   7.549 -0.5290  0.0549  1.6981
  268MOL0     H36136  -1.421  -0.427   7.590 -1.8655  1.6162  1.2602
  268MOL0     H36137  -1.378  -0.373   7.755  1.6691 -0.3968  0.4775
  268MOL0     H36138  -1.469  -0.613   7.758 -0.1408 -0.2575 -1.1208
  268MOL0     H36139  -1.338  -0.568   7.840 -0.8743 -2.7732  1.1406
  268MOL0     H36140  -1.116  -0.663   7.478  0.0969  0.9309 -1.6252
  268MOL0     H36141  -1.134  -0.754   7.118 -3.7017  2.1733  1.0568
  268MOL0     H36142  -1.043  -0.667   7.243  1.3616 -1.5800  1.8222
  268MOL0     H36143  -1.038  -0.838   7.240  0.4750 -0.3252 -1.4930
  268MOL0     H36144  -1.618  -0.793   6.835 -2.7222 -1.6164 -5.7161
  268MOL0     H36145  -1.677  -0.945   6.665  4.7671 -0.5894 -2.2374
  268MOL0     H36146  -1.580  -1.389   6.649  1.7691  1.1828  2.1178
  268MOL0     H36147  -1.710  -1.363   6.775  0.4950  0.7054  0.0431
  268MOL0     H36148  -1.881  -1.362   6.627  0.6542  2.4634  1.1831
  268MOL0     H36149  -1.758  -1.356   6.487 -1.5671 -2.0703 -0.8098
  268MOL0     H36150  -1.799  -1.601   6.688  0.6994  0.5032  0.1109
  268MOL0     H36151  -1.697  -1.589   6.539 -0.6742  1.5723 -1.7899
  268MOL0     H36152  -2.006  -1.543   6.563 -1.2687 -1.9926  0.2135
  268MOL0     H36153  -1.900  -1.552   6.415  1.2242  0.8710  0.7222
  268MOL0     H36154  -1.982  -1.758   6.634  0.2216 -1.7346 -1.1672
  268MOL0     H36155  -1.879  -1.797   6.503  1.1705  1.0447 -0.0936
  268MOL0     H36156  -2.131  -1.854   6.483 -3.7686  1.2742 -0.1622
  268MOL0     H36157  -2.172  -1.684   6.478  0.3054  0.5905 -0.8795
  268MOL0     H36158  -1.981  -1.819   6.292 -1.8796 -1.3696  1.4324
  268MOL0     H36159  -2.074  -1.660   6.246  1.4574 -0.1090 -0.0747
  268MOL0     H36160  -2.152  -1.941   6.234  1.0843 -0.8068 -1.2045
  268MOL0     H36161  -2.133  -1.819   6.106 -2.9449  3.7139 -0.0104
  268MOL0     H36162  -1.559  -1.284   6.920  1.6737  0.3802  0.8528
  268MOL0     H36163  -1.508  -1.121   7.093  0.8186 -0.0458 -0.9394
  268MOL0     H36164  -1.549  -0.824   7.317  1.1918 -3.2847 -1.8926
  268MOL0     H36165  -1.525  -0.740   7.548 -1.2187  0.8447 -2.9439
  268MOL0     H36166  -0.045  -0.478   6.569  2.0859  0.6067 -0.4013
  268MOL0     H36167  -0.026  -0.288   6.405 -1.2758  2.9893 -0.9312
  268MOL0     H36168  -0.127   0.348   6.461 -0.4027 -1.9510 -0.0263
  268MOL0     H36169  -0.147   0.505   6.254 -0.1308  0.2516 -1.3844
  268MOL0     H36170  -0.325   0.544   6.127 -0.7988 -0.6616  0.8216
  268MOL0     H36171  -0.198   0.614   6.021  0.5993  0.0508 -0.9740
  268MOL0     H36172  -0.391   0.452   5.865  0.6574  1.0349 -0.7607
  268MOL0     H36173  -0.321   0.614   5.832 -0.6880 -0.8513 -1.8012
  268MOL0     H36174  -0.488   0.654   6.059 -2.2215  0.6411  0.0002
  268MOL0     H36175  -0.547   0.505   5.995  1.4570  0.5922  2.5064
  268MOL0     H36176  -0.552   0.657   5.778 -1.0348 -3.1741 -0.2607
  268MOL0     H36177  -0.592   0.772   5.917  2.8571 -0.6984  1.9322
  268MOL0     H36178  -0.938   0.539   5.833 -1.2317  1.3468  0.9944
  268MOL0     H36179  -0.115   0.187   5.998  0.4882 -0.8560 -0.0432
  268MOL0     H36180  -0.063   0.024   6.195 -2.9103 -0.7083  0.4549
  269MOL0     O36181   2.429   6.343   0.973  0.2854  0.2835  0.1577
  269MOL0     C36182   2.519   6.289   1.034  0.0902 -0.9984  0.2254
  269MOL0     O36183   2.601   6.192   0.991 -0.2862 -0.4891  0.3856
  269MOL0     C36184   2.573   6.134   0.873  0.6334  0.8663  0.1984
  269MOL0     C36185   2.549   5.998   0.888 -0.6895  0.2240  0.2632
  269MOL0     C36186   2.514   5.929   0.771  0.5284  0.0479 -0.6253
  269MOL0     C36187   2.500   5.987   0.647 -0.5694 -0.5119 -0.8020
  269MOL0     O36188   2.488   5.901   0.542  1.1059  0.3759  0.5827
  269MOL0     C36189   2.465   5.754   0.552 -0.3508  0.0642  0.6965
  269MOL0     C36190   2.462   5.681   0.421 -0.1387  0.3778  0.3854
  269MOL0     C36191   2.574   5.742   0.338  0.2907  0.2483 -0.4362
  269MOL0     C36192   2.608   5.633   0.221  0.5898 -0.8598 -0.0449
  269MOL0     C36193   2.717   5.694   0.127 -0.5794  0.9467 -0.4152
  269MOL0     C36194   2.733   5.612   0.005  0.0753  0.4444  0.6982
  269MOL0     C36195   2.838   5.673  -0.090  0.0589 -0.6283 -0.1769
  269MOL0     C36196   2.870   5.577  -0.204  1.0250  0.2411  0.4334
  269MOL0     N36197   2.809   5.607  -0.338  0.7201 -0.0196  0.2933
  269MOL0     C36198   2.862   5.607  -0.461  0.2160  0.5332  0.5791
  269MOL0     C36199   2.762   5.611  -0.550 -0.0122  0.3590 -0.0356
  269MOL0     C36200   2.794   5.638  -0.699  0.1410 -0.4460 -0.4078
  269MOL0     C36201   2.827   5.790  -0.717  0.3028 -0.0782  0.8982
  269MOL0     C36202   2.830   5.820  -0.867  0.3859 -0.4601 -0.3270
  269MOL0     C36203   2.829   5.977  -0.872  0.5406  1.3733 -0.4062
  269MOL0     O36204   2.894   6.033  -0.983  0.2351 -0.0346  0.4241
  269MOL0     C36205   2.828   6.048  -1.104  0.2180 -0.0522  0.0570
  269MOL0     C36206   2.693   6.004  -1.130 -0.7004 -0.1944 -0.0667
  269MOL0     C36207   2.643   6.019  -1.260  0.0542  0.0878 -0.9093
  269MOL0     C36208   2.499   5.983  -1.275 -0.1082 -0.1363 -0.1293
  269MOL0     C36209   2.724   6.047  -1.359 -0.5671 -0.7319 -0.4457
  269MOL0     C36210   2.666   6.065  -1.496  0.7548 -0.6368  0.9126
  269MOL0     O36211   2.599   6.179  -1.511  0.0770 -0.4261  0.7602
  269MOL0     C36212   2.532   6.198  -1.636  0.4100 -0.1062 -0.3087
  269MOL0     C36213   2.401   6.152  -1.656  1.4313  0.0662  0.8578
  269MOL0     C36214   2.334   6.187  -1.779 -0.0135  1.1738  0.5270
  269MOL0     C36215   2.397   6.242  -1.887  0.4929  0.1706  0.0693
  269MOL0     O36216   2.323   6.261  -2.001 -0.4981 -1.1361 -0.5062
  269MOL0     C36217   2.375   6.198  -2.122  0.3324  0.8060  1.1152
  269MOL0     C36218   2.269   6.083  -2.148 -0.6579 -0.4740 -0.7417
  269MOL0     C36219   2.331   5.976  -2.230 -0.5400 -0.5001  0.3807
  269MOL0     C36220   2.433   5.893  -2.156  0.0918  0.4277 -0.4695
  269MOL0     C36221   2.460   5.758  -2.214  0.1765 -0.2912 -0.7927
  269MOL0     C36222   2.366   5.647  -2.148  0.5004  0.2964 -0.1547
  269MOL0     C36223   2.416   5.506  -2.159  0.4883 -0.3643  0.1328
  269MOL0     C36224   2.307   5.414  -2.107  0.4887 -0.8505 -0.5525
  269MOL0    Cl36225   2.263   5.459  -1.941  0.1365 -0.4925 -0.0333
  269MOL0     C36226   2.533   6.277  -1.866  0.2057  0.1710  0.3512
  269MOL0     C36227   2.595   6.259  -1.740 -0.2415 -0.8322  0.0033
  269MOL0     O36228   2.676   5.980  -1.580 -0.7317 -0.3949  0.5653
  269MOL0     C36229   2.847   6.093  -1.337 -0.6889 -0.2195  0.6033
  269MOL0     C36230   2.899   6.099  -1.215 -0.0255 -0.5633 -0.7441
  269MOL0     N36231   2.645   5.622  -0.487 -0.1882 -0.5297 -0.4631
  269MOL0     N36232   2.670   5.603  -0.364 -0.3158  0.4516  0.7974
  269MOL0     C36233   2.522   6.122   0.635 -1.0277 -0.3724  0.6526
  269MOL0     C36234   2.567   6.194   0.747 -0.1525  1.5151  0.8507
  269MOL0     C36235   2.527   6.348   1.163  0.6484  0.4658  0.5719
  269MOL0     C36236   2.461   6.307   1.277  0.7669 -0.5737 -0.0746
  269MOL0     C36237   2.459   6.383   1.392  0.2349 -0.9729  0.9237
  269MOL0     C36238   2.539   6.494   1.408  0.6789  2.2614  0.6034
  269MOL0     O36239   2.520   6.567   1.526  0.0302  0.3240 -0.3376
  269MOL0     C36240   2.614   6.683   1.544  0.6027  0.2435  0.3847
  269MOL0     C36241   2.597   6.750   1.679 -0.8973  0.2731  0.0763
  269MOL0     C36242   2.643   6.649   1.794 -0.2255 -0.0077  0.3280
  269MOL0     C36243   2.591   6.682   1.929  0.3349  0.9653 -0.2008
  269MOL0     C36244   2.638   6.611   2.047 -0.3029 -0.3256  0.8477
  269MOL0     C36245   2.664   6.542   2.144 -0.0816  0.0339  0.1302
  269MOL0     C36246   2.605   6.533   1.294 -0.3730 -0.6134  0.3357
  269MOL0     C36247   2.602   6.465   1.169 -0.1309  0.3208 -0.2914
  269MOL0     H36248   2.565   5.954   0.986 -0.9159 -0.5485 -0.0377
  269MOL0     H36249   2.497   5.822   0.782  2.4363 -0.1695  0.6995
  269MOL0     H36250   2.543   5.710   0.614 -0.5180  0.8319  1.4806
  269MOL0     H36251   2.369   5.751   0.605 -0.9196 -0.2289 -0.3272
  269MOL0     H36252   2.469   5.573   0.433  0.3588  0.2460 -0.9409
  269MOL0     H36253   2.365   5.677   0.370  0.2675  0.5691 -0.4228
  269MOL0     H36254   2.545   5.840   0.299  0.5267  0.2749 -0.5460
  269MOL0     H36255   2.667   5.752   0.395 -0.0637 -2.5671  0.7862
  269MOL0     H36256   2.643   5.542   0.271  4.6758  0.6430  0.2358
  269MOL0     H36257   2.524   5.614   0.153 -0.9483 -0.3180  1.6317
  269MOL0     H36258   2.689   5.793   0.093 -1.1985  1.7732  2.2264
  269MOL0     H36259   2.802   5.698   0.196 -1.4466  0.8824  0.6974
  269MOL0     H36260   2.753   5.517   0.056 -1.4831 -0.1510  0.2587
  269MOL0     H36261   2.637   5.616  -0.047 -0.5013 -0.4412  1.6565
  269MOL0     H36262   2.824   5.775  -0.127 -0.6012  0.0619  1.8647
  269MOL0     H36263   2.926   5.679  -0.027  0.8223 -1.8803 -1.0686
  269MOL0     H36264   2.847   5.471  -0.187 -1.9570  0.7093 -0.1207
  269MOL0     H36265   2.976   5.596  -0.224  1.4861 -1.8630  0.6394
  269MOL0     H36266   2.971   5.611  -0.465  0.3225 -0.8711  1.3967
  269MOL0     H36267   2.879   5.573  -0.720 -0.3023 -2.4060  3.1287
  269MOL0     H36268   2.709   5.600  -0.757  0.0972 -1.1897  0.1428
  269MOL0     H36269   2.917   5.824  -0.666 -0.5758  3.1875  0.4604
  269MOL0     H36270   2.744   5.846  -0.672  0.0647  0.4135 -0.1276
  269MOL0     H36271   2.737   5.789  -0.915 -0.2691 -0.5845  0.9723
  269MOL0     H36272   2.909   5.779  -0.930  0.5430  0.7510 -0.9508
  269MOL0     H36273   2.866   6.032  -0.785 -0.8944  5.4524 -2.1210
  269MOL0     H36274   2.721   5.997  -0.871  0.3367  0.3720  1.2636
  269MOL0     H36275   2.626   5.961  -1.056  0.4197 -1.3897  0.2940
  269MOL0     H36276   2.450   5.939  -1.188 -3.5271  2.7287 -0.3767
  269MOL0     H36277   2.445   6.074  -1.302  2.5900  1.0403 -2.0092
  269MOL0     H36278   2.490   5.919  -1.363 -1.2697  0.1268 -0.2062
  269MOL0     H36279   2.339   6.094  -1.588  1.7874 -2.5965 -0.9069
  269MOL0     H36280   2.229   6.166  -1.800 -1.0959  2.5308  3.8524
  269MOL0     H36281   2.375   6.275  -2.199  4.6145  2.4670  2.4595
  269MOL0     H36282   2.472   6.147  -2.117  0.3658  0.7290 -0.1312
  269MOL0     H36283   2.244   6.039  -2.051  1.3698  1.7520  0.9022
  269MOL0     H36284   2.181   6.128  -2.195 -1.6694  1.1085  2.3294
  269MOL0     H36285   2.383   6.017  -2.316 -2.2353  2.3951  0.6300
  269MOL0     H36286   2.251   5.914  -2.271 -1.9951 -0.1980  2.6096
  269MOL0     H36287   2.525   5.948  -2.133 -1.3898  1.0644  6.1132
  269MOL0     H36288   2.402   5.878  -2.052  0.9047 -1.4100 -0.4538
  269MOL0     H36289   2.562   5.730  -2.186  1.0768  1.6530 -1.9574
  269MOL0     H36290   2.447   5.778  -2.321  0.2192  1.9664 -0.4116
  269MOL0     H36291   2.353   5.687  -2.047  0.9360 -1.4039  0.5999
  269MOL0     H36292   2.271   5.652  -2.201  1.0473 -0.4698 -1.2471
  269MOL0     H36293   2.504   5.509  -2.094  1.9878  0.2537 -1.8065
  269MOL0     H36294   2.452   5.483  -2.260 -3.2224  1.2088 -1.7582
  269MOL0     H36295   2.329   5.308  -2.123 -0.2560 -0.8159 -2.0343
  269MOL0     H36296   2.217   5.428  -2.167 -1.2184 -0.4869  1.9368
  269MOL0     H36297   2.584   6.315  -1.953 -0.5122 -1.1490 -0.6778
  269MOL0     H36298   2.699   6.290  -1.735  0.5063 -3.1002 -0.4041
  269MOL0     H36299   2.904   6.127  -1.424  0.0083 -2.1072  0.2951
  269MOL0     H36300   3.002   6.131  -1.213 -0.8589  2.4682  1.9869
  269MOL0     H36301   2.514   6.173   0.540 -2.0160  3.4205  2.5695
  269MOL0     H36302   2.585   6.301   0.748 -1.7580  1.8102  1.1053
  269MOL0     H36303   2.394   6.222   1.273  0.0516 -0.0803  0.8142
  269MOL0     H36304   2.394   6.359   1.476  1.0150 -2.6490  1.1050
  269MOL0     H36305   2.720   6.656   1.539  0.9768  1.8005 -1.2369
  269MOL0     H36306   2.591   6.765   1.475 -0.7662  1.7925  2.5354
  269MOL0     H36307   2.495   6.789   1.684 -0.5632  0.9936  2.4347
  269MOL0     H36308   2.661   6.838   1.668 -0.5830 -0.2400 -2.9333
  269MOL0     H36309   2.752   6.645   1.801 -0.2665 -2.1044  0.4331
  269MOL0     H36310   2.595   6.553   1.770 -1.6042  0.8478 -0.5302
  269MOL0     H36311   2.482   6.669   1.926  0.3534  0.9753 -1.1449
  269MOL0     H36312   2.620   6.786   1.941 -1.5655  1.6229 -0.8238
  269MOL0     H36313   2.696   6.484   2.228  0.3187  0.6249  0.3921
  269MOL0     H36314   2.659   6.628   1.296  2.6112 -2.0273 -2.5019
  269MOL0     H36315   2.651   6.509   1.083  0.3482  1.1009  0.3659
  270MOL0     O36316   6.499   5.756   8.794 -0.3335 -0.0658  0.6096
  270MOL0     C36317   6.587   5.814   8.858  0.8155 -0.7569  1.0297
  270MOL0     O36318   6.628   5.799   8.982 -0.1249  0.2207  0.0522
  270MOL0     C36319   6.574   5.688   9.043  0.8014  0.4553  0.1776
  270MOL0     C36320   6.447   5.701   9.096 -0.0745  0.1435 -0.3744
  270MOL0     C36321   6.388   5.595   9.158 -0.2637  0.8238 -0.6444
  270MOL0     C36322   6.465   5.479   9.179 -0.2313  0.3947  0.8011
  270MOL0     O36323   6.421   5.380   9.268 -0.1070  0.0067  0.2054
  270MOL0     C36324   6.447   5.245   9.229  0.2709 -0.3522  0.5410
  270MOL0     C36325   6.581   5.185   9.286 -0.0024 -0.4478  0.1828
  270MOL0     C36326   6.551   5.042   9.342 -0.0043  0.2127  0.3422
  270MOL0     C36327   6.679   5.001   9.436 -0.4513 -1.0396 -0.4419
  270MOL0     C36328   6.672   4.871   9.517 -1.0329  0.5510  1.2830
  270MOL0     C36329   6.644   4.741   9.448 -0.1028  0.1308 -0.4321
  270MOL0     C36330   6.742   4.707   9.322  0.4263 -0.3007 -0.9438
  270MOL0     C36331   6.699   4.571   9.265 -0.4495  0.2445 -0.0797
  270MOL0     N36332   6.580   4.507   9.306 -0.1389  0.7481  0.5631
  270MOL0     C36333   6.465   4.529   9.232 -0.0327 -0.3482 -0.2566
  270MOL0     C36334   6.376   4.455   9.303 -0.0153 -0.6055 -0.7140
  270MOL0     C36335   6.233   4.498   9.298  0.6516 -0.0824 -0.1854
  270MOL0     C36336   6.145   4.487   9.429  0.2503 -0.4388  0.4547
  270MOL0     C36337   6.002   4.451   9.398 -1.0452 -0.3747  0.2220
  270MOL0     C36338   5.932   4.351   9.497  0.1993 -0.5841  0.1398
  270MOL0     O36339   5.794   4.361   9.463 -0.2862  0.1037 -0.1508
  270MOL0     C36340   5.714   4.332   9.570  0.3410 -0.4926 -0.1560
  270MOL0     C36341   5.648   4.431   9.638  0.5485 -0.0585  0.5031
  270MOL0     C36342   5.582   4.408   9.756  0.6257 -0.5608 -0.2064
  270MOL0     C36343   5.509   4.531   9.815  0.7142 -0.5343 -1.0225
  270MOL0     C36344   5.578   4.280   9.811  0.7767  0.5631 -0.4101
  270MOL0     C36345   5.490   4.258   9.937 -0.5060  1.1800 -0.0613
  270MOL0     O36346   5.526   4.143  10.004  0.9399  0.4842  0.0542
  270MOL0     C36347   5.442   4.104  10.100 -0.8261  0.2644  0.2326
  270MOL0     C36348   5.311   4.072  10.075  1.0317  0.4773 -0.3424
  270MOL0     C36349   5.239   4.009  10.184 -0.2890 -0.1164 -0.1313
  270MOL0     C36350   5.296   3.996  10.315  0.0778  0.0509  0.5635
  270MOL0     O36351   5.213   3.941  10.404  0.1533  0.5666  0.8202
  270MOL0     C36352   5.190   4.008  10.525 -0.5124  0.8422  0.0125
  270MOL0     C36353   5.047   3.966  10.547  0.5563 -0.0935  0.9067
  270MOL0     C36354   5.015   3.814  10.539 -0.0689  1.0491  0.0533
  270MOL0     C36355   5.062   3.759  10.673 -0.6314 -0.6205  0.2631
  270MOL0     C36356   5.019   3.614  10.697 -0.0653  0.7069 -0.7451
  270MOL0     C36357   5.091   3.555  10.818  0.1460  0.2196 -1.3388
  270MOL0     C36358   5.239   3.528  10.788  0.0719  0.7090  0.2573
  270MOL0     C36359   5.309   3.404  10.834 -0.1875  0.8521  0.2990
  270MOL0    Cl36360   5.303   3.394  11.016 -0.0241  0.2254 -0.3168
  270MOL0     C36361   5.429   4.041  10.338  0.1143 -0.0747 -0.6465
  270MOL0     C36362   5.501   4.092  10.225  0.5447  0.2903  0.3816
  270MOL0     O36363   5.386   4.321   9.953 -0.5294  1.0226  0.0062
  270MOL0     C36364   5.646   4.178   9.745 -1.0392 -0.3722 -0.2130
  270MOL0     C36365   5.709   4.198   9.610  0.2732 -0.3531 -0.5637
  270MOL0     N36366   6.443   4.376   9.397  1.1025 -1.0151 -1.2486
  270MOL0     N36367   6.562   4.407   9.397 -0.5826 -0.5758 -0.0755
  270MOL0     C36368   6.600   5.478   9.131 -0.1264  0.0655  0.3579
  270MOL0     C36369   6.661   5.581   9.063  0.3348 -0.8759 -0.1101
  270MOL0     C36370   6.653   5.927   8.781 -0.9300 -0.2165  0.5282
  270MOL0     C36371   6.624   5.953   8.647 -0.0468 -0.6175 -0.2845
  270MOL0     C36372   6.693   6.059   8.585  0.4071  0.4598 -0.3053
  270MOL0     C36373   6.780   6.143   8.661 -0.3805 -0.1246  0.0067
  270MOL0     O36374   6.851   6.257   8.623  0.0416  0.0253  0.2044
  270MOL0     C36375   6.873   6.289   8.484  0.4001 -0.0721  0.3690
  270MOL0     C36376   7.000   6.234   8.440  0.2138  0.2840  0.1355
  270MOL0     C36377   6.998   6.080   8.437 -0.9575  1.0645  0.8297
  270MOL0     C36378   7.132   6.031   8.368  0.0572  0.2924 -0.0819
  270MOL0     C36379   7.131   5.887   8.342  0.5088  0.0184  0.5896
  270MOL0     C36380   7.125   5.769   8.325  0.3217  0.0109 -0.5577
  270MOL0     C36381   6.804   6.113   8.793 -0.5530 -0.2644 -0.2467
  270MOL0     C36382   6.729   6.011   8.853 -0.3484 -0.3147  0.2105
  270MOL0     H36383   6.388   5.791   9.098  1.0504  0.9078 -0.7773
  270MOL0     H36384   6.285   5.605   9.191 -0.6476 -2.3734 -0.5141
  270MOL0     H36385   6.358   5.191   9.263 -0.6036 -1.0648 -2.5446
  270MOL0     H36386   6.432   5.228   9.122 -0.0412 -1.3065  0.7268
  270MOL0     H36387   6.645   5.184   9.197  0.7188  0.7857  0.6664
  270MOL0     H36388   6.611   5.256   9.363 -2.7585 -1.1289  2.0424
  270MOL0     H36389   6.458   5.057   9.396 -0.9333 -1.0178 -0.8587
  270MOL0     H36390   6.542   4.963   9.267 -2.0094  1.0626 -0.3679
  270MOL0     H36391   6.771   5.011   9.377  2.3142 -1.9102  3.3737
  270MOL0     H36392   6.689   5.076   9.515  1.3797 -0.1378 -1.4768
  270MOL0     H36393   6.772   4.863   9.561 -0.1188  0.5740 -0.6848
  270MOL0     H36394   6.601   4.882   9.599 -0.4353  0.1292  1.8703
  270MOL0     H36395   6.658   4.658   9.518 -1.1538 -1.5049 -2.0338
  270MOL0     H36396   6.538   4.742   9.418 -0.6704  0.2392  1.4855
  270MOL0     H36397   6.712   4.785   9.252  0.3216 -0.2526 -0.8466
  270MOL0     H36398   6.847   4.710   9.351 -0.3319 -1.1920  2.3664
  270MOL0     H36399   6.785   4.508   9.289 -2.3423 -2.7233 -0.6223
  270MOL0     H36400   6.695   4.571   9.156  1.9503 -3.7990 -0.3463
  270MOL0     H36401   6.446   4.605   9.157 -0.2175  1.8894  1.9239
  270MOL0     H36402   6.229   4.598   9.253  3.0393  1.4563  2.6787
  270MOL0     H36403   6.199   4.429   9.220 -1.5124 -1.2099  1.6438
  270MOL0     H36404   6.132   4.585   9.477 -1.1705  0.4364 -1.5556
  270MOL0     H36405   6.174   4.413   9.503 -1.7635  2.1603  4.1782
  270MOL0     H36406   6.001   4.411   9.296  0.2841 -1.2705  0.5386
  270MOL0     H36407   5.953   4.549   9.404 -0.4882 -0.0803  0.0781
  270MOL0     H36408   5.938   4.389   9.600  2.2086 -3.2607  1.1346
  270MOL0     H36409   5.969   4.248   9.492  1.1288 -0.3350  1.3586
  270MOL0     H36410   5.662   4.533   9.606 -1.5497 -0.7789 -3.3197
  270MOL0     H36411   5.545   4.626   9.774  2.0569 -1.7058 -2.7318
  270MOL0     H36412   5.401   4.518   9.802  0.6512  0.1634 -1.2103
  270MOL0     H36413   5.536   4.529   9.921 -2.8980  1.8928  0.1066
  270MOL0     H36414   5.267   4.093   9.978  0.8241  3.6721  0.3487
  270MOL0     H36415   5.136   3.980  10.169  0.3175 -1.7264 -1.4573
  270MOL0     H36416   5.266   3.975  10.597  1.0038 -0.9998 -2.2525
  270MOL0     H36417   5.202   4.115  10.507  1.9065  1.0329  2.1990
  270MOL0     H36418   5.007   4.010  10.639  0.9315  0.9924  0.5599
  270MOL0     H36419   4.998   4.023  10.468  1.5784  0.9603  1.0176
  270MOL0     H36420   5.078   3.764  10.465 -1.5813 -0.4028 -0.3076
  270MOL0     H36421   4.910   3.792  10.521 -0.0684 -0.5722  1.7312
  270MOL0     H36422   5.171   3.769  10.679 -0.7100  1.5922 -0.9247
  270MOL0     H36423   5.009   3.827  10.740 -0.6342  2.0692 -2.2509
  270MOL0     H36424   5.038   3.551  10.609  2.4889  0.8614 -0.3614
  270MOL0     H36425   4.913   3.598  10.719  0.3947  0.3521  1.4388
  270MOL0     H36426   5.080   3.632  10.895  1.8026  0.0955 -0.9479
  270MOL0     H36427   5.031   3.471  10.855  1.4831  0.6681  2.2615
  270MOL0     H36428   5.291   3.620  10.818  0.2567  1.5001 -2.2248
  270MOL0     H36429   5.253   3.534  10.680 -0.2287  2.6841  0.2959
  270MOL0     H36430   5.255   3.323  10.785 -1.2793  1.1533  0.9740
  270MOL0     H36431   5.411   3.407  10.794 -1.5847  3.3841 -3.6750
  270MOL0     H36432   5.471   4.040  10.438 -1.0993  2.6218 -0.0196
  270MOL0     H36433   5.606   4.116  10.241  0.6465 -0.9758  1.8276
  270MOL0     H36434   5.644   4.076   9.783  2.3219  0.0333  1.4201
  270MOL0     H36435   5.741   4.117   9.545 -2.7607 -1.0488 -1.3253
  270MOL0     H36436   6.677   5.405   9.152  3.0665  2.5056 -1.7949
  270MOL0     H36437   6.766   5.587   9.039  0.5630 -0.1595  1.0114
  270MOL0     H36438   6.559   5.896   8.581  1.4762 -0.7222 -1.7683
  270MOL0     H36439   6.675   6.067   8.478  0.0568 -0.2963 -0.3109
  270MOL0     H36440   6.799   6.246   8.416  1.7681 -1.6365 -0.1989
  270MOL0     H36441   6.869   6.397   8.466 -0.8498 -0.6693 -4.2412
  270MOL0     H36442   7.078   6.282   8.499 -1.5398  1.4468  1.6380
  270MOL0     H36443   7.002   6.275   8.339  2.1464  1.3470  0.5670
  270MOL0     H36444   6.916   6.045   8.372 -0.3086 -0.9771  1.0381
  270MOL0     H36445   6.982   6.033   8.534  1.4698 -3.3559 -0.6267
  270MOL0     H36446   7.209   6.063   8.439  0.7419  2.0799 -1.5531
  270MOL0     H36447   7.145   6.078   8.270  2.0120 -0.7661 -0.3861
  270MOL0     H36448   7.140   5.667   8.299  3.5672  0.8521 -2.4577
  270MOL0     H36449   6.868   6.177   8.852  2.2509 -2.4619 -0.6779
  270MOL0     H36450   6.723   6.008   8.962 -1.6083  0.4418  0.1828
  271MOL0     O36451   7.418   4.001   4.738 -0.1076  0.8484 -0.2416
  271MOL0     C36452   7.440   4.048   4.627 -0.0476  0.8377 -1.3685
  271MOL0     O36453   7.480   4.177   4.608  0.6122 -0.3028  0.1305
  271MOL0     C36454   7.526   4.244   4.719 -0.1650 -1.1855  0.3362
  271MOL0     C36455   7.650   4.206   4.774  0.4794  0.6191 -1.6209
  271MOL0     C36456   7.708   4.279   4.883  0.2534 -0.3484 -0.5684
  271MOL0     C36457   7.656   4.401   4.913 -0.2757 -1.0039  0.4446
  271MOL0     O36458   7.714   4.494   5.000  0.1938 -0.4481  0.1185
  271MOL0     C36459   7.823   4.465   5.084 -1.0554  0.1617  0.0382
  271MOL0     C36460   7.956   4.472   5.019  0.5150 -0.0295 -0.7968
  271MOL0     C36461   8.001   4.624   5.003  0.5058 -0.0616 -0.0113
  271MOL0     C36462   8.139   4.642   4.943  1.3125 -0.5041  0.1372
  271MOL0     C36463   8.151   4.776   4.866  0.4415 -0.3787 -0.3182
  271MOL0     C36464   8.072   4.804   4.734  0.6485  0.4150 -0.7074
  271MOL0     C36465   8.070   4.686   4.632 -0.0900  0.0339  0.6630
  271MOL0     C36466   8.010   4.740   4.493  0.0425  0.1477  0.6705
  271MOL0     N36467   8.125   4.812   4.428  0.7907  0.2553 -0.2106
  271MOL0     C36468   8.142   4.941   4.425 -0.2535 -0.5545  0.3960
  271MOL0     C36469   8.263   4.958   4.362  0.3404 -0.2520 -0.4333
  271MOL0     C36470   8.347   5.090   4.353  1.2003  0.2983  0.1027
  271MOL0     C36471   8.419   5.089   4.212 -1.2568 -0.2106  0.2493
  271MOL0     C36472   8.325   5.080   4.092  0.2826  1.0600 -0.2873
  271MOL0     C36473   8.398   5.104   3.963 -0.4459  0.1857  0.1262
  271MOL0     O36474   8.485   5.222   3.959  1.2843  0.3075 -0.0488
  271MOL0     C36475   8.420   5.330   3.906  0.1718  1.0276  0.4963
  271MOL0     C36476   8.517   5.411   3.856 -0.1989  0.3297 -0.5039
  271MOL0     C36477   8.473   5.520   3.776  0.4913 -0.5730 -0.2231
  271MOL0     C36478   8.572   5.629   3.728 -0.5360 -0.7942  0.2801
  271MOL0     C36479   8.338   5.530   3.729  1.0882  0.4498  0.6185
  271MOL0     C36480   8.286   5.605   3.620 -0.4970 -0.2158  0.2342
  271MOL0     O36481   8.363   5.604   3.504  1.0307  0.8019 -0.1147
  271MOL0     C36482   8.340   5.685   3.399 -0.7269 -0.5700 -0.1261
  271MOL0     C36483   8.214   5.696   3.332 -0.0441 -0.6843 -0.3508
  271MOL0     C36484   8.205   5.776   3.217 -0.3029 -0.7554 -1.0329
  271MOL0     C36485   8.312   5.858   3.172  1.6046  0.1617 -0.3937
  271MOL0     O36486   8.291   5.927   3.046  0.2297  0.2606 -0.0868
  271MOL0     C36487   8.406   5.968   2.975  0.0135 -0.0864  0.3548
  271MOL0     C36488   8.479   5.875   2.879  0.1747 -0.4731  1.1495
  271MOL0     C36489   8.394   5.769   2.809 -0.5045  0.0148  0.1481
  271MOL0     C36490   8.453   5.700   2.683 -0.4845  0.0320  0.2692
  271MOL0     C36491   8.344   5.621   2.611 -0.5396 -0.4875  0.2455
  271MOL0     C36492   8.226   5.708   2.550  0.0048  0.4722 -0.4691
  271MOL0     C36493   8.176   5.665   2.412  0.5968 -0.2396 -0.0473
  271MOL0     C36494   8.080   5.550   2.427 -0.0831 -0.0334  0.8485
  271MOL0    Cl36495   7.932   5.591   2.512 -0.3614 -0.2988  0.1967
  271MOL0     C36496   8.433   5.849   3.244  0.6093  0.4743 -0.2218
  271MOL0     C36497   8.445   5.761   3.353 -0.3402 -0.0449 -0.0225
  271MOL0     O36498   8.176   5.655   3.632  0.1998  0.3176 -0.0911
  271MOL0     C36499   8.242   5.453   3.796 -0.7296  0.5930 -1.5581
  271MOL0     C36500   8.283   5.357   3.892  0.9465  0.3544  0.2119
  271MOL0     N36501   8.299   4.833   4.311  0.3022 -0.6297 -0.1868
  271MOL0     N36502   8.221   4.748   4.368  1.1264  0.8837 -0.2419
  271MOL0     C36503   7.542   4.444   4.852  0.4086  0.1940  0.2430
  271MOL0     C36504   7.474   4.367   4.758  0.0078  0.2976 -0.1057
  271MOL0     C36505   7.418   3.963   4.505 -0.3074 -0.4917  0.1259
  271MOL0     C36506   7.356   3.837   4.523 -0.0412  0.0336 -0.3547
  271MOL0     C36507   7.346   3.749   4.412 -0.2527 -0.2640 -0.9441
  271MOL0     C36508   7.377   3.781   4.284  1.0087 -0.5579  0.3190
  271MOL0     O36509   7.373   3.692   4.179 -1.4093 -0.0991  0.5683
  271MOL0     C36510   7.387   3.740   4.047  0.3422 -0.5842  0.4924
  271MOL0     C36511   7.361   3.631   3.941  0.3629 -0.8166  0.4382
  271MOL0     C36512   7.340   3.699   3.809  0.2733  0.8918  1.0274
  271MOL0     C36513   7.352   3.600   3.685 -0.2797 -0.1099  0.6214
  271MOL0     C36514   7.490   3.558   3.678  0.3004 -0.6275 -1.2213
  271MOL0     C36515   7.610   3.516   3.673 -0.1526 -0.8510  0.3604
  271MOL0     C36516   7.432   3.914   4.268 -0.9072 -0.3578 -0.0296
  271MOL0     C36517   7.461   4.003   4.374  0.5075 -0.6905 -0.7011
  271MOL0     H36518   7.699   4.110   4.761  1.5292  0.4186  2.6247
  271MOL0     H36519   7.795   4.240   4.935  1.9507 -1.1180 -3.7333
  271MOL0     H36520   7.824   4.536   5.168 -0.0898 -0.2236  0.3639
  271MOL0     H36521   7.808   4.365   5.125  1.2102 -0.1450  0.2509
  271MOL0     H36522   8.026   4.431   5.092 -0.1293 -0.4949 -0.4219
  271MOL0     H36523   7.948   4.418   4.925 -0.9522 -0.7433 -0.3008
  271MOL0     H36524   7.925   4.682   4.949 -1.1717 -0.1008  2.1701
  271MOL0     H36525   7.994   4.663   5.105  2.9887  2.2023 -0.6028
  271MOL0     H36526   8.220   4.636   5.016 -0.0386 -0.5078  1.6844
  271MOL0     H36527   8.160   4.559   4.874  0.4180 -1.2948  0.7860
  271MOL0     H36528   8.143   4.858   4.938  4.1913  0.9632 -1.2249
  271MOL0     H36529   8.256   4.775   4.838  1.6207  2.8045  3.1365
  271MOL0     H36530   7.968   4.830   4.756  0.2675  1.8737 -3.6993
  271MOL0     H36531   8.128   4.891   4.696  2.0579  0.6919  1.7866
  271MOL0     H36532   8.170   4.641   4.628 -0.6039 -1.1715  0.9094
  271MOL0     H36533   8.001   4.608   4.664 -0.4531 -0.3043 -0.8478
  271MOL0     H36534   7.920   4.802   4.496 -0.0097  0.5454 -3.1717
  271MOL0     H36535   7.982   4.649   4.438  3.1073 -0.7270  0.3958
  271MOL0     H36536   8.071   5.013   4.464  1.0688  2.3114 -2.0825
  271MOL0     H36537   8.273   5.169   4.361  1.2015  0.1852  1.6641
  271MOL0     H36538   8.422   5.121   4.427 -1.1054  3.8287  1.2184
  271MOL0     H36539   8.474   4.996   4.201 -2.0043 -0.6668  0.3122
  271MOL0     H36540   8.487   5.175   4.214 -0.9876 -0.3944 -0.5556
  271MOL0     H36541   8.240   5.147   4.102 -0.7048 -0.0203 -1.2054
  271MOL0     H36542   8.287   4.978   4.100  1.8523  0.3230 -1.5226
  271MOL0     H36543   8.327   5.097   3.880  0.1554  1.0601 -0.4845
  271MOL0     H36544   8.461   5.015   3.956 -0.7042  0.0935 -1.4422
  271MOL0     H36545   8.623   5.403   3.881 -0.3433 -2.8464 -0.5011
  271MOL0     H36546   8.583   5.658   3.623  0.3582  0.2406  0.6465
  271MOL0     H36547   8.537   5.719   3.779 -3.2054 -0.7068 -1.5072
  271MOL0     H36548   8.675   5.616   3.760  0.0140 -2.4409 -1.8987
  271MOL0     H36549   8.128   5.643   3.372  1.4253 -1.8224  1.4409
  271MOL0     H36550   8.116   5.789   3.157 -1.9498 -1.9019  1.0517
  271MOL0     H36551   8.362   6.050   2.917 -0.7879  0.2996  1.4704
  271MOL0     H36552   8.478   6.019   3.041  1.6801 -0.2635 -1.2267
  271MOL0     H36553   8.536   5.933   2.806 -1.9647  0.7028  0.3066
  271MOL0     H36554   8.544   5.810   2.937  2.4488 -0.9080 -1.6766
  271MOL0     H36555   8.296   5.815   2.794  0.3265  2.0053  0.4853
  271MOL0     H36556   8.385   5.688   2.882  0.4322  1.6604  2.1946
  271MOL0     H36557   8.492   5.770   2.609  2.4708 -2.9127 -1.2220
  271MOL0     H36558   8.533   5.629   2.705  0.1621  0.0682 -1.7624
  271MOL0     H36559   8.299   5.542   2.673 -1.4976 -0.5545 -0.5070
  271MOL0     H36560   8.404   5.579   2.529 -0.4304 -1.2108  0.6837
  271MOL0     H36561   8.140   5.701   2.618 -0.8719  0.2972 -1.5616
  271MOL0     H36562   8.256   5.813   2.552  0.2702  0.3865  0.2728
  271MOL0     H36563   8.260   5.639   2.347  0.1864 -0.9982 -0.2872
  271MOL0     H36564   8.125   5.749   2.365  1.8596  2.3859  2.9102
  271MOL0     H36565   8.121   5.460   2.474  1.5251 -1.2089 -2.4720
  271MOL0     H36566   8.034   5.513   2.335 -0.1999 -1.0116  1.2843
  271MOL0     H36567   8.516   5.908   3.207  0.7599 -0.9504 -2.3390
  271MOL0     H36568   8.547   5.759   3.390  0.3218  4.4694 -1.0678
  271MOL0     H36569   8.135   5.473   3.789 -1.3359 -1.1658  1.2443
  271MOL0     H36570   8.208   5.297   3.943 -0.4066 -0.3205 -2.3864
  271MOL0     H36571   7.516   4.546   4.880 -1.6636 -0.4129  0.7058
  271MOL0     H36572   7.382   4.398   4.708 -0.1813 -2.9837 -2.0809
  271MOL0     H36573   7.326   3.813   4.625  0.9088  3.0845  0.7512
  271MOL0     H36574   7.309   3.649   4.432 -1.5901  0.2562 -0.7073
  271MOL0     H36575   7.311   3.817   4.036  0.9715  0.4333  2.6999
  271MOL0     H36576   7.489   3.779   4.035 -0.9953  2.9731 -0.3758
  271MOL0     H36577   7.262   3.587   3.960 -1.2700  0.8238 -3.2683
  271MOL0     H36578   7.444   3.560   3.938 -0.5769 -2.0126  1.5888
  271MOL0     H36579   7.417   3.776   3.800  1.2948  0.0395  1.9704
  271MOL0     H36580   7.247   3.751   3.788 -0.0719 -0.1508 -0.1388
  271MOL0     H36581   7.324   3.653   3.594  1.9062 -2.4254 -1.5364
  271MOL0     H36582   7.295   3.510   3.711 -1.3194  0.5349  0.6470
  271MOL0     H36583   7.707   3.470   3.673 -0.3534 -1.2767  1.1032
  271MOL0     H36584   7.461   3.955   4.172 -2.6622  3.4962  0.8895
  271MOL0     H36585   7.515   4.094   4.350 -0.3639 -0.0415 -0.2753
  272MOL0     O36586   0.877   3.610   6.243 -0.0638  1.1852 -0.5576
  272MOL0     C36587   0.949   3.510   6.227  0.2260 -0.5032  0.2555
  272MOL0     O36588   1.072   3.506   6.189 -0.2538 -0.1090 -0.0110
  272MOL0     C36589   1.138   3.619   6.156  0.9918  0.4885  0.1503
  272MOL0     C36590   1.150   3.737   6.236  0.0694 -0.4962 -0.7564
  272MOL0     C36591   1.218   3.852   6.190 -1.6082 -0.1648 -0.7365
  272MOL0     C36592   1.286   3.845   6.079  0.8798  0.6346  0.1377
  272MOL0     O36593   1.358   3.952   6.045 -0.7223 -0.0361 -0.6287
  272MOL0     C36594   1.302   4.068   5.991  1.0231 -0.2714  1.0881
  272MOL0     C36595   1.320   4.061   5.842 -0.1693  0.7039  0.0352
  272MOL0     C36596   1.452   4.132   5.800 -0.1672  0.7229 -0.4096
  272MOL0     C36597   1.447   4.152   5.639  0.3597 -0.2811  0.1515
  272MOL0     C36598   1.568   4.217   5.573  0.0474 -0.1775 -0.1132
  272MOL0     C36599   1.535   4.238   5.427  0.9857  0.9781  0.7686
  272MOL0     C36600   1.653   4.286   5.340 -0.6930  0.2255  0.1152
  272MOL0     C36601   1.672   4.436   5.343 -0.0797 -0.5826  0.8392
  272MOL0     N36602   1.797   4.470   5.280 -1.1173  0.1019  0.0353
  272MOL0     C36603   1.921   4.507   5.339 -0.2842  0.0016 -0.1186
  272MOL0     C36604   2.006   4.520   5.227 -0.7034 -0.0746  0.6254
  272MOL0     C36605   2.150   4.524   5.229 -0.3822 -0.8713 -0.1553
  272MOL0     C36606   2.224   4.621   5.321  0.2411  0.7648 -0.1302
  272MOL0     C36607   2.366   4.628   5.282  0.0023  0.1243  0.1241
  272MOL0     C36608   2.377   4.759   5.197 -0.3720  0.8591 -1.2509
  272MOL0     O36609   2.484   4.836   5.240 -0.1286 -0.0908 -0.5456
  272MOL0     C36610   2.580   4.858   5.145  0.4964 -0.8547 -1.0564
  272MOL0     C36611   2.551   4.942   5.037  0.6753 -1.4536  0.6938
  272MOL0     C36612   2.647   4.978   4.950 -0.1723 -0.3562  0.9799
  272MOL0     C36613   2.595   5.061   4.828  0.8284  0.1372  0.4889
  272MOL0     C36614   2.781   4.923   4.963  1.0013  0.3503  0.2598
  272MOL0     C36615   2.905   4.964   4.880 -0.2886  0.3360 -0.9264
  272MOL0     O36616   3.030   4.928   4.936 -0.2175  0.3355 -0.6446
  272MOL0     C36617   3.144   4.961   4.872 -0.3891 -0.2128 -0.5447
  272MOL0     C36618   3.256   5.024   4.946 -0.0287  0.2455 -0.3957
  272MOL0     C36619   3.372   5.055   4.879 -0.1294 -0.1362  0.1310
  272MOL0     C36620   3.382   5.032   4.740 -0.4076 -0.1376 -0.8332
  272MOL0     O36621   3.494   5.067   4.669 -0.1627 -0.0764  0.8850
  272MOL0     C36622   3.613   5.114   4.743 -0.1093 -0.1419  0.5557
  272MOL0     C36623   3.739   5.123   4.665  1.7940 -0.7889  1.1472
  272MOL0     C36624   3.786   4.986   4.606 -0.0552  0.0665  0.0427
  272MOL0     C36625   3.875   5.021   4.496 -0.6084 -0.1164  0.0463
  272MOL0     C36626   3.920   4.884   4.436  0.9331  0.7229 -0.3192
  272MOL0     C36627   4.040   4.889   4.354  0.6143 -0.4050 -0.6956
  272MOL0     C36628   4.038   4.989   4.240  0.2635 -0.2374 -0.5277
  272MOL0     C36629   4.159   4.993   4.152 -0.7889  0.0345 -0.3898
  272MOL0    Cl36630   4.195   4.834   4.066  0.0759 -0.3817 -0.1203
  272MOL0     C36631   3.265   4.994   4.670  0.0354  0.4411  0.2745
  272MOL0     C36632   3.148   4.948   4.733 -0.5488 -0.3206 -0.9741
  272MOL0     O36633   2.883   5.030   4.782 -0.8658  0.6274  0.1324
  272MOL0     C36634   2.802   4.834   5.074 -0.6467 -0.6565 -0.0969
  272MOL0     C36635   2.706   4.801   5.169 -0.1479 -0.4833 -0.3698
  272MOL0     N36636   1.931   4.504   5.117 -0.0534 -0.9598  0.2243
  272MOL0     N36637   1.809   4.473   5.148  0.2557 -0.5526 -0.2302
  272MOL0     C36638   1.285   3.732   5.991  0.5649 -0.6049 -1.2552
  272MOL0     C36639   1.213   3.617   6.037 -0.3021 -0.5459  0.4117
  272MOL0     C36640   0.882   3.371   6.263 -0.6082  0.3526 -0.5558
  272MOL0     C36641   0.745   3.348   6.261  0.2992 -1.1146  0.7438
  272MOL0     C36642   0.688   3.222   6.290  1.0066  0.0761  0.6714
  272MOL0     C36643   0.776   3.112   6.315  0.2505 -0.2613  0.5273
  272MOL0     O36644   0.719   2.995   6.357 -0.3733 -0.1297  0.6076
  272MOL0     C36645   0.805   2.883   6.397  1.0308  0.4148  0.8678
  272MOL0     C36646   0.726   2.752   6.395 -0.4248  0.3957 -0.6818
  272MOL0     C36647   0.615   2.761   6.514 -0.5977 -1.1517  0.1762
  272MOL0     C36648   0.565   2.624   6.559 -0.0285  0.4991 -0.0534
  272MOL0     C36649   0.555   2.528   6.447 -0.0722 -0.4868  0.7255
  272MOL0     C36650   0.538   2.454   6.347  0.8987  0.1752  0.3959
  272MOL0     C36651   0.912   3.131   6.303 -0.1102 -0.6330  0.7506
  272MOL0     C36652   0.965   3.254   6.273 -0.0983 -0.3160  0.1874
  272MOL0     H36653   1.094   3.755   6.328  0.6497  0.3903 -0.5620
  272MOL0     H36654   1.220   3.948   6.241 -2.5146  1.7452 -3.9561
  272MOL0     H36655   1.197   4.078   6.019  0.3185  0.5427 -1.5689
  272MOL0     H36656   1.366   4.152   6.023  1.0714  0.4650 -0.8399
  272MOL0     H36657   1.310   3.957   5.812 -5.6320  0.4251  1.6798
  272MOL0     H36658   1.235   4.105   5.788  1.1876  0.1729 -2.7221
  272MOL0     H36659   1.473   4.230   5.846 -0.6611  0.2210  0.9408
  272MOL0     H36660   1.536   4.067   5.826  0.2799  0.5615 -2.1854
  272MOL0     H36661   1.428   4.057   5.588 -1.5338  1.3665 -2.4805
  272MOL0     H36662   1.360   4.214   5.617  4.0437  4.6730 -2.5885
  272MOL0     H36663   1.583   4.317   5.617 -0.2072 -1.3083  2.7876
  272MOL0     H36664   1.655   4.152   5.586 -1.5911 -2.4760 -0.1709
  272MOL0     H36665   1.512   4.140   5.386 -0.8892  2.5088 -2.2506
  272MOL0     H36666   1.450   4.306   5.414  0.6375  0.6712  1.4652
  272MOL0     H36667   1.745   4.227   5.352 -1.3828 -0.7328  0.7947
  272MOL0     H36668   1.622   4.245   5.243 -2.0390 -1.7442  1.2924
  272MOL0     H36669   1.686   4.458   5.449  2.3145 -0.9507  0.6458
  272MOL0     H36670   1.586   4.494   5.305  0.1955  0.6429  2.0001
  272MOL0     H36671   1.953   4.502   5.442 -1.1253 -4.1596  0.1242
  272MOL0     H36672   2.177   4.429   5.277  0.4822  1.1905  3.9072
  272MOL0     H36673   2.191   4.535   5.128 -1.3875 -2.1586 -0.7219
  272MOL0     H36674   2.234   4.573   5.419  2.1573 -0.3638 -0.8247
  272MOL0     H36675   2.168   4.715   5.332 -0.4226  0.8340 -3.1819
  272MOL0     H36676   2.409   4.539   5.235  2.0006 -0.9656  3.6784
  272MOL0     H36677   2.417   4.640   5.378  1.2233  2.7785 -0.7476
  272MOL0     H36678   2.295   4.832   5.206 -0.6136  0.5912 -1.2589
  272MOL0     H36679   2.383   4.725   5.093 -1.5195  2.3681 -1.8600
  272MOL0     H36680   2.449   4.976   5.020  1.8071  2.7318  1.2204
  272MOL0     H36681   2.650   5.156   4.827  3.9659 -1.5181 -1.8028
  272MOL0     H36682   2.608   5.014   4.731  1.9023  1.9663 -0.3088
  272MOL0     H36683   2.490   5.089   4.844  1.1600  2.1749 -0.5317
  272MOL0     H36684   3.239   5.056   5.048 -1.3742  0.0304 -0.5327
  272MOL0     H36685   3.456   5.097   4.934 -0.2231 -0.8305  0.8260
  272MOL0     H36686   3.586   5.210   4.789  0.6759  1.2294 -1.6824
  272MOL0     H36687   3.634   5.030   4.810  0.2831 -1.8809 -1.6256
  272MOL0     H36688   3.725   5.193   4.582  3.3004 -2.5666 -0.7213
  272MOL0     H36689   3.820   5.163   4.727  2.3694  2.3237 -1.3593
  272MOL0     H36690   3.705   4.922   4.569 -2.7340  3.5587 -0.7247
  272MOL0     H36691   3.833   4.925   4.683 -1.1956 -0.3544  0.4220
  272MOL0     H36692   3.819   5.074   4.418  0.5662 -1.4867 -1.7776
  272MOL0     H36693   3.967   5.067   4.535  0.9638 -1.6627 -1.7052
  272MOL0     H36694   3.842   4.854   4.365  1.3101 -0.1142 -0.3903
  272MOL0     H36695   3.925   4.809   4.515  0.7167  0.1833 -0.8147
  272MOL0     H36696   4.120   4.915   4.424 -0.5932 -0.6041  0.8131
  272MOL0     H36697   4.061   4.790   4.315 -0.5586  0.4350 -3.6982
  272MOL0     H36698   4.010   5.084   4.287 -2.8157 -1.7700  1.0694
  272MOL0     H36699   3.949   4.950   4.191 -0.4530 -2.9659  2.5669
  272MOL0     H36700   4.252   5.015   4.206  0.1928 -0.5211 -1.8239
  272MOL0     H36701   4.138   5.070   4.077 -1.0030 -0.6462 -1.0384
  272MOL0     H36702   3.280   4.989   4.562  0.5453 -0.6270  0.3807
  272MOL0     H36703   3.066   4.904   4.677 -1.2653 -3.1259  1.9672
  272MOL0     H36704   2.899   4.789   5.091 -1.1985 -0.5340  4.7095
  272MOL0     H36705   2.737   4.743   5.255 -0.9023 -1.3434 -0.6684
  272MOL0     H36706   1.338   3.733   5.896 -1.5683 -3.6402 -2.6472
  272MOL0     H36707   1.195   3.534   5.969 -2.8881 -0.1796  0.5565
  272MOL0     H36708   0.675   3.429   6.243  0.6491 -1.0892 -0.6309
  272MOL0     H36709   0.581   3.211   6.287  1.0040  0.1938  0.2190
  272MOL0     H36710   0.881   2.871   6.319 -0.3790  0.0484 -0.4880
  272MOL0     H36711   0.869   2.902   6.484  2.7921  1.0577 -0.4973
  272MOL0     H36712   0.795   2.671   6.422 -0.6454  0.4591  0.0947
  272MOL0     H36713   0.681   2.732   6.297  0.0483  0.4927 -0.9214
  272MOL0     H36714   0.539   2.827   6.473 -0.3715 -1.4480 -0.7343
  272MOL0     H36715   0.655   2.815   6.600 -1.9746  2.6322 -1.3532
  272MOL0     H36716   0.468   2.628   6.609 -1.3844  0.6549 -2.5373
  272MOL0     H36717   0.634   2.590   6.637 -2.5638 -0.0345  2.0896
  272MOL0     H36718   0.532   2.393   6.260 -1.3703 -0.3556  0.8644
  272MOL0     H36719   0.982   3.048   6.308 -0.7441 -1.3400 -1.2440
  272MOL0     H36720   1.072   3.271   6.262 -0.4106  0.7103 -1.6233
  273MOL0     O36721   5.591   0.496  11.099 -0.6998  0.8607 -0.5665
  273MOL0     C36722   5.607   0.567  11.200  0.4641  0.3200  0.6656
  273MOL0     O36723   5.502   0.593  11.289  0.1995 -0.2232 -0.1951
  273MOL0     C36724   5.367   0.561  11.272  0.5192 -0.4094  0.2262
  273MOL0     C36725   5.332   0.425  11.266  1.3234 -0.5723 -0.1885
  273MOL0     C36726   5.197   0.394  11.259  0.0093  0.7945  0.4589
  273MOL0     C36727   5.092   0.492  11.246  0.5138  0.3864 -0.6796
  273MOL0     O36728   4.956   0.479  11.229 -0.3550  1.2143  0.2830
  273MOL0     C36729   4.906   0.349  11.264 -0.0532  0.4345  0.0577
  273MOL0     C36730   4.751   0.369  11.255  0.3745  0.3893  0.5785
  273MOL0     C36731   4.689   0.476  11.354  0.3354  0.1320 -0.1330
  273MOL0     C36732   4.588   0.565  11.277 -0.3469  0.7842  0.2865
  273MOL0     C36733   4.522   0.671  11.360 -0.2228 -0.8364 -0.0811
  273MOL0     C36734   4.437   0.622  11.486  1.1737 -0.0833 -0.4057
  273MOL0     C36735   4.392   0.744  11.568 -1.0420  1.0054  0.0634
  273MOL0     C36736   4.322   0.709  11.699  0.5860 -0.4748 -0.6419
  273MOL0     N36737   4.403   0.708  11.821  0.7184 -0.3291  0.5645
  273MOL0     C36738   4.445   0.606  11.900  1.2811  0.6141 -0.1840
  273MOL0     C36739   4.491   0.655  12.017  0.8744 -0.3975  0.4868
  273MOL0     C36740   4.541   0.576  12.126  0.1148  1.0871 -0.3837
  273MOL0     C36741   4.473   0.436  12.142  0.5469  0.2242 -0.9753
  273MOL0     C36742   4.556   0.332  12.077  0.9670 -0.4804  0.0390
  273MOL0     C36743   4.471   0.195  12.072 -0.1672  0.1491 -0.3748
  273MOL0     O36744   4.556   0.087  12.016  0.3017  0.7617 -0.3932
  273MOL0     C36745   4.544  -0.049  12.053 -0.1960 -0.9924 -1.0222
  273MOL0     C36746   4.652  -0.129  12.029 -1.1388  0.8135 -0.0746
  273MOL0     C36747   4.638  -0.265  12.065  0.1932 -1.2718 -0.1586
  273MOL0     C36748   4.763  -0.346  12.056 -0.8533  0.7181  0.6987
  273MOL0     C36749   4.511  -0.320  12.092  0.0093 -0.9432 -0.5992
  273MOL0     C36750   4.475  -0.464  12.095 -0.5123 -0.1404 -0.4149
  273MOL0     O36751   4.572  -0.552  12.063  0.2336 -0.0597  0.4436
  273MOL0     C36752   4.548  -0.682  12.030 -0.0509  0.6606 -0.5611
  273MOL0     C36753   4.628  -0.748  11.931 -1.4844  0.2134 -0.6353
  273MOL0     C36754   4.626  -0.885  11.916 -0.2588 -0.1358  0.1676
  273MOL0     C36755   4.536  -0.960  11.992 -0.4076  0.6969  0.3669
  273MOL0     O36756   4.546  -1.092  11.968  0.4011  0.4107  0.7752
  273MOL0     C36757   4.427  -1.172  11.983 -0.2792  0.3879  0.1745
  273MOL0     C36758   4.470  -1.316  11.985  0.0195  0.3890 -0.3409
  273MOL0     C36759   4.349  -1.401  12.035 -0.9215  0.0174 -0.0411
  273MOL0     C36760   4.229  -1.417  11.937 -0.2682  0.1455 -0.4043
  273MOL0     C36761   4.242  -1.525  11.835  0.5562  0.4945  0.2224
  273MOL0     C36762   4.354  -1.517  11.737 -0.0020 -0.3119 -0.0037
  273MOL0     C36763   4.343  -1.382  11.653  0.0131  0.3116 -0.2647
  273MOL0     C36764   4.406  -1.402  11.511  0.0063  0.4857 -0.1009
  273MOL0    Cl36765   4.573  -1.408  11.518  0.1036 -0.0959 -0.2265
  273MOL0     C36766   4.436  -0.898  12.075 -0.1361 -0.2230  0.6093
  273MOL0     C36767   4.461  -0.765  12.096 -0.3404 -0.1062 -0.1641
  273MOL0     O36768   4.356  -0.491  12.115  0.4825  0.1899 -0.1472
  273MOL0     C36769   4.401  -0.229  12.114 -0.1105 -0.7375  0.5181
  273MOL0     C36770   4.423  -0.094  12.096 -0.0020  0.9080  0.4199
  273MOL0     N36771   4.472   0.791  12.013 -0.1204  0.3368  0.8989
  273MOL0     N36772   4.414   0.818  11.899 -0.1745 -0.4801  0.1812
  273MOL0     C36773   5.129   0.619  11.253 -0.1554 -0.1259  0.2744
  273MOL0     C36774   5.266   0.660  11.262 -0.9016 -0.2971 -1.3835
  273MOL0     C36775   5.740   0.629  11.226 -0.2512  0.5309 -0.8172
  273MOL0     C36776   5.859   0.611  11.154  0.3509 -0.0451  0.5914
  273MOL0     C36777   5.984   0.657  11.205  0.5109  1.1360  0.6239
  273MOL0     C36778   5.999   0.737  11.324  0.1605 -0.7527  0.7513
  273MOL0     O36779   6.117   0.782  11.381 -0.4741 -0.1763  0.0198
  273MOL0     C36780   6.241   0.788  11.312 -0.0030  0.4477 -0.4022
  273MOL0     C36781   6.339   0.671  11.354  0.4512  0.1950  0.5609
  273MOL0     C36782   6.267   0.538  11.374 -0.4405  1.0852  0.4746
  273MOL0     C36783   6.355   0.435  11.435 -1.3390  0.4011 -0.1895
  273MOL0     C36784   6.295   0.305  11.465 -1.5859  0.7847 -1.4666
  273MOL0     C36785   6.227   0.209  11.495  0.0059 -0.2399  0.3521
  273MOL0     C36786   5.871   0.756  11.389  0.0269 -0.4623 -0.6069
  273MOL0     C36787   5.750   0.708  11.339 -1.0418 -0.0685 -0.2240
  273MOL0     H36788   5.400   0.340  11.268  1.2628 -0.6011  0.8668
  273MOL0     H36789   5.170   0.289  11.258 -1.2633  1.0730  1.9380
  273MOL0     H36790   4.927   0.271  11.191 -3.6948 -1.7240  1.0618
  273MOL0     H36791   4.931   0.315  11.365 -0.7084 -4.2314 -1.1293
  273MOL0     H36792   4.728   0.392  11.151 -1.7442 -0.4203  0.8243
  273MOL0     H36793   4.700   0.274  11.271  4.9351 -2.8856 -1.8703
  273MOL0     H36794   4.640   0.428  11.440  0.5520  1.4195  0.7300
  273MOL0     H36795   4.767   0.539  11.397 -0.8618  2.0080 -0.5867
  273MOL0     H36796   4.630   0.628  11.198 -1.8467 -0.4284 -1.5810
  273MOL0     H36797   4.512   0.502  11.229  0.8961  1.6526 -3.1282
  273MOL0     H36798   4.592   0.744  11.402  0.1725 -1.9723  1.2873
  273MOL0     H36799   4.454   0.730  11.297 -0.9728 -1.8663 -0.2541
  273MOL0     H36800   4.343   0.577  11.451 -0.4820  1.6349  1.6017
  273MOL0     H36801   4.490   0.550  11.549 -0.8841  0.6709  2.3632
  273MOL0     H36802   4.471   0.817  11.590 -1.6686  2.6435 -2.7199
  273MOL0     H36803   4.336   0.801  11.495 -0.9071  0.7538 -0.2404
  273MOL0     H36804   4.273   0.611  11.698 -0.9912  0.2700  0.2877
  273MOL0     H36805   4.238   0.777  11.713  0.5715 -0.6094 -0.0271
  273MOL0     H36806   4.444   0.499  11.878  1.4414  0.3303  1.1427
  273MOL0     H36807   4.649   0.566  12.115  0.1745 -1.6528  1.4370
  273MOL0     H36808   4.523   0.636  12.216  1.8290 -0.3424  1.0004
  273MOL0     H36809   4.367   0.439  12.114  1.3970  1.0925 -4.6994
  273MOL0     H36810   4.469   0.415  12.249  2.0054  2.8383 -0.3403
  273MOL0     H36811   4.654   0.317  12.124 -0.0754 -1.3795  2.0692
  273MOL0     H36812   4.567   0.368  11.975 -0.4288 -1.3716 -0.4444
  273MOL0     H36813   4.379   0.214  12.015  1.1530  2.4026 -1.9418
  273MOL0     H36814   4.452   0.159  12.173 -0.7587 -0.8431 -0.8296
  273MOL0     H36815   4.751  -0.099  11.997 -1.1966 -0.8772 -2.0768
  273MOL0     H36816   4.762  -0.402  12.150 -1.5656  0.2046  0.3981
  273MOL0     H36817   4.770  -0.418  11.974  2.4553 -0.2320  1.6462
  273MOL0     H36818   4.851  -0.281  12.049 -0.8744  0.6918  0.1229
  273MOL0     H36819   4.704  -0.686  11.884  3.5361 -2.5808  2.8194
  273MOL0     H36820   4.706  -0.939  11.866 -1.2928  0.4033 -2.2165
  273MOL0     H36821   4.374  -1.155  12.077 -2.5742  4.2824 -1.5508
  273MOL0     H36822   4.352  -1.154  11.905 -0.1104  1.7118  0.2809
  273MOL0     H36823   4.523  -1.333  11.891  1.3152 -5.8112  1.0880
  273MOL0     H36824   4.549  -1.326  12.060 -1.8511  0.7292  1.7958
  273MOL0     H36825   4.318  -1.354  12.129  1.9535 -0.0641  1.0202
  273MOL0     H36826   4.377  -1.503  12.061 -1.7065 -0.7037 -1.8770
  273MOL0     H36827   4.140  -1.435  11.998 -0.5802  1.2248 -0.5066
  273MOL0     H36828   4.213  -1.324  11.882  2.8211  0.4298 -0.9865
  273MOL0     H36829   4.153  -1.541  11.773  0.9033 -0.4991 -0.0440
  273MOL0     H36830   4.249  -1.623  11.882  2.4670 -1.4781 -3.7307
  273MOL0     H36831   4.447  -1.514  11.793 -1.1184  1.9376  1.9218
  273MOL0     H36832   4.358  -1.610  11.679  1.6469 -0.9538  1.0756
  273MOL0     H36833   4.398  -1.304  11.707  0.6498 -1.3149  1.5626
  273MOL0     H36834   4.237  -1.356  11.655 -0.5002 -0.8246  5.6562
  273MOL0     H36835   4.381  -1.317  11.447 -0.7403 -0.0075 -0.4754
  273MOL0     H36836   4.361  -1.489  11.463  0.0850  0.8231 -0.8089
  273MOL0     H36837   4.359  -0.954  12.127 -0.0100  0.8107  1.9740
  273MOL0     H36838   4.394  -0.718  12.168  1.9271  1.0620  1.2731
  273MOL0     H36839   4.308  -0.251  12.165 -0.8026  0.9336  0.0613
  273MOL0     H36840   4.336  -0.034  12.120 -1.4799 -1.3849  1.0673
  273MOL0     H36841   5.051   0.692  11.236  1.9197  1.5576 -2.9206
  273MOL0     H36842   5.279   0.767  11.274 -2.8824  0.0050 -1.5590
  273MOL0     H36843   5.852   0.548  11.066 -0.2521 -1.0487  1.3307
  273MOL0     H36844   6.067   0.643  11.136 -0.9879  2.1423 -1.5198
  273MOL0     H36845   6.235   0.775  11.203  0.6663 -1.6098 -0.2310
  273MOL0     H36846   6.280   0.889  11.328 -2.5714  1.3076  0.9413
  273MOL0     H36847   6.391   0.703  11.445  0.9158 -2.7800  1.4271
  273MOL0     H36848   6.419   0.650  11.282 -0.0318  0.5312 -0.0896
  273MOL0     H36849   6.237   0.515  11.271  1.2559 -1.9214  0.5124
  273MOL0     H36850   6.183   0.546  11.443  0.6908 -1.1018  2.2478
  273MOL0     H36851   6.381   0.468  11.536  1.5564 -3.2695  0.5097
  273MOL0     H36852   6.454   0.428  11.388  0.2207  4.1737  2.0542
  273MOL0     H36853   6.172   0.117  11.502 -0.5794  0.1022  0.3697
  273MOL0     H36854   5.874   0.801  11.488  0.8837 -2.1334  0.1809
  273MOL0     H36855   5.666   0.736  11.402 -3.0571  0.2770 -2.8594
  274MOL0     O36856   2.714   8.243   2.747  0.0779  0.0347 -0.0658
  274MOL0     C36857   2.628   8.313   2.696 -0.2894 -0.5393  0.3203
  274MOL0     O36858   2.524   8.380   2.753 -0.7732  0.9854  0.3439
  274MOL0     C36859   2.481   8.352   2.882 -0.8438 -0.1435 -0.4677
  274MOL0     C36860   2.402   8.243   2.932 -0.0266  0.1050  0.4886
  274MOL0     C36861   2.357   8.244   3.067  0.1768  0.3733 -0.2777
  274MOL0     C36862   2.403   8.328   3.163 -0.9623 -0.2904  0.9004
  274MOL0     O36863   2.353   8.342   3.286  0.5060  0.0914 -0.4115
  274MOL0     C36864   2.244   8.432   3.284 -0.0064 -1.3588  0.7371
  274MOL0     C36865   2.159   8.397   3.402  0.0938 -0.1701  0.4358
  274MOL0     C36866   2.187   8.467   3.542 -0.8026  0.5492 -1.4037
  274MOL0     C36867   2.083   8.421   3.641 -0.3902 -0.4158 -0.6991
  274MOL0     C36868   2.098   8.505   3.770  0.0392  0.0223 -0.7665
  274MOL0     C36869   2.029   8.646   3.755  0.7393  0.4892 -0.0233
  274MOL0     C36870   2.008   8.711   3.891 -0.5294  0.3467  0.8713
  274MOL0     C36871   2.131   8.710   3.981 -0.6864  0.3799  0.1549
  274MOL0     N36872   2.107   8.783   4.104 -0.3997  0.5164 -0.2727
  274MOL0     C36873   2.047   8.713   4.209  0.6675 -0.3361  0.4201
  274MOL0     C36874   2.027   8.807   4.307 -0.1759 -0.0319  0.1590
  274MOL0     C36875   2.002   8.790   4.450 -0.1548 -1.0119  0.1310
  274MOL0     C36876   1.911   8.678   4.476  0.6579  0.5804 -1.1295
  274MOL0     C36877   1.848   8.679   4.618  0.2575 -0.0172  0.1027
  274MOL0     C36878   1.957   8.627   4.710 -0.8545  0.2013  0.2491
  274MOL0     O36879   2.013   8.732   4.787 -0.1015 -0.2405 -1.3871
  274MOL0     C36880   1.941   8.821   4.860 -0.1375 -0.0593  0.1553
  274MOL0     C36881   1.945   8.954   4.828 -0.1296  0.4614  0.3776
  274MOL0     C36882   1.882   9.049   4.898 -0.0353 -0.1919 -0.7082
  274MOL0     C36883   1.912   9.192   4.859  0.0655  0.4024  0.4185
  274MOL0     C36884   1.803   9.011   5.017  0.4767 -0.2299  0.4903
  274MOL0     C36885   1.694   9.096   5.082 -0.5747 -0.0995  0.0683
  274MOL0     O36886   1.629   9.043   5.177 -0.2123 -0.3069 -0.3305
  274MOL0     C36887   1.630   9.112   5.305 -0.3456 -0.0907  0.6069
  274MOL0     C36888   1.679   9.242   5.330 -0.6290  0.0237 -0.7014
  274MOL0     C36889   1.684   9.293   5.454  0.2251 -0.4791 -0.4676
  274MOL0     C36890   1.641   9.223   5.568  0.2280 -0.9378  0.9130
  274MOL0     O36891   1.644   9.290   5.685 -0.2808 -0.0496 -0.4071
  274MOL0     C36892   1.555   9.259   5.798  0.4141 -0.7080  0.4532
  274MOL0     C36893   1.542   9.385   5.891  0.8957 -0.5727 -0.6317
  274MOL0     C36894   1.477   9.502   5.819 -0.1977  0.9774  0.7041
  274MOL0     C36895   1.551   9.625   5.866  0.3066 -0.4783 -0.0177
  274MOL0     C36896   1.510   9.753   5.803  0.6850 -0.3544  0.1036
  274MOL0     C36897   1.563   9.783   5.662 -0.9569  0.8436  0.6405
  274MOL0     C36898   1.493   9.911   5.589 -0.8166  0.7020  0.0980
  274MOL0     C36899   1.589  10.027   5.564  0.1735 -0.3055  0.5082
  274MOL0    Cl36900   1.651  10.083   5.718  0.4103 -0.3207 -0.2910
  274MOL0     C36901   1.590   9.097   5.554  0.6804  0.6175  0.4782
  274MOL0     C36902   1.579   9.047   5.420 -0.1538  0.9411  0.7660
  274MOL0     O36903   1.658   9.206   5.039 -0.7254  1.4835 -0.2732
  274MOL0     C36904   1.804   8.873   5.054  0.4663  0.0482  0.7910
  274MOL0     C36905   1.883   8.784   4.978  1.2230 -0.1399  0.2224
  274MOL0     N36906   2.054   8.925   4.242  0.3806 -0.0282  0.3437
  274MOL0     N36907   2.108   8.923   4.129  1.0016 -0.0917  0.3359
  274MOL0     C36908   2.501   8.419   3.118  0.2389 -0.2782 -0.0350
  274MOL0     C36909   2.540   8.440   2.983  0.5893  0.0654  0.3333
  274MOL0     C36910   2.662   8.355   2.551 -0.0889  0.0407 -0.8123
  274MOL0     C36911   2.764   8.297   2.481  0.2002  1.1929 -0.6407
  274MOL0     C36912   2.766   8.326   2.354  0.3732  0.7013  0.3520
  274MOL0     C36913   2.696   8.428   2.283 -0.4483  0.6611  0.2342
  274MOL0     O36914   2.700   8.451   2.141  0.1832  0.0072 -0.3255
  274MOL0     C36915   2.816   8.424   2.068 -0.6069 -0.2971  0.3503
  274MOL0     C36916   2.792   8.399   1.924 -0.3722 -0.5893 -0.1263
  274MOL0     C36917   2.929   8.365   1.856 -0.0740  0.1182 -0.1043
  274MOL0     C36918   2.908   8.350   1.705 -0.8318  0.5066 -0.3482
  274MOL0     C36919   3.034   8.299   1.640  0.8158 -1.2683 -0.6527
  274MOL0     C36920   3.133   8.281   1.571  1.6614 -0.1241 -0.5718
  274MOL0     C36921   2.601   8.493   2.360  0.0210  0.3149  1.1444
  274MOL0     C36922   2.577   8.442   2.493 -0.2243 -1.4175 -0.5226
  274MOL0     H36923   2.368   8.166   2.863 -0.7288  0.5922  0.2870
  274MOL0     H36924   2.285   8.165   3.085  2.6215 -2.0817 -0.5935
  274MOL0     H36925   2.289   8.532   3.290 -0.8095 -0.9392 -0.0568
  274MOL0     H36926   2.177   8.420   3.199 -1.9951 -0.2550  2.0728
  274MOL0     H36927   2.055   8.420   3.375  0.3976 -1.7699 -2.4554
  274MOL0     H36928   2.167   8.289   3.413 -0.6583 -0.2935 -0.1551
  274MOL0     H36929   2.285   8.435   3.576  0.3106  1.8081 -3.2573
  274MOL0     H36930   2.192   8.576   3.530 -1.7500  0.9237  1.0745
  274MOL0     H36931   1.983   8.438   3.599  0.2596 -0.8228 -2.5171
  274MOL0     H36932   2.084   8.311   3.642 -1.8397 -0.5897 -4.0189
  274MOL0     H36933   2.038   8.456   3.847 -0.3363  2.6260  0.6940
  274MOL0     H36934   2.196   8.531   3.810 -1.0334  2.8402  0.3081
  274MOL0     H36935   2.086   8.713   3.690 -1.1267  0.7759 -1.4374
  274MOL0     H36936   1.935   8.642   3.699  0.0899  0.6856  1.0275
  274MOL0     H36937   1.959   8.808   3.880  0.5301  0.9842  1.6629
  274MOL0     H36938   1.941   8.637   3.938 -0.4761 -1.2259 -1.3592
  274MOL0     H36939   2.216   8.765   3.941 -0.3164 -1.2853 -1.4504
  274MOL0     H36940   2.170   8.611   4.006  2.5998  1.2792 -0.9607
  274MOL0     H36941   2.021   8.609   4.222  0.4905 -0.1433  1.7667
  274MOL0     H36942   2.091   8.783   4.513 -2.6071  1.2540  4.3249
  274MOL0     H36943   1.957   8.885   4.481  1.8178 -0.5183  1.6585
  274MOL0     H36944   1.947   8.579   4.448 -0.9345 -0.1827 -0.5868
  274MOL0     H36945   1.823   8.688   4.412 -3.0126 -3.8139  2.4632
  274MOL0     H36946   1.767   8.607   4.600 -0.6432  1.1924 -0.8383
  274MOL0     H36947   1.798   8.771   4.649 -0.8364  0.0461 -1.7349
  274MOL0     H36948   2.037   8.574   4.657  0.9065 -1.8220  4.4536
  274MOL0     H36949   1.917   8.544   4.769  3.2230 -4.2967 -2.5411
  274MOL0     H36950   2.011   8.995   4.751 -1.8995 -1.5232 -2.4053
  274MOL0     H36951   1.822   9.233   4.812  0.9984  3.1279  0.8564
  274MOL0     H36952   1.927   9.248   4.951 -1.3281  1.1470  0.2316
  274MOL0     H36953   2.002   9.199   4.797  1.3425 -0.5501  2.0954
  274MOL0     H36954   1.709   9.305   5.247 -1.9151  0.4369 -0.8799
  274MOL0     H36955   1.712   9.397   5.467  1.6388 -0.3736 -3.4612
  274MOL0     H36956   1.462   9.228   5.749  0.8894 -0.4998 -0.5991
  274MOL0     H36957   1.595   9.179   5.860  2.1884  1.0241  1.6916
  274MOL0     H36958   1.483   9.355   5.978  0.7273  0.5786 -0.3406
  274MOL0     H36959   1.645   9.401   5.925  0.5806 -2.7822  1.6824
  274MOL0     H36960   1.372   9.507   5.850  0.5851  1.4067  3.5471
  274MOL0     H36961   1.485   9.493   5.710  2.7477 -0.3752  0.9303
  274MOL0     H36962   1.542   9.624   5.975  1.5641 -3.0907  0.1280
  274MOL0     H36963   1.657   9.613   5.846  0.4777 -1.1233  1.2065
  274MOL0     H36964   1.554   9.829   5.868 -0.1770  0.5865 -0.3879
  274MOL0     H36965   1.401   9.752   5.818  0.8867 -2.0909  1.9718
  274MOL0     H36966   1.672   9.795   5.662 -0.7508  0.3273  4.8347
  274MOL0     H36967   1.532   9.700   5.598  3.1082 -0.5608  0.1923
  274MOL0     H36968   1.404   9.944   5.643 -1.2206  2.9986 -1.8145
  274MOL0     H36969   1.453   9.873   5.494  0.8099 -0.9997  0.0274
  274MOL0     H36970   1.535  10.108   5.514 -1.1676 -1.5201 -0.0870
  274MOL0     H36971   1.669   9.988   5.500 -0.1236  2.8076 -1.9722
  274MOL0     H36972   1.543   9.052   5.641  1.4053  0.8911  1.0222
  274MOL0     H36973   1.544   8.945   5.401  1.9175  0.4429 -0.7515
  274MOL0     H36974   1.749   8.836   5.140  3.5544  0.7884  3.2839
  274MOL0     H36975   1.872   8.680   5.005  1.1463  0.0476  0.9513
  274MOL0     H36976   2.525   8.501   3.186 -0.2107 -2.0790  2.4358
  274MOL0     H36977   2.611   8.518   2.961  0.3848  0.8558  2.2731
  274MOL0     H36978   2.825   8.219   2.525 -2.8967 -0.8059  0.4592
  274MOL0     H36979   2.840   8.261   2.308  1.3275  0.7892  1.7230
  274MOL0     H36980   2.887   8.505   2.088 -1.9771  0.3272  3.3025
  274MOL0     H36981   2.864   8.327   2.084 -0.2886 -0.5721 -1.9668
  274MOL0     H36982   2.766   8.492   1.874  1.7297  0.4370  0.5875
  274MOL0     H36983   2.721   8.319   1.900 -0.2760 -1.9865  3.5619
  274MOL0     H36984   2.979   8.278   1.900 -0.6312  0.1320  0.5584
  274MOL0     H36985   2.994   8.452   1.866  0.0889  0.1279 -1.0772
  274MOL0     H36986   2.895   8.443   1.649  0.8762  1.4403  0.7201
  274MOL0     H36987   2.831   8.276   1.682  0.2743 -1.0549  0.7290
  274MOL0     H36988   3.215   8.281   1.501 -0.6480 -2.3103 -3.5980
  274MOL0     H36989   2.542   8.572   2.314 -0.0826  0.0474  0.8144
  274MOL0     H36990   2.488   8.483   2.539 -0.1898 -0.9895 -0.8193
  275MOL0     O36991   3.089   3.387   8.807 -0.1246  0.5994  0.3357
  275MOL0     C36992   3.135   3.440   8.708 -0.3736  0.7293 -0.3202
  275MOL0     O36993   3.257   3.508   8.704 -0.3289 -0.0823 -0.1075
  275MOL0     C36994   3.332   3.528   8.817  0.3170  0.3756 -0.9413
  275MOL0     C36995   3.353   3.442   8.929 -0.3230  0.1550  0.1976
  275MOL0     C36996   3.427   3.480   9.044 -0.3764  0.2507  0.5083
  275MOL0     C36997   3.465   3.615   9.061  0.9476  0.2517  0.0027
  275MOL0     O36998   3.518   3.661   9.177 -0.6594  0.2432  0.3327
  275MOL0     C36999   3.521   3.580   9.297  0.0354 -1.0744 -0.5874
  275MOL0     C37000   3.625   3.644   9.404  0.2268  0.2200  0.5972
  275MOL0     C37001   3.771   3.682   9.353  0.2243  0.1924 -0.3491
  275MOL0     C37002   3.831   3.814   9.419  0.1056  0.3727  0.1130
  275MOL0     C37003   3.982   3.823   9.410  0.2912  0.4031  0.9551
  275MOL0     C37004   4.014   3.839   9.260  0.1429 -0.2818  0.4343
  275MOL0     C37005   4.152   3.898   9.223  0.3794 -1.6317  0.7173
  275MOL0     C37006   4.164   3.920   9.070  0.3758 -0.3279 -0.9023
  275MOL0     N37007   4.298   3.858   9.035  0.7938  0.2368  0.0985
  275MOL0     C37008   4.339   3.725   9.047 -0.9441 -0.3987  0.7459
  275MOL0     C37009   4.463   3.734   8.984  0.2361  0.0939 -0.3886
  275MOL0     C37010   4.569   3.623   8.968  1.1709 -0.4734  0.2422
  275MOL0     C37011   4.537   3.523   8.849 -0.8237  0.0393 -0.4498
  275MOL0     C37012   4.505   3.586   8.717 -0.2368  0.3543  0.4516
  275MOL0     C37013   4.437   3.499   8.619  0.2689 -0.3726  0.0295
  275MOL0     O37014   4.372   3.579   8.514 -0.1299  0.1526  0.0666
  275MOL0     C37015   4.326   3.508   8.406 -0.3998  0.3652  0.1768
  275MOL0     C37016   4.295   3.371   8.404 -0.3563 -0.2160  0.2694
  275MOL0     C37017   4.240   3.312   8.286  0.4952  0.1403 -0.7549
  275MOL0     C37018   4.207   3.167   8.296  0.2144  0.7234 -0.1202
  275MOL0     C37019   4.220   3.392   8.169 -0.5982 -0.4688  0.2609
  275MOL0     C37020   4.177   3.341   8.037 -0.2830 -0.4057 -0.5036
  275MOL0     O37021   4.181   3.424   7.925  0.3240  0.4774  0.1270
  275MOL0     C37022   4.175   3.378   7.797  0.9375 -0.7031 -0.7108
  275MOL0     C37023   4.131   3.472   7.704  1.2966  0.6382  0.1037
  275MOL0     C37024   4.127   3.445   7.562 -0.8017  0.5731 -0.3877
  275MOL0     C37025   4.168   3.323   7.517 -0.8395  0.5658  0.4161
  275MOL0     O37026   4.150   3.308   7.388 -0.3126 -0.5253  0.9379
  275MOL0     C37027   4.179   3.174   7.332 -0.2666 -0.6991 -1.4414
  275MOL0     C37028   4.165   3.182   7.188  0.0591 -0.1952  0.4136
  275MOL0     C37029   4.165   3.041   7.138 -0.2182 -0.4608  0.2488
  275MOL0     C37030   4.118   3.027   6.988 -0.8002 -1.1862 -0.2377
  275MOL0     C37031   4.150   2.902   6.905 -0.0096  0.9404 -0.2693
  275MOL0     C37032   4.092   2.771   6.961  0.1843  0.5904  0.0405
  275MOL0     C37033   4.211   2.689   7.030 -0.2371  0.0666  0.8116
  275MOL0     C37034   4.303   2.618   6.920  0.0246  0.2418 -0.0488
  275MOL0    Cl37035   4.410   2.498   7.008 -0.0348 -0.1574  0.3293
  275MOL0     C37036   4.216   3.228   7.610  0.4216  0.3241 -0.4110
  275MOL0     C37037   4.212   3.258   7.745 -0.0167 -0.2301 -0.7780
  275MOL0     O37038   4.155   3.223   8.028 -0.1580 -0.4384  0.2302
  275MOL0     C37039   4.263   3.525   8.174  0.2391 -0.1415  0.3725
  275MOL0     C37040   4.316   3.579   8.290  0.4449 -0.5272 -0.5321
  275MOL0     N37041   4.488   3.865   8.932  0.1246  0.6256  1.0206
  275MOL0     N37042   4.387   3.935   8.970 -0.1293  0.7683  0.7643
  275MOL0     C37043   3.437   3.708   8.963 -0.4026  0.3383  0.2438
  275MOL0     C37044   3.388   3.662   8.839  0.6042  0.4510  0.4011
  275MOL0     C37045   3.072   3.425   8.574  0.1794 -0.3651  0.2020
  275MOL0     C37046   2.936   3.368   8.556  0.0243 -0.2099 -0.1471
  275MOL0     C37047   2.871   3.351   8.438  0.4781 -0.0625  0.4039
  275MOL0     C37048   2.934   3.405   8.324 -0.3974 -0.1905  0.1413
  275MOL0     O37049   2.856   3.403   8.215  0.1992  0.7034  0.0412
  275MOL0     C37050   2.902   3.437   8.086 -0.2985  0.4734 -0.1927
  275MOL0     C37051   2.902   3.588   8.055  0.1616  0.0693  0.0473
  275MOL0     C37052   2.945   3.614   7.909  0.0303  0.1742  1.0462
  275MOL0     C37053   3.093   3.624   7.890  0.2228  0.3627 -0.2857
  275MOL0     C37054   3.143   3.634   7.754  0.0073 -0.4345  0.9665
  275MOL0     C37055   3.189   3.668   7.648  0.3374  0.1478  0.3953
  275MOL0     C37056   3.058   3.463   8.336  0.1281 -0.3187 -0.7173
  275MOL0     C37057   3.129   3.467   8.456  0.3058  1.0885  0.7438
  275MOL0     H37058   3.305   3.345   8.939  1.8285 -0.8369  1.6566
  275MOL0     H37059   3.443   3.412   9.127 -1.0707  1.9022  2.0518
  275MOL0     H37060   3.419   3.583   9.337  2.0133 -0.3109  5.3094
  275MOL0     H37061   3.559   3.480   9.273 -1.3852 -1.3104 -2.0078
  275MOL0     H37062   3.584   3.736   9.447  1.0608  1.7660 -1.7293
  275MOL0     H37063   3.641   3.566   9.479  1.6262 -0.2558 -0.1596
  275MOL0     H37064   3.831   3.595   9.380  0.1850  0.2976  0.0866
  275MOL0     H37065   3.762   3.685   9.244  0.8558  0.4203 -0.3994
  275MOL0     H37066   3.780   3.908   9.396  1.1876  1.3553  1.5837
  275MOL0     H37067   3.793   3.797   9.520 -0.2801  0.3138 -0.0400
  275MOL0     H37068   4.019   3.910   9.465  2.7704 -0.7676  1.3186
  275MOL0     H37069   4.036   3.731   9.436  0.9403  0.3299 -0.5443
  275MOL0     H37070   4.005   3.738   9.220  0.5882 -0.1554  0.0001
  275MOL0     H37071   3.938   3.893   9.202  1.4655  2.0521  0.7636
  275MOL0     H37072   4.169   3.997   9.265  1.3850  0.1615 -3.4291
  275MOL0     H37073   4.236   3.833   9.253  0.7937 -0.8650  1.2325
  275MOL0     H37074   4.147   4.024   9.043 -1.5005 -0.2384  0.4172
  275MOL0     H37075   4.086   3.859   9.023 -0.1840 -0.3482  0.0175
  275MOL0     H37076   4.287   3.643   9.095 -0.4147 -1.2927 -0.1840
  275MOL0     H37077   4.656   3.685   8.945 -0.1682  0.7016 -2.1048
  275MOL0     H37078   4.581   3.557   9.054 -1.1101 -1.0280  0.2173
  275MOL0     H37079   4.453   3.459   8.876 -0.0341 -1.2739 -1.0006
  275MOL0     H37080   4.631   3.467   8.838  0.2199  1.4533  0.7476
  275MOL0     H37081   4.600   3.616   8.672 -1.4724  0.4701 -2.2845
  275MOL0     H37082   4.443   3.673   8.737 -1.8503 -0.8160  0.7309
  275MOL0     H37083   4.369   3.428   8.668 -0.9779 -0.3274 -1.5339
  275MOL0     H37084   4.511   3.445   8.559  2.1146  2.4927 -0.4719
  275MOL0     H37085   4.315   3.305   8.488  3.1206 -0.5919 -0.7198
  275MOL0     H37086   4.230   3.139   8.400  0.9775  0.1561 -0.4347
  275MOL0     H37087   4.101   3.145   8.281  0.8198 -0.7965 -2.6069
  275MOL0     H37088   4.276   3.106   8.237  0.7071  1.4828 -0.3485
  275MOL0     H37089   4.106   3.576   7.726  1.2772  1.0151 -1.5660
  275MOL0     H37090   4.090   3.524   7.499 -0.8993 -0.2341 -1.3656
  275MOL0     H37091   4.278   3.134   7.356 -0.1238  0.5325  0.2110
  275MOL0     H37092   4.111   3.102   7.379  0.2932 -1.2549 -1.4684
  275MOL0     H37093   4.072   3.232   7.159  1.1398  0.9738 -1.2298
  275MOL0     H37094   4.248   3.236   7.142  0.6666 -0.5925  1.0318
  275MOL0     H37095   4.102   2.976   7.201  2.0472 -1.9377  1.1287
  275MOL0     H37096   4.268   3.006   7.127 -1.3263 -3.5233 -1.6185
  275MOL0     H37097   4.010   3.034   6.973 -0.3194 -0.0294 -4.5459
  275MOL0     H37098   4.170   3.108   6.936  3.7733 -3.6916 -0.1777
  275MOL0     H37099   4.258   2.891   6.892 -0.1825 -1.6287  0.0877
  275MOL0     H37100   4.109   2.909   6.804 -2.5829 -0.5536  0.6085
  275MOL0     H37101   4.020   2.795   7.040 -1.4615 -2.2179 -0.4806
  275MOL0     H37102   4.034   2.714   6.888 -3.7404  0.4007  2.9703
  275MOL0     H37103   4.170   2.610   7.094  3.0216 -1.7915  0.8074
  275MOL0     H37104   4.269   2.750   7.100 -1.2522 -0.3648  2.0691
  275MOL0     H37105   4.355   2.685   6.851 -3.5732  0.5214 -2.7818
  275MOL0     H37106   4.230   2.564   6.859 -2.3181  0.7364  2.1420
  275MOL0     H37107   4.243   3.129   7.574  0.6854  0.3536 -0.2919
  275MOL0     H37108   4.229   3.172   7.808  1.1182 -0.6468 -1.6096
  275MOL0     H37109   4.266   3.581   8.081  0.1118 -1.1238 -0.2443
  275MOL0     H37110   4.357   3.678   8.274  3.6998 -1.5617  0.5679
  275MOL0     H37111   3.469   3.810   8.984  2.5829 -0.2639 -0.8026
  275MOL0     H37112   3.390   3.732   8.756  2.0985 -0.9375 -0.7912
  275MOL0     H37113   2.875   3.341   8.641 -3.0961  3.1816 -1.0778
  275MOL0     H37114   2.769   3.314   8.434  1.8911 -4.3260 -1.1684
  275MOL0     H37115   3.000   3.390   8.074 -0.5803 -0.5048  1.1113
  275MOL0     H37116   2.839   3.391   8.009 -0.2190  0.7170 -0.4053
  275MOL0     H37117   2.981   3.621   8.124  2.0675  0.3403 -2.1446
  275MOL0     H37118   2.800   3.625   8.065  0.2298  0.1990  0.2869
  275MOL0     H37119   2.912   3.714   7.882  1.3214  1.3875  3.5980
  275MOL0     H37120   2.906   3.540   7.838 -0.3870 -1.2975  2.7148
  275MOL0     H37121   3.151   3.549   7.945  0.4857  1.1095  0.4727
  275MOL0     H37122   3.119   3.712   7.949 -0.2322 -1.6307  3.1401
  275MOL0     H37123   3.221   3.694   7.549 -0.3468  0.0816  0.1470
  275MOL0     H37124   3.092   3.525   8.253 -1.7828 -0.5640 -1.7414
  275MOL0     H37125   3.228   3.511   8.452  1.6483 -1.8267 -0.9578
  276MOL0     O37126   3.613   7.156   7.968  0.3212  0.4835 -0.4703
  276MOL0     C37127   3.711   7.178   7.898  0.4292 -1.0800 -0.1196
  276MOL0     O37128   3.835   7.172   7.936 -0.4531  0.1330  0.1115
  276MOL0     C37129   3.872   7.105   8.047 -0.1051 -0.2946 -0.4408
  276MOL0     C37130   3.925   6.977   8.055  0.1833 -0.5780  0.5154
  276MOL0     C37131   3.974   6.921   8.174  0.1295  0.9647 -0.0628
  276MOL0     C37132   3.955   6.986   8.292 -0.6789  0.1622 -0.6115
  276MOL0     O37133   4.016   6.934   8.404 -0.2528 -0.0489 -0.6971
  276MOL0     C37134   3.998   7.006   8.530  0.2900  0.6282  0.7170
  276MOL0     C37135   4.079   6.923   8.632  0.4684  0.5019  0.8090
  276MOL0     C37136   4.167   6.990   8.747  0.3263  0.8194 -0.2550
  276MOL0     C37137   4.106   7.073   8.859 -0.6733  0.2682 -0.4085
  276MOL0     C37138   4.206   7.126   8.963  0.5641  0.0586 -0.5549
  276MOL0     C37139   4.138   7.138   9.102  0.5915  1.1356  0.0883
  276MOL0     C37140   4.066   7.281   9.106 -0.7765 -0.2819  0.9696
  276MOL0     C37141   3.989   7.292   9.235  0.5988 -1.3468  0.0377
  276MOL0     N37142   3.903   7.418   9.226  0.3884  0.5762  0.0162
  276MOL0     C37143   3.850   7.486   9.111  1.0240  0.3792 -0.6993
  276MOL0     C37144   3.819   7.615   9.152 -0.4139 -0.3981  0.5930
  276MOL0     C37145   3.772   7.722   9.050  0.4716  0.5855  0.3930
  276MOL0     C37146   3.660   7.811   9.099  0.1733 -0.8885  0.3080
  276MOL0     C37147   3.614   7.886   8.977  0.2699  0.4902  0.0625
  276MOL0     C37148   3.506   7.978   9.031 -0.6359 -0.6830  0.7006
  276MOL0     O37149   3.461   8.076   8.933  0.1722 -0.2887 -0.7647
  276MOL0     C37150   3.360   8.158   8.985  0.7726 -0.5852 -0.3602
  276MOL0     C37151   3.308   8.256   8.891  0.5414  0.3533 -0.3277
  276MOL0     C37152   3.208   8.344   8.928  0.2804 -0.9294  0.6253
  276MOL0     C37153   3.173   8.457   8.838  0.0326  0.2065 -0.0544
  276MOL0     C37154   3.156   8.334   9.060  0.5877  1.0328  0.1262
  276MOL0     C37155   3.031   8.418   9.101 -0.0377  0.9351 -0.1946
  276MOL0     O37156   2.961   8.366   9.206 -0.3019 -0.5835 -0.2972
  276MOL0     C37157   2.834   8.422   9.233 -0.0283 -0.0248  1.3352
  276MOL0     C37158   2.734   8.472   9.131 -0.6070 -0.4806 -0.2532
  276MOL0     C37159   2.612   8.519   9.183  0.1522 -0.3547  1.1548
  276MOL0     C37160   2.584   8.514   9.320  0.4195  0.7188 -0.7676
  276MOL0     O37161   2.456   8.566   9.357 -0.9586 -0.3225  0.0254
  276MOL0     C37162   2.453   8.676   9.449 -0.0288 -0.5965  0.0019
  276MOL0     C37163   2.318   8.740   9.448 -1.2361 -0.8504  0.6858
  276MOL0     C37164   2.307   8.865   9.534 -0.2459  0.1512  0.0571
  276MOL0     C37165   2.168   8.922   9.524  0.3239 -0.7707  0.3556
  276MOL0     C37166   2.166   9.035   9.622  0.4648 -0.3999 -0.0954
  276MOL0     C37167   2.031   9.105   9.612  0.4685 -0.2252  0.6545
  276MOL0     C37168   2.022   9.207   9.726 -0.0676  0.4545 -0.1480
  276MOL0     C37169   1.881   9.258   9.754 -0.4905 -0.4694  0.8548
  276MOL0    Cl37170   1.889   9.391   9.875 -0.0767  0.1849  0.3226
  276MOL0     C37171   2.677   8.482   9.414 -0.2674 -0.6302  0.1732
  276MOL0     C37172   2.802   8.441   9.365 -0.3449  0.3839 -0.7963
  276MOL0     O37173   3.004   8.524   9.044 -0.3844  0.5083  0.0526
  276MOL0     C37174   3.204   8.233   9.155 -0.0321  0.0039  0.3305
  276MOL0     C37175   3.308   8.145   9.119 -0.4980 -0.8013  0.3599
  276MOL0     N37176   3.864   7.628   9.279 -0.0704 -0.3077 -0.4417
  276MOL0     N37177   3.905   7.509   9.324  0.5886  1.1794 -0.2609
  276MOL0     C37178   3.895   7.110   8.290  0.2120  0.3166  0.7028
  276MOL0     C37179   3.851   7.164   8.170  0.1904 -0.5631  0.1377
  276MOL0     C37180   3.682   7.247   7.769 -0.4078  0.4761  1.2117
  276MOL0     C37181   3.549   7.263   7.716  0.5354 -0.6904 -0.7326
  276MOL0     C37182   3.516   7.335   7.599 -0.0085 -0.5081 -0.3420
  276MOL0     C37183   3.625   7.395   7.533 -0.0588  0.3716 -0.0693
  276MOL0     O37184   3.598   7.498   7.444 -0.6476  0.4637 -0.8701
  276MOL0     C37185   3.466   7.541   7.404 -0.3479 -0.1868  0.7719
  276MOL0     C37186   3.463   7.612   7.264  0.5259  0.6945 -0.6420
  276MOL0     C37187   3.537   7.742   7.264  0.5488  0.9148 -1.1731
  276MOL0     C37188   3.541   7.802   7.120 -0.3309  0.0531  0.3621
  276MOL0     C37189   3.416   7.863   7.085  0.8088  1.2065 -1.4299
  276MOL0     C37190   3.297   7.882   7.065 -0.8229 -0.2507 -0.8155
  276MOL0     C37191   3.758   7.362   7.576 -0.2850  0.1920  0.7888
  276MOL0     C37192   3.785   7.282   7.682 -0.4824  0.1383 -0.5068
  276MOL0     H37193   3.945   6.935   7.956  0.0524  2.1777 -0.7732
  276MOL0     H37194   4.034   6.831   8.178 -1.2436 -0.2665 -3.3711
  276MOL0     H37195   4.040   7.107   8.533 -2.1363  1.6978  0.9201
  276MOL0     H37196   3.892   6.997   8.553 -0.0611 -0.8383 -1.1625
  276MOL0     H37197   4.008   6.850   8.672 -1.0449  1.7903  0.6037
  276MOL0     H37198   4.146   6.866   8.567 -0.3202  2.2421 -1.7309
  276MOL0     H37199   4.204   6.904   8.805 -0.7319 -0.5379 -1.5171
  276MOL0     H37200   4.252   7.047   8.708  3.9846 -1.6506  3.1996
  276MOL0     H37201   4.057   7.165   8.825  0.4329  0.6905 -0.9054
  276MOL0     H37202   4.028   7.014   8.908  0.2393  0.7069  1.6890
  276MOL0     H37203   4.298   7.066   8.966  0.2983 -0.4367 -1.7708
  276MOL0     H37204   4.232   7.227   8.930 -0.9066  1.4335  2.2067
  276MOL0     H37205   4.070   7.057   9.130  0.1361  0.6908 -2.1289
  276MOL0     H37206   4.220   7.159   9.171  1.9041  1.1840 -1.4127
  276MOL0     H37207   4.145   7.357   9.112 -0.4510 -0.5213 -0.0366
  276MOL0     H37208   3.997   7.292   9.022  3.2937  0.0972 -2.7236
  276MOL0     H37209   4.067   7.298   9.311  1.1891  0.4129 -0.6654
  276MOL0     H37210   3.926   7.203   9.236  1.0045 -1.6964 -1.9889
  276MOL0     H37211   3.837   7.447   9.010 -0.9749  0.9984 -0.7366
  276MOL0     H37212   3.863   7.779   9.027  1.1526 -1.4636 -2.4505
  276MOL0     H37213   3.757   7.684   8.949  2.3386  0.7552 -0.0009
  276MOL0     H37214   3.693   7.886   9.172  0.5223  2.6825 -3.1317
  276MOL0     H37215   3.586   7.746   9.144  0.1654 -1.4456 -0.4810
  276MOL0     H37216   3.568   7.807   8.916  0.7108 -0.7633  1.3035
  276MOL0     H37217   3.699   7.931   8.925  0.8192 -1.0793 -0.4775
  276MOL0     H37218   3.547   8.034   9.116  0.0476 -1.6829  1.0609
  276MOL0     H37219   3.419   7.920   9.063 -0.0599 -1.6088  0.6320
  276MOL0     H37220   3.347   8.256   8.789  0.1228 -1.0426 -0.5148
  276MOL0     H37221   3.069   8.446   8.805  0.1264 -3.5854  0.4395
  276MOL0     H37222   3.188   8.550   8.894  1.8525 -2.4521  4.4751
  276MOL0     H37223   3.238   8.459   8.751 -0.1905  0.1577 -0.2239
  276MOL0     H37224   2.766   8.480   9.028  0.5532  3.5525  0.2345
  276MOL0     H37225   2.536   8.547   9.111  0.9621 -3.7014 -1.2868
  276MOL0     H37226   2.479   8.638   9.548  0.8804 -0.8392 -0.3188
  276MOL0     H37227   2.521   8.757   9.422 -1.2101  0.4812  0.1439
  276MOL0     H37228   2.292   8.762   9.344  0.1217  4.3858  1.2118
  276MOL0     H37229   2.250   8.670   9.498 -2.1920  1.6110  3.0409
  276MOL0     H37230   2.390   8.931   9.508 -0.0319 -0.4231 -0.7830
  276MOL0     H37231   2.329   8.825   9.633 -0.5934 -2.1469 -0.7324
  276MOL0     H37232   2.143   8.948   9.421  1.3462 -4.0913 -0.8657
  276MOL0     H37233   2.089   8.857   9.565 -0.2227  1.0504  2.3885
  276MOL0     H37234   2.242   9.109   9.593  0.4081  0.0220  0.7981
  276MOL0     H37235   2.175   9.005   9.727  0.1588  1.5077  0.5166
  276MOL0     H37236   2.031   9.155   9.515  0.9090 -0.2461  0.6389
  276MOL0     H37237   1.952   9.031   9.628  1.0767 -0.9008  0.5892
  276MOL0     H37238   2.096   9.284   9.702  0.3858 -0.4944 -1.9229
  276MOL0     H37239   2.056   9.169   9.822  5.0023  4.1405 -0.0856
  276MOL0     H37240   1.820   9.172   9.784 -0.0482 -0.4828  1.7522
  276MOL0     H37241   1.841   9.298   9.660  2.2214 -2.6325 -1.4416
  276MOL0     H37242   2.666   8.489   9.521 -0.7319  0.1943  0.0813
  276MOL0     H37243   2.884   8.422   9.434 -0.6259 -0.7667 -0.7658
  276MOL0     H37244   3.157   8.222   9.252 -0.5097  2.8826  0.5222
  276MOL0     H37245   3.337   8.068   9.190 -0.9361  1.2319  2.8934
  276MOL0     H37246   3.857   7.166   8.374 -1.4541  0.0705  0.1504
  276MOL0     H37247   3.797   7.259   8.166 -1.5187 -1.4846  0.1423
  276MOL0     H37248   3.466   7.227   7.776 -0.2314  1.0480 -0.7115
  276MOL0     H37249   3.410   7.351   7.579 -0.3564 -0.4156  1.4403
  276MOL0     H37250   3.392   7.461   7.396  1.8723 -2.4011  1.1372
  276MOL0     H37251   3.445   7.624   7.471  2.7085  0.8756  0.5679
  276MOL0     H37252   3.358   7.639   7.249 -0.2541 -0.5410  1.9895
  276MOL0     H37253   3.499   7.548   7.182  0.4051  1.6135 -1.4346
  276MOL0     H37254   3.640   7.716   7.291 -0.3378 -2.1843 -0.3993
  276MOL0     H37255   3.490   7.804   7.340 -0.5209 -2.5015  1.1651
  276MOL0     H37256   3.563   7.722   7.048  1.8647 -0.2346  1.2504
  276MOL0     H37257   3.615   7.882   7.112 -2.2229  1.7085 -1.5842
  276MOL0     H37258   3.190   7.883   7.069 -0.8474 -1.0754 -1.0595
  276MOL0     H37259   3.834   7.413   7.516 -0.2542 -1.5428 -0.7372
  276MOL0     H37260   3.889   7.271   7.711 -0.6378 -0.4788 -0.1652
  277MOL0     O37261   7.542   7.071   5.794 -1.7323  0.2146 -0.9284
  277MOL0     C37262   7.527   7.176   5.728 -0.1111 -0.7012 -1.1706
  277MOL0     O37263   7.429   7.198   5.629  0.4141  0.0308 -0.1488
  277MOL0     C37264   7.371   7.094   5.561 -0.7238  0.0823  0.3708
  277MOL0     C37265   7.307   6.985   5.627  0.0880  0.8198  0.3523
  277MOL0     C37266   7.249   6.878   5.559 -0.5399 -0.6962 -0.2825
  277MOL0     C37267   7.242   6.884   5.421  0.2367  0.2656 -0.3987
  277MOL0     O37268   7.186   6.790   5.335 -0.4403  0.1937 -1.2669
  277MOL0     C37269   7.085   6.708   5.392  0.3721  0.1183  0.0807
  277MOL0     C37270   7.041   6.626   5.274  0.5418 -0.4145  1.5092
  277MOL0     C37271   7.010   6.703   5.141 -0.4584  0.1362 -0.7947
  277MOL0     C37272   6.960   6.622   5.025 -0.4392 -0.0354 -0.1566
  277MOL0     C37273   6.911   6.704   4.912  0.4197 -1.3401 -0.4651
  277MOL0     C37274   6.864   6.631   4.791  0.0039 -0.2775  0.7496
  277MOL0     C37275   6.750   6.715   4.730  0.9710 -0.2695  0.5872
  277MOL0     C37276   6.687   6.659   4.606  0.0406  0.4624  0.3783
  277MOL0     N37277   6.781   6.639   4.492  0.6942 -0.1987 -0.5795
  277MOL0     C37278   6.815   6.732   4.386  0.6694 -0.4429  0.0098
  277MOL0     C37279   6.900   6.662   4.311  0.1812  0.2160  0.1219
  277MOL0     C37280   6.967   6.721   4.188  0.8101 -0.4539  0.2555
  277MOL0     C37281   7.112   6.758   4.205 -0.2097 -0.4808 -0.2670
  277MOL0     C37282   7.215   6.643   4.167 -0.0168  0.5037  0.6127
  277MOL0     C37283   7.355   6.706   4.144  0.7415 -0.2411  0.6029
  277MOL0     O37284   7.437   6.613   4.223  0.2105 -0.5985  0.1216
  277MOL0     C37285   7.572   6.599   4.193 -0.1767  0.0982  0.4165
  277MOL0     C37286   7.648   6.700   4.138 -0.6971  0.1520 -0.0625
  277MOL0     C37287   7.790   6.680   4.132  0.4318  1.3923  1.0112
  277MOL0     C37288   7.862   6.784   4.065  0.2514 -0.1380 -0.3591
  277MOL0     C37289   7.854   6.561   4.180 -0.7462  0.0439 -0.1334
  277MOL0     C37290   8.001   6.542   4.175  0.5386  0.5342  0.3666
  277MOL0     O37291   8.060   6.496   4.289 -1.0359  0.3274 -1.1097
  277MOL0     C37292   8.182   6.435   4.286  0.2338 -0.3088  0.8403
  277MOL0     C37293   8.236   6.406   4.411  0.4695 -0.4395  0.8003
  277MOL0     C37294   8.352   6.335   4.428  0.1053 -0.0376  0.5138
  277MOL0     C37295   8.427   6.295   4.322 -0.2939 -0.3805  0.0296
  277MOL0     O37296   8.556   6.244   4.318  0.1979  0.2018 -0.3309
  277MOL0     C37297   8.603   6.209   4.445 -0.9060  0.2171 -0.7111
  277MOL0     C37298   8.755   6.203   4.428  0.6869 -0.4288 -0.2030
  277MOL0     C37299   8.830   6.148   4.551 -0.1646  0.0860 -0.1608
  277MOL0     C37300   8.814   6.000   4.569 -0.4014 -0.7944 -0.6038
  277MOL0     C37301   8.894   5.913   4.471  0.7486  0.4533 -0.1168
  277MOL0     C37302   8.927   5.777   4.537  0.4696 -0.0218  0.1371
  277MOL0     C37303   9.009   5.695   4.444  0.1474 -1.3222  0.8010
  277MOL0     C37304   9.041   5.546   4.480  1.0356  0.5950 -0.2410
  277MOL0    Cl37305   8.899   5.447   4.494 -0.1286 -0.3105 -0.3010
  277MOL0     C37306   8.382   6.332   4.191 -0.3415  0.0604  0.2692
  277MOL0     C37307   8.259   6.397   4.169 -0.0804  0.0475  0.2245
  277MOL0     O37308   8.053   6.553   4.066 -0.1894 -0.5779  0.0295
  277MOL0     C37309   7.773   6.458   4.234  0.2565 -0.4479  0.4663
  277MOL0     C37310   7.638   6.486   4.244 -0.1382 -0.3566 -1.4114
  277MOL0     N37311   6.922   6.544   4.370  0.5322 -0.0768 -0.3925
  277MOL0     N37312   6.854   6.528   4.479  0.8682  0.2166 -0.0458
  277MOL0     C37313   7.309   6.990   5.355 -0.0640  0.9415 -0.5544
  277MOL0     C37314   7.376   7.084   5.418  0.6179 -0.6449  0.0964
  277MOL0     C37315   7.601   7.298   5.764  1.0151  0.5811  0.2208
  277MOL0     C37316   7.553   7.423   5.726  0.5805 -0.2844 -0.4679
  277MOL0     C37317   7.637   7.539   5.739  0.4416  0.3412 -0.4393
  277MOL0     C37318   7.767   7.522   5.782  0.4135 -0.0916  1.0015
  277MOL0     O37319   7.838   7.641   5.817  0.1495  0.4426  0.4412
  277MOL0     C37320   7.987   7.630   5.827 -0.8297 -0.2435  0.2270
  277MOL0     C37321   8.039   7.778   5.828 -0.0107  0.2962 -0.1858
  277MOL0     C37322   7.991   7.853   5.960  0.0560  0.1139 -0.2760
  277MOL0     C37323   8.100   7.844   6.072 -0.2744 -1.0287  1.3469
  277MOL0     C37324   8.114   7.704   6.127  0.1102  1.0187  0.6655
  277MOL0     C37325   8.125   7.591   6.166  0.6468  0.2594  0.4057
  277MOL0     C37326   7.809   7.395   5.822 -0.8673 -1.0753 -0.0522
  277MOL0     C37327   7.729   7.281   5.818 -0.5816  0.7567 -0.3786
  277MOL0     H37328   7.329   6.986   5.733 -1.7806 -0.5708  0.7959
  277MOL0     H37329   7.225   6.780   5.598 -0.2562  0.2681  2.5232
  277MOL0     H37330   7.126   6.647   5.473  0.0945 -2.9998 -1.9788
  277MOL0     H37331   7.001   6.755   5.443 -2.5680 -4.4100 -0.0921
  277MOL0     H37332   7.109   6.551   5.234 -0.1222  1.1443 -3.3370
  277MOL0     H37333   6.956   6.565   5.304  0.4030 -1.1578 -0.2589
  277MOL0     H37334   6.932   6.776   5.167  0.3098  1.3422 -1.7710
  277MOL0     H37335   7.092   6.769   5.114  0.4551 -0.0672  1.2775
  277MOL0     H37336   7.039   6.564   4.978  1.0726  1.2365  0.7150
  277MOL0     H37337   6.870   6.575   5.065  0.2236  0.2795  1.8174
  277MOL0     H37338   6.825   6.754   4.959  1.8926  1.7501 -0.8297
  277MOL0     H37339   6.985   6.779   4.884  0.1319 -0.8958 -0.0767
  277MOL0     H37340   6.937   6.622   4.710 -2.8026  2.3489 -2.4116
  277MOL0     H37341   6.825   6.534   4.822 -2.0449  0.9648  2.3011
  277MOL0     H37342   6.663   6.713   4.795  1.2251  2.3500  1.1407
  277MOL0     H37343   6.780   6.818   4.709  0.4462  0.0029  1.1518
  277MOL0     H37344   6.605   6.722   4.572 -2.0286 -0.7574  2.7827
  277MOL0     H37345   6.643   6.563   4.634  0.2979 -0.5424 -2.3595
  277MOL0     H37346   6.781   6.835   4.378 -0.6686 -0.4829  3.3668
  277MOL0     H37347   6.959   6.643   4.112 -0.3664 -1.1654  1.0634
  277MOL0     H37348   6.915   6.812   4.155  3.4939  0.1886 -2.6012
  277MOL0     H37349   7.120   6.776   4.313  0.0668 -2.2066  0.0291
  277MOL0     H37350   7.144   6.847   4.151  3.1158 -0.5396  1.4066
  277MOL0     H37351   7.191   6.606   4.066  1.8343  3.7500 -1.1914
  277MOL0     H37352   7.210   6.565   4.243 -2.1170  1.8219  1.9406
  277MOL0     H37353   7.360   6.804   4.191  2.5288 -0.0404  0.0848
  277MOL0     H37354   7.388   6.717   4.041  0.8705  1.6900  0.8212
  277MOL0     H37355   7.597   6.791   4.109  1.3933  1.1769 -0.7298
  277MOL0     H37356   7.796   6.851   4.010  0.4452 -0.7099 -1.3231
  277MOL0     H37357   7.918   6.842   4.138  1.8357  1.6519 -2.8241
  277MOL0     H37358   7.935   6.744   3.994  1.0292 -2.9177  1.7907
  277MOL0     H37359   8.163   6.433   4.487 -0.6009  0.9073 -0.6636
  277MOL0     H37360   8.373   6.316   4.532  3.0120  0.0448  0.0136
  277MOL0     H37361   8.583   6.285   4.522 -2.2448 -0.1986 -0.6235
  277MOL0     H37362   8.561   6.111   4.466  1.5744 -1.3509 -2.4975
  277MOL0     H37363   8.770   6.120   4.359 -1.5804 -2.6826  1.8248
  277MOL0     H37364   8.809   6.291   4.392  2.8144 -1.6184 -0.1384
  277MOL0     H37365   8.777   6.198   4.633  2.5697 -0.1473  1.8702
  277MOL0     H37366   8.935   6.167   4.529 -0.8978  1.2071 -3.1998
  277MOL0     H37367   8.854   5.974   4.668  3.3659 -1.9559 -2.2306
  277MOL0     H37368   8.708   5.975   4.572 -0.0159 -2.6587 -1.1814
  277MOL0     H37369   8.989   5.966   4.460 -0.1060  1.6516 -2.2957
  277MOL0     H37370   8.841   5.893   4.377 -0.8640 -0.7567  0.9681
  277MOL0     H37371   8.988   5.794   4.627 -1.4782 -0.1520  1.5411
  277MOL0     H37372   8.837   5.721   4.566  2.2864 -2.5508  1.2966
  277MOL0     H37373   9.108   5.741   4.446  0.4389 -1.9320  0.7644
  277MOL0     H37374   8.968   5.705   4.343 -2.9414  1.3836  2.1419
  277MOL0     H37375   9.095   5.544   4.575  1.4205 -2.2745 -0.4498
  277MOL0     H37376   9.120   5.508   4.415  3.3946  2.8010  1.0857
  277MOL0     H37377   8.449   6.298   4.113  0.3589 -3.1804  2.0948
  277MOL0     H37378   8.231   6.418   4.066  1.6867 -3.7500 -1.2298
  277MOL0     H37379   7.816   6.361   4.259  0.4157 -0.3884  0.4295
  277MOL0     H37380   7.583   6.413   4.302  3.0165  0.6465  3.3817
  277MOL0     H37381   7.304   6.986   5.247 -0.6359 -0.8493 -0.5025
  277MOL0     H37382   7.427   7.163   5.364  1.6482 -2.0311 -1.0334
  277MOL0     H37383   7.446   7.437   5.709 -0.0243  0.3557  3.1172
  277MOL0     H37384   7.590   7.632   5.711 -0.8947  0.3050  1.4708
  277MOL0     H37385   8.023   7.567   5.909 -1.0566  1.5393  1.7569
  277MOL0     H37386   8.037   7.582   5.742  0.5072 -2.8414  2.3352
  277MOL0     H37387   8.007   7.832   5.739 -0.6465  1.3737  0.6758
  277MOL0     H37388   8.148   7.793   5.824 -0.1376  2.5610  2.0529
  277MOL0     H37389   7.894   7.820   5.998  0.2850 -0.1938  0.0427
  277MOL0     H37390   7.968   7.955   5.928 -4.1938 -0.8207 -0.7212
  277MOL0     H37391   8.068   7.918   6.145  1.8029  5.3520 -3.2768
  277MOL0     H37392   8.197   7.880   6.036 -2.7353  5.7261  0.0687
  277MOL0     H37393   8.124   7.486   6.188 -4.8755  0.3269  1.8696
  277MOL0     H37394   7.911   7.389   5.861 -0.2796  2.4629 -0.6703
  277MOL0     H37395   7.773   7.186   5.847 -0.9865  1.4299  2.8333
  278MOL0     O37396   4.291   0.575   2.980  0.2521 -0.0091 -0.2448
  278MOL0     C37397   4.389   0.612   2.914 -0.0012 -0.0798  0.4057
  278MOL0     O37398   4.469   0.715   2.950 -0.1884 -0.1096 -0.1825
  278MOL0     C37399   4.430   0.773   3.072  0.7874 -0.3620  1.0600
  278MOL0     C37400   4.314   0.850   3.090  0.5669  1.4070  0.3645
  278MOL0     C37401   4.277   0.917   3.211 -0.8553  0.5210  0.2225
  278MOL0     C37402   4.365   0.889   3.321  0.6658 -0.0765  0.2425
  278MOL0     O37403   4.335   0.967   3.431 -0.2718 -0.2706  0.6204
  278MOL0     C37404   4.307   0.887   3.544 -0.7975  0.6857 -0.2009
  278MOL0     C37405   4.189   0.956   3.626  0.4619  0.8185  0.2785
  278MOL0     C37406   4.137   0.868   3.737 -0.0668  1.0087  0.2468
  278MOL0     C37407   4.210   0.882   3.871  0.2726 -0.3205  0.4753
  278MOL0     C37408   4.217   1.023   3.924 -0.4812 -0.2454 -0.4591
  278MOL0     C37409   4.283   1.027   4.057  0.7624  0.6205 -0.5306
  278MOL0     C37410   4.423   0.962   4.051  1.2962 -0.4323  0.4450
  278MOL0     C37411   4.520   1.005   4.154  1.0373 -0.6869 -0.4865
  278MOL0     N37412   4.638   0.927   4.131  0.6053 -0.1490 -0.1897
  278MOL0     C37413   4.738   0.950   4.048 -0.9398 -0.6291  1.1952
  278MOL0     C37414   4.820   0.852   4.057  0.4346 -0.2947  0.1419
  278MOL0     C37415   4.942   0.841   3.965  0.8647  0.6234  0.7335
  278MOL0     C37416   4.909   0.729   3.856 -0.2654 -1.1267  0.3678
  278MOL0     C37417   5.040   0.710   3.778 -0.1075  0.4753  0.7777
  278MOL0     C37418   5.039   0.586   3.678 -0.6339  0.5168 -0.6545
  278MOL0     O37419   5.171   0.584   3.620  0.2601  0.3469  0.0893
  278MOL0     C37420   5.246   0.471   3.637 -0.1990 -0.6960  0.1816
  278MOL0     C37421   5.191   0.351   3.598 -0.3820  0.5454 -1.0205
  278MOL0     C37422   5.272   0.238   3.623 -0.1957  0.0591  0.9338
  278MOL0     C37423   5.209   0.109   3.600  0.1250  0.0463  0.5782
  278MOL0     C37424   5.406   0.251   3.660  0.3945  0.3666  0.0292
  278MOL0     C37425   5.490   0.130   3.678 -0.7129 -0.0972  0.6616
  278MOL0     O37426   5.554   0.106   3.802  0.4713  0.3667  0.0513
  278MOL0     C37427   5.604  -0.018   3.817  0.2089 -0.4576 -0.0686
  278MOL0     C37428   5.708  -0.070   3.735  0.8459 -0.0963 -0.4589
  278MOL0     C37429   5.753  -0.200   3.763  0.7852  0.7608  0.6503
  278MOL0     C37430   5.712  -0.269   3.879  0.2980 -0.2137  0.3826
  278MOL0     O37431   5.773  -0.388   3.911  0.2903 -0.2696  0.6266
  278MOL0     C37432   5.692  -0.505   3.904 -0.5605 -0.5924  1.0564
  278MOL0     C37433   5.774  -0.632   3.907 -0.1161  0.4586  0.0606
  278MOL0     C37434   5.825  -0.636   4.047 -0.4166  0.4002 -0.6706
  278MOL0     C37435   5.974  -0.673   4.049 -0.2127  0.0346  1.0802
  278MOL0     C37436   6.039  -0.713   4.183 -0.7818  0.2063 -0.8093
  278MOL0     C37437   6.074  -0.585   4.273 -0.3015  0.2272  0.3372
  278MOL0     C37438   6.179  -0.486   4.205 -1.0475 -0.3280 -0.4045
  278MOL0     C37439   6.129  -0.349   4.159  0.1757  0.3374  0.0608
  278MOL0    Cl37440   6.109  -0.246   4.308  0.4925 -0.3354  0.4256
  278MOL0     C37441   5.599  -0.219   3.944  0.1448 -0.3887 -0.4159
  278MOL0     C37442   5.546  -0.093   3.914  0.2783 -0.4209 -0.9280
  278MOL0     O37443   5.513   0.063   3.575 -0.4032 -0.4444 -0.3518
  278MOL0     C37444   5.457   0.377   3.686  0.2201  0.7102  0.6173
  278MOL0     C37445   5.371   0.490   3.681 -1.1654  0.3116 -0.7450
  278MOL0     N37446   4.778   0.757   4.158 -0.0475 -1.4736 -0.0873
  278MOL0     N37447   4.660   0.809   4.193 -0.4444  0.9135  0.2509
  278MOL0     C37448   4.467   0.795   3.311 -0.3501  0.5341 -0.0517
  278MOL0     C37449   4.501   0.744   3.186  0.5276 -0.0229  0.1779
  278MOL0     C37450   4.420   0.539   2.789 -0.4376 -0.6234  0.1886
  278MOL0     C37451   4.535   0.575   2.709  0.2880 -0.1175  0.3132
  278MOL0     C37452   4.562   0.511   2.591 -0.1434  0.7191  0.9082
  278MOL0     C37453   4.492   0.388   2.554 -0.4194 -0.1869  0.1665
  278MOL0     O37454   4.532   0.314   2.446  0.1803 -0.7702 -0.1054
  278MOL0     C37455   4.629   0.350   2.347  0.7333  0.3518 -0.5989
  278MOL0     C37456   4.582   0.454   2.249  0.0098  0.0414  0.4791
  278MOL0     C37457   4.464   0.421   2.153 -0.5592  0.1752 -0.6551
  278MOL0     C37458   4.341   0.456   2.221 -0.0019 -0.7400  0.1250
  278MOL0     C37459   4.236   0.436   2.117 -0.0519 -0.3958  1.1122
  278MOL0     C37460   4.150   0.411   2.032  0.1167  0.4415  0.4953
  278MOL0     C37461   4.385   0.350   2.633  0.9121 -0.4726 -0.7223
  278MOL0     C37462   4.348   0.428   2.745  0.3107  0.2014 -0.5228
  278MOL0     H37463   4.258   0.869   2.999 -1.9852 -2.1657  0.9463
  278MOL0     H37464   4.195   0.988   3.213 -1.1065  0.5116 -3.1179
  278MOL0     H37465   4.280   0.785   3.516  2.5049 -0.2084 -0.5503
  278MOL0     H37466   4.395   0.891   3.608  0.6256 -0.2501 -2.0171
  278MOL0     H37467   4.222   1.053   3.663 -0.2061  1.4832 -0.8347
  278MOL0     H37468   4.105   0.966   3.557  1.2160  2.6754 -0.4126
  278MOL0     H37469   4.031   0.880   3.759 -0.4927  2.4626 -2.2476
  278MOL0     H37470   4.149   0.765   3.703  1.2149  1.9593 -2.4206
  278MOL0     H37471   4.181   0.807   3.945  0.5416 -3.0077 -1.9689
  278MOL0     H37472   4.313   0.860   3.844  0.7222  1.2977  0.7531
  278MOL0     H37473   4.275   1.080   3.852 -2.2115  1.1270 -0.8296
  278MOL0     H37474   4.123   1.075   3.942  0.3213  0.5038  1.9258
  278MOL0     H37475   4.287   1.135   4.074 -0.4212  0.2288  3.3051
  278MOL0     H37476   4.223   0.971   4.131 -0.4965  0.6945 -1.4554
  278MOL0     H37477   4.406   0.854   4.058 -1.7887 -0.1081 -0.5960
  278MOL0     H37478   4.460   0.993   3.953  1.1833 -0.5955  0.3507
  278MOL0     H37479   4.478   0.968   4.248  0.1238 -1.3796 -1.1591
  278MOL0     H37480   4.528   1.114   4.158 -3.7973 -0.1185 -0.0271
  278MOL0     H37481   4.757   1.034   3.982 -1.8204 -2.2702 -1.2908
  278MOL0     H37482   4.953   0.935   3.910 -5.7336  0.8169 -1.1365
  278MOL0     H37483   5.038   0.813   4.010  1.7498  1.0180 -0.8276
  278MOL0     H37484   4.831   0.782   3.800  0.9847  0.1227 -0.2417
  278MOL0     H37485   4.877   0.632   3.894  1.9332 -2.2213 -0.4623
  278MOL0     H37486   5.124   0.699   3.846 -0.1793  0.2288  0.8280
  278MOL0     H37487   5.065   0.803   3.726 -0.9754 -0.2568 -1.0724
  278MOL0     H37488   4.962   0.610   3.605 -1.4106  1.3712  0.4064
  278MOL0     H37489   5.023   0.484   3.716  3.3313 -1.1720 -2.9081
  278MOL0     H37490   5.098   0.332   3.546  0.1685 -5.2564 -0.5257
  278MOL0     H37491   5.281   0.030   3.621  0.6705  0.5906  0.8110
  278MOL0     H37492   5.124   0.087   3.666 -1.3539 -1.0688 -1.5962
  278MOL0     H37493   5.185   0.093   3.495  2.7787  0.9882 -0.2584
  278MOL0     H37494   5.755  -0.007   3.660 -0.6468  3.4534  1.3534
  278MOL0     H37495   5.835  -0.244   3.708  0.1344 -0.2641  0.4773
  278MOL0     H37496   5.610  -0.513   3.976 -0.7404  0.2752  0.9516
  278MOL0     H37497   5.654  -0.505   3.801  1.2199  2.5201  0.2626
  278MOL0     H37498   5.701  -0.713   3.900 -0.6151  0.9012  0.0618
  278MOL0     H37499   5.856  -0.641   3.834  0.1716 -3.9040  0.6652
  278MOL0     H37500   5.769  -0.718   4.093 -1.3080  0.4547 -1.6247
  278MOL0     H37501   5.798  -0.554   4.115 -0.3126 -1.7430  2.1594
  278MOL0     H37502   5.989  -0.755   3.978 -1.6854  2.6546 -2.5967
  278MOL0     H37503   6.020  -0.585   4.002  1.2535  0.2722  2.8615
  278MOL0     H37504   6.131  -0.770   4.166  1.5748  2.9597  1.4101
  278MOL0     H37505   5.967  -0.775   4.237  1.9745 -0.0369  2.9924
  278MOL0     H37506   5.985  -0.523   4.290 -0.0202  0.3772  1.3081
  278MOL0     H37507   6.108  -0.620   4.371  1.3858  0.2075 -0.2240
  278MOL0     H37508   6.226  -0.535   4.119  0.6232  1.4884 -0.5976
  278MOL0     H37509   6.261  -0.479   4.277 -0.3063  2.0458 -1.3928
  278MOL0     H37510   6.037  -0.369   4.104 -0.2065  0.2417  0.7221
  278MOL0     H37511   6.192  -0.301   4.083  1.0496  1.7731  1.6200
  278MOL0     H37512   5.550  -0.280   4.020  0.3323 -0.3857 -0.2925
  278MOL0     H37513   5.456  -0.055   3.960  0.7263  0.2424 -0.5911
  278MOL0     H37514   5.547   0.367   3.747  1.1406 -4.1804 -1.0412
  278MOL0     H37515   5.417   0.584   3.709  1.5541 -0.7311 -1.3871
  278MOL0     H37516   4.538   0.771   3.390 -2.1252 -1.1816  1.1101
  278MOL0     H37517   4.575   0.666   3.170  0.8708  0.2861  0.2277
  278MOL0     H37518   4.587   0.667   2.736 -1.2010  0.5664  1.0245
  278MOL0     H37519   4.647   0.547   2.532 -0.5933  1.2805  0.5906
  278MOL0     H37520   4.722   0.384   2.393  0.1611  3.4440 -1.4917
  278MOL0     H37521   4.643   0.252   2.301  1.3862  0.6330 -1.0058
  278MOL0     H37522   4.668   0.494   2.194 -0.8053  0.3525 -0.5916
  278MOL0     H37523   4.549   0.541   2.306 -1.6702  1.8222 -2.9340
  278MOL0     H37524   4.459   0.312   2.153 -0.5941  0.1728  0.2535
  278MOL0     H37525   4.481   0.477   2.061  0.6607  2.8750  1.0885
  278MOL0     H37526   4.340   0.558   2.262 -0.0705 -0.3968 -0.7168
  278MOL0     H37527   4.313   0.395   2.307 -1.1371 -0.5642 -0.1032
  278MOL0     H37528   4.079   0.399   1.952 -1.8985  3.7943  1.5506
  278MOL0     H37529   4.332   0.262   2.598  1.5169 -0.0788 -2.7472
  278MOL0     H37530   4.256   0.415   2.800  0.2689  1.5555 -0.2445
  279MOL0     O37531   2.910   3.706  10.503  0.0902  0.4831  0.5195
  279MOL0     C37532   2.858   3.599  10.468  0.5485 -0.0944 -0.5434
  279MOL0     O37533   2.913   3.507  10.389 -0.3821  0.9558 -0.2954
  279MOL0     C37534   3.046   3.524  10.356 -0.3040 -0.5032 -0.3280
  279MOL0     C37535   3.077   3.591  10.233  0.3212  0.8114 -0.5408
  279MOL0     C37536   3.209   3.602  10.205 -0.0725 -0.1272  0.2603
  279MOL0     C37537   3.314   3.561  10.289 -0.1463  0.1790 -0.7041
  279MOL0     O37538   3.449   3.566  10.282  0.0122 -0.9095  0.0529
  279MOL0     C37539   3.509   3.635  10.168  0.5422  0.2267  0.2192
  279MOL0     C37540   3.498   3.783  10.174  0.1279 -1.0398  0.2685
  279MOL0     C37541   3.519   3.862  10.295 -0.1273 -1.1428 -1.0692
  279MOL0     C37542   3.650   3.835  10.364 -0.3259 -0.0381 -0.0074
  279MOL0     C37543   3.767   3.892  10.284 -0.3781 -0.4413  0.2963
  279MOL0     C37544   3.890   3.909  10.381 -0.6707  0.5204  0.8204
  279MOL0     C37545   4.011   3.986  10.314  0.5487  0.1130 -0.1958
  279MOL0     C37546   4.063   3.905  10.190 -0.3775  0.3329 -0.4666
  279MOL0     N37547   4.095   3.762  10.228 -0.8727 -0.0432 -0.2082
  279MOL0     C37548   4.039   3.654  10.169  0.0328  0.3791 -0.1759
  279MOL0     C37549   4.099   3.543  10.218 -0.6837 -0.3333 -0.4666
  279MOL0     C37550   4.084   3.392  10.191  0.4368  0.2276 -0.4423
  279MOL0     C37551   3.959   3.328  10.260 -0.4957  0.2358  0.4942
  279MOL0     C37552   3.974   3.332  10.410 -0.9306  0.5602  0.0717
  279MOL0     C37553   3.840   3.276  10.468 -0.4754  0.2273 -0.0943
  279MOL0     O37554   3.730   3.366  10.428 -0.7377 -0.0365  0.4061
  279MOL0     C37555   3.659   3.419  10.529  0.2604  0.8688  0.5234
  279MOL0     C37556   3.561   3.345  10.591  0.2393  0.0433  0.1144
  279MOL0     C37557   3.498   3.394  10.702  0.9544  0.6476 -1.3175
  279MOL0     C37558   3.388   3.302  10.768  0.5145 -0.5288 -0.2167
  279MOL0     C37559   3.519   3.528  10.746  0.3245  0.1269  0.4357
  279MOL0     C37560   3.432   3.595  10.851  0.0052  0.4930  0.3542
  279MOL0     O37561   3.440   3.733  10.853  0.1191  0.3747 -0.0733
  279MOL0     C37562   3.424   3.804  10.968  0.3552 -0.7434  0.2352
  279MOL0     C37563   3.383   3.933  10.944 -0.7126  0.2719 -0.6097
  279MOL0     C37564   3.367   4.020  11.048  0.7434 -0.2111  0.4840
  279MOL0     C37565   3.417   3.993  11.172 -0.1353  0.8008 -0.4325
  279MOL0     O37566   3.382   4.079  11.277 -0.1808  0.4965  0.7145
  279MOL0     C37567   3.389   4.044  11.415  0.4010  0.6685  0.3610
  279MOL0     C37568   3.291   4.130  11.498  0.7140  0.3081  0.3025
  279MOL0     C37569   3.263   4.067  11.636  1.0143 -0.6508  0.6096
  279MOL0     C37570   3.131   4.134  11.708  0.0711  0.2054  0.6288
  279MOL0     C37571   3.101   4.069  11.844  0.2848  0.5613 -0.1666
  279MOL0     C37572   2.965   4.077  11.914 -0.3401  0.1941  0.0568
  279MOL0     C37573   2.863   3.995  11.833  0.0838 -0.2871  0.1187
  279MOL0     C37574   2.733   3.965  11.893 -0.2466 -0.0801 -0.0199
  279MOL0    Cl37575   2.645   4.106  11.954 -0.0338  0.2401  0.0665
  279MOL0     C37576   3.468   3.864  11.196 -0.6461  0.0157 -0.1344
  279MOL0     C37577   3.469   3.770  11.099  0.2736  1.1825  0.9841
  279MOL0     O37578   3.383   3.527  10.939  0.6909 -0.1748  0.4919
  279MOL0     C37579   3.616   3.608  10.670 -0.2401 -0.0031  0.3425
  279MOL0     C37580   3.687   3.553  10.565  0.3462  0.3835  1.1821
  279MOL0     N37581   4.188   3.586  10.319  0.6313 -0.7129  0.5277
  279MOL0     N37582   4.181   3.712  10.323 -0.0485  0.0826  0.1574
  279MOL0     C37583   3.275   3.501  10.406  0.4193 -0.7244 -0.7247
  279MOL0     C37584   3.143   3.487  10.446 -0.3152 -0.7451  0.1357
  279MOL0     C37585   2.714   3.575  10.513 -0.2535 -0.2045  0.4118
  279MOL0     C37586   2.655   3.454  10.468 -0.3767  1.2275 -0.8760
  279MOL0     C37587   2.519   3.415  10.498 -0.0667  0.9299 -1.5334
  279MOL0     C37588   2.437   3.502  10.576  0.0845  0.3330 -0.1435
  279MOL0     O37589   2.308   3.464  10.591  0.4232  0.0648  0.2201
  279MOL0     C37590   2.228   3.523  10.698 -0.0646  0.3522  1.2793
  279MOL0     C37591   2.270   3.450  10.824 -0.5482 -0.2190  0.4447
  279MOL0     C37592   2.248   3.296  10.809  0.2702  0.9772  0.1453
  279MOL0     C37593   2.325   3.220  10.928  0.0939 -0.5534  0.5033
  279MOL0     C37594   2.311   3.073  10.918 -0.1976 -0.0907  0.5902
  279MOL0     C37595   2.300   2.955  10.907  1.2662 -0.5893  0.4562
  279MOL0     C37596   2.496   3.627  10.621  0.1686  0.8868  0.2611
  279MOL0     C37597   2.631   3.659  10.579  0.3475 -0.1106 -0.0081
  279MOL0     H37598   2.992   3.632  10.181  0.1347  0.2360 -0.7016
  279MOL0     H37599   3.232   3.657  10.115 -3.9524 -0.4788 -1.1139
  279MOL0     H37600   3.618   3.627  10.176  0.3337 -3.1001  1.1171
  279MOL0     H37601   3.477   3.590  10.073 -0.4891 -1.7800  1.4676
  279MOL0     H37602   3.570   3.829  10.107  0.5093 -1.8144  0.1399
  279MOL0     H37603   3.400   3.802  10.129  1.5697  0.8694 -2.3442
  279MOL0     H37604   3.524   3.971  10.287  0.9949 -0.9811  0.9522
  279MOL0     H37605   3.439   3.852  10.369  1.0909 -0.1221  0.4673
  279MOL0     H37606   3.642   3.891  10.457 -1.1853 -2.9305  1.7560
  279MOL0     H37607   3.662   3.728  10.377 -3.4733 -0.4002  0.6386
  279MOL0     H37608   3.801   3.834  10.198 -1.2549  2.3588 -2.0905
  279MOL0     H37609   3.734   3.992  10.253 -0.4965 -0.2886  0.8962
  279MOL0     H37610   3.855   3.972  10.464 -0.8861  1.3059  0.1490
  279MOL0     H37611   3.922   3.813  10.422 -1.1325 -1.7203 -3.4513
  279MOL0     H37612   3.992   4.092  10.295  1.3831  0.1470 -0.8994
  279MOL0     H37613   4.092   3.977  10.386 -0.4068 -3.4138  0.6317
  279MOL0     H37614   4.156   3.950  10.154  0.2602  1.2914  2.1522
  279MOL0     H37615   3.982   3.911  10.118 -2.3442  2.2064  1.7339
  279MOL0     H37616   3.965   3.641  10.092 -0.7377 -4.6490  1.0885
  279MOL0     H37617   4.060   3.372  10.086 -2.4932 -1.7781  0.4654
  279MOL0     H37618   4.178   3.343  10.218 -0.8390 -0.9707  2.2089
  279MOL0     H37619   3.936   3.227  10.225 -0.5338  0.6166 -0.5940
  279MOL0     H37620   3.873   3.392  10.238  2.2138  4.1037  0.0128
  279MOL0     H37621   3.987   3.432  10.452  2.5117  0.0531  0.5194
  279MOL0     H37622   4.061   3.270  10.433 -0.7048 -1.1806 -4.3426
  279MOL0     H37623   3.856   3.254  10.574 -0.3189  0.1089 -0.1433
  279MOL0     H37624   3.804   3.189  10.412 -2.6259  2.0320 -1.7244
  279MOL0     H37625   3.536   3.244  10.560  0.4769 -1.4351  4.0949
  279MOL0     H37626   3.345   3.240  10.688  1.3708 -0.4534 -0.7523
  279MOL0     H37627   3.428   3.241  10.849 -1.9226 -3.6307 -1.1290
  279MOL0     H37628   3.301   3.360  10.801  0.6131 -1.4510  1.8039
  279MOL0     H37629   3.360   3.952  10.840 -0.0240  0.8799 -0.6528
  279MOL0     H37630   3.310   4.107  11.018  1.5158 -0.6201 -2.5076
  279MOL0     H37631   3.344   3.945  11.429 -2.5130  1.9746  1.1992
  279MOL0     H37632   3.492   4.043  11.452 -0.0529  3.1535  1.9260
  279MOL0     H37633   3.322   4.230  11.530  2.2492 -0.9121  3.0755
  279MOL0     H37634   3.204   4.138  11.432  2.6577  0.8962 -2.3212
  279MOL0     H37635   3.355   4.071  11.694  3.2259 -0.8466 -2.6167
  279MOL0     H37636   3.239   3.962  11.615 -3.5705  0.3309 -0.2158
  279MOL0     H37637   3.129   4.243  11.710 -4.2354  0.4068 -1.7995
  279MOL0     H37638   3.049   4.108  11.640  1.9815 -3.8899 -0.4051
  279MOL0     H37639   3.179   4.102  11.914 -1.3868 -0.1460  2.1676
  279MOL0     H37640   3.121   3.964  11.824  1.6749  1.2077 -2.5365
  279MOL0     H37641   2.983   4.039  12.016 -1.4336  0.7114  0.4549
  279MOL0     H37642   2.934   4.181  11.924 -1.3639 -0.2331  1.8213
  279MOL0     H37643   2.910   3.898  11.812  1.6438  0.5773 -0.6081
  279MOL0     H37644   2.842   4.039  11.735 -5.3762  1.6875  1.8201
  279MOL0     H37645   2.763   3.893  11.970  3.2154 -0.7285 -1.7533
  279MOL0     H37646   2.676   3.911  11.817 -0.0157 -0.3063 -0.0361
  279MOL0     H37647   3.500   3.823  11.291  1.9261  0.5835 -0.6795
  279MOL0     H37648   3.518   3.675  11.121  0.8774  1.6599  1.7400
  279MOL0     H37649   3.628   3.714  10.688  0.3536  0.3768 -1.9212
  279MOL0     H37650   3.767   3.606  10.513 -1.9701  0.5999 -2.4923
  279MOL0     H37651   3.367   3.480  10.460  0.4841  2.1211  0.4443
  279MOL0     H37652   3.102   3.441  10.535 -0.9940 -0.3394  0.0401
  279MOL0     H37653   2.712   3.373  10.423  0.3246  1.9700 -1.3483
  279MOL0     H37654   2.491   3.319  10.454 -0.5506  0.6186 -0.5679
  279MOL0     H37655   2.232   3.632  10.705 -0.6528  0.4976 -0.2528
  279MOL0     H37656   2.119   3.515  10.687  0.0895 -2.1899  1.0060
  279MOL0     H37657   2.207   3.487  10.905 -0.0673  1.6475  0.0162
  279MOL0     H37658   2.372   3.478  10.851 -0.6136  1.5712 -0.9682
  279MOL0     H37659   2.301   3.269  10.718  2.4221  1.0619  1.3152
  279MOL0     H37660   2.142   3.269  10.804  0.6679 -0.5596 -0.5582
  279MOL0     H37661   2.283   3.262  11.020  1.0968  3.2505 -0.5778
  279MOL0     H37662   2.426   3.262  10.927 -0.4604  0.8394  0.5485
  279MOL0     H37663   2.261   2.855  10.899 -2.8099  0.8272  0.5028
  279MOL0     H37664   2.432   3.700  10.669 -1.1461  0.1771 -0.3800
  279MOL0     H37665   2.665   3.761  10.595  1.8259 -0.0926 -2.6439
  280MOL0     O37666   1.583   1.041   3.135  0.0060 -0.1940 -0.0944
  280MOL0     C37667   1.626   0.957   3.049 -0.3877 -0.3480 -0.5104
  280MOL0     O37668   1.569   0.847   3.015  1.2156  0.0632  0.2468
  280MOL0     C37669   1.445   0.815   3.071  0.0447  0.2898 -0.3111
  280MOL0     C37670   1.326   0.843   2.998  0.2755  0.3640  0.0342
  280MOL0     C37671   1.208   0.787   3.031  0.7213 -0.0587  0.3201
  280MOL0     C37672   1.190   0.703   3.133  0.9634 -1.0782  0.2125
  280MOL0     O37673   1.072   0.633   3.166  0.0117  1.0161  0.2378
  280MOL0     C37674   0.958   0.655   3.082  0.4172  0.0071  1.2294
  280MOL0     C37675   0.849   0.566   3.132 -0.2551 -0.0410  0.6047
  280MOL0     C37676   0.831   0.560   3.288  0.7957 -0.0018 -0.0568
  280MOL0     C37677   0.722   0.466   3.327  0.2109  0.3145 -0.3161
  280MOL0     C37678   0.584   0.530   3.350  0.1711  0.4034  0.3274
  280MOL0     C37679   0.494   0.419   3.389  0.1695 -0.0206 -0.0080
  280MOL0     C37680   0.461   0.411   3.535 -0.0007 -0.6323  0.6125
  280MOL0     C37681   0.403   0.282   3.574  0.6860 -0.0241  0.3990
  280MOL0     N37682   0.345   0.305   3.709 -0.1944 -0.1730  0.4535
  280MOL0     C37683   0.418   0.340   3.824  1.0436  0.6595  0.3212
  280MOL0     C37684   0.326   0.335   3.924 -0.1925 -0.5552  0.3709
  280MOL0     C37685   0.356   0.370   4.065  1.0943 -0.4374  0.8273
  280MOL0     C37686   0.271   0.493   4.116 -0.2518 -0.3596  0.2262
  280MOL0     C37687   0.328   0.620   4.054  0.5210 -0.0363 -0.7939
  280MOL0     C37688   0.258   0.745   4.111 -0.2324 -0.0561  0.3948
  280MOL0     O37689   0.309   0.866   4.049 -0.8115 -0.9823  0.5394
  280MOL0     C37690   0.267   0.992   4.088 -0.4259 -0.4838 -0.1205
  280MOL0     C37691   0.169   1.013   4.185 -0.1594  0.0605 -0.0671
  280MOL0     C37692   0.137   1.143   4.234 -0.0213  0.4397 -0.0208
  280MOL0     C37693   0.025   1.155   4.333 -0.1223  0.5650 -0.5284
  280MOL0     C37694   0.203   1.253   4.188  0.8056 -0.0937 -0.4815
  280MOL0     C37695   0.185   1.400   4.237 -0.7165 -0.5531 -1.2467
  280MOL0     O37696   0.217   1.499   4.152 -0.0894 -0.6130  0.3110
  280MOL0     C37697   0.224   1.622   4.208  0.2284  0.2825 -0.6664
  280MOL0     C37698   0.343   1.665   4.258  0.6148 -0.1109 -0.1049
  280MOL0     C37699   0.361   1.797   4.300  0.7386 -0.1109  0.2635
  280MOL0     C37700   0.254   1.885   4.297 -0.4281  0.0281 -0.1344
  280MOL0     O37701   0.256   2.011   4.358  0.6002 -0.6484 -0.2343
  280MOL0     C37702   0.375   2.087   4.340 -0.1597 -0.1305  0.2183
  280MOL0     C37703   0.401   2.118   4.483 -0.3052  0.3540 -0.7550
  280MOL0     C37704   0.538   2.192   4.503 -0.5308  0.1795 -0.6288
  280MOL0     C37705   0.543   2.225   4.650 -0.1177 -0.2860 -0.8196
  280MOL0     C37706   0.672   2.298   4.684 -0.7070  0.1860  0.3008
  280MOL0     C37707   0.689   2.325   4.831 -0.3000 -0.2956  0.1794
  280MOL0     C37708   0.590   2.437   4.879 -0.5878  0.5155 -0.6691
  280MOL0     C37709   0.642   2.583   4.861  0.9265  0.7336  0.6488
  280MOL0    Cl37710   0.610   2.645   4.693  0.1050  0.2503 -0.3537
  280MOL0     C37711   0.127   1.844   4.252 -0.3717 -0.8331  0.2807
  280MOL0     C37712   0.111   1.712   4.200  0.3628  0.4405 -0.3733
  280MOL0     O37713   0.149   1.419   4.355 -0.4169  0.6759 -0.0060
  280MOL0     C37714   0.297   1.231   4.082  0.5305  0.5198 -0.6275
  280MOL0     C37715   0.332   1.104   4.035 -0.5040  0.6980  0.3826
  280MOL0     N37716   0.208   0.300   3.871  0.3556 -0.4155  0.2382
  280MOL0     N37717   0.221   0.278   3.746  0.3549 -0.4585 -0.6327
  280MOL0     C37718   1.306   0.678   3.216  0.2631  0.2535 -0.1684
  280MOL0     C37719   1.434   0.738   3.181  0.4771  1.2866  0.2840
  280MOL0     C37720   1.755   0.991   2.991 -0.0455  0.8485 -0.2060
  280MOL0     C37721   1.820   0.903   2.908  0.4242 -0.6010 -0.4325
  280MOL0     C37722   1.952   0.917   2.864  0.5735  0.7315 -0.1832
  280MOL0     C37723   2.021   1.035   2.892 -0.6910 -0.6180 -0.0177
  280MOL0     O37724   2.147   1.056   2.843  0.1747 -0.7912  0.4367
  280MOL0     C37725   2.246   0.954   2.833 -0.2947  0.8436 -0.2859
  280MOL0     C37726   2.265   0.869   2.962  0.2795 -0.0151 -0.0142
  280MOL0     C37727   2.340   0.953   3.063  0.0670 -0.0580 -0.2884
  280MOL0     C37728   2.365   0.869   3.194  1.0730 -0.1214 -0.6984
  280MOL0     C37729   2.459   0.761   3.167 -0.0709  0.1127  0.3077
  280MOL0     C37730   2.546   0.681   3.147 -0.7166 -0.1916 -0.8604
  280MOL0     C37731   1.964   1.133   2.968  0.7125 -0.5181  0.7264
  280MOL0     C37732   1.831   1.108   3.022  0.0375 -0.3311  0.1900
  280MOL0     H37733   1.332   0.910   2.913  0.1575  0.5944  0.2051
  280MOL0     H37734   1.121   0.801   2.968  0.5274  1.7868  0.9163
  280MOL0     H37735   0.928   0.760   3.086  2.8561  1.0564 -2.4709
  280MOL0     H37736   0.984   0.637   2.977  3.1996  2.8863  1.2864
  280MOL0     H37737   0.751   0.594   3.094 -0.5607 -0.8284  0.8102
  280MOL0     H37738   0.869   0.464   3.099  0.7861  0.9935 -2.3301
  280MOL0     H37739   0.924   0.515   3.324  1.8961  3.8528  2.4994
  280MOL0     H37740   0.813   0.660   3.329 -1.5654 -0.5240  0.3081
  280MOL0     H37741   0.721   0.384   3.254  1.1100  0.4029 -0.4276
  280MOL0     H37742   0.761   0.443   3.427  1.1975  6.5959  1.1767
  280MOL0     H37743   0.596   0.605   3.428  1.0427  1.0169 -0.3768
  280MOL0     H37744   0.552   0.560   3.250  0.5272 -0.4271 -0.0478
  280MOL0     H37745   0.395   0.428   3.342  0.2040  2.0152  0.2341
  280MOL0     H37746   0.526   0.320   3.355 -1.7372 -0.8997  0.5738
  280MOL0     H37747   0.550   0.430   3.595  1.0124  2.5059 -1.5681
  280MOL0     H37748   0.392   0.490   3.564 -0.5950 -0.4360 -1.1834
  280MOL0     H37749   0.487   0.213   3.567  2.3800  1.7161  2.2247
  280MOL0     H37750   0.321   0.254   3.508  0.6649  2.8659 -0.9779
  280MOL0     H37751   0.521   0.373   3.836  0.7431  0.9113  2.4859
  280MOL0     H37752   0.320   0.287   4.127 -0.5365 -1.0767 -0.8669
  280MOL0     H37753   0.462   0.396   4.079  1.1874  2.2120 -3.3367
  280MOL0     H37754   0.274   0.483   4.225  0.7658 -2.3494  0.0653
  280MOL0     H37755   0.163   0.482   4.099 -0.2454 -0.2089  0.0794
  280MOL0     H37756   0.313   0.606   3.946  4.3902  0.2119 -1.5014
  280MOL0     H37757   0.435   0.605   4.071  0.4482  0.1914 -0.1053
  280MOL0     H37758   0.271   0.735   4.219  2.0981  1.0659  0.2919
  280MOL0     H37759   0.153   0.735   4.085  0.4254 -0.3754 -2.4278
  280MOL0     H37760   0.109   0.928   4.213 -0.5279  0.0247 -0.9202
  280MOL0     H37761   0.058   1.163   4.437 -1.6546  3.9001 -0.2020
  280MOL0     H37762  -0.047   1.235   4.313 -1.4024  0.3649  2.6264
  280MOL0     H37763  -0.038   1.066   4.321 -0.5655  1.0111 -1.6816
  280MOL0     H37764   0.423   1.592   4.266 -1.5314 -2.6634 -0.5222
  280MOL0     H37765   0.456   1.824   4.346  2.4677 -3.0958 -1.2845
  280MOL0     H37766   0.458   2.032   4.294 -1.5841 -2.2492  0.0508
  280MOL0     H37767   0.355   2.176   4.281 -2.0181 -0.0555  0.9142
  280MOL0     H37768   0.321   2.178   4.528 -0.3344  1.1193 -1.7867
  280MOL0     H37769   0.414   2.023   4.535 -0.5103  1.3051  1.1411
  280MOL0     H37770   0.545   2.286   4.447  1.0356  0.7864  0.5131
  280MOL0     H37771   0.610   2.120   4.464 -0.9309 -0.1995 -0.6759
  280MOL0     H37772   0.454   2.276   4.686  0.5166  1.8692 -2.0856
  280MOL0     H37773   0.544   2.128   4.701  0.8681 -0.5919 -1.3878
  280MOL0     H37774   0.679   2.389   4.625  1.0552  0.2802  0.6236
  280MOL0     H37775   0.758   2.243   4.645 -0.4447  0.4349  0.5241
  280MOL0     H37776   0.681   2.231   4.885  0.2685  1.3407  3.3141
  280MOL0     H37777   0.786   2.372   4.852  0.5566 -1.3486 -1.1889
  280MOL0     H37778   0.576   2.426   4.987  2.6839  1.9997  0.0499
  280MOL0     H37779   0.490   2.423   4.838 -0.4300  1.0347 -1.2543
  280MOL0     H37780   0.751   2.578   4.861  0.8773 -1.2680  0.6613
  280MOL0     H37781   0.599   2.649   4.937 -1.1019 -0.4128  0.5695
  280MOL0     H37782   0.044   1.914   4.249  1.7525  1.7937 -0.6953
  280MOL0     H37783   0.024   1.654   4.170 -0.2209  1.1380 -0.0466
  280MOL0     H37784   0.365   1.313   4.061  0.8721  0.1972 -0.8037
  280MOL0     H37785   0.406   1.099   3.956 -1.1497 -1.0446 -0.1367
  280MOL0     H37786   1.285   0.609   3.297 -3.4526  1.4871  0.0951
  280MOL0     H37787   1.523   0.713   3.237  0.8002 -2.1377 -1.4653
  280MOL0     H37788   1.780   0.809   2.869  2.0106 -0.0160 -3.8121
  280MOL0     H37789   1.983   0.833   2.802 -1.7542 -0.2157 -0.1713
  280MOL0     H37790   2.234   0.889   2.746  2.9506 -2.3742  1.3444
  280MOL0     H37791   2.342   1.005   2.820  0.2502 -0.5979 -2.3260
  280MOL0     H37792   2.314   0.775   2.937 -2.2357 -1.1329 -1.1120
  280MOL0     H37793   2.171   0.832   3.004 -0.9909  2.5085 -0.3914
  280MOL0     H37794   2.273   1.034   3.091 -1.2288 -2.1084  3.1964
  280MOL0     H37795   2.437   0.982   3.021  0.6927 -1.2846  0.2396
  280MOL0     H37796   2.271   0.817   3.213  2.7435 -2.9908  0.3875
  280MOL0     H37797   2.397   0.924   3.282 -3.1302 -0.4986  1.2958
  280MOL0     H37798   2.612   0.597   3.136  0.2481  0.3504  0.5776
  280MOL0     H37799   2.016   1.222   3.002 -1.4969  0.1612  2.5328
  280MOL0     H37800   1.791   1.187   3.085  1.5386  2.5736 -2.2692
  281MOL0     O37801   5.702   1.002  10.999 -0.6028  0.7265  0.2421
  281MOL0     C37802   5.737   0.902  10.931 -0.8121  0.3310  0.4269
  281MOL0     O37803   5.863   0.877  10.878  0.3478  1.1417  0.0602
  281MOL0     C37804   5.961   0.967  10.908  0.3609 -0.7804  0.8912
  281MOL0     C37805   5.992   1.043  10.801 -0.1103 -0.2009 -0.1844
  281MOL0     C37806   6.104   1.118  10.801  0.7032 -0.1573  0.1384
  281MOL0     C37807   6.184   1.137  10.917  0.6194  1.1271 -0.9097
  281MOL0     O37808   6.288   1.219  10.935 -0.4804  0.7860 -0.6216
  281MOL0     C37809   6.305   1.329  10.838 -0.0968  0.5669 -0.3603
  281MOL0     C37810   6.411   1.421  10.898  1.0075  0.4299  0.7891
  281MOL0     C37811   6.436   1.546  10.811 -0.5006  0.3455  0.3012
  281MOL0     C37812   6.500   1.643  10.900 -0.5202  0.4147  0.0206
  281MOL0     C37813   6.557   1.759  10.823  0.1516 -0.0608 -0.5090
  281MOL0     C37814   6.563   1.876  10.916  0.4586  0.6935 -0.5402
  281MOL0     C37815   6.698   1.928  10.919  0.0793 -0.0202 -0.6091
  281MOL0     C37816   6.715   2.038  11.018 -0.7818  0.3428  1.3139
  281MOL0     N37817   6.846   2.110  11.011 -0.4949 -0.3207 -0.8298
  281MOL0     C37818   6.963   2.069  10.952  1.1303  0.3266 -0.2397
  281MOL0     C37819   7.037   2.183  10.949  0.3241  0.1272 -0.8827
  281MOL0     C37820   7.170   2.217  10.893 -0.2268 -0.1495 -0.4947
  281MOL0     C37821   7.156   2.276  10.747 -0.8059 -0.0462  0.0550
  281MOL0     C37822   7.040   2.388  10.718 -0.0094  0.4916 -0.1392
  281MOL0     C37823   7.061   2.447  10.577 -0.2924 -0.4240  0.5073
  281MOL0     O37824   7.173   2.535  10.563  0.6253  0.8312 -0.2097
  281MOL0     C37825   7.181   2.642  10.481 -0.5647 -0.2153 -0.4786
  281MOL0     C37826   7.120   2.630  10.358 -1.2078  0.7152 -0.0362
  281MOL0     C37827   7.123   2.737  10.267 -1.0226  0.1626 -0.4539
  281MOL0     C37828   7.053   2.716  10.138 -0.1494 -0.0269 -0.3706
  281MOL0     C37829   7.213   2.849  10.294  0.4151 -0.2018  0.3068
  281MOL0     C37830   7.235   2.958  10.199  0.4105  0.0599  0.4263
  281MOL0     O37831   7.208   3.080  10.250 -0.2297  0.2908 -0.4407
  281MOL0     C37832   7.201   3.179  10.157  0.3774 -0.2693  0.5022
  281MOL0     C37833   7.272   3.303  10.159  0.4730  0.7505  0.6011
  281MOL0     C37834   7.255   3.401  10.052  0.3935  1.3035  0.6605
  281MOL0     C37835   7.186   3.363   9.930  0.0973  0.0101 -0.9322
  281MOL0     O37836   7.198   3.432   9.815 -0.1666  0.5296 -0.4502
  281MOL0     C37837   7.286   3.545   9.791 -0.7522  0.6075 -0.1786
  281MOL0     C37838   7.249   3.602   9.653  1.1061 -0.8882 -0.3291
  281MOL0     C37839   7.305   3.743   9.643 -0.0517 -0.0613  0.7355
  281MOL0     C37840   7.276   3.800   9.518  1.0609 -0.7280  0.2126
  281MOL0     C37841   7.335   3.938   9.480  0.0325 -0.1780  0.1474
  281MOL0     C37842   7.278   4.064   9.552 -0.0260 -0.5328  0.2485
  281MOL0     C37843   7.394   4.168   9.562  0.5377  0.9488 -0.3123
  281MOL0     C37844   7.458   4.231   9.434 -0.2147  0.4866  0.4577
  281MOL0    Cl37845   7.619   4.287   9.483  0.2628 -0.1059 -0.0090
  281MOL0     C37846   7.107   3.246   9.938  0.2336 -0.3761  0.3612
  281MOL0     C37847   7.102   3.165  10.051 -0.7859  0.1692 -0.4937
  281MOL0     O37848   7.282   2.932  10.089  0.3288  0.1307  0.0660
  281MOL0     C37849   7.274   2.849  10.423 -0.8073  0.9248 -0.0390
  281MOL0     C37850   7.252   2.749  10.518 -0.8101 -0.8986 -0.1065
  281MOL0     N37851   6.962   2.288  10.989 -0.5114 -0.0437  0.0338
  281MOL0     N37852   6.843   2.244  11.015 -0.0315 -1.2514  0.4621
  281MOL0     C37853   6.135   1.072  11.032  0.0875 -0.3975 -0.3040
  281MOL0     C37854   6.030   0.982  11.025 -0.1107 -0.5164  0.1554
  281MOL0     C37855   5.645   0.803  10.885  0.4566  0.4397 -0.2132
  281MOL0     C37856   5.515   0.790  10.946 -0.0594  0.1550 -0.0172
  281MOL0     C37857   5.413   0.696  10.905 -0.0170  0.1215 -0.7737
  281MOL0     C37858   5.432   0.621  10.784 -0.7290  0.8741  0.6334
  281MOL0     O37859   5.345   0.531  10.725  0.0858 -0.3936  0.5838
  281MOL0     C37860   5.221   0.498  10.797 -0.8893 -0.2047  0.2127
  281MOL0     C37861   5.110   0.591  10.783 -0.9501  0.7455  0.3752
  281MOL0     C37862   5.003   0.555  10.879 -0.0268  0.0128  0.2732
  281MOL0     C37863   4.913   0.665  10.903  0.2168 -0.6899  0.2056
  281MOL0     C37864   4.813   0.678  10.793 -0.4550 -0.6798  0.3426
  281MOL0     C37865   4.729   0.705  10.705 -0.1787  0.5950 -0.7262
  281MOL0     C37866   5.561   0.632  10.726 -0.0952 -0.0577  0.5993
  281MOL0     C37867   5.667   0.721  10.766 -0.0381  0.9056 -0.2151
  281MOL0     H37868   5.936   1.046  10.708  0.7180 -0.3477 -0.6986
  281MOL0     H37869   6.139   1.160  10.708  3.5863 -0.1771  1.0981
  281MOL0     H37870   6.327   1.294  10.737 -0.3720 -0.5725 -0.0411
  281MOL0     H37871   6.215   1.390  10.839  0.3669  1.2655 -0.6071
  281MOL0     H37872   6.376   1.457  10.996  0.1479 -0.6868  0.9257
  281MOL0     H37873   6.503   1.365  10.917  0.7914  0.5474  2.2947
  281MOL0     H37874   6.506   1.510  10.735 -1.6641  1.0509 -1.1624
  281MOL0     H37875   6.342   1.588  10.774  0.1786 -0.1630 -2.1779
  281MOL0     H37876   6.418   1.678  10.964 -0.8288  0.1828 -0.2458
  281MOL0     H37877   6.586   1.608  10.958  0.0540  2.0239  0.1928
  281MOL0     H37878   6.658   1.730  10.793  0.3209 -1.2797  1.1095
  281MOL0     H37879   6.502   1.781  10.731 -0.8872  0.6581  0.2453
  281MOL0     H37880   6.493   1.953  10.883  1.0184  1.4440 -0.0365
  281MOL0     H37881   6.540   1.844  11.018 -2.1736  0.3896 -1.1649
  281MOL0     H37882   6.759   1.846  10.957  2.1330  2.0425  0.7753
  281MOL0     H37883   6.729   1.958  10.818  2.2967  1.3030  0.3967
  281MOL0     H37884   6.714   1.983  11.112 -0.0692  1.7122  2.1575
  281MOL0     H37885   6.630   2.106  11.003  0.1113  1.2307  0.0056
  281MOL0     H37886   6.998   1.972  10.918 -1.6938 -0.8627 -0.0219
  281MOL0     H37887   7.211   2.297  10.954 -0.4017  0.6604 -1.4050
  281MOL0     H37888   7.236   2.130  10.891 -4.3117 -3.6440  0.8995
  281MOL0     H37889   7.137   2.189  10.683  1.6637 -0.2032 -0.5645
  281MOL0     H37890   7.253   2.310  10.710 -1.5281  1.6792 -0.3459
  281MOL0     H37891   7.060   2.469  10.789  1.1078 -0.2434  0.4075
  281MOL0     H37892   6.943   2.340  10.732  0.0809  0.8577  2.2790
  281MOL0     H37893   6.975   2.505  10.544 -0.6596 -0.9274  0.5732
  281MOL0     H37894   7.085   2.358  10.517  3.1055 -0.8646  2.2302
  281MOL0     H37895   7.077   2.534  10.331 -0.6630  1.0320 -2.1720
  281MOL0     H37896   7.122   2.685  10.059 -0.1227  0.5465 -0.5764
  281MOL0     H37897   6.977   2.639  10.153 -0.8302  1.1087  2.8543
  281MOL0     H37898   6.999   2.804  10.102 -1.5655 -0.3835  0.7883
  281MOL0     H37899   7.342   3.322  10.239  1.0548 -0.0628  0.2967
  281MOL0     H37900   7.310   3.494  10.058  0.6750  1.2092 -0.2152
  281MOL0     H37901   7.290   3.611   9.879  0.1620 -0.2572  0.4577
  281MOL0     H37902   7.388   3.506   9.797 -1.5092 -1.2759  3.2627
  281MOL0     H37903   7.305   3.539   9.584  1.7688 -0.0887 -0.5369
  281MOL0     H37904   7.140   3.608   9.647  0.7543 -2.4945  2.5179
  281MOL0     H37905   7.414   3.738   9.651 -0.1818 -2.6953  1.5466
  281MOL0     H37906   7.250   3.804   9.716 -0.5267 -0.3908  0.6602
  281MOL0     H37907   7.291   3.732   9.433 -1.4013  0.9915 -1.7208
  281MOL0     H37908   7.169   3.817   9.507  1.2565  0.5661  0.1561
  281MOL0     H37909   7.326   3.939   9.371 -2.9548 -2.2844  0.2377
  281MOL0     H37910   7.442   3.939   9.503 -0.4938 -0.3727  3.0007
  281MOL0     H37911   7.195   4.106   9.496  1.3679  0.3527 -1.2415
  281MOL0     H37912   7.251   4.042   9.656 -2.6594 -2.1984 -0.6993
  281MOL0     H37913   7.481   4.130   9.615  1.0045 -2.1963 -3.0472
  281MOL0     H37914   7.351   4.248   9.624  0.9581  1.1986 -0.3409
  281MOL0     H37915   7.401   4.312   9.387  2.6380  2.5738  0.3662
  281MOL0     H37916   7.470   4.150   9.361 -1.6760  0.7754 -0.1377
  281MOL0     H37917   7.063   3.190   9.857 -1.6925 -1.1680  1.8678
  281MOL0     H37918   7.041   3.076  10.039 -0.1087  0.0080 -3.8313
  281MOL0     H37919   7.339   2.935  10.435 -0.0774  0.5611 -1.3051
  281MOL0     H37920   7.299   2.772  10.613 -3.2977 -0.1735  1.0211
  281MOL0     H37921   6.181   1.099  11.126  1.9495  2.4826 -1.8596
  281MOL0     H37922   6.003   0.917  11.107  3.8440  0.9595  2.9212
  281MOL0     H37923   5.489   0.853  11.030  0.3815  1.5373 -0.8822
  281MOL0     H37924   5.328   0.691  10.972  0.2970 -1.9837 -0.4425
  281MOL0     H37925   5.194   0.393  10.783 -0.6396 -0.1550 -0.7412
  281MOL0     H37926   5.244   0.505  10.904  0.0044  3.3832 -0.0868
  281MOL0     H37927   5.066   0.591  10.683  0.1461  2.6635 -0.1571
  281MOL0     H37928   5.143   0.692  10.810 -1.3426  1.6114 -2.1036
  281MOL0     H37929   5.049   0.523  10.972 -0.5352  0.7637  0.7910
  281MOL0     H37930   4.937   0.472  10.853  0.1601 -0.4025  1.0868
  281MOL0     H37931   4.959   0.759  10.936  1.2158 -1.1367  0.1275
  281MOL0     H37932   4.857   0.645  10.995 -1.5501  0.5354 -0.5531
  281MOL0     H37933   4.635   0.708  10.653 -3.9156 -1.1717  4.9497
  281MOL0     H37934   5.569   0.576  10.634 -2.0196 -0.9932  0.9454
  281MOL0     H37935   5.755   0.734  10.704  0.5680 -1.2219  0.1054
  282MOL0     O37936   9.096   7.080  10.044 -0.3488 -0.1046 -0.1158
  282MOL0     C37937   9.172   7.096  10.140 -0.7124 -0.0158 -0.0078
  282MOL0     O37938   9.211   7.220  10.196  0.6637 -0.3805 -0.1446
  282MOL0     C37939   9.164   7.345  10.153 -1.1704  0.6540 -0.3734
  282MOL0     C37940   9.181   7.457  10.240 -0.1878 -0.9717 -0.6346
  282MOL0     C37941   9.156   7.586  10.189 -1.1151 -0.1446  0.0168
  282MOL0     C37942   9.118   7.614  10.060 -0.2825 -0.2530 -0.1027
  282MOL0     O37943   9.095   7.744  10.029  0.0638  0.5171  0.2542
  282MOL0     C37944   9.138   7.784   9.901 -0.0158 -0.0478  0.9555
  282MOL0     C37945   9.279   7.850   9.904 -0.1094 -0.1896 -0.1868
  282MOL0     C37946   9.353   7.856   9.773 -0.4336  0.0140 -0.4480
  282MOL0     C37947   9.285   7.924   9.654 -1.4210 -0.4398  0.1731
  282MOL0     C37948   9.386   7.970   9.543  0.0666  0.5445  0.3129
  282MOL0     C37949   9.480   7.870   9.476 -0.3377 -0.1449  0.8479
  282MOL0     C37950   9.399   7.782   9.382  0.0858  0.3243 -0.0695
  282MOL0     C37951   9.441   7.642   9.414 -0.5434  0.1459  0.7155
  282MOL0     N37952   9.421   7.587   9.549 -0.1777 -0.1051  0.5644
  282MOL0     C37953   9.522   7.560   9.638  0.4593  0.1645  0.3826
  282MOL0     C37954   9.460   7.507   9.745 -0.5328  0.1856 -0.3894
  282MOL0     C37955   9.524   7.447   9.867 -0.2688  0.5682  1.0349
  282MOL0     C37956   9.555   7.552   9.972 -0.2232  0.6160  0.5816
  282MOL0     C37957   9.647   7.669   9.931  0.4572 -0.1014  0.2295
  282MOL0     C37958   9.680   7.758  10.052  0.1965 -0.3313 -0.7098
  282MOL0     O37959   9.773   7.858  10.024  0.5383  0.7001 -1.0234
  282MOL0     C37960   9.715   7.973   9.986 -0.0945 -0.0367 -0.0608
  282MOL0     C37961   9.768   8.041   9.876 -0.3126 -0.1767  0.1266
  282MOL0     C37962   9.700   8.148   9.824  0.0845 -0.5572  1.0793
  282MOL0     C37963   9.749   8.208   9.693  0.7849  0.3859  0.3681
  282MOL0     C37964   9.602   8.207   9.907 -0.4536 -0.3016  0.2233
  282MOL0     C37965   9.543   8.333   9.886 -0.3903  0.7341  0.5877
  282MOL0     O37966   9.411   8.324   9.870  0.3795  0.1363 -0.1443
  282MOL0     C37967   9.339   8.419   9.942 -0.0225 -0.1365 -0.6378
  282MOL0     C37968   9.321   8.537   9.866  0.7082 -0.3541 -0.2410
  282MOL0     C37969   9.260   8.651   9.921 -1.0680  0.1074 -0.2838
  282MOL0     C37970   9.233   8.651  10.057  0.3106 -0.2920  0.2928
  282MOL0     O37971   9.161   8.756  10.110  0.3730 -0.3849  0.4821
  282MOL0     C37972   9.237   8.819  10.215 -0.3768 -0.6891  0.1142
  282MOL0     C37973   9.141   8.929  10.271  0.2231 -0.9579 -0.4934
  282MOL0     C37974   9.190   8.981  10.415 -0.0590 -0.5284  0.4458
  282MOL0     C37975   9.105   9.101  10.473  0.3032 -1.0248  0.1025
  282MOL0     C37976   9.143   9.153  10.614  0.1772 -0.5362  0.5967
  282MOL0     C37977   9.286   9.218  10.588  0.7060  0.6281 -1.4901
  282MOL0     C37978   9.323   9.275  10.723  0.3428 -1.4101  1.0922
  282MOL0     C37979   9.461   9.339  10.747 -0.3945  0.1952  0.4292
  282MOL0    Cl37980   9.451   9.483  10.629 -0.0599 -0.4980  0.1189
  282MOL0     C37981   9.247   8.531  10.132 -0.4820 -0.2061  0.6303
  282MOL0     C37982   9.301   8.416  10.079  0.0724 -0.0343 -0.4177
  282MOL0     O37983   9.612   8.436   9.900 -1.2899 -0.0384 -0.6471
  282MOL0     C37984   9.574   8.148  10.030  0.0906  0.0206 -0.2777
  282MOL0     C37985   9.626   8.033  10.075 -0.1327 -0.2155  0.5221
  282MOL0     N37986   9.321   7.500   9.723  0.2471  0.2026  0.2726
  282MOL0     N37987   9.303   7.541   9.606 -0.4142 -0.5750  1.2711
  282MOL0     C37988   9.096   7.498   9.976  0.2472 -0.2752 -0.0967
  282MOL0     C37989   9.134   7.372  10.014  0.2651  0.2226 -0.5485
  282MOL0     C37990   9.231   6.975  10.209 -0.1747 -0.7900 -0.0568
  282MOL0     C37991   9.187   6.847  10.172 -0.1224  0.0102 -0.5078
  282MOL0     C37992   9.231   6.740  10.243 -0.4527  0.0765 -0.7189
  282MOL0     C37993   9.319   6.744  10.355  0.4379 -1.1354  0.4758
  282MOL0     O37994   9.356   6.628  10.431  0.6899 -0.2794 -0.2592
  282MOL0     C37995   9.294   6.507  10.397  0.7052  0.0928 -0.6492
  282MOL0     C37996   9.347   6.400  10.496  0.0607  0.6798 -0.6236
  282MOL0     C37997   9.273   6.258  10.473 -0.9077 -0.0353  0.7529
  282MOL0     C37998   9.367   6.146  10.517  0.0536 -0.7274 -0.0443
  282MOL0     C37999   9.307   6.030  10.471  0.3850  0.0826  0.2300
  282MOL0     C38000   9.244   5.932  10.435 -0.6829  0.4191 -0.2106
  282MOL0     C38001   9.379   6.869  10.365  0.1050  0.0323  0.7524
  282MOL0     C38002   9.340   6.984  10.292 -0.4317 -1.1003 -0.4980
  282MOL0     H38003   9.212   7.438  10.343 -0.5365 -1.7842 -0.6710
  282MOL0     H38004   9.166   7.668  10.259  0.8164  1.6124 -2.1212
  282MOL0     H38005   9.142   7.702   9.828  1.7767 -1.6680  2.7333
  282MOL0     H38006   9.055   7.847   9.868 -0.2226 -0.0232  1.5141
  282MOL0     H38007   9.273   7.950   9.950  0.1671 -0.3284  0.1574
  282MOL0     H38008   9.343   7.792   9.971 -1.0892  0.2174  1.1472
  282MOL0     H38009   9.451   7.898   9.797 -1.1932  0.4471  2.2071
  282MOL0     H38010   9.368   7.752   9.744  0.2670  0.4049 -1.5784
  282MOL0     H38011   9.204   7.862   9.615 -2.4225 -1.2266  3.1783
  282MOL0     H38012   9.237   8.012   9.700  0.2697 -0.1580  1.4778
  282MOL0     H38013   9.326   8.004   9.458  1.4387  0.7611 -0.5987
  282MOL0     H38014   9.446   8.052   9.582 -0.6885  1.5615 -0.6092
  282MOL0     H38015   9.564   7.918   9.425  0.0233 -2.1767 -0.6211
  282MOL0     H38016   9.514   7.823   9.569 -2.1351  0.5450  1.8986
  282MOL0     H38017   9.292   7.790   9.400  0.3599 -0.9797  2.5371
  282MOL0     H38018   9.407   7.791   9.273 -1.8067  0.1775 -0.2497
  282MOL0     H38019   9.550   7.644   9.400 -0.3150 -0.4858  2.2172
  282MOL0     H38020   9.404   7.575   9.336 -1.5051 -1.1543  2.2322
  282MOL0     H38021   9.628   7.582   9.630 -0.1262  3.2135 -0.3401
  282MOL0     H38022   9.465   7.372   9.921  0.2225 -1.0220 -0.5286
  282MOL0     H38023   9.609   7.392   9.825 -1.2850  0.3656 -0.8593
  282MOL0     H38024   9.597   7.505  10.061  0.0129  0.4717  0.3943
  282MOL0     H38025   9.458   7.592  10.001  0.6445  0.5540  3.9664
  282MOL0     H38026   9.616   7.734   9.850  1.7896 -0.0135 -0.2290
  282MOL0     H38027   9.751   7.638   9.919  0.6066 -0.1540  1.4598
  282MOL0     H38028   9.734   7.696  10.123  0.2589 -0.3982 -0.8170
  282MOL0     H38029   9.582   7.782  10.095  0.2421 -2.1196  0.5154
  282MOL0     H38030   9.838   7.986   9.814  0.7994 -0.9288  1.9723
  282MOL0     H38031   9.852   8.240   9.679  0.7958  0.4886  0.6615
  282MOL0     H38032   9.724   8.134   9.616 -0.0520  0.0383  0.9487
  282MOL0     H38033   9.697   8.300   9.667 -1.2170 -1.2801 -1.9468
  282MOL0     H38034   9.349   8.536   9.761 -1.8304  0.8051 -0.9967
  282MOL0     H38035   9.228   8.732   9.856 -4.5199 -0.9002 -0.0639
  282MOL0     H38036   9.266   8.750  10.294  2.5225  2.7372  2.3688
  282MOL0     H38037   9.329   8.863  10.175 -0.5582  0.0136  0.4691
  282MOL0     H38038   9.143   9.025  10.220 -3.4306  0.6566  1.9251
  282MOL0     H38039   9.033   8.910  10.269 -0.9830  4.1338  0.5531
  282MOL0     H38040   9.296   9.008  10.403  0.1367  0.5773  3.7104
  282MOL0     H38041   9.193   8.887  10.470 -1.3121 -2.0096 -1.8606
  282MOL0     H38042   9.101   9.184  10.401  0.4578 -0.5250  0.6609
  282MOL0     H38043   9.000   9.073  10.485 -0.4565  1.3812 -0.3276
  282MOL0     H38044   9.152   9.067  10.681 -1.3775  0.5571  2.3148
  282MOL0     H38045   9.072   9.231  10.646 -0.1884 -0.4889 -0.3121
  282MOL0     H38046   9.363   9.154  10.544 -0.0227 -0.5935 -1.0464
  282MOL0     H38047   9.269   9.305  10.524  3.4782  3.3717  1.1478
  282MOL0     H38048   9.322   9.195  10.797  2.2655 -1.0202  1.5978
  282MOL0     H38049   9.249   9.352  10.745 -0.9528 -1.9608 -1.0800
  282MOL0     H38050   9.548   9.280  10.717 -1.0148  1.3325 -4.4813
  282MOL0     H38051   9.473   9.373  10.850 -1.7442  0.5876  0.4770
  282MOL0     H38052   9.220   8.523  10.237  2.6013 -0.9419  1.4791
  282MOL0     H38053   9.320   8.340  10.155  1.9625  2.1635  1.4793
  282MOL0     H38054   9.501   8.188  10.101 -0.6155 -0.1960 -0.8685
  282MOL0     H38055   9.586   7.985  10.164  1.1509 -0.5725  0.9298
  282MOL0     H38056   9.073   7.523   9.873  2.0489 -0.1265 -0.4909
  282MOL0     H38057   9.134   7.302   9.931  0.5603 -2.0998  1.3048
  282MOL0     H38058   9.121   6.827  10.087  0.7657  0.8707 -1.4253
  282MOL0     H38059   9.202   6.638  10.220  0.5809 -0.7612  1.3680
  282MOL0     H38060   9.185   6.514  10.401  0.5946 -1.9704  1.6998
  282MOL0     H38061   9.318   6.479  10.294 -1.0616  0.2985 -1.1602
  282MOL0     H38062   9.337   6.437  10.599 -1.4909  1.2077 -0.9317
  282MOL0     H38063   9.455   6.392  10.482  0.4381  2.9992  0.4526
  282MOL0     H38064   9.253   6.248  10.366  4.0097  0.6377 -0.5265
  282MOL0     H38065   9.185   6.260  10.537 -2.0972 -2.3971 -0.6790
  282MOL0     H38066   9.364   6.153  10.626 -0.8007  0.0216 -0.1010
  282MOL0     H38067   9.471   6.156  10.485  0.8480 -1.9406  2.0138
  282MOL0     H38068   9.201   5.836  10.417 -0.5021  0.1008  1.0018
  282MOL0     H38069   9.450   6.871  10.447  0.7387  1.4667  0.1993
  282MOL0     H38070   9.380   7.080  10.320 -0.8417 -1.9710  3.6505
  283MOL0     O38071   9.205   2.876   9.290 -0.8123 -0.5565 -0.0373
  283MOL0     C38072   9.291   2.931   9.218  0.6083  0.4421 -0.3413
  283MOL0     O38073   9.422   2.893   9.216 -0.0859  0.4472 -0.5672
  283MOL0     C38074   9.468   2.795   9.302  0.3305 -0.6196  0.0062
  283MOL0     C38075   9.438   2.791   9.442  0.2887  0.2326 -0.0943
  283MOL0     C38076   9.491   2.693   9.528 -0.2515 -0.1484 -1.3838
  283MOL0     C38077   9.596   2.623   9.478  0.1124 -0.6910 -0.3473
  283MOL0     O38078   9.677   2.553   9.568 -0.8627  0.8532 -0.7310
  283MOL0     C38079   9.779   2.627   9.642  0.9285 -0.1566 -0.0331
  283MOL0     C38080   9.898   2.653   9.553  0.7602  0.9895  0.4351
  283MOL0     C38081  10.001   2.709   9.648 -0.3720  0.2544  0.1762
  283MOL0     C38082  10.118   2.766   9.570 -0.1641  0.4054  0.5717
  283MOL0     C38083  10.241   2.779   9.645  0.4853 -0.3041 -0.7387
  283MOL0     C38084  10.211   2.871   9.780 -0.1997 -0.7561 -1.2544
  283MOL0     C38085  10.177   3.017   9.744 -0.4880  0.7957  0.4725
  283MOL0     C38086  10.271   3.122   9.805 -0.9634 -0.2511 -0.1319
  283MOL0     N38087  10.238   3.263   9.767 -0.6494  0.9771  0.6032
  283MOL0     C38088  10.139   3.343   9.821  0.8353 -0.2253 -0.2209
  283MOL0     C38089  10.128   3.432   9.733  0.4346 -0.2984 -0.2349
  283MOL0     C38090  10.032   3.548   9.742  0.0768 -0.2202 -0.4024
  283MOL0     C38091   9.940   3.568   9.622 -0.2285 -0.2333  0.7367
  283MOL0     C38092   9.847   3.457   9.567  0.0957 -0.5910 -0.4406
  283MOL0     C38093   9.728   3.523   9.490 -0.5784 -0.7908  0.0923
  283MOL0     O38094   9.634   3.560   9.589  0.0066  0.6456 -0.2443
  283MOL0     C38095   9.547   3.665   9.556 -0.0510  0.2720 -0.1731
  283MOL0     C38096   9.464   3.672   9.448 -0.5310  0.6214  0.8192
  283MOL0     C38097   9.379   3.782   9.420  0.3923 -0.4610  0.0031
  283MOL0     C38098   9.278   3.763   9.310 -0.1316 -1.1697  0.3797
  283MOL0     C38099   9.380   3.899   9.510 -0.0512 -0.1001  0.3321
  283MOL0     C38100   9.313   4.026   9.482 -0.3273  0.8699 -0.0379
  283MOL0     O38101   9.215   4.032   9.380  0.0785 -0.3581  0.0213
  283MOL0     C38102   9.184   4.155   9.321  0.7679 -0.2203 -0.6100
  283MOL0     C38103   9.059   4.173   9.255 -0.2773  0.1137  0.9310
  283MOL0     C38104   9.020   4.299   9.201  0.9108 -0.2029 -1.6473
  283MOL0     C38105   9.114   4.403   9.199 -0.1111 -0.7284 -0.2859
  283MOL0     O38106   9.086   4.527   9.159  0.3914  0.6482  0.2695
  283MOL0     C38107   9.011   4.532   9.028 -0.0741  0.4122  0.3978
  283MOL0     C38108   9.009   4.679   8.986  0.7820 -0.9515  0.3811
  283MOL0     C38109   8.923   4.704   8.862 -0.5244  0.5836  0.8077
  283MOL0     C38110   8.945   4.836   8.786 -0.7848  0.3188 -0.2114
  283MOL0     C38111   8.901   4.818   8.641 -0.2277 -0.6299 -0.1778
  283MOL0     C38112   8.924   4.955   8.556 -0.5123  0.0898  0.0674
  283MOL0     C38113   8.808   5.052   8.565  1.1313  1.1920 -0.1552
  283MOL0     C38114   8.833   5.190   8.520 -0.2117  0.5098 -0.0955
  283MOL0    Cl38115   8.824   5.187   8.337 -0.4949 -0.2182  0.3966
  283MOL0     C38116   9.239   4.388   9.263  0.5424 -0.1930 -1.1805
  283MOL0     C38117   9.271   4.267   9.322 -0.7019 -0.3376  0.5076
  283MOL0     O38118   9.335   4.114   9.566 -0.1786  0.5019 -1.1199
  283MOL0     C38119   9.456   3.881   9.624 -0.4532 -1.0127 -0.7090
  283MOL0     C38120   9.528   3.766   9.650  0.1540  0.5304  0.0082
  283MOL0     N38121  10.205   3.400   9.621  0.7293  0.7522  0.4568
  283MOL0     N38122  10.280   3.300   9.645 -0.2373 -0.3539  0.2825
  283MOL0     C38123   9.639   2.629   9.345  0.6741 -0.0407 -0.0838
  283MOL0     C38124   9.568   2.711   9.250 -0.0217  0.5962  0.1682
  283MOL0     C38125   9.235   3.028   9.108  0.1808  0.0068 -0.3030
  283MOL0     C38126   9.102   3.060   9.106  0.7625  0.3032  0.0908
  283MOL0     C38127   9.036   3.144   9.004  0.5288  0.3213 -1.3431
  283MOL0     C38128   9.120   3.186   8.899 -0.4559 -0.2427  0.2244
  283MOL0     O38129   9.084   3.260   8.786  0.1460 -0.0298 -0.6710
  283MOL0     C38130   8.950   3.308   8.775  0.6278  1.5499 -0.1796
  283MOL0     C38131   8.926   3.349   8.633 -1.5531  0.3181 -0.7194
  283MOL0     C38132   8.769   3.351   8.608 -1.7915 -0.3903 -0.2541
  283MOL0     C38133   8.727   3.383   8.470  0.4917 -0.2658  0.0178
  283MOL0     C38134   8.754   3.289   8.365 -0.3727  0.4270 -0.1463
  283MOL0     C38135   8.774   3.204   8.282 -1.4216 -0.3562  0.3228
  283MOL0     C38136   9.257   3.159   8.905 -0.5455 -0.4051  0.2359
  283MOL0     C38137   9.308   3.074   9.006 -0.9577 -0.4051 -0.7666
  283MOL0     H38138   9.357   2.846   9.489  2.3213  2.1425  1.3205
  283MOL0     H38139   9.456   2.667   9.627  1.5539  0.6977 -0.4591
  283MOL0     H38140   9.734   2.719   9.682  0.7461 -0.6119  0.8354
  283MOL0     H38141   9.810   2.568   9.729 -2.0236 -2.1305 -0.1657
  283MOL0     H38142   9.934   2.561   9.507  3.3004  1.4140  1.4524
  283MOL0     H38143   9.880   2.721   9.469  3.5628  2.3301  0.7853
  283MOL0     H38144   9.958   2.791   9.706 -0.2326  1.6109 -1.5451
  283MOL0     H38145  10.031   2.625   9.710  3.7091 -0.4307 -2.3330
  283MOL0     H38146  10.145   2.706   9.484  1.8714 -0.0242  1.4536
  283MOL0     H38147  10.084   2.866   9.541 -0.7684 -0.2620 -1.1304
  283MOL0     H38148  10.285   2.679   9.656  2.3510  0.7295  2.3609
  283MOL0     H38149  10.305   2.838   9.579 -1.8951  1.0436 -1.9696
  283MOL0     H38150  10.145   2.823   9.853  1.6543 -0.9620  0.3664
  283MOL0     H38151  10.310   2.878   9.824 -1.4606  1.2821  1.5640
  283MOL0     H38152  10.170   3.032   9.635  2.1215  5.0127  0.6769
  283MOL0     H38153  10.076   3.039   9.778 -0.6932  5.4416 -2.2586
  283MOL0     H38154  10.373   3.087   9.783 -1.0392  0.0617 -1.0234
  283MOL0     H38155  10.262   3.119   9.914  0.6037 -0.2947  0.0182
  283MOL0     H38156  10.087   3.327   9.915  0.9520 -1.7248 -0.3847
  283MOL0     H38157   9.974   3.558   9.834 -0.0125  0.7567 -0.5579
  283MOL0     H38158  10.103   3.632   9.743  3.1836 -2.6228  1.6099
  283MOL0     H38159   9.998   3.607   9.538  2.1530  0.2049  2.4718
  283MOL0     H38160   9.880   3.654   9.651  0.8827  0.8198 -0.0053
  283MOL0     H38161   9.825   3.393   9.653  0.2732  0.5462  0.4822
  283MOL0     H38162   9.903   3.395   9.496  0.7265  1.1363 -1.5316
  283MOL0     H38163   9.691   3.457   9.410  2.4780  0.0629 -2.1934
  283MOL0     H38164   9.758   3.617   9.443  0.7403 -2.3225 -2.3603
  283MOL0     H38165   9.471   3.589   9.378  0.7323 -0.1809  1.8395
  283MOL0     H38166   9.288   3.826   9.222 -0.9018  0.8510  1.6649
  283MOL0     H38167   9.275   3.665   9.262  0.5673  1.1493 -5.0948
  283MOL0     H38168   9.178   3.788   9.349  1.3070 -1.0763  4.5240
  283MOL0     H38169   8.991   4.089   9.264 -1.2291  0.5136 -1.6373
  283MOL0     H38170   8.918   4.323   9.173  0.6745 -0.4448 -0.9945
  283MOL0     H38171   9.065   4.485   8.945  1.0250  2.5936 -0.1980
  283MOL0     H38172   8.910   4.495   9.047 -1.3600  2.3948 -1.9247
  283MOL0     H38173   8.971   4.738   9.070  3.8441  2.3720 -0.3013
  283MOL0     H38174   9.108   4.724   8.972 -1.1780  3.1368 -2.5172
  283MOL0     H38175   8.817   4.697   8.884 -0.8610  1.8725 -0.2701
  283MOL0     H38176   8.928   4.613   8.802 -4.1817  0.1644  0.9683
  283MOL0     H38177   8.897   4.914   8.846 -0.1421 -0.1064  0.8851
  283MOL0     H38178   9.053   4.858   8.792 -1.1057  1.6470  1.2740
  283MOL0     H38179   8.797   4.786   8.646 -0.1202 -0.9156  0.4462
  283MOL0     H38180   8.969   4.745   8.594  1.1320 -0.6257  1.6572
  283MOL0     H38181   9.014   5.004   8.594 -0.7176 -0.4002  1.2461
  283MOL0     H38182   8.949   4.928   8.453  2.9932  1.0833  0.5309
  283MOL0     H38183   8.766   5.046   8.666  2.6788 -1.8047  0.4241
  283MOL0     H38184   8.734   4.998   8.505  0.8404  1.3895  0.0230
  283MOL0     H38185   8.919   5.238   8.566 -0.4044 -0.5524  1.4321
  283MOL0     H38186   8.755   5.257   8.558 -1.4315 -0.4829 -0.7338
  283MOL0     H38187   9.309   4.471   9.262  2.7343 -1.8461  1.4922
  283MOL0     H38188   9.363   4.257   9.378 -0.0924 -1.7787 -0.6987
  283MOL0     H38189   9.446   3.950   9.707 -0.6136  2.2380 -3.2209
  283MOL0     H38190   9.576   3.757   9.747  4.6964 -1.8593 -2.1245
  283MOL0     H38191   9.719   2.563   9.314  0.6139 -0.6600  1.0189
  283MOL0     H38192   9.610   2.719   9.151 -2.3471  2.4419 -0.7799
  283MOL0     H38193   9.039   3.033   9.190  1.6158 -0.7389  0.4175
  283MOL0     H38194   8.931   3.171   9.009  0.4660 -0.1221  1.8884
  283MOL0     H38195   8.890   3.217   8.789  3.3253 -0.0366  2.1486
  283MOL0     H38196   8.924   3.385   8.849  3.6142 -0.5875  3.4614
  283MOL0     H38197   8.982   3.287   8.562 -0.6648  1.6968 -1.2747
  283MOL0     H38198   8.965   3.450   8.615  3.3940 -1.1529  0.2184
  283MOL0     H38199   8.722   3.411   8.687 -0.7491 -0.9708  0.8496
  283MOL0     H38200   8.723   3.254   8.628  0.9304 -1.4025  1.8874
  283MOL0     H38201   8.787   3.469   8.440  0.0639 -0.0481 -0.2210
  283MOL0     H38202   8.624   3.419   8.464 -0.2780 -2.0352  1.6457
  283MOL0     H38203   8.789   3.132   8.204 -0.1153 -0.0050  0.2345
  283MOL0     H38204   9.318   3.193   8.822 -1.6208  1.0090 -0.0085
  283MOL0     H38205   9.412   3.044   9.010 -0.2275  1.9857  0.2298
  284MOL0     O38206   1.416   1.493   1.281  0.3910 -0.3196  0.0661
  284MOL0     C38207   1.473   1.444   1.374  0.2766 -0.4963  0.4202
  284MOL0     O38208   1.592   1.489   1.417 -0.0531  0.6323 -0.3663
  284MOL0     C38209   1.666   1.567   1.326  0.1058 -0.2412 -0.8706
  284MOL0     C38210   1.696   1.547   1.192  0.5002 -0.5414  2.0056
  284MOL0     C38211   1.761   1.653   1.118  0.2108  0.7603 -0.6041
  284MOL0     C38212   1.851   1.747   1.179 -0.1706  0.8038 -0.2277
  284MOL0     O38213   1.939   1.841   1.130  0.3898 -0.4138  0.4201
  284MOL0     C38214   1.924   1.875   0.988 -0.7233 -0.4628 -0.1179
  284MOL0     C38215   2.032   1.981   0.967 -0.9453 -0.1719 -0.4174
  284MOL0     C38216   2.021   2.030   0.822 -0.3921  0.2339 -0.4017
  284MOL0     C38217   2.162   2.086   0.763  0.9985  1.1223  0.0260
  284MOL0     C38218   2.151   2.119   0.619  0.0740 -0.2156  0.2058
  284MOL0     C38219   2.171   1.988   0.527 -0.6114 -0.0847  0.4805
  284MOL0     C38220   2.160   2.020   0.380 -0.4178 -0.0738  0.2910
  284MOL0     C38221   2.229   1.925   0.280  0.1281  0.4068  0.3351
  284MOL0     N38222   2.162   1.794   0.266  0.4430  0.0909  0.1231
  284MOL0     C38223   2.222   1.675   0.278 -0.1705 -0.3963 -0.3414
  284MOL0     C38224   2.128   1.596   0.230 -0.4754 -0.9136 -0.1888
  284MOL0     C38225   2.159   1.447   0.244  0.0331  0.8845  0.5798
  284MOL0     C38226   2.250   1.406   0.369 -0.0193 -1.1128  0.0431
  284MOL0     C38227   2.242   1.255   0.406  0.3893 -0.0187  0.6789
  284MOL0     C38228   2.285   1.175   0.283  0.5261 -0.1232  0.4313
  284MOL0     O38229   2.431   1.183   0.278 -0.2164  0.0536  0.1943
  284MOL0     C38230   2.481   1.119   0.169  0.2486 -0.2362  0.1176
  284MOL0     C38231   2.540   0.995   0.189  0.1147 -0.2152 -0.2616
  284MOL0     C38232   2.600   0.927   0.083 -0.7920  0.2645  0.4047
  284MOL0     C38233   2.677   0.798   0.118 -0.2469 -0.8029  0.5479
  284MOL0     C38234   2.581   0.972  -0.049 -0.0652 -0.3404 -0.2115
  284MOL0     C38235   2.634   0.897  -0.172  0.8216  0.0377  0.2763
  284MOL0     O38236   2.660   0.969  -0.283 -0.0111 -0.4736  0.3984
  284MOL0     C38237   2.687   0.917  -0.403  1.2526 -0.2272  0.8707
  284MOL0     C38238   2.783   0.812  -0.426  0.4201  0.0091 -0.0722
  284MOL0     C38239   2.803   0.749  -0.549  0.3345 -1.3639  0.8188
  284MOL0     C38240   2.729   0.802  -0.658  0.8137  0.0581  0.1292
  284MOL0     O38241   2.753   0.741  -0.772  0.1263  0.0837 -0.1913
  284MOL0     C38242   2.630   0.715  -0.834  0.4663 -0.3367 -0.0011
  284MOL0     C38243   2.656   0.613  -0.941  0.1984 -0.2574 -0.0291
  284MOL0     C38244   2.546   0.608  -1.044 -0.1985  0.0287 -0.2806
  284MOL0     C38245   2.404   0.557  -0.983  0.9124  0.0174  0.7640
  284MOL0     C38246   2.307   0.517  -1.105 -0.5725  0.0038 -0.4070
  284MOL0     C38247   2.179   0.455  -1.043 -0.4297 -0.3130  0.4426
  284MOL0     C38248   2.064   0.418  -1.129  0.7714 -1.4303  0.0928
  284MOL0     C38249   2.099   0.370  -1.274 -0.1474  0.1616 -0.1234
  284MOL0    Cl38250   1.965   0.290  -1.352  0.3853 -0.5716  0.2845
  284MOL0     C38251   2.647   0.910  -0.645  0.8295 -0.3124  0.3407
  284MOL0     C38252   2.616   0.967  -0.520 -0.2355 -0.3440 -0.5060
  284MOL0     O38253   2.636   0.774  -0.171 -0.6806  1.1178 -0.7666
  284MOL0     C38254   2.520   1.096  -0.068 -0.8360 -0.0239 -0.5637
  284MOL0     C38255   2.466   1.173   0.043  0.1904 -0.5020 -1.1818
  284MOL0     N38256   2.013   1.658   0.204 -0.3620 -0.7759 -0.5866
  284MOL0     N38257   2.039   1.776   0.220 -0.1214 -0.3358 -0.9432
  284MOL0     C38258   1.831   1.749   1.319 -0.7234  0.1125  0.6545
  284MOL0     C38259   1.735   1.669   1.383 -0.3143  0.2434 -0.7306
  284MOL0     C38260   1.419   1.324   1.442  1.4420 -0.2399  0.0743
  284MOL0     C38261   1.498   1.246   1.520 -0.7523  0.1000 -0.4960
  284MOL0     C38262   1.471   1.115   1.563  0.0380 -0.4183  0.3349
  284MOL0     C38263   1.336   1.069   1.541  0.7457  0.0898  0.1842
  284MOL0     O38264   1.278   0.955   1.586  0.2419  0.0674 -0.0693
  284MOL0     C38265   1.364   0.852   1.660  0.0499  0.5285 -0.0945
  284MOL0     C38266   1.458   0.764   1.563  0.2635 -0.1527 -0.4054
  284MOL0     C38267   1.394   0.711   1.431  0.6004 -0.4269 -0.2462
  284MOL0     C38268   1.467   0.580   1.387 -0.8378 -0.4572  0.0390
  284MOL0     C38269   1.604   0.607   1.335  0.2198  0.6813  0.0036
  284MOL0     C38270   1.722   0.622   1.311  0.8515 -1.2799  1.0236
  284MOL0     C38271   1.254   1.154   1.466 -0.3813  0.7596 -0.3084
  284MOL0     C38272   1.288   1.274   1.421 -0.9567  0.4826 -0.0774
  284MOL0     H38273   1.646   1.477   1.126  2.0726  0.9195 -0.9691
  284MOL0     H38274   1.757   1.638   1.011  0.1584 -0.2882 -0.4612
  284MOL0     H38275   1.944   1.791   0.920 -2.0945  0.1491 -1.3231
  284MOL0     H38276   1.826   1.920   0.973  0.3170  1.5492 -1.2820
  284MOL0     H38277   2.010   2.066   1.033 -2.8160 -0.1768 -0.9744
  284MOL0     H38278   2.136   1.955   0.989 -0.0958  2.4200 -0.9673
  284MOL0     H38279   2.001   1.945   0.756 -0.0890  0.1567 -0.3978
  284MOL0     H38280   1.952   2.112   0.800  0.3273  1.0739  0.4035
  284MOL0     H38281   2.197   2.169   0.825 -4.1899  2.5132  1.5320
  284MOL0     H38282   2.230   2.000   0.759 -2.6901 -2.0305 -1.0401
  284MOL0     H38283   2.055   2.164   0.595  0.7450  0.5996 -1.0446
  284MOL0     H38284   2.226   2.192   0.588 -0.2027  0.2484  0.6215
  284MOL0     H38285   2.269   1.944   0.552  0.0058  0.1604 -1.4001
  284MOL0     H38286   2.092   1.914   0.545 -1.3537  1.3389  3.9738
  284MOL0     H38287   2.054   2.016   0.353 -1.2733 -0.5494  3.3696
  284MOL0     H38288   2.204   2.118   0.360 -1.4264  0.4945  0.8018
  284MOL0     H38289   2.322   1.895   0.329 -0.8197 -0.6800  1.5554
  284MOL0     H38290   2.224   1.976   0.184  2.8928 -0.7575 -0.5268
  284MOL0     H38291   2.328   1.654   0.286  0.9472  3.9340 -1.3096
  284MOL0     H38292   2.070   1.385   0.237  0.1612  0.8128 -0.5245
  284MOL0     H38293   2.231   1.434   0.163 -1.5516 -0.5208 -0.6472
  284MOL0     H38294   2.202   1.458   0.452 -2.6770 -2.0601 -0.7825
  284MOL0     H38295   2.351   1.440   0.344 -1.7554  3.0501 -2.3778
  284MOL0     H38296   2.140   1.227   0.436  1.0432  1.0700  4.5401
  284MOL0     H38297   2.308   1.240   0.492  0.0899  0.5139  1.0127
  284MOL0     H38298   2.222   1.209   0.201  0.6197  2.2437  1.2449
  284MOL0     H38299   2.258   1.070   0.291  4.5847 -1.4463 -0.5493
  284MOL0     H38300   2.540   0.957   0.291  0.7130 -2.5615 -1.0830
  284MOL0     H38301   2.721   0.796   0.219  1.9806  5.0804  0.0482
  284MOL0     H38302   2.606   0.719   0.093 -0.3589 -1.5134  2.8504
  284MOL0     H38303   2.758   0.798   0.045 -1.8110  0.4523 -1.2634
  284MOL0     H38304   2.835   0.791  -0.333  0.4396 -2.1537 -0.5046
  284MOL0     H38305   2.876   0.672  -0.571  0.8215 -1.2832  2.0746
  284MOL0     H38306   2.567   0.672  -0.756  0.1809  0.8712  0.4516
  284MOL0     H38307   2.590   0.806  -0.880 -0.2180 -1.4433 -1.6818
  284MOL0     H38308   2.750   0.643  -0.989 -0.2382 -0.2103 -0.8813
  284MOL0     H38309   2.674   0.511  -0.905  0.2736 -0.9748 -1.9555
  284MOL0     H38310   2.585   0.528  -1.108  1.7064 -0.2961  1.1959
  284MOL0     H38311   2.540   0.699  -1.103  0.5184 -0.0040 -0.4178
  284MOL0     H38312   2.419   0.464  -0.927 -0.7149 -1.6810 -1.4216
  284MOL0     H38313   2.367   0.643  -0.927 -0.2533 -0.3909  0.6435
  284MOL0     H38314   2.355   0.437  -1.163  0.2249  0.5748 -0.5419
  284MOL0     H38315   2.294   0.605  -1.168  0.0257  0.5452  0.2145
  284MOL0     H38316   2.218   0.368  -0.990 -2.0006 -2.0799 -1.1766
  284MOL0     H38317   2.137   0.520  -0.965  0.2199 -1.2251  1.6016
  284MOL0     H38318   1.998   0.505  -1.129  2.4987 -0.0524 -1.1877
  284MOL0     H38319   2.003   0.338  -1.085 -0.8789  1.2449  3.0226
  284MOL0     H38320   2.188   0.307  -1.264 -0.5311 -0.0032  3.9123
  284MOL0     H38321   2.132   0.455  -1.334  2.5324 -0.5877  0.1635
  284MOL0     H38322   2.591   0.944  -0.731 -0.4713  0.5053  1.4684
  284MOL0     H38323   2.546   1.049  -0.514  1.6728  1.3897 -0.6934
  284MOL0     H38324   2.516   1.136  -0.169  0.7305 -1.5838 -1.3044
  284MOL0     H38325   2.416   1.267   0.021 -2.8782 -0.6552  3.5875
  284MOL0     H38326   1.886   1.828   1.370  0.3512 -0.3990  0.3267
  284MOL0     H38327   1.716   1.679   1.490  1.3358  2.7019 -0.5586
  284MOL0     H38328   1.582   1.308   1.551 -3.4676  1.8109  4.4769
  284MOL0     H38329   1.533   1.049   1.621  3.3783  1.3747 -0.8921
  284MOL0     H38330   1.417   0.897   1.745 -1.5256  1.2371  0.5708
  284MOL0     H38331   1.286   0.782   1.692 -0.3130  1.5572  1.3927
  284MOL0     H38332   1.493   0.677   1.619 -1.4427 -0.2596  0.5764
  284MOL0     H38333   1.536   0.833   1.531  0.4155 -1.0669 -2.1593
  284MOL0     H38334   1.396   0.784   1.349 -0.6225  0.6855  0.6735
  284MOL0     H38335   1.289   0.696   1.455  1.2905 -1.5764  2.4632
  284MOL0     H38336   1.403   0.528   1.315 -1.3900  1.7000 -1.1277
  284MOL0     H38337   1.476   0.517   1.476  0.1826 -0.2135  0.1251
  284MOL0     H38338   1.821   0.646   1.278 -0.6423  1.8469 -1.7185
  284MOL0     H38339   1.152   1.126   1.443 -0.5397 -0.3309  1.5277
  284MOL0     H38340   1.223   1.328   1.353  1.2992  2.9825 -0.4183
  285MOL0     O38341  10.784   5.585   1.861  0.2399  0.4720  0.1866
  285MOL0     C38342  10.741   5.648   1.758  0.3289 -0.2874 -0.3570
  285MOL0     O38343  10.665   5.760   1.754 -0.4663  0.0332 -0.0630
  285MOL0     C38344  10.681   5.869   1.845  1.0456  0.0805  0.1339
  285MOL0     C38345  10.768   5.878   1.951 -0.5140  0.6403 -0.0736
  285MOL0     C38346  10.762   5.993   2.038 -0.2346 -0.1270  0.8163
  285MOL0     C38347  10.677   6.094   2.003 -0.7827  0.4945  0.1329
  285MOL0     O38348  10.684   6.197   2.090 -0.4229 -0.4207  0.4424
  285MOL0     C38349  10.576   6.289   2.085  0.3090 -0.5703 -0.3019
  285MOL0     C38350  10.562   6.394   2.196 -0.0426 -0.6576  1.3197
  285MOL0     C38351  10.432   6.474   2.190  0.0696 -0.0433  0.8397
  285MOL0     C38352  10.396   6.530   2.334  0.2159 -0.4374  0.3472
  285MOL0     C38353  10.274   6.624   2.340  0.3772 -0.9403 -0.1379
  285MOL0     C38354  10.318   6.761   2.310 -0.2296  0.1407  1.3459
  285MOL0     C38355  10.289   6.809   2.167  0.2024 -0.1456 -0.4066
  285MOL0     C38356  10.347   6.941   2.118  0.3581 -0.2507  0.3702
  285MOL0     N38357  10.253   7.005   2.016  0.1898 -0.0482 -0.8570
  285MOL0     C38358  10.117   7.036   2.031  0.5098  0.1179 -0.2284
  285MOL0     C38359  10.080   7.073   1.912  0.9721 -0.6290 -0.6232
  285MOL0     C38360   9.963   7.150   1.869 -0.5067 -1.2948  0.0703
  285MOL0     C38361   9.870   7.061   1.799 -0.3804  0.0882  0.1134
  285MOL0     C38362   9.733   7.120   1.780 -0.0501 -0.1026 -1.2208
  285MOL0     C38363   9.621   7.017   1.794 -0.6451  0.2814 -0.0843
  285MOL0     O38364   9.494   7.072   1.753  0.2878  0.9782 -0.1899
  285MOL0     C38365   9.406   7.131   1.843  0.4675 -0.5350 -0.1194
  285MOL0     C38366   9.275   7.150   1.804 -0.2107 -0.9631  0.1885
  285MOL0     C38367   9.179   7.217   1.891 -0.1224  0.4368 -0.4305
  285MOL0     C38368   9.058   7.285   1.821  0.5110 -0.1384  0.0442
  285MOL0     C38369   9.201   7.232   2.024 -0.4589 -0.1214 -0.5495
  285MOL0     C38370   9.096   7.242   2.120  0.0093  0.5600 -0.0812
  285MOL0     O38371   9.131   7.315   2.233  0.4167 -0.1290 -0.3578
  285MOL0     C38372   9.032   7.334   2.332  1.2165  0.3858 -0.0531
  285MOL0     C38373   8.957   7.234   2.388 -1.4026  0.0524 -0.3538
  285MOL0     C38374   8.879   7.260   2.498  0.7708 -0.1634  0.2346
  285MOL0     C38375   8.892   7.385   2.564 -0.6410 -0.5515 -0.1643
  285MOL0     O38376   8.813   7.395   2.672 -0.4959  0.3889 -0.4448
  285MOL0     C38377   8.872   7.466   2.782  0.3688  0.9541 -0.0421
  285MOL0     C38378   8.828   7.385   2.910  0.1955  0.6606 -0.0175
  285MOL0     C38379   8.871   7.235   2.886  0.3547  0.6827 -1.0920
  285MOL0     C38380   8.755   7.155   2.955 -0.4894 -0.4865  0.1820
  285MOL0     C38381   8.793   7.016   2.938 -0.0415  0.6609  0.9190
  285MOL0     C38382   8.904   6.948   3.035  0.4350 -0.4251  0.9331
  285MOL0     C38383   8.919   6.802   3.003  0.0995 -0.1843 -0.0858
  285MOL0     C38384   9.029   6.739   3.088  0.3124 -0.1761 -0.2003
  285MOL0    Cl38385   9.197   6.815   3.090  0.1446  0.0178  0.2414
  285MOL0     C38386   8.988   7.485   2.517  0.2079 -0.5912  0.3597
  285MOL0     C38387   9.045   7.459   2.394 -0.5150  0.9243  0.3403
  285MOL0     O38388   8.994   7.169   2.104 -0.2683 -0.8942  0.1082
  285MOL0     C38389   9.330   7.187   2.067  0.0768  0.5418 -0.4902
  285MOL0     C38390   9.431   7.142   1.981 -0.0623  0.3093  1.8611
  285MOL0     N38391  10.187   7.060   1.828 -0.2808 -0.0887  0.1850
  285MOL0     N38392  10.288   7.004   1.886  0.7704 -0.2651 -0.3158
  285MOL0     C38393  10.593   6.099   1.892 -1.3133  0.6401 -0.8449
  285MOL0     C38394  10.597   5.980   1.816  0.0527  0.2707  0.6372
  285MOL0     C38395  10.772   5.594   1.626  0.3345  0.3449  1.1642
  285MOL0     C38396  10.720   5.662   1.511  0.4415  0.4470  0.0230
  285MOL0     C38397  10.733   5.596   1.388  0.6141  0.0900  0.0632
  285MOL0     C38398  10.824   5.490   1.365  0.6671 -0.5170 -0.2982
  285MOL0     O38399  10.843   5.444   1.230  0.4549  0.3243 -0.1303
  285MOL0     C38400  10.882   5.310   1.208 -0.3487 -0.4649  0.5137
  285MOL0     C38401  11.035   5.290   1.222  0.1869 -0.1180 -0.9701
  285MOL0     C38402  11.092   5.220   1.097  0.9534  0.6980 -0.3636
  285MOL0     C38403  11.239   5.180   1.102 -0.7784 -0.8472  0.3576
  285MOL0     C38404  11.273   5.109   0.980  0.2886 -0.6179  0.7733
  285MOL0     C38405  11.292   5.047   0.878 -0.4657 -0.7619  0.9856
  285MOL0     C38406  10.879   5.431   1.480 -0.4219  1.4029 -0.3688
  285MOL0     C38407  10.847   5.478   1.604  0.3927 -1.0808  0.6670
  285MOL0     H38408  10.833   5.795   1.977  1.1569  2.7816  3.3163
  285MOL0     H38409  10.833   5.998   2.119  0.0062 -3.6487  0.9733
  285MOL0     H38410  10.580   6.342   1.989  1.4309  0.4672  0.2889
  285MOL0     H38411  10.480   6.236   2.082 -1.3782  2.2242  0.4271
  285MOL0     H38412  10.559   6.334   2.288  0.9916 -3.6916 -0.4866
  285MOL0     H38413  10.649   6.458   2.183 -2.3535  2.3360 -0.9650
  285MOL0     H38414  10.451   6.561   2.127  1.0705 -1.7512 -1.3384
  285MOL0     H38415  10.350   6.419   2.142 -1.2049  2.5234 -0.1013
  285MOL0     H38416  10.372   6.440   2.391 -3.5409  0.3122  0.1985
  285MOL0     H38417  10.478   6.581   2.386 -0.6567 -0.9423  2.2868
  285MOL0     H38418  10.189   6.584   2.284  0.2989  3.4290 -3.6645
  285MOL0     H38419  10.253   6.631   2.448 -2.2160 -1.0772 -0.5751
  285MOL0     H38420  10.271   6.816   2.392 -0.3707 -0.9894  2.0538
  285MOL0     H38421  10.427   6.768   2.314 -0.2070  2.7088 -1.1447
  285MOL0     H38422  10.296   6.727   2.095 -2.5311  1.7946 -3.0906
  285MOL0     H38423  10.182   6.832   2.162 -0.0813 -1.5739 -1.6551
  285MOL0     H38424  10.448   6.928   2.078  0.8380  1.7404  0.8267
  285MOL0     H38425  10.347   7.009   2.203  3.3191 -0.3321  0.5187
  285MOL0     H38426  10.061   7.034   2.124  1.2610  2.0743  0.3203
  285MOL0     H38427   9.913   7.205   1.949 -0.0586 -0.3274 -0.3005
  285MOL0     H38428   9.998   7.225   1.797 -1.3815  1.5315  2.3863
  285MOL0     H38429   9.854   6.976   1.866 -3.4733  1.3107  1.1343
  285MOL0     H38430   9.918   7.031   1.706 -1.0326  1.8726 -0.8422
  285MOL0     H38431   9.727   7.162   1.679 -1.2178 -2.2083 -2.0851
  285MOL0     H38432   9.708   7.189   1.861  0.6694 -0.7925 -0.3897
  285MOL0     H38433   9.616   6.987   1.899 -3.4760 -1.0039 -0.5086
  285MOL0     H38434   9.650   6.933   1.732  1.4718  1.7244 -1.1782
  285MOL0     H38435   9.253   7.127   1.701 -0.3661 -2.1267  0.4695
  285MOL0     H38436   8.991   7.208   1.782 -2.5033 -0.0789  4.4474
  285MOL0     H38437   8.999   7.342   1.894 -0.4789  1.4842 -1.8995
  285MOL0     H38438   9.090   7.358   1.746  0.3952 -0.7993 -0.6591
  285MOL0     H38439   8.973   7.134   2.349  3.8000  0.1177  0.9180
  285MOL0     H38440   8.815   7.187   2.546 -1.0128 -0.1846 -2.0226
  285MOL0     H38441   8.981   7.460   2.782  0.3010 -2.4423 -1.5369
  285MOL0     H38442   8.833   7.568   2.775 -0.8837  0.4303 -1.1189
  285MOL0     H38443   8.872   7.433   2.998  0.7151 -0.6507  0.4615
  285MOL0     H38444   8.719   7.392   2.912 -0.0219 -1.5282 -1.1820
  285MOL0     H38445   8.964   7.216   2.940 -0.2148  0.3059 -0.2263
  285MOL0     H38446   8.877   7.197   2.783 -2.0996  1.7565 -1.7087
  285MOL0     H38447   8.751   7.174   3.062 -2.1585 -1.8897  0.4084
  285MOL0     H38448   8.654   7.169   2.914  0.0087  2.0503 -0.3231
  285MOL0     H38449   8.829   6.985   2.839 -1.8421 -2.7118  1.1663
  285MOL0     H38450   8.703   6.955   2.952  2.1238 -2.1649  4.5814
  285MOL0     H38451   9.004   6.988   3.015  1.0677 -2.8363 -1.4163
  285MOL0     H38452   8.871   6.966   3.137  1.9872 -0.5199  1.4883
  285MOL0     H38453   8.937   6.789   2.896 -1.9378 -3.7541 -0.1510
  285MOL0     H38454   8.832   6.740   3.028  0.9535 -0.3002  2.9864
  285MOL0     H38455   9.059   6.639   3.056  3.5702  0.2768  1.0330
  285MOL0     H38456   8.995   6.755   3.191  1.0427  0.3207 -0.0298
  285MOL0     H38457   8.970   7.585   2.555 -5.1153 -1.2545  0.3486
  285MOL0     H38458   9.117   7.533   2.358  3.3249 -1.4941  2.3148
  285MOL0     H38459   9.369   7.168   2.166 -2.1264  0.3470  0.3785
  285MOL0     H38460   9.528   7.117   2.023 -0.5638 -0.9479  2.3296
  285MOL0     H38461  10.539   6.183   1.850 -1.1261 -0.0497 -2.5611
  285MOL0     H38462  10.540   5.984   1.724 -2.4196 -0.9987  2.0045
  285MOL0     H38463  10.649   5.744   1.516 -0.6508 -0.5044  0.5663
  285MOL0     H38464  10.685   5.630   1.296 -0.4778 -1.6080 -0.0452
  285MOL0     H38465  10.834   5.239   1.276 -0.5529 -1.3197 -0.5017
  285MOL0     H38466  10.847   5.264   1.116 -1.1700  2.6357 -0.8821
  285MOL0     H38467  11.052   5.218   1.302 -1.9574 -2.9693 -2.8853
  285MOL0     H38468  11.094   5.376   1.255  0.9624 -0.9342 -0.1780
  285MOL0     H38469  11.077   5.282   1.008  1.6378 -0.4260 -1.2713
  285MOL0     H38470  11.031   5.131   1.082 -1.8585  1.9493  2.4794
  285MOL0     H38471  11.270   5.125   1.191 -1.2460  0.8791  1.6374
  285MOL0     H38472  11.297   5.273   1.096  1.4801 -2.1725  0.2086
  285MOL0     H38473  11.312   4.984   0.793  2.3151  1.6411 -0.3303
  285MOL0     H38474  10.929   5.336   1.474  0.2030  1.4423  2.7671
  285MOL0     H38475  10.893   5.431   1.690  1.2853 -0.1454  0.7297
  286MOL0     O38476   5.233   3.575   2.576 -0.8015  0.0536  0.8990
  286MOL0     C38477   5.191   3.459   2.552  0.1325  0.5782  0.1178
  286MOL0     O38478   5.276   3.358   2.509  0.4878 -0.2843  0.0232
  286MOL0     C38479   5.397   3.395   2.452  0.3078  0.3158  0.2274
  286MOL0     C38480   5.407   3.468   2.328  0.1088  1.4876 -0.0952
  286MOL0     C38481   5.528   3.490   2.262  0.3858 -0.2368 -0.5170
  286MOL0     C38482   5.645   3.428   2.308  0.0242  0.0354 -0.9274
  286MOL0     O38483   5.766   3.425   2.240  0.6846  0.8054 -0.8629
  286MOL0     C38484   5.771   3.509   2.123  0.4243  0.7129  1.4851
  286MOL0     C38485   5.899   3.492   2.037 -0.0183  0.0816  0.4442
  286MOL0     C38486   6.036   3.489   2.103 -0.4226  0.1956 -0.6730
  286MOL0     C38487   6.153   3.509   2.003 -0.1154  0.4062 -0.5743
  286MOL0     C38488   6.283   3.430   2.064 -0.1468 -0.6014  0.5626
  286MOL0     C38489   6.347   3.492   2.186 -0.0267 -0.2534 -0.7565
  286MOL0     C38490   6.474   3.408   2.235  0.2295 -0.5905  0.3747
  286MOL0     C38491   6.549   3.472   2.347 -0.0615 -0.9239 -0.3927
  286MOL0     N38492   6.623   3.595   2.297 -0.1275 -1.0335 -0.4175
  286MOL0     C38493   6.744   3.597   2.231 -0.2715 -1.0537  0.0834
  286MOL0     C38494   6.767   3.731   2.203  0.5207 -0.3020 -1.0030
  286MOL0     C38495   6.872   3.774   2.106  0.1231  0.2910 -1.1581
  286MOL0     C38496   6.911   3.920   2.111 -0.1517  0.5095  0.5954
  286MOL0     C38497   6.802   4.013   2.044 -0.2632  0.8597 -0.6974
  286MOL0     C38498   6.776   3.982   1.899 -0.0773  0.1061  0.1736
  286MOL0     O38499   6.683   4.093   1.851  0.1157 -0.7163 -0.8138
  286MOL0     C38500   6.717   4.167   1.739  0.7987  0.6423  0.2066
  286MOL0     C38501   6.749   4.305   1.748  0.0151 -0.2695  0.7040
  286MOL0     C38502   6.760   4.392   1.634  0.9917  0.0207 -0.5079
  286MOL0     C38503   6.786   4.547   1.658  0.6603  0.2398  0.5422
  286MOL0     C38504   6.736   4.335   1.506  0.5755 -0.0224  0.7681
  286MOL0     C38505   6.748   4.412   1.378  0.0867  0.4394  0.5604
  286MOL0     O38506   6.677   4.355   1.270  0.0209 -1.2016 -0.6017
  286MOL0     C38507   6.540   4.336   1.279 -0.0578  0.7674 -0.0680
  286MOL0     C38508   6.491   4.243   1.188  0.4019 -0.5744  0.6168
  286MOL0     C38509   6.354   4.215   1.184 -0.2004  0.9195 -0.4105
  286MOL0     C38510   6.264   4.274   1.277 -0.7334  0.3906  0.5262
  286MOL0     O38511   6.140   4.217   1.274 -0.2729  0.4106  0.8415
  286MOL0     C38512   6.026   4.265   1.342  0.1820 -0.3646 -0.4749
  286MOL0     C38513   5.911   4.175   1.326  0.6474 -0.3820  0.2063
  286MOL0     C38514   5.932   4.036   1.381 -0.4277 -0.7018 -1.2852
  286MOL0     C38515   5.811   3.939   1.371 -0.9879 -0.3240 -0.1105
  286MOL0     C38516   5.845   3.801   1.435  0.1903 -0.0280  0.1596
  286MOL0     C38517   5.832   3.797   1.590 -0.3016  0.2064 -0.8058
  286MOL0     C38518   5.818   3.662   1.657  0.8057 -0.2472 -0.6706
  286MOL0     C38519   5.698   3.654   1.754 -0.1318 -0.0238 -0.6734
  286MOL0    Cl38520   5.725   3.750   1.899  0.1339 -0.3453 -0.1268
  286MOL0     C38521   6.316   4.366   1.372  0.3146 -0.3596 -0.6145
  286MOL0     C38522   6.451   4.397   1.370  0.1892  0.3367 -1.2685
  286MOL0     O38523   6.806   4.515   1.371 -0.1295  0.6551  0.6562
  286MOL0     C38524   6.708   4.190   1.501 -0.0808 -0.8010 -0.5663
  286MOL0     C38525   6.690   4.116   1.616  1.2746 -0.8529 -0.3381
  286MOL0     N38526   6.664   3.802   2.262 -0.1406 -0.6922 -0.0136
  286MOL0     N38527   6.582   3.720   2.305 -0.4770 -0.8001  0.0227
  286MOL0     C38528   5.635   3.357   2.436  0.0262  0.1712  0.9692
  286MOL0     C38529   5.509   3.337   2.505 -0.1151 -0.0528  0.0542
  286MOL0     C38530   5.050   3.418   2.575  0.8345  0.1599 -0.1089
  286MOL0     C38531   5.008   3.286   2.583 -1.0765 -0.2283 -0.4705
  286MOL0     C38532   4.872   3.258   2.612 -0.3373  0.2101 -0.2682
  286MOL0     C38533   4.772   3.353   2.611 -0.1584  0.1779 -1.2889
  286MOL0     O38534   4.642   3.317   2.630 -0.8704 -0.3665  0.2911
  286MOL0     C38535   4.536   3.422   2.642 -0.1496  0.0774 -1.2421
  286MOL0     C38536   4.415   3.364   2.685  0.6685  0.0972  1.0800
  286MOL0     C38537   4.336   3.273   2.595 -0.7295 -0.1966  0.9243
  286MOL0     C38538   4.230   3.199   2.662  0.5904  0.5469 -1.0292
  286MOL0     C38539   4.126   3.289   2.714  1.0252  0.1703  0.7405
  286MOL0     C38540   4.037   3.374   2.745 -0.8527  0.0824  0.8694
  286MOL0     C38541   4.816   3.480   2.594 -0.7336  0.5909  0.5718
  286MOL0     C38542   4.948   3.515   2.575  0.1320  0.1671 -0.3304
  286MOL0     H38543   5.316   3.513   2.289  0.2026  0.6262 -1.3927
  286MOL0     H38544   5.530   3.558   2.177 -1.7611 -0.1087 -0.5270
  286MOL0     H38545   5.691   3.471   2.058 -0.6247 -0.2829  3.2782
  286MOL0     H38546   5.740   3.610   2.152  0.5818  0.1232  3.9194
  286MOL0     H38547   5.898   3.397   1.983  0.2812  0.5830 -0.4629
  286MOL0     H38548   5.902   3.565   1.956  2.5190 -1.3972 -0.8996
  286MOL0     H38549   6.055   3.574   2.170 -2.4937 -1.3039  2.0231
  286MOL0     H38550   6.052   3.395   2.157 -2.4120  0.3627  0.3144
  286MOL0     H38551   6.127   3.457   1.910  1.4831  1.1161 -1.4610
  286MOL0     H38552   6.154   3.616   1.986 -3.9780  0.8369  0.8475
  286MOL0     H38553   6.261   3.326   2.089  1.1002 -0.8536  0.6319
  286MOL0     H38554   6.357   3.439   1.984  1.0099  1.3859  1.7743
  286MOL0     H38555   6.374   3.596   2.162  2.7297 -0.5996  0.4514
  286MOL0     H38556   6.272   3.495   2.266 -0.4152 -0.7982 -1.0931
  286MOL0     H38557   6.441   3.310   2.268  2.2941 -1.5292 -0.2033
  286MOL0     H38558   6.531   3.394   2.143 -1.3187  1.0539 -0.9369
  286MOL0     H38559   6.617   3.397   2.387 -1.2659 -3.4412 -2.6541
  286MOL0     H38560   6.489   3.515   2.428  1.9815  3.0511 -0.7265
  286MOL0     H38561   6.812   3.517   2.201  0.5591  0.4713 -2.3994
  286MOL0     H38562   6.956   3.706   2.117 -0.2068  0.3142  3.5956
  286MOL0     H38563   6.835   3.745   2.007 -2.9773 -0.6575  0.1440
  286MOL0     H38564   7.004   3.939   2.057 -0.1772 -1.0204 -0.0358
  286MOL0     H38565   6.925   3.922   2.219 -2.5702 -5.1645  1.3927
  286MOL0     H38566   6.839   4.112   2.074 -2.4357  1.0287  1.7609
  286MOL0     H38567   6.703   3.994   2.088  1.2366 -2.0918  1.8071
  286MOL0     H38568   6.741   3.881   1.879  0.6285  0.1097 -1.1938
  286MOL0     H38569   6.867   4.003   1.842 -0.7053  5.2094  0.5174
  286MOL0     H38570   6.756   4.351   1.846  2.5711  0.1708  0.3818
  286MOL0     H38571   6.890   4.553   1.624  0.3830  2.5634 -0.0245
  286MOL0     H38572   6.733   4.615   1.591  0.9419 -1.5400 -1.6072
  286MOL0     H38573   6.785   4.562   1.767  1.1916  1.1930  0.4239
  286MOL0     H38574   6.554   4.207   1.107 -1.0694  1.0121 -1.3513
  286MOL0     H38575   6.309   4.150   1.110 -2.6524  2.4467 -0.3674
  286MOL0     H38576   6.064   4.298   1.440  5.5493 -1.4527 -1.8426
  286MOL0     H38577   6.012   4.357   1.284 -2.1803  0.0866  0.7089
  286MOL0     H38578   5.823   4.232   1.358  2.2475  1.5070  1.4332
  286MOL0     H38579   5.896   4.153   1.219  2.4143  3.2802 -0.9531
  286MOL0     H38580   5.946   4.059   1.487  1.8870  0.6706 -1.8168
  286MOL0     H38581   6.030   3.993   1.357  1.9700  3.5537 -0.1258
  286MOL0     H38582   5.722   3.985   1.415 -0.9570 -0.0635 -0.3203
  286MOL0     H38583   5.785   3.921   1.266 -1.2845 -1.1271  0.0920
  286MOL0     H38584   5.943   3.765   1.403  1.3487 -0.4056  3.7208
  286MOL0     H38585   5.769   3.741   1.385 -1.1551  0.5468  1.4407
  286MOL0     H38586   5.918   3.849   1.634  1.0592 -2.0241 -0.6458
  286MOL0     H38587   5.753   3.859   1.631  2.5984  2.7387  1.4565
  286MOL0     H38588   5.909   3.642   1.716  1.2270  0.5922 -1.0153
  286MOL0     H38589   5.815   3.589   1.575  2.6735 -2.2677  0.9074
  286MOL0     H38590   5.685   3.551   1.789  0.5671  0.7417  2.1897
  286MOL0     H38591   5.604   3.694   1.718  0.0231  0.2451 -0.7819
  286MOL0     H38592   6.252   4.415   1.445  1.4092 -1.4029  1.1383
  286MOL0     H38593   6.484   4.472   1.441  1.6422  0.0730 -1.6283
  286MOL0     H38594   6.696   4.133   1.409  1.0587  0.3223 -1.4516
  286MOL0     H38595   6.653   4.014   1.617 -0.1624 -0.4698 -3.4816
  286MOL0     H38596   5.729   3.309   2.459 -0.9557 -0.9085  3.0352
  286MOL0     H38597   5.500   3.282   2.598 -0.5533  1.7311  1.1299
  286MOL0     H38598   5.078   3.204   2.571  0.5440  1.3270 -2.3503
  286MOL0     H38599   4.832   3.158   2.626  0.3784  0.0424  0.6240
  286MOL0     H38600   4.555   3.497   2.719 -3.0398 -0.8372  0.5524
  286MOL0     H38601   4.509   3.469   2.547  3.4390  0.4902 -2.1969
  286MOL0     H38602   4.344   3.441   2.717 -1.6452 -2.8811  3.7262
  286MOL0     H38603   4.446   3.310   2.775  2.3689  0.5496  0.7844
  286MOL0     H38604   4.402   3.204   2.541  0.4421  1.9483 -0.5046
  286MOL0     H38605   4.293   3.334   2.515  0.8550  1.2134  1.1021
  286MOL0     H38606   4.260   3.143   2.751  0.0844 -0.8962 -1.7272
  286MOL0     H38607   4.191   3.126   2.590  0.9611 -1.7275  0.9659
  286MOL0     H38608   3.972   3.439   2.801  2.1084  1.1490  3.3591
  286MOL0     H38609   4.738   3.555   2.607 -0.4808  0.5774  2.4943
  286MOL0     H38610   4.969   3.621   2.567 -1.2932  0.4330 -0.7244
  287MOL0     O38611   6.629   8.421   8.182  0.3052 -0.9026  0.9319
  287MOL0     C38612   6.562   8.426   8.080  0.9268  0.6978  0.9629
  287MOL0     O38613   6.468   8.526   8.060 -0.5247 -0.2117  0.4142
  287MOL0     C38614   6.484   8.642   8.136  0.4664 -0.8007 -0.7016
  287MOL0     C38615   6.364   8.712   8.187 -0.3209  0.3975 -0.3417
  287MOL0     C38616   6.374   8.845   8.241 -1.1131  0.3564 -0.7629
  287MOL0     C38617   6.496   8.905   8.261  0.1456 -0.8503  0.0532
  287MOL0     O38618   6.487   9.034   8.305  0.1243  0.4326 -0.3020
  287MOL0     C38619   6.599   9.124   8.289  0.3374  0.2288  0.2290
  287MOL0     C38620   6.699   9.111   8.394 -0.5801 -0.4523  1.2920
  287MOL0     C38621   6.637   9.121   8.538 -0.7866 -0.3208 -0.3801
  287MOL0     C38622   6.582   9.266   8.561 -0.3067 -0.0233  1.5597
  287MOL0     C38623   6.522   9.278   8.708 -1.2127 -1.4300 -0.0793
  287MOL0     C38624   6.609   9.232   8.816  0.6715  0.6219  0.0028
  287MOL0     C38625   6.537   9.269   8.952 -0.4148 -0.3575  0.3735
  287MOL0     C38626   6.630   9.216   9.064 -0.3937 -0.2691  1.5687
  287MOL0     N38627   6.758   9.287   9.067 -0.2971  0.1596  0.1033
  287MOL0     C38628   6.779   9.421   9.078  0.4202 -0.1379 -0.5577
  287MOL0     C38629   6.911   9.449   9.041  0.2323  0.4176 -0.5739
  287MOL0     C38630   6.960   9.595   9.029  0.0031  0.9278 -0.2962
  287MOL0     C38631   7.005   9.641   9.164 -0.0796  1.1068  0.1346
  287MOL0     C38632   7.154   9.654   9.183 -0.4291 -0.3355 -0.0963
  287MOL0     C38633   7.226   9.521   9.179 -0.0047 -0.4085  0.5526
  287MOL0     O38634   7.368   9.533   9.196  0.0803 -0.1456 -1.1835
  287MOL0     C38635   7.413   9.522   9.326  0.3872  0.1657  0.2780
  287MOL0     C38636   7.331   9.485   9.434 -0.1835  0.2823 -0.6548
  287MOL0     C38637   7.394   9.462   9.561  0.0201 -0.2740  0.6815
  287MOL0     C38638   7.296   9.427   9.668 -0.5703  0.4508  0.4801
  287MOL0     C38639   7.530   9.479   9.580  0.7663  0.7904 -0.4523
  287MOL0     C38640   7.601   9.485   9.707 -0.2595 -0.0846 -0.2520
  287MOL0     O38641   7.737   9.502   9.698  0.9350 -0.0406 -0.2009
  287MOL0     C38642   7.815   9.471   9.809  0.8091  0.1276  1.0323
  287MOL0     C38643   7.908   9.556   9.851 -0.2893  0.8683  0.3842
  287MOL0     C38644   7.992   9.510   9.950  0.1050 -0.2423 -0.3484
  287MOL0     C38645   7.979   9.384  10.011  0.1503  1.0320 -0.8018
  287MOL0     O38646   8.052   9.353  10.128 -1.0514 -0.3980  0.7836
  287MOL0     C38647   8.106   9.444  10.227  0.5037 -0.3352 -0.0974
  287MOL0     C38648   8.011   9.441  10.358 -0.7077 -0.2877  0.0788
  287MOL0     C38649   8.046   9.318  10.442 -0.1771 -0.3443  0.1651
  287MOL0     C38650   7.979   9.330  10.587 -0.1316 -0.1318 -0.2756
  287MOL0     C38651   7.999   9.204  10.676 -1.0894 -0.2487  0.6935
  287MOL0     C38652   8.139   9.151  10.651  0.6891 -0.0174  0.1506
  287MOL0     C38653   8.173   9.047  10.757  0.4383 -0.0865  0.0926
  287MOL0     C38654   8.324   9.038  10.780 -0.1261 -0.1979 -0.4796
  287MOL0    Cl38655   8.385   9.186  10.854 -0.5765 -0.3524  0.1736
  287MOL0     C38656   7.887   9.294   9.962 -0.9867 -0.6428 -1.5497
  287MOL0     C38657   7.805   9.336   9.861  0.0335 -0.8170 -0.4859
  287MOL0     O38658   7.538   9.480   9.812 -0.5138  0.6062 -0.0034
  287MOL0     C38659   7.606   9.518   9.473  0.1900  0.1850 -0.2893
  287MOL0     C38660   7.547   9.523   9.345  0.2679 -0.3025  0.6946
  287MOL0     N38661   6.973   9.329   9.024 -0.2426  0.1255 -0.2183
  287MOL0     N38662   6.879   9.228   9.028 -0.0384 -0.0802  0.5417
  287MOL0     C38663   6.611   8.841   8.210 -0.1676 -0.9473 -0.2258
  287MOL0     C38664   6.607   8.714   8.150 -0.1023 -0.0895 -0.3966
  287MOL0     C38665   6.587   8.319   7.979  0.3244 -0.1814  0.1213
  287MOL0     C38666   6.708   8.243   7.974 -0.1836  0.1181  0.6224
  287MOL0     C38667   6.736   8.154   7.861  0.3745  0.6907  0.2882
  287MOL0     C38668   6.635   8.115   7.775  0.6124 -0.3072  0.4297
  287MOL0     O38669   6.661   8.011   7.692 -1.0533 -0.0140 -0.2225
  287MOL0     C38670   6.595   8.006   7.570  0.4002  1.0220  0.9601
  287MOL0     C38671   6.602   8.128   7.469 -0.5806  1.1046  1.0974
  287MOL0     C38672   6.748   8.186   7.468 -0.1637 -0.5203  0.5072
  287MOL0     C38673   6.758   8.339   7.436  0.9099  0.7973 -0.9940
  287MOL0     C38674   6.711   8.412   7.552  0.6511 -0.1073 -0.1763
  287MOL0     C38675   6.677   8.461   7.664  0.4435 -0.2388  0.6126
  287MOL0     C38676   6.507   8.186   7.784 -0.2181 -0.1402 -0.2557
  287MOL0     C38677   6.497   8.283   7.873 -0.5325 -0.4269 -0.0502
  287MOL0     H38678   6.262   8.676   8.177 -1.0751  2.3179  0.0183
  287MOL0     H38679   6.290   8.905   8.274 -0.7233  0.1619  0.6624
  287MOL0     H38680   6.649   9.114   8.192 -1.7785  1.1860 -1.0242
  287MOL0     H38681   6.559   9.226   8.284 -0.8223 -0.2681 -1.3355
  287MOL0     H38682   6.753   9.018   8.377 -0.7783 -0.6742  1.8694
  287MOL0     H38683   6.777   9.187   8.388  0.3448 -1.4796 -0.5986
  287MOL0     H38684   6.570   9.040   8.568  0.4581 -2.0223 -1.9627
  287MOL0     H38685   6.714   9.113   8.615  0.9798 -2.6723 -2.2464
  287MOL0     H38686   6.656   9.345   8.545 -0.4183 -0.4676 -1.7593
  287MOL0     H38687   6.497   9.284   8.494  1.6099  0.3097 -0.8887
  287MOL0     H38688   6.496   9.382   8.728  2.6678 -0.4778  0.7764
  287MOL0     H38689   6.436   9.210   8.710 -0.4093 -2.6759 -2.6721
  287MOL0     H38690   6.634   9.126   8.822 -0.0814  0.3292 -1.4997
  287MOL0     H38691   6.703   9.288   8.813  0.3015  1.2647  0.0686
  287MOL0     H38692   6.519   9.375   8.969  1.0760 -0.4094  2.7075
  287MOL0     H38693   6.437   9.225   8.953  0.3508 -2.3103 -1.4096
  287MOL0     H38694   6.640   9.107   9.072  0.5343 -0.1727  1.8055
  287MOL0     H38695   6.583   9.260   9.153 -1.0370 -0.7915  1.4964
  287MOL0     H38696   6.697   9.485   9.109  0.1323 -0.8810  0.2600
  287MOL0     H38697   7.033   9.606   8.949  0.7410  2.4530  0.5499
  287MOL0     H38698   6.879   9.657   8.990 -1.3064  0.4799  1.5526
  287MOL0     H38699   6.970   9.575   9.244 -1.8743  2.2832  0.3981
  287MOL0     H38700   6.956   9.738   9.178 -1.6527  0.7675 -2.4856
  287MOL0     H38701   7.176   9.698   9.281  0.9139 -2.7551  0.7663
  287MOL0     H38702   7.182   9.718   9.099 -2.5786 -0.3843 -0.9133
  287MOL0     H38703   7.209   9.480   9.080  0.2049 -1.5053  0.9569
  287MOL0     H38704   7.182   9.450   9.250 -3.7349  1.9849  0.8823
  287MOL0     H38705   7.227   9.514   9.445 -0.3131 -0.1078 -0.8350
  287MOL0     H38706   7.320   9.493   9.752  3.8249 -1.0359  0.6516
  287MOL0     H38707   7.197   9.442   9.625  0.6107 -0.8896 -3.0668
  287MOL0     H38708   7.303   9.321   9.695  0.1690 -0.9682 -4.3223
  287MOL0     H38709   7.919   9.652   9.801 -2.3756  0.6935 -0.5352
  287MOL0     H38710   8.069   9.583   9.971 -1.5491  1.7834 -0.9674
  287MOL0     H38711   8.207   9.411  10.252  0.8584 -0.0962 -1.1344
  287MOL0     H38712   8.127   9.541  10.179 -2.6168 -0.3587 -1.7499
  287MOL0     H38713   8.013   9.527  10.426 -2.2312  0.4077 -0.7037
  287MOL0     H38714   7.908   9.434  10.323 -0.4410 -1.6137 -0.5093
  287MOL0     H38715   8.154   9.312  10.459  0.6637  7.1895  0.8475
  287MOL0     H38716   8.021   9.227  10.387 -1.8852 -1.2136  2.2418
  287MOL0     H38717   8.036   9.401  10.647 -0.6657 -0.7287  0.9838
  287MOL0     H38718   7.875   9.361  10.585 -0.2549 -0.5263 -0.2147
  287MOL0     H38719   7.929   9.121  10.659  0.8383 -1.7073 -0.6717
  287MOL0     H38720   7.973   9.239  10.776 -1.5657 -1.0541  0.8648
  287MOL0     H38721   8.144   9.096  10.557 -2.1551  0.5759 -0.4540
  287MOL0     H38722   8.212   9.232  10.646  2.8411 -1.9053 -1.3551
  287MOL0     H38723   8.127   8.950  10.736 -0.3465 -0.7602  4.0721
  287MOL0     H38724   8.123   9.072  10.851  0.9829 -0.8766  0.6050
  287MOL0     H38725   8.371   9.035  10.681 -0.0432  2.1650 -0.5575
  287MOL0     H38726   8.352   8.954  10.844 -2.2769  0.5289  1.5300
  287MOL0     H38727   7.877   9.200  10.016  0.0618 -1.1770 -2.2439
  287MOL0     H38728   7.724   9.272   9.827  1.1419 -2.3672 -0.2796
  287MOL0     H38729   7.713   9.533   9.476 -0.0607  3.9030 -2.7068
  287MOL0     H38730   7.602   9.543   9.253  0.3875 -0.4313  0.7370
  287MOL0     H38731   6.706   8.893   8.213 -1.1641  1.1609 -2.4114
  287MOL0     H38732   6.700   8.684   8.102 -0.0209 -2.5192  1.0956
  287MOL0     H38733   6.781   8.244   8.054  1.1833  0.6060 -0.5712
  287MOL0     H38734   6.835   8.109   7.856  0.8318  1.8059 -2.5141
  287MOL0     H38735   6.610   7.915   7.512  0.8371  2.1614 -0.7789
  287MOL0     H38736   6.488   8.002   7.589  0.4850  1.7988  1.6567
  287MOL0     H38737   6.530   8.206   7.498 -0.8432  0.6228  1.7666
  287MOL0     H38738   6.577   8.086   7.371  4.5088  0.2567 -0.0873
  287MOL0     H38739   6.809   8.133   7.394 -1.1150  1.0367 -1.4929
  287MOL0     H38740   6.791   8.176   7.568 -0.6894 -2.8659  0.5536
  287MOL0     H38741   6.687   8.330   7.354 -4.5713 -2.4342  3.3362
  287MOL0     H38742   6.860   8.367   7.409  1.0290  0.5574 -0.7990
  287MOL0     H38743   6.650   8.516   7.752 -0.0071 -1.9792  1.6049
  287MOL0     H38744   6.428   8.158   7.715  0.2763 -2.8137  0.1328
  287MOL0     H38745   6.411   8.349   7.866 -1.7707 -2.0698 -1.1033
  288MOL0     O38746   5.561   2.751   4.023  0.5755 -0.7951  0.7749
  288MOL0     C38747   5.664   2.695   4.056 -0.5754 -1.0373  0.6704
  288MOL0     O38748   5.765   2.745   4.127 -0.4015  0.4675 -0.4230
  288MOL0     C38749   5.771   2.870   4.176  0.4358  0.2414  0.7216
  288MOL0     C38750   5.729   2.989   4.108  0.4953  1.2440 -0.2057
  288MOL0     C38751   5.757   3.120   4.159  0.3697  0.2318  0.2994
  288MOL0     C38752   5.836   3.139   4.274 -0.4692 -0.8641  0.7253
  288MOL0     O38753   5.872   3.267   4.295 -1.0898 -0.1476 -0.1570
  288MOL0     C38754   5.937   3.308   4.425  0.0034  0.7062  0.3441
  288MOL0     C38755   6.082   3.338   4.380  0.5463  0.3438 -0.5191
  288MOL0     C38756   6.127   3.472   4.436 -0.4932 -0.7430  0.2196
  288MOL0     C38757   6.068   3.594   4.360 -0.0526 -0.0580 -0.7007
  288MOL0     C38758   6.161   3.718   4.385 -0.0714  0.1930 -0.4344
  288MOL0     C38759   6.296   3.710   4.315 -0.3406 -0.1509  0.2190
  288MOL0     C38760   6.393   3.821   4.360 -0.7511  0.1223  0.5930
  288MOL0     C38761   6.527   3.808   4.298  0.1248 -0.0739 -1.0699
  288MOL0     N38762   6.613   3.911   4.359  0.0449 -0.5903 -0.2481
  288MOL0     C38763   6.590   4.048   4.351 -0.6551 -0.1358  0.1891
  288MOL0     C38764   6.701   4.100   4.395 -0.0913 -0.1150 -0.6294
  288MOL0     C38765   6.719   4.246   4.433  0.0541  0.3475  0.7440
  288MOL0     C38766   6.744   4.323   4.311 -0.3341  0.9573  0.0457
  288MOL0     C38767   6.778   4.463   4.355  0.1278  0.0033 -0.6367
  288MOL0     C38768   6.931   4.499   4.374  0.3511  0.4460  1.0576
  288MOL0     O38769   6.947   4.638   4.420  0.3213 -0.2355 -0.0514
  288MOL0     C38770   6.898   4.747   4.353  0.1432 -0.0401  0.0964
  288MOL0     C38771   6.875   4.753   4.219  0.2859  1.0780  0.4089
  288MOL0     C38772   6.811   4.863   4.159  0.2216  1.8683  0.0377
  288MOL0     C38773   6.806   4.874   4.006 -0.5443 -0.6717  0.6173
  288MOL0     C38774   6.770   4.971   4.238  0.2716  0.3589 -1.0167
  288MOL0     C38775   6.677   5.085   4.213 -0.5429 -0.2627  1.1870
  288MOL0     O38776   6.639   5.164   4.316 -0.1849 -0.5079  0.4386
  288MOL0     C38777   6.557   5.270   4.281 -0.5201 -0.9971 -1.5426
  288MOL0     C38778   6.423   5.259   4.286  0.8194 -0.3878 -0.0575
  288MOL0     C38779   6.335   5.371   4.273  0.1322  0.3251  0.5607
  288MOL0     C38780   6.384   5.497   4.250 -0.4561 -0.2439  0.1884
  288MOL0     O38781   6.306   5.605   4.229  0.1484  0.1656  0.4830
  288MOL0     C38782   6.346   5.708   4.138  0.1784  0.2912  0.8166
  288MOL0     C38783   6.231   5.776   4.071  0.4500 -0.0369  0.0254
  288MOL0     C38784   6.170   5.678   3.967  0.6100  0.6053 -1.4373
  288MOL0     C38785   6.030   5.732   3.912 -0.8931 -0.1597 -0.6129
  288MOL0     C38786   5.950   5.624   3.833  0.5062 -0.0908 -0.5165
  288MOL0     C38787   5.816   5.684   3.801 -0.1961  0.3651 -0.1674
  288MOL0     C38788   5.724   5.575   3.733  0.6442  0.7283 -0.2079
  288MOL0     C38789   5.666   5.622   3.602 -0.7291  0.1577  0.7994
  288MOL0    Cl38790   5.531   5.519   3.531 -0.0369 -0.2006  0.0870
  288MOL0     C38791   6.526   5.508   4.251 -0.7329  0.4017 -0.0965
  288MOL0     C38792   6.604   5.395   4.259  0.5553  0.2884  0.1104
  288MOL0     O38793   6.650   5.103   4.092  0.3985 -0.0609 -0.5022
  288MOL0     C38794   6.839   4.981   4.369  0.6729 -0.2972  0.3315
  288MOL0     C38795   6.891   4.863   4.429 -0.1061 -0.2988 -0.0813
  288MOL0     N38796   6.785   4.001   4.444  0.0257 -1.2053 -0.4902
  288MOL0     N38797   6.728   3.881   4.427 -0.0385  0.0175  0.0541
  288MOL0     C38798   5.877   3.024   4.343  0.2189  0.9075 -0.5556
  288MOL0     C38799   5.843   2.896   4.298  0.0913  0.8783 -0.2721
  288MOL0     C38800   5.669   2.544   4.024  0.5027 -0.4628  0.1442
  288MOL0     C38801   5.789   2.479   4.043 -0.1685  0.0375 -0.1974
  288MOL0     C38802   5.806   2.345   4.004 -0.0308 -0.4906  0.4461
  288MOL0     C38803   5.712   2.275   3.931 -0.6500  0.1673  0.0144
  288MOL0     O38804   5.732   2.144   3.900 -0.3051  0.4549  0.1858
  288MOL0     C38805   5.639   2.060   3.836  0.7401 -0.2723 -0.9854
  288MOL0     C38806   5.646   2.058   3.689 -0.8222  0.3700  0.0472
  288MOL0     C38807   5.798   2.055   3.651  0.5127 -0.3853  0.0413
  288MOL0     C38808   5.844   2.188   3.602 -0.2856 -0.6648  1.0340
  288MOL0     C38809   5.990   2.208   3.617 -0.2893  0.4288 -0.1178
  288MOL0     C38810   6.112   2.211   3.634 -0.2955 -0.4507 -0.1066
  288MOL0     C38811   5.597   2.350   3.907 -0.5423 -0.4842  0.9601
  288MOL0     C38812   5.573   2.475   3.951 -0.5359  0.3477  0.6406
  288MOL0     H38813   5.671   2.977   4.016 -0.5648 -1.7895  0.7417
  288MOL0     H38814   5.729   3.207   4.100  0.3295 -0.6011 -0.9341
  288MOL0     H38815   5.898   3.399   4.471  1.4579  0.4577  2.1751
  288MOL0     H38816   5.929   3.232   4.504  0.3664  0.1603 -0.1320
  288MOL0     H38817   6.145   3.270   4.438 -0.3266 -1.0097 -1.1123
  288MOL0     H38818   6.108   3.333   4.274 -0.1512  3.8194 -0.9713
  288MOL0     H38819   6.101   3.482   4.542 -2.1665 -0.5087 -0.1977
  288MOL0     H38820   6.237   3.467   4.437 -0.4512 -0.3799 -0.8972
  288MOL0     H38821   6.073   3.581   4.252 -3.7559  2.6362 -1.3821
  288MOL0     H38822   5.965   3.599   4.398  0.4512 -4.4120  1.9976
  288MOL0     H38823   6.114   3.807   4.341 -0.8625  0.6518  1.2541
  288MOL0     H38824   6.174   3.743   4.490 -1.9727  1.9453 -0.5681
  288MOL0     H38825   6.353   3.627   4.357  1.5746  1.9903  2.1602
  288MOL0     H38826   6.298   3.707   4.205  1.1190 -1.3693  0.2442
  288MOL0     H38827   6.342   3.907   4.316 -0.1363 -0.1557 -0.7211
  288MOL0     H38828   6.400   3.815   4.469 -0.8371  0.1828  0.6014
  288MOL0     H38829   6.521   3.836   4.192  3.8187  2.9774 -0.6717
  288MOL0     H38830   6.564   3.706   4.302  0.2207 -0.0184 -0.4953
  288MOL0     H38831   6.511   4.106   4.306  0.6203  1.9898  0.5355
  288MOL0     H38832   6.634   4.287   4.489 -2.0869 -0.2036 -1.8655
  288MOL0     H38833   6.809   4.243   4.494 -0.5658 -0.5014  1.6351
  288MOL0     H38834   6.647   4.311   4.262  0.1798 -0.4339 -0.6947
  288MOL0     H38835   6.816   4.277   4.242 -2.3570  1.1798 -2.3694
  288MOL0     H38836   6.722   4.497   4.443 -0.5292  3.3162 -2.1605
  288MOL0     H38837   6.737   4.522   4.273  0.6732 -0.7493 -1.4689
  288MOL0     H38838   6.977   4.476   4.277 -2.5643  1.8569 -0.8024
  288MOL0     H38839   6.974   4.433   4.449  0.0761 -2.6469 -1.3167
  288MOL0     H38840   6.918   4.670   4.164  1.5283  0.9246  1.5593
  288MOL0     H38841   6.715   4.840   3.955  0.4524  3.0004 -4.3847
  288MOL0     H38842   6.824   4.980   3.990  0.4762 -0.5796  2.1964
  288MOL0     H38843   6.885   4.814   3.960 -0.5488 -1.1840  1.2491
  288MOL0     H38844   6.382   5.160   4.305  1.1055 -1.5549 -4.3907
  288MOL0     H38845   6.228   5.361   4.288  0.3395  1.5175  3.4693
  288MOL0     H38846   6.403   5.782   4.195 -1.3409  0.6668  1.8939
  288MOL0     H38847   6.411   5.658   4.066 -2.0710  0.7307 -1.6489
  288MOL0     H38848   6.156   5.806   4.145  1.9674  2.4562  0.6883
  288MOL0     H38849   6.279   5.852   4.008 -0.7466  0.1483 -0.6967
  288MOL0     H38850   6.147   5.584   4.019  2.9027  1.1013  0.6342
  288MOL0     H38851   6.245   5.655   3.890  4.7654 -2.2581  2.8930
  288MOL0     H38852   5.973   5.777   3.994  1.5564 -0.3913  1.3458
  288MOL0     H38853   6.071   5.816   3.854  2.9826  0.0823  2.0210
  288MOL0     H38854   5.948   5.533   3.894  3.1663 -2.2988 -3.3908
  288MOL0     H38855   6.004   5.600   3.740  0.4924  1.6812 -1.0189
  288MOL0     H38856   5.769   5.710   3.896  0.2355  0.2690  0.0757
  288MOL0     H38857   5.834   5.771   3.736  2.7326 -0.4845 -0.6352
  288MOL0     H38858   5.641   5.550   3.799  1.4998 -0.1505  0.5690
  288MOL0     H38859   5.772   5.482   3.702  1.0563  1.5816 -2.3212
  288MOL0     H38860   5.750   5.620   3.531 -0.9064 -1.9671  0.6118
  288MOL0     H38861   5.621   5.721   3.618  0.7673  1.2862 -1.3050
  288MOL0     H38862   6.583   5.597   4.225 -0.5216  1.2806  2.9709
  288MOL0     H38863   6.711   5.405   4.269  0.7744  0.2924 -1.7943
  288MOL0     H38864   6.855   5.069   4.430  1.1816 -0.4643  0.4487
  288MOL0     H38865   6.937   4.866   4.527 -1.8934 -1.5148  0.8324
  288MOL0     H38866   5.939   3.024   4.432 -0.0863 -1.6470 -0.2645
  288MOL0     H38867   5.891   2.811   4.345  1.0558  1.1447 -0.7612
  288MOL0     H38868   5.870   2.535   4.089 -1.4053  2.1315 -0.4253
  288MOL0     H38869   5.899   2.294   4.025  0.5838  1.0998  1.8518
  288MOL0     H38870   5.676   1.963   3.870  1.9148  0.3813 -0.3329
  288MOL0     H38871   5.538   2.073   3.878  1.2700 -3.8995  1.9805
  288MOL0     H38872   5.586   2.139   3.645 -1.0542  0.5409  0.6726
  288MOL0     H38873   5.593   1.968   3.653  0.9620  0.0582 -2.0330
  288MOL0     H38874   5.810   1.975   3.578  3.2124 -1.7727  1.8713
  288MOL0     H38875   5.863   2.020   3.731  4.3184  0.1302 -2.5430
  288MOL0     H38876   5.797   2.272   3.654 -1.9917  0.3068 -1.8229
  288MOL0     H38877   5.817   2.190   3.496  2.3393 -2.3054  0.2406
  288MOL0     H38878   6.215   2.239   3.624 -1.1490  2.4730 -2.4266
  288MOL0     H38879   5.519   2.305   3.844  1.1196  1.1672 -2.5728
  288MOL0     H38880   5.473   2.507   3.923  0.5401  4.1522  0.5031
  289MOL0     O38881   7.467   2.750   2.266 -0.4654 -0.8401 -0.0043
  289MOL0     C38882   7.381   2.798   2.338 -0.7293  1.3935 -0.2383
  289MOL0     O38883   7.292   2.719   2.407 -0.1101 -0.3062  0.4305
  289MOL0     C38884   7.270   2.585   2.375  0.0740  0.5567  0.2477
  289MOL0     C38885   7.380   2.487   2.376 -0.4341 -0.4035  0.5021
  289MOL0     C38886   7.347   2.355   2.378  0.1043 -0.2075  1.1095
  289MOL0     C38887   7.214   2.311   2.393 -0.6075  0.7345 -0.7597
  289MOL0     O38888   7.188   2.171   2.403  0.2879  0.0056  0.1881
  289MOL0     C38889   7.052   2.118   2.383 -0.1639  1.0732  0.0707
  289MOL0     C38890   7.044   1.980   2.333 -0.4054  0.3145  0.1988
  289MOL0     C38891   6.909   1.950   2.288  0.4321 -0.0411  0.9547
  289MOL0     C38892   6.893   1.819   2.214 -0.8897 -0.1134 -0.4397
  289MOL0     C38893   6.752   1.801   2.151  0.6737  0.5848  0.0098
  289MOL0     C38894   6.749   1.677   2.068 -0.1064  0.1184 -0.5410
  289MOL0     C38895   6.859   1.663   1.964 -0.1173 -0.3705 -0.4733
  289MOL0     C38896   6.830   1.557   1.857  0.1949  1.2255  0.7008
  289MOL0     N38897   6.936   1.544   1.761  1.2983  0.4122  0.4360
  289MOL0     C38898   7.057   1.494   1.793 -0.1550 -0.6179  0.9022
  289MOL0     C38899   7.123   1.511   1.671  0.0651  0.2005 -0.0477
  289MOL0     C38900   7.261   1.478   1.648  0.4757  0.1736  1.8018
  289MOL0     C38901   7.286   1.323   1.607  0.5748  0.4556  0.5479
  289MOL0     C38902   7.257   1.223   1.717  0.5852 -0.8801 -0.4133
  289MOL0     C38903   7.290   1.089   1.666 -0.1776  0.1534  0.5225
  289MOL0     O38904   7.264   0.988   1.758 -0.1932  0.1345  0.1081
  289MOL0     C38905   7.351   0.893   1.804  0.1649  0.7436  0.4543
  289MOL0     C38906   7.291   0.777   1.847 -0.6131  0.5998 -0.3497
  289MOL0     C38907   7.377   0.661   1.887  1.1621 -0.6201 -0.1293
  289MOL0     C38908   7.300   0.563   1.964 -0.4425  0.8507  0.3485
  289MOL0     C38909   7.519   0.673   1.898 -0.2827  0.6210 -1.1241
  289MOL0     C38910   7.611   0.564   1.937 -0.9352 -0.7473  0.4669
  289MOL0     O38911   7.560   0.436   1.948  1.1532 -0.5821 -0.0035
  289MOL0     C38912   7.621   0.333   1.994 -0.3235 -0.7557  0.4619
  289MOL0     C38913   7.573   0.272   2.102  0.7175  0.0725 -0.5545
  289MOL0     C38914   7.642   0.152   2.140 -0.4988 -0.0905 -0.8773
  289MOL0     C38915   7.761   0.113   2.077  0.0742  0.2065  0.1043
  289MOL0     O38916   7.820   0.004   2.119 -0.1944 -0.1405  0.3741
  289MOL0     C38917   7.944   0.015   2.191  0.0789 -0.3181 -0.4839
  289MOL0     C38918   8.079   0.037   2.113  1.2935  0.3076  0.7104
  289MOL0     C38919   8.206  -0.007   2.198 -0.3941  0.6264 -0.0716
  289MOL0     C38920   8.333   0.004   2.121  0.2191  0.0421  0.3675
  289MOL0     C38921   8.443  -0.075   2.189 -0.1921  0.1807 -0.7193
  289MOL0     C38922   8.581  -0.042   2.124  0.1397  0.4260  0.1259
  289MOL0     C38923   8.681  -0.150   2.145  0.6006 -0.4363 -0.7067
  289MOL0     C38924   8.815  -0.110   2.087 -0.3937 -0.0732 -0.2167
  289MOL0    Cl38925   8.929  -0.248   2.126  0.4513  0.2979  0.0432
  289MOL0     C38926   7.806   0.169   1.958  0.4939 -0.3587  0.1844
  289MOL0     C38927   7.735   0.288   1.919  0.3233 -0.4187 -0.5294
  289MOL0     O38928   7.724   0.595   1.972 -0.4410  0.0289  0.2517
  289MOL0     C38929   7.569   0.803   1.873 -0.1144 -0.0391  0.8668
  289MOL0     C38930   7.490   0.909   1.828  0.5006  0.5821 -0.0572
  289MOL0     N38931   7.041   1.561   1.574  0.0957  0.1491 -0.8288
  289MOL0     N38932   6.921   1.579   1.625 -0.3611  0.4297  0.4537
  289MOL0     C38933   7.110   2.398   2.401 -0.3920  0.0408  0.6582
  289MOL0     C38934   7.135   2.531   2.387 -0.3047 -0.0052 -0.0952
  289MOL0     C38935   7.380   2.938   2.366  0.9431 -0.7308 -0.5087
  289MOL0     C38936   7.378   3.029   2.265  0.4620  0.1177  0.8829
  289MOL0     C38937   7.366   3.172   2.275  0.6969 -0.4428 -1.0678
  289MOL0     C38938   7.343   3.230   2.398  0.9148  1.4315 -1.0223
  289MOL0     O38939   7.307   3.358   2.428 -0.1586 -0.5093 -0.0346
  289MOL0     C38940   7.358   3.456   2.343 -1.0089 -0.8696 -0.5624
  289MOL0     C38941   7.323   3.604   2.391  1.2494 -0.4523  0.2671
  289MOL0     C38942   7.173   3.614   2.414 -0.3806  0.4314 -0.3332
  289MOL0     C38943   7.123   3.746   2.472 -0.2942 -0.0788  0.5190
  289MOL0     C38944   7.176   3.877   2.421  0.0319  0.4575 -0.5014
  289MOL0     C38945   7.240   3.972   2.368  0.6625  0.6329  0.5693
  289MOL0     C38946   7.338   3.135   2.508  0.4306 -0.3577 -0.2833
  289MOL0     C38947   7.360   2.994   2.493 -0.6091 -0.5296 -0.2128
  289MOL0     H38948   7.486   2.511   2.374  0.2038 -2.8999  0.5801
  289MOL0     H38949   7.431   2.288   2.387  0.6279  0.4090  0.8280
  289MOL0     H38950   6.992   2.125   2.474 -1.9882 -2.1993 -0.7040
  289MOL0     H38951   6.999   2.183   2.313  1.1000  0.6099 -1.3555
  289MOL0     H38952   7.121   1.971   2.257 -0.7296  1.9785 -0.3758
  289MOL0     H38953   7.055   1.910   2.417  3.1507 -0.4196 -0.7099
  289MOL0     H38954   6.847   1.942   2.378 -2.2200  0.6755 -0.7039
  289MOL0     H38955   6.870   2.037   2.235  1.2337  0.4202  1.1012
  289MOL0     H38956   6.969   1.816   2.135 -2.0013 -0.4407 -1.5086
  289MOL0     H38957   6.915   1.741   2.288 -3.1737  0.1429  0.5827
  289MOL0     H38958   6.684   1.799   2.237  3.1838  0.2945  2.1133
  289MOL0     H38959   6.721   1.881   2.083  1.3320 -0.6040 -1.7645
  289MOL0     H38960   6.733   1.589   2.130 -2.3444  0.8234 -0.0052
  289MOL0     H38961   6.657   1.682   2.009 -0.4739 -3.2517 -0.4445
  289MOL0     H38962   6.869   1.762   1.919 -1.2260 -0.3117 -0.6140
  289MOL0     H38963   6.953   1.632   2.010  1.1750  3.7889  0.0358
  289MOL0     H38964   6.742   1.585   1.799  1.3700 -0.0207 -1.8365
  289MOL0     H38965   6.823   1.457   1.902  2.5529 -0.0883 -1.5707
  289MOL0     H38966   7.085   1.442   1.884 -1.0445 -3.2109 -0.2090
  289MOL0     H38967   7.300   1.557   1.583 -1.4713 -0.8927 -0.8627
  289MOL0     H38968   7.304   1.502   1.746 -0.2888  2.3235  1.6633
  289MOL0     H38969   7.386   1.302   1.567 -0.6153  0.2441 -2.6201
  289MOL0     H38970   7.229   1.291   1.519  3.5518 -0.7077 -1.0926
  289MOL0     H38971   7.153   1.237   1.745  0.9504 -1.0788  1.1468
  289MOL0     H38972   7.319   1.256   1.801 -1.3431  0.6192  0.4791
  289MOL0     H38973   7.396   1.088   1.638 -0.2883  0.7136  0.0599
  289MOL0     H38974   7.236   1.069   1.573  1.9957 -2.2135 -0.3465
  289MOL0     H38975   7.184   0.769   1.836 -0.2340 -1.4708 -4.5479
  289MOL0     H38976   7.345   0.538   2.061 -2.5459 -0.6788  1.0114
  289MOL0     H38977   7.191   0.571   1.967 -0.9822 -1.8313 -4.0328
  289MOL0     H38978   7.296   0.464   1.919  0.9078  0.7430  0.4328
  289MOL0     H38979   7.483   0.307   2.151  0.2331  0.7014 -1.8651
  289MOL0     H38980   7.593   0.085   2.211 -1.7671  1.9023  0.2352
  289MOL0     H38981   7.931   0.099   2.260  0.2118  1.0066 -1.9943
  289MOL0     H38982   7.946  -0.072   2.257  0.3953 -1.1143 -1.5217
  289MOL0     H38983   8.071  -0.028   2.025  1.2774 -1.0429  1.6746
  289MOL0     H38984   8.083   0.140   2.078 -0.9979  0.4005  0.5667
  289MOL0     H38985   8.188  -0.107   2.240  0.0971 -0.2131 -1.7557
  289MOL0     H38986   8.217   0.053   2.289  2.7154 -0.8757  0.7053
  289MOL0     H38987   8.306  -0.044   2.027 -1.5684  1.5140  0.0748
  289MOL0     H38988   8.373   0.104   2.106 -0.5676  0.1630 -1.1157
  289MOL0     H38989   8.430  -0.183   2.180  0.9020 -0.0131 -0.1234
  289MOL0     H38990   8.451  -0.053   2.296 -0.7677  1.2073 -0.8786
  289MOL0     H38991   8.583  -0.001   2.023  0.3690 -2.0328 -0.9390
  289MOL0     H38992   8.616   0.044   2.181  1.5562  1.8918 -2.7302
  289MOL0     H38993   8.647  -0.234   2.084 -1.4348  0.7210 -1.2491
  289MOL0     H38994   8.693  -0.185   2.248 -1.1165 -2.4137 -1.0978
  289MOL0     H38995   8.852  -0.025   2.145  2.4329  0.5706 -2.7303
  289MOL0     H38996   8.809  -0.080   1.982  1.8495  1.4815  0.0393
  289MOL0     H38997   7.896   0.143   1.904 -0.8843 -4.5336 -0.4991
  289MOL0     H38998   7.777   0.338   1.832  0.6420  0.4033  0.0803
  289MOL0     H38999   7.675   0.826   1.876  0.0591 -0.3162 -1.2383
  289MOL0     H39000   7.520   1.011   1.806 -2.0073  1.0985 -1.4235
  289MOL0     H39001   7.009   2.364   2.421 -0.6530  0.1382 -0.4573
  289MOL0     H39002   7.050   2.596   2.406  2.3382  4.5402 -2.0430
  289MOL0     H39003   7.396   2.990   2.165 -1.2105 -0.9107  0.9502
  289MOL0     H39004   7.366   3.239   2.190  0.2019  0.4739 -0.3652
  289MOL0     H39005   7.465   3.433   2.340 -0.5301  1.1756 -2.7885
  289MOL0     H39006   7.318   3.454   2.241  0.5750 -0.9645 -1.2131
  289MOL0     H39007   7.373   3.681   2.332  0.5725 -0.7582 -0.7336
  289MOL0     H39008   7.365   3.619   2.491  0.2742  3.0898  0.2778
  289MOL0     H39009   7.144   3.540   2.490  1.9392 -1.5851 -1.2550
  289MOL0     H39010   7.135   3.586   2.316  0.6797 -2.6418  0.0075
  289MOL0     H39011   7.138   3.749   2.580 -0.2569  1.2087  0.4899
  289MOL0     H39012   7.014   3.751   2.462 -0.3959  2.6282  2.0230
  289MOL0     H39013   7.296   4.054   2.328  2.6839 -1.1417 -0.4238
  289MOL0     H39014   7.311   3.178   2.604  0.6487  0.7246 -0.7013
  289MOL0     H39015   7.369   2.924   2.576 -1.5178  0.0254  0.3778
  290MOL0     O39016   6.933   9.346  10.666 -0.4324 -0.2616  0.3456
  290MOL0     C39017   6.992   9.346  10.556 -0.2357 -0.3371  0.3086
  290MOL0     O39018   7.008   9.460  10.478  0.1499  0.6001 -0.1172
  290MOL0     C39019   6.961   9.576  10.535 -0.3989  0.3589 -0.4491
  290MOL0     C39020   7.029   9.623  10.651 -0.1995  0.2525 -0.0290
  290MOL0     C39021   7.012   9.754  10.687  0.3239 -0.4992  0.0002
  290MOL0     C39022   6.933   9.843  10.611  0.5670  0.8962 -0.4953
  290MOL0     O39023   6.930   9.983  10.618  0.3139 -0.4438  0.0150
  290MOL0     C39024   7.008  10.052  10.724 -0.3719  0.2918  0.0690
  290MOL0     C39025   7.011  10.195  10.708  0.0528 -0.2307  0.0653
  290MOL0     C39026   6.884  10.272  10.726  0.5517 -0.0244  0.5894
  290MOL0     C39027   6.900  10.422  10.731 -0.4486  0.1582 -0.8817
  290MOL0     C39028   6.762  10.490  10.755 -0.7262 -0.3473 -0.1767
  290MOL0     C39029   6.731  10.484  10.906 -0.0562  1.6933 -0.6384
  290MOL0     C39030   6.603  10.557  10.958  0.0790  1.1312 -0.1046
  290MOL0     C39031   6.615  10.552  11.104  0.6199 -0.1154 -0.0970
  290MOL0     N39032   6.483  10.605  11.166 -0.8273 -0.4218  0.3975
  290MOL0     C39033   6.403  10.706  11.123 -1.1022 -0.0490 -0.1543
  290MOL0     C39034   6.322  10.733  11.231 -0.0481 -0.2472 -0.3728
  290MOL0     C39035   6.217  10.846  11.224  0.8973  0.3537  0.3593
  290MOL0     C39036   6.102  10.791  11.133  0.7297 -0.7960  0.2181
  290MOL0     C39037   5.983  10.881  11.102  0.5724  0.0242 -0.8078
  290MOL0     C39038   6.029  10.995  11.010  0.5824 -0.0443 -0.0572
  290MOL0     O39039   5.927  11.090  10.962 -1.2313  0.0587  0.0409
  290MOL0     C39040   5.831  11.042  10.878  0.0827  0.7054 -0.0257
  290MOL0     C39041   5.713  11.122  10.859  0.1106 -0.2026  0.0079
  290MOL0     C39042   5.604  11.079  10.777 -0.3556  0.6260 -0.1125
  290MOL0     C39043   5.483  11.157  10.773  0.6380 -0.5687 -0.3296
  290MOL0     C39044   5.597  10.949  10.716  0.3030  0.6083  0.4136
  290MOL0     C39045   5.477  10.890  10.657 -1.0886  0.8069  0.7980
  290MOL0     O39046   5.427  10.942  10.535  0.4055  0.0641  0.6052
  290MOL0     C39047   5.325  10.881  10.473 -0.7725 -0.3119 -0.0743
  290MOL0     C39048   5.252  10.969  10.391  0.1807  0.7231 -1.1985
  290MOL0     C39049   5.141  10.920  10.321  0.5934 -0.5280  0.3189
  290MOL0     C39050   5.107  10.786  10.328 -0.3764  0.1283 -1.4012
  290MOL0     O39051   5.016  10.735  10.243 -0.1783 -0.7432  0.7466
  290MOL0     C39052   5.072  10.689  10.111 -0.0445  0.8209 -0.0279
  290MOL0     C39053   4.964  10.689  10.014  0.3531  0.6758 -0.8401
  290MOL0     C39054   5.003  10.602   9.900 -0.4674  0.4278 -0.0426
  290MOL0     C39055   5.136  10.639   9.833 -0.8250  0.6399 -0.2053
  290MOL0     C39056   5.140  10.574   9.697 -0.5451 -0.5797 -0.2279
  290MOL0     C39057   5.172  10.428   9.702  0.0325 -1.0513 -0.4265
  290MOL0     C39058   5.175  10.349   9.565  0.1393  0.3739 -0.0349
  290MOL0     C39059   5.261  10.231   9.552 -0.0893  0.0969 -0.2197
  290MOL0    Cl39060   5.182  10.078   9.595  0.3307 -0.2275  0.4426
  290MOL0     C39061   5.169  10.708  10.428  0.2683 -0.4187  0.4029
  290MOL0     C39062   5.281  10.752  10.490 -0.0596 -0.2962  0.1684
  290MOL0     O39063   5.424  10.816  10.732 -0.4868  1.2780 -0.1206
  290MOL0     C39064   5.713  10.870  10.744 -0.3182  0.3271  0.1495
  290MOL0     C39065   5.834  10.917  10.807 -0.8451  0.2123  0.4563
  290MOL0     N39066   6.348  10.630  11.325  0.1374 -0.1445 -0.5935
  290MOL0     N39067   6.449  10.557  11.288 -0.7143  0.0318  0.1997
  290MOL0     C39068   6.849   9.792  10.507  0.4208  0.2371 -0.7229
  290MOL0     C39069   6.867   9.661  10.471  1.4790  0.9274  0.4087
  290MOL0     C39070   7.054   9.222  10.516 -0.2469 -0.4853  0.0377
  290MOL0     C39071   7.018   9.101  10.589 -0.4996  1.5234 -0.3712
  290MOL0     C39072   7.067   8.971  10.552  0.5163  0.3822 -0.0933
  290MOL0     C39073   7.173   8.962  10.452 -0.7448  0.1853 -0.3278
  290MOL0     O39074   7.233   8.842  10.415  0.2204  0.9490 -0.8875
  290MOL0     C39075   7.306   8.780  10.517  1.4040  0.0162  0.3817
  290MOL0     C39076   7.400   8.673  10.454 -0.9192 -0.3916  1.3279
  290MOL0     C39077   7.509   8.621  10.556  0.4967  0.8745 -0.3196
  290MOL0     C39078   7.589   8.505  10.498  0.7739 -0.6821 -0.1006
  290MOL0     C39079   7.681   8.538  10.388  0.1110 -0.9024 -0.3785
  290MOL0     C39080   7.741   8.564  10.285  0.3570 -0.2056  0.0965
  290MOL0     C39081   7.220   9.076  10.391  0.3381  0.3712  0.5099
  290MOL0     C39082   7.151   9.204  10.415  0.6914 -0.0790 -1.1917
  290MOL0     H39083   7.105   9.555  10.687 -0.3128 -0.8525 -1.7543
  290MOL0     H39084   7.060   9.803  10.771 -0.8858  3.8663 -1.5518
  290MOL0     H39085   6.970  10.025  10.823  0.3721 -1.6284 -0.1160
  290MOL0     H39086   7.105  10.002  10.719 -0.7701 -0.3741 -2.2346
  290MOL0     H39087   7.099  10.214  10.771 -0.7554 -0.8058  1.4230
  290MOL0     H39088   7.042  10.213  10.605  2.8335  0.9522  0.9872
  290MOL0     H39089   6.816  10.251  10.643  0.1854  0.3668  0.7880
  290MOL0     H39090   6.836  10.235  10.818 -1.0780 -1.5034 -0.7779
  290MOL0     H39091   6.968  10.458  10.808 -0.8676 -0.1055 -0.3768
  290MOL0     H39092   6.949  10.458  10.641  0.8835  0.1533 -0.1831
  290MOL0     H39093   6.769  10.595  10.724 -2.2835  0.1947  1.2085
  290MOL0     H39094   6.685  10.444  10.692 -2.1467  2.1058 -0.3779
  290MOL0     H39095   6.703  10.383  10.936  0.4489  1.5372 -0.6876
  290MOL0     H39096   6.824  10.509  10.958 -1.1672  2.3626  1.1361
  290MOL0     H39097   6.602  10.661  10.925  0.1940  0.7074 -1.5115
  290MOL0     H39098   6.516  10.496  10.930  0.4866 -0.1033  1.1668
  290MOL0     H39099   6.696  10.616  11.139  1.3276 -1.3831  0.6854
  290MOL0     H39100   6.646  10.458  11.153  4.6845  0.7190 -0.6791
  290MOL0     H39101   6.413  10.746  11.023  0.5665 -2.9754 -1.3040
  290MOL0     H39102   6.182  10.877  11.323  0.7571 -0.1657  0.4753
  290MOL0     H39103   6.259  10.935  11.175  1.2886  0.6523  1.2080
  290MOL0     H39104   6.052  10.708  11.184 -2.2866  1.1883  0.7599
  290MOL0     H39105   6.154  10.750  11.046  1.5831 -1.0919  0.8589
  290MOL0     H39106   5.941  10.933  11.189  1.1657  1.1550 -1.1773
  290MOL0     H39107   5.897  10.831  11.057 -1.3025  1.8382  0.5912
  290MOL0     H39108   6.087  10.964  10.923  1.8934  0.2403  0.6855
  290MOL0     H39109   6.097  11.056  11.071 -0.6258 -0.9402  2.2859
  290MOL0     H39110   5.697  11.210  10.922 -0.2450 -0.9325  0.9705
  290MOL0     H39111   5.492  11.244  10.839 -1.9803 -2.4608  2.8054
  290MOL0     H39112   5.463  11.188  10.670 -2.1430  2.6781  0.9823
  290MOL0     H39113   5.398  11.098  10.807 -0.3840 -0.7729 -2.9853
  290MOL0     H39114   5.278  11.073  10.379  0.6081  1.4038  3.8270
  290MOL0     H39115   5.085  10.996  10.266  0.4788 -0.4339  0.5668
  290MOL0     H39116   5.149  10.762  10.085  1.3499 -2.2373 -6.2611
  290MOL0     H39117   5.123  10.592  10.121  2.5095  1.9172 -1.5915
  290MOL0     H39118   4.865  10.656  10.049 -1.2909  0.9889 -4.7470
  290MOL0     H39119   4.964  10.793   9.982  0.9309  1.2480  0.9094
  290MOL0     H39120   4.920  10.598   9.830 -1.6934  2.2355  1.2009
  290MOL0     H39121   5.016  10.505   9.949  2.3169  1.5572  1.7058
  290MOL0     H39122   5.142  10.744   9.802 -1.1784  0.8257  0.3398
  290MOL0     H39123   5.227  10.615   9.889  1.8783  2.2737 -3.5163
  290MOL0     H39124   5.223  10.622   9.644 -0.2035 -2.9174 -1.9496
  290MOL0     H39125   5.052  10.590   9.635 -0.4621  1.4612  0.1047
  290MOL0     H39126   5.258  10.407   9.767 -0.6277  0.6724  1.1281
  290MOL0     H39127   5.097  10.374   9.759 -1.4485 -0.1238 -1.4377
  290MOL0     H39128   5.185  10.425   9.487 -1.2361  1.4669  0.8060
  290MOL0     H39129   5.074  10.314   9.539  0.5122 -0.0519 -0.9330
  290MOL0     H39130   5.344  10.239   9.623 -0.9670 -0.7127  0.9496
  290MOL0     H39131   5.301  10.230   9.450 -1.5270 -1.2838 -0.8069
  290MOL0     H39132   5.136  10.607  10.449 -0.2128  0.3730  4.2070
  290MOL0     H39133   5.321  10.688  10.569  1.1666  3.0818  2.5369
  290MOL0     H39134   5.709  10.769  10.706  0.3926  0.2996  0.1420
  290MOL0     H39135   5.925  10.858  10.811  0.3185  1.9579  1.1203
  290MOL0     H39136   6.785   9.863  10.455  3.2586  3.1899 -0.5169
  290MOL0     H39137   6.810   9.628  10.384  1.7282 -1.8245  1.1906
  290MOL0     H39138   6.942   9.092  10.666  2.0843 -1.0896  2.1153
  290MOL0     H39139   7.030   8.884  10.604  2.0623  0.3469  1.0223
  290MOL0     H39140   7.365   8.863  10.558  0.2071  1.0050  0.1650
  290MOL0     H39141   7.233   8.733  10.584 -1.5214  3.3981 -0.0825
  290MOL0     H39142   7.443   8.726  10.369  1.5276 -2.4860  1.1181
  290MOL0     H39143   7.346   8.581  10.427  0.6775 -0.6749 -1.2674
  290MOL0     H39144   7.456   8.595  10.648  1.5384 -4.6248 -0.8855
  290MOL0     H39145   7.574   8.703  10.590  2.5191 -0.9851  0.6057
  290MOL0     H39146   7.524   8.421  10.472  0.7996  0.0531 -2.7944
  290MOL0     H39147   7.652   8.466  10.579 -1.3113  3.4155  3.9357
  290MOL0     H39148   7.784   8.577  10.188 -0.3784 -1.2113 -0.3863
  290MOL0     H39149   7.301   9.067  10.319 -0.8622  3.6907 -1.5305
  290MOL0     H39150   7.174   9.295  10.360 -2.4277  0.4380 -1.8146
  291MOL0     O39151   8.048   0.266   6.345  0.2964 -0.0501 -0.3472
  291MOL0     C39152   8.165   0.261   6.361 -0.8577  0.3722 -1.3593
  291MOL0     O39153   8.222   0.214   6.476 -0.0711  0.0348  0.7163
  291MOL0     C39154   8.145   0.170   6.578  0.1105 -0.0552 -0.2941
  291MOL0     C39155   8.035   0.091   6.574  0.4222 -0.2678  0.5216
  291MOL0     C39156   7.950   0.065   6.683  0.8976 -1.0896 -0.1501
  291MOL0     C39157   7.979   0.107   6.813 -0.0678  0.0069 -0.4739
  291MOL0     O39158   7.883   0.084   6.906 -0.5035  0.1225  0.5673
  291MOL0     C39159   7.930   0.132   7.033  0.6972  0.4412 -0.1540
  291MOL0     C39160   7.812   0.110   7.129 -0.3583  0.3204 -0.4626
  291MOL0     C39161   7.686   0.195   7.113  0.5621  0.0073  0.8360
  291MOL0     C39162   7.707   0.336   7.161  1.0707 -1.2506 -0.3394
  291MOL0     C39163   7.577   0.413   7.196  0.0855  0.3238 -0.9187
  291MOL0     C39164   7.476   0.363   7.297  0.1448 -1.0487 -0.0873
  291MOL0     C39165   7.387   0.472   7.365  0.3788  0.3241  0.5584
  291MOL0     C39166   7.268   0.523   7.292  0.4311  0.7902  0.4961
  291MOL0     N39167   7.140   0.434   7.304 -0.1067 -1.1498 -0.2193
  291MOL0     C39168   7.031   0.466   7.227  1.2541  0.1487  0.0423
  291MOL0     C39169   6.935   0.383   7.275 -0.4732  0.6449  0.3343
  291MOL0     C39170   6.787   0.395   7.244 -0.1274  0.3038 -0.2878
  291MOL0     C39171   6.720   0.532   7.284  0.3861  1.1816  0.3824
  291MOL0     C39172   6.750   0.644   7.195  0.1841  0.6427 -0.0608
  291MOL0     C39173   6.655   0.763   7.223 -0.6619 -0.4493 -0.5978
  291MOL0     O39174   6.675   0.839   7.352 -0.6609  0.1342  0.0506
  291MOL0     C39175   6.595   0.945   7.389 -0.7854 -0.2790  0.4734
  291MOL0     C39176   6.627   1.017   7.503  0.2934 -1.3503 -0.1365
  291MOL0     C39177   6.546   1.118   7.550  0.0799 -0.8480  0.3921
  291MOL0     C39178   6.577   1.159   7.694 -0.8741  0.0517 -0.8163
  291MOL0     C39179   6.433   1.171   7.472  0.8754 -0.2571 -0.3746
  291MOL0     C39180   6.343   1.287   7.521 -0.9327  0.6161 -0.1536
  291MOL0     O39181   6.402   1.396   7.582 -0.3118 -0.3509 -0.5414
  291MOL0     C39182   6.333   1.512   7.617 -0.0613 -0.5393 -0.3442
  291MOL0     C39183   6.228   1.521   7.721  0.0526 -0.2049 -0.9464
  291MOL0     C39184   6.162   1.641   7.737  0.8864 -0.7983  0.6670
  291MOL0     C39185   6.189   1.755   7.664 -0.2570  0.4357 -0.6516
  291MOL0     O39186   6.137   1.874   7.696  0.3614  0.2850  0.1949
  291MOL0     C39187   5.994   1.878   7.711 -0.0763 -0.3778 -0.7536
  291MOL0     C39188   5.925   2.013   7.714  0.6783 -0.8742 -1.1510
  291MOL0     C39189   5.962   2.112   7.599 -0.4868 -0.0416 -0.1504
  291MOL0     C39190   6.011   2.250   7.654 -0.2133  0.7073 -0.4687
  291MOL0     C39191   6.067   2.350   7.542 -0.4091 -0.6165  0.0931
  291MOL0     C39192   6.207   2.309   7.496 -0.5969  0.0547 -0.0676
  291MOL0     C39193   6.272   2.401   7.382  0.5911  0.2617  0.6347
  291MOL0     C39194   6.198   2.406   7.242  0.0994  0.2400  0.1732
  291MOL0    Cl39195   6.261   2.536   7.147 -0.3954 -0.0251  0.5513
  291MOL0     C39196   6.294   1.752   7.577 -0.2471  0.6319 -0.0258
  291MOL0     C39197   6.371   1.633   7.554 -0.7899  0.6770  0.3271
  291MOL0     O39198   6.231   1.284   7.483 -0.7247  0.6492  0.6992
  291MOL0     C39199   6.401   1.104   7.354 -0.0844 -0.4673 -0.7169
  291MOL0     C39200   6.472   0.979   7.320  0.3605 -0.6384 -0.8262
  291MOL0     N39201   6.990   0.315   7.386  1.0407  0.9931 -0.3236
  291MOL0     N39202   7.113   0.340   7.403 -0.6795 -0.2156  0.2829
  291MOL0     C39203   8.102   0.178   6.823 -0.2145 -0.0304  0.3836
  291MOL0     C39204   8.185   0.211   6.706  0.1505 -1.1004 -0.5409
  291MOL0     C39205   8.265   0.298   6.261 -0.1850  0.1633 -0.0971
  291MOL0     C39206   8.400   0.319   6.288  0.1068 -0.2148 -0.5183
  291MOL0     C39207   8.489   0.362   6.185 -0.5773 -0.1050 -0.4601
  291MOL0     C39208   8.439   0.377   6.054 -0.3180 -0.4050 -0.9215
  291MOL0     O39209   8.515   0.396   5.942  0.2548  0.0078  0.2556
  291MOL0     C39210   8.657   0.402   5.937  1.6689 -0.5715  0.1329
  291MOL0     C39211   8.724   0.263   5.940 -0.9971  0.8511  0.5172
  291MOL0     C39212   8.874   0.282   5.916 -0.2273  0.7481 -0.7892
  291MOL0     C39213   8.953   0.157   5.882  0.7314 -0.6877 -0.5963
  291MOL0     C39214   8.971   0.080   6.003 -0.5372 -0.6833 -0.2504
  291MOL0     C39215   9.006   0.041   6.111 -0.3842 -1.0565 -0.8608
  291MOL0     C39216   8.306   0.355   6.032  0.0017  0.5691  0.1209
  291MOL0     C39217   8.217   0.333   6.136  0.3347 -0.6954 -0.5436
  291MOL0     H39218   8.005   0.058   6.475 -1.0861  0.4147  0.7062
  291MOL0     H39219   7.859   0.008   6.666 -0.6921  0.7996  1.5300
  291MOL0     H39220   8.017   0.071   7.060 -0.2871 -1.7544 -1.6356
  291MOL0     H39221   7.959   0.237   7.025  1.8107  0.0795 -1.0239
  291MOL0     H39222   7.789   0.004   7.120 -1.6806  0.6456 -1.2418
  291MOL0     H39223   7.849   0.121   7.231 -2.1884  1.4023  0.1312
  291MOL0     H39224   7.657   0.195   7.007 -0.1187  1.6259  0.9899
  291MOL0     H39225   7.606   0.141   7.164 -0.7244  1.0247 -0.0206
  291MOL0     H39226   7.756   0.321   7.257  2.9209 -0.9100 -1.1847
  291MOL0     H39227   7.764   0.396   7.089 -1.0596  0.2481 -0.9004
  291MOL0     H39228   7.615   0.511   7.226  3.1668 -1.3349  1.2255
  291MOL0     H39229   7.526   0.426   7.100  0.4764  0.9838 -1.0396
  291MOL0     H39230   7.424   0.275   7.261 -1.4999 -0.5645  0.9958
  291MOL0     H39231   7.529   0.323   7.385  4.7428  2.4376 -0.8590
  291MOL0     H39232   7.347   0.426   7.456 -3.4365  2.4439  0.1635
  291MOL0     H39233   7.444   0.562   7.389  0.4789  1.0318 -2.0142
  291MOL0     H39234   7.285   0.528   7.184  1.7113 -0.1076  0.6253
  291MOL0     H39235   7.231   0.619   7.328  2.0077 -0.0999  5.1716
  291MOL0     H39236   7.014   0.533   7.144 -0.8023 -0.2172  0.1205
  291MOL0     H39237   6.773   0.378   7.137  0.0554 -0.1441 -0.2435
  291MOL0     H39238   6.734   0.315   7.296  1.2875 -1.6253 -1.6215
  291MOL0     H39239   6.742   0.553   7.388  1.2129  1.6022  0.1264
  291MOL0     H39240   6.613   0.509   7.275  0.2808  2.4592 -3.0986
  291MOL0     H39241   6.736   0.615   7.090  1.0123  3.5674 -1.1037
  291MOL0     H39242   6.855   0.674   7.189  0.6330 -0.8868 -5.3733
  291MOL0     H39243   6.551   0.732   7.235 -1.3537  2.1485  1.1273
  291MOL0     H39244   6.650   0.831   7.137 -1.1534 -0.1531 -0.3399
  291MOL0     H39245   6.717   0.991   7.557 -0.2522 -0.1123  1.4447
  291MOL0     H39246   6.643   1.247   7.692 -1.8238  0.8133 -0.0212
  291MOL0     H39247   6.483   1.173   7.750 -1.6379 -1.7768 -1.5807
  291MOL0     H39248   6.635   1.082   7.744  1.5898  1.9319 -0.5973
  291MOL0     H39249   6.202   1.437   7.784 -1.2419  1.9599  1.6201
  291MOL0     H39250   6.080   1.657   7.805 -2.6415 -1.1799 -3.1112
  291MOL0     H39251   5.951   1.831   7.622 -0.0777  1.6459 -1.8564
  291MOL0     H39252   5.971   1.811   7.795  1.5026 -1.1531 -0.9133
  291MOL0     H39253   5.819   1.990   7.705  0.0204  0.5995  1.6862
  291MOL0     H39254   5.948   2.055   7.812 -0.0428 -0.2326 -1.2516
  291MOL0     H39255   5.867   2.142   7.552 -1.7548  1.4509  3.0931
  291MOL0     H39256   6.022   2.074   7.516 -0.7479 -1.0722  0.1178
  291MOL0     H39257   5.931   2.296   7.713  0.6222 -0.0041  1.2878
  291MOL0     H39258   6.089   2.238   7.729 -0.3283  2.0871 -0.0897
  291MOL0     H39259   6.081   2.450   7.582  2.4087 -0.7825 -0.2543
  291MOL0     H39260   5.992   2.351   7.462  1.2185 -1.0808 -1.5266
  291MOL0     H39261   6.274   2.314   7.583 -0.2553  0.7338 -0.3577
  291MOL0     H39262   6.207   2.203   7.472  4.6717  0.2243 -2.0926
  291MOL0     H39263   6.366   2.346   7.364 -1.2435 -2.5857 -1.1748
  291MOL0     H39264   6.294   2.503   7.415 -2.8439  1.7410 -1.1441
  291MOL0     H39265   6.091   2.424   7.251 -0.3960 -2.4463  0.3021
  291MOL0     H39266   6.217   2.307   7.200 -1.2893 -1.4186  3.1884
  291MOL0     H39267   6.319   1.841   7.521  2.9393 -2.1163 -3.5187
  291MOL0     H39268   6.454   1.636   7.483 -1.7545  0.4866 -0.8413
  291MOL0     H39269   6.310   1.126   7.298 -0.9569 -2.5997 -0.2489
  291MOL0     H39270   6.429   0.912   7.246  0.4267 -0.1896 -1.2762
  291MOL0     H39271   8.135   0.213   6.920 -1.5540 -1.1999  1.3120
  291MOL0     H39272   8.260   0.286   6.724 -2.4091  1.0855  1.9689
  291MOL0     H39273   8.429   0.309   6.392 -0.2547 -1.9264 -0.5567
  291MOL0     H39274   8.597   0.374   6.189 -0.5954 -0.2500  2.2951
  291MOL0     H39275   8.697   0.461   5.854  3.8723  1.3026  2.3714
  291MOL0     H39276   8.692   0.462   6.021  0.2700 -2.8481  2.5204
  291MOL0     H39277   8.691   0.194   5.862 -0.5661  2.1154 -0.8332
  291MOL0     H39278   8.704   0.218   6.037  0.2189  0.6716  0.7067
  291MOL0     H39279   8.920   0.336   5.999 -0.8171 -0.2817  0.2295
  291MOL0     H39280   8.886   0.346   5.827  1.6391  0.3345 -0.8837
  291MOL0     H39281   9.047   0.197   5.845  0.3379  1.4545  0.5267
  291MOL0     H39282   8.898   0.115   5.797  0.9006 -0.9909 -0.5538
  291MOL0     H39283   9.052  -0.014   6.191 -2.4442  0.1818  1.2892
  291MOL0     H39284   8.275   0.354   5.928 -0.8392 -1.3884  0.3512
  291MOL0     H39285   8.111   0.324   6.114 -0.2760 -1.6660  2.3324
  292MOL0     O39286   7.643   1.148   3.890  0.1125  0.1840 -0.5673
  292MOL0     C39287   7.754   1.198   3.868 -0.2330  0.0911 -0.4766
  292MOL0     O39288   7.778   1.299   3.769  0.4095 -0.1796  0.7139
  292MOL0     C39289   7.664   1.358   3.718  0.2188  0.7872  0.0295
  292MOL0     C39290   7.651   1.374   3.582 -0.4353  0.0876  0.6743
  292MOL0     C39291   7.555   1.447   3.514  0.4073 -0.5913 -0.6985
  292MOL0     C39292   7.454   1.516   3.591  0.4241 -0.1130  0.4223
  292MOL0     O39293   7.360   1.604   3.541 -0.4108 -0.4592 -0.3189
  292MOL0     C39294   7.338   1.641   3.400  0.2678  1.2335  0.4636
  292MOL0     C39295   7.257   1.523   3.337 -0.1184 -0.6368  0.1325
  292MOL0     C39296   7.120   1.507   3.406 -1.1892  0.8002  0.0142
  292MOL0     C39297   7.054   1.363   3.386  0.1120 -0.7825  0.3184
  292MOL0     C39298   6.929   1.353   3.476 -0.0891 -0.3772  0.8598
  292MOL0     C39299   6.800   1.400   3.407 -0.3466  0.3856 -0.0474
  292MOL0     C39300   6.700   1.435   3.516  1.1176 -0.0407 -0.0824
  292MOL0     C39301   6.572   1.493   3.441  0.8483  0.9535  0.1279
  292MOL0     N39302   6.475   1.536   3.541  0.6495  0.8784 -0.3868
  292MOL0     C39303   6.477   1.650   3.618  0.0260 -0.0869 -0.2998
  292MOL0     C39304   6.371   1.640   3.699 -0.0622  0.0968  0.0707
  292MOL0     C39305   6.314   1.727   3.803 -0.4060 -0.6449  1.0531
  292MOL0     C39306   6.250   1.843   3.736 -0.6152  0.9504 -0.5007
  292MOL0     C39307   6.123   1.810   3.652 -0.2031 -0.1762 -0.3440
  292MOL0     C39308   6.005   1.735   3.726 -0.5144 -0.8092  1.2632
  292MOL0     O39309   5.902   1.712   3.629 -0.8920 -0.1961  0.5120
  292MOL0     C39310   5.882   1.607   3.547 -0.2206  0.1548 -0.0161
  292MOL0     C39311   5.793   1.621   3.445 -0.6520  0.0227 -0.8462
  292MOL0     C39312   5.759   1.510   3.365 -0.0184 -0.3661 -0.3257
  292MOL0     C39313   5.666   1.546   3.243  0.2041  0.1837  1.0294
  292MOL0     C39314   5.808   1.378   3.400  0.3705 -0.4201 -0.2261
  292MOL0     C39315   5.785   1.253   3.324 -0.3082  0.2870  0.2666
  292MOL0     O39316   5.869   1.142   3.341 -0.1251 -0.1152 -0.2128
  292MOL0     C39317   5.837   1.019   3.290  0.7494  1.2985 -0.9347
  292MOL0     C39318   5.736   0.939   3.351 -1.1059  0.1549  0.3091
  292MOL0     C39319   5.707   0.814   3.293 -0.5299 -0.3402  0.1771
  292MOL0     C39320   5.776   0.767   3.182 -0.1217 -0.8598 -0.4683
  292MOL0     O39321   5.732   0.651   3.120  0.4800  0.6249 -0.1665
  292MOL0     C39322   5.820   0.571   3.047 -0.2887  0.5208 -0.0155
  292MOL0     C39323   5.819   0.587   2.888 -0.2835  0.1669  0.2007
  292MOL0     C39324   5.724   0.484   2.813  0.1269 -0.2902 -0.0311
  292MOL0     C39325   5.584   0.521   2.847 -0.0718 -0.1519 -0.9701
  292MOL0     C39326   5.497   0.521   2.719  0.7620  0.7161  0.2245
  292MOL0     C39327   5.512   0.400   2.630  0.2037  0.0035  0.4416
  292MOL0     C39328   5.479   0.278   2.708 -0.2831 -0.0273 -0.2178
  292MOL0     C39329   5.509   0.143   2.642 -0.0304 -0.6491 -0.1367
  292MOL0    Cl39330   5.391   0.134   2.518 -0.7656 -0.0822  0.0931
  292MOL0     C39331   5.872   0.851   3.117  0.1491  0.3885 -1.1535
  292MOL0     C39332   5.906   0.971   3.176  0.3284  0.8383  0.4267
  292MOL0     O39333   5.698   1.254   3.243 -0.0584  0.0086  0.9393
  292MOL0     C39334   5.895   1.374   3.511 -0.1182  0.2666 -0.2172
  292MOL0     C39335   5.919   1.481   3.586 -1.1203 -0.5798 -0.1244
  292MOL0     N39336   6.310   1.512   3.674  0.5675  0.4107  0.4459
  292MOL0     N39337   6.371   1.455   3.578  0.0255  0.1433  0.0688
  292MOL0     C39338   7.460   1.499   3.733  0.1236 -1.0799  0.3281
  292MOL0     C39339   7.566   1.426   3.793 -0.9955  0.2346 -0.1583
  292MOL0     C39340   7.871   1.140   3.943 -0.2840  0.6591  0.8151
  292MOL0     C39341   7.992   1.146   3.878 -0.1641  0.0517  1.1789
  292MOL0     C39342   8.090   1.083   3.936 -1.1849  0.4697 -0.5385
  292MOL0     C39343   8.093   1.035   4.075 -0.1737  0.0870  0.7450
  292MOL0     O39344   8.197   0.984   4.142  0.8508 -0.4394 -0.1688
  292MOL0     C39345   8.321   0.949   4.077 -0.0171 -0.0634  0.4444
  292MOL0     C39346   8.308   0.804   4.027  0.2446  0.3269  0.3268
  292MOL0     C39347   8.436   0.716   4.050  0.4757 -0.1785 -0.5086
  292MOL0     C39348   8.471   0.696   4.202 -0.6762  0.1685 -0.4679
  292MOL0     C39349   8.346   0.678   4.283 -0.7558  0.2236 -0.5045
  292MOL0     C39350   8.250   0.647   4.338 -0.1914 -0.2863 -0.0821
  292MOL0     C39351   7.973   1.048   4.146  0.2488  0.7402 -0.0183
  292MOL0     C39352   7.860   1.075   4.073  0.2656  0.5055  0.1120
  292MOL0     H39353   7.726   1.325   3.521 -2.5588 -2.1587 -0.3548
  292MOL0     H39354   7.570   1.466   3.408  1.1864 -0.7833 -0.6253
  292MOL0     H39355   7.263   1.721   3.397  0.0838  1.2048  2.7889
  292MOL0     H39356   7.433   1.653   3.347 -0.2319 -2.9238 -1.8265
  292MOL0     H39357   7.235   1.548   3.233  1.9902  2.7629  0.3676
  292MOL0     H39358   7.319   1.433   3.344  0.7117  0.0259  3.8367
  292MOL0     H39359   7.141   1.525   3.512  1.0302 -2.6645  0.2879
  292MOL0     H39360   7.046   1.582   3.374 -0.4032  2.0463  0.9776
  292MOL0     H39361   7.034   1.353   3.279 -1.2141  0.6134  0.3987
  292MOL0     H39362   7.137   1.299   3.416  0.2450 -0.4253  0.7372
  292MOL0     H39363   6.919   1.254   3.520 -0.2688 -1.0670 -0.6736
  292MOL0     H39364   6.943   1.422   3.559 -1.5676 -1.4253  2.0329
  292MOL0     H39365   6.822   1.477   3.331  4.8569 -3.0194 -2.5768
  292MOL0     H39366   6.766   1.318   3.344  3.0896  0.4231 -2.2496
  292MOL0     H39367   6.673   1.342   3.567  0.9690 -0.6352 -1.1906
  292MOL0     H39368   6.737   1.511   3.585  0.9279  1.0674 -1.1573
  292MOL0     H39369   6.526   1.414   3.381  0.7740  0.9827  0.1472
  292MOL0     H39370   6.586   1.581   3.378 -1.2070 -1.5876 -4.3408
  292MOL0     H39371   6.539   1.738   3.620 -0.4787  0.2654  0.2556
  292MOL0     H39372   6.245   1.679   3.873 -1.4372  1.4593  1.5548
  292MOL0     H39373   6.386   1.769   3.874 -1.5378  2.0952  0.7133
  292MOL0     H39374   6.329   1.879   3.669 -1.9396 -0.5423 -2.9803
  292MOL0     H39375   6.226   1.921   3.809  0.8185 -0.3701  1.4884
  292MOL0     H39376   6.150   1.745   3.568  5.5504  2.0552 -0.6784
  292MOL0     H39377   6.086   1.904   3.611  0.8142  0.1782 -0.4723
  292MOL0     H39378   5.965   1.803   3.802  2.2815 -0.6719  2.7463
  292MOL0     H39379   6.043   1.641   3.768 -0.5391 -2.0469 -1.2947
  292MOL0     H39380   5.747   1.718   3.428 -1.2209 -0.0097  0.4245
  292MOL0     H39381   5.658   1.655   3.235 -1.6317 -0.0985 -2.5632
  292MOL0     H39382   5.718   1.520   3.151 -5.0471 -0.1119 -2.2491
  292MOL0     H39383   5.576   1.485   3.236  1.2206 -1.1511 -2.5174
  292MOL0     H39384   5.693   0.972   3.445 -0.6269  0.9197  0.2716
  292MOL0     H39385   5.625   0.752   3.329 -0.8465 -0.3141 -0.4841
  292MOL0     H39386   5.924   0.573   3.083 -0.3518 -1.2111  0.3578
  292MOL0     H39387   5.776   0.474   3.072 -0.2651  0.4351 -0.3073
  292MOL0     H39388   5.801   0.693   2.866 -3.5797 -0.6201 -1.5384
  292MOL0     H39389   5.912   0.564   2.836 -1.6506 -0.9756 -1.8942
  292MOL0     H39390   5.749   0.381   2.840  2.5353 -0.1747 -1.5503
  292MOL0     H39391   5.742   0.504   2.707  2.3100  4.8938  1.0471
  292MOL0     H39392   5.540   0.456   2.924  0.1007  0.6151 -0.2150
  292MOL0     H39393   5.579   0.627   2.872  0.1804 -0.5258  0.8176
  292MOL0     H39394   5.521   0.607   2.655 -0.3906  3.1780  2.8374
  292MOL0     H39395   5.390   0.536   2.734  0.4691 -0.4580 -0.6263
  292MOL0     H39396   5.440   0.404   2.547 -1.1927  1.0127  1.6414
  292MOL0     H39397   5.613   0.389   2.591  1.5548  2.1716  3.0575
  292MOL0     H39398   5.377   0.288   2.746 -0.2474  1.6400 -0.4945
  292MOL0     H39399   5.553   0.279   2.789 -0.9416 -1.0917  0.4229
  292MOL0     H39400   5.509   0.063   2.715  0.4274 -1.0750 -0.5929
  292MOL0     H39401   5.613   0.146   2.608  0.4453 -0.0892  1.2831
  292MOL0     H39402   5.922   0.820   3.026  1.4241 -3.7317  0.7349
  292MOL0     H39403   5.983   1.038   3.142  0.5549  0.7544  0.7650
  292MOL0     H39404   5.938   1.283   3.551  0.4984  1.1334  1.1861
  292MOL0     H39405   5.979   1.462   3.674 -0.9867 -5.2003 -0.9405
  292MOL0     H39406   7.385   1.550   3.793 -1.5130 -0.1022 -2.3417
  292MOL0     H39407   7.559   1.411   3.901  1.2438  1.4549  0.2211
  292MOL0     H39408   7.985   1.188   3.778 -2.8210  1.5759  1.8933
  292MOL0     H39409   8.170   1.067   3.864 -1.9070  2.6553 -1.9129
  292MOL0     H39410   8.348   1.024   4.002  1.4260  1.1339  2.0799
  292MOL0     H39411   8.399   0.958   4.154  0.5458 -1.4787  0.0852
  292MOL0     H39412   8.286   0.804   3.920 -1.3244 -0.8786  0.6064
  292MOL0     H39413   8.214   0.774   4.074  0.5248  0.8696  1.2700
  292MOL0     H39414   8.523   0.769   4.008 -1.9875  3.6640 -1.2928
  292MOL0     H39415   8.419   0.615   4.011 -0.6466  0.0428 -0.6063
  292MOL0     H39416   8.515   0.779   4.256  0.3850 -1.9191  2.1146
  292MOL0     H39417   8.542   0.622   4.240 -0.9961  1.7219  3.5845
  292MOL0     H39418   8.163   0.621   4.396  0.1022  0.7022  0.8312
  292MOL0     H39419   7.950   1.020   4.249 -1.8401  2.1580 -0.0252
  292MOL0     H39420   7.764   1.070   4.124 -1.0440  4.5443 -1.5992
  293MOL0     O39421   4.173   8.684   2.575  1.3672  0.2340  0.2551
  293MOL0     C39422   4.188   8.717   2.687  0.8635 -0.5288 -0.4364
  293MOL0     O39423   4.253   8.833   2.729  0.0042  0.1350 -0.1825
  293MOL0     C39424   4.329   8.896   2.629  0.3498  0.5499  0.0149
  293MOL0     C39425   4.338   9.042   2.621  0.5069  0.5191  0.7626
  293MOL0     C39426   4.383   9.113   2.507  1.2953  0.2855 -0.5690
  293MOL0     C39427   4.433   9.041   2.394 -0.6793 -0.2193  0.3167
  293MOL0     O39428   4.485   9.090   2.280  0.6154 -0.4316  0.4070
  293MOL0     C39429   4.384   9.139   2.192  0.1479  0.3481 -1.3997
  293MOL0     C39430   4.449   9.188   2.058 -0.0676  0.7760 -0.7266
  293MOL0     C39431   4.589   9.253   2.075  0.2396 -0.7466 -0.0302
  293MOL0     C39432   4.618   9.356   1.955 -0.3049  0.4157 -0.7993
  293MOL0     C39433   4.766   9.380   1.923 -0.4236  0.3747 -0.3374
  293MOL0     C39434   4.829   9.472   2.016 -0.2386 -0.9214 -0.7723
  293MOL0     C39435   4.801   9.622   1.972  0.5199  0.5816 -1.1277
  293MOL0     C39436   4.840   9.726   2.070  0.5640 -0.4080 -0.5618
  293MOL0     N39437   4.983   9.763   2.077  0.5851  0.2147  0.8657
  293MOL0     C39438   5.067   9.684   2.154  0.1859  0.3413 -0.1330
  293MOL0     C39439   5.183   9.743   2.122 -0.2817 -0.6244 -0.1009
  293MOL0     C39440   5.321   9.697   2.155 -0.2083  0.4413 -0.1230
  293MOL0     C39441   5.336   9.584   2.263  0.5032 -0.8190  0.1145
  293MOL0     C39442   5.300   9.634   2.399  1.4149 -0.3046 -0.5104
  293MOL0     C39443   5.387   9.733   2.462  0.2386  0.1312  0.5744
  293MOL0     O39444   5.527   9.701   2.460 -0.4067  0.2585  0.4549
  293MOL0     C39445   5.611   9.766   2.545  0.0080 -1.6630 -0.9602
  293MOL0     C39446   5.571   9.885   2.611  0.2709  1.1678 -1.1133
  293MOL0     C39447   5.648   9.926   2.716 -0.9437 -0.4987 -0.0841
  293MOL0     C39448   5.604  10.055   2.783 -0.2322  0.0669  0.2228
  293MOL0     C39449   5.765   9.861   2.765  0.4868  0.3751  0.1468
  293MOL0     C39450   5.848   9.903   2.869 -0.8027  0.0272  0.1721
  293MOL0     O39451   5.983   9.887   2.847 -0.4201  0.4961 -1.2987
  293MOL0     C39452   6.061   9.932   2.944 -0.0347 -0.1887 -0.7273
  293MOL0     C39453   6.063  10.067   2.956  0.4952 -0.8149  0.1023
  293MOL0     C39454   6.143  10.131   3.048 -0.4002 -0.3331  0.5580
  293MOL0     C39455   6.244  10.055   3.118  0.0990 -1.0991 -0.6695
  293MOL0     O39456   6.324  10.118   3.213 -0.7293  0.4074 -0.3719
  293MOL0     C39457   6.445  10.059   3.261 -0.1956 -0.3530  1.0664
  293MOL0     C39458   6.565  10.070   3.157  0.0347  0.1439  0.2251
  293MOL0     C39459   6.693  10.017   3.222 -0.2666  0.4691 -0.7143
  293MOL0     C39460   6.756  10.117   3.320  0.3010  0.4215  0.5771
  293MOL0     C39461   6.841  10.055   3.425 -0.4243 -0.5509  0.2765
  293MOL0     C39462   6.937   9.952   3.372 -0.4083  0.7403 -0.0378
  293MOL0     C39463   7.031  10.015   3.266  0.9348 -0.3312  0.4685
  293MOL0     C39464   7.154   9.927   3.226  0.5558  0.6033 -1.2356
  293MOL0    Cl39465   7.257  10.019   3.116 -0.5101  0.0190 -0.0932
  293MOL0     C39466   6.249   9.916   3.103  0.1731 -0.6068  0.0634
  293MOL0     C39467   6.158   9.864   3.012 -0.1581  0.0756  0.3786
  293MOL0     O39468   5.790   9.937   2.975 -0.3214  0.9393  0.3218
  293MOL0     C39469   5.812   9.749   2.684 -0.1852 -0.8184 -1.1864
  293MOL0     C39470   5.730   9.700   2.589  0.2575  0.4029  0.5360
  293MOL0     N39471   5.166   9.845   2.032 -0.6184 -0.0243  0.4331
  293MOL0     N39472   5.045   9.863   2.009 -0.4226  0.8951 -0.4095
  293MOL0     C39473   4.450   8.903   2.407 -0.3426  0.0790 -0.9284
  293MOL0     C39474   4.410   8.834   2.526 -0.4396 -0.2364 -0.5269
  293MOL0     C39475   4.145   8.626   2.801 -0.1277  1.1282  0.5319
  293MOL0     C39476   4.108   8.488   2.783 -0.3257  0.2214 -0.9087
  293MOL0     C39477   4.051   8.409   2.884  0.0616  0.5148  0.6079
  293MOL0     C39478   4.043   8.459   3.016 -0.3421 -0.4022 -0.5176
  293MOL0     O39479   3.972   8.392   3.111  0.2293  0.0515  0.2977
  293MOL0     C39480   4.052   8.307   3.187 -0.2193 -0.3598 -0.5374
  293MOL0     C39481   4.126   8.392   3.297  0.5528  0.2609 -0.4959
  293MOL0     C39482   4.037   8.461   3.402 -0.4697 -0.2543 -0.6676
  293MOL0     C39483   4.143   8.546   3.484 -0.2282 -0.2041 -0.5874
  293MOL0     C39484   4.072   8.646   3.555  0.4098 -0.2263 -0.1499
  293MOL0     C39485   4.007   8.722   3.617 -0.9356 -0.0398 -0.3275
  293MOL0     C39486   4.089   8.593   3.040  0.3089 -1.0492  0.2140
  293MOL0     C39487   4.141   8.673   2.932  0.4393 -1.3078  0.3934
  293MOL0     H39488   4.294   9.086   2.710 -2.9467 -1.1919  0.0896
  293MOL0     H39489   4.366   9.219   2.499  0.3731  0.1920  0.1009
  293MOL0     H39490   4.311   9.058   2.183  0.1406 -0.0816  1.3803
  293MOL0     H39491   4.338   9.229   2.235  1.0780  0.6156 -0.9272
  293MOL0     H39492   4.455   9.097   1.997 -2.2552 -0.4185  0.7065
  293MOL0     H39493   4.383   9.264   2.015  0.0719  1.4200  0.1892
  293MOL0     H39494   4.607   9.303   2.170 -2.6527 -1.5997  1.0816
  293MOL0     H39495   4.660   9.171   2.082 -1.7604 -2.5930 -0.1942
  293MOL0     H39496   4.579   9.313   1.863 -1.0421  0.0026 -0.3076
  293MOL0     H39497   4.570   9.453   1.968  0.2873  0.8669 -1.8483
  293MOL0     H39498   4.821   9.286   1.918 -1.4820 -0.2011 -1.8323
  293MOL0     H39499   4.758   9.424   1.823  0.1681  1.5526  0.1156
  293MOL0     H39500   4.784   9.457   2.114  3.4639 -3.1512  0.8392
  293MOL0     H39501   4.937   9.454   2.012  0.2683  1.6363 -4.4493
  293MOL0     H39502   4.834   9.659   1.874 -1.1430  1.5183 -1.3600
  293MOL0     H39503   4.693   9.624   1.958  0.5127 -0.2177 -1.2532
  293MOL0     H39504   4.805   9.702   2.171  2.1518  1.2169  0.4357
  293MOL0     H39505   4.784   9.818   2.052  1.3247 -0.3432 -2.9730
  293MOL0     H39506   5.059   9.593   2.212  0.4714  0.3702 -0.0450
  293MOL0     H39507   5.366   9.656   2.064 -1.3092 -1.5634  0.2000
  293MOL0     H39508   5.384   9.783   2.181 -3.6094  3.8982 -2.3047
  293MOL0     H39509   5.440   9.550   2.261  1.2911  1.4229  0.2727
  293MOL0     H39510   5.271   9.501   2.236 -0.0288 -0.7864  1.2281
  293MOL0     H39511   5.288   9.540   2.453 -0.0781 -0.5427 -1.2113
  293MOL0     H39512   5.200   9.679   2.393  1.5680  0.4637  1.6431
  293MOL0     H39513   5.354   9.732   2.566 -0.0240 -4.8247  0.6835
  293MOL0     H39514   5.380   9.833   2.418 -1.2064 -0.0597  0.3171
  293MOL0     H39515   5.475   9.934   2.597 -1.1467  0.2421  3.6092
  293MOL0     H39516   5.550  10.129   2.722 -0.3982 -1.3830 -1.4928
  293MOL0     H39517   5.538  10.040   2.868 -2.1154  1.9486 -0.8114
  293MOL0     H39518   5.694  10.108   2.815  0.8510 -1.0746 -0.8472
  293MOL0     H39519   5.992  10.123   2.896 -1.9312 -3.3969  0.3632
  293MOL0     H39520   6.150  10.237   3.071  0.3533 -0.5819  1.5615
  293MOL0     H39521   6.470  10.133   3.337 -2.1245  0.4589  0.9682
  293MOL0     H39522   6.441   9.964   3.317  1.5696 -1.3337 -0.3466
  293MOL0     H39523   6.535  10.009   3.071  0.5981 -0.5908  0.5391
  293MOL0     H39524   6.568  10.175   3.125 -3.3456  0.7362  1.4478
  293MOL0     H39525   6.764  10.001   3.140  0.3247  1.7518 -0.4759
  293MOL0     H39526   6.668   9.929   3.281  0.0998  2.0045  1.8524
  293MOL0     H39527   6.810  10.175   3.244  0.1693 -3.3765 -2.7253
  293MOL0     H39528   6.675  10.167   3.373 -0.2427 -0.0666  0.2061
  293MOL0     H39529   6.774   9.999   3.491 -0.4109 -1.9088 -0.8120
  293MOL0     H39530   6.902  10.128   3.478  1.6283 -0.5050 -1.9569
  293MOL0     H39531   6.997   9.905   3.450  2.0818 -0.2792 -2.3955
  293MOL0     H39532   6.886   9.868   3.324  0.6960  1.2225 -2.1901
  293MOL0     H39533   7.062  10.112   3.305 -2.3929  1.1126 -0.1785
  293MOL0     H39534   6.980  10.043   3.173  4.2385  1.3808 -0.9997
  293MOL0     H39535   7.117   9.829   3.195 -2.2965  0.8431  1.0426
  293MOL0     H39536   7.229   9.912   3.305 -0.6999 -2.5640 -0.5164
  293MOL0     H39537   6.315   9.850   3.159  1.2346  1.0487  0.8518
  293MOL0     H39538   6.172   9.757   3.001  0.2241  0.1909 -0.3156
  293MOL0     H39539   5.905   9.693   2.697 -1.1965 -2.9225 -2.4656
  293MOL0     H39540   5.752   9.604   2.542 -1.3959  0.4678 -0.4569
  293MOL0     H39541   4.494   8.852   2.322 -0.6282 -2.4101  0.3222
  293MOL0     H39542   4.432   8.728   2.537 -4.1321 -0.9060  2.9820
  293MOL0     H39543   4.089   8.448   2.684 -0.0424 -1.7240 -0.2069
  293MOL0     H39544   4.008   8.314   2.854  0.2356  0.0915  1.6274
  293MOL0     H39545   4.000   8.224   3.237 -0.2988  1.3902  2.5432
  293MOL0     H39546   4.130   8.273   3.118  1.1826  1.6279 -0.0325
  293MOL0     H39547   4.188   8.462   3.240  2.1473 -1.4394 -0.9423
  293MOL0     H39548   4.204   8.341   3.355 -0.3220 -1.1662 -0.5238
  293MOL0     H39549   3.993   8.385   3.467  0.7476  0.2577  0.8259
  293MOL0     H39550   3.957   8.528   3.368 -1.2697 -0.8292  0.0201
  293MOL0     H39551   4.218   8.580   3.412 -1.2181  4.4736  0.2417
  293MOL0     H39552   4.205   8.500   3.563  0.4670  1.0753 -0.3589
  293MOL0     H39553   3.933   8.767   3.681  0.7666  0.2016  1.5632
  293MOL0     H39554   4.057   8.645   3.130 -0.6269  1.8880 -1.6654
  293MOL0     H39555   4.154   8.775   2.967 -0.0264 -2.1606  3.3834
  294MOL0     O39556   0.423   1.834   9.540  0.8702 -0.5624  0.4707
  294MOL0     C39557   0.331   1.767   9.596  0.3507  0.3476  1.0380
  294MOL0     O39558   0.313   1.759   9.733  0.2210  0.7219 -1.0284
  294MOL0     C39559   0.404   1.822   9.809 -0.4065  0.3126 -0.1423
  294MOL0     C39560   0.512   1.748   9.852  0.7035  0.0069  0.5541
  294MOL0     C39561   0.591   1.785   9.954  0.5407 -0.8748 -0.8713
  294MOL0     C39562   0.568   1.908  10.023  0.1362 -0.1347 -0.4424
  294MOL0     O39563   0.657   1.935  10.129  0.2814 -0.1203 -0.5718
  294MOL0     C39564   0.709   2.068  10.132 -0.1013 -1.7181  0.2182
  294MOL0     C39565   0.865   2.073  10.087  0.4747  0.7864 -0.3975
  294MOL0     C39566   0.889   2.031   9.947  0.1746 -0.0326  0.5121
  294MOL0     C39567   0.840   2.119   9.842  0.1915 -0.6893  0.3886
  294MOL0     C39568   0.866   2.050   9.714 -0.1458 -0.5841 -0.1402
  294MOL0     C39569   0.846   2.143   9.601 -1.0739  0.9040 -0.4334
  294MOL0     C39570   0.718   2.235   9.597 -0.1224 -0.4197  0.3411
  294MOL0     C39571   0.589   2.145   9.582 -0.4830  0.0737 -0.3948
  294MOL0     N39572   0.466   2.234   9.577 -1.4138 -0.2463  0.0113
  294MOL0     C39573   0.457   2.344   9.502 -0.1599  0.3533  0.2515
  294MOL0     C39574   0.322   2.368   9.503 -1.1414  0.9612 -0.0613
  294MOL0     C39575   0.262   2.490   9.442  1.1649 -0.8593 -0.3555
  294MOL0     C39576   0.157   2.564   9.536  0.6303 -1.0764  0.2212
  294MOL0     C39577   0.011   2.505   9.542 -0.3877  0.0404  0.3537
  294MOL0     C39578  -0.070   2.550   9.425 -0.0781 -0.4877  0.7672
  294MOL0     O39579  -0.114   2.683   9.460 -0.1483 -0.9407  0.1856
  294MOL0     C39580  -0.234   2.725   9.409 -0.2567  0.4262 -0.0850
  294MOL0     C39581  -0.307   2.666   9.295  0.1478  0.5884  0.4657
  294MOL0     C39582  -0.430   2.716   9.234 -1.0120 -0.6204 -0.3015
  294MOL0     C39583  -0.492   2.648   9.112  0.1468  0.3212  0.7798
  294MOL0     C39584  -0.473   2.840   9.285  0.5922 -0.9829  1.3218
  294MOL0     C39585  -0.573   2.922   9.216 -1.4585 -0.2357 -0.9254
  294MOL0     O39586  -0.669   2.853   9.143 -0.5775 -0.2316 -0.0392
  294MOL0     C39587  -0.766   2.937   9.095 -0.0071 -0.3293 -0.3962
  294MOL0     C39588  -0.885   2.940   9.167  0.0722 -0.6741  0.8782
  294MOL0     C39589  -0.990   3.009   9.112  0.5478 -0.3074 -0.3181
  294MOL0     C39590  -0.993   3.072   8.992  0.5212 -0.7724  1.2661
  294MOL0     O39591  -1.092   3.162   8.955  0.2908 -0.3776 -0.1390
  294MOL0     C39592  -1.131   3.177   8.817 -1.0231  0.2312  0.4499
  294MOL0     C39593  -1.273   3.225   8.813  0.3685 -0.0890  0.1421
  294MOL0     C39594  -1.373   3.144   8.909 -0.9090  0.5716 -0.2508
  294MOL0     C39595  -1.357   3.199   9.056 -0.5876 -1.1221 -1.5370
  294MOL0     C39596  -1.484   3.157   9.136 -0.5375  0.6363 -0.9866
  294MOL0     C39597  -1.473   3.202   9.280 -0.7064 -0.3559  0.2684
  294MOL0     C39598  -1.589   3.167   9.367  0.1303  0.4471  0.6040
  294MOL0     C39599  -1.615   3.019   9.383  1.0555  0.2060  0.1710
  294MOL0    Cl39600  -1.707   2.968   9.524  0.1903 -0.1677  0.5953
  294MOL0     C39601  -0.884   3.045   8.911 -0.8573 -0.3341 -1.0363
  294MOL0     C39602  -0.766   2.992   8.965 -0.5816  0.0250 -0.4796
  294MOL0     O39603  -0.552   3.044   9.212  0.2031 -0.0751  0.1768
  294MOL0     C39604  -0.402   2.903   9.387  0.1871  0.2120  0.9015
  294MOL0     C39605  -0.287   2.844   9.448 -0.3921  0.6792 -0.1817
  294MOL0     N39606   0.262   2.279   9.588 -0.1934  0.3617 -0.0811
  294MOL0     N39607   0.353   2.191   9.633  0.3604  0.6231  0.7119
  294MOL0     C39608   0.465   1.997   9.970 -0.3654  0.5294 -0.6985
  294MOL0     C39609   0.388   1.949   9.867 -0.2716 -0.4681  0.8531
  294MOL0     C39610   0.224   1.701   9.517 -0.2145  0.6498  1.3866
  294MOL0     C39611   0.144   1.594   9.584 -0.2204 -0.1765  0.5625
  294MOL0     C39612   0.064   1.513   9.507 -0.1495  0.3043 -0.0379
  294MOL0     C39613   0.038   1.544   9.369  0.4073 -0.3058  0.2940
  294MOL0     O39614  -0.023   1.451   9.286 -1.0531 -0.9403  0.5490
  294MOL0     C39615  -0.062   1.322   9.333 -0.6936  0.1849  0.8292
  294MOL0     C39616  -0.115   1.252   9.204 -0.5433  0.6620 -0.8287
  294MOL0     C39617  -0.245   1.304   9.156  0.8710  0.4342 -0.2440
  294MOL0     C39618  -0.362   1.236   9.224 -0.1245 -0.9100 -0.2835
  294MOL0     C39619  -0.479   1.278   9.152 -0.0897 -0.1141 -0.9811
  294MOL0     C39620  -0.564   1.308   9.076 -0.6992 -0.4411  0.3934
  294MOL0     C39621   0.089   1.661   9.319 -0.0406 -0.0144  0.7390
  294MOL0     C39622   0.182   1.744   9.392  0.4481  0.4084 -0.6246
  294MOL0     H39623   0.524   1.644   9.821 -1.9575 -0.5776  1.2432
  294MOL0     H39624   0.678   1.728   9.987  1.4461 -0.3509 -2.2457
  294MOL0     H39625   0.652   2.134  10.066  0.2587 -1.7679 -0.1450
  294MOL0     H39626   0.690   2.098  10.235 -1.9786  0.4231 -0.6766
  294MOL0     H39627   0.904   2.170  10.118  0.0001  0.6569  0.6261
  294MOL0     H39628   0.914   2.011  10.163 -0.6035  2.2552  1.5931
  294MOL0     H39629   0.998   2.021   9.937  0.1838 -0.1389  0.7184
  294MOL0     H39630   0.853   1.929   9.935  0.1055  0.2629 -3.0159
  294MOL0     H39631   0.731   2.122   9.851  0.0886 -4.1446  2.6604
  294MOL0     H39632   0.872   2.223   9.850 -1.0365 -0.2010 -0.8468
  294MOL0     H39633   0.970   2.017   9.714 -0.0812 -0.3794  0.0923
  294MOL0     H39634   0.804   1.960   9.707 -1.7421  0.5962 -2.5904
  294MOL0     H39635   0.938   2.197   9.576  3.2304 -4.4344  1.7896
  294MOL0     H39636   0.827   2.086   9.509  0.9076  1.6094 -1.3427
  294MOL0     H39637   0.704   2.300   9.685 -1.6538 -0.0809 -0.1209
  294MOL0     H39638   0.743   2.292   9.507  4.7817 -2.7719 -0.1496
  294MOL0     H39639   0.577   2.093   9.678  0.4002  0.8365  0.1547
  294MOL0     H39640   0.601   2.066   9.508  3.9946  0.0044  0.1294
  294MOL0     H39641   0.539   2.391   9.449 -0.0991  2.9353  2.3951
  294MOL0     H39642   0.339   2.560   9.408  0.3512  0.1855 -0.1194
  294MOL0     H39643   0.220   2.468   9.344 -2.5346  3.0805  0.0406
  294MOL0     H39644   0.150   2.672   9.521 -0.3638  0.2180  7.0030
  294MOL0     H39645   0.191   2.557   9.640 -1.1348 -0.5772  0.8666
  294MOL0     H39646  -0.031   2.552   9.631  1.2520 -0.0704  1.2197
  294MOL0     H39647   0.020   2.396   9.543 -0.0304 -0.0467 -2.5053
  294MOL0     H39648  -0.161   2.490   9.416  2.0249 -3.6264 -2.2707
  294MOL0     H39649  -0.016   2.549   9.330 -1.3394 -0.6846  0.0206
  294MOL0     H39650  -0.290   2.563   9.266  2.4276  1.1065 -0.2741
  294MOL0     H39651  -0.591   2.607   9.133 -0.5419  2.8455  3.0449
  294MOL0     H39652  -0.496   2.711   9.022  0.0867 -2.2173 -1.0855
  294MOL0     H39653  -0.418   2.571   9.087  0.8845  0.1044  3.3264
  294MOL0     H39654  -0.889   2.881   9.258 -1.6569 -0.0604  1.2275
  294MOL0     H39655  -1.080   3.021   9.171  3.5467  1.0035  4.5612
  294MOL0     H39656  -1.068   3.253   8.768 -0.6381  1.2613  2.4177
  294MOL0     H39657  -1.125   3.089   8.753  1.5304  1.7822 -1.6910
  294MOL0     H39658  -1.276   3.332   8.837 -2.1756  0.1382 -0.8618
  294MOL0     H39659  -1.311   3.219   8.711 -3.2065  2.5152  1.0879
  294MOL0     H39660  -1.339   3.040   8.908  3.1134  1.7141 -0.7630
  294MOL0     H39661  -1.479   3.133   8.884 -1.3265 -2.7688  2.2595
  294MOL0     H39662  -1.274   3.155   9.111  0.5318 -0.1508 -2.4065
  294MOL0     H39663  -1.334   3.306   9.065 -0.0521 -1.3890  1.0437
  294MOL0     H39664  -1.501   3.049   9.130 -1.0205  0.7748 -2.7374
  294MOL0     H39665  -1.573   3.209   9.098 -0.0389  1.3082 -1.2525
  294MOL0     H39666  -1.380   3.156   9.314  0.1502  0.8021 -0.4447
  294MOL0     H39667  -1.458   3.310   9.276  3.1077 -0.6374  2.5562
  294MOL0     H39668  -1.678   3.215   9.327  0.8345 -0.6652 -2.6007
  294MOL0     H39669  -1.567   3.194   9.471  2.1278  0.8896  0.1116
  294MOL0     H39670  -1.527   2.955   9.388  0.0207 -1.2384  0.6465
  294MOL0     H39671  -1.668   2.981   9.295  2.6643  1.2810 -1.3321
  294MOL0     H39672  -0.865   3.082   8.811 -0.7824  1.4253 -0.4088
  294MOL0     H39673  -0.677   2.980   8.903  1.6383 -1.0694  2.6408
  294MOL0     H39674  -0.441   2.998   9.423 -1.5798  0.6092 -1.8205
  294MOL0     H39675  -0.230   2.899   9.523 -0.8358  1.9661 -0.7555
  294MOL0     H39676   0.460   2.099  10.008  3.0560  1.6354 -2.7206
  294MOL0     H39677   0.315   2.021   9.833  0.3683 -0.4311 -0.5060
  294MOL0     H39678   0.168   1.580   9.689 -0.3967  0.3847  0.6804
  294MOL0     H39679   0.033   1.423   9.560 -1.0891 -0.3654 -1.6472
  294MOL0     H39680   0.019   1.268   9.382  1.2369  0.4110 -1.8742
  294MOL0     H39681  -0.146   1.345   9.399 -0.5099  1.6093  0.5993
  294MOL0     H39682  -0.129   1.144   9.210 -1.3435  0.8416  1.1643
  294MOL0     H39683  -0.036   1.271   9.130 -2.1544  0.3356 -2.7187
  294MOL0     H39684  -0.262   1.275   9.052 -3.7392  0.0235  0.4009
  294MOL0     H39685  -0.263   1.412   9.168 -0.3782  0.3281 -0.9627
  294MOL0     H39686  -0.377   1.276   9.325  2.3579 -1.3938  0.3583
  294MOL0     H39687  -0.358   1.127   9.236  0.7546 -0.7003  1.9585
  294MOL0     H39688  -0.652   1.336   9.022  1.8724 -0.9110 -4.6508
  294MOL0     H39689   0.066   1.689   9.217 -2.6347  0.1570  1.3196
  294MOL0     H39690   0.204   1.839   9.345 -0.4647  0.4479 -0.9863
  295MOL0     O39691   7.372   0.156   9.456 -0.4327 -0.2162 -0.6964
  295MOL0     C39692   7.321   0.239   9.527 -0.3759  0.2572 -0.5007
  295MOL0     O39693   7.200   0.233   9.579 -0.1664 -0.0980  0.4230
  295MOL0     C39694   7.143   0.111   9.591  0.2184 -0.7107  0.0976
  295MOL0     C39695   7.008   0.109   9.552 -0.5099  0.6614 -0.6305
  295MOL0     C39696   6.921  -0.004   9.571 -0.8054  0.7791  0.2520
  295MOL0     C39697   6.976  -0.122   9.622 -0.8406 -0.0686  0.2958
  295MOL0     O39698   6.900  -0.234   9.617  0.5000  0.5934 -0.2374
  295MOL0     C39699   6.841  -0.274   9.742 -0.0599  0.1217  0.4772
  295MOL0     C39700   6.733  -0.383   9.719 -0.3391  0.3381  0.2444
  295MOL0     C39701   6.691  -0.435   9.863 -0.9244 -0.1594 -0.0703
  295MOL0     C39702   6.590  -0.546   9.857 -0.0688  0.9063 -0.8897
  295MOL0     C39703   6.582  -0.614  10.006  0.1907  0.1975 -0.1489
  295MOL0     C39704   6.465  -0.705  10.051 -0.3615 -0.8145  1.0641
  295MOL0     C39705   6.509  -0.819  10.146 -1.6708 -0.5187  0.3656
  295MOL0     C39706   6.602  -0.790  10.266 -0.3498  0.1290  0.3526
  295MOL0     N39707   6.550  -0.683  10.348  0.8971 -0.5172 -0.3126
  295MOL0     C39708   6.441  -0.692  10.437 -0.2051  0.5732 -0.9112
  295MOL0     C39709   6.429  -0.572  10.488  0.4310 -0.2615  1.0165
  295MOL0     C39710   6.342  -0.519  10.597  0.5159  0.4063  0.8287
  295MOL0     C39711   6.225  -0.431  10.546  0.0645 -0.0112  0.3633
  295MOL0     C39712   6.108  -0.429  10.646 -0.2145  0.2226 -0.6708
  295MOL0     C39713   6.020  -0.314  10.624  1.1323  0.4692 -0.7254
  295MOL0     O39714   5.967  -0.297  10.489  0.1424  0.2955  0.2254
  295MOL0     C39715   5.845  -0.234  10.474  1.0476  0.2397  0.3452
  295MOL0     C39716   5.757  -0.312  10.391 -0.9892  0.4624  0.1725
  295MOL0     C39717   5.626  -0.267  10.362 -0.1331  0.2495  0.1458
  295MOL0     C39718   5.559  -0.345  10.251  0.1629  0.1235 -0.3741
  295MOL0     C39719   5.579  -0.144  10.424 -0.1605 -0.5722  0.7050
  295MOL0     C39720   5.445  -0.100  10.403 -0.1084 -0.9780  0.0268
  295MOL0     O39721   5.424   0.036  10.420 -0.6689 -0.4442 -0.0454
  295MOL0     C39722   5.307   0.099  10.463 -0.4777 -0.0160  0.4632
  295MOL0     C39723   5.315   0.241  10.471 -0.3446  1.2400 -0.1847
  295MOL0     C39724   5.208   0.310  10.502  0.0874 -0.3269 -0.5549
  295MOL0     C39725   5.085   0.252  10.538 -0.2928  0.0023 -0.7425
  295MOL0     O39726   4.986   0.332  10.570 -0.7575  0.6517  0.2925
  295MOL0     C39727   4.904   0.369  10.462 -0.2172  0.3632 -0.4073
  295MOL0     C39728   4.754   0.386  10.509  0.4375  0.1721 -0.4717
  295MOL0     C39729   4.664   0.368  10.394 -0.1778  0.2166  0.3634
  295MOL0     C39730   4.656   0.215  10.367 -0.2308 -0.3079  0.4775
  295MOL0     C39731   4.523   0.187  10.302  0.2020 -0.6550  0.2692
  295MOL0     C39732   4.473   0.040  10.318  0.4011  0.5699  0.1704
  295MOL0     C39733   4.328   0.038  10.266  0.1892  0.0662 -0.2574
  295MOL0     C39734   4.272  -0.089  10.222 -0.7637 -0.5576 -0.0359
  295MOL0    Cl39735   4.284  -0.214  10.355 -0.0102  0.4425  0.3686
  295MOL0     C39736   5.073   0.116  10.520 -0.8546  0.3880 -0.6847
  295MOL0     C39737   5.187   0.035  10.495 -0.2103  0.2934  0.0277
  295MOL0     O39738   5.351  -0.177  10.386 -0.3209  0.5210 -0.4375
  295MOL0     C39739   5.668  -0.066  10.500 -0.0486 -0.8335 -0.1299
  295MOL0     C39740   5.796  -0.117  10.534 -0.4295 -0.2460  0.2789
  295MOL0     N39741   6.526  -0.491  10.432 -0.5051  0.4360 -0.2418
  295MOL0     N39742   6.598  -0.563  10.360 -0.0618  0.1215  1.0590
  295MOL0     C39743   7.113  -0.135   9.645 -0.4559  0.2017 -0.3638
  295MOL0     C39744   7.193  -0.007   9.637 -0.2454  0.0802  0.1077
  295MOL0     C39745   7.399   0.364   9.551 -0.6570  0.3126 -0.4135
  295MOL0     C39746   7.348   0.471   9.636  0.3396 -0.1588 -0.3273
  295MOL0     C39747   7.403   0.596   9.646 -0.0478  0.1639 -0.1733
  295MOL0     C39748   7.519   0.616   9.576 -0.3696 -0.0878 -1.1058
  295MOL0     O39749   7.590   0.733   9.592 -0.7649 -0.6656 -0.1055
  295MOL0     C39750   7.517   0.845   9.536 -0.1207  0.1488  0.5437
  295MOL0     C39751   7.606   0.962   9.512 -0.3864  0.2456 -0.4519
  295MOL0     C39752   7.709   0.917   9.400 -0.0616 -0.3381 -0.3414
  295MOL0     C39753   7.822   1.004   9.376 -0.2921  0.3464 -0.3222
  295MOL0     C39754   7.775   1.137   9.318 -0.2681  0.0858  0.9287
  295MOL0     C39755   7.734   1.236   9.271  0.8971 -0.3123 -0.8907
  295MOL0     C39756   7.573   0.520   9.489  0.5856  0.1149 -0.3461
  295MOL0     C39757   7.517   0.393   9.477 -0.0479  0.3879 -0.5148
  295MOL0     H39758   6.962   0.184   9.489  1.0291 -0.9858 -3.9486
  295MOL0     H39759   6.820  -0.002   9.531 -0.4041  0.3632 -0.8211
  295MOL0     H39760   6.925  -0.320   9.795  0.8391 -2.7248 -3.0413
  295MOL0     H39761   6.805  -0.182   9.789  3.9235  2.8719 -1.2128
  295MOL0     H39762   6.643  -0.357   9.662 -0.9050 -1.7605  0.1134
  295MOL0     H39763   6.776  -0.464   9.660 -3.0787  1.2299 -3.3047
  295MOL0     H39764   6.778  -0.476   9.915 -0.1266 -0.1502 -1.3636
  295MOL0     H39765   6.660  -0.355   9.931  0.7602  3.5580 -3.2965
  295MOL0     H39766   6.490  -0.518   9.822 -1.2493 -0.7588  0.9422
  295MOL0     H39767   6.620  -0.628   9.792  1.1590  3.1092 -3.2662
  295MOL0     H39768   6.677  -0.667  10.016 -0.4474 -0.6584  2.1543
  295MOL0     H39769   6.588  -0.529  10.075  1.9563 -0.0648  0.0584
  295MOL0     H39770   6.391  -0.638  10.095 -0.0982 -0.6767  1.2991
  295MOL0     H39771   6.418  -0.745   9.961 -0.4676  2.3393 -0.4280
  295MOL0     H39772   6.419  -0.867  10.187 -2.2126 -2.2976 -2.5662
  295MOL0     H39773   6.554  -0.897  10.084  0.0209 -0.8530  1.9503
  295MOL0     H39774   6.696  -0.751  10.226  0.2593 -1.0757  0.5582
  295MOL0     H39775   6.626  -0.881  10.321  1.0216 -1.0469 -2.0281
  295MOL0     H39776   6.382  -0.781  10.461 -0.5824  0.5724 -1.7921
  295MOL0     H39777   6.289  -0.603  10.644 -0.2356 -0.3688 -1.3136
  295MOL0     H39778   6.403  -0.485  10.681  1.1016 -4.4221  2.7034
  295MOL0     H39779   6.189  -0.477  10.453 -0.0440  0.5204  0.1408
  295MOL0     H39780   6.256  -0.328  10.530  2.6553 -1.0790 -2.6730
  295MOL0     H39781   6.157  -0.429  10.743 -1.7141  1.5016  0.1321
  295MOL0     H39782   6.045  -0.519  10.652  0.2078 -0.0525  5.1124
  295MOL0     H39783   6.062  -0.226  10.674 -0.9088 -0.1367  2.3786
  295MOL0     H39784   5.932  -0.335  10.685 -0.1652  3.6844 -1.2503
  295MOL0     H39785   5.788  -0.405  10.345  1.0911  0.4800  1.4171
  295MOL0     H39786   5.497  -0.422  10.296 -4.3620  2.7783 -1.3690
  295MOL0     H39787   5.484  -0.286  10.196  1.3750  2.2724  0.1536
  295MOL0     H39788   5.619  -0.365  10.161 -0.4294  3.6179 -1.7128
  295MOL0     H39789   5.414   0.282  10.457 -0.0804  0.8825  0.5945
  295MOL0     H39790   5.229   0.415  10.522  1.7326 -0.7204 -0.0436
  295MOL0     H39791   4.934   0.470  10.436  0.7147  0.7287  1.8769
  295MOL0     H39792   4.913   0.300  10.377 -0.0544  1.1229 -1.0109
  295MOL0     H39793   4.729   0.313  10.586 -2.8730 -0.7997 -2.2793
  295MOL0     H39794   4.748   0.489  10.547 -0.0772 -0.5985  1.6594
  295MOL0     H39795   4.674   0.429  10.304  1.9817 -1.2867 -0.5058
  295MOL0     H39796   4.566   0.404  10.427  0.6630  4.2510 -1.0200
  295MOL0     H39797   4.737   0.170  10.309 -1.2421 -2.3951  0.6087
  295MOL0     H39798   4.649   0.153  10.457 -1.1007  2.3160  2.3466
  295MOL0     H39799   4.525   0.220  10.197 -3.0420  0.8157  0.5422
  295MOL0     H39800   4.446   0.246  10.354 -0.0250  0.9447 -1.7235
  295MOL0     H39801   4.529  -0.031  10.256 -1.0957 -0.4114 -0.1231
  295MOL0     H39802   4.463  -0.003  10.418  1.0368 -0.9926 -0.4055
  295MOL0     H39803   4.323   0.113  10.186  0.0091  1.3449  0.9073
  295MOL0     H39804   4.257   0.079  10.338 -0.8035  1.0172 -1.7165
  295MOL0     H39805   4.324  -0.120  10.131 -2.8830  2.4971 -2.5292
  295MOL0     H39806   4.166  -0.071  10.198 -0.8087  3.7834  2.4814
  295MOL0     H39807   4.968   0.090  10.531 -0.7798  0.0922 -0.6567
  295MOL0     H39808   5.183  -0.072  10.508 -1.1884  0.1469 -1.3444
  295MOL0     H39809   5.636   0.031  10.537  1.3246  0.0770 -1.2546
  295MOL0     H39810   5.867  -0.056  10.588  2.8193 -0.8495 -2.8866
  295MOL0     H39811   7.148  -0.232   9.678 -1.2416  0.4923  1.4510
  295MOL0     H39812   7.298  -0.017   9.661 -0.1762  1.0210  0.2279
  295MOL0     H39813   7.261   0.444   9.695  0.2663  1.4938  0.3998
  295MOL0     H39814   7.366   0.673   9.713  2.2288  1.2041 -0.0463
  295MOL0     H39815   7.473   0.810   9.442  1.8942 -2.9836  0.6197
  295MOL0     H39816   7.444   0.878   9.610  0.1795 -0.2496  1.0250
  295MOL0     H39817   7.661   0.979   9.606  0.1616 -1.1925 -0.4854
  295MOL0     H39818   7.557   1.051   9.472  0.5873  1.0528  0.0880
  295MOL0     H39819   7.660   0.901   9.303  5.4235 -1.6519 -3.3364
  295MOL0     H39820   7.754   0.818   9.405  2.8033  0.8759 -0.1694
  295MOL0     H39821   7.898   0.959   9.311  0.6126 -1.9351  2.1304
  295MOL0     H39822   7.873   1.017   9.472  1.5421  0.4972 -1.2625
  295MOL0     H39823   7.688   1.333   9.261 -0.3194 -0.9454 -1.7587
  295MOL0     H39824   7.652   0.554   9.423  3.2774 -2.8322  1.0454
  295MOL0     H39825   7.551   0.325   9.400 -0.3817 -1.5285  0.9602
  296MOL0     O39826   5.042  11.402   0.387  0.3446 -0.2458 -0.7871
  296MOL0     C39827   5.133  11.418   0.302 -0.2204  0.5638  0.1673
  296MOL0     O39828   5.179  11.329   0.209 -0.1679  1.0517  0.6476
  296MOL0     C39829   5.102  11.238   0.141 -0.8068  0.1964  0.3681
  296MOL0     C39830   5.168  11.173   0.030  0.4052 -0.7813  0.5822
  296MOL0     C39831   5.101  11.077  -0.048  0.2976  0.0941 -0.3317
  296MOL0     C39832   4.975  11.040  -0.030  0.3121  0.8801  0.1910
  296MOL0     O39833   4.921  10.972  -0.135  0.2906 -0.4210  0.2807
  296MOL0     C39834   4.798  10.907  -0.119  0.9188  0.9756 -0.2941
  296MOL0     C39835   4.677  10.981  -0.180  0.5661  0.4701  0.3982
  296MOL0     C39836   4.548  10.905  -0.210  0.6518 -0.2700  0.1083
  296MOL0     C39837   4.438  10.993  -0.258  0.5062  0.3910 -0.6132
  296MOL0     C39838   4.414  11.007  -0.404 -0.0559  0.5837  0.3202
  296MOL0     C39839   4.330  10.889  -0.468 -0.5034 -0.5917 -0.5166
  296MOL0     C39840   4.298  10.923  -0.619 -0.3328 -0.3274  0.6637
  296MOL0     C39841   4.162  10.988  -0.631 -1.4829 -0.1935  0.1194
  296MOL0     N39842   4.046  10.903  -0.596 -0.1205  0.4067  0.2115
  296MOL0     C39843   3.997  10.800  -0.669 -0.3180  1.0267 -0.6364
  296MOL0     C39844   3.897  10.746  -0.592 -0.2209 -0.9664  0.2969
  296MOL0     C39845   3.796  10.647  -0.638 -0.2152 -1.0935  2.3289
  296MOL0     C39846   3.765  10.652  -0.789 -1.5635  0.5507  0.2430
  296MOL0     C39847   3.648  10.731  -0.829  0.3043 -0.3080 -0.0028
  296MOL0     C39848   3.643  10.868  -0.768  0.2639  0.3084  0.0963
  296MOL0     O39849   3.511  10.923  -0.805 -0.4107 -0.1751 -0.4438
  296MOL0     C39850   3.480  11.045  -0.738 -1.1438  0.0851 -0.0010
  296MOL0     C39851   3.560  11.108  -0.641  0.0758  0.4309 -0.1372
  296MOL0     C39852   3.515  11.229  -0.579 -0.6769  0.0154 -0.1486
  296MOL0     C39853   3.610  11.302  -0.486  0.3552  0.1297  0.2436
  296MOL0     C39854   3.396  11.293  -0.619  0.2371  0.4730  1.2674
  296MOL0     C39855   3.331  11.405  -0.561 -0.7197  0.2606 -0.4935
  296MOL0     O39856   3.267  11.491  -0.641 -0.9679  0.0683 -0.6640
  296MOL0     C39857   3.189  11.588  -0.591 -0.7910 -0.2102 -0.3909
  296MOL0     C39858   3.251  11.701  -0.537  1.3844 -0.2321 -0.3395
  296MOL0     C39859   3.167  11.802  -0.504 -0.0251  0.2747 -0.6839
  296MOL0     C39860   3.029  11.791  -0.524 -0.4953  0.6427 -1.3406
  296MOL0     O39861   2.952  11.897  -0.472 -0.8411 -0.3273 -0.5970
  296MOL0     C39862   2.861  11.854  -0.365  0.0687  0.0829  0.4846
  296MOL0     C39863   2.808  11.961  -0.284  0.2880 -0.5774 -1.3828
  296MOL0     C39864   2.922  12.035  -0.213 -0.9356 -0.5038 -0.5634
  296MOL0     C39865   2.881  12.061  -0.062  0.3530  0.0482 -0.5234
  296MOL0     C39866   2.984  12.148   0.004 -0.1950 -0.5745 -0.6537
  296MOL0     C39867   3.105  12.078   0.053 -0.7588 -0.4175  0.8169
  296MOL0     C39868   3.242  12.159   0.052 -0.0376  0.3797  0.4497
  296MOL0     C39869   3.286  12.197  -0.093  0.2529  0.2489 -0.1144
  296MOL0    Cl39870   3.469  12.233  -0.093  0.0758 -0.1902  0.2086
  296MOL0     C39871   2.973  11.680  -0.590  0.0137  0.5240 -0.1717
  296MOL0     C39872   3.058  11.585  -0.631  0.0322  0.6036  0.5760
  296MOL0     O39873   3.320  11.417  -0.441  0.4712  0.4434 -0.0503
  296MOL0     C39874   3.326  11.230  -0.727  0.1013  0.4089  1.4997
  296MOL0     C39875   3.370  11.108  -0.784  0.0075 -0.6094 -0.4102
  296MOL0     N39876   3.892  10.805  -0.474 -0.3890 -0.7215  0.1423
  296MOL0     N39877   3.973  10.907  -0.480  0.2937 -0.0538  0.1252
  296MOL0     C39878   4.910  11.106   0.074  0.1249  1.2409  0.0015
  296MOL0     C39879   4.967  11.200   0.158 -1.0803  0.2061 -0.4762
  296MOL0     C39880   5.207  11.544   0.310  0.8037  0.0319  0.0859
  296MOL0     C39881   5.134  11.660   0.320 -0.4689  0.0137  0.7407
  296MOL0     C39882   5.198  11.779   0.306 -0.6457  0.5884 -1.8601
  296MOL0     C39883   5.336  11.792   0.293 -0.7599 -0.1666  0.2438
  296MOL0     O39884   5.405  11.915   0.300 -0.1536  0.5681 -0.2168
  296MOL0     C39885   5.346  12.034   0.281 -0.2931 -0.5465 -0.4525
  296MOL0     C39886   5.460  12.145   0.258 -0.3531  0.2125 -0.2366
  296MOL0     C39887   5.589  12.092   0.196 -0.4140  0.1256  0.4531
  296MOL0     C39888   5.712  12.171   0.251  0.3064  0.6970  0.2013
  296MOL0     C39889   5.833  12.120   0.184  0.2485  1.5351 -0.4802
  296MOL0     C39890   5.939  12.078   0.126  0.0888 -0.1498 -0.3076
  296MOL0     C39891   5.409  11.672   0.277  0.5909 -0.6868 -0.0885
  296MOL0     C39892   5.347  11.547   0.287  0.1692  0.0999  0.6150
  296MOL0     H39893   5.274  11.192   0.017  0.2808 -1.7543 -2.6893
  296MOL0     H39894   5.149  11.045  -0.140  3.4640  2.0168  0.4955
  296MOL0     H39895   4.797  10.810  -0.170  0.4707  0.1617  1.1978
  296MOL0     H39896   4.789  10.890  -0.012  3.6746  2.4734  0.2696
  296MOL0     H39897   4.659  11.080  -0.139 -1.3548 -0.1663  1.2189
  296MOL0     H39898   4.718  11.003  -0.279 -0.5927  0.8363 -0.0187
  296MOL0     H39899   4.565  10.814  -0.269 -2.3582  0.4782 -2.1586
  296MOL0     H39900   4.500  10.861  -0.121 -4.0184  2.5000 -0.7047
  296MOL0     H39901   4.346  10.953  -0.216  1.9183 -1.5094  0.8850
  296MOL0     H39902   4.454  11.094  -0.221 -1.1087  0.0595  1.1167
  296MOL0     H39903   4.356  11.098  -0.420  1.1912  1.0483 -1.8363
  296MOL0     H39904   4.508  11.012  -0.460  0.7277 -0.8405  1.4344
  296MOL0     H39905   4.393  10.800  -0.464 -2.2476 -1.9489 -1.5025
  296MOL0     H39906   4.243  10.871  -0.404 -2.1989 -0.7351 -2.7299
  296MOL0     H39907   4.364  10.997  -0.664 -1.0478 -1.5481 -2.6481
  296MOL0     H39908   4.291  10.837  -0.687 -0.4722  1.0692 -1.1651
  296MOL0     H39909   4.151  11.021  -0.735 -0.4782  2.0840  0.6760
  296MOL0     H39910   4.161  11.084  -0.580 -0.4598 -0.6443  1.0252
  296MOL0     H39911   4.007  10.785  -0.776  0.5952  0.0952 -0.4400
  296MOL0     H39912   3.842  10.552  -0.612  3.7324 -0.1819 -0.4090
  296MOL0     H39913   3.700  10.663  -0.588 -0.0919 -2.1375  2.9228
  296MOL0     H39914   3.746  10.546  -0.810  3.1301 -0.7473  1.4695
  296MOL0     H39915   3.853  10.673  -0.850 -1.9759  0.3066 -0.4504
  296MOL0     H39916   3.552  10.678  -0.822 -1.1614  2.2296  0.0932
  296MOL0     H39917   3.651  10.746  -0.937  2.1605 -4.3262 -0.7051
  296MOL0     H39918   3.725  10.930  -0.806  0.7109 -0.7320 -0.7034
  296MOL0     H39919   3.657  10.857  -0.661  1.2885  1.4618  0.1073
  296MOL0     H39920   3.657  11.063  -0.621 -0.0164  1.3723  3.0348
  296MOL0     H39921   3.647  11.396  -0.529 -0.3394  1.1075  1.6802
  296MOL0     H39922   3.570  11.316  -0.385 -2.3748  2.1018 -0.9678
  296MOL0     H39923   3.700  11.241  -0.474  2.1342  2.1998 -1.6891
  296MOL0     H39924   3.355  11.715  -0.513  1.5168 -0.0871 -0.9655
  296MOL0     H39925   3.194  11.888  -0.444 -0.6150  1.0751 -1.5327
  296MOL0     H39926   2.780  11.801  -0.414 -0.3520  0.0034  1.2467
  296MOL0     H39927   2.927  11.786  -0.310  1.5174  0.7440 -0.3617
  296MOL0     H39928   2.763  12.030  -0.357  0.2640  1.1946  0.2170
  296MOL0     H39929   2.728  11.919  -0.223  1.4596 -2.6215 -1.1771
  296MOL0     H39930   2.936  12.130  -0.264 -3.1750 -0.9297 -2.1602
  296MOL0     H39931   3.014  11.977  -0.225  0.3969  1.2925  0.5199
  296MOL0     H39932   2.781  12.106  -0.068 -0.9320 -1.5039  4.4514
  296MOL0     H39933   2.863  11.973   0.000 -1.5150 -1.0994 -2.5492
  296MOL0     H39934   2.957  12.192   0.101  0.6352 -2.8919  0.7170
  296MOL0     H39935   3.016  12.226  -0.066  2.2340 -2.3130 -1.6246
  296MOL0     H39936   3.093  12.041   0.156 -1.2377  2.3359  1.8535
  296MOL0     H39937   3.118  11.996  -0.018  0.6392  2.0258 -1.9536
  296MOL0     H39938   3.314  12.091   0.099 -2.1338 -0.3676  2.7126
  296MOL0     H39939   3.231  12.250   0.112 -0.4876 -0.0220  0.9787
  296MOL0     H39940   3.221  12.275  -0.132 -1.1212  1.2375  3.6540
  296MOL0     H39941   3.275  12.108  -0.156  0.6331 -1.8513  2.5628
  296MOL0     H39942   2.867  11.667  -0.611  0.4117  0.4696 -2.3358
  296MOL0     H39943   3.017  11.500  -0.685 -1.1545 -0.3224  2.7969
  296MOL0     H39944   3.232  11.267  -0.767  0.4218 -1.6220 -1.5473
  296MOL0     H39945   3.308  11.070  -0.865 -0.7482  1.7766 -1.0632
  296MOL0     H39946   4.803  11.098   0.093  0.7611 -2.0751  3.3667
  296MOL0     H39947   4.921  11.245   0.245  0.8348 -2.0134  1.8424
  296MOL0     H39948   5.028  11.680   0.334 -0.4147  2.1112 -1.2798
  296MOL0     H39949   5.136  11.867   0.325  0.0099  1.0578 -1.8610
  296MOL0     H39950   5.280  12.033   0.194  0.2371  0.5895 -0.8854
  296MOL0     H39951   5.288  12.065   0.369 -0.3423  0.0684 -0.6965
  296MOL0     H39952   5.483  12.186   0.356 -0.1497 -2.7813  1.0538
  296MOL0     H39953   5.427  12.233   0.201  1.7131  0.3626 -1.2739
  296MOL0     H39954   5.581  12.095   0.087 -0.6599 -0.8676  0.4334
  296MOL0     H39955   5.597  11.984   0.214  1.4485  0.1232 -0.1737
  296MOL0     H39956   5.720  12.157   0.359  0.4584 -2.6457 -0.1464
  296MOL0     H39957   5.699  12.274   0.216  1.8768  0.6497 -0.6270
  296MOL0     H39958   6.030  12.038   0.087 -0.9670 -5.3202  1.6820
  296MOL0     H39959   5.509  11.672   0.233  0.1417 -1.6544 -1.1845
  296MOL0     H39960   5.404  11.457   0.272 -0.0535  0.2603 -1.4918
  297MOL0     O39961  10.776   8.554   4.433  0.4231 -0.0805  1.0444
  297MOL0     C39962  10.803   8.669   4.468  1.0050 -0.2846 -1.0608
  297MOL0     O39963  10.704   8.763   4.493 -0.3086  0.4445  0.6469
  297MOL0     C39964  10.570   8.739   4.470  0.2973 -0.9842 -0.4340
  297MOL0     C39965  10.503   8.859   4.448  0.4770  0.7012  0.7033
  297MOL0     C39966  10.370   8.857   4.412 -0.0755 -0.1096 -0.5413
  297MOL0     C39967  10.299   8.739   4.428 -0.3822  0.2936 -0.6909
  297MOL0     O39968  10.165   8.735   4.412  0.0578 -0.8245 -0.1522
  297MOL0     C39969  10.093   8.727   4.537  0.0202 -0.1557 -0.4737
  297MOL0     C39970   9.952   8.797   4.536 -0.6517  0.8359  0.6304
  297MOL0     C39971   9.951   8.947   4.505  0.1569  0.1945  0.5878
  297MOL0     C39972   9.877   9.019   4.609  0.7676  0.1957 -0.2653
  297MOL0     C39973   9.881   9.171   4.582  0.8560 -0.7174 -0.2459
  297MOL0     C39974   9.818   9.227   4.454 -0.1888  0.0629 -0.9527
  297MOL0     C39975   9.668   9.199   4.428 -0.7396  0.2902  0.1453
  297MOL0     C39976   9.578   9.227   4.547  0.2191 -0.0342  0.4127
  297MOL0     N39977   9.591   9.374   4.593  0.2592  1.2671  0.3287
  297MOL0     C39978   9.578   9.409   4.728  0.6333 -0.1584  0.4460
  297MOL0     C39979   9.589   9.544   4.731  0.0514  0.0082  0.1449
  297MOL0     C39980   9.581   9.645   4.836  0.6102  0.8053  1.0864
  297MOL0     C39981   9.439   9.697   4.848  0.1735  0.2177  0.3364
  297MOL0     C39982   9.407   9.818   4.756  0.5784 -0.1309 -1.5517
  297MOL0     C39983   9.359   9.790   4.615  0.6782  0.4605  0.0189
  297MOL0     O39984   9.290   9.905   4.572 -0.8545  0.2726 -0.5256
  297MOL0     C39985   9.317   9.946   4.446 -1.4997 -0.7771 -0.1981
  297MOL0     C39986   9.450   9.963   4.392  0.0034 -0.4265 -0.7189
  297MOL0     C39987   9.474  10.012   4.265 -1.0358  0.4177  2.1328
  297MOL0     C39988   9.619  10.003   4.214  0.5515 -0.2134 -0.1765
  297MOL0     C39989   9.363  10.033   4.182 -0.2091  0.1592  0.1384
  297MOL0     C39990   9.375  10.048   4.036 -0.3843 -0.0847  0.2206
  297MOL0     O39991   9.310  10.144   3.986 -0.5316 -0.8968 -0.2609
  297MOL0     C39992   9.249  10.151   3.868  0.1515 -0.3542  0.8177
  297MOL0     C39993   9.209  10.039   3.794  0.6763  0.5858  1.0406
  297MOL0     C39994   9.147  10.045   3.670 -0.9676  0.6077 -0.7821
  297MOL0     C39995   9.111  10.169   3.615 -0.2513  0.4682 -0.6843
  297MOL0     O39996   9.021  10.183   3.508  0.1959  0.5151  0.2965
  297MOL0     C39997   8.981  10.071   3.431  0.8320  0.5135 -0.8618
  297MOL0     C39998   8.889  10.109   3.313  0.4187  0.7645  1.2397
  297MOL0     C39999   8.959  10.140   3.176  1.5155 -0.4705 -0.1416
  297MOL0     C40000   9.054  10.257   3.171  0.1557 -1.4102  0.8912
  297MOL0     C40001   9.127  10.257   3.040  0.1610 -0.3709 -0.2262
  297MOL0     C40002   9.244  10.158   3.048  0.8414  0.6018 -0.2712
  297MOL0     C40003   9.307  10.173   2.914  0.2976 -0.5629 -0.2174
  297MOL0     C40004   9.449  10.127   2.901  0.3840 -0.7638  0.1558
  297MOL0    Cl40005   9.477  10.072   2.729 -0.1598 -0.1200  0.4138
  297MOL0     C40006   9.139  10.277   3.690  0.6745 -0.6734  0.3609
  297MOL0     C40007   9.213  10.278   3.812  1.4476 -1.2425 -0.3560
  297MOL0     O40008   9.445   9.970   3.969  0.6572  0.6247 -0.5530
  297MOL0     C40009   9.236  10.037   4.237 -1.0621 -0.7732 -0.6429
  297MOL0     C40010   9.215   9.991   4.370  0.5270 -0.8928  1.0229
  297MOL0     N40011   9.637   9.574   4.607 -0.6431 -0.7583 -0.2043
  297MOL0     N40012   9.625   9.483   4.522  0.1884 -0.0256  0.5012
  297MOL0     C40013  10.366   8.620   4.473  0.3247  0.4554  0.3816
  297MOL0     C40014  10.503   8.621   4.490 -0.3406 -0.3081 -0.6394
  297MOL0     C40015  10.937   8.704   4.473 -0.5044 -0.6420  0.6223
  297MOL0     C40016  11.050   8.617   4.466 -1.0530 -0.5414  0.0707
  297MOL0     C40017  11.179   8.655   4.459 -0.6835 -0.0136  0.4070
  297MOL0     C40018  11.207   8.793   4.459 -0.9243  0.5787  0.3073
  297MOL0     O40019  11.335   8.842   4.432  0.2827 -0.2221  0.2171
  297MOL0     C40020  11.445   8.745   4.439  0.0287  0.1576 -0.0448
  297MOL0     C40021  11.578   8.801   4.389  0.3163  0.3361  0.1268
  297MOL0     C40022  11.562   8.884   4.259 -0.1581 -0.2738  0.2959
  297MOL0     C40023  11.669   8.984   4.228 -0.7616 -0.3969  0.0843
  297MOL0     C40024  11.766   8.946   4.118  0.3430 -1.7097 -0.4898
  297MOL0     C40025  11.832   8.906   4.030 -0.5633  0.0143 -0.1671
  297MOL0     C40026  11.110   8.879   4.478 -0.2731  0.0229  0.8150
  297MOL0     C40027  10.976   8.840   4.480  0.1327 -0.6270 -0.0676
  297MOL0     H40028  10.560   8.950   4.461  1.5912  0.0986  0.1677
  297MOL0     H40029  10.318   8.948   4.382  2.4482  1.8867  0.7533
  297MOL0     H40030  10.083   8.619   4.549 -1.3962  0.0931  0.9045
  297MOL0     H40031  10.149   8.758   4.625 -1.1330  0.9276 -0.0872
  297MOL0     H40032   9.892   8.739   4.465  3.2938 -0.8706 -1.6458
  297MOL0     H40033   9.909   8.776   4.635 -2.0078 -2.9776 -0.6011
  297MOL0     H40034  10.052   8.987   4.490  0.1423  1.0992  2.6179
  297MOL0     H40035   9.898   8.972   4.412 -0.8596 -0.1361  1.0584
  297MOL0     H40036   9.780   8.970   4.601 -0.7398  2.8062  0.8010
  297MOL0     H40037   9.916   9.001   4.710 -0.8635 -3.2232 -0.1197
  297MOL0     H40038   9.831   9.223   4.664 -0.7479 -2.4406 -0.0340
  297MOL0     H40039   9.987   9.194   4.575  1.7855 -4.6290 -2.8509
  297MOL0     H40040   9.844   9.333   4.464  0.2894  0.1572 -2.7708
  297MOL0     H40041   9.874   9.178   4.374  1.7209  0.5099  0.0577
  297MOL0     H40042   9.630   9.252   4.340 -1.6356 -0.7024 -0.0847
  297MOL0     H40043   9.668   9.092   4.404 -0.9282  0.4809 -0.7298
  297MOL0     H40044   9.598   9.158   4.630 -0.0685 -0.7413 -0.1035
  297MOL0     H40045   9.473   9.220   4.517  0.4390  0.9588 -0.6494
  297MOL0     H40046   9.555   9.349   4.816 -1.6617  0.2902  0.2260
  297MOL0     H40047   9.613   9.596   4.928  3.1307  1.6185  0.7393
  297MOL0     H40048   9.644   9.735   4.825  0.1569  0.8961 -1.2716
  297MOL0     H40049   9.424   9.732   4.950  1.2870  2.0660 -0.0918
  297MOL0     H40050   9.358   9.624   4.838 -0.0014  0.5666 -1.0887
  297MOL0     H40051   9.488   9.892   4.751 -1.4260  2.1451 -1.9181
  297MOL0     H40052   9.328   9.875   4.805 -2.4405 -1.9539 -3.9857
  297MOL0     H40053   9.292   9.704   4.607  0.1744  0.9828 -2.1406
  297MOL0     H40054   9.449   9.763   4.559 -1.3097 -2.5251 -2.0688
  297MOL0     H40055   9.539   9.926   4.442  1.2436  3.4557  0.2626
  297MOL0     H40056   9.630  10.087   4.144 -0.9669 -2.8302 -3.8913
  297MOL0     H40057   9.688  10.012   4.298 -3.0699 -2.0302  3.3416
  297MOL0     H40058   9.628   9.910   4.157  1.0291  0.5245 -1.3568
  297MOL0     H40059   9.226   9.935   3.821  1.1333  0.6645  1.0595
  297MOL0     H40060   9.120   9.953   3.621 -1.2306  0.5746 -0.5741
  297MOL0     H40061   9.065  10.012   3.393  1.9624  1.2886  0.3614
  297MOL0     H40062   8.914  10.007   3.489  0.1851  2.0510  0.1394
  297MOL0     H40063   8.822  10.024   3.297  1.6011 -0.5443  2.9067
  297MOL0     H40064   8.840  10.204   3.340 -0.0226  1.2393 -1.0227
  297MOL0     H40065   8.872  10.149   3.110  1.6102 -1.9275 -0.5025
  297MOL0     H40066   9.017  10.054   3.139  1.8211 -0.3967  0.1618
  297MOL0     H40067   8.998  10.351   3.176  0.7795 -0.9693 -0.1172
  297MOL0     H40068   9.127  10.254   3.252 -0.7854 -2.8547  1.7372
  297MOL0     H40069   9.155  10.354   2.998 -2.4258  0.0912 -1.0716
  297MOL0     H40070   9.068  10.209   2.962  2.4131  0.7504 -2.8008
  297MOL0     H40071   9.312  10.204   3.120  4.1015 -1.8215 -1.5715
  297MOL0     H40072   9.204  10.058   3.066 -0.4993  1.1375 -0.1287
  297MOL0     H40073   9.307  10.280   2.888  1.8243  0.4204  3.1735
  297MOL0     H40074   9.240  10.119   2.847 -2.3021 -0.6126  2.2200
  297MOL0     H40075   9.462  10.048   2.976  0.0459 -1.2799 -0.3224
  297MOL0     H40076   9.517  10.210   2.922 -0.7051  0.6486 -1.5686
  297MOL0     H40077   9.089  10.363   3.647 -0.8123 -2.8467 -2.6401
  297MOL0     H40078   9.246  10.373   3.854  1.3022 -1.1710 -0.4044
  297MOL0     H40079   9.147  10.048   4.176 -0.3131  0.7752 -1.5037
  297MOL0     H40080   9.111   9.998   4.398 -1.4876  0.3715 -5.1127
  297MOL0     H40081  10.314   8.526   4.483  0.4679  0.4106  0.7114
  297MOL0     H40082  10.557   8.539   4.537  1.2607  1.9892  1.7961
  297MOL0     H40083  11.039   8.509   4.457 -2.0676 -0.5493  1.1293
  297MOL0     H40084  11.265   8.589   4.462 -0.7722 -0.2505 -1.3995
  297MOL0     H40085  11.453   8.699   4.538 -4.7803 -1.6026 -0.2017
  297MOL0     H40086  11.418   8.670   4.364 -1.3239  1.0091 -0.4501
  297MOL0     H40087  11.642   8.713   4.385 -0.8090 -1.1256  5.7584
  297MOL0     H40088  11.624   8.862   4.468 -0.2636  2.0813 -0.8214
  297MOL0     H40089  11.468   8.938   4.273 -0.2720 -0.8726  2.1183
  297MOL0     H40090  11.564   8.820   4.170  2.8398  0.4853 -0.3018
  297MOL0     H40091  11.744   9.007   4.304 -1.6387 -0.9514  1.1531
  297MOL0     H40092  11.626   9.081   4.204  1.3123  0.4337 -0.4810
  297MOL0     H40093  11.886   8.855   3.952 -1.3069 -2.6752  0.9676
  297MOL0     H40094  11.131   8.986   4.470 -0.9128  0.2509  2.0197
  297MOL0     H40095  10.901   8.909   4.514  1.6858 -0.0459  2.4311
  298MOL0     O40096   0.480   5.156   5.678 -0.4681  0.1215  0.6956
  298MOL0     C40097   0.376   5.159   5.608  0.5252 -0.1850 -0.4048
  298MOL0     O40098   0.254   5.219   5.648 -0.3465  0.1737 -0.0619
  298MOL0     C40099   0.240   5.274   5.768 -0.6131 -0.5008  0.0261
  298MOL0     C40100   0.245   5.202   5.886 -0.0500 -0.2627  0.8705
  298MOL0     C40101   0.213   5.267   6.001  0.1021 -0.2193 -0.3107
  298MOL0     C40102   0.196   5.409   6.009 -0.1437  0.0432  0.1263
  298MOL0     O40103   0.192   5.460   6.135  0.0074  0.2233 -0.1462
  298MOL0     C40104   0.170   5.598   6.157  0.2389 -0.2763 -0.0044
  298MOL0     C40105   0.226   5.649   6.292  0.2908  0.3078 -0.0353
  298MOL0     C40106   0.179   5.587   6.413 -0.1547 -0.6090 -0.0191
  298MOL0     C40107   0.020   5.590   6.426  1.1934 -0.0484 -0.6236
  298MOL0     C40108  -0.017   5.498   6.548 -0.0237 -0.7016  0.6035
  298MOL0     C40109   0.020   5.578   6.684 -0.3518  0.5654  0.5988
  298MOL0     C40110  -0.009   5.498   6.800  0.1217  0.3823  0.6003
  298MOL0     C40111  -0.150   5.431   6.785 -0.2983 -0.2422 -0.3049
  298MOL0     N40112  -0.201   5.392   6.922 -0.2346 -0.2162  0.0651
  298MOL0     C40113  -0.283   5.457   7.006  0.5538  0.7952  0.7285
  298MOL0     C40114  -0.291   5.374   7.123 -0.4061  0.6843 -0.1934
  298MOL0     C40115  -0.390   5.388   7.242 -0.2885 -0.6704  0.0736
  298MOL0     C40116  -0.319   5.424   7.371 -0.5775  0.2387 -1.1402
  298MOL0     C40117  -0.385   5.537   7.459 -0.7302 -0.2979  0.5824
  298MOL0     C40118  -0.514   5.487   7.526 -0.7928  0.3820 -0.2498
  298MOL0     O40119  -0.570   5.592   7.603  0.6758  0.3594 -0.8550
  298MOL0     C40120  -0.504   5.616   7.724  0.4364 -0.2801 -0.2266
  298MOL0     C40121  -0.392   5.547   7.771  0.5040 -0.0097  0.1729
  298MOL0     C40122  -0.336   5.580   7.887  0.1505  0.1343  0.0313
  298MOL0     C40123  -0.202   5.510   7.918  0.2230  0.5541 -0.2777
  298MOL0     C40124  -0.388   5.676   7.975 -0.5966  0.2518  0.3941
  298MOL0     C40125  -0.326   5.714   8.102  0.5279  0.1157  0.1681
  298MOL0     O40126  -0.424   5.736   8.204  0.7662  0.9033  0.7545
  298MOL0     C40127  -0.362   5.770   8.317 -0.4568 -0.4955 -0.4872
  298MOL0     C40128  -0.349   5.901   8.367  0.4884  0.7860  0.0872
  298MOL0     C40129  -0.299   5.921   8.487 -0.4836 -0.2183 -0.3017
  298MOL0     C40130  -0.244   5.816   8.570 -0.2009 -0.0701  0.6630
  298MOL0     O40131  -0.206   5.850   8.690  0.4877 -0.0860 -0.7272
  298MOL0     C40132  -0.223   5.744   8.784 -0.0544 -0.3595  0.1658
  298MOL0     C40133  -0.165   5.777   8.921  0.0770  0.5281 -0.0525
  298MOL0     C40134  -0.212   5.677   9.032 -0.4179  0.1577  1.2881
  298MOL0     C40135  -0.173   5.528   9.020  0.3788 -0.4275  0.0151
  298MOL0     C40136  -0.220   5.442   9.148 -0.2127  0.1000 -0.1938
  298MOL0     C40137  -0.267   5.304   9.093  0.0313 -0.7596 -0.0786
  298MOL0     C40138  -0.338   5.241   9.214 -0.4239  0.2974 -0.1855
  298MOL0     C40139  -0.342   5.083   9.200 -0.1840  0.4551 -0.2995
  298MOL0    Cl40140  -0.376   5.016   9.370 -0.4116 -0.4931  0.2729
  298MOL0     C40141  -0.251   5.686   8.512  0.1035 -0.6710 -0.4926
  298MOL0     C40142  -0.310   5.663   8.387 -0.2180  0.9246  0.4663
  298MOL0     O40143  -0.204   5.731   8.110 -0.2377 -0.9576  0.1684
  298MOL0     C40144  -0.510   5.735   7.936 -0.2197 -0.2273  0.3161
  298MOL0     C40145  -0.563   5.715   7.813 -0.3511  0.7803  0.4385
  298MOL0     N40146  -0.214   5.260   7.099 -0.0886  0.9604 -1.0491
  298MOL0     N40147  -0.156   5.275   6.982 -0.0703  0.8380 -0.5221
  298MOL0     C40148   0.192   5.480   5.887 -0.6748 -0.2652 -0.1048
  298MOL0     C40149   0.218   5.411   5.767 -0.1747  0.1373 -0.5803
  298MOL0     C40150   0.378   5.088   5.487 -0.6619 -0.9003 -1.1735
  298MOL0     C40151   0.497   5.069   5.410 -0.1419  0.4661  0.3040
  298MOL0     C40152   0.501   4.999   5.286  0.4060  0.4422 -0.6956
  298MOL0     C40153   0.384   4.935   5.243  0.6463  0.9605  0.4906
  298MOL0     O40154   0.379   4.866   5.122  0.3153 -0.2293  0.4006
  298MOL0     C40155   0.366   4.968   5.013  0.0658 -0.4789  0.6550
  298MOL0     C40156   0.389   4.895   4.882 -0.2532  0.8021 -0.5454
  298MOL0     C40157   0.528   4.825   4.875  0.1112  0.5567  0.6814
  298MOL0     C40158   0.631   4.915   4.802  0.9147  0.7382 -0.3451
  298MOL0     C40159   0.647   5.041   4.873  0.6020  0.3626 -0.8241
  298MOL0     C40160   0.667   5.147   4.921  0.8058 -1.0012  0.3806
  298MOL0     C40161   0.266   4.945   5.318 -0.8196 -0.0347 -0.2866
  298MOL0     C40162   0.264   5.028   5.433  0.9201  0.1326 -0.8612
  298MOL0     H40163   0.257   5.094   5.886 -2.9129 -0.7048  2.9836
  298MOL0     H40164   0.183   5.217   6.092  1.6556  1.0784  0.9864
  298MOL0     H40165   0.222   5.666   6.089  0.6267  0.0024  0.5538
  298MOL0     H40166   0.066   5.628   6.144  0.5866  0.7395 -0.5977
  298MOL0     H40167   0.334   5.639   6.283  0.3302  1.2549 -0.7993
  298MOL0     H40168   0.208   5.757   6.294  2.1526  0.7718 -2.8502
  298MOL0     H40169   0.227   5.492   6.440 -3.8993 -2.9997 -0.9780
  298MOL0     H40170   0.220   5.643   6.497  1.7609 -3.2310  0.9322
  298MOL0     H40171  -0.015   5.693   6.430  1.3607 -0.0175  1.2081
  298MOL0     H40172  -0.028   5.533   6.346  0.8694 -1.3771  0.4665
  298MOL0     H40173  -0.120   5.466   6.537  0.0844 -0.0796 -5.0739
  298MOL0     H40174   0.042   5.406   6.553 -0.4400 -1.1133 -1.5016
  298MOL0     H40175   0.122   5.616   6.677  0.9592 -2.9443 -2.8935
  298MOL0     H40176  -0.048   5.663   6.676 -2.8857 -1.5108 -2.3737
  298MOL0     H40177   0.068   5.421   6.801 -1.2843 -1.2751 -2.9131
  298MOL0     H40178  -0.017   5.556   6.892  0.7342  1.6645 -0.1319
  298MOL0     H40179  -0.143   5.340   6.725  2.3211 -1.2667  1.3720
  298MOL0     H40180  -0.206   5.515   6.743  3.7519  4.5411  2.7806
  298MOL0     H40181  -0.331   5.553   6.993  2.1740  1.6658  0.8209
  298MOL0     H40182  -0.458   5.470   7.218  0.8187 -0.0428 -1.0435
  298MOL0     H40183  -0.456   5.300   7.247 -2.2835  0.7632  4.7237
  298MOL0     H40184  -0.212   5.441   7.355 -0.2214  0.0972  0.7752
  298MOL0     H40185  -0.301   5.338   7.437 -0.2084  0.0515 -1.4813
  298MOL0     H40186  -0.394   5.625   7.394  3.3114  0.1147  0.2995
  298MOL0     H40187  -0.302   5.553   7.529  2.6109 -4.0890 -2.0208
  298MOL0     H40188  -0.494   5.405   7.595  1.0174  0.6375 -0.4251
  298MOL0     H40189  -0.578   5.452   7.445  0.1482 -0.7582 -0.5398
  298MOL0     H40190  -0.340   5.473   7.711  2.0748  0.5587  0.7780
  298MOL0     H40191  -0.189   5.522   8.027  0.9847  1.5959 -0.4612
  298MOL0     H40192  -0.212   5.403   7.901  0.5313  0.0866  2.0395
  298MOL0     H40193  -0.112   5.553   7.873 -1.1667  2.8426 -1.0269
  298MOL0     H40194  -0.404   5.977   8.313  0.2723  0.8295  0.3644
  298MOL0     H40195  -0.324   6.017   8.530 -4.7180 -1.0306 -0.5072
  298MOL0     H40196  -0.325   5.706   8.793 -0.7449  1.7123  1.8628
  298MOL0     H40197  -0.161   5.660   8.752  2.9369  1.3834  0.9830
  298MOL0     H40198  -0.057   5.763   8.918  0.1572  1.1886 -0.3924
  298MOL0     H40199  -0.182   5.872   8.972 -0.3079 -0.8353  2.5118
  298MOL0     H40200  -0.321   5.688   9.038 -0.3363  1.6107  0.6200
  298MOL0     H40201  -0.158   5.715   9.118 -0.6536  0.9366  1.0995
  298MOL0     H40202  -0.217   5.486   8.930  1.7374 -0.3678 -0.7029
  298MOL0     H40203  -0.064   5.524   9.005  0.6541  3.2071 -0.0567
  298MOL0     H40204  -0.300   5.499   9.196  0.4284 -0.0729  1.1280
  298MOL0     H40205  -0.136   5.447   9.219 -1.5411  0.0221  1.4513
  298MOL0     H40206  -0.343   5.316   9.015 -0.3420  2.5377  0.6595
  298MOL0     H40207  -0.185   5.242   9.054 -0.7742 -0.8677 -1.6915
  298MOL0     H40208  -0.441   5.275   9.218  0.1103  1.9410  0.7635
  298MOL0     H40209  -0.290   5.276   9.306 -2.8750 -1.6678  2.0090
  298MOL0     H40210  -0.252   5.030   9.170 -1.2755 -0.8788 -1.3755
  298MOL0     H40211  -0.416   5.055   9.125 -1.9175  4.8008 -0.4923
  298MOL0     H40212  -0.211   5.596   8.559  2.5411 -1.3305 -3.4941
  298MOL0     H40213  -0.309   5.563   8.344 -0.2489  0.8715  0.5891
  298MOL0     H40214  -0.560   5.804   8.003 -1.5529  0.2080 -1.0965
  298MOL0     H40215  -0.657   5.765   7.792  0.4138  1.8797 -0.4514
  298MOL0     H40216   0.198   5.588   5.881  0.1094 -0.3445 -1.0596
  298MOL0     H40217   0.212   5.454   5.667  1.0302 -1.3455 -1.3401
  298MOL0     H40218   0.590   5.114   5.442  0.1344  0.9305 -1.1271
  298MOL0     H40219   0.587   4.983   5.221 -0.9060  1.1494 -2.6764
  298MOL0     H40220   0.260   4.995   5.023  0.0038 -1.2135  2.3092
  298MOL0     H40221   0.423   5.059   5.033 -1.8162  1.0597 -0.5791
  298MOL0     H40222   0.389   4.973   4.806  0.8572 -0.6453 -2.1135
  298MOL0     H40223   0.302   4.833   4.854  0.3386  1.3773 -4.1145
  298MOL0     H40224   0.520   4.728   4.825  0.0309 -0.1472  2.0288
  298MOL0     H40225   0.563   4.803   4.976  2.3378  2.1626  0.3262
  298MOL0     H40226   0.591   4.940   4.703  0.5913 -1.9488 -0.9645
  298MOL0     H40227   0.730   4.870   4.790  1.8053  2.0001  1.6737
  298MOL0     H40228   0.700   5.248   4.939  1.6615 -0.3955 -3.5121
  298MOL0     H40229   0.175   4.904   5.276 -0.4497 -0.3431 -0.8041
  298MOL0     H40230   0.169   5.039   5.485  1.8556 -2.6773  1.6978
  299MOL0     O40231   7.137   4.857   6.549  0.3475  0.2926 -0.2337
  299MOL0     C40232   7.118   4.844   6.432  0.5417 -0.8620  0.0915
  299MOL0     O40233   7.221   4.833   6.346  0.9277 -0.1307 -0.3118
  299MOL0     C40234   7.340   4.872   6.378 -0.2180 -0.4330 -1.3935
  299MOL0     C40235   7.388   5.007   6.371 -0.9574  0.1361 -0.2138
  299MOL0     C40236   7.520   5.039   6.401  0.7831  0.3689  0.3512
  299MOL0     C40237   7.612   4.937   6.428 -0.2698  0.9622 -0.2256
  299MOL0     O40238   7.747   4.958   6.429 -0.1923  0.3757  0.3398
  299MOL0     C40239   7.799   5.039   6.538  0.3797  0.6111 -0.5602
  299MOL0     C40240   7.939   5.090   6.519  0.0503 -0.1445 -0.0278
  299MOL0     C40241   7.973   5.190   6.633  0.2323 -0.9690  0.1446
  299MOL0     C40242   7.941   5.136   6.782 -1.1323  0.3158  0.3086
  299MOL0     C40243   8.005   5.215   6.901 -0.3347 -0.1544 -0.1729
  299MOL0     C40244   7.983   5.152   7.034  0.7192  0.1568  0.4268
  299MOL0     C40245   8.050   5.244   7.145  0.1269 -0.3175  0.6764
  299MOL0     C40246   8.025   5.202   7.280  0.5429  0.0422 -0.4314
  299MOL0     N40247   7.877   5.199   7.298 -0.3836  0.0675 -0.9463
  299MOL0     C40248   7.788   5.297   7.266  0.6587  0.1356 -1.0083
  299MOL0     C40249   7.668   5.257   7.283  0.0619 -0.5610 -0.1547
  299MOL0     C40250   7.551   5.346   7.241 -0.7110 -0.2749 -0.5617
  299MOL0     C40251   7.536   5.333   7.088 -0.1191  0.0072 -0.4667
  299MOL0     C40252   7.644   5.388   6.987  0.3796 -0.6234  0.9028
  299MOL0     C40253   7.670   5.535   6.978 -0.0821  0.6859 -0.0499
  299MOL0     O40254   7.767   5.587   7.078  0.6971 -0.2119 -0.3064
  299MOL0     C40255   7.787   5.718   7.093 -0.1732 -0.9489  0.5543
  299MOL0     C40256   7.689   5.819   7.070  0.1360  0.3282 -0.0311
  299MOL0     C40257   7.711   5.954   7.079  0.2969 -0.1260 -0.2419
  299MOL0     C40258   7.590   6.049   7.040 -0.5181 -0.5000 -0.9383
  299MOL0     C40259   7.839   5.993   7.131 -0.2054 -0.3837  0.0261
  299MOL0     C40260   7.879   6.133   7.131  0.1740  0.1200  0.5322
  299MOL0     O40261   7.845   6.211   7.027 -0.2017 -0.6882 -0.0271
  299MOL0     C40262   7.911   6.332   7.025 -0.5790  0.3044  0.7023
  299MOL0     C40263   7.990   6.347   6.909  0.5979  0.1615  0.3917
  299MOL0     C40264   8.062   6.467   6.892  0.2868 -0.2881 -0.1727
  299MOL0     C40265   8.048   6.573   6.983 -0.8506  0.4486 -0.7754
  299MOL0     O40266   8.116   6.695   6.979 -0.2462  0.2540 -0.3337
  299MOL0     C40267   8.236   6.702   6.906  0.1470 -0.6341  0.6167
  299MOL0     C40268   8.229   6.810   6.792  0.8751  0.4102 -0.8863
  299MOL0     C40269   8.106   6.776   6.703  0.2136  0.0192  0.8869
  299MOL0     C40270   8.001   6.878   6.696  0.4941 -0.0493 -0.1401
  299MOL0     C40271   7.895   6.837   6.593 -0.1398 -1.1225 -1.2335
  299MOL0     C40272   7.811   6.711   6.622 -0.2358 -0.4488 -0.3419
  299MOL0     C40273   7.699   6.660   6.527  0.7152 -0.2905  0.1204
  299MOL0     C40274   7.562   6.711   6.541  0.8983  0.0283  0.3630
  299MOL0    Cl40275   7.538   6.850   6.645  0.7083  0.1307 -0.0403
  299MOL0     C40276   7.968   6.552   7.099  0.3692 -0.4973  0.5719
  299MOL0     C40277   7.896   6.431   7.119  0.2823 -0.0853 -0.6825
  299MOL0     O40278   7.950   6.159   7.222 -1.0495 -0.5815 -0.2477
  299MOL0     C40279   7.929   5.898   7.166 -0.7259  0.1613  0.1808
  299MOL0     C40280   7.907   5.763   7.143  0.1995  0.1841 -0.6482
  299MOL0     N40281   7.676   5.129   7.338  0.8024  0.7959 -0.0971
  299MOL0     N40282   7.800   5.104   7.343 -0.9933  0.4126  0.6925
  299MOL0     C40283   7.557   4.806   6.443 -0.5774  0.2177 -0.1306
  299MOL0     C40284   7.429   4.775   6.412  0.2165  0.3559 -0.1768
  299MOL0     C40285   6.980   4.804   6.380 -1.3074 -0.4995 -0.4638
  299MOL0     C40286   6.965   4.766   6.244  0.1096 -0.0391  0.0838
  299MOL0     C40287   6.836   4.726   6.198 -0.2190  0.6763  0.3061
  299MOL0     C40288   6.724   4.733   6.289  0.4215  0.2534  0.1677
  299MOL0     O40289   6.604   4.707   6.229 -0.1418 -0.8669 -0.2036
  299MOL0     C40290   6.492   4.792   6.231 -0.6781  0.0902  0.3300
  299MOL0     C40291   6.392   4.766   6.338  0.9875  1.0804 -0.1536
  299MOL0     C40292   6.337   4.623   6.338  0.3335  0.2902 -0.6854
  299MOL0     C40293   6.200   4.616   6.409  0.1462 -0.6611 -1.0682
  299MOL0     C40294   6.142   4.493   6.366 -0.1260 -0.7230  0.6185
  299MOL0     C40295   6.067   4.401   6.345  0.1671 -0.6738  0.1747
  299MOL0     C40296   6.747   4.757   6.424 -0.5403 -0.0186  0.7999
  299MOL0     C40297   6.876   4.793   6.468 -0.7419  0.0617  1.1747
  299MOL0     H40298   7.311   5.082   6.353  0.4392  1.3116 -1.6472
  299MOL0     H40299   7.554   5.142   6.394 -1.2496  0.9788 -2.2998
  299MOL0     H40300   7.728   5.117   6.567 -1.4486 -1.1097 -0.1619
  299MOL0     H40301   7.813   4.973   6.624  4.4260  1.8461 -0.0923
  299MOL0     H40302   8.015   5.012   6.519  0.9194  0.6639 -0.7125
  299MOL0     H40303   7.949   5.130   6.418  0.4159 -1.0630 -0.3634
  299MOL0     H40304   8.077   5.223   6.627 -0.9591  3.4109  0.1426
  299MOL0     H40305   7.915   5.282   6.627  0.8236 -0.0564  4.8973
  299MOL0     H40306   7.835   5.147   6.803 -0.8922  2.9408  0.4284
  299MOL0     H40307   7.971   5.031   6.794 -0.1401  0.7214  1.7245
  299MOL0     H40308   8.111   5.232   6.882 -0.1002 -0.2380  0.9833
  299MOL0     H40309   7.956   5.313   6.897 -0.5834 -0.2185  0.9695
  299MOL0     H40310   7.875   5.139   7.044  0.3694  2.5129  0.3211
  299MOL0     H40311   8.030   5.054   7.038  2.3631  0.8829 -0.2346
  299MOL0     H40312   8.157   5.235   7.123 -0.2607  1.6057 -2.7837
  299MOL0     H40313   8.023   5.350   7.138 -0.4546 -0.4146  1.3275
  299MOL0     H40314   8.054   5.272   7.358  0.8497 -0.9415  0.3568
  299MOL0     H40315   8.077   5.108   7.298  3.1828  1.5008  0.0660
  299MOL0     H40316   7.811   5.396   7.226  0.9348  1.8292  2.8527
  299MOL0     H40317   7.468   5.298   7.294 -0.4272 -0.2371 -0.0776
  299MOL0     H40318   7.553   5.449   7.278  0.0899 -0.8649  1.1617
  299MOL0     H40319   7.442   5.386   7.070  0.7736  1.9546  0.3687
  299MOL0     H40320   7.517   5.226   7.072 -3.3415  0.0710  1.9463
  299MOL0     H40321   7.598   5.366   6.891 -1.9096  1.3508  1.4459
  299MOL0     H40322   7.733   5.326   6.997  0.9859  0.0980  0.1985
  299MOL0     H40323   7.572   5.581   6.993 -0.5078  0.0737 -0.8407
  299MOL0     H40324   7.715   5.553   6.879 -1.0316  0.6956 -0.4903
  299MOL0     H40325   7.586   5.800   7.042  0.1250 -0.9602  0.7990
  299MOL0     H40326   7.493   6.009   7.069 -3.0219  5.1412 -0.1421
  299MOL0     H40327   7.589   6.150   7.081 -2.1306  0.0683 -2.2674
  299MOL0     H40328   7.581   6.066   6.932 -1.5714  0.3681 -0.7316
  299MOL0     H40329   7.993   6.271   6.832  2.6025  0.9975 -0.4257
  299MOL0     H40330   8.110   6.477   6.795 -1.8454 -0.9647 -1.3527
  299MOL0     H40331   8.303   6.735   6.986 -4.6662  2.9896  3.7560
  299MOL0     H40332   8.273   6.609   6.862 -2.3545 -0.9611 -0.9833
  299MOL0     H40333   8.217   6.910   6.835 -0.5650  0.3880 -1.1980
  299MOL0     H40334   8.328   6.808   6.746  1.0556  0.5050 -0.5066
  299MOL0     H40335   8.060   6.683   6.738 -1.1806 -0.0908 -1.0824
  299MOL0     H40336   8.148   6.749   6.606  1.4459 -2.7959  2.0609
  299MOL0     H40337   7.942   6.902   6.785 -1.8942  0.6742 -1.8148
  299MOL0     H40338   8.053   6.966   6.657 -2.0012  0.8615 -1.6631
  299MOL0     H40339   7.953   6.828   6.500  1.6616 -4.1169  0.0510
  299MOL0     H40340   7.816   6.910   6.576  0.5990  0.8638  2.8020
  299MOL0     H40341   7.875   6.623   6.617 -0.9918 -1.0896  0.8320
  299MOL0     H40342   7.775   6.715   6.726  5.8762  0.0599  2.1902
  299MOL0     H40343   7.694   6.552   6.541  3.7677 -0.2681  2.6970
  299MOL0     H40344   7.724   6.690   6.425 -2.4126 -0.8493 -0.9329
  299MOL0     H40345   7.494   6.632   6.573  2.1434  0.3759  4.4095
  299MOL0     H40346   7.517   6.738   6.445 -0.2922  0.8058  1.1096
  299MOL0     H40347   7.966   6.626   7.179  2.6627  0.3170 -0.0506
  299MOL0     H40348   7.846   6.417   7.214 -0.4736 -1.2847 -1.2306
  299MOL0     H40349   8.024   5.926   7.210 -2.6111  0.5569  4.5357
  299MOL0     H40350   7.983   5.692   7.172  0.6737 -0.0650 -2.4020
  299MOL0     H40351   7.631   4.728   6.459  0.7507  1.9354  2.8232
  299MOL0     H40352   7.384   4.678   6.427 -3.9362  1.6622 -2.5134
  299MOL0     H40353   7.054   4.767   6.183  0.7415 -0.3174  0.9778
  299MOL0     H40354   6.818   4.703   6.094  3.0510  0.2899 -0.2899
  299MOL0     H40355   6.525   4.894   6.252  3.7674 -0.6277 -2.0288
  299MOL0     H40356   6.439   4.793   6.135  1.6099  0.3625 -0.9976
  299MOL0     H40357   6.307   4.829   6.308  2.5875  2.8636 -1.1956
  299MOL0     H40358   6.416   4.793   6.441 -0.6321 -2.1023  1.1881
  299MOL0     H40359   6.414   4.561   6.385  1.0178  1.5354 -0.1229
  299MOL0     H40360   6.321   4.587   6.236  0.2492  0.6165 -0.7891
  299MOL0     H40361   6.142   4.705   6.388 -1.3401 -1.2800  0.2805
  299MOL0     H40362   6.212   4.622   6.517 -0.3969 -0.2990 -1.0288
  299MOL0     H40363   6.010   4.317   6.314  0.0049 -0.4072 -0.2523
  299MOL0     H40364   6.676   4.738   6.504  1.6904 -1.0213  2.6635
  299MOL0     H40365   6.885   4.815   6.574 -1.6021  0.5783  1.1467
  300MOL0     O40366   4.877   5.174   7.870 -0.2650 -0.3679 -0.3780
  300MOL0     C40367   4.832   5.178   7.986  0.1530 -0.1790  0.4807
  300MOL0     O40368   4.732   5.262   8.036 -0.2407 -0.3687  0.6115
  300MOL0     C40369   4.748   5.394   8.017 -0.0385 -1.3479 -0.1298
  300MOL0     C40370   4.638   5.467   7.971 -0.2089 -0.6982 -0.6433
  300MOL0     C40371   4.658   5.601   7.935  0.1100  0.4982  0.9141
  300MOL0     C40372   4.783   5.655   7.937 -0.8274 -0.4192 -0.5984
  300MOL0     O40373   4.807   5.783   7.885 -0.5271 -0.5655 -0.6927
  300MOL0     C40374   4.820   5.792   7.748  0.6413  0.0151  0.4112
  300MOL0     C40375   4.774   5.921   7.698  0.0330 -0.6671  0.0589
  300MOL0     C40376   4.831   5.966   7.559 -0.0732 -0.1158  0.0238
  300MOL0     C40377   4.841   6.121   7.542 -0.4441  0.6179 -0.6845
  300MOL0     C40378   4.881   6.136   7.384  0.2931  0.7772 -0.6410
  300MOL0     C40379   4.885   6.279   7.351 -0.0953  0.1900 -0.2688
  300MOL0     C40380   4.986   6.357   7.439  0.0168  0.5817  0.5959
  300MOL0     C40381   5.017   6.491   7.378 -0.9908 -0.3200  1.0030
  300MOL0     N40382   5.104   6.489   7.255  0.3520 -0.0763 -0.4376
  300MOL0     C40383   5.228   6.434   7.258 -0.4547 -0.0178 -0.1814
  300MOL0     C40384   5.272   6.461   7.134 -0.2163  0.8233 -0.5949
  300MOL0     C40385   5.405   6.412   7.095 -0.0539  0.0370  0.2883
  300MOL0     C40386   5.410   6.251   7.074 -0.7365 -0.3599 -0.1494
  300MOL0     C40387   5.300   6.206   6.976  0.2733  0.8663 -0.3076
  300MOL0     C40388   5.275   6.057   6.992  0.8177  0.1765 -0.2949
  300MOL0     O40389   5.179   6.027   6.882  0.5083 -0.1866  0.0516
  300MOL0     C40390   5.135   5.903   6.874 -0.0039  1.3160 -0.6847
  300MOL0     C40391   5.060   5.862   6.768  0.6696 -0.3903  0.1944
  300MOL0     C40392   5.013   5.735   6.740  0.5779 -0.1213 -0.3966
  300MOL0     C40393   4.932   5.725   6.618  1.1656  1.3010 -0.2638
  300MOL0     C40394   5.054   5.631   6.824 -0.6192  0.2263  0.0273
  300MOL0     C40395   4.994   5.493   6.821 -0.7635  0.5797  0.8473
  300MOL0     O40396   4.891   5.458   6.736  0.2714 -0.4382 -0.0526
  300MOL0     C40397   4.835   5.334   6.741 -0.4916  0.1170 -0.1644
  300MOL0     C40398   4.749   5.286   6.841  0.2516 -0.8743  1.3514
  300MOL0     C40399   4.702   5.153   6.845 -1.1318 -0.8659 -0.0276
  300MOL0     C40400   4.764   5.054   6.762  0.8642 -0.1229 -0.3657
  300MOL0     O40401   4.726   4.928   6.782  0.1286  0.5484 -0.2532
  300MOL0     C40402   4.632   4.887   6.891 -0.2080  0.3859 -0.0327
  300MOL0     C40403   4.607   4.734   6.884  0.5397 -1.1431  0.4134
  300MOL0     C40404   4.483   4.719   6.962  0.4044  0.9739  0.1223
  300MOL0     C40405   4.425   4.581   6.918 -0.3604 -0.3181  0.3532
  300MOL0     C40406   4.316   4.609   6.805 -0.0332  0.0052  0.2385
  300MOL0     C40407   4.268   4.484   6.752 -0.8280 -0.5629 -0.6298
  300MOL0     C40408   4.173   4.414   6.846  0.7390  0.0532 -0.4623
  300MOL0     C40409   4.175   4.265   6.820 -0.1669 -0.3369  0.0053
  300MOL0    Cl40410   4.041   4.167   6.879 -0.3444  0.3332  0.0959
  300MOL0     C40411   4.842   5.090   6.662 -0.6779 -0.4681  0.8951
  300MOL0     C40412   4.880   5.226   6.651  0.7923 -0.6683 -0.0786
  300MOL0     O40413   5.044   5.414   6.900  0.0883 -1.2806 -0.2038
  300MOL0     C40414   5.133   5.663   6.939 -0.8644 -0.4660  0.2598
  300MOL0     C40415   5.168   5.798   6.970 -0.2042 -0.1507 -0.1048
  300MOL0     N40416   5.170   6.524   7.058  0.3117 -0.1036 -0.6221
  300MOL0     N40417   5.076   6.551   7.139  0.4723  0.5039 -0.6640
  300MOL0     C40418   4.887   5.590   7.993  0.1689  0.1048 -0.3234
  300MOL0     C40419   4.868   5.461   8.040  0.5779 -0.3046  0.1547
  300MOL0     C40420   4.858   5.069   8.082 -0.1681 -0.2221  0.3162
  300MOL0     C40421   4.886   4.938   8.034  0.8100 -0.4568  0.9770
  300MOL0     C40422   4.939   4.841   8.111  0.0599  0.1169  0.0414
  300MOL0     C40423   4.966   4.863   8.245  0.1886  0.1607 -0.6834
  300MOL0     O40424   5.010   4.769   8.332 -0.5181  0.7950  0.6827
  300MOL0     C40425   5.054   4.640   8.284  0.0025  0.5940  0.2030
  300MOL0     C40426   5.199   4.651   8.227 -0.1161 -0.2546 -0.5897
  300MOL0     C40427   5.300   4.646   8.349 -0.2027  1.2693 -0.1480
  300MOL0     C40428   5.451   4.634   8.298  0.0858 -0.0636  0.4747
  300MOL0     C40429   5.532   4.606   8.419  0.2365  1.3056 -0.4303
  300MOL0     C40430   5.615   4.568   8.505 -0.5292 -0.0592 -0.2756
  300MOL0     C40431   4.929   4.976   8.309  0.0320 -0.7259 -0.0873
  300MOL0     C40432   4.872   5.081   8.224 -0.7560  0.1424  0.6165
  300MOL0     H40433   4.539   5.423   7.979 -0.5113  0.2592  1.6735
  300MOL0     H40434   4.568   5.653   7.903 -2.7752 -3.1593  2.4389
  300MOL0     H40435   4.918   5.762   7.709 -0.7700 -1.8747 -1.9378
  300MOL0     H40436   4.747   5.730   7.696 -1.6688  3.2651 -0.5019
  300MOL0     H40437   4.665   5.922   7.695  0.0392 -1.1990 -0.8781
  300MOL0     H40438   4.801   6.009   7.758  1.4990 -0.2144 -1.2050
  300MOL0     H40439   4.935   5.932   7.551  1.1706  2.9413  1.4882
  300MOL0     H40440   4.791   5.920   7.468  1.3729  3.4530 -2.6561
  300MOL0     H40441   4.738   6.153   7.558 -0.8442 -0.9456  0.0396
  300MOL0     H40442   4.911   6.171   7.610 -3.0309  3.6353 -0.0599
  300MOL0     H40443   4.971   6.076   7.366  1.2134  1.9199  0.0203
  300MOL0     H40444   4.799   6.091   7.327  2.9574 -1.5117 -2.9992
  300MOL0     H40445   4.918   6.282   7.247  2.0015  0.2295  0.3358
  300MOL0     H40446   4.786   6.324   7.352  0.0764  0.7965 -3.1555
  300MOL0     H40447   4.943   6.365   7.539  1.0454  1.7498  0.9817
  300MOL0     H40448   5.076   6.294   7.449 -2.9205 -3.9106  1.7129
  300MOL0     H40449   5.069   6.556   7.449  2.2707 -2.5800  0.9025
  300MOL0     H40450   4.920   6.539   7.356 -1.8313 -1.2638  2.4866
  300MOL0     H40451   5.281   6.384   7.338  3.1947 -0.9407 -2.9276
  300MOL0     H40452   5.426   6.466   7.002 -0.7903 -1.5897 -0.8641
  300MOL0     H40453   5.482   6.441   7.167  1.1737  0.2372 -1.0572
  300MOL0     H40454   5.386   6.202   7.169  2.2244  0.1760  0.9833
  300MOL0     H40455   5.508   6.219   7.039 -1.4561 -0.4160 -2.2175
  300MOL0     H40456   5.311   6.236   6.871 -1.8386 -2.4495 -1.6531
  300MOL0     H40457   5.208   6.248   7.017  0.1343 -0.0090  0.2979
  300MOL0     H40458   5.227   6.032   7.087 -2.0628 -0.7552 -1.8672
  300MOL0     H40459   5.362   5.994   6.972  1.4907  1.0872 -0.2630
  300MOL0     H40460   5.041   5.935   6.690  1.5401  0.3549  0.6542
  300MOL0     H40461   4.834   5.678   6.634  1.1714  0.6762 -1.8971
  300MOL0     H40462   4.915   5.823   6.574  1.7452  1.8370  0.6597
  300MOL0     H40463   4.977   5.652   6.550 -0.4568 -0.0188  0.0165
  300MOL0     H40464   4.722   5.345   6.928 -1.3360 -2.1950  1.8087
  300MOL0     H40465   4.633   5.128   6.925  0.5211  0.4543  1.9209
  300MOL0     H40466   4.659   4.908   6.995 -5.7709  0.5467  1.6839
  300MOL0     H40467   4.544   4.948   6.874  1.9907  3.1441 -2.5253
  300MOL0     H40468   4.602   4.702   6.780  2.7988 -3.7713  0.9890
  300MOL0     H40469   4.684   4.664   6.919  1.9988 -0.4727 -1.3096
  300MOL0     H40470   4.402   4.792   6.951 -0.1017  0.3585 -0.2779
  300MOL0     H40471   4.511   4.723   7.068 -0.1078  1.6463  0.2411
  300MOL0     H40472   4.503   4.513   6.881 -1.0211  0.4043 -2.6039
  300MOL0     H40473   4.384   4.534   7.008  0.6656  0.6238  1.3408
  300MOL0     H40474   4.372   4.666   6.730  1.8824 -1.5648  0.3729
  300MOL0     H40475   4.232   4.668   6.842  1.0421  2.2506 -0.7077
  300MOL0     H40476   4.216   4.503   6.658 -0.5572 -1.4249 -0.9669
  300MOL0     H40477   4.356   4.427   6.720  1.4907  2.5945 -0.3698
  300MOL0     H40478   4.070   4.451   6.837  1.1976  1.9745  1.3614
  300MOL0     H40479   4.198   4.440   6.949  1.1057  5.2677 -1.6107
  300MOL0     H40480   4.266   4.225   6.865  1.5017 -1.3352 -3.8941
  300MOL0     H40481   4.189   4.259   6.712  0.8493 -2.6166  0.2031
  300MOL0     H40482   4.896   5.028   6.591 -0.3174  1.2097 -0.3803
  300MOL0     H40483   4.949   5.257   6.574 -2.6886  1.3606 -2.7161
  300MOL0     H40484   5.159   5.586   7.011 -1.8009 -0.2599  0.8274
  300MOL0     H40485   5.220   5.820   7.063  1.0342 -0.3168 -0.7456
  300MOL0     H40486   4.981   5.644   8.006 -0.4040  0.6420  1.9213
  300MOL0     H40487   4.945   5.403   8.089  1.0350  0.4803  0.3968
  300MOL0     H40488   4.873   4.919   7.928 -1.9903 -3.9424  1.7688
  300MOL0     H40489   4.948   4.749   8.054  0.5230  0.2228 -0.0584
  300MOL0     H40490   5.043   4.577   8.373  0.7683  0.8604  0.4893
  300MOL0     H40491   4.991   4.591   8.209  0.5205 -0.2230  0.2927
  300MOL0     H40492   5.202   4.742   8.167 -2.1292  0.9605  1.0171
  300MOL0     H40493   5.216   4.553   8.181  0.1309 -0.8557  0.7482
  300MOL0     H40494   5.278   4.564   8.418 -1.8732  1.5372 -0.3306
  300MOL0     H40495   5.306   4.738   8.409  0.1710  0.0968  1.6774
  300MOL0     H40496   5.479   4.727   8.247  2.5600 -0.9114  0.1628
  300MOL0     H40497   5.461   4.549   8.230  0.9252 -0.4773  1.1012
  300MOL0     H40498   5.684   4.528   8.577 -0.1911 -0.9950 -1.0951
  300MOL0     H40499   4.948   4.978   8.416  0.5956 -1.6792 -0.1608
  300MOL0     H40500   4.859   5.179   8.267 -0.1220 -0.8154  3.1380
  301MOL0     O40501   9.789   7.676  10.945 -0.2436 -0.3819 -0.2583
  301MOL0     C40502   9.700   7.734  10.882  0.5831  0.7000 -0.6027
  301MOL0     O40503   9.589   7.669  10.818 -0.7137 -0.4733 -0.2922
  301MOL0     C40504   9.590   7.532  10.815 -0.1439 -0.6918  0.2188
  301MOL0     C40505   9.464   7.472  10.811 -0.0122  1.2314  0.7138
  301MOL0     C40506   9.454   7.336  10.775  0.0327 -1.2754 -0.0345
  301MOL0     C40507   9.568   7.260  10.762 -0.1389 -0.2701 -0.7212
  301MOL0     O40508   9.548   7.125  10.750 -0.7376 -0.7704 -0.2126
  301MOL0     C40509   9.635   7.039  10.821 -0.6864 -0.1760  0.0168
  301MOL0     C40510   9.603   7.039  10.968  0.8991  0.7941 -0.0224
  301MOL0     C40511   9.707   6.953  11.040 -0.1830  0.9064  0.1892
  301MOL0     C40512   9.652   6.877  11.165 -0.2508 -0.2837 -0.0659
  301MOL0     C40513   9.705   6.735  11.182  0.8301 -0.0459 -0.2996
  301MOL0     C40514   9.665   6.682  11.327 -0.7339 -0.0934 -1.2234
  301MOL0     C40515   9.707   6.541  11.363 -0.1993 -0.5510  0.4066
  301MOL0     C40516   9.863   6.526  11.371 -0.2579  0.1554 -0.6201
  301MOL0     N40517   9.897   6.407  11.444  0.0133 -0.6423 -0.4895
  301MOL0     C40518   9.848   6.375  11.564  0.2221 -0.2707  0.5264
  301MOL0     C40519   9.890   6.246  11.583  0.2949 -0.1494  0.2236
  301MOL0     C40520   9.856   6.154  11.694 -0.4412 -0.8230  0.2734
  301MOL0     C40521   9.712   6.152  11.742 -0.6346 -0.5247  0.4360
  301MOL0     C40522   9.688   6.068  11.871  0.1523  0.1985  0.9504
  301MOL0     C40523   9.748   5.927  11.864 -1.0204  0.4623 -0.3621
  301MOL0     O40524   9.684   5.861  11.969 -0.7314  0.9803 -0.6678
  301MOL0     C40525   9.709   5.725  11.997  0.2959 -0.4142  0.5875
  301MOL0     C40526   9.625   5.646  12.072 -0.8178 -0.7588 -0.8175
  301MOL0     C40527   9.660   5.512  12.117  0.7119 -0.8782 -0.9167
  301MOL0     C40528   9.564   5.458  12.220  0.2066  0.2135 -0.3197
  301MOL0     C40529   9.780   5.451  12.071 -0.8954 -0.3093  0.6571
  301MOL0     C40530   9.824   5.315  12.105 -0.2431  0.7952  0.7826
  301MOL0     O40531   9.908   5.252  12.028 -0.1408  0.3090  0.1440
  301MOL0     C40532   9.975   5.138  12.074  0.1809  0.2396 -0.3098
  301MOL0     C40533   9.941   5.014  12.030 -0.0654 -0.6005  0.5166
  301MOL0     C40534  10.004   4.909  12.078  0.3442  1.0597 -1.2021
  301MOL0     C40535  10.100   4.922  12.178 -0.2597 -0.6330 -0.8266
  301MOL0     O40536  10.150   4.826  12.254 -0.3939 -0.1601 -0.1571
  301MOL0     C40537  10.286   4.770  12.207  0.0598  0.5222 -0.2623
  301MOL0     C40538  10.351   4.685  12.323 -0.1081  0.6230 -0.6085
  301MOL0     C40539  10.342   4.752  12.456  0.1104  0.5251 -0.0584
  301MOL0     C40540  10.403   4.654  12.564 -0.8674 -0.1908 -0.4847
  301MOL0     C40541  10.460   4.728  12.687  0.2102  0.1365 -0.3730
  301MOL0     C40542  10.490   4.623  12.796  0.8141  0.1001  0.0777
  301MOL0     C40543  10.585   4.670  12.912  0.5132 -1.2501  0.2191
  301MOL0     C40544  10.514   4.740  13.032 -1.0570  0.4616  0.3639
  301MOL0    Cl40545  10.476   4.907  12.983  0.0769  0.7711  0.6358
  301MOL0     C40546  10.138   5.050  12.219  0.0344  0.3199 -0.1315
  301MOL0     C40547  10.075   5.158  12.166  0.8644 -0.6301 -0.0970
  301MOL0     O40548   9.786   5.277  12.210  0.2175  1.0583  0.5646
  301MOL0     C40549   9.864   5.526  11.985  0.4278 -0.3234  0.7879
  301MOL0     C40550   9.826   5.661  11.953 -0.5128 -1.0351 -0.7898
  301MOL0     N40551   9.956   6.200  11.470  0.3931  0.8052 -0.5727
  301MOL0     N40552   9.968   6.305  11.385 -0.3866 -0.0512 -0.1537
  301MOL0     C40553   9.691   7.321  10.768  0.3947 -0.5736  0.1546
  301MOL0     C40554   9.710   7.460  10.793 -0.2943 -0.1958 -0.3805
  301MOL0     C40555   9.701   7.875  10.878 -0.7284 -0.9740  0.4779
  301MOL0     C40556   9.816   7.948  10.844 -0.4849  0.3693 -0.0133
  301MOL0     C40557   9.813   8.091  10.837 -0.4019  0.6664 -0.0926
  301MOL0     C40558   9.693   8.158  10.862 -0.2066 -0.0002 -0.2668
  301MOL0     O40559   9.683   8.294  10.839  0.4576 -0.3413  0.3164
  301MOL0     C40560   9.763   8.354  10.734 -0.7819 -1.1794 -0.5056
  301MOL0     C40561   9.676   8.446  10.642 -0.3215  0.1429 -0.1162
  301MOL0     C40562   9.566   8.368  10.559 -0.0137 -0.5913  0.2099
  301MOL0     C40563   9.496   8.453  10.445  0.9588  0.4328 -0.8528
  301MOL0     C40564   9.591   8.516  10.349  0.5848 -0.5269  0.0732
  301MOL0     C40565   9.653   8.562  10.250 -0.6658  0.1095  0.2760
  301MOL0     C40566   9.581   8.093  10.908 -0.0524  0.2053  0.1638
  301MOL0     C40567   9.581   7.952  10.919 -0.5532  0.0528  0.0207
  301MOL0     H40568   9.371   7.527  10.826 -0.4496  1.1804 -1.4985
  301MOL0     H40569   9.356   7.290  10.775  0.3599 -2.1207  2.5762
  301MOL0     H40570   9.642   6.938  10.779  1.7304 -0.0837  0.0644
  301MOL0     H40571   9.739   7.072  10.808  0.5596 -4.3607 -2.6775
  301MOL0     H40572   9.595   7.136  11.018  0.0980  1.5599 -1.5463
  301MOL0     H40573   9.510   6.982  10.976  2.9378 -2.5128  2.9741
  301MOL0     H40574   9.733   6.874  10.969 -0.8922  2.1118 -1.4530
  301MOL0     H40575   9.789   7.014  11.078 -0.4336  0.0491  2.2916
  301MOL0     H40576   9.704   6.930  11.246 -0.6619  0.7150 -0.4413
  301MOL0     H40577   9.544   6.879  11.179 -0.3005 -2.0189 -0.0815
  301MOL0     H40578   9.659   6.675  11.103  0.8812  1.3884 -1.4611
  301MOL0     H40579   9.813   6.724  11.178  0.8024 -0.2451 -0.5323
  301MOL0     H40580   9.719   6.753  11.390 -1.0191  0.3566 -1.4842
  301MOL0     H40581   9.558   6.693  11.350 -0.8312 -3.4973  0.7385
  301MOL0     H40582   9.671   6.510  11.462 -2.4168  0.9047  0.1502
  301MOL0     H40583   9.666   6.475  11.287 -2.5301 -0.7398  1.7062
  301MOL0     H40584   9.906   6.607  11.430 -1.1638  0.0940  0.1502
  301MOL0     H40585   9.902   6.525  11.269 -2.3860  0.6178 -1.4911
  301MOL0     H40586   9.783   6.427  11.633 -2.8828 -1.2775 -1.4226
  301MOL0     H40587   9.886   6.055  11.658  0.9165  0.0727 -1.2078
  301MOL0     H40588   9.923   6.190  11.773 -0.4855  4.7471 -1.7892
  301MOL0     H40589   9.648   6.134  11.655 -1.3958  2.7797  0.1956
  301MOL0     H40590   9.678   6.251  11.771 -0.5957  0.9791 -3.8588
  301MOL0     H40591   9.581   6.048  11.859  0.7316 -2.6581 -0.4318
  301MOL0     H40592   9.721   6.109  11.967 -0.2276 -1.8214  2.0081
  301MOL0     H40593   9.856   5.935  11.881 -1.0839  1.6486 -0.3738
  301MOL0     H40594   9.733   5.882  11.766 -2.0191  0.1421 -0.0737
  301MOL0     H40595   9.533   5.689  12.110  0.7671  0.3721  2.1040
  301MOL0     H40596   9.513   5.370  12.179 -0.6493  1.2611 -1.5591
  301MOL0     H40597   9.615   5.435  12.314 -1.1674 -1.0074  0.1688
  301MOL0     H40598   9.487   5.525  12.257 -0.7616 -0.9220 -0.2048
  301MOL0     H40599   9.869   5.000  11.949  3.0125 -2.4610 -2.1693
  301MOL0     H40600   9.970   4.808  12.055 -4.7787  2.2160  0.0053
  301MOL0     H40601  10.269   4.704  12.121  2.1562  1.1011 -1.1826
  301MOL0     H40602  10.360   4.847  12.187  4.4425 -3.3249 -0.4888
  301MOL0     H40603  10.296   4.591  12.321  0.5368  0.1996 -4.1871
  301MOL0     H40604  10.450   4.648  12.295  0.0859  1.9171 -1.7450
  301MOL0     H40605  10.239   4.772  12.488  1.3630  2.8567  2.9157
  301MOL0     H40606  10.389   4.850  12.461 -2.0032  1.5711  0.2696
  301MOL0     H40607  10.322   4.586  12.591 -1.5251  1.1235  1.0335
  301MOL0     H40608  10.480   4.584  12.532  0.2377  1.0031 -0.5140
  301MOL0     H40609  10.395   4.804  12.731  0.4764  0.2269 -0.1385
  301MOL0     H40610  10.550   4.784  12.660  0.1849  0.5376  0.3658
  301MOL0     H40611  10.402   4.593  12.852  1.7234 -2.7774  0.1387
  301MOL0     H40612  10.534   4.540  12.740  1.0134  0.1255  0.1939
  301MOL0     H40613  10.671   4.721  12.869  0.1534  0.4599  1.4487
  301MOL0     H40614  10.625   4.575  12.950  1.0541 -0.6911  1.0481
  301MOL0     H40615  10.568   4.737  13.127  0.5762 -3.4654 -0.5002
  301MOL0     H40616  10.415   4.697  13.048 -3.1444  4.1565 -1.2112
  301MOL0     H40617  10.200   5.056  12.307 -1.0182  0.2079  0.6401
  301MOL0     H40618  10.096   5.254  12.211 -2.1083 -0.0525  0.2348
  301MOL0     H40619   9.956   5.477  11.956  0.5011 -1.6811  3.0285
  301MOL0     H40620   9.889   5.710  11.880 -1.5056 -1.0336 -1.6554
  301MOL0     H40621   9.777   7.255  10.757  0.3661 -0.4331 -1.0616
  301MOL0     H40622   9.814   7.490  10.788 -0.3355 -0.0914 -0.6420
  301MOL0     H40623   9.911   7.901  10.821  1.4423  3.9188 -0.0352
  301MOL0     H40624   9.896   8.143  10.790 -0.1876 -0.1013 -0.5764
  301MOL0     H40625   9.842   8.411  10.781 -1.3996 -0.6137 -0.1417
  301MOL0     H40626   9.811   8.277  10.672 -0.5252 -1.1185 -0.3825
  301MOL0     H40627   9.754   8.500  10.588  1.4925 -1.8641  0.3671
  301MOL0     H40628   9.624   8.520  10.704  0.1394 -0.8232  1.4941
  301MOL0     H40629   9.501   8.326  10.636 -0.8859 -0.0956 -0.2324
  301MOL0     H40630   9.606   8.289  10.495 -0.3873  0.7291 -1.7719
  301MOL0     H40631   9.425   8.528  10.482 -3.2925 -1.9399 -3.4782
  301MOL0     H40632   9.421   8.394  10.392  1.3850 -1.3855  0.4733
  301MOL0     H40633   9.694   8.602  10.159 -1.3548 -0.6330 -0.3759
  301MOL0     H40634   9.492   8.147  10.937 -0.4285 -0.5941  0.5364
  301MOL0     H40635   9.489   7.901  10.947 -0.0426 -0.2425  1.2012
  302MOL0     O40636   8.153   2.634   7.867 -0.0546 -0.5189  0.2748
  302MOL0     C40637   8.191   2.524   7.824  0.1132 -0.0243  0.1066
  302MOL0     O40638   8.261   2.429   7.890  0.8525  0.0911  0.0281
  302MOL0     C40639   8.298   2.452   8.014  0.2201  0.0934 -0.2405
  302MOL0     C40640   8.408   2.546   8.029  0.3042 -0.6910  0.0146
  302MOL0     C40641   8.434   2.600   8.157  0.6752 -0.3144  0.2227
  302MOL0     C40642   8.370   2.547   8.274 -0.5184 -1.9725  0.0660
  302MOL0     O40643   8.418   2.588   8.393 -0.4132 -0.1370 -0.0902
  302MOL0     C40644   8.351   2.591   8.524  0.1525 -0.7320  0.9045
  302MOL0     C40645   8.415   2.488   8.626 -0.8554 -0.5280 -0.2030
  302MOL0     C40646   8.357   2.523   8.759 -0.7586 -0.3894  0.2738
  302MOL0     C40647   8.394   2.658   8.821 -0.3268  0.8875  0.4997
  302MOL0     C40648   8.350   2.651   8.975 -0.2222 -0.1214  0.1092
  302MOL0     C40649   8.405   2.784   9.044  0.5384 -0.9898  0.3643
  302MOL0     C40650   8.335   2.916   8.986 -0.4995  0.2658  1.3569
  302MOL0     C40651   8.208   2.955   9.047  0.5805 -0.6253 -0.4818
  302MOL0     N40652   8.177   3.094   9.020 -0.4930 -0.0233 -0.0492
  302MOL0     C40653   8.203   3.198   9.108  0.0937 -0.3777 -1.3359
  302MOL0     C40654   8.154   3.305   9.037 -0.8613  0.0997  0.2384
  302MOL0     C40655   8.155   3.455   9.072 -0.0343 -0.3366  1.2722
  302MOL0     C40656   8.123   3.468   9.224 -0.3026 -0.8250  1.2168
  302MOL0     C40657   8.238   3.448   9.317  0.2441  0.1714  0.6940
  302MOL0     C40658   8.294   3.577   9.369  0.3131 -0.4266 -0.6127
  302MOL0     O40659   8.350   3.654   9.259  1.0988  0.6827  0.4078
  302MOL0     C40660   8.401   3.771   9.285  0.2313 -1.8257 -0.4545
  302MOL0     C40661   8.459   3.821   9.174 -0.1446 -0.5556 -0.0987
  302MOL0     C40662   8.519   3.946   9.173 -0.3097 -0.1359  0.4381
  302MOL0     C40663   8.585   3.994   9.041  0.4998  0.5649  0.1522
  302MOL0     C40664   8.533   4.020   9.295 -1.0556  0.5721 -0.3876
  302MOL0     C40665   8.610   4.142   9.307 -0.3098  0.0417 -0.3221
  302MOL0     O40666   8.661   4.166   9.435 -0.6636 -0.5608 -0.1968
  302MOL0     C40667   8.705   4.294   9.474 -0.9183 -0.0147  0.4220
  302MOL0     C40668   8.612   4.394   9.498 -0.0668 -0.9195  0.1248
  302MOL0     C40669   8.652   4.527   9.513 -0.4392 -0.1095 -0.2230
  302MOL0     C40670   8.791   4.560   9.495 -0.6676  0.0767  0.5877
  302MOL0     O40671   8.829   4.690   9.501 -0.4695 -0.8655  0.2034
  302MOL0     C40672   8.871   4.738   9.374  0.3075 -0.2521  0.1335
  302MOL0     C40673   8.985   4.832   9.377  0.4067 -0.8274  0.2939
  302MOL0     C40674   9.117   4.797   9.448  0.0554  0.1051  0.8196
  302MOL0     C40675   9.230   4.890   9.399  0.3059 -0.0824 -0.1099
  302MOL0     C40676   9.358   4.830   9.431 -0.0906  0.2484 -0.6688
  302MOL0     C40677   9.408   4.834   9.577  0.1064  0.1422 -0.0871
  302MOL0     C40678   9.505   4.721   9.596  0.5785 -0.3276  0.0144
  302MOL0     C40679   9.540   4.713   9.744 -0.8316 -0.5987 -0.4147
  302MOL0    Cl40680   9.599   4.872   9.824  0.4916 -0.3048  0.2960
  302MOL0     C40681   8.877   4.459   9.467  0.2268  1.4591 -0.9581
  302MOL0     C40682   8.842   4.323   9.463  0.2482 -0.6200  0.0841
  302MOL0     O40683   8.626   4.217   9.214  0.3012 -0.4626 -0.0011
  302MOL0     C40684   8.481   3.969   9.410  0.4611  0.1206  0.6251
  302MOL0     C40685   8.401   3.848   9.404 -1.1966  0.6452  0.2032
  302MOL0     N40686   8.116   3.262   8.904  1.0051  0.4963  0.6013
  302MOL0     N40687   8.127   3.135   8.901  0.3456  0.4295 -0.4681
  302MOL0     C40688   8.287   2.440   8.258 -0.1317  1.3370 -0.8291
  302MOL0     C40689   8.248   2.395   8.132 -0.2858  0.4569 -0.5140
  302MOL0     C40690   8.164   2.495   7.677  0.1867  0.5673  0.1173
  302MOL0     C40691   8.116   2.594   7.592 -0.5772 -0.2004 -0.2666
  302MOL0     C40692   8.074   2.558   7.466  0.0147 -0.6960  0.0122
  302MOL0     C40693   8.084   2.420   7.422 -0.6683 -0.4769 -0.4986
  302MOL0     O40694   8.055   2.373   7.297  0.1229  0.0040 -0.0511
  302MOL0     C40695   7.991   2.463   7.204  0.1053  0.0957 -0.0567
  302MOL0     C40696   7.974   2.384   7.074 -0.8343  0.3075  0.8090
  302MOL0     C40697   7.893   2.258   7.088  0.3338 -0.3512 -0.1687
  302MOL0     C40698   7.884   2.171   6.958 -0.7085 -0.7166  0.1695
  302MOL0     C40699   7.829   2.047   6.988  0.0191  0.2692  0.7122
  302MOL0     C40700   7.798   1.937   7.011 -0.5777  0.1975  0.3604
  302MOL0     C40701   8.135   2.323   7.516  0.2560 -0.6324 -0.2927
  302MOL0     C40702   8.169   2.362   7.638 -0.1021 -0.0031 -0.9405
  302MOL0     H40703   8.464   2.578   7.941  1.4325  1.3893  1.4053
  302MOL0     H40704   8.512   2.676   8.168  0.1780  0.1059  0.9456
  302MOL0     H40705   8.358   2.695   8.556 -0.0604 -0.1212 -0.9669
  302MOL0     H40706   8.250   2.554   8.506  0.8469 -1.6265 -1.5638
  302MOL0     H40707   8.402   2.384   8.595  4.2764 -1.0930 -1.2554
  302MOL0     H40708   8.524   2.495   8.620 -0.7650  0.8170  1.8890
  302MOL0     H40709   8.248   2.518   8.760 -0.9056  1.5107 -0.7015
  302MOL0     H40710   8.399   2.442   8.819 -0.0885  0.9734  1.7027
  302MOL0     H40711   8.503   2.661   8.822 -0.1985 -1.6572  0.3567
  302MOL0     H40712   8.346   2.744   8.774 -3.4103 -0.9145  0.0888
  302MOL0     H40713   8.244   2.631   8.994 -0.0330 -3.2483 -1.4889
  302MOL0     H40714   8.393   2.559   9.017 -1.5620  0.1092  2.1376
  302MOL0     H40715   8.396   2.785   9.153 -3.2478  2.5159  0.2935
  302MOL0     H40716   8.511   2.781   9.019 -0.0216 -2.6729 -2.2416
  302MOL0     H40717   8.403   2.999   9.008 -1.2793  1.0621  0.8483
  302MOL0     H40718   8.307   2.916   8.881 -2.3401  0.6548  1.8182
  302MOL0     H40719   8.214   2.949   9.156 -1.0966  4.6376  0.1594
  302MOL0     H40720   8.120   2.900   9.014  0.3601  0.1184 -1.1551
  302MOL0     H40721   8.249   3.186   9.206  1.5025  0.3020 -1.8915
  302MOL0     H40722   8.243   3.509   9.038 -1.0238 -2.0315 -5.2100
  302MOL0     H40723   8.073   3.495   9.011 -0.7140  0.3830  2.5998
  302MOL0     H40724   8.047   3.391   9.244  0.6468 -2.0943  0.1110
  302MOL0     H40725   8.084   3.568   9.247  1.0422  0.7288 -2.5975
  302MOL0     H40726   8.310   3.372   9.288 -0.3908 -1.1456  2.3871
  302MOL0     H40727   8.193   3.402   9.405 -0.1767  0.1865  0.4927
  302MOL0     H40728   8.369   3.572   9.448  1.7488  1.8710 -1.6933
  302MOL0     H40729   8.209   3.624   9.420  0.4624  0.2841 -0.9981
  302MOL0     H40730   8.456   3.761   9.083  2.7302 -1.5991  0.3751
  302MOL0     H40731   8.675   4.047   9.076  1.9013 -1.0715 -0.7905
  302MOL0     H40732   8.613   3.911   8.975  2.7749 -0.0731  1.7749
  302MOL0     H40733   8.519   4.070   8.999 -3.4764 -2.2749  0.6708
  302MOL0     H40734   8.507   4.369   9.488  0.5782 -3.7317 -0.4020
  302MOL0     H40735   8.581   4.596   9.558  1.0662  0.7818  0.8679
  302MOL0     H40736   8.891   4.658   9.302 -2.0649 -1.6150  0.8710
  302MOL0     H40737   8.794   4.803   9.333  2.8013  2.1844 -1.0429
  302MOL0     H40738   9.010   4.852   9.272 -0.4149  2.3117  0.5849
  302MOL0     H40739   8.958   4.929   9.419  1.2050  0.0084 -1.0571
  302MOL0     H40740   9.145   4.694   9.423 -2.0730 -0.7100  1.5200
  302MOL0     H40741   9.100   4.802   9.556 -3.3231  1.2398  0.3482
  302MOL0     H40742   9.219   4.906   9.291  0.5320 -1.2217 -0.3079
  302MOL0     H40743   9.214   4.988   9.446 -2.0936  1.2464 -3.3113
  302MOL0     H40744   9.439   4.887   9.384  1.6163  0.3237  2.1093
  302MOL0     H40745   9.359   4.724   9.402  3.6394 -0.8321  2.4943
  302MOL0     H40746   9.461   4.930   9.580  0.0575  0.1581  0.3805
  302MOL0     H40747   9.323   4.829   9.646 -1.9376  2.6981 -2.2129
  302MOL0     H40748   9.589   4.735   9.527 -0.2577 -2.4593 -1.5176
  302MOL0     H40749   9.464   4.621   9.580  3.4129 -1.5775  0.0298
  302MOL0     H40750   9.623   4.643   9.746 -0.5408 -0.2420  0.4749
  302MOL0     H40751   9.454   4.675   9.800  0.6496  0.0522  2.4590
  302MOL0     H40752   8.983   4.481   9.465  1.1623 -1.9992  0.9299
  302MOL0     H40753   8.916   4.244   9.472  1.1225  0.3884  2.7673
  302MOL0     H40754   8.491   4.015   9.508 -2.7700  0.4297  0.9093
  302MOL0     H40755   8.355   3.806   9.493 -2.5514 -2.6193 -1.8683
  302MOL0     H40756   8.241   2.394   8.344  1.5881 -1.5361 -1.3260
  302MOL0     H40757   8.176   2.315   8.115  2.4441 -1.9700 -1.4614
  302MOL0     H40758   8.127   2.693   7.637  0.8532  0.0367 -1.0708
  302MOL0     H40759   8.031   2.635   7.403 -0.2753 -0.4658  0.4849
  302MOL0     H40760   7.887   2.482   7.233 -0.6577 -0.3614 -2.2666
  302MOL0     H40761   8.054   2.548   7.174 -0.6210  1.4602  2.0630
  302MOL0     H40762   8.076   2.363   7.040 -1.2683  2.4049 -2.2450
  302MOL0     H40763   7.928   2.434   6.988 -2.7829 -4.0649 -0.9872
  302MOL0     H40764   7.789   2.276   7.116  0.6041 -0.9231  1.3129
  302MOL0     H40765   7.943   2.194   7.161  0.2056 -0.4334 -0.1524
  302MOL0     H40766   7.986   2.167   6.917  0.2007  1.3114  1.9880
  302MOL0     H40767   7.811   2.209   6.886 -3.4294 -1.7198  2.2706
  302MOL0     H40768   7.778   1.833   7.029  0.0450 -0.6522 -3.1473
  302MOL0     H40769   8.130   2.219   7.487  0.7353 -2.2502  4.6771
  302MOL0     H40770   8.199   2.287   7.710 -1.5032  2.3066  2.3212
  303MOL0     O40771   6.316  10.576   5.289 -0.3270  0.5122  0.2495
  303MOL0     C40772   6.283  10.537   5.172 -0.1473 -0.8016  0.3033
  303MOL0     O40773   6.155  10.505   5.129 -0.2496  0.8020 -0.0915
  303MOL0     C40774   6.051  10.504   5.217  1.2466 -0.6092  0.4973
  303MOL0     C40775   6.050  10.481   5.356 -1.2916 -0.2774 -0.5765
  303MOL0     C40776   5.928  10.493   5.429 -0.2836 -0.3409 -0.8150
  303MOL0     C40777   5.804  10.503   5.365 -0.0028 -0.0443 -0.3050
  303MOL0     O40778   5.676  10.491   5.425 -0.9389  0.2526  0.3264
  303MOL0     C40779   5.659  10.364   5.489  0.2883 -0.0265 -0.4160
  303MOL0     C40780   5.519  10.370   5.540 -0.3814 -0.4791 -0.3551
  303MOL0     C40781   5.507  10.279   5.667  0.3705 -0.1705  0.2883
  303MOL0     C40782   5.364  10.274   5.703 -0.0585  0.3186  0.3169
  303MOL0     C40783   5.343  10.176   5.823 -0.1494 -0.0379 -0.4356
  303MOL0     C40784   5.361  10.031   5.791  0.5548  0.4310 -0.0088
  303MOL0     C40785   5.316   9.944   5.904 -1.2750  0.3978 -0.1223
  303MOL0     C40786   5.165   9.917   5.908  0.4163 -0.2062 -0.0198
  303MOL0     N40787   5.134   9.787   5.844  0.1742  0.1644  0.0089
  303MOL0     C40788   5.180   9.663   5.874 -0.5083  0.4366 -0.3611
  303MOL0     C40789   5.117   9.581   5.794 -0.1135 -0.2454  0.2140
  303MOL0     C40790   5.117   9.428   5.792  0.4428  0.2952  0.1580
  303MOL0     C40791   5.226   9.357   5.699 -0.3074  0.3972 -0.3301
  303MOL0     C40792   5.196   9.386   5.548 -0.2914 -0.3856  0.0357
  303MOL0     C40793   5.288   9.319   5.468  0.0045 -0.0890 -0.2092
  303MOL0     O40794   5.293   9.374   5.337  0.1724 -0.7749  0.1780
  303MOL0     C40795   5.411   9.413   5.284 -0.5199 -0.3946 -1.3532
  303MOL0     C40796   5.429   9.538   5.221  0.4493  0.2546 -0.3606
  303MOL0     C40797   5.546   9.573   5.161  0.3293 -0.8870 -0.6161
  303MOL0     C40798   5.548   9.704   5.074 -0.3489 -0.0258  0.5811
  303MOL0     C40799   5.652   9.479   5.173 -0.0005 -0.1740  0.5607
  303MOL0     C40800   5.782   9.530   5.142  0.1523  0.9310  0.5851
  303MOL0     O40801   5.817   9.658   5.173 -0.0767  0.6655  0.3530
  303MOL0     C40802   5.942   9.696   5.144 -0.6610  0.4591 -0.3814
  303MOL0     C40803   5.999   9.707   5.018 -0.8009  0.2812 -0.4278
  303MOL0     C40804   6.120   9.774   4.997  0.7622  0.2497 -0.4854
  303MOL0     C40805   6.186   9.830   5.099 -0.4908 -0.4736  0.0297
  303MOL0     O40806   6.300   9.897   5.053 -0.3819  0.8622 -0.3132
  303MOL0     C40807   6.395   9.920   5.157 -0.3136 -0.2964  0.3025
  303MOL0     C40808   6.527   9.961   5.108 -1.0842 -0.3500  0.2477
  303MOL0     C40809   6.552  10.051   4.980  0.1066 -0.1710 -0.6488
  303MOL0     C40810   6.671  10.156   4.994 -0.1968 -0.1447  0.3120
  303MOL0     C40811   6.811  10.087   4.996 -0.2288 -0.1608 -0.4135
  303MOL0     C40812   6.920  10.180   5.047 -0.7985 -0.4886 -0.3865
  303MOL0     C40813   6.944  10.298   4.945  0.9557 -0.5913 -1.3511
  303MOL0     C40814   7.079  10.366   4.953 -0.2802  0.6299 -0.6776
  303MOL0    Cl40815   7.188  10.263   4.863  0.3272 -0.6483 -0.0896
  303MOL0     C40816   6.138   9.804   5.235 -1.1199 -0.4236 -0.2831
  303MOL0     C40817   6.014   9.744   5.248  0.1642  0.1530 -0.0763
  303MOL0     O40818   5.853   9.449   5.077 -0.2004  1.2330  0.4062
  303MOL0     C40819   5.636   9.355   5.225  0.5360 -0.0209 -0.4515
  303MOL0     C40820   5.521   9.322   5.292  0.2990 -0.3048  0.5043
  303MOL0     N40821   5.034   9.647   5.711  0.0341 -0.2205 -0.1702
  303MOL0     N40822   5.046   9.772   5.741 -0.2265 -0.5077  1.2802
  303MOL0     C40823   5.808  10.518   5.226  0.7832 -0.7939  0.4977
  303MOL0     C40824   5.929  10.536   5.152  0.1877  0.3415  0.1610
  303MOL0     C40825   6.389  10.519   5.070 -0.1860 -0.2430 -0.1144
  303MOL0     C40826   6.525  10.563   5.098 -0.8904  0.1098  0.2919
  303MOL0     C40827   6.620  10.556   5.005  0.2614 -0.6587  0.0430
  303MOL0     C40828   6.599  10.524   4.867 -0.3957  0.8475 -1.0938
  303MOL0     O40829   6.713  10.521   4.786  0.5661 -0.0424 -1.0157
  303MOL0     C40830   6.684  10.590   4.661 -0.3024 -0.7255  0.6754
  303MOL0     C40831   6.756  10.532   4.539 -0.4692  1.1813 -0.5954
  303MOL0     C40832   6.697  10.610   4.411  0.8476  0.5331 -0.1393
  303MOL0     C40833   6.744  10.550   4.280  0.4277 -0.0100 -0.1488
  303MOL0     C40834   6.722  10.403   4.271  0.6942 -0.5250  0.6002
  303MOL0     C40835   6.706  10.285   4.252  1.4980 -0.2734 -0.2090
  303MOL0     C40836   6.462  10.483   4.837 -0.8579 -0.6325  0.2138
  303MOL0     C40837   6.362  10.491   4.934  0.0625 -0.3429 -0.2145
  303MOL0     H40838   6.148  10.461   5.399 -0.5359  2.9970 -0.5224
  303MOL0     H40839   5.938  10.474   5.535 -0.7777  1.6338 -0.3878
  303MOL0     H40840   5.673  10.277   5.424 -1.8711 -0.1455 -0.8147
  303MOL0     H40841   5.733  10.360   5.569 -0.2647 -1.8489  0.0615
  303MOL0     H40842   5.509  10.468   5.588  1.2468 -1.1747  1.5948
  303MOL0     H40843   5.438  10.358   5.468 -0.6040  2.6257 -0.7844
  303MOL0     H40844   5.540  10.181   5.633 -0.9890  0.2081 -2.3689
  303MOL0     H40845   5.570  10.315   5.749  1.3029 -0.6406 -0.1982
  303MOL0     H40846   5.343  10.373   5.744 -0.7698  1.1535 -1.9227
  303MOL0     H40847   5.298  10.231   5.627 -0.3851 -1.6057  1.6042
  303MOL0     H40848   5.420  10.198   5.896  2.4266 -0.9922 -2.6950
  303MOL0     H40849   5.243  10.183   5.868 -0.2239 -0.6602 -0.5008
  303MOL0     H40850   5.318   9.989   5.700  0.4186  1.8364 -0.6179
  303MOL0     H40851   5.468  10.011   5.783  1.3410  3.2673  1.9567
  303MOL0     H40852   5.373   9.850   5.905 -1.4183  0.3133  0.3407
  303MOL0     H40853   5.355   9.997   5.992  1.9735  0.0667 -1.2344
  303MOL0     H40854   5.116  10.006   5.866  1.3590 -0.7475 -2.4522
  303MOL0     H40855   5.130   9.916   6.011 -2.0108  3.4460 -0.5998
  303MOL0     H40856   5.244   9.629   5.955  0.7149 -1.4324 -2.0431
  303MOL0     H40857   5.141   9.389   5.891  0.9504  1.3586  0.4657
  303MOL0     H40858   5.017   9.386   5.775 -0.8836  0.1615  6.1856
  303MOL0     H40859   5.220   9.249   5.715 -0.1636  0.8250  4.1204
  303MOL0     H40860   5.320   9.397   5.738  0.2201 -0.6544 -0.4998
  303MOL0     H40861   5.219   9.493   5.549 -3.4057  0.3799  0.3562
  303MOL0     H40862   5.092   9.381   5.515  0.3086 -0.2511 -2.0037
  303MOL0     H40863   5.251   9.216   5.460  0.1307 -0.3614  2.1950
  303MOL0     H40864   5.392   9.315   5.503  0.0853  0.6035 -0.3619
  303MOL0     H40865   5.339   9.595   5.201 -1.7466 -3.6017 -2.5439
  303MOL0     H40866   5.639   9.702   5.013  0.2819  2.4392  1.3393
  303MOL0     H40867   5.465   9.703   5.003 -1.7012 -0.7776  2.1119
  303MOL0     H40868   5.542   9.799   5.127  2.8012 -1.3215  3.6752
  303MOL0     H40869   5.946   9.666   4.933  0.4337  3.0217 -2.7130
  303MOL0     H40870   6.167   9.773   4.899  0.5192 -2.4379 -0.6642
  303MOL0     H40871   6.359   9.995   5.228  1.2574 -0.0596  0.8874
  303MOL0     H40872   6.410   9.833   5.222 -2.5529 -0.3811  0.7889
  303MOL0     H40873   6.575   9.994   5.201 -3.6110 -2.8458  2.6248
  303MOL0     H40874   6.577   9.866   5.084 -1.0767  0.3827 -3.1130
  303MOL0     H40875   6.455  10.096   4.959  1.2782  2.4565 -0.8528
  303MOL0     H40876   6.566   9.982   4.896 -0.2446  0.1749 -0.9946
  303MOL0     H40877   6.680  10.218   4.904 -0.3761  0.7731  0.9188
  303MOL0     H40878   6.663  10.224   5.079  0.0202 -1.5720  1.5232
  303MOL0     H40879   6.837  10.049   4.897  0.7216 -1.4075  0.3018
  303MOL0     H40880   6.828  10.000   5.059  2.7436 -0.2263 -1.1723
  303MOL0     H40881   6.897  10.208   5.151 -1.1722 -2.4438  0.0887
  303MOL0     H40882   7.013  10.123   5.056 -0.7633 -0.4657 -0.6018
  303MOL0     H40883   6.863  10.368   4.968 -1.3991 -2.8994 -2.0998
  303MOL0     H40884   6.927  10.253   4.847 -2.9128 -0.1752 -1.0277
  303MOL0     H40885   7.117  10.369   5.055  2.0003  0.6984 -1.4674
  303MOL0     H40886   7.083  10.461   4.899 -0.1788  0.2304 -1.3926
  303MOL0     H40887   6.193   9.843   5.320 -1.7265  2.1031 -0.9567
  303MOL0     H40888   5.972   9.720   5.345  1.6638 -1.7266  0.1476
  303MOL0     H40889   5.718   9.286   5.240 -0.8146 -1.3418  1.3787
  303MOL0     H40890   5.509   9.225   5.340  0.1566 -0.3972  0.2831
  303MOL0     H40891   5.711  10.526   5.177  0.1513 -2.1518  1.4596
  303MOL0     H40892   5.927  10.555   5.046 -1.4900 -0.0588  0.0829
  303MOL0     H40893   6.548  10.583   5.202 -2.0640 -1.5792  0.9187
  303MOL0     H40894   6.719  10.589   5.037 -0.1299  1.2506 -0.6030
  303MOL0     H40895   6.579  10.578   4.632  0.2388 -1.4196 -1.1347
  303MOL0     H40896   6.701  10.698   4.658 -1.8371 -0.4759 -0.2789
  303MOL0     H40897   6.735  10.425   4.530  1.7159  0.3800  2.2348
  303MOL0     H40898   6.861  10.546   4.564 -0.4131 -0.7128  0.4434
  303MOL0     H40899   6.715  10.717   4.420  5.1134  0.0629 -1.1741
  303MOL0     H40900   6.590  10.586   4.406  0.7788  1.1661 -2.6211
  303MOL0     H40901   6.851  10.569   4.274  0.9246 -2.1247  1.1148
  303MOL0     H40902   6.686  10.600   4.201  0.6600 -1.0987 -1.0305
  303MOL0     H40903   6.702  10.178   4.242  1.5515 -0.2190 -0.8508
  303MOL0     H40904   6.429  10.462   4.736 -1.2390 -0.0315  0.2089
  303MOL0     H40905   6.260  10.462   4.912 -0.4575 -0.7897  2.4250
  304MOL0     O40906   0.403   5.319   3.561  0.1370  0.7783 -0.5398
  304MOL0     C40907   0.492   5.301   3.644  0.7805 -0.4910  0.2006
  304MOL0     O40908   0.575   5.403   3.680  1.1400  0.7641 -0.4465
  304MOL0     C40909   0.538   5.530   3.650 -0.7331 -0.6240  0.3319
  304MOL0     C40910   0.507   5.617   3.755  0.5167  0.8762  0.3624
  304MOL0     C40911   0.472   5.747   3.725  0.4955  0.2065 -0.1047
  304MOL0     C40912   0.495   5.803   3.602 -0.1975 -0.2394  0.8183
  304MOL0     O40913   0.475   5.939   3.592  0.8206 -0.0721  0.0693
  304MOL0     C40914   0.431   5.977   3.458  0.4591 -0.4469  0.7248
  304MOL0     C40915   0.333   6.090   3.475  0.2587  0.4566  0.3054
  304MOL0     C40916   0.321   6.150   3.332 -0.4609  0.1474  1.2487
  304MOL0     C40917   0.218   6.254   3.328  0.6006 -0.3010 -0.6705
  304MOL0     C40918   0.241   6.351   3.220 -0.5041 -0.4667 -0.6317
  304MOL0     C40919   0.125   6.443   3.197  0.4312 -0.2898 -0.1856
  304MOL0     C40920   0.006   6.372   3.135 -0.0135 -0.8880  0.0533
  304MOL0     C40921  -0.024   6.399   2.988  0.2720 -0.0418  0.4405
  304MOL0     N40922  -0.107   6.302   2.928 -0.5259  0.1156  0.2039
  304MOL0     C40923  -0.074   6.167   2.888  1.6879 -0.0775  1.8926
  304MOL0     C40924  -0.179   6.121   2.816 -2.0225  0.0569  0.6406
  304MOL0     C40925  -0.178   5.981   2.750  0.0697  0.2063 -0.1432
  304MOL0     C40926  -0.310   5.907   2.776 -0.1388  0.7448 -0.6366
  304MOL0     C40927  -0.436   5.943   2.708 -0.0129  0.3255 -0.2863
  304MOL0     C40928  -0.542   5.852   2.766 -0.2031  0.2017  0.4687
  304MOL0     O40929  -0.521   5.717   2.737  0.6724  0.1478  0.5754
  304MOL0     C40930  -0.613   5.613   2.781 -0.7697 -0.1066  0.0829
  304MOL0     C40931  -0.584   5.484   2.732  0.1532 -0.9700  0.1467
  304MOL0     C40932  -0.666   5.376   2.773 -1.3083  0.0337  1.2574
  304MOL0     C40933  -0.618   5.240   2.728 -0.1744 -0.4755 -0.2054
  304MOL0     C40934  -0.789   5.396   2.834  0.1215  0.2787 -0.7754
  304MOL0     C40935  -0.885   5.288   2.881  0.9050 -0.3413 -0.2346
  304MOL0     O40936  -0.962   5.317   2.991  0.0202 -0.0832 -0.6297
  304MOL0     C40937  -1.075   5.236   3.028 -0.1087  0.9676  0.6439
  304MOL0     C40938  -1.201   5.280   2.995  0.9785  0.7366  0.3462
  304MOL0     C40939  -1.313   5.204   3.020 -1.2755  0.8048  0.7081
  304MOL0     C40940  -1.299   5.072   3.076  0.3590  0.6842  0.0366
  304MOL0     O40941  -1.406   4.994   3.112 -0.1985 -0.0733  0.2991
  304MOL0     C40942  -1.529   5.010   3.045  0.1729  0.2794 -0.4974
  304MOL0     C40943  -1.528   4.940   2.907 -0.1583 -0.4931  0.1822
  304MOL0     C40944  -1.501   4.788   2.910 -0.4974  0.2611  0.2538
  304MOL0     C40945  -1.553   4.695   3.020 -0.2758  0.5308 -0.0048
  304MOL0     C40946  -1.531   4.545   2.987 -0.7736 -0.6264 -0.1276
  304MOL0     C40947  -1.583   4.454   3.104  0.5546  0.2546  0.1974
  304MOL0     C40948  -1.732   4.477   3.128 -0.2951  0.4742  0.7630
  304MOL0     C40949  -1.786   4.556   3.239 -0.2069 -0.4539  0.3166
  304MOL0    Cl40950  -1.755   4.457   3.384 -0.2439  0.0455  0.3721
  304MOL0     C40951  -1.166   5.030   3.113 -0.3129 -0.2294  0.6140
  304MOL0     C40952  -1.063   5.112   3.090  0.1827 -0.4707  0.6565
  304MOL0     O40953  -0.885   5.183   2.815  0.0716  0.5261  0.4579
  304MOL0     C40954  -0.808   5.521   2.884  0.6478 -0.2601  0.6987
  304MOL0     C40955  -0.728   5.630   2.858 -1.1310  0.6090 -0.2347
  304MOL0     N40956  -0.262   6.228   2.807  0.2595  0.0287  0.1567
  304MOL0     N40957  -0.216   6.335   2.863  0.4577 -0.4124  0.0197
  304MOL0     C40958   0.547   5.719   3.496 -0.2172 -0.5437  0.6527
  304MOL0     C40959   0.551   5.579   3.521  0.4631  0.0629  1.2941
  304MOL0     C40960   0.503   5.169   3.707  0.8124 -0.2441 -0.1969
  304MOL0     C40961   0.623   5.119   3.761 -0.1785  0.0213  0.8396
  304MOL0     C40962   0.629   4.987   3.811 -0.3717  0.1214  0.7930
  304MOL0     C40963   0.528   4.893   3.809 -0.4683 -0.6426  0.1791
  304MOL0     O40964   0.551   4.772   3.868 -0.8192  0.7425  0.3244
  304MOL0     C40965   0.445   4.678   3.871 -0.2274  0.3365  0.5385
  304MOL0     C40966   0.502   4.533   3.894  0.0838  1.1152 -0.1359
  304MOL0     C40967   0.576   4.530   4.026  0.4484 -0.6422 -0.5264
  304MOL0     C40968   0.608   4.381   4.072 -0.0770  0.6204 -0.2352
  304MOL0     C40969   0.727   4.345   4.011 -0.2141 -0.0500  1.0971
  304MOL0     C40970   0.842   4.322   3.968  0.1663  0.0684 -0.2044
  304MOL0     C40971   0.409   4.936   3.753 -0.6121  0.1603 -0.5611
  304MOL0     C40972   0.402   5.070   3.703  0.6075 -0.0554 -0.3403
  304MOL0     H40973   0.509   5.580   3.857  0.3115 -0.3667 -0.0774
  304MOL0     H40974   0.419   5.809   3.796 -4.9130 -1.3887 -2.2833
  304MOL0     H40975   0.516   6.009   3.397 -0.7669 -0.4444 -1.0351
  304MOL0     H40976   0.379   5.905   3.395  0.3182  0.5637 -0.3424
  304MOL0     H40977   0.233   6.053   3.501 -0.5290  3.2088  1.5819
  304MOL0     H40978   0.373   6.155   3.554 -1.2069 -0.4621  1.8735
  304MOL0     H40979   0.416   6.200   3.310 -0.8728 -0.5630 -2.7522
  304MOL0     H40980   0.305   6.076   3.253 -0.6742  1.7066 -0.2286
  304MOL0     H40981   0.121   6.205   3.342  1.8265 -2.8272 -0.5551
  304MOL0     H40982   0.228   6.307   3.423  2.8911  0.3411 -1.2160
  304MOL0     H40983   0.329   6.406   3.253 -0.3309 -0.6481 -0.7848
  304MOL0     H40984   0.272   6.306   3.125  2.4136 -2.7102  1.1826
  304MOL0     H40985   0.101   6.502   3.285  1.2469  0.4428 -0.4350
  304MOL0     H40986   0.162   6.511   3.119 -1.0848 -0.8527 -1.4455
  304MOL0     H40987   0.019   6.266   3.157  0.2185 -1.0667 -0.9113
  304MOL0     H40988  -0.082   6.412   3.187  0.1624  2.0148 -1.6293
  304MOL0     H40989   0.071   6.394   2.932 -0.5701 -0.1917 -1.0329
  304MOL0     H40990  -0.065   6.499   2.968 -0.7348 -0.8892 -2.2538
  304MOL0     H40991   0.024   6.122   2.903  1.3823 -0.5509  2.5544
  304MOL0     H40992  -0.161   5.980   2.642  1.6994 -0.7200  0.0858
  304MOL0     H40993  -0.094   5.922   2.787  0.7866 -0.8229 -3.1427
  304MOL0     H40994  -0.328   5.926   2.883  2.4815 -1.7780  0.3742
  304MOL0     H40995  -0.301   5.800   2.757 -2.5293  0.6821 -1.7651
  304MOL0     H40996  -0.411   5.931   2.602  0.2397  1.9368 -0.4285
  304MOL0     H40997  -0.460   6.048   2.728  0.9771  0.5513 -0.2390
  304MOL0     H40998  -0.636   5.884   2.720 -0.0233  1.2134  0.7787
  304MOL0     H40999  -0.544   5.866   2.874 -1.6820 -1.5145  0.7117
  304MOL0     H41000  -0.492   5.473   2.675  0.0146 -0.4893 -0.1663
  304MOL0     H41001  -0.652   5.213   2.628  3.0370 -1.4431 -1.1502
  304MOL0     H41002  -0.509   5.235   2.721 -0.0935 -2.1849  1.4859
  304MOL0     H41003  -0.646   5.165   2.802 -1.8185  0.1868 -0.1051
  304MOL0     H41004  -1.199   5.370   2.934  0.6718 -0.1857 -1.0744
  304MOL0     H41005  -1.405   5.259   3.002 -1.8528 -0.2718  0.2882
  304MOL0     H41006  -1.611   4.964   3.102 -3.3095  3.3603 -2.6200
  304MOL0     H41007  -1.556   5.115   3.034  0.4328  0.2221 -1.8703
  304MOL0     H41008  -1.632   4.952   2.873 -1.2153 -0.0811  3.2545
  304MOL0     H41009  -1.455   4.988   2.842  0.5477 -1.0503  0.5565
  304MOL0     H41010  -1.393   4.774   2.919 -0.6217 -0.9893 -0.0552
  304MOL0     H41011  -1.541   4.744   2.818 -2.5840 -1.0931  1.7211
  304MOL0     H41012  -1.487   4.717   3.104  1.1578 -0.6044 -0.7999
  304MOL0     H41013  -1.654   4.722   3.052 -0.8753 -2.4154  0.9439
  304MOL0     H41014  -1.422   4.532   2.982 -0.4935  1.6444 -2.4443
  304MOL0     H41015  -1.569   4.508   2.891  0.3078 -3.0405  0.3053
  304MOL0     H41016  -1.566   4.356   3.059  0.5356  0.4095 -0.1590
  304MOL0     H41017  -1.527   4.457   3.198  1.0560 -0.1611 -0.0843
  304MOL0     H41018  -1.764   4.373   3.139 -0.2173  0.3440 -0.1343
  304MOL0     H41019  -1.792   4.513   3.044  0.7266  2.7123  0.9392
  304MOL0     H41020  -1.892   4.576   3.217 -0.2752  1.8659  2.3129
  304MOL0     H41021  -1.726   4.647   3.246  0.5811 -0.8705 -0.7731
  304MOL0     H41022  -1.163   4.933   3.162  1.5719 -1.6868 -2.1465
  304MOL0     H41023  -0.967   5.067   3.110  1.4849  2.6881  2.1524
  304MOL0     H41024  -0.904   5.553   2.922  0.4443  1.2319 -0.9301
  304MOL0     H41025  -0.763   5.725   2.899 -3.1846 -0.3486  0.3455
  304MOL0     H41026   0.574   5.758   3.399 -1.3857  2.5771  1.4437
  304MOL0     H41027   0.552   5.515   3.434 -0.8758 -2.1417  2.8096
  304MOL0     H41028   0.713   5.179   3.773  1.2054 -0.9580 -3.2600
  304MOL0     H41029   0.724   4.965   3.858  0.7408 -0.5452 -1.6085
  304MOL0     H41030   0.371   4.704   3.947  0.4562  3.4557  0.2443
  304MOL0     H41031   0.394   4.682   3.774  0.2161  0.3556  0.3053
  304MOL0     H41032   0.575   4.510   3.815  1.2406  0.4901  1.0746
  304MOL0     H41033   0.415   4.467   3.889 -1.4754  2.7334  2.9356
  304MOL0     H41034   0.525   4.576   4.111  2.7102 -0.9625  1.0791
  304MOL0     H41035   0.664   4.588   3.997 -0.0570  0.0882 -0.6154
  304MOL0     H41036   0.535   4.305   4.042  1.7199 -2.3918  2.4791
  304MOL0     H41037   0.609   4.379   4.181 -0.5192 -0.7771 -0.2432
  304MOL0     H41038   0.940   4.327   3.924  0.4599  3.8294  0.5344
  304MOL0     H41039   0.326   4.866   3.751  0.5001 -1.2165 -0.5093
  304MOL0     H41040   0.301   5.083   3.666 -0.3065 -3.3165  0.6505
  305MOL0     O41041   1.103   4.172   8.611  0.3732  0.1000 -0.6059
  305MOL0     C41042   1.124   4.058   8.564 -0.3768  0.0213 -0.0477
  305MOL0     O41043   1.111   3.931   8.636 -0.8859 -0.7905 -0.1966
  305MOL0     C41044   1.085   3.952   8.775  0.4869 -0.2186  0.5108
  305MOL0     C41045   0.966   3.899   8.838  0.7651  0.4364  0.0592
  305MOL0     C41046   0.937   3.916   8.974 -0.1446  0.0274 -0.3708
  305MOL0     C41047   1.020   4.003   9.044 -0.2634  0.4866 -0.0555
  305MOL0     O41048   1.001   4.034   9.179  0.2118 -0.8593 -0.1607
  305MOL0     C41049   0.862   4.049   9.218 -0.0196  0.4502 -0.8455
  305MOL0     C41050   0.834   3.923   9.290  0.3102 -0.6282 -0.0490
  305MOL0     C41051   0.683   3.917   9.321 -0.2332 -0.2704 -0.4225
  305MOL0     C41052   0.635   3.997   9.446 -0.0068  0.1193  0.4297
  305MOL0     C41053   0.488   3.988   9.454 -0.8358  0.3858 -0.2030
  305MOL0     C41054   0.428   4.078   9.557  0.7719 -1.0067 -0.2390
  305MOL0     C41055   0.463   4.051   9.710  0.3654 -0.3097  0.2901
  305MOL0     C41056   0.423   3.924   9.778 -0.3156  0.3083  0.2535
  305MOL0     N41057   0.490   3.916   9.912 -0.4252 -0.2516 -0.1838
  305MOL0     C41058   0.508   4.025   9.998 -0.6113  0.6714 -1.0146
  305MOL0     C41059   0.537   3.962  10.118 -0.6756  0.3361  0.6319
  305MOL0     C41060   0.554   4.036  10.241  0.0871 -0.1439 -0.9427
  305MOL0     C41061   0.671   4.001  10.331  0.2120  0.7758  0.1691
  305MOL0     C41062   0.814   4.020  10.283  1.0747 -0.1147  0.1918
  305MOL0     C41063   0.910   3.901  10.304  0.6452 -0.0846 -0.2709
  305MOL0     O41064   1.042   3.951  10.308  0.5712  0.4325 -0.6969
  305MOL0     C41065   1.100   3.994  10.430 -0.2743 -1.2073 -0.2658
  305MOL0     C41066   1.050   3.975  10.560 -0.4749  0.4541 -0.7537
  305MOL0     C41067   1.128   4.025  10.673  1.2069  0.2689  0.2190
  305MOL0     C41068   1.081   3.988  10.815  0.0722 -0.3465  1.0126
  305MOL0     C41069   1.251   4.086  10.649 -0.5811 -0.4109 -0.0957
  305MOL0     C41070   1.351   4.120  10.761  0.3265  0.1599 -0.1094
  305MOL0     O41071   1.460   4.186  10.727 -0.5514  0.4465  0.6415
  305MOL0     C41072   1.540   4.244  10.827  0.1407  0.2481  0.9027
  305MOL0     C41073   1.518   4.368  10.883  0.1043  0.6620 -0.3264
  305MOL0     C41074   1.601   4.426  10.979  0.2162 -0.8488  0.4046
  305MOL0     C41075   1.712   4.353  11.021 -0.8421 -0.3885  0.0061
  305MOL0     O41076   1.819   4.393  11.097  1.0594 -0.7608  0.5618
  305MOL0     C41077   1.873   4.509  11.051  0.7448  0.8947  0.3925
  305MOL0     C41078   2.022   4.521  11.084  0.3775 -0.5353 -0.2348
  305MOL0     C41079   2.044   4.515  11.239 -0.5537 -0.5030  2.0628
  305MOL0     C41080   1.949   4.588  11.322 -0.0866  0.5331 -0.4743
  305MOL0     C41081   2.005   4.610  11.467 -0.2747 -0.3737 -0.3537
  305MOL0     C41082   2.115   4.729  11.478 -0.2757 -0.3074 -0.9946
  305MOL0     C41083   2.189   4.733  11.613  0.4724  0.3061  0.1898
  305MOL0     C41084   2.115   4.836  11.702 -0.2377  0.9294 -0.3994
  305MOL0    Cl41085   2.215   4.901  11.831 -0.3779 -0.2792 -0.5481
  305MOL0     C41086   1.733   4.215  10.966 -0.3979 -0.0258  0.5745
  305MOL0     C41087   1.649   4.164  10.873  0.0316  0.2788 -0.1131
  305MOL0     O41088   1.318   4.105  10.875  0.0495  0.4127  0.5330
  305MOL0     C41089   1.297   4.113  10.517 -0.7775  0.3424 -1.1447
  305MOL0     C41090   1.221   4.057  10.414 -1.8225 -1.1563 -1.0242
  305MOL0     N41091   0.537   3.827  10.101  0.4338  1.5277  0.0648
  305MOL0     N41092   0.511   3.798   9.979 -0.8744 -0.1211 -0.9005
  305MOL0     C41093   1.143   4.047   8.988 -0.5859  0.6625 -0.3643
  305MOL0     C41094   1.180   4.020   8.857  0.3820 -0.7419  0.7113
  305MOL0     C41095   1.148   4.050   8.415 -0.2814 -0.4130 -0.0516
  305MOL0     C41096   1.142   3.924   8.347 -0.8924 -0.1915  0.4354
  305MOL0     C41097   1.191   3.916   8.217 -0.0549 -0.2845  0.2023
  305MOL0     C41098   1.242   4.027   8.147 -0.5921  0.4294 -0.6431
  305MOL0     O41099   1.292   4.035   8.015 -0.2615 -0.0603 -0.4372
  305MOL0     C41100   1.322   3.910   7.960 -0.0204  0.3192  0.3328
  305MOL0     C41101   1.318   3.915   7.813  0.4904  0.0727  0.5652
  305MOL0     C41102   1.434   3.974   7.730 -0.1336 -0.9422  0.4474
  305MOL0     C41103   1.426   3.939   7.584  0.5300 -0.3682 -0.2444
  305MOL0     C41104   1.490   3.814   7.553 -0.4855 -0.2008  0.9530
  305MOL0     C41105   1.549   3.708   7.528  0.1636 -0.2894  0.0783
  305MOL0     C41106   1.230   4.154   8.212 -0.3107 -0.1698  1.2888
  305MOL0     C41107   1.188   4.163   8.347  0.5133 -0.6818  0.4869
  305MOL0     H41108   0.901   3.847   8.768  2.7340  4.1131 -5.0746
  305MOL0     H41109   0.849   3.885   9.030 -0.3710  1.4178  0.0866
  305MOL0     H41110   0.849   4.129   9.291  0.1230 -0.6679  0.4303
  305MOL0     H41111   0.789   4.077   9.141 -1.6184  1.9500  1.1020
  305MOL0     H41112   0.866   3.841   9.226  2.0711 -0.2836  0.3460
  305MOL0     H41113   0.887   3.928   9.386  2.4711 -0.2448 -1.2077
  305MOL0     H41114   0.631   3.941   9.228  2.3557 -0.0998 -1.9031
  305MOL0     H41115   0.653   3.813   9.335 -0.2932 -0.1973  0.0219
  305MOL0     H41116   0.674   3.973   9.545  0.6167  0.6340  0.3178
  305MOL0     H41117   0.661   4.102   9.430  2.5349 -0.4733  0.1558
  305MOL0     H41118   0.447   4.006   9.354  1.4629 -3.0411 -2.0135
  305MOL0     H41119   0.460   3.884   9.475  4.8606 -2.0791 -2.5312
  305MOL0     H41120   0.455   4.183   9.538 -2.0990 -0.3536 -1.2974
  305MOL0     H41121   0.319   4.065   9.551  1.0983 -3.3691 -2.7123
  305MOL0     H41122   0.566   4.084   9.729  0.7073  0.4446 -2.5222
  305MOL0     H41123   0.407   4.129   9.762  0.3520 -0.9278  1.2277
  305MOL0     H41124   0.461   3.838   9.720 -3.0639  0.6607 -2.3099
  305MOL0     H41125   0.314   3.916   9.776 -0.2450 -0.8085 -0.2316
  305MOL0     H41126   0.484   4.129   9.981 -0.0720  1.0351  0.3463
  305MOL0     H41127   0.560   4.142  10.214 -3.2179  0.4744  0.3103
  305MOL0     H41128   0.460   4.029  10.296  1.1043  2.0753  1.2273
  305MOL0     H41129   0.653   3.901  10.372  2.0131  1.3545  2.5565
  305MOL0     H41130   0.676   4.067  10.417  3.4119  1.1925 -0.2318
  305MOL0     H41131   0.854   4.101  10.344 -0.1577 -0.4265  1.4553
  305MOL0     H41132   0.815   4.058  10.181 -0.7688 -2.7403 -0.9240
  305MOL0     H41133   0.889   3.844  10.213 -0.9581 -1.1042  0.6863
  305MOL0     H41134   0.887   3.842  10.393 -3.0361 -0.7444 -1.4825
  305MOL0     H41135   0.962   3.921  10.593  0.9116 -0.6914  1.3646
  305MOL0     H41136   0.996   3.920  10.806 -0.3051  0.2435 -0.1492
  305MOL0     H41137   1.159   3.942  10.875  0.5023 -0.4400  0.3943
  305MOL0     H41138   1.040   4.073  10.871  1.7574  3.2192 -2.5772
  305MOL0     H41139   1.425   4.420  10.862 -0.2551  0.8065  1.5168
  305MOL0     H41140   1.566   4.523  11.015 -2.9234 -1.2778 -1.1531
  305MOL0     H41141   1.870   4.513  10.942 -0.3004 -0.0147  0.3699
  305MOL0     H41142   1.812   4.596  11.078 -0.1466  1.1210 -2.1101
  305MOL0     H41143   2.079   4.449  11.024  0.8160  0.0923 -0.5891
  305MOL0     H41144   2.042   4.623  11.051 -1.3370 -0.3997 -0.9410
  305MOL0     H41145   2.143   4.547  11.272 -0.4543  0.9022  0.5091
  305MOL0     H41146   2.038   4.407  11.259  1.5456 -0.5124  2.9003
  305MOL0     H41147   1.924   4.678  11.265 -1.6787 -0.3139 -1.1641
  305MOL0     H41148   1.867   4.522  11.349  1.4160 -1.4442 -0.4417
  305MOL0     H41149   2.056   4.519  11.501 -0.9016 -1.6689 -2.7130
  305MOL0     H41150   1.927   4.637  11.540  1.0095  0.4279  0.7905
  305MOL0     H41151   2.188   4.712  11.398 -1.9079  0.4153 -2.7232
  305MOL0     H41152   2.068   4.827  11.461 -3.6398 -0.8483  3.5137
  305MOL0     H41153   2.293   4.763  11.607  1.3459 -2.6650 -3.2676
  305MOL0     H41154   2.177   4.634  11.659 -2.0272  0.1720 -0.5980
  305MOL0     H41155   2.025   4.796  11.751 -1.1648  2.2322 -0.9854
  305MOL0     H41156   2.079   4.923  11.646 -1.4401  1.5645  1.2577
  305MOL0     H41157   1.817   4.157  11.005 -1.2472 -1.4429  0.3715
  305MOL0     H41158   1.671   4.070  10.824 -0.7162  0.1212 -0.1634
  305MOL0     H41159   1.400   4.143  10.498 -0.0778 -1.6549 -0.7915
  305MOL0     H41160   1.272   4.065  10.318  0.8798 -1.6899  0.2664
  305MOL0     H41161   1.210   4.095   9.059  1.3856 -0.0173 -1.6760
  305MOL0     H41162   1.274   4.059   8.820  0.9329 -0.7471  2.0599
  305MOL0     H41163   1.096   3.835   8.388  0.5924 -1.0795  0.2651
  305MOL0     H41164   1.173   3.823   8.163 -0.8490  0.2768 -0.5180
  305MOL0     H41165   1.417   3.871   7.996 -1.2484 -2.8134  0.4801
  305MOL0     H41166   1.241   3.839   7.981 -0.3863  0.2572 -1.2003
  305MOL0     H41167   1.220   3.956   7.787  1.5243  1.2474 -1.7778
  305MOL0     H41168   1.311   3.812   7.776  0.1475  0.3651 -0.1925
  305MOL0     H41169   1.532   3.936   7.761  0.6266  0.2719 -0.3880
  305MOL0     H41170   1.428   4.081   7.751  1.9545 -0.7301  0.1861
  305MOL0     H41171   1.482   4.016   7.530  0.3914  0.6099  0.9405
  305MOL0     H41172   1.327   3.944   7.536  0.9681 -1.7764 -1.3481
  305MOL0     H41173   1.590   3.612   7.503 -1.2155 -0.8181 -0.2483
  305MOL0     H41174   1.265   4.241   8.158  2.4663 -3.2506 -2.3728
  305MOL0     H41175   1.186   4.265   8.383  0.0043 -0.1515 -0.9555
  306MOL0     O41176   3.856   1.886  10.642  0.1997  0.4358  0.0206
  306MOL0     C41177   3.811   1.791  10.577  0.6911 -0.5371 -0.1130
  306MOL0     O41178   3.711   1.711  10.621 -0.1239  0.3466 -0.6916
  306MOL0     C41179   3.656   1.748  10.743 -0.1712  0.5280  0.0041
  306MOL0     C41180   3.534   1.804  10.745  0.8293 -0.2438  0.9626
  306MOL0     C41181   3.470   1.816  10.864 -0.3377  0.2697  0.3152
  306MOL0     C41182   3.536   1.796  10.983  0.0723  0.5456 -0.2559
  306MOL0     O41183   3.475   1.809  11.107 -0.6491 -0.3768  0.6618
  306MOL0     C41184   3.330   1.827  11.125  0.5992 -0.2590 -0.3174
  306MOL0     C41185   3.284   1.977  11.121  0.4428 -0.5467  0.5371
  306MOL0     C41186   3.307   2.064  11.248  0.5115  0.4144 -0.0023
  306MOL0     C41187   3.230   2.033  11.370 -0.2149  0.1204  0.7156
  306MOL0     C41188   3.283   2.105  11.497  0.7623  0.4645  1.0732
  306MOL0     C41189   3.181   2.082  11.618  0.0578  0.0436  0.1637
  306MOL0     C41190   3.248   2.153  11.740  0.0846  0.1944 -0.4531
  306MOL0     C41191   3.151   2.267  11.789 -0.5562  0.9586  0.0563
  306MOL0     N41192   3.202   2.404  11.755  0.3272  0.8447 -0.8100
  306MOL0     C41193   3.118   2.483  11.686 -0.9248  0.1845  0.6664
  306MOL0     C41194   3.177   2.601  11.706 -0.5690  0.0555 -0.9049
  306MOL0     C41195   3.149   2.741  11.668  0.9260  0.7777  0.3489
  306MOL0     C41196   3.151   2.766  11.510  0.0995  0.1079  0.7278
  306MOL0     C41197   3.288   2.721  11.446 -0.5765  0.7994  0.0363
  306MOL0     C41198   3.279   2.623  11.330 -0.3503  1.0252  0.4479
  306MOL0     O41199   3.197   2.507  11.361 -0.2018  0.2798 -0.5565
  306MOL0     C41200   3.137   2.431  11.267 -0.3257 -1.2486  0.0873
  306MOL0     C41201   3.041   2.333  11.294  0.0113 -0.8634  0.2138
  306MOL0     C41202   2.985   2.256  11.198  0.1737 -0.3824  0.8554
  306MOL0     C41203   2.854   2.193  11.231  0.2483  0.2975 -0.7109
  306MOL0     C41204   3.035   2.269  11.062 -0.3541  0.7052  0.1181
  306MOL0     C41205   2.998   2.188  10.941 -0.1817  0.0686 -0.0865
  306MOL0     O41206   2.945   2.070  10.967 -0.1574 -0.3400  0.5120
  306MOL0     C41207   2.901   1.999  10.863  0.4602  0.4048  0.0847
  306MOL0     C41208   2.792   2.039  10.783  0.3140  0.1527 -0.3890
  306MOL0     C41209   2.732   1.956  10.693  0.1355  0.1158 -0.2103
  306MOL0     C41210   2.777   1.826  10.688 -0.1583  0.6762 -0.0454
  306MOL0     O41211   2.722   1.731  10.604  0.1343  0.6020  1.0579
  306MOL0     C41212   2.589   1.727  10.544 -0.5671 -0.1313 -0.2153
  306MOL0     C41213   2.526   1.589  10.516 -0.3588  0.4736  0.5253
  306MOL0     C41214   2.376   1.613  10.473  0.1374  0.1033 -0.1255
  306MOL0     C41215   2.298   1.490  10.438 -0.8031 -0.0840 -0.2372
  306MOL0     C41216   2.183   1.519  10.351  0.1891  0.1236  0.1699
  306MOL0     C41217   2.110   1.384  10.311 -1.1182 -0.7630  0.5455
  306MOL0     C41218   2.003   1.417  10.203 -0.0139  0.8060 -0.0902
  306MOL0     C41219   1.935   1.289  10.167  0.2508 -0.4245 -0.2404
  306MOL0    Cl41220   1.863   1.334  10.007  0.1379  0.3730  0.2425
  306MOL0     C41221   2.886   1.787  10.766  1.0524 -0.5359  0.3901
  306MOL0     C41222   2.939   1.864  10.858 -0.6068  0.6972 -0.6228
  306MOL0     O41223   3.007   2.240  10.831 -0.3272  0.9443 -0.2374
  306MOL0     C41224   3.138   2.364  11.038 -0.2694  0.5230  0.1241
  306MOL0     C41225   3.194   2.440  11.136  0.1967  0.2417 -0.0938
  306MOL0     N41226   3.302   2.580  11.769 -0.6499 -0.5545  0.8534
  306MOL0     N41227   3.313   2.451  11.797  0.1606 -0.2935 -0.3995
  306MOL0     C41228   3.676   1.749  10.982  0.6533 -0.5839 -0.2808
  306MOL0     C41229   3.730   1.726  10.859  1.1706 -0.0704  0.0106
  306MOL0     C41230   3.860   1.781  10.443 -0.9328 -1.0288  1.3461
  306MOL0     C41231   3.935   1.876  10.369 -0.5354 -0.2760  0.2995
  306MOL0     C41232   3.970   1.870  10.239  0.1728 -0.2093  0.1040
  306MOL0     C41233   3.924   1.760  10.164 -0.3907  1.0099 -0.0311
  306MOL0     O41234   3.938   1.742  10.032  0.2132  0.2196 -0.8134
  306MOL0     C41235   4.024   1.819   9.953 -0.7424 -0.2048  0.1360
  306MOL0     C41236   4.108   1.711   9.890 -0.5825 -0.5048  0.4056
  306MOL0     C41237   4.191   1.625   9.993 -0.0415  0.5344  0.4031
  306MOL0     C41238   4.256   1.504   9.922 -0.1483 -0.2849  0.4658
  306MOL0     C41239   4.380   1.538   9.848  0.4265 -0.5749 -0.0025
  306MOL0     C41240   4.476   1.573   9.782  0.0039 -0.5307  0.6766
  306MOL0     C41241   3.855   1.661  10.223  0.0481 -0.6498 -0.8489
  306MOL0     C41242   3.814   1.675  10.365 -0.9642  0.3818  0.7589
  306MOL0     H41243   3.485   1.836  10.654  1.3794  2.7367  1.5792
  306MOL0     H41244   3.363   1.830  10.873 -0.1863  1.9912 -0.0963
  306MOL0     H41245   3.284   1.765  11.048 -0.2363  0.7493 -0.6464
  306MOL0     H41246   3.295   1.800  11.224 -1.8141  2.8151 -0.1738
  306MOL0     H41247   3.325   2.025  11.032  2.4076  1.3774  2.3359
  306MOL0     H41248   3.176   1.989  11.105  0.3287  1.1692  2.1935
  306MOL0     H41249   3.413   2.065  11.277 -0.3248 -4.1234  4.6523
  306MOL0     H41250   3.290   2.170  11.228  2.4185  0.3410 -2.5496
  306MOL0     H41251   3.127   2.053  11.340 -0.8964 -1.4424  1.9177
  306MOL0     H41252   3.233   1.930  11.404 -3.7973  0.2863  1.9505
  306MOL0     H41253   3.383   2.064  11.514  1.9811  1.8606 -2.0073
  306MOL0     H41254   3.286   2.212  11.476 -2.9679  0.5887  0.6050
  306MOL0     H41255   3.086   2.126  11.586  0.2449  0.1993 -0.1856
  306MOL0     H41256   3.159   1.976  11.631  1.6417 -0.2024  1.0822
  306MOL0     H41257   3.274   2.081  11.818 -1.8908 -0.1219 -0.0301
  306MOL0     H41258   3.340   2.208  11.717  0.4851  0.9219  2.4693
  306MOL0     H41259   3.154   2.263  11.898  0.4917  3.6601  0.1958
  306MOL0     H41260   3.048   2.239  11.762 -0.1181 -3.6703  2.1465
  306MOL0     H41261   3.029   2.445  11.636 -1.5142 -1.9246  3.0700
  306MOL0     H41262   3.056   2.783  11.710  0.8228 -0.2776  1.2267
  306MOL0     H41263   3.227   2.808  11.705  2.1240  0.5796 -1.6741
  306MOL0     H41264   3.146   2.873  11.487  1.6785  0.1573  0.4831
  306MOL0     H41265   3.067   2.716  11.463  1.2338 -0.4551 -0.7875
  306MOL0     H41266   3.356   2.679  11.520 -1.1664 -0.6213 -0.1905
  306MOL0     H41267   3.338   2.803  11.394  0.1997  0.6548  0.5381
  306MOL0     H41268   3.378   2.594  11.293 -1.1014  0.0766 -0.9221
  306MOL0     H41269   3.231   2.662  11.240 -4.1407 -2.0355  0.8646
  306MOL0     H41270   3.018   2.334  11.400  1.6157  2.5732  0.6935
  306MOL0     H41271   2.793   2.262  11.289 -0.9158 -1.0868 -0.2171
  306MOL0     H41272   2.786   2.150  11.156  1.4922 -1.7982 -0.7197
  306MOL0     H41273   2.889   2.100  11.277  2.9428 -0.3086 -3.5843
  306MOL0     H41274   2.755   2.140  10.798 -1.0032 -0.7976  3.9934
  306MOL0     H41275   2.648   1.990  10.633  0.1554  0.9412  0.2162
  306MOL0     H41276   2.512   1.785  10.596 -0.1499  1.3328 -1.1731
  306MOL0     H41277   2.597   1.772  10.445  0.4659  1.9943  0.7741
  306MOL0     H41278   2.577   1.542  10.431 -0.8154  1.8373 -0.5245
  306MOL0     H41279   2.535   1.532  10.609 -2.8400  0.8368  1.0593
  306MOL0     H41280   2.389   1.682  10.390 -0.7123  2.1009  1.3033
  306MOL0     H41281   2.329   1.663  10.559 -0.9775 -3.2954  1.4466
  306MOL0     H41282   2.369   1.425  10.387 -0.4098  0.4461 -0.3669
  306MOL0     H41283   2.256   1.439  10.526 -2.0889 -1.6226 -1.6580
  306MOL0     H41284   2.216   1.591  10.275 -1.6108  0.9630  0.1299
  306MOL0     H41285   2.113   1.578  10.411  2.1948  0.9352  1.8382
  306MOL0     H41286   2.185   1.312  10.275  1.6270  1.5811  1.2277
  306MOL0     H41287   2.071   1.343  10.405  1.4737  1.8651  2.9431
  306MOL0     H41288   2.066   1.453  10.121 -0.9907 -0.6122 -1.5169
  306MOL0     H41289   1.938   1.502  10.226  0.2590  1.2172 -0.8038
  306MOL0     H41290   1.855   1.263  10.237 -0.0157  0.4354 -0.2083
  306MOL0     H41291   2.009   1.212  10.145 -1.1342 -1.5642 -0.9973
  306MOL0     H41292   2.917   1.683  10.773 -1.8362 -1.7077 -1.9867
  306MOL0     H41293   3.026   1.837  10.917 -0.2161  0.2345 -1.3987
  306MOL0     H41294   3.166   2.386  10.936  1.6731 -1.9691  0.0342
  306MOL0     H41295   3.267   2.514  11.102  0.0264  0.2264 -0.5019
  306MOL0     H41296   3.734   1.730  11.072  0.1568 -2.9992 -0.3986
  306MOL0     H41297   3.830   1.685  10.850 -0.4144 -3.9765 -2.3244
  306MOL0     H41298   3.968   1.965  10.421 -1.8045  1.3424 -1.5268
  306MOL0     H41299   4.032   1.948  10.195 -1.2024 -0.9563 -3.5649
  306MOL0     H41300   3.961   1.875   9.884 -2.0828 -1.7153  0.0699
  306MOL0     H41301   4.082   1.901   9.996 -1.3390  0.1534  0.2642
  306MOL0     H41302   4.175   1.767   9.824 -1.2308 -2.4939 -2.0675
  306MOL0     H41303   4.042   1.649   9.829 -4.0010  3.8924 -0.8665
  306MOL0     H41304   4.130   1.587  10.075  0.3179 -1.9603 -0.4107
  306MOL0     H41305   4.271   1.686  10.037  0.2549 -0.7589  1.7277
  306MOL0     H41306   4.189   1.457   9.849 -0.8176 -2.4031  2.3714
  306MOL0     H41307   4.279   1.419   9.986  0.6528  0.5808  1.3416
  306MOL0     H41308   4.560   1.597   9.719  2.3061 -3.1790  2.4927
  306MOL0     H41309   3.817   1.582  10.159 -0.1571 -1.9630  0.8233
  306MOL0     H41310   3.755   1.593  10.404  1.2148 -5.0927 -5.5346
  307MOL0     O41311  10.108   0.413   5.736 -0.2305 -0.7538 -0.0747
  307MOL0     C41312  10.209   0.480   5.718  0.0967 -0.4771 -0.2096
  307MOL0     O41313  10.336   0.461   5.771  0.2195 -0.1022 -0.1474
  307MOL0     C41314  10.342   0.332   5.820 -0.2676 -0.3428  0.0751
  307MOL0     C41315  10.336   0.298   5.962  0.3078  0.2552 -0.5886
  307MOL0     C41316  10.321   0.161   6.003 -0.3225  0.6287  0.6586
  307MOL0     C41317  10.340   0.060   5.901  0.4510  0.0649 -0.6630
  307MOL0     O41318  10.349  -0.070   5.929 -0.3248  0.5674 -0.4928
  307MOL0     C41319  10.378  -0.124   6.058 -0.5623  0.0036  0.2730
  307MOL0     C41320  10.404  -0.265   6.057 -0.7002 -0.0789  0.0212
  307MOL0     C41321  10.456  -0.319   6.197  0.2468 -0.1208  0.0186
  307MOL0     C41322  10.366  -0.262   6.316  0.8757  0.5033 -1.0076
  307MOL0     C41323  10.404  -0.326   6.456  0.0413 -0.2766 -0.3551
  307MOL0     C41324  10.285  -0.325   6.549  0.1274 -0.3751  0.0608
  307MOL0     C41325  10.324  -0.399   6.682  0.3567 -0.1306 -0.3330
  307MOL0     C41326  10.205  -0.384   6.778 -0.2407  0.4278 -0.2787
  307MOL0     N41327  10.085  -0.452   6.726 -0.1070 -0.7413 -0.2706
  307MOL0     C41328   9.962  -0.385   6.704 -0.1147  0.3281 -0.0277
  307MOL0     C41329   9.873  -0.485   6.659 -0.1145  0.4300 -0.0002
  307MOL0     C41330   9.730  -0.468   6.630  0.3483 -0.4086 -0.7635
  307MOL0     C41331   9.671  -0.460   6.496  0.2806 -0.7234 -0.5478
  307MOL0     C41332   9.733  -0.332   6.419  0.3848  0.6252 -0.5206
  307MOL0     C41333   9.708  -0.331   6.270 -0.4832  0.3280 -0.2390
  307MOL0     O41334   9.566  -0.317   6.254 -0.1450  0.4031  0.4214
  307MOL0     C41335   9.509  -0.297   6.128 -0.3471  0.3491  0.1534
  307MOL0     C41336   9.578  -0.320   6.008  1.0865 -0.3789 -1.0204
  307MOL0     C41337   9.517  -0.288   5.883  0.3355  0.0173 -1.2568
  307MOL0     C41338   9.588  -0.309   5.750  0.1166  0.3242  0.0023
  307MOL0     C41339   9.387  -0.232   5.897  0.4480  0.4709  1.0912
  307MOL0     C41340   9.317  -0.168   5.782  0.1554 -0.5951  0.6743
  307MOL0     O41341   9.184  -0.167   5.796  0.0568  0.0602  0.0802
  307MOL0     C41342   9.103  -0.103   5.704 -0.4759 -0.5946  0.2016
  307MOL0     C41343   8.971  -0.148   5.667 -0.8042 -0.6570  0.1821
  307MOL0     C41344   8.897  -0.080   5.572 -0.5869  0.0064 -0.1747
  307MOL0     C41345   8.930   0.048   5.528  1.6985  0.1872 -0.3801
  307MOL0     O41346   8.833   0.115   5.463  1.1001  0.1020  0.0185
  307MOL0     C41347   8.846   0.249   5.422  0.2080 -0.3883  0.4100
  307MOL0     C41348   8.926   0.267   5.291  0.8645  0.0874  0.8525
  307MOL0     C41349   8.831   0.265   5.167 -1.0682 -0.1212  0.2957
  307MOL0     C41350   8.902   0.264   5.037  0.2479  0.4753 -1.0048
  307MOL0     C41351   8.797   0.227   4.935 -0.5245  0.6184  0.0740
  307MOL0     C41352   8.857   0.233   4.791  0.0275 -0.3312 -0.4458
  307MOL0     C41353   8.762   0.189   4.685  0.4995 -0.5011 -0.0097
  307MOL0     C41354   8.631   0.282   4.671 -0.3748  0.8521  0.1343
  307MOL0    Cl41355   8.673   0.443   4.608  0.0015  0.4735  0.4308
  307MOL0     C41356   9.060   0.090   5.563 -1.0630 -0.6219  0.2648
  307MOL0     C41357   9.136   0.020   5.646 -1.2039  0.7610 -0.6366
  307MOL0     O41358   9.381  -0.135   5.684  0.2720 -0.1674 -0.0287
  307MOL0     C41359   9.318  -0.225   6.016 -0.9095 -0.3357 -0.0540
  307MOL0     C41360   9.373  -0.257   6.137  0.0519 -0.5466  0.0135
  307MOL0     N41361   9.951  -0.597   6.651 -0.1535  0.0409 -0.3298
  307MOL0     N41362  10.068  -0.582   6.697 -0.1249  0.7165 -0.2664
  307MOL0     C41363  10.350   0.095   5.767  0.1421  0.5668 -0.3045
  307MOL0     C41364  10.361   0.228   5.726  0.8992  0.2421  0.3276
  307MOL0     C41365  10.195   0.609   5.637  0.4764  0.4862  0.0600
  307MOL0     C41366  10.070   0.644   5.580  0.2573  0.2312  0.1533
  307MOL0     C41367  10.041   0.779   5.532  0.0751  1.1001 -0.4919
  307MOL0     C41368  10.138   0.879   5.529 -1.1265  0.1884  0.2637
  307MOL0     O41369  10.105   1.003   5.478 -0.0821  1.5514 -0.6420
  307MOL0     C41370  10.195   1.103   5.449 -0.1749  0.6152  0.2911
  307MOL0     C41371  10.129   1.204   5.357  0.1964 -0.1933 -0.0576
  307MOL0     C41372  10.106   1.135   5.217  0.1852 -0.1788  0.0578
  307MOL0     C41373   9.976   1.181   5.154  0.4349 -0.0660  1.7747
  307MOL0     C41374   9.957   1.108   5.023  0.5891 -0.6853 -1.0915
  307MOL0     C41375   9.912   1.084   4.917  0.8229  0.0597 -0.5392
  307MOL0     C41376  10.259   0.834   5.568 -0.6025  0.0881 -0.2404
  307MOL0     C41377  10.287   0.709   5.625  0.1911 -0.9256 -0.2585
  307MOL0     H41378  10.317   0.382   6.027 -0.1255 -0.8836  0.8015
  307MOL0     H41379  10.296   0.117   6.099 -2.4679 -0.7910 -0.4667
  307MOL0     H41380  10.466  -0.074   6.101 -0.5787  1.2163 -1.0491
  307MOL0     H41381  10.291  -0.102   6.120  0.3690  3.6657  0.5219
  307MOL0     H41382  10.309  -0.313   6.035 -0.1888 -0.6173 -1.0640
  307MOL0     H41383  10.485  -0.277   5.985  2.2108  0.9903  2.8844
  307MOL0     H41384  10.463  -0.428   6.203 -1.6306 -0.4142 -1.9620
  307MOL0     H41385  10.560  -0.290   6.213 -0.1291  2.4153 -1.6330
  307MOL0     H41386  10.382  -0.154   6.324  0.1228  0.4684  2.2478
  307MOL0     H41387  10.264  -0.289   6.287 -0.7961 -0.0053  4.2481
  307MOL0     H41388  10.443  -0.428   6.448  1.2018  0.1761 -0.7451
  307MOL0     H41389  10.480  -0.262   6.501 -0.8316  0.0418  0.7061
  307MOL0     H41390  10.259  -0.224   6.584 -1.5162 -1.9342  3.9522
  307MOL0     H41391  10.201  -0.365   6.492 -0.2287  2.1545 -1.3454
  307MOL0     H41392  10.340  -0.506   6.669 -2.1212 -0.8769  1.8676
  307MOL0     H41393  10.409  -0.348   6.727  0.0383 -0.1409  0.2923
  307MOL0     H41394  10.197  -0.276   6.794 -0.5033  0.1944  1.3151
  307MOL0     H41395  10.239  -0.436   6.868  0.3923 -1.4051 -1.5262
  307MOL0     H41396   9.950  -0.280   6.727  0.3007 -0.0859  2.2991
  307MOL0     H41397   9.688  -0.563   6.666 -0.0437 -0.7089 -1.9577
  307MOL0     H41398   9.687  -0.385   6.686  0.9603  1.2399 -2.6105
  307MOL0     H41399   9.562  -0.454   6.496  0.2031 -0.9790 -2.9918
  307MOL0     H41400   9.690  -0.551   6.439  0.7887 -0.6731 -0.4638
  307MOL0     H41401   9.839  -0.343   6.443 -0.1868 -3.6676  0.8671
  307MOL0     H41402   9.687  -0.242   6.461  1.6006  0.1324  2.0413
  307MOL0     H41403   9.730  -0.427   6.223 -1.6648 -0.1292  0.1146
  307MOL0     H41404   9.755  -0.243   6.224 -1.0806  1.8101  1.8633
  307MOL0     H41405   9.683  -0.345   6.002  1.1787 -0.5308  0.8750
  307MOL0     H41406   9.646  -0.224   5.715 -0.4531 -0.0083 -1.8362
  307MOL0     H41407   9.669  -0.381   5.765  1.4268  1.3162 -1.9685
  307MOL0     H41408   9.531  -0.347   5.665 -0.0421  0.8887 -0.1425
  307MOL0     H41409   8.936  -0.247   5.695  0.3889 -1.0394  0.4221
  307MOL0     H41410   8.806  -0.123   5.532 -1.3288  1.2154  0.1676
  307MOL0     H41411   8.744   0.278   5.398 -0.2445 -3.0399 -1.2894
  307MOL0     H41412   8.896   0.305   5.501  0.5669 -1.6044  1.0607
  307MOL0     H41413   8.981   0.361   5.293  0.5284  0.2880  0.5401
  307MOL0     H41414   8.990   0.180   5.273  0.5256 -0.2265  1.1217
  307MOL0     H41415   8.759   0.347   5.180 -5.2554 -3.7630  2.5674
  307MOL0     H41416   8.767   0.177   5.170 -0.1679 -0.8830 -1.3626
  307MOL0     H41417   8.944   0.365   5.038  0.1219  0.6511  3.0024
  307MOL0     H41418   8.984   0.191   5.042 -0.7427 -0.6186  0.2764
  307MOL0     H41419   8.710   0.294   4.937  0.8425  2.4869  0.3565
  307MOL0     H41420   8.761   0.125   4.949  1.2828 -0.4255 -2.1849
  307MOL0     H41421   8.883   0.339   4.781 -1.2408  0.1781  1.2460
  307MOL0     H41422   8.952   0.178   4.795 -0.3851 -1.0126  0.1664
  307MOL0     H41423   8.736   0.083   4.693 -0.2757 -0.5626 -2.5297
  307MOL0     H41424   8.811   0.194   4.588  2.3905 -0.0944  0.9177
  307MOL0     H41425   8.587   0.297   4.770  2.1952  0.5293  1.4316
  307MOL0     H41426   8.561   0.235   4.601  3.2659 -4.7918 -0.3610
  307MOL0     H41427   9.094   0.186   5.525  1.0632 -0.4634  2.3825
  307MOL0     H41428   9.226   0.069   5.684 -0.3625 -1.2531  0.1006
  307MOL0     H41429   9.215  -0.190   6.024 -0.7380 -0.1944  2.4875
  307MOL0     H41430   9.328  -0.244   6.235  0.5331 -1.0291  0.2989
  307MOL0     H41431  10.345   0.017   5.692 -2.0905 -0.1006  0.4538
  307MOL0     H41432  10.373   0.262   5.623  1.7813  2.3294  1.0789
  307MOL0     H41433   9.991   0.570   5.579 -1.7111  2.2011 -2.1301
  307MOL0     H41434   9.945   0.803   5.487 -1.8028 -2.2141  1.4148
  307MOL0     H41435  10.217   1.157   5.541  0.4442 -0.0787  0.5600
  307MOL0     H41436  10.290   1.068   5.409  0.3609  2.3767 -0.0473
  307MOL0     H41437  10.185   1.296   5.338 -1.1554  0.3786 -1.4763
  307MOL0     H41438  10.042   1.237   5.414 -1.3532  0.6022 -2.6942
  307MOL0     H41439  10.096   1.026   5.216  0.9251 -0.2521 -1.4129
  307MOL0     H41440  10.192   1.157   5.153 -0.2087  1.2819 -0.0167
  307MOL0     H41441   9.947   1.286   5.140 -2.4392 -1.1768 -3.4278
  307MOL0     H41442   9.908   1.134   5.226 -0.8073 -1.0188  0.0567
  307MOL0     H41443   9.879   1.056   4.819 -1.0970  1.6586 -0.4119
  307MOL0     H41444  10.349   0.894   5.578  0.0223 -0.9172  0.2944
  307MOL0     H41445  10.386   0.688   5.664  1.1713  1.1182 -1.4470
  308MOL0     O41446   6.426   6.606   4.834  0.1816 -0.2783  0.3687
  308MOL0     C41447   6.456   6.571   4.950  1.0304  0.4513 -0.0088
  308MOL0     O41448   6.433   6.647   5.063  0.2566 -0.3148 -0.3942
  308MOL0     C41449   6.362   6.766   5.059 -0.0683 -0.0871 -0.3326
  308MOL0     C41450   6.226   6.777   5.019 -0.6725 -0.0185 -1.3716
  308MOL0     C41451   6.165   6.898   5.014  0.0620  0.4676 -0.3860
  308MOL0     C41452   6.226   7.007   5.076  0.0523  0.1276  0.3894
  308MOL0     O41453   6.159   7.129   5.083  0.2673 -0.3829 -0.4741
  308MOL0     C41454   6.022   7.125   5.115 -0.2566 -0.8784 -0.1776
  308MOL0     C41455   5.956   7.260   5.116  0.7306 -0.2366 -0.1860
  308MOL0     C41456   5.974   7.335   5.247 -1.0375  0.9109  0.3420
  308MOL0     C41457   5.917   7.477   5.251 -0.2261  0.4084  0.8152
  308MOL0     C41458   5.983   7.564   5.347  0.0026 -0.3563 -0.5549
  308MOL0     C41459   6.093   7.648   5.278 -0.4140 -0.5357  0.7633
  308MOL0     C41460   6.163   7.732   5.382 -0.0665 -0.5664 -1.2796
  308MOL0     C41461   6.287   7.803   5.334 -0.7708 -0.0145  0.5438
  308MOL0     N41462   6.306   7.926   5.417  0.8573  0.0011 -0.3922
  308MOL0     C41463   6.407   7.937   5.521  0.3918  0.3695 -0.5039
  308MOL0     C41464   6.395   8.072   5.549 -0.1032 -0.3563  0.5629
  308MOL0     C41465   6.447   8.128   5.667 -0.6427  0.0070 -0.1653
  308MOL0     C41466   6.370   8.080   5.785  0.6771  0.1775 -0.8682
  308MOL0     C41467   6.460   8.096   5.904 -0.6259  0.2340 -0.2493
  308MOL0     C41468   6.380   8.100   6.037 -0.1858 -0.2869 -0.4043
  308MOL0     O41469   6.438   8.212   6.113  0.1307 -0.0742 -0.1847
  308MOL0     C41470   6.387   8.221   6.247  1.0188 -0.9013 -0.6703
  308MOL0     C41471   6.251   8.209   6.277 -0.9908 -0.4053 -0.6917
  308MOL0     C41472   6.208   8.217   6.414 -0.8692  0.2253 -1.3731
  308MOL0     C41473   6.061   8.200   6.434 -0.1845  0.6995  0.2173
  308MOL0     C41474   6.300   8.239   6.521  0.5050  0.0927  0.9588
  308MOL0     C41475   6.277   8.223   6.668 -0.6554  0.1650  0.2090
  308MOL0     O41476   6.374   8.261   6.756  0.7692 -0.1666 -0.0309
  308MOL0     C41477   6.353   8.231   6.888 -0.2225  0.3461 -1.3239
  308MOL0     C41478   6.361   8.336   6.984  0.0561 -0.4607 -0.3028
  308MOL0     C41479   6.355   8.300   7.111 -0.2269  0.0916 -1.1210
  308MOL0     C41480   6.324   8.167   7.156  0.0012  0.3517  1.2104
  308MOL0     O41481   6.328   8.150   7.291 -0.6278  1.0475 -0.2096
  308MOL0     C41482   6.233   8.064   7.357  0.2137 -0.4684  0.1707
  308MOL0     C41483   6.155   8.155   7.458  0.4173 -0.4816  0.6004
  308MOL0     C41484   6.037   8.064   7.513  0.6308  0.4648  0.4760
  308MOL0     C41485   5.942   8.151   7.609  0.2901 -0.1678 -0.6730
  308MOL0     C41486   5.841   8.071   7.688  0.5162 -0.3239  0.5284
  308MOL0     C41487   5.752   7.961   7.608 -0.2099 -0.3558 -0.5043
  308MOL0     C41488   5.658   8.032   7.507 -0.4067 -0.2638  0.4587
  308MOL0     C41489   5.590   7.936   7.404  0.7525  0.1029 -0.1063
  308MOL0    Cl41490   5.516   7.804   7.505  0.2662  0.3358 -0.0829
  308MOL0     C41491   6.332   8.064   7.067  0.3420 -0.4509  0.6654
  308MOL0     C41492   6.350   8.089   6.932  0.6507 -0.2799 -0.8822
  308MOL0     O41493   6.182   8.153   6.708  0.4287  0.0920  0.3649
  308MOL0     C41494   6.426   8.275   6.474 -0.1929  0.4649  0.2504
  308MOL0     C41495   6.467   8.260   6.345  0.2615  0.2066 -0.1632
  308MOL0     N41496   6.300   8.128   5.461 -0.3721  0.4819 -0.0505
  308MOL0     N41497   6.246   8.038   5.390  0.0883  0.1610  0.5167
  308MOL0     C41498   6.350   6.993   5.130  0.4550 -0.4338 -0.4810
  308MOL0     C41499   6.418   6.877   5.121  0.3049  0.8628 -0.3873
  308MOL0     C41500   6.525   6.443   4.972 -0.0722 -0.6100  1.7271
  308MOL0     C41501   6.520   6.375   5.093  0.0094  0.2542  0.6294
  308MOL0     C41502   6.598   6.266   5.115  0.6387 -0.0124 -0.0293
  308MOL0     C41503   6.679   6.215   5.011 -0.3204 -0.2397  0.0188
  308MOL0     O41504   6.780   6.125   5.036  0.1044  0.4250 -0.7491
  308MOL0     C41505   6.820   6.106   5.174  0.2716  1.1155 -0.1101
  308MOL0     C41506   6.963   6.025   5.175  0.8451 -0.0423 -0.1299
  308MOL0     C41507   6.955   5.897   5.093  0.1714  1.1859 -0.7372
  308MOL0     C41508   7.081   5.813   5.095 -0.5447 -0.0401  0.0482
  308MOL0     C41509   7.194   5.894   5.039  0.5358  0.5096 -0.0681
  308MOL0     C41510   7.282   5.972   4.995  0.5595  0.7614  0.2257
  308MOL0     C41511   6.666   6.264   4.885 -0.2741  0.5733 -0.4029
  308MOL0     C41512   6.588   6.376   4.859  0.3703  0.3876 -1.0333
  308MOL0     H41513   6.172   6.693   4.978  1.4249 -1.0262 -2.1993
  308MOL0     H41514   6.065   6.897   4.973 -0.4669  4.3213  0.4567
  308MOL0     H41515   5.973   7.062   5.041 -0.6714 -1.5670  0.6586
  308MOL0     H41516   5.997   7.085   5.214 -1.3479  0.3687  0.0899
  308MOL0     H41517   5.998   7.317   5.033  0.3335  3.0311  1.7016
  308MOL0     H41518   5.848   7.252   5.100  0.6753 -0.2487  0.1924
  308MOL0     H41519   5.945   7.279   5.337  0.2568 -1.3320 -0.5476
  308MOL0     H41520   6.082   7.348   5.258 -1.1069  1.6471  0.1759
  308MOL0     H41521   5.930   7.524   5.153  1.4553 -0.6731  0.4624
  308MOL0     H41522   5.809   7.469   5.266 -0.6775  0.6396 -1.8503
  308MOL0     H41523   5.916   7.643   5.384 -2.2253 -1.9324 -1.0272
  308MOL0     H41524   6.026   7.516   5.435  2.3497 -1.3277 -2.1407
  308MOL0     H41525   6.156   7.574   5.228  2.1193  2.9260 -1.7098
  308MOL0     H41526   6.052   7.716   5.203  0.1333  1.6986  2.3719
  308MOL0     H41527   6.085   7.798   5.420  2.2822  0.9685  1.1675
  308MOL0     H41528   6.190   7.667   5.465 -4.6490  0.2868  1.1868
  308MOL0     H41529   6.270   7.827   5.229 -1.1278  1.3035  0.8862
  308MOL0     H41530   6.378   7.745   5.353 -1.0490 -1.1159 -1.2499
  308MOL0     H41531   6.471   7.870   5.576 -0.9632 -0.0830  0.5967
  308MOL0     H41532   6.552   8.100   5.675  0.1482  2.3090 -1.5317
  308MOL0     H41533   6.445   8.237   5.663  1.2875  0.0854  0.1864
  308MOL0     H41534   6.327   7.980   5.768 -0.1145  0.2169  0.7452
  308MOL0     H41535   6.291   8.155   5.787 -0.8833 -1.3316 -2.1119
  308MOL0     H41536   6.524   8.185   5.899  1.1766 -1.0330 -0.5225
  308MOL0     H41537   6.539   8.021   5.907  1.1925  2.0467 -0.2317
  308MOL0     H41538   6.387   8.001   6.083 -3.1265  0.0227  0.9105
  308MOL0     H41539   6.277   8.109   6.003  0.0996 -0.7658 -1.4511
  308MOL0     H41540   6.180   8.192   6.197 -2.7761  2.4855  0.1607
  308MOL0     H41541   6.039   8.101   6.474  0.8446 -0.6300 -2.2471
  308MOL0     H41542   6.019   8.274   6.502 -0.1907 -0.5637  1.6370
  308MOL0     H41543   6.012   8.210   6.336 -0.3369 -0.0621  0.2102
  308MOL0     H41544   6.391   8.433   6.945  0.6262 -1.5263 -2.6504
  308MOL0     H41545   6.358   8.379   7.185 -0.9710  1.6838 -2.7148
  308MOL0     H41546   6.161   8.013   7.293 -3.4646  2.9778  1.1427
  308MOL0     H41547   6.278   7.987   7.421 -1.5436  1.1938  3.6748
  308MOL0     H41548   6.217   8.187   7.542 -2.1656  1.2547  1.9865
  308MOL0     H41549   6.123   8.245   7.403 -1.3835  0.4631  3.0184
  308MOL0     H41550   6.083   7.974   7.556 -0.2476 -0.5311 -0.5983
  308MOL0     H41551   5.965   8.036   7.437 -1.5116  1.7410  1.9329
  308MOL0     H41552   6.010   8.203   7.677  0.4170 -2.4037  1.0508
  308MOL0     H41553   5.890   8.229   7.553  0.4953 -0.2324 -0.9533
  308MOL0     H41554   5.770   8.145   7.725 -0.4992 -0.5699 -0.8555
  308MOL0     H41555   5.884   8.017   7.772 -0.9237 -3.6368 -0.6986
  308MOL0     H41556   5.811   7.894   7.544 -3.6149 -1.6313 -2.5959
  308MOL0     H41557   5.697   7.896   7.676 -0.2632  1.8807  1.7719
  308MOL0     H41558   5.716   8.102   7.446 -0.5114 -0.9728 -0.4861
  308MOL0     H41559   5.581   8.085   7.563 -0.0135  0.5310  0.2623
  308MOL0     H41560   5.667   7.882   7.349  3.1942  0.8291  2.3540
  308MOL0     H41561   5.520   7.983   7.334 -0.0841 -3.0909 -1.5799
  308MOL0     H41562   6.302   7.968   7.109 -0.2781 -0.9328 -0.7931
  308MOL0     H41563   6.327   8.007   6.865 -0.9119 -1.3136  0.8449
  308MOL0     H41564   6.497   8.309   6.548 -0.5351  1.9043 -0.0425
  308MOL0     H41565   6.570   8.283   6.318  1.1272  0.4214  2.9203
  308MOL0     H41566   6.398   7.081   5.172  0.2411 -0.9573  0.9016
  308MOL0     H41567   6.515   6.858   5.166  0.8505 -0.4618 -2.0011
  308MOL0     H41568   6.459   6.415   5.173 -1.0055 -3.0389  1.6867
  308MOL0     H41569   6.601   6.203   5.203  1.6953 -0.6549 -0.5051
  308MOL0     H41570   6.829   6.201   5.227 -0.7585 -0.2595  2.7049
  308MOL0     H41571   6.755   6.045   5.237  2.9241 -1.4706  0.3239
  308MOL0     H41572   6.983   5.994   5.278  0.0046  5.0512  1.8790
  308MOL0     H41573   7.044   6.086   5.133  1.0553  0.8248  1.4514
  308MOL0     H41574   6.941   5.916   4.986 -0.0214  0.8830 -0.7672
  308MOL0     H41575   6.868   5.845   5.136  1.5237 -0.8512 -0.3339
  308MOL0     H41576   7.061   5.741   5.015  2.3156 -0.7671 -0.0990
  308MOL0     H41577   7.100   5.764   5.191  0.2451 -0.1324 -0.1463
  308MOL0     H41578   7.342   6.051   4.955 -0.7103  1.8056  0.3288
  308MOL0     H41579   6.718   6.217   4.802 -0.1831 -0.8234  0.4049
  308MOL0     H41580   6.591   6.420   4.760 -0.1929 -0.0071 -1.2348
  309MOL0     O41581  10.792   0.094   3.707 -0.4316  0.2529  0.0694
  309MOL0     C41582  10.806   0.033   3.810 -0.4115  0.9195  0.3309
  309MOL0     O41583  10.707   0.016   3.902  0.1626  0.6127  0.4852
  309MOL0     C41584  10.583   0.082   3.907 -0.5644 -0.8121  1.0833
  309MOL0     C41585  10.501   0.056   4.015  1.1252 -0.3766  1.1405
  309MOL0     C41586  10.373   0.122   4.025  0.2603 -0.5459 -0.3215
  309MOL0     C41587  10.338   0.225   3.939  0.9926 -0.3890  0.1706
  309MOL0     O41588  10.231   0.311   3.937 -0.2244  0.4191  0.1799
  309MOL0     C41589  10.148   0.299   4.053 -0.2751 -0.7763 -0.3600
  309MOL0     C41590  10.030   0.195   4.039 -0.1800 -0.9232 -0.5121
  309MOL0     C41591   9.902   0.255   3.953 -0.5667  0.1835 -0.0930
  309MOL0     C41592   9.789   0.154   3.965 -0.2988  0.2154 -0.1905
  309MOL0     C41593   9.692   0.218   3.872  0.2581  0.1354 -0.7653
  309MOL0     C41594   9.571   0.128   3.859 -0.0511  0.7199  0.1589
  309MOL0     C41595   9.456   0.201   3.796 -0.6950 -0.8454  0.6237
  309MOL0     C41596   9.414   0.145   3.656 -0.4633 -0.7122  0.3568
  309MOL0     N41597   9.298   0.217   3.619  0.9193 -0.4675  0.2711
  309MOL0     C41598   9.298   0.333   3.545 -0.0224  0.4526 -0.1970
  309MOL0     C41599   9.170   0.370   3.537 -0.2417 -1.2255 -0.1739
  309MOL0     C41600   9.121   0.502   3.482 -0.1894  0.4903  0.8404
  309MOL0     C41601   9.056   0.485   3.345  0.1605 -0.3232  0.4920
  309MOL0     C41602   9.008   0.347   3.310  0.1124  0.6497  0.1226
  309MOL0     C41603   8.895   0.297   3.387 -0.1838 -0.6981  0.2155
  309MOL0     O41604   8.772   0.328   3.326  0.1864 -0.2781 -0.3728
  309MOL0     C41605   8.711   0.455   3.352 -0.5173 -0.8555  0.4473
  309MOL0     C41606   8.748   0.547   3.457  0.8790  0.4697  0.5805
  309MOL0     C41607   8.680   0.675   3.475  0.4868  0.4491  0.7732
  309MOL0     C41608   8.714   0.755   3.591  0.2560  0.2776 -0.1865
  309MOL0     C41609   8.580   0.713   3.374  0.4027 -0.4013  0.5697
  309MOL0     C41610   8.507   0.839   3.379 -0.1139 -0.3283 -0.9804
  309MOL0     O41611   8.464   0.866   3.509 -0.6421  0.7516 -0.7863
  309MOL0     C41612   8.392   0.979   3.535  0.2412 -0.8185  0.3320
  309MOL0     C41613   8.447   1.078   3.625  0.3382 -0.0337 -0.8557
  309MOL0     C41614   8.379   1.203   3.653 -1.1039  0.5913  0.3158
  309MOL0     C41615   8.261   1.220   3.585  0.0627 -0.3582 -0.4043
  309MOL0     O41616   8.183   1.334   3.606  0.1839  0.0470 -0.7346
  309MOL0     C41617   8.200   1.423   3.717  0.1359 -0.5080 -0.6845
  309MOL0     C41618   8.298   1.536   3.675 -0.6776 -0.5312 -0.0248
  309MOL0     C41619   8.327   1.649   3.771  0.5477 -0.4314  1.0430
  309MOL0     C41620   8.447   1.745   3.737  0.3486 -0.3122 -1.1642
  309MOL0     C41621   8.416   1.872   3.664  0.3964  0.0546 -0.6135
  309MOL0     C41622   8.541   1.963   3.649 -0.5910  0.0671  0.4189
  309MOL0     C41623   8.531   2.074   3.548 -0.2466 -0.5196 -1.1168
  309MOL0     C41624   8.653   2.158   3.526 -0.2911  0.1911  0.6642
  309MOL0    Cl41625   8.792   2.058   3.459 -0.3329 -0.0674  0.2704
  309MOL0     C41626   8.207   1.132   3.498 -0.4392  0.6464  0.2144
  309MOL0     C41627   8.276   1.010   3.472  1.0040  0.1476 -0.7850
  309MOL0     O41628   8.461   0.890   3.281 -0.0789  0.3520  0.6991
  309MOL0     C41629   8.554   0.616   3.274  0.0268  0.0683  0.6315
  309MOL0     C41630   8.600   0.488   3.269  0.0366  0.8819 -0.4412
  309MOL0     N41631   9.096   0.278   3.612 -0.7386  0.2185 -0.5033
  309MOL0     N41632   9.173   0.184   3.661  0.3961  0.3130 -0.4903
  309MOL0     C41633  10.425   0.253   3.831  0.8203  0.2206  0.4994
  309MOL0     C41634  10.537   0.179   3.817 -0.4836 -0.3141  0.3377
  309MOL0     C41635  10.940  -0.019   3.842 -0.1272 -0.1295  0.3941
  309MOL0     C41636  10.952  -0.101   3.957 -1.1202 -0.2168  0.7925
  309MOL0     C41637  11.073  -0.170   3.981  0.1513  0.2009 -0.4437
  309MOL0     C41638  11.187  -0.145   3.907 -0.7353  0.5005  1.0112
  309MOL0     O41639  11.295  -0.227   3.947 -0.0347 -0.6324  0.1794
  309MOL0     C41640  11.425  -0.163   3.933  0.3438  0.5490 -0.6199
  309MOL0     C41641  11.443  -0.053   4.023  0.5462 -0.9960 -0.0453
  309MOL0     C41642  11.592  -0.007   4.045  0.3164  0.2466  0.5033
  309MOL0     C41643  11.621   0.103   4.145  0.1536 -0.4176  0.1383
  309MOL0     C41644  11.693   0.060   4.261 -0.5756  0.2565 -0.1002
  309MOL0     C41645  11.721   0.013   4.373  0.4474 -0.1789  1.3245
  309MOL0     C41646  11.176  -0.057   3.796 -1.0109  0.0359 -0.3868
  309MOL0     C41647  11.053   0.008   3.760  0.0646  0.9231 -0.0330
  309MOL0     H41648  10.539  -0.023   4.079 -2.2321 -0.5325  3.1766
  309MOL0     H41649  10.300   0.101   4.103 -0.3423 -0.3677 -0.8269
  309MOL0     H41650  10.213   0.280   4.139  0.8212 -2.7272 -1.5560
  309MOL0     H41651  10.096   0.394   4.069 -1.0458 -1.5029  1.8089
  309MOL0     H41652  10.054   0.105   3.982 -1.1711 -0.2132 -2.1305
  309MOL0     H41653   9.990   0.177   4.139 -1.5009  0.0559 -0.8435
  309MOL0     H41654   9.881   0.349   4.004  1.8322 -1.3984  4.3563
  309MOL0     H41655   9.933   0.270   3.849 -2.4344  1.3150 -0.5347
  309MOL0     H41656   9.818   0.056   3.926  4.9559  2.6505 -3.6436
  309MOL0     H41657   9.744   0.145   4.064  0.3882 -1.4018  0.0012
  309MOL0     H41658   9.669   0.319   3.906  1.8992  0.7289 -1.3096
  309MOL0     H41659   9.738   0.231   3.774 -1.5021  0.4580 -1.5961
  309MOL0     H41660   9.612   0.047   3.798  1.1439  0.7330  0.9051
  309MOL0     H41661   9.552   0.097   3.963  2.9900  0.0414  0.6026
  309MOL0     H41662   9.369   0.206   3.863 -3.5652 -0.2566 -2.8607
  309MOL0     H41663   9.478   0.307   3.779  0.0028 -1.0841 -0.0346
  309MOL0     H41664   9.388   0.040   3.672 -1.3574 -0.3425  1.5566
  309MOL0     H41665   9.496   0.158   3.586 -0.8886 -0.1794 -0.0498
  309MOL0     H41666   9.389   0.382   3.511  0.0388  0.4534 -0.0341
  309MOL0     H41667   9.048   0.539   3.555 -1.2207  4.3055 -1.7716
  309MOL0     H41668   9.194   0.583   3.480  2.2880 -1.5276 -3.0238
  309MOL0     H41669   9.129   0.521   3.272  1.0749  1.5831  2.2585
  309MOL0     H41670   8.979   0.561   3.329  1.2935  0.5198 -1.3383
  309MOL0     H41671   9.096   0.283   3.321 -0.2816  0.0758 -0.0143
  309MOL0     H41672   8.979   0.340   3.205 -0.5197  1.4074  0.2401
  309MOL0     H41673   8.890   0.330   3.491 -4.4402 -0.7255  0.1738
  309MOL0     H41674   8.903   0.188   3.386 -1.5979 -0.8202  0.0968
  309MOL0     H41675   8.830   0.516   3.521  0.4521 -3.1650 -0.4171
  309MOL0     H41676   8.810   0.730   3.637  0.9382  1.9626 -0.6209
  309MOL0     H41677   8.718   0.859   3.558  0.9752  0.1130 -0.6304
  309MOL0     H41678   8.637   0.751   3.670  1.1711 -0.7652  0.6901
  309MOL0     H41679   8.548   1.067   3.664  0.6936  1.5196 -1.2635
  309MOL0     H41680   8.430   1.280   3.711  1.0143  1.5473 -2.5812
  309MOL0     H41681   8.097   1.454   3.734 -0.4870 -2.3343 -0.8349
  309MOL0     H41682   8.246   1.388   3.810  0.3980  1.7916  0.1131
  309MOL0     H41683   8.390   1.482   3.650 -0.9412 -0.2452 -1.7473
  309MOL0     H41684   8.273   1.584   3.579  1.0703 -2.7024 -1.6882
  309MOL0     H41685   8.343   1.602   3.869 -3.3713  0.0790  2.1100
  309MOL0     H41686   8.232   1.704   3.770  2.1862  2.5696  0.2483
  309MOL0     H41687   8.479   1.778   3.837  1.1806  0.0751 -1.5524
  309MOL0     H41688   8.533   1.687   3.701  1.8114 -2.0324  4.1542
  309MOL0     H41689   8.329   1.919   3.711  0.0646  1.5839 -2.6409
  309MOL0     H41690   8.394   1.855   3.558  0.0604 -2.8207 -0.1461
  309MOL0     H41691   8.557   2.009   3.747 -2.5417  0.5974  0.5234
  309MOL0     H41692   8.625   1.895   3.630 -1.8802 -1.4423 -0.0092
  309MOL0     H41693   8.451   2.142   3.582  1.2092  1.5517 -1.6474
  309MOL0     H41694   8.499   2.033   3.452 -2.1705  0.4576 -0.9561
  309MOL0     H41695   8.695   2.189   3.623  2.6468  1.4361 -0.8699
  309MOL0     H41696   8.630   2.244   3.463  2.1771  1.2563  1.0690
  309MOL0     H41697   8.121   1.165   3.440 -2.0023  2.5526  3.3658
  309MOL0     H41698   8.239   0.943   3.396 -0.7299 -2.7074  2.2956
  309MOL0     H41699   8.485   0.644   3.194  1.4939 -1.1057 -1.1401
  309MOL0     H41700   8.561   0.430   3.186  0.6244  0.0351 -0.1413
  309MOL0     H41701  10.382   0.326   3.763 -0.4173  1.0158  2.0627
  309MOL0     H41702  10.606   0.218   3.743 -0.8110  1.9908  1.1816
  309MOL0     H41703  10.860  -0.129   4.008 -2.5074 -0.5488 -1.7534
  309MOL0     H41704  11.089  -0.233   4.068  2.2113  0.3251 -0.6694
  309MOL0     H41705  11.498  -0.240   3.958 -0.6304 -1.6414 -3.7967
  309MOL0     H41706  11.438  -0.137   3.828 -2.5043 -4.3827 -2.5414
  309MOL0     H41707  11.400  -0.095   4.115 -0.8851 -0.3202 -0.3692
  309MOL0     H41708  11.380   0.033   3.997 -1.7950 -2.7582 -0.6218
  309MOL0     H41709  11.644   0.025   3.954  2.2870 -0.1225  1.4490
  309MOL0     H41710  11.638  -0.099   4.082  0.4513 -0.3964 -1.1506
  309MOL0     H41711  11.524   0.128   4.188 -0.1826 -0.4859 -0.5668
  309MOL0     H41712  11.670   0.185   4.092 -1.7106  2.2744  2.3014
  309MOL0     H41713  11.769  -0.041   4.452  0.3808  0.4705  1.8104
  309MOL0     H41714  11.261  -0.028   3.735 -0.9019 -2.0698 -1.3223
  309MOL0     H41715  11.047   0.073   3.673 -1.9487 -0.0164 -0.6632
  310MOL0     O41716   8.425   6.119   1.446 -0.1917 -0.0958 -0.1747
  310MOL0     C41717   8.530   6.050   1.478 -0.2930  0.0999 -0.1136
  310MOL0     O41718   8.534   5.914   1.514 -0.1750  0.2661  0.2325
  310MOL0     C41719   8.427   5.840   1.522  0.2725 -0.1389 -0.6903
  310MOL0     C41720   8.322   5.870   1.621 -0.5722  2.0769  0.5460
  310MOL0     C41721   8.216   5.778   1.635  0.3513  0.7746 -0.0903
  310MOL0     C41722   8.206   5.660   1.551 -0.1713 -0.3643 -0.0639
  310MOL0     O41723   8.103   5.573   1.556 -0.7667  0.4576  0.0732
  310MOL0     C41724   7.996   5.612   1.471 -0.2095 -0.0996 -0.1565
  310MOL0     C41725   7.867   5.532   1.484  0.1363  0.7022  0.2040
  310MOL0     C41726   7.843   5.490   1.631  0.0986 -0.7986 -0.1136
  310MOL0     C41727   7.698   5.451   1.653  0.4838 -0.6762  0.2951
  310MOL0     C41728   7.634   5.346   1.549 -0.3010  1.7031  0.1200
  310MOL0     C41729   7.707   5.206   1.525 -0.2005 -0.2437 -0.6853
  310MOL0     C41730   7.701   5.098   1.626 -0.3005 -0.1808 -0.0686
  310MOL0     C41731   7.564   5.021   1.629 -0.5287  0.4634 -0.3577
  310MOL0     N41732   7.501   4.974   1.506 -0.2241 -0.4238  0.2952
  310MOL0     C41733   7.421   5.042   1.422 -0.1243  0.3269  0.4094
  310MOL0     C41734   7.377   4.945   1.335 -0.6437  0.3197  0.0131
  310MOL0     C41735   7.276   4.988   1.236 -0.5015 -1.1283  0.2725
  310MOL0     C41736   7.345   5.045   1.110 -0.6597 -0.6563  0.6507
  310MOL0     C41737   7.379   4.932   1.010  0.6363 -0.2458 -0.3242
  310MOL0     C41738   7.259   4.865   0.939  0.6653 -0.0880  0.3379
  310MOL0     O41739   7.169   4.965   0.885 -0.9178  0.0664  0.1132
  310MOL0     C41740   7.059   4.928   0.811 -0.2537  0.2670  0.6921
  310MOL0     C41741   6.985   4.810   0.828 -0.1216 -0.2044  0.5676
  310MOL0     C41742   6.866   4.776   0.762  0.1246  0.3002 -0.9570
  310MOL0     C41743   6.801   4.641   0.786 -0.5917 -0.6055 -0.5213
  310MOL0     C41744   6.813   4.870   0.672  0.0698  0.1561 -0.1618
  310MOL0     C41745   6.686   4.853   0.591 -0.1689 -0.2412  0.2294
  310MOL0     O41746   6.664   4.727   0.553 -0.1692  0.6695 -0.8352
  310MOL0     C41747   6.557   4.683   0.482 -0.3313 -0.6254  0.3123
  310MOL0     C41748   6.582   4.579   0.400 -0.3585 -0.3856 -0.4203
  310MOL0     C41749   6.464   4.520   0.334  0.2066  0.0072  0.2026
  310MOL0     C41750   6.338   4.548   0.376  0.6982  0.2553 -0.7890
  310MOL0     O41751   6.238   4.490   0.303 -0.3758 -0.1704  0.5453
  310MOL0     C41752   6.110   4.472   0.376 -0.7513  0.7621  0.5536
  310MOL0     C41753   6.043   4.349   0.305 -0.3736  0.5502 -1.4315
  310MOL0     C41754   6.113   4.222   0.351  0.4486  0.8305 -0.5584
  310MOL0     C41755   6.081   4.099   0.258  0.3373 -0.8381  0.2447
  310MOL0     C41756   5.933   4.055   0.257 -0.2468  0.5343 -0.0067
  310MOL0     C41757   5.870   3.993   0.383 -0.2630  0.2131 -1.0316
  310MOL0     C41758   5.815   4.090   0.496  1.2989  0.1386 -0.0786
  310MOL0     C41759   5.681   4.144   0.443 -0.1742  0.1448 -0.5199
  310MOL0    Cl41760   5.604   4.265   0.550 -0.4989 -0.3416 -0.4587
  310MOL0     C41761   6.324   4.660   0.456  0.4838  0.6396 -0.0729
  310MOL0     C41762   6.428   4.727   0.509 -0.2711  0.1383 -0.0113
  310MOL0     O41763   6.625   4.957   0.553 -0.5478  0.4389  0.4714
  310MOL0     C41764   6.893   4.986   0.653 -0.1275 -0.4928 -0.1379
  310MOL0     C41765   7.006   5.018   0.722  0.7970  0.3977 -1.0134
  310MOL0     N41766   7.426   4.822   1.367 -0.7404  0.0808  0.0211
  310MOL0     N41767   7.513   4.842   1.461 -0.0198  0.2835 -0.7338
  310MOL0     C41768   8.306   5.633   1.451 -0.2697 -0.0273 -0.3074
  310MOL0     C41769   8.409   5.733   1.433 -0.2572  1.1527 -0.0286
  310MOL0     C41770   8.658   6.130   1.474 -0.3374 -1.2240 -1.0945
  310MOL0     C41771   8.656   6.274   1.488  0.7480 -0.3974 -0.1626
  310MOL0     C41772   8.777   6.347   1.496 -0.4625  0.8200  0.0345
  310MOL0     C41773   8.899   6.277   1.472 -0.2418  0.1477 -0.1625
  310MOL0     O41774   9.011   6.359   1.477  0.1048 -0.6970  0.4138
  310MOL0     C41775   9.110   6.318   1.391  0.1872  0.1841  0.3435
  310MOL0     C41776   9.218   6.424   1.378  0.1490  1.0382 -0.1796
  310MOL0     C41777   9.168   6.546   1.293  0.3181 -0.1866 -0.8204
  310MOL0     C41778   9.118   6.666   1.375 -0.4192 -0.0188 -0.4030
  310MOL0     C41779   9.085   6.771   1.287 -0.2436 -0.3407  1.2076
  310MOL0     C41780   9.050   6.853   1.202 -0.1350 -0.5117  0.1417
  310MOL0     C41781   8.900   6.139   1.457  0.9723  0.8057  0.1775
  310MOL0     C41782   8.782   6.069   1.460 -0.0600 -0.1530 -0.2961
  310MOL0     H41783   8.351   5.950   1.687  4.3774  0.0967  1.2147
  310MOL0     H41784   8.136   5.788   1.708  0.4581  1.5395 -0.0715
  310MOL0     H41785   7.990   5.721   1.463  1.4336  0.0746  0.5920
  310MOL0     H41786   8.026   5.601   1.366  0.2746 -0.5396  0.0252
  310MOL0     H41787   7.789   5.593   1.437 -0.6831 -0.4931 -0.0490
  310MOL0     H41788   7.871   5.438   1.428 -4.8415 -0.3486  1.0806
  310MOL0     H41789   7.917   5.413   1.654  0.7424  0.1617  1.1718
  310MOL0     H41790   7.865   5.577   1.694  1.4512 -0.3474 -1.1570
  310MOL0     H41791   7.675   5.422   1.757  1.7681  0.8440  1.0429
  310MOL0     H41792   7.637   5.542   1.642 -1.9500 -1.9001  2.4838
  310MOL0     H41793   7.537   5.321   1.593  0.9099 -0.4665  1.7577
  310MOL0     H41794   7.622   5.389   1.449 -2.1879  2.3974  0.6111
  310MOL0     H41795   7.676   5.154   1.434 -0.2793  0.0135 -0.8046
  310MOL0     H41796   7.808   5.238   1.501 -0.2094  2.3825  2.1554
  310MOL0     H41797   7.785   5.032   1.603 -1.1626 -2.0216  1.6764
  310MOL0     H41798   7.706   5.150   1.722 -1.3729  0.8035 -0.5260
  310MOL0     H41799   7.493   5.083   1.684  0.8970  0.8113  1.1483
  310MOL0     H41800   7.575   4.928   1.685  0.1940  1.0571  0.5064
  310MOL0     H41801   7.413   5.148   1.441  3.8397  1.1004 -1.3973
  310MOL0     H41802   7.215   4.900   1.216  0.2907 -1.7761  0.6524
  310MOL0     H41803   7.215   5.067   1.280 -0.7337 -2.3454  2.2759
  310MOL0     H41804   7.437   5.102   1.125 -1.7537  1.2885  0.2927
  310MOL0     H41805   7.272   5.119   1.076  1.0174 -0.1999 -2.3067
  310MOL0     H41806   7.440   4.850   1.049  2.4567  1.0742 -0.2487
  310MOL0     H41807   7.434   4.986   0.933  1.1853  1.6868  1.3375
  310MOL0     H41808   7.208   4.796   1.007  1.6055  0.7150  1.9188
  310MOL0     H41809   7.309   4.815   0.856  2.7979  1.9448  0.2715
  310MOL0     H41810   7.020   4.734   0.897 -2.2337 -0.7933  1.0584
  310MOL0     H41811   6.695   4.652   0.808 -0.3747  1.1891 -0.1570
  310MOL0     H41812   6.813   4.570   0.705 -0.7895 -0.3602 -0.7682
  310MOL0     H41813   6.851   4.591   0.870  3.1963  1.8573 -1.0499
  310MOL0     H41814   6.687   4.551   0.393 -0.5983 -1.1612 -1.0645
  310MOL0     H41815   6.490   4.443   0.263 -2.5465  0.8230 -1.8535
  310MOL0     H41816   6.134   4.442   0.478 -3.6096 -3.0999  0.3103
  310MOL0     H41817   6.046   4.560   0.383  0.2267  1.3425  4.1088
  310MOL0     H41818   5.939   4.334   0.337  0.4353 -0.4585  0.9678
  310MOL0     H41819   6.048   4.367   0.197  1.2855  2.0996 -1.1522
  310MOL0     H41820   6.093   4.204   0.456 -0.4505  1.1457 -0.6684
  310MOL0     H41821   6.218   4.254   0.346  1.1902 -1.5902 -3.5402
  310MOL0     H41822   6.115   4.117   0.156 -0.5449 -0.8967 -0.0665
  310MOL0     H41823   6.139   4.021   0.308  1.5709 -0.7592 -1.0265
  310MOL0     H41824   5.930   3.978   0.180 -2.9316 -2.5986  2.8378
  310MOL0     H41825   5.872   4.142   0.228 -1.7956 -0.1698  0.9455
  310MOL0     H41826   5.782   3.933   0.358  0.9001 -1.0405 -2.2192
  310MOL0     H41827   5.946   3.928   0.426  0.3438  2.4071  1.4983
  310MOL0     H41828   5.875   4.179   0.515  0.2220  0.1967  3.7809
  310MOL0     H41829   5.798   4.026   0.582 -1.4184  0.5352 -0.2166
  310MOL0     H41830   5.614   4.058   0.440 -0.1858  0.1672 -2.8254
  310MOL0     H41831   5.699   4.188   0.344  2.8563  0.4229  0.0631
  310MOL0     H41832   6.227   4.708   0.462  0.4314  0.5216  0.0333
  310MOL0     H41833   6.415   4.812   0.575 -0.7238  0.9640 -1.1240
  310MOL0     H41834   6.872   5.065   0.583 -0.4240  2.3433  2.9017
  310MOL0     H41835   7.035   5.121   0.708  1.0604  0.2494 -1.5803
  310MOL0     H41836   8.291   5.551   1.382 -1.0775  0.2852 -0.5196
  310MOL0     H41837   8.488   5.717   1.359  1.6438  1.7368  1.7891
  310MOL0     H41838   8.567   6.334   1.473  2.2758  1.5232 -2.1224
  310MOL0     H41839   8.781   6.455   1.510  0.1849  0.5882  2.0313
  310MOL0     H41840   9.142   6.225   1.440 -2.0317 -1.2107 -0.6959
  310MOL0     H41841   9.076   6.295   1.290  3.8027  2.9408 -1.7710
  310MOL0     H41842   9.315   6.380   1.351  0.2955  0.5296  1.1166
  310MOL0     H41843   9.238   6.457   1.480  0.6786 -0.7499  0.3280
  310MOL0     H41844   9.096   6.509   1.219 -1.2634 -2.3456  1.6170
  310MOL0     H41845   9.252   6.589   1.237 -0.2592 -1.7431 -2.9844
  310MOL0     H41846   9.202   6.704   1.434 -2.3180  1.1216  1.7192
  310MOL0     H41847   9.044   6.627   1.444  0.6904 -2.5703 -0.5321
  310MOL0     H41848   9.032   6.914   1.116  1.6103  1.8756  1.3500
  310MOL0     H41849   8.992   6.083   1.440  3.2556  3.5374  2.3678
  310MOL0     H41850   8.782   5.966   1.427 -0.3174 -0.0444 -0.6421
  311MOL0     O41851   4.605   7.124  11.038 -0.4608 -0.0926  1.0247
  311MOL0     C41852   4.658   7.007  11.031  0.1078 -0.6406 -0.2051
  311MOL0     O41853   4.658   6.931  10.924  0.3154  0.0877  0.3658
  311MOL0     C41854   4.607   6.979  10.809 -0.1183 -0.2311 -0.3383
  311MOL0     C41855   4.674   7.070  10.728  0.4775 -0.2587  0.3997
  311MOL0     C41856   4.609   7.116  10.606 -0.2661  0.3078  0.3752
  311MOL0     C41857   4.482   7.066  10.566 -0.5699  0.8180  0.4319
  311MOL0     O41858   4.449   7.121  10.443 -0.0199  0.2064 -0.2805
  311MOL0     C41859   4.344   7.066  10.366 -0.5063 -0.1913 -0.0805
  311MOL0     C41860   4.308   7.166  10.250  0.0545  1.3112 -0.5627
  311MOL0     C41861   4.175   7.137  10.178  0.6670 -0.8222 -0.1281
  311MOL0     C41862   4.121   7.252  10.100 -0.5496  0.0563  0.9404
  311MOL0     C41863   4.150   7.243   9.950 -0.1539 -0.5618  0.3774
  311MOL0     C41864   4.292   7.261   9.882 -0.6113  0.1807 -0.4775
  311MOL0     C41865   4.301   7.182   9.755 -0.1222  0.4903  1.0476
  311MOL0     C41866   4.218   7.232   9.638 -0.3201  0.4446  0.2321
  311MOL0     N41867   4.229   7.146   9.517 -0.1384  0.7739  0.5568
  311MOL0     C41868   4.334   7.065   9.465 -0.6626  1.1326  1.0498
  311MOL0     C41869   4.274   6.985   9.380  0.2411  0.7283 -0.0607
  311MOL0     C41870   4.326   6.876   9.286  0.0988 -0.2202  0.6877
  311MOL0     C41871   4.478   6.864   9.261  0.2653 -0.2687  0.4184
  311MOL0     C41872   4.545   6.990   9.199  0.0254  0.8071  0.4853
  311MOL0     C41873   4.692   6.993   9.221  0.6188 -0.1118 -0.8042
  311MOL0     O41874   4.746   6.867   9.174 -0.1087  0.6181 -0.1562
  311MOL0     C41875   4.883   6.852   9.207 -0.2709 -0.0393  0.6477
  311MOL0     C41876   4.930   6.725   9.229 -0.1098  0.0531 -0.2507
  311MOL0     C41877   5.073   6.702   9.246  0.2933 -0.3550 -0.9077
  311MOL0     C41878   5.120   6.557   9.271 -0.1673  0.5955 -0.2717
  311MOL0     C41879   5.163   6.811   9.263  0.1088 -0.7593 -0.2409
  311MOL0     C41880   5.316   6.809   9.287 -0.5035 -0.2740  0.2945
  311MOL0     O41881   5.381   6.921   9.246  0.4289 -0.2352 -0.1619
  311MOL0     C41882   5.512   6.936   9.220  0.0658 -0.1921  0.9404
  311MOL0     C41883   5.542   7.059   9.162  0.3973 -0.6519 -0.3780
  311MOL0     C41884   5.673   7.111   9.153  0.1454  0.3236  0.0569
  311MOL0     C41885   5.781   7.023   9.192 -0.0706 -0.4272  0.5325
  311MOL0     O41886   5.908   7.062   9.154  0.2203 -0.3000 -0.3870
  311MOL0     C41887   5.970   6.976   9.056 -1.1587 -0.0755  1.0294
  311MOL0     C41888   6.070   7.062   8.973 -0.3205 -0.6152  0.1583
  311MOL0     C41889   6.153   6.994   8.859 -0.2500 -0.1358  1.5021
  311MOL0     C41890   6.080   6.865   8.803 -0.5165  0.2590  0.1104
  311MOL0     C41891   6.182   6.800   8.699  0.4444 -0.0571 -0.4484
  311MOL0     C41892   6.153   6.674   8.620  0.2471 -0.3805 -0.3258
  311MOL0     C41893   6.250   6.632   8.506 -0.0177  0.0589  0.3772
  311MOL0     C41894   6.291   6.735   8.406 -0.4496 -0.1909 -0.3719
  311MOL0    Cl41895   6.142   6.821   8.348  0.0110  0.2426 -0.3981
  311MOL0     C41896   5.759   6.898   9.232 -0.3394  0.1793 -0.0221
  311MOL0     C41897   5.626   6.849   9.249 -0.1736  0.7742 -0.3822
  311MOL0     O41898   5.365   6.715   9.350  0.7767  0.4250 -0.1586
  311MOL0     C41899   5.109   6.943   9.252 -0.9128  0.6450  0.8158
  311MOL0     C41900   4.968   6.961   9.224  0.0030 -0.0127  0.5900
  311MOL0     N41901   4.135   6.990   9.400 -1.5855 -0.9759 -1.0607
  311MOL0     N41902   4.110   7.088   9.478  0.3107  0.3696  0.0775
  311MOL0     C41903   4.418   6.970  10.644  0.4596 -0.0025 -0.7007
  311MOL0     C41904   4.484   6.929  10.766  0.7407 -0.9245  0.4785
  311MOL0     C41905   4.704   6.942  11.148  0.7936  0.0625 -0.4075
  311MOL0     C41906   4.680   6.997  11.272  0.1931  0.0650 -0.2697
  311MOL0     C41907   4.726   6.931  11.389  0.6115  1.4502 -0.4559
  311MOL0     C41908   4.833   6.829  11.380 -0.1558 -0.8227  0.0005
  311MOL0     O41909   4.902   6.785  11.492 -0.2686 -0.5783 -0.2676
  311MOL0     C41910   4.865   6.847  11.617  0.1810  0.2087  0.7075
  311MOL0     C41911   4.927   6.988  11.624  0.9762  0.4321  0.9340
  311MOL0     C41912   4.855   7.064  11.740 -0.8244 -0.0471  1.0071
  311MOL0     C41913   4.828   7.217  11.712  0.3491  0.4327 -0.1117
  311MOL0     C41914   4.944   7.283  11.663 -1.1782  0.1731  0.4896
  311MOL0     C41915   5.038   7.334  11.603  0.4770  0.1377  0.0265
  311MOL0     C41916   4.853   6.780  11.254 -0.8934 -0.5259 -0.5006
  311MOL0     C41917   4.783   6.825  11.142  0.3038  0.3570 -0.3959
  311MOL0     H41918   4.775   7.100  10.755  2.3051 -3.0278 -2.7490
  311MOL0     H41919   4.666   7.180  10.539  0.8692  0.0549  1.0730
  311MOL0     H41920   4.371   6.965  10.334 -2.1810 -0.7608  0.2267
  311MOL0     H41921   4.255   7.060  10.429 -0.9867  1.2821 -0.5915
  311MOL0     H41922   4.311   7.267  10.293 -3.5633  0.7399  1.4386
  311MOL0     H41923   4.384   7.162  10.172 -0.3293 -0.6384 -0.8773
  311MOL0     H41924   4.190   7.060  10.103  0.0981  2.5055 -4.0069
  311MOL0     H41925   4.103   7.107  10.255  2.1926  1.2207  2.2987
  311MOL0     H41926   4.012   7.252  10.103 -0.6299  0.7453 -0.8612
  311MOL0     H41927   4.163   7.345  10.140 -1.2511  0.8332 -0.0695
  311MOL0     H41928   4.113   7.142   9.928  0.3786 -0.6127 -0.3189
  311MOL0     H41929   4.100   7.324   9.897  0.1213 -0.1337  0.7649
  311MOL0     H41930   4.315   7.366   9.861  4.3919 -0.7372 -0.8416
  311MOL0     H41931   4.371   7.222   9.946 -2.3921  0.5753  2.1185
  311MOL0     H41932   4.405   7.175   9.720  0.4146  1.7632  2.3104
  311MOL0     H41933   4.270   7.079   9.773  1.4743  0.1158  1.8320
  311MOL0     H41934   4.252   7.332   9.607 -0.2861  0.1844 -0.6089
  311MOL0     H41935   4.117   7.217   9.675 -0.2419  0.0347  0.2903
  311MOL0     H41936   4.442   7.078   9.468 -0.4552 -0.5138  3.4119
  311MOL0     H41937   4.291   6.780   9.323 -2.7082  0.3273 -0.2428
  311MOL0     H41938   4.281   6.892   9.187  3.6422 -0.9594 -1.2095
  311MOL0     H41939   4.494   6.792   9.180 -0.6276 -1.3242  1.1640
  311MOL0     H41940   4.526   6.826   9.351  0.7358 -0.1639  0.2143
  311MOL0     H41941   4.492   7.067   9.256 -1.6303 -0.1639  0.3238
  311MOL0     H41942   4.527   6.997   9.091  1.2098 -1.6249  0.0610
  311MOL0     H41943   4.720   7.012   9.325  0.9114  0.5257 -0.9919
  311MOL0     H41944   4.721   7.077   9.157  0.6531  0.6845  0.2374
  311MOL0     H41945   4.868   6.638   9.247 -0.2906 -0.0092 -1.0997
  311MOL0     H41946   5.057   6.478   9.230 -0.3370  0.7716 -0.3461
  311MOL0     H41947   5.224   6.549   9.238  0.4222  0.4383  1.4862
  311MOL0     H41948   5.128   6.544   9.379 -1.5068 -1.1797 -0.3440
  311MOL0     H41949   5.454   7.118   9.136  0.3569  0.4332  1.9413
  311MOL0     H41950   5.693   7.204   9.099  0.9105 -0.1857 -0.5664
  311MOL0     H41951   6.025   6.894   9.103 -0.3691 -2.0143 -2.8633
  311MOL0     H41952   5.898   6.933   8.986 -0.9881  1.8224 -0.3855
  311MOL0     H41953   5.999   7.134   8.932 -2.5819 -2.2554  0.9755
  311MOL0     H41954   6.136   7.129   9.029 -3.0505  3.6574 -1.2501
  311MOL0     H41955   6.249   6.967   8.903  0.5705 -0.8320 -0.6113
  311MOL0     H41956   6.176   7.064   8.778 -0.5072  0.4728  1.9490
  311MOL0     H41957   6.045   6.800   8.884 -2.7576  0.4803 -0.6018
  311MOL0     H41958   5.986   6.877   8.748 -0.4385 -0.8502 -0.2859
  311MOL0     H41959   6.272   6.786   8.760  0.0846  3.8000  1.2776
  311MOL0     H41960   6.199   6.878   8.623  1.3422  0.9783  0.7596
  311MOL0     H41961   6.131   6.592   8.689  0.2998  0.3297  0.5510
  311MOL0     H41962   6.057   6.687   8.570 -0.4729  1.6199  1.4294
  311MOL0     H41963   6.188   6.565   8.444 -1.6484  0.9162  1.0133
  311MOL0     H41964   6.339   6.588   8.550  0.3052  1.5237  1.2444
  311MOL0     H41965   6.330   6.693   8.313 -0.6689  0.0858 -0.5925
  311MOL0     H41966   6.358   6.808   8.453  1.7453 -0.8314 -2.3587
  311MOL0     H41967   5.848   6.841   9.254 -1.3553 -1.3961  0.1504
  311MOL0     H41968   5.621   6.762   9.314 -0.6422 -0.5716 -2.1089
  311MOL0     H41969   5.171   7.032   9.261  1.5150 -0.7502 -1.0213
  311MOL0     H41970   4.926   7.061   9.219 -3.0929 -1.2898 -0.8733
  311MOL0     H41971   4.326   6.924  10.612 -1.3720  2.8522  0.1016
  311MOL0     H41972   4.437   6.858  10.832  0.2069 -0.2063  0.8817
  311MOL0     H41973   4.615   7.084  11.277  0.0877 -0.0836  2.5273
  311MOL0     H41974   4.703   6.975  11.485 -1.5704 -0.2623 -0.1086
  311MOL0     H41975   4.756   6.856  11.631  0.2619  2.8083  0.1697
  311MOL0     H41976   4.897   6.790  11.705  1.8357 -0.8512 -0.5183
  311MOL0     H41977   4.902   7.051  11.538 -5.3610 -1.1268  1.1141
  311MOL0     H41978   5.035   6.985  11.642  1.1960  1.8223 -0.0037
  311MOL0     H41979   4.917   7.062  11.830 -0.8425  2.0111  1.0957
  311MOL0     H41980   4.760   7.012  11.759 -0.2508 -0.4536  3.0689
  311MOL0     H41981   4.802   7.264  11.808  0.5134 -2.9727  1.7908
  311MOL0     H41982   4.739   7.216  11.648 -1.3260 -2.1941  1.9973
  311MOL0     H41983   5.121   7.381  11.553  0.3106  0.7703  0.3400
  311MOL0     H41984   4.942   6.720  11.241  2.0192  2.7013  2.6781
  311MOL0     H41985   4.813   6.782  11.047 -1.6912 -0.3919 -0.7387
  312MOL0     O41986   1.851   8.456   0.378  0.1638 -0.5178  0.2032
  312MOL0     C41987   1.874   8.357   0.451  0.4650 -1.4396  0.0007
  312MOL0     O41988   1.866   8.355   0.583  1.0506 -0.7689  0.8295
  312MOL0     C41989   1.880   8.474   0.653 -0.9435  0.4542 -0.3735
  312MOL0     C41990   1.973   8.570   0.613  0.6793  0.2243  0.1480
  312MOL0     C41991   1.981   8.694   0.686 -0.7637 -0.4434 -0.0643
  312MOL0     C41992   1.914   8.703   0.811 -0.4622  0.9293 -0.1132
  312MOL0     O41993   1.923   8.811   0.902 -0.6264  0.1398 -0.6489
  312MOL0     C41994   2.043   8.887   0.889 -0.1295 -0.0002  0.1593
  312MOL0     C41995   2.062   8.990   1.002  0.0692 -0.5089 -0.8713
  312MOL0     C41996   2.211   9.018   1.014  0.2013  0.4874  0.6945
  312MOL0     C41997   2.228   9.106   1.129  0.3327  0.2174  1.0217
  312MOL0     C41998   2.366   9.110   1.174 -0.1689 -0.3610 -0.3904
  312MOL0     C41999   2.391   9.187   1.310  0.5074  0.6505 -0.2510
  312MOL0     C42000   2.534   9.175   1.356  0.5634 -0.6413 -0.8235
  312MOL0     C42001   2.556   9.029   1.413 -0.1469 -0.8056  0.3237
  312MOL0     N42002   2.676   9.019   1.489 -0.3265  0.6558  0.1057
  312MOL0     C42003   2.696   8.992   1.622 -0.1128  0.0987 -0.2389
  312MOL0     C42004   2.830   8.969   1.626 -0.7789  0.5837 -0.5077
  312MOL0     C42005   2.883   8.914   1.755 -0.2338  0.2993  0.1181
  312MOL0     C42006   3.032   8.916   1.764  0.2092  0.1935  0.1058
  312MOL0     C42007   3.093   8.877   1.910 -0.4388  0.3600 -0.0777
  312MOL0     C42008   3.097   8.721   1.930  0.5707  0.3739  0.0500
  312MOL0     O42009   3.134   8.713   2.068  0.8032  0.2844 -0.3695
  312MOL0     C42010   3.044   8.731   2.170  0.4704 -0.2080  0.0798
  312MOL0     C42011   3.091   8.714   2.302 -0.1569 -0.9768  0.1984
  312MOL0     C42012   3.014   8.735   2.410  0.2926 -1.0730 -1.2720
  312MOL0     C42013   3.090   8.718   2.538 -0.2709 -0.1587 -0.0709
  312MOL0     C42014   2.876   8.769   2.389 -0.0693 -0.5719  0.1778
  312MOL0     C42015   2.788   8.800   2.495 -0.3713 -0.4420  0.2611
  312MOL0     O42016   2.832   8.796   2.626 -0.0323 -1.1186 -0.7877
  312MOL0     C42017   2.743   8.790   2.736 -0.4031 -0.4479 -0.3420
  312MOL0     C42018   2.611   8.744   2.741  0.5864  0.2348 -0.1942
  312MOL0     C42019   2.529   8.731   2.853 -0.0944 -0.2832 -0.1619
  312MOL0     C42020   2.581   8.784   2.979  0.6674 -0.4115  1.1538
  312MOL0     O42021   2.509   8.780   3.090 -0.0236  0.8240 -0.0452
  312MOL0     C42022   2.523   8.862   3.197  0.0593  0.1500  0.4762
  312MOL0     C42023   2.410   8.836   3.301 -0.3436  0.0368 -0.2217
  312MOL0     C42024   2.462   8.869   3.437  0.0908  1.0383 -1.2483
  312MOL0     C42025   2.463   9.009   3.488 -0.5164  0.2926  0.4151
  312MOL0     C42026   2.500   9.016   3.638 -0.4355  0.2166 -0.6747
  312MOL0     C42027   2.516   9.159   3.678 -0.4386  0.1353  0.1947
  312MOL0     C42028   2.657   9.222   3.668 -0.6369 -0.2323 -0.3737
  312MOL0     C42029   2.771   9.145   3.749  0.5342 -0.3692 -0.3147
  312MOL0    Cl42030   2.734   9.148   3.925  0.3091  0.3935  0.4574
  312MOL0     C42031   2.714   8.839   2.967  0.1649 -0.5766 -0.2400
  312MOL0     C42032   2.788   8.852   2.847  1.0986 -0.0931 -0.7259
  312MOL0     O42033   2.672   8.812   2.460 -0.0886  0.1282  0.3441
  312MOL0     C42034   2.831   8.779   2.255  0.3127 -0.0308  0.2489
  312MOL0     C42035   2.915   8.761   2.143  0.7227  0.5811  0.0687
  312MOL0     N42036   2.884   8.988   1.502  0.1011 -0.8153  0.6084
  312MOL0     N42037   2.795   9.021   1.421 -0.5535  0.3534  0.3765
  312MOL0     C42038   1.840   8.597   0.852  1.8828  0.9474  0.0637
  312MOL0     C42039   1.809   8.490   0.767  0.1131 -0.0139 -0.0316
  312MOL0     C42040   1.901   8.223   0.393  0.1545  0.0428 -0.0083
  312MOL0     C42041   1.971   8.212   0.270  0.5312 -0.0413  0.2987
  312MOL0     C42042   1.992   8.080   0.214  0.2907  0.0083  0.4168
  312MOL0     C42043   1.949   7.966   0.285 -0.9353  0.2683  1.3024
  312MOL0     O42044   1.961   7.855   0.202 -0.0600  0.2427 -0.1891
  312MOL0     C42045   1.896   7.737   0.240  0.2795  0.4909 -0.1262
  312MOL0     C42046   1.739   7.754   0.225  1.1120 -0.1790  0.4764
  312MOL0     C42047   1.696   7.776   0.080 -0.0463 -0.3395  0.3184
  312MOL0     C42048   1.597   7.898   0.080  0.5713 -0.0710  0.4377
  312MOL0     C42049   1.478   7.847   0.155  0.5209 -0.4265 -0.2639
  312MOL0     C42050   1.406   7.809   0.243 -0.1024 -0.8904  0.4882
  312MOL0     C42051   1.894   7.980   0.409 -1.5621 -0.0686 -0.7159
  312MOL0     C42052   1.880   8.103   0.465 -0.8039 -0.8241  1.3555
  312MOL0     H42053   2.026   8.557   0.519 -2.0734  0.6611 -1.5961
  312MOL0     H42054   2.046   8.768   0.642  0.2835 -0.6920  0.9892
  312MOL0     H42055   2.127   8.824   0.859  0.5755  1.4456 -1.0435
  312MOL0     H42056   2.030   8.939   0.793  2.9081 -1.2076 -1.0139
  312MOL0     H42057   2.010   9.080   0.970 -0.7951 -1.1438 -1.3002
  312MOL0     H42058   2.027   8.949   1.097  0.1307  0.5198 -0.3917
  312MOL0     H42059   2.260   8.921   1.026 -0.9153 -0.8647 -3.8351
  312MOL0     H42060   2.230   9.060   0.916 -2.1885 -2.9907 -1.4961
  312MOL0     H42061   2.193   9.203   1.092 -0.3411 -1.0359 -1.9791
  312MOL0     H42062   2.163   9.069   1.209 -2.4628  1.8133 -0.3579
  312MOL0     H42063   2.386   9.003   1.186 -2.0750 -1.0255 -2.3606
  312MOL0     H42064   2.425   9.160   1.097 -1.7757  1.3711 -0.5572
  312MOL0     H42065   2.376   9.295   1.300 -0.4065  0.7021  1.4313
  312MOL0     H42066   2.318   9.151   1.382 -0.9956  0.2448 -1.8934
  312MOL0     H42067   2.603   9.191   1.273  2.1800  0.3044  0.6314
  312MOL0     H42068   2.548   9.244   1.440  0.0092  1.4321 -2.3723
  312MOL0     H42069   2.555   8.968   1.322  2.3729  1.3201 -1.2889
  312MOL0     H42070   2.470   9.007   1.477  0.4200  0.7534  1.7110
  312MOL0     H42071   2.629   8.983   1.707  1.9497  0.2611  1.4847
  312MOL0     H42072   2.840   8.981   1.831 -0.5852 -1.0414  1.1366
  312MOL0     H42073   2.839   8.815   1.773 -1.2365  0.4685 -1.2375
  312MOL0     H42074   3.067   9.018   1.742 -0.4021  0.8236  1.9208
  312MOL0     H42075   3.074   8.854   1.684  2.7452 -1.5969  2.6287
  312MOL0     H42076   3.040   8.931   1.989  0.4956  4.3900 -1.9482
  312MOL0     H42077   3.197   8.911   1.913 -0.7047  1.2048 -0.1711
  312MOL0     H42078   3.168   8.670   1.864 -0.7938  0.2858 -1.3982
  312MOL0     H42079   3.001   8.673   1.907  1.0934 -1.6802  1.8079
  312MOL0     H42080   3.196   8.690   2.307 -0.2406 -1.2262  0.9393
  312MOL0     H42081   3.189   8.679   2.515 -0.4001 -1.1395  0.9328
  312MOL0     H42082   3.112   8.816   2.583  2.4838  0.0097 -1.5702
  312MOL0     H42083   3.043   8.661   2.618  1.2086  0.3288  1.2050
  312MOL0     H42084   2.545   8.724   2.657 -1.9110  3.3267  0.8547
  312MOL0     H42085   2.431   8.684   2.856  0.0719 -0.6382  3.1060
  312MOL0     H42086   2.624   8.846   3.236  0.1194 -1.0154 -0.1246
  312MOL0     H42087   2.509   8.968   3.176  0.5395  0.3134  0.9513
  312MOL0     H42088   2.336   8.915   3.281  1.1607  1.4557 -0.3745
  312MOL0     H42089   2.371   8.734   3.292  0.6205 -0.3723  0.0827
  312MOL0     H42090   2.559   8.827   3.467  0.1483  2.1684  0.2319
  312MOL0     H42091   2.381   8.825   3.495  1.0459  1.9061  0.8645
  312MOL0     H42092   2.540   9.059   3.429  0.9670 -1.1522  1.0349
  312MOL0     H42093   2.363   9.049   3.471 -1.2214 -1.9527 -1.2060
  312MOL0     H42094   2.593   8.961   3.659  1.0896  2.8271 -0.1328
  312MOL0     H42095   2.419   8.974   3.698 -1.3254  0.0538 -1.9515
  312MOL0     H42096   2.441   9.211   3.619 -2.5836 -3.8276 -0.8806
  312MOL0     H42097   2.486   9.160   3.783 -0.0814  2.5621  0.3328
  312MOL0     H42098   2.657   9.320   3.716 -1.3212 -1.5814  2.6323
  312MOL0     H42099   2.690   9.244   3.566  0.3581  1.3558  0.2456
  312MOL0     H42100   2.865   9.199   3.732 -0.5281  0.5757 -4.0660
  312MOL0     H42101   2.767   9.042   3.712 -2.0691 -1.0677  1.6437
  312MOL0     H42102   2.759   8.871   3.061 -1.4486  3.2938 -0.5604
  312MOL0     H42103   2.885   8.901   2.847  0.2750  1.6599 -1.8598
  312MOL0     H42104   2.732   8.813   2.226  1.0202  1.8401 -0.0975
  312MOL0     H42105   2.860   8.771   2.050 -0.7372  0.0161  0.8483
  312MOL0     H42106   1.799   8.609   0.952  1.5109  0.8326 -0.0733
  312MOL0     H42107   1.721   8.428   0.784 -0.7830  0.8619 -1.2634
  312MOL0     H42108   2.005   8.301   0.218  0.7717 -0.6551 -0.6343
  312MOL0     H42109   2.040   8.067   0.118  0.9914  0.7407  0.6607
  312MOL0     H42110   1.926   7.646   0.187 -1.6300  0.0302 -0.4859
  312MOL0     H42111   1.922   7.707   0.342  3.9513 -3.0685 -1.8111
  312MOL0     H42112   1.696   7.825   0.297  1.4246 -1.1474  1.6470
  312MOL0     H42113   1.693   7.661   0.259 -1.5787  1.8072  2.8225
  312MOL0     H42114   1.646   7.693   0.029 -3.0580 -0.2295  2.8239
  312MOL0     H42115   1.782   7.801   0.018 -0.5234 -2.4931 -1.3263
  312MOL0     H42116   1.580   7.926  -0.025  4.3824 -4.1080 -1.5398
  312MOL0     H42117   1.639   7.984   0.133 -0.1788 -0.3995  1.5979
  312MOL0     H42118   1.333   7.774   0.314 -2.1469  3.3981  0.7996
  312MOL0     H42119   1.851   7.893   0.458 -1.5703  1.1180  1.4854
  312MOL0     H42120   1.826   8.113   0.558 -2.0461 -0.6808  0.6368
  313MOL0     O42121   9.067   0.377   6.905 -0.3882  0.8343 -0.8289
  313MOL0     C42122   9.136   0.458   6.842 -0.5224 -0.1994  0.4378
  313MOL0     O42123   9.225   0.428   6.747  0.1321  0.1316 -0.0117
  313MOL0     C42124   9.222   0.294   6.700 -0.2716 -0.4878 -0.4576
  313MOL0     C42125   9.312   0.208   6.759  0.2337 -1.1003  0.1053
  313MOL0     C42126   9.318   0.075   6.721 -0.0121  0.0028 -0.5338
  313MOL0     C42127   9.227   0.021   6.632  0.5046  0.3371 -0.4073
  313MOL0     O42128   9.233  -0.112   6.613  0.2650  0.6873 -1.0090
  313MOL0     C42129   9.114  -0.176   6.568 -0.6528 -0.2051  0.4001
  313MOL0     C42130   9.096  -0.322   6.621 -0.5698 -0.6321  0.6517
  313MOL0     C42131   9.226  -0.385   6.662  0.1975 -0.3015 -0.2042
  313MOL0     C42132   9.208  -0.535   6.682  0.8314 -0.2937  0.0156
  313MOL0     C42133   9.329  -0.602   6.753 -0.0598  0.1491  0.0679
  313MOL0     C42134   9.346  -0.578   6.903 -0.2093  0.2931 -0.0784
  313MOL0     C42135   9.210  -0.615   6.986 -0.4009 -0.7335 -0.2186
  313MOL0     C42136   9.229  -0.588   7.134  0.5054 -0.3205  0.6396
  313MOL0     N42137   9.109  -0.573   7.206  0.3569  0.8836 -1.2154
  313MOL0     C42138   9.056  -0.692   7.261 -0.5668  0.7674  0.0882
  313MOL0     C42139   8.953  -0.645   7.340  0.1811 -0.5461  0.4507
  313MOL0     C42140   8.872  -0.720   7.443 -0.4450  0.2261 -0.2998
  313MOL0     C42141   8.757  -0.781   7.359  1.1954 -0.1358 -0.8742
  313MOL0     C42142   8.671  -0.886   7.437  0.3577 -0.1469 -0.3087
  313MOL0     C42143   8.754  -1.015   7.461 -0.6224 -0.2901 -0.4285
  313MOL0     O42144   8.780  -1.079   7.334  0.2386  0.5528  0.4727
  313MOL0     C42145   8.681  -1.165   7.281  0.2481 -0.2215  0.0165
  313MOL0     C42146   8.551  -1.179   7.338  0.5383 -1.2435 -1.1367
  313MOL0     C42147   8.461  -1.248   7.257  0.3233  0.5295  0.1349
  313MOL0     C42148   8.313  -1.257   7.297  0.1623 -1.1773 -0.3953
  313MOL0     C42149   8.501  -1.313   7.134 -0.3474  0.0906  0.9738
  313MOL0     C42150   8.414  -1.409   7.054 -0.0646 -0.1515 -0.4038
  313MOL0     O42151   8.321  -1.470   7.131  0.2915 -0.4444 -0.0352
  313MOL0     C42152   8.204  -1.503   7.078  1.0571 -0.2451  0.3713
  313MOL0     C42153   8.117  -1.583   7.154  0.4665  0.5414  0.0442
  313MOL0     C42154   7.991  -1.624   7.110  0.2056 -0.3312  1.0732
  313MOL0     C42155   7.940  -1.574   6.990  0.9937 -0.7113  0.6672
  313MOL0     O42156   7.815  -1.601   6.939 -0.2889  0.3228  0.1678
  313MOL0     C42157   7.798  -1.692   6.824  0.5885  0.1445 -0.4324
  313MOL0     C42158   7.696  -1.809   6.859  0.2605  0.3954  0.0084
  313MOL0     C42159   7.667  -1.910   6.755 -0.6030 -0.2883 -0.7041
  313MOL0     C42160   7.597  -2.040   6.797  0.7775  0.3602 -1.0873
  313MOL0     C42161   7.527  -2.112   6.673 -0.6981  0.3262  0.0206
  313MOL0     C42162   7.632  -2.153   6.574  0.8919 -0.1510  0.0677
  313MOL0     C42163   7.581  -2.253   6.473  0.6385 -0.3452 -0.6261
  313MOL0     C42164   7.689  -2.282   6.356  0.0528  0.6611 -0.8827
  313MOL0    Cl42165   7.760  -2.138   6.288  0.5802 -0.1406  0.3699
  313MOL0     C42166   8.010  -1.484   6.919 -0.7311  0.1269  0.0453
  313MOL0     C42167   8.142  -1.446   6.960  0.4948 -0.5012 -1.0132
  313MOL0     O42168   8.432  -1.422   6.931  0.3446  0.2417 -0.5177
  313MOL0     C42169   8.637  -1.303   7.090  0.7956  0.9460  0.3504
  313MOL0     C42170   8.721  -1.224   7.157 -0.0193 -0.6570 -0.5954
  313MOL0     N42171   8.934  -0.509   7.317 -0.7152 -0.2211 -0.1721
  313MOL0     N42172   9.025  -0.468   7.240 -0.0501 -0.5078  0.3422
  313MOL0     C42173   9.138   0.104   6.569 -0.0694  0.1840  1.3405
  313MOL0     C42174   9.128   0.246   6.600 -0.2946 -0.6508 -0.5468
  313MOL0     C42175   9.134   0.604   6.862  0.5428  0.4799  0.4504
  313MOL0     C42176   9.246   0.690   6.866  0.0785 -0.1636 -0.0951
  313MOL0     C42177   9.239   0.821   6.860  0.9851 -0.3401 -1.3909
  313MOL0     C42178   9.109   0.885   6.866  0.1301 -0.4542  0.2745
  313MOL0     O42179   9.110   1.028   6.866  0.0621  0.1274  0.2870
  313MOL0     C42180   8.981   1.101   6.868  0.0321  0.0752 -0.5423
  313MOL0     C42181   9.025   1.237   6.814  0.0341 -0.0518 -0.3705
  313MOL0     C42182   8.944   1.350   6.893  0.4256 -0.0050  0.5012
  313MOL0     C42183   8.974   1.490   6.836  0.3365  0.0877 -0.7846
  313MOL0     C42184   8.894   1.592   6.907 -0.8063 -0.2307  0.4000
  313MOL0     C42185   8.835   1.679   6.963  0.3993  0.0481  0.3999
  313MOL0     C42186   8.992   0.800   6.878  0.4147 -0.9901 -0.6002
  313MOL0     C42187   9.006   0.659   6.871  0.2647  0.4684 -0.2574
  313MOL0     H42188   9.378   0.237   6.840  0.9359  1.0009 -1.1365
  313MOL0     H42189   9.391   0.006   6.762 -2.7823 -3.3758 -0.8023
  313MOL0     H42190   9.021  -0.127   6.597 -1.0401 -1.5514  1.5895
  313MOL0     H42191   9.108  -0.185   6.459 -2.0680  1.1020  0.3336
  313MOL0     H42192   9.026  -0.314   6.705 -0.6907 -0.6087  0.5492
  313MOL0     H42193   9.042  -0.379   6.545 -0.2548  0.3748 -0.3538
  313MOL0     H42194   9.298  -0.386   6.579  0.7387 -1.4165  0.2633
  313MOL0     H42195   9.264  -0.349   6.758 -0.2717 -2.5811  0.9113
  313MOL0     H42196   9.123  -0.550   6.749  2.7188 -2.1180  2.1587
  313MOL0     H42197   9.191  -0.578   6.583 -0.2627 -2.3271  1.0254
  313MOL0     H42198   9.320  -0.708   6.725 -4.3464  0.6778 -1.1489
  313MOL0     H42199   9.418  -0.558   6.707  3.8823 -1.5868  5.0027
  313MOL0     H42200   9.432  -0.634   6.941 -1.2969 -1.1657  0.2859
  313MOL0     H42201   9.375  -0.473   6.918 -2.0629  0.5589  2.0059
  313MOL0     H42202   9.142  -0.535   6.957  4.0727  3.8268  0.3410
  313MOL0     H42203   9.174  -0.718   6.981 -4.0774  0.2253  2.2727
  313MOL0     H42204   9.282  -0.492   7.134 -1.2556  0.8830 -3.4549
  313MOL0     H42205   9.301  -0.666   7.163 -0.7717 -1.3026  1.2324
  313MOL0     H42206   9.093  -0.793   7.242 -0.5020  1.0694 -1.5431
  313MOL0     H42207   8.929  -0.799   7.493  0.4486  0.0755 -1.5144
  313MOL0     H42208   8.844  -0.649   7.521  1.4650  0.2395  0.4299
  313MOL0     H42209   8.790  -0.830   7.266 -5.1123 -2.9240 -2.1917
  313MOL0     H42210   8.692  -0.700   7.322 -0.6938 -0.7912  0.8532
  313MOL0     H42211   8.587  -0.912   7.372  0.1952  0.2525 -0.2601
  313MOL0     H42212   8.632  -0.840   7.528 -4.1610  4.6151 -3.9893
  313MOL0     H42213   8.688  -1.078   7.522 -3.0324  3.3056  1.0602
  313MOL0     H42214   8.842  -0.998   7.523 -1.2839 -0.8810  0.7058
  313MOL0     H42215   8.517  -1.106   7.410 -0.9189 -2.6253 -0.3716
  313MOL0     H42216   8.248  -1.225   7.215  0.2289 -0.4752 -0.1814
  313MOL0     H42217   8.289  -1.361   7.322  0.9729 -1.4942 -0.9224
  313MOL0     H42218   8.280  -1.188   7.375  1.9514 -0.5289 -0.1766
  313MOL0     H42219   8.155  -1.616   7.250  0.9586 -0.0263 -0.3381
  313MOL0     H42220   7.943  -1.702   7.168  0.2142 -2.7144 -1.8611
  313MOL0     H42221   7.768  -1.633   6.737  0.3222 -1.1200 -1.2210
  313MOL0     H42222   7.893  -1.738   6.796 -2.1649 -4.4121 -3.5334
  313MOL0     H42223   7.738  -1.864   6.944 -0.0756  1.0577  0.6136
  313MOL0     H42224   7.602  -1.763   6.892  0.4908 -0.3574  1.8783
  313MOL0     H42225   7.762  -1.923   6.703 -0.4927 -0.6289 -0.4244
  313MOL0     H42226   7.597  -1.853   6.694 -1.7115 -2.0538 -1.1430
  313MOL0     H42227   7.665  -2.112   6.844 -0.9880  0.2007  1.3840
  313MOL0     H42228   7.522  -2.007   6.870  0.8431 -0.2666 -0.7330
  313MOL0     H42229   7.460  -2.048   6.614  1.0156 -0.7763 -3.4306
  313MOL0     H42230   7.463  -2.195   6.705 -0.9796  0.5977  0.1672
  313MOL0     H42231   7.650  -2.059   6.521 -1.3972 -2.4312 -5.4659
  313MOL0     H42232   7.719  -2.185   6.633 -0.2454 -2.7781  0.4578
  313MOL0     H42233   7.489  -2.207   6.434  0.1058 -0.9480 -0.1196
  313MOL0     H42234   7.542  -2.342   6.523  1.2241 -1.1716 -1.6146
  313MOL0     H42235   7.638  -2.348   6.285  1.1316  0.7847 -1.7902
  313MOL0     H42236   7.764  -2.345   6.404 -0.6624  0.8448  0.5498
  313MOL0     H42237   7.961  -1.448   6.829 -0.6779 -1.7321 -0.7804
  313MOL0     H42238   8.189  -1.357   6.918  0.6023  1.2295  2.4054
  313MOL0     H42239   8.657  -1.354   6.996 -2.8524 -1.2544  0.5540
  313MOL0     H42240   8.822  -1.199   7.128  1.3689 -0.6312  3.5559
  313MOL0     H42241   9.082   0.059   6.489  1.6067  1.0890 -0.4206
  313MOL0     H42242   9.050   0.307   6.557 -1.3854  0.5261  2.8836
  313MOL0     H42243   9.346   0.648   6.876 -0.0297 -0.4408 -0.1745
  313MOL0     H42244   9.322   0.890   6.869  0.9695 -0.6275  3.9572
  313MOL0     H42245   8.908   1.047   6.806  1.2546 -1.1722 -0.9677
  313MOL0     H42246   8.942   1.115   6.969 -0.5637  1.3062 -0.9292
  313MOL0     H42247   9.009   1.235   6.706  1.4416  2.1446 -0.6698
  313MOL0     H42248   9.133   1.253   6.823  0.6855 -3.9687  1.1874
  313MOL0     H42249   8.977   1.340   6.997  1.8917 -2.3009 -0.1020
  313MOL0     H42250   8.837   1.333   6.887  0.8106 -3.3473  1.3113
  313MOL0     H42251   8.953   1.497   6.729 -1.2474 -0.4773 -0.5268
  313MOL0     H42252   9.080   1.511   6.855  0.5307 -0.4279 -1.2517
  313MOL0     H42253   8.780   1.768   6.986 -2.1208 -0.9584 -1.3983
  313MOL0     H42254   8.896   0.849   6.895  1.9377  1.1934  3.0244
  313MOL0     H42255   8.914   0.602   6.880 -0.1073  1.4414  4.2082
  314MOL0     O42256   9.063   8.663   3.632 -0.2928  0.1545  0.1948
  314MOL0     C42257   9.173   8.671   3.586  0.2967  0.7344  0.3636
  314MOL0     O42258   9.216   8.613   3.473 -0.1483 -0.1899  0.6379
  314MOL0     C42259   9.117   8.565   3.386 -0.2871 -0.9729 -0.1193
  314MOL0     C42260   9.065   8.442   3.409 -0.4069  1.0039 -0.0977
  314MOL0     C42261   8.984   8.377   3.319 -0.5941  0.0866 -0.1352
  314MOL0     C42262   8.950   8.443   3.201  0.3861  0.2668  0.1117
  314MOL0     O42263   8.857   8.392   3.116  0.0187 -0.3418  0.2368
  314MOL0     C42264   8.747   8.315   3.168  0.1734  0.2561  0.3550
  314MOL0     C42265   8.764   8.157   3.150 -0.3325  0.8321 -0.3496
  314MOL0     C42266   8.667   8.069   3.239  1.0807 -1.5462 -0.1210
  314MOL0     C42267   8.521   8.103   3.227 -0.6129  0.4608 -0.5984
  314MOL0     C42268   8.435   8.001   3.308  0.2510  0.0132 -0.0753
  314MOL0     C42269   8.283   8.018   3.316 -0.5643  0.3458 -0.0836
  314MOL0     C42270   8.221   7.915   3.406  0.4263  0.2435 -0.1575
  314MOL0     C42271   8.233   7.946   3.553 -0.1421  0.7029  0.3132
  314MOL0     N42272   8.169   7.843   3.641 -0.3430 -0.6312  0.6019
  314MOL0     C42273   8.040   7.825   3.665 -0.3432  0.5081  0.6027
  314MOL0     C42274   8.022   7.710   3.732  0.3684  0.4225 -0.7863
  314MOL0     C42275   7.897   7.645   3.782 -0.4398 -0.0981  0.7817
  314MOL0     C42276   7.783   7.737   3.746 -0.2310  0.2111 -0.3286
  314MOL0     C42277   7.650   7.662   3.768 -0.1540 -0.2840  1.0807
  314MOL0     C42278   7.547   7.734   3.860 -0.1768 -0.2705  0.3255
  314MOL0     O42279   7.626   7.772   3.966 -0.0292  0.2571  0.1331
  314MOL0     C42280   7.569   7.805   4.084 -1.0390 -0.6535 -0.4600
  314MOL0     C42281   7.440   7.862   4.098  0.4242 -0.0655 -0.6955
  314MOL0     C42282   7.378   7.875   4.226 -0.2066 -0.1869  0.7614
  314MOL0     C42283   7.240   7.940   4.222 -0.3313 -0.2085 -0.0165
  314MOL0     C42284   7.437   7.837   4.347 -0.1527 -0.4692  0.4811
  314MOL0     C42285   7.380   7.815   4.483 -0.3065 -0.2724  0.7221
  314MOL0     O42286   7.466   7.783   4.577 -0.3459 -0.4434 -0.4432
  314MOL0     C42287   7.433   7.736   4.697  0.8631  0.4886 -1.0691
  314MOL0     C42288   7.537   7.717   4.793  0.5857  1.0069  0.2403
  314MOL0     C42289   7.516   7.663   4.920  0.8312  0.1008  0.0130
  314MOL0     C42290   7.382   7.639   4.959  0.1177  0.2947 -0.2288
  314MOL0     O42291   7.330   7.589   5.080  0.0346  0.2995  1.0024
  314MOL0     C42292   7.413   7.536   5.175 -0.5962  0.1856  0.5936
  314MOL0     C42293   7.320   7.487   5.289 -0.5680  0.6384  0.2513
  314MOL0     C42294   7.243   7.368   5.247  0.7740 -0.0280  1.0612
  314MOL0     C42295   7.095   7.397   5.215 -0.6209  0.2112  0.4899
  314MOL0     C42296   7.028   7.281   5.131  0.3519  0.6187 -0.0670
  314MOL0     C42297   6.994   7.158   5.215  0.6440 -0.6715 -0.1984
  314MOL0     C42298   6.902   7.192   5.340 -0.3061 -0.4398  0.9772
  314MOL0     C42299   6.886   7.063   5.417  0.6899  0.0331  0.3548
  314MOL0    Cl42300   6.793   6.938   5.318 -0.0160  0.1959 -0.2890
  314MOL0     C42301   7.285   7.629   4.859 -0.4771 -0.1576  0.6928
  314MOL0     C42302   7.308   7.696   4.732 -0.0167 -0.0441 -0.1106
  314MOL0     O42303   7.258   7.843   4.499 -0.1432 -0.0494  0.4223
  314MOL0     C42304   7.570   7.802   4.328 -0.4540  0.7840  0.2940
  314MOL0     C42305   7.632   7.782   4.204 -0.4486  0.0675 -0.5299
  314MOL0     N42306   8.148   7.664   3.761  0.1625  0.0169  0.4550
  314MOL0     N42307   8.229   7.744   3.705  0.1655 -0.3902  0.5460
  314MOL0     C42308   9.007   8.563   3.174  0.1208 -0.3703 -0.3346
  314MOL0     C42309   9.089   8.627   3.256 -0.1903  0.2937 -0.0030
  314MOL0     C42310   9.275   8.750   3.661 -0.1931  0.5817  0.7544
  314MOL0     C42311   9.412   8.738   3.624 -0.9498 -0.2694 -0.2764
  314MOL0     C42312   9.514   8.810   3.683  0.0418 -0.7451 -0.3178
  314MOL0     C42313   9.481   8.895   3.785  1.4804 -0.5241  0.0504
  314MOL0     O42314   9.586   8.951   3.845 -0.6117  1.1036  0.4565
  314MOL0     C42315   9.569   9.034   3.964  0.5957 -0.0666 -0.6122
  314MOL0     C42316   9.705   9.057   4.023  0.3818 -1.1058 -0.0859
  314MOL0     C42317   9.736   8.943   4.129  0.0110  0.9238 -0.6664
  314MOL0     C42318   9.753   8.793   4.078  0.0518 -0.1950  0.7818
  314MOL0     C42319   9.867   8.796   3.984  0.3951  0.2290 -0.1977
  314MOL0     C42320   9.963   8.803   3.923  0.7044 -0.4947 -0.2441
  314MOL0     C42321   9.343   8.916   3.824 -0.2125 -0.1436  0.0119
  314MOL0     C42322   9.240   8.830   3.773  0.4029 -0.8874 -0.1539
  314MOL0     H42323   9.083   8.387   3.501 -1.9566 -0.3905 -0.5782
  314MOL0     H42324   8.942   8.278   3.332 -2.1039  0.1908 -3.3133
  314MOL0     H42325   8.719   8.344   3.270 -2.7116  0.1120 -0.3098
  314MOL0     H42326   8.659   8.332   3.105  1.2720  0.4518 -1.1656
  314MOL0     H42327   8.755   8.136   3.043  2.3785 -0.0872 -0.4793
  314MOL0     H42328   8.865   8.122   3.177  0.1530  0.6939 -2.2027
  314MOL0     H42329   8.678   7.967   3.201 -0.8040 -1.7066 -0.3139
  314MOL0     H42330   8.708   8.083   3.339 -1.1239 -0.1394  0.6408
  314MOL0     H42331   8.504   8.208   3.254 -0.0156  0.7095 -1.1651
  314MOL0     H42332   8.480   8.103   3.126 -2.7638  0.9186  0.2282
  314MOL0     H42333   8.452   7.902   3.264 -2.1977 -0.2862 -0.5009
  314MOL0     H42334   8.472   7.996   3.411 -2.4403  0.3052  1.0015
  314MOL0     H42335   8.257   8.122   3.339  0.3006  0.4722  0.3472
  314MOL0     H42336   8.246   8.008   3.214 -1.6839  0.7331  0.2600
  314MOL0     H42337   8.114   7.921   3.387  0.6802  4.0365 -1.0673
  314MOL0     H42338   8.250   7.811   3.386  1.2181  0.4453 -0.0785
  314MOL0     H42339   8.202   8.049   3.568 -1.0331  0.7883 -1.7892
  314MOL0     H42340   8.339   7.954   3.577  0.5460  0.8285 -2.4799
  314MOL0     H42341   7.966   7.897   3.631 -1.5568 -1.2637 -0.7136
  314MOL0     H42342   7.877   7.545   3.743 -1.2275  0.2650  0.2378
  314MOL0     H42343   7.914   7.642   3.891 -2.6271  3.3720  1.3641
  314MOL0     H42344   7.795   7.760   3.640  0.2069  3.1194  0.2819
  314MOL0     H42345   7.792   7.826   3.809 -5.4896 -0.1556  1.4176
  314MOL0     H42346   7.678   7.566   3.813  0.5053 -1.4168 -1.5399
  314MOL0     H42347   7.606   7.633   3.671 -1.4595 -0.8173  1.7994
  314MOL0     H42348   7.476   7.653   3.877  0.6922 -1.4819 -1.5130
  314MOL0     H42349   7.502   7.821   3.813 -1.7451 -2.0928 -1.7701
  314MOL0     H42350   7.380   7.906   4.019 -1.8770 -2.2760 -0.3060
  314MOL0     H42351   7.152   7.875   4.229  0.1502 -0.8439  0.0894
  314MOL0     H42352   7.230   8.007   4.309  0.4319 -0.8898  0.6020
  314MOL0     H42353   7.232   8.017   4.144 -3.3308  0.6845  1.0045
  314MOL0     H42354   7.639   7.750   4.779  1.8505 -1.8807  1.8361
  314MOL0     H42355   7.597   7.633   4.985  0.9898 -2.0750 -1.1045
  314MOL0     H42356   7.461   7.448   5.131 -3.2430 -1.4061  0.6387
  314MOL0     H42357   7.486   7.602   5.221 -0.7293 -0.1227  1.2584
  314MOL0     H42358   7.369   7.465   5.384 -1.4791  3.0172  1.3697
  314MOL0     H42359   7.265   7.578   5.316  0.5908  1.7825 -1.0538
  314MOL0     H42360   7.233   7.284   5.316  2.2669 -4.2380 -3.2902
  314MOL0     H42361   7.296   7.335   5.157  1.9344  1.6046  1.0887
  314MOL0     H42362   7.040   7.412   5.308 -0.8541  0.7799  0.2616
  314MOL0     H42363   7.096   7.485   5.150 -0.4075 -0.6168 -0.6637
  314MOL0     H42364   7.099   7.247   5.056 -0.2969 -0.6266 -0.1418
  314MOL0     H42365   6.933   7.300   5.079 -1.6588 -1.4088  2.5395
  314MOL0     H42366   6.948   7.075   5.160  0.6725 -0.7864 -0.0501
  314MOL0     H42367   7.080   7.107   5.258 -0.9092 -1.1000  2.6371
  314MOL0     H42368   6.807   7.233   5.307  1.4731  1.6292 -2.1137
  314MOL0     H42369   6.960   7.266   5.396  0.1862  0.2042 -0.3454
  314MOL0     H42370   6.847   7.088   5.516  1.2919 -1.9438  1.1234
  314MOL0     H42371   6.984   7.022   5.442  0.9246 -0.6267 -1.5125
  314MOL0     H42372   7.186   7.588   4.878 -0.1961 -1.8173 -1.0986
  314MOL0     H42373   7.222   7.691   4.665  0.3795 -0.4183 -0.6050
  314MOL0     H42374   7.627   7.777   4.417  1.1763 -0.8293 -1.1248
  314MOL0     H42375   7.728   7.732   4.203 -0.1217  0.6097  0.9534
  314MOL0     H42376   8.985   8.610   3.079  0.1594  0.7909  0.2224
  314MOL0     H42377   9.129   8.727   3.241 -1.8832  1.4564  2.5460
  314MOL0     H42378   9.456   8.665   3.556  1.3936  1.9240 -1.2798
  314MOL0     H42379   9.620   8.794   3.666  0.0593 -3.9523  1.8371
  314MOL0     H42380   9.524   9.127   3.927 -2.0450 -1.2781 -0.6781
  314MOL0     H42381   9.494   8.993   4.032  0.7512  3.2180  1.7950
  314MOL0     H42382   9.720   9.154   4.073  3.0755 -1.9043  0.8707
  314MOL0     H42383   9.774   9.074   3.940  0.9419 -0.6710  0.4508
  314MOL0     H42384   9.656   8.956   4.203 -1.4193 -0.4969 -1.8683
  314MOL0     H42385   9.831   8.967   4.176  0.1431  0.1501 -0.5225
  314MOL0     H42386   9.660   8.768   4.026  0.7406 -0.7777 -0.2085
  314MOL0     H42387   9.779   8.731   4.164  2.6697  1.6865  1.4645
  314MOL0     H42388  10.063   8.808   3.883  0.5806 -0.8020 -0.5984
  314MOL0     H42389   9.324   8.978   3.911  2.0992 -1.2415  1.4005
  314MOL0     H42390   9.137   8.822   3.806 -0.6979 -1.9388 -3.5073
  315MOL0     O42391   0.510   0.813   0.283  0.4332  0.2954  0.2339
  315MOL0     C42392   0.610   0.740   0.305 -0.2866 -0.2523 -0.3461
  315MOL0     O42393   0.633   0.613   0.242 -0.1744 -0.0189 -0.2596
  315MOL0     C42394   0.550   0.572   0.139 -0.5338  0.2058 -0.5305
  315MOL0     C42395   0.444   0.479   0.161  0.5358  0.0754  0.2623
  315MOL0     C42396   0.345   0.462   0.064  0.1420  0.2247 -0.6112
  315MOL0     C42397   0.344   0.541  -0.049 -0.2327 -1.0254  0.2011
  315MOL0     O42398   0.239   0.539  -0.134  0.6381 -0.0926  0.5576
  315MOL0     C42399   0.109   0.501  -0.082 -0.8382  1.1258  0.1997
  315MOL0     C42400   0.026   0.480  -0.201  0.3243 -0.4661  0.5109
  315MOL0     C42401   0.088   0.369  -0.298  0.2209  0.5263 -0.9372
  315MOL0     C42402   0.016   0.357  -0.435 -0.1828  0.2873  0.6824
  315MOL0     C42403   0.046   0.239  -0.520  0.3710  0.6017 -0.7414
  315MOL0     C42404  -0.035   0.211  -0.650 -0.8794  0.2098 -0.2153
  315MOL0     C42405  -0.013   0.072  -0.713  1.0653  0.2837 -0.6378
  315MOL0     C42406  -0.108   0.044  -0.834 -0.6893  0.4385  0.6670
  315MOL0     N42407  -0.086  -0.083  -0.906 -0.7147  0.3263 -0.3488
  315MOL0     C42408  -0.182  -0.181  -0.912  0.4573 -0.1667 -0.2408
  315MOL0     C42409  -0.143  -0.266  -1.004  0.0965 -0.1129  0.6344
  315MOL0     C42410  -0.222  -0.395  -1.037  0.2559 -0.9998  0.3509
  315MOL0     C42411  -0.182  -0.459  -1.168 -0.2482  0.3445  0.0805
  315MOL0     C42412  -0.154  -0.617  -1.155 -0.2770  0.3402  0.0963
  315MOL0     C42413  -0.267  -0.713  -1.123  0.4995 -0.0842  0.6471
  315MOL0     O42414  -0.216  -0.847  -1.099  0.0074  0.0006  0.4411
  315MOL0     C42415  -0.134  -0.878  -0.993 -0.3903 -0.3788 -0.4610
  315MOL0     C42416  -0.118  -0.795  -0.877 -0.1983  0.0524  1.1178
  315MOL0     C42417  -0.041  -0.832  -0.757  0.0969  0.3530  0.1490
  315MOL0     C42418  -0.063  -0.758  -0.625  0.3530  0.0735 -0.5631
  315MOL0     C42419   0.036  -0.956  -0.766  0.0635 -0.1335  1.0414
  315MOL0     C42420   0.118  -1.009  -0.655  0.0113  0.4222  0.9880
  315MOL0     O42421   0.171  -1.136  -0.680 -0.5304  0.0695  0.3118
  315MOL0     C42422   0.258  -1.207  -0.600 -0.3447 -0.6931  0.3527
  315MOL0     C42423   0.314  -1.325  -0.658  0.6870 -0.4062  0.1067
  315MOL0     C42424   0.424  -1.385  -0.602  0.1640 -0.4413  0.4397
  315MOL0     C42425   0.486  -1.350  -0.482  0.9591 -0.6146 -0.9069
  315MOL0     O42426   0.585  -1.435  -0.442  0.1777 -0.2919  0.2176
  315MOL0     C42427   0.685  -1.360  -0.365  0.0039 -0.8113 -0.3780
  315MOL0     C42428   0.773  -1.467  -0.305 -0.7325  0.0692  0.1548
  315MOL0     C42429   0.891  -1.393  -0.234 -0.3617  1.1042  0.0718
  315MOL0     C42430   1.021  -1.475  -0.237  0.1034 -1.0635  0.0412
  315MOL0     C42431   1.142  -1.396  -0.206 -0.1961  0.1274  0.2833
  315MOL0     C42432   1.266  -1.471  -0.241  0.0966 -0.3468 -0.4242
  315MOL0     C42433   1.297  -1.594  -0.149  0.0031  0.5129 -0.9271
  315MOL0     C42434   1.340  -1.560  -0.010  0.7460  0.9030 -0.4966
  315MOL0    Cl42435   1.197  -1.566   0.095 -0.5767  0.2551 -0.0867
  315MOL0     C42436   0.426  -1.242  -0.413  0.6761 -0.1940  0.0630
  315MOL0     C42437   0.313  -1.166  -0.476 -0.8853 -0.0501  0.2860
  315MOL0     O42438   0.112  -0.956  -0.544  0.6473  0.0696  0.9363
  315MOL0     C42439   0.034  -1.030  -0.888  0.1583 -0.9023  0.7632
  315MOL0     C42440  -0.050  -0.994  -0.997  0.2263 -0.8804  0.7508
  315MOL0     N42441  -0.015  -0.240  -1.040  0.1135 -0.2441 -0.0133
  315MOL0     N42442   0.020  -0.133  -0.977 -0.1057 -0.1162 -0.0472
  315MOL0     C42443   0.453   0.627  -0.074 -0.0472  0.5291 -0.6714
  315MOL0     C42444   0.549   0.644   0.019  0.0852 -0.2870 -0.0263
  315MOL0     C42445   0.710   0.794   0.396  1.1569  0.9225 -0.5349
  315MOL0     C42446   0.712   0.937   0.427 -0.4103  0.2467 -0.2533
  315MOL0     C42447   0.820   0.986   0.499 -0.9791  0.9828  0.5661
  315MOL0     C42448   0.907   0.897   0.570  0.2025 -0.4767  0.0988
  315MOL0     O42449   1.001   0.959   0.644 -0.1471 -0.2679 -0.1640
  315MOL0     C42450   1.077   0.875   0.730 -0.6660  0.4400 -0.4705
  315MOL0     C42451   1.109   0.963   0.848 -0.6277  0.0465 -0.0554
  315MOL0     C42452   0.994   1.031   0.917  0.5132  0.5666  0.0286
  315MOL0     C42453   1.033   1.121   1.033 -0.1936  0.1530 -0.1067
  315MOL0     C42454   1.112   1.043   1.132 -0.6503 -0.2633 -0.1659
  315MOL0     C42455   1.159   0.980   1.224  0.4372 -0.0300  0.5303
  315MOL0     C42456   0.896   0.764   0.545  0.4156 -0.4166 -0.2824
  315MOL0     C42457   0.808   0.711   0.451  0.7713 -0.5466 -1.0383
  315MOL0     H42458   0.435   0.421   0.252 -2.6529  1.5751  1.0221
  315MOL0     H42459   0.264   0.396   0.093 -0.3317  0.0874 -2.1688
  315MOL0     H42460   0.117   0.399  -0.043  3.1204  1.1707 -0.0755
  315MOL0     H42461   0.072   0.578  -0.013  1.7330  4.2304 -1.6142
  315MOL0     H42462  -0.075   0.450  -0.169 -0.0181  1.2073  1.0734
  315MOL0     H42463   0.009   0.579  -0.244  0.6355 -0.1493  1.1157
  315MOL0     H42464   0.194   0.390  -0.316  0.6086  2.0743  2.3849
  315MOL0     H42465   0.086   0.275  -0.242 -1.5008  0.4683 -1.0272
  315MOL0     H42466  -0.089   0.355  -0.406 -0.7920  2.8253 -1.0387
  315MOL0     H42467   0.041   0.448  -0.490  0.9865 -1.7181 -2.3882
  315MOL0     H42468   0.154   0.245  -0.535  0.5691  2.9550  1.0396
  315MOL0     H42469   0.037   0.151  -0.455  0.0335  1.8734  1.0085
  315MOL0     H42470  -0.142   0.217  -0.627 -0.7530 -0.3252  0.5252
  315MOL0     H42471  -0.007   0.283  -0.727 -2.0469  2.9282  1.7644
  315MOL0     H42472   0.093   0.067  -0.741  1.2347  0.6791 -0.0779
  315MOL0     H42473  -0.038   0.002  -0.633  0.3280  1.1424 -0.1042
  315MOL0     H42474  -0.101   0.133  -0.897  1.8733 -0.6825 -0.7965
  315MOL0     H42475  -0.211   0.046  -0.796 -0.1922 -4.4541  3.0926
  315MOL0     H42476  -0.271  -0.198  -0.853  0.3790 -0.9144 -0.5673
  315MOL0     H42477  -0.197  -0.468  -0.959 -0.0155 -2.9250 -1.2845
  315MOL0     H42478  -0.328  -0.368  -1.032  0.3493 -0.6735  0.6085
  315MOL0     H42479  -0.093  -0.409  -1.208 -1.1214  0.9770 -1.1433
  315MOL0     H42480  -0.265  -0.458  -1.239  0.6866 -1.1278 -1.1140
  315MOL0     H42481  -0.083  -0.614  -1.072  0.4839 -1.6404 -0.4065
  315MOL0     H42482  -0.098  -0.657  -1.240  0.2467  1.2549 -0.0012
  315MOL0     H42483  -0.336  -0.715  -1.208  0.1298  1.7829  0.8525
  315MOL0     H42484  -0.317  -0.678  -1.032 -0.9085  0.0801 -0.1571
  315MOL0     H42485  -0.178  -0.708  -0.852 -3.5646 -2.5293  2.8140
  315MOL0     H42486  -0.124  -0.672  -0.651  0.3191 -0.8045 -3.8804
  315MOL0     H42487  -0.107  -0.812  -0.541 -3.1548  1.2827 -1.4411
  315MOL0     H42488   0.035  -0.724  -0.591  0.1615  0.2907 -0.2301
  315MOL0     H42489   0.277  -1.358  -0.755  2.1166  4.8497 -2.6651
  315MOL0     H42490   0.462  -1.474  -0.651 -2.6355 -1.8713  0.6531
  315MOL0     H42491   0.728  -1.287  -0.435  0.4642 -0.5582  0.1622
  315MOL0     H42492   0.632  -1.307  -0.285 -1.2024  2.0106 -2.8565
  315MOL0     H42493   0.711  -1.516  -0.229 -1.6082 -1.3728 -1.4307
  315MOL0     H42494   0.809  -1.535  -0.383  0.6839  0.5108  0.3949
  315MOL0     H42495   0.875  -1.373  -0.127  0.5895 -0.7655  0.6073
  315MOL0     H42496   0.911  -1.291  -0.269  0.1421  1.1474  0.4680
  315MOL0     H42497   1.002  -1.554  -0.163 -0.7725  1.3862  2.6400
  315MOL0     H42498   1.028  -1.522  -0.335 -0.5333  1.1001 -1.1061
  315MOL0     H42499   1.159  -1.364  -0.103 -0.9171  0.9159  0.1653
  315MOL0     H42500   1.143  -1.306  -0.268  0.5989  0.7913  1.2313
  315MOL0     H42501   1.256  -1.495  -0.347  2.3296  3.1223 -1.5696
  315MOL0     H42502   1.357  -1.412  -0.230 -0.9248  0.8244  3.3614
  315MOL0     H42503   1.374  -1.650  -0.203 -0.2303 -1.3627  0.5964
  315MOL0     H42504   1.213  -1.658  -0.121  1.8558 -1.3455  0.7364
  315MOL0     H42505   1.386  -1.461  -0.001 -0.4473  1.6363 -1.9821
  315MOL0     H42506   1.419  -1.632   0.013 -0.4127  0.0096  0.9535
  315MOL0     H42507   0.465  -1.204  -0.319  0.1659  0.4234  0.0239
  315MOL0     H42508   0.277  -1.082  -0.418  0.4790  0.9865 -0.2959
  315MOL0     H42509   0.112  -1.105  -0.900  0.4472 -1.0731  3.2306
  315MOL0     H42510  -0.038  -1.049  -1.090 -0.5979 -2.2047  1.4026
  315MOL0     H42511   0.462   0.690  -0.162  2.4942  1.5861  0.2472
  315MOL0     H42512   0.621   0.725   0.021 -1.5930  1.2950 -0.6533
  315MOL0     H42513   0.645   1.007   0.377 -0.0015  0.3436 -0.6786
  315MOL0     H42514   0.832   1.094   0.512 -2.4849  1.0182  2.0441
  315MOL0     H42515   1.016   0.795   0.772 -1.5279  0.8377 -0.9383
  315MOL0     H42516   1.165   0.837   0.678 -0.3259  2.1776 -1.2414
  315MOL0     H42517   1.166   1.044   0.802 -1.4919  0.8124  0.1831
  315MOL0     H42518   1.168   0.904   0.919  0.9302  0.5013 -0.9323
  315MOL0     H42519   0.915   0.961   0.948 -1.9045  2.4568 -1.4221
  315MOL0     H42520   0.947   1.102   0.847  1.0092  1.7651  0.8697
  315MOL0     H42521   0.944   1.154   1.087 -0.4450 -0.2898 -0.2483
  315MOL0     H42522   1.094   1.202   0.990  0.9126 -0.9055 -0.5835
  315MOL0     H42523   1.194   0.924   1.307  0.3933  1.3282  1.4993
  315MOL0     H42524   0.959   0.691   0.594 -1.8876 -0.4972  2.8974
  315MOL0     H42525   0.827   0.614   0.407  0.4020 -0.3599 -1.6099
  316MOL0     O42526   2.508   6.746  11.454 -0.1713 -0.4025  0.4088
  316MOL0     C42527   2.453   6.644  11.508 -0.5863 -1.1931 -0.2832
  316MOL0     O42528   2.507   6.566  11.591  0.4429  0.1280 -0.1641
  316MOL0     C42529   2.641   6.563  11.612  0.0791 -0.0833 -0.2717
  316MOL0     C42530   2.692   6.569  11.737 -0.0700  0.7887 -0.5507
  316MOL0     C42531   2.836   6.555  11.763  1.1988  0.2370 -0.0023
  316MOL0     C42532   2.925   6.522  11.665  1.0966  0.5537  0.1369
  316MOL0     O42533   3.059   6.498  11.701 -0.3887  0.4443 -1.1630
  316MOL0     C42534   3.164   6.472  11.601  0.3170 -0.2327  1.1365
  316MOL0     C42535   3.303   6.513  11.661 -0.9519  0.5656 -0.7662
  316MOL0     C42536   3.416   6.469  11.580 -0.0636 -0.1747 -0.4976
  316MOL0     C42537   3.460   6.328  11.625  0.2661  0.3720  0.0589
  316MOL0     C42538   3.604   6.296  11.570  0.6576  0.0834 -0.9009
  316MOL0     C42539   3.596   6.248  11.414  0.2993 -0.2355 -0.3080
  316MOL0     C42540   3.730   6.217  11.340 -1.1202  0.6244  0.2568
  316MOL0     C42541   3.711   6.194  11.188 -0.2257  0.3062  0.4311
  316MOL0     N42542   3.823   6.140  11.113 -0.2214  0.4148  0.7243
  316MOL0     C42543   3.883   6.010  11.126  0.3253 -0.4795 -0.3797
  316MOL0     C42544   3.949   5.997  11.010  0.2518 -0.3298 -0.0852
  316MOL0     C42545   4.015   5.881  10.952 -0.1992  1.3282  0.3755
  316MOL0     C42546   4.124   5.928  10.854  1.3507 -0.1801 -0.5344
  316MOL0     C42547   4.217   5.821  10.786  0.8025 -0.5789 -0.2305
  316MOL0     C42548   4.150   5.753  10.674 -0.1882 -0.0325  0.1925
  316MOL0     O42549   4.255   5.668  10.629  0.1775  0.6249 -0.6496
  316MOL0     C42550   4.217   5.556  10.555  0.2648 -0.3743  0.5258
  316MOL0     C42551   4.317   5.462  10.518 -0.4611  0.5282 -0.5748
  316MOL0     C42552   4.283   5.350  10.438 -0.8396  1.0880  0.2770
  316MOL0     C42553   4.408   5.270  10.403  0.8234  0.7109  0.0953
  316MOL0     C42554   4.155   5.328  10.394  0.2348 -0.1125  0.0619
  316MOL0     C42555   4.116   5.221  10.296  1.2921 -0.1634  0.4300
  316MOL0     O42556   4.187   5.104  10.274  0.4501 -0.6155  0.5190
  316MOL0     C42557   4.124   5.008  10.211 -1.0095  1.1028 -0.2329
  316MOL0     C42558   4.050   4.917  10.288 -0.2511  0.8518  0.3475
  316MOL0     C42559   4.004   4.794  10.223 -0.2329  0.1735  0.1597
  316MOL0     C42560   4.006   4.781  10.076 -0.1165 -0.4076 -0.2044
  316MOL0     O42561   3.927   4.688  10.007 -0.7442  0.1819  0.0712
  316MOL0     C42562   3.813   4.747   9.963  1.2481  0.2458  0.2028
  316MOL0     C42563   3.713   4.649   9.950  0.6874 -0.0021  0.3794
  316MOL0     C42564   3.619   4.637  10.066  0.6486  0.4858 -0.3185
  316MOL0     C42565   3.478   4.702  10.042  0.3334  0.4407 -1.4587
  316MOL0     C42566   3.389   4.686  10.171  0.1728 -0.9739  0.1771
  316MOL0     C42567   3.252   4.740  10.144  1.2624 -0.9834  1.0166
  316MOL0     C42568   3.163   4.752  10.260 -0.6014  0.3200 -1.0729
  316MOL0     C42569   3.050   4.850  10.260 -0.7035  0.3684  0.1287
  316MOL0    Cl42570   3.095   5.014  10.221 -0.4478  0.3379 -0.0856
  316MOL0     C42571   4.063   4.891  10.000  0.4652 -0.6474 -0.4529
  316MOL0     C42572   4.128   4.994  10.069 -0.0377 -0.1740  0.5443
  316MOL0     O42573   3.999   5.235  10.257  0.1595  0.0405 -0.0878
  316MOL0     C42574   4.059   5.420  10.440  0.2255 -0.8982  0.1060
  316MOL0     C42575   4.094   5.536  10.502 -0.4686 -0.5320 -0.5856
  316MOL0     N42576   3.924   6.119  10.934 -0.1292 -0.3081  0.3702
  316MOL0     N42577   3.851   6.205  10.999 -0.4713  0.3119  0.2894
  316MOL0     C42578   2.867   6.515  11.538 -0.2818 -0.3465 -0.5114
  316MOL0     C42579   2.731   6.537  11.514  0.7225  0.3628  1.1863
  316MOL0     C42580   2.327   6.613  11.453 -0.3127 -0.3540 -0.0917
  316MOL0     C42581   2.233   6.554  11.532  0.3731 -0.5318  0.3610
  316MOL0     C42582   2.105   6.534  11.485  0.1968 -0.5425 -0.1835
  316MOL0     C42583   2.075   6.551  11.346  0.9307 -1.0399 -0.3404
  316MOL0     O42584   1.949   6.530  11.283 -0.6959  0.0202 -0.7508
  316MOL0     C42585   1.850   6.465  11.355 -0.3149  0.3671 -1.2347
  316MOL0     C42586   1.708   6.440  11.291  0.4124  0.6675 -0.4666
  316MOL0     C42587   1.735   6.355  11.170 -0.4364 -1.4074 -0.2468
  316MOL0     C42588   1.624   6.343  11.072  0.6547 -0.4997 -0.8240
  316MOL0     C42589   1.631   6.479  11.005  0.1622 -0.0204 -0.3428
  316MOL0     C42590   1.638   6.587  10.952 -0.1314  0.3236  0.6743
  316MOL0     C42591   2.179   6.603  11.264  0.0364  0.2913  0.5329
  316MOL0     C42592   2.306   6.636  11.316  0.3591  0.6648 -0.3850
  316MOL0     H42593   2.631   6.595  11.823 -0.1588 -0.2298 -0.2962
  316MOL0     H42594   2.873   6.587  11.860  2.1816 -0.1341 -0.2451
  316MOL0     H42595   3.164   6.370  11.562  0.0625  0.6841 -1.4178
  316MOL0     H42596   3.144   6.539  11.518 -0.8738  1.7092  2.8951
  316MOL0     H42597   3.311   6.623  11.661  2.6881  0.4341 -0.0530
  316MOL0     H42598   3.309   6.482  11.765  1.0120 -0.7746 -1.2144
  316MOL0     H42599   3.392   6.459  11.474 -1.3412 -0.0783 -0.2386
  316MOL0     H42600   3.496   6.543  11.596 -0.1603  0.5444 -2.9661
  316MOL0     H42601   3.468   6.320  11.734 -1.8439 -0.6644  0.1725
  316MOL0     H42602   3.398   6.244  11.596  1.2661  0.0941 -1.3736
  316MOL0     H42603   3.666   6.387  11.577  0.4607  0.4036 -2.7089
  316MOL0     H42604   3.666   6.223  11.621  0.8531 -0.2920 -1.6657
  316MOL0     H42605   3.535   6.157  11.410 -1.4295  0.6836  2.3633
  316MOL0     H42606   3.552   6.328  11.354  1.1755  1.3546  1.1025
  316MOL0     H42607   3.776   6.315  11.359 -0.0664  0.3647 -0.7878
  316MOL0     H42608   3.770   6.127  11.386 -0.3317  1.5232  1.3883
  316MOL0     H42609   3.674   6.280  11.131  0.8157 -0.9864 -2.4074
  316MOL0     H42610   3.621   6.133  11.181 -0.1848  0.2817  0.1187
  316MOL0     H42611   3.858   5.936  11.202 -1.9388  0.0311 -0.5574
  316MOL0     H42612   4.058   5.817  11.029  0.1535  1.8123  0.5847
  316MOL0     H42613   3.953   5.807  10.900 -1.4047  0.1295  3.3079
  316MOL0     H42614   4.198   5.993  10.902  0.0609  2.2032 -1.6154
  316MOL0     H42615   4.068   5.975  10.773 -0.4928 -2.5648 -0.7720
  316MOL0     H42616   4.241   5.754  10.869 -0.6467 -4.1567 -2.5017
  316MOL0     H42617   4.306   5.868  10.743  0.7993  0.2733  0.6456
  316MOL0     H42618   4.117   5.819  10.594  2.0786 -2.8853 -3.4346
  316MOL0     H42619   4.062   5.707  10.720 -0.2172 -0.9920 -0.7544
  316MOL0     H42620   4.414   5.468  10.565 -0.9804 -1.2106  0.8139
  316MOL0     H42621   4.402   5.238  10.299  0.4830  0.8112  0.0820
  316MOL0     H42622   4.498   5.332  10.412 -0.9369  3.9897 -2.7303
  316MOL0     H42623   4.414   5.183  10.469 -0.6714  0.5943  0.1056
  316MOL0     H42624   4.038   4.937  10.394 -2.1924  2.0048 -0.0381
  316MOL0     H42625   3.956   4.717  10.284  0.5644 -0.1620  0.3789
  316MOL0     H42626   3.778   4.824  10.033 -0.8510  0.6638 -1.2175
  316MOL0     H42627   3.830   4.791   9.865 -1.9875  2.9708  0.6694
  316MOL0     H42628   3.664   4.666   9.854  1.8642 -2.4001 -0.7473
  316MOL0     H42629   3.766   4.555   9.931 -2.0737 -1.0230 -3.5435
  316MOL0     H42630   3.664   4.686  10.153 -0.0447 -2.1650  1.6795
  316MOL0     H42631   3.583   4.536  10.086 -3.2143  1.4016 -1.7108
  316MOL0     H42632   3.495   4.806  10.014  1.7273  0.5555 -0.2854
  316MOL0     H42633   3.418   4.660   9.961  0.6142 -0.8632 -1.0185
  316MOL0     H42634   3.428   4.740  10.258 -1.1038  1.8818 -0.9019
  316MOL0     H42635   3.369   4.581  10.193 -1.3189 -1.0185 -1.2549
  316MOL0     H42636   3.264   4.838  10.097 -4.2854  0.5167  2.0015
  316MOL0     H42637   3.211   4.683  10.060  2.6874 -2.2376  1.1229
  316MOL0     H42638   3.226   4.789  10.342 -3.0877  0.8559  0.7290
  316MOL0     H42639   3.113   4.657  10.284  1.1298 -0.2654  0.5116
  316MOL0     H42640   3.003   4.839  10.358 -1.4300 -1.0222 -0.3465
  316MOL0     H42641   2.993   4.818  10.172 -0.9294  2.1229 -0.4128
  316MOL0     H42642   4.063   4.882   9.892  2.4841 -2.8115 -0.3375
  316MOL0     H42643   4.164   5.073  10.004  0.4624 -2.0414 -1.5501
  316MOL0     H42644   3.951   5.409  10.427  0.3168 -0.1223 -1.5904
  316MOL0     H42645   4.020   5.611  10.529  2.8044  3.0234 -0.5009
  316MOL0     H42646   2.923   6.476  11.453  0.9792  1.6537 -0.6753
  316MOL0     H42647   2.672   6.537  11.423 -1.4626 -0.8966  2.4913
  316MOL0     H42648   2.252   6.539  11.638  0.0635  1.4368  0.7262
  316MOL0     H42649   2.027   6.495  11.549  0.7660  0.1140  0.9392
  316MOL0     H42650   1.892   6.367  11.378  1.2889  0.9894 -1.4260
  316MOL0     H42651   1.840   6.527  11.445  0.7380 -1.0861 -0.0606
  316MOL0     H42652   1.661   6.537  11.269 -1.1391  0.8540  3.0067
  316MOL0     H42653   1.642   6.394  11.365 -1.5883  3.8602 -0.0623
  316MOL0     H42654   1.769   6.254  11.194  0.1398 -1.1511  0.0280
  316MOL0     H42655   1.812   6.398  11.105 -2.3591 -0.0727 -1.7578
  316MOL0     H42656   1.532   6.321  11.127  1.4955 -1.4511  0.2793
  316MOL0     H42657   1.627   6.255  11.007 -3.0399 -1.4956  0.1081
  316MOL0     H42658   1.659   6.690  10.928  0.4823  1.3112  4.7060
  316MOL0     H42659   2.146   6.611  11.160  0.2764 -0.0516  0.4296
  316MOL0     H42660   2.388   6.683  11.263 -0.2998  0.5501 -1.5338
  317MOL0     O42661  11.428   8.191   2.574 -1.1009 -0.0621 -0.7104
  317MOL0     C42662  11.370   8.196   2.470 -0.9578  0.1771 -0.3210
  317MOL0     O42663  11.426   8.258   2.358  0.1787 -0.2085  0.9867
  317MOL0     C42664  11.528   8.353   2.364  0.5695 -0.4240  0.3582
  317MOL0     C42665  11.503   8.470   2.273 -0.4287 -0.2427 -0.4528
  317MOL0     C42666  11.619   8.554   2.259 -0.5468  0.2897 -0.5723
  317MOL0     C42667  11.733   8.537   2.335 -0.3723  0.4515 -0.6850
  317MOL0     O42668  11.840   8.620   2.333  0.8795  0.5898  0.7210
  317MOL0     C42669  11.834   8.756   2.282  0.2815 -0.9283  0.4391
  317MOL0     C42670  11.987   8.822   2.283  1.2543 -0.2921 -1.1276
  317MOL0     C42671  11.999   8.918   2.166 -0.3826  0.1452  0.1335
  317MOL0     C42672  12.155   8.938   2.147 -0.1916 -0.1388 -0.6401
  317MOL0     C42673  12.182   9.004   2.019 -1.2613  0.0700 -0.6723
  317MOL0     C42674  12.334   9.008   2.001 -0.1913  0.0326 -0.7405
  317MOL0     C42675  12.369   9.130   1.906  0.4356 -0.7509  0.0101
  317MOL0     C42676  12.339   9.094   1.760 -0.0955  0.2867  0.5170
  317MOL0     N42677  12.411   8.972   1.717  0.5646  0.2330 -0.7882
  317MOL0     C42678  12.358   8.853   1.686 -1.0199  0.4041 -0.1882
  317MOL0     C42679  12.465   8.774   1.642  0.4147  0.9660  0.0133
  317MOL0     C42680  12.467   8.630   1.601  0.0793  0.3467  0.1551
  317MOL0     C42681  12.484   8.601   1.449  0.5318  0.3258  0.0646
  317MOL0     C42682  12.489   8.450   1.419  0.5634 -0.0144 -0.4748
  317MOL0     C42683  12.400   8.344   1.478  0.2056 -0.2715 -0.8075
  317MOL0     O42684  12.264   8.398   1.492  0.7087  0.0494  0.5182
  317MOL0     C42685  12.170   8.326   1.561 -0.2568  0.1889  1.2215
  317MOL0     C42686  12.195   8.200   1.610 -0.3419  0.2941 -1.4121
  317MOL0     C42687  12.095   8.120   1.665 -0.7714 -0.1506 -0.0565
  317MOL0     C42688  12.122   7.979   1.690  0.1588 -0.6699  1.1107
  317MOL0     C42689  11.973   8.187   1.700  0.5556  0.0420 -0.0698
  317MOL0     C42690  11.873   8.109   1.768  0.5702 -0.8139 -0.1868
  317MOL0     O42691  11.923   8.042   1.872  0.0957 -0.0865 -0.1718
  317MOL0     C42692  11.833   8.000   1.961 -0.3325 -0.3873 -0.4511
  317MOL0     C42693  11.781   7.875   1.954 -1.1344 -0.9719 -0.0508
  317MOL0     C42694  11.697   7.830   2.055  0.1133 -0.4218 -0.1653
  317MOL0     C42695  11.647   7.907   2.154  0.9287 -0.9419 -0.4148
  317MOL0     O42696  11.573   7.847   2.256 -1.0823 -0.5509 -1.0108
  317MOL0     C42697  11.598   7.915   2.378  0.6504 -0.3915  0.0367
  317MOL0     C42698  11.565   7.829   2.496 -0.4712  0.8059 -0.1245
  317MOL0     C42699  11.684   7.718   2.502 -0.2800 -0.1239 -0.6491
  317MOL0     C42700  11.668   7.612   2.609  0.9224  0.3593  0.0381
  317MOL0     C42701  11.756   7.486   2.584  0.2595 -1.4904 -0.7100
  317MOL0     C42702  11.708   7.376   2.492  0.6672  0.6370  0.2161
  317MOL0     C42703  11.827   7.290   2.452  0.0411  0.7324 -0.3558
  317MOL0     C42704  11.764   7.153   2.406 -0.3702  0.5474 -0.0852
  317MOL0    Cl42705  11.893   7.044   2.336  0.1944  0.2160 -0.0964
  317MOL0     C42706  11.686   8.047   2.152 -0.3288  0.5078  0.0116
  317MOL0     C42707  11.787   8.090   2.056  1.4905  0.1369 -0.2565
  317MOL0     O42708  11.754   8.091   1.722  0.1438  0.6373 -0.3033
  317MOL0     C42709  11.945   8.318   1.655  0.4652 -0.1623 -0.5352
  317MOL0     C42710  12.047   8.383   1.583  0.5487  0.2125 -0.4133
  317MOL0     N42711  12.581   8.850   1.656  0.3111  0.2160 -0.0190
  317MOL0     N42712  12.545   8.962   1.702 -0.4936  0.3053 -0.2932
  317MOL0     C42713  11.753   8.420   2.405 -0.2547 -0.3417 -1.0576
  317MOL0     C42714  11.650   8.332   2.430 -0.2898  0.7726 -0.1254
  317MOL0     C42715  11.254   8.101   2.443 -0.0960 -0.3120  0.0217
  317MOL0     C42716  11.194   8.032   2.551 -0.4460 -0.6362  0.3105
  317MOL0     C42717  11.100   7.934   2.539 -0.2050  0.1767 -0.6119
  317MOL0     C42718  11.052   7.897   2.410 -0.3281  0.5370  0.1317
  317MOL0     O42719  10.945   7.815   2.371  0.0267 -0.4339 -0.3145
  317MOL0     C42720  10.895   7.726   2.471 -1.2449  0.1525 -0.2921
  317MOL0     C42721  10.764   7.672   2.417 -0.7019 -0.9592  0.1552
  317MOL0     C42722  10.702   7.584   2.527 -0.2601  0.0458 -0.4667
  317MOL0     C42723  10.554   7.566   2.496 -0.6128 -0.7983 -1.4227
  317MOL0     C42724  10.525   7.477   2.383  0.1522 -0.3723  0.5783
  317MOL0     C42725  10.522   7.401   2.293  0.3945  0.1920  0.7102
  317MOL0     C42726  11.112   7.959   2.302 -0.1677  1.3266  0.0827
  317MOL0     C42727  11.213   8.059   2.308 -0.5139  0.4813 -0.7609
  317MOL0     H42728  11.427   8.489   2.198  0.6264  0.0500 -1.4753
  317MOL0     H42729  11.620   8.631   2.183  0.1842 -1.3241 -2.2867
  317MOL0     H42730  11.793   8.772   2.182  1.8621  0.6765 -0.0002
  317MOL0     H42731  11.784   8.816   2.358  1.2911 -0.1171  0.4816
  317MOL0     H42732  12.010   8.867   2.380 -1.0721  0.1611 -0.7292
  317MOL0     H42733  12.054   8.737   2.271  3.4870  0.8790  1.8210
  317MOL0     H42734  11.966   8.870   2.074  1.2574 -4.6385  1.7260
  317MOL0     H42735  11.954   9.016   2.185 -3.9907 -1.5131  1.0884
  317MOL0     H42736  12.196   8.993   2.232 -0.2167 -0.8848 -0.1411
  317MOL0     H42737  12.186   8.834   2.137 -1.6410 -0.8149  1.2720
  317MOL0     H42738  12.125   8.947   1.945  1.1579 -3.5959 -0.0295
  317MOL0     H42739  12.148   9.107   2.024  0.0939  0.4947  0.4078
  317MOL0     H42740  12.363   9.035   2.103 -2.1274 -1.9756  0.4110
  317MOL0     H42741  12.393   8.918   1.980 -1.6759 -1.0283 -0.4658
  317MOL0     H42742  12.312   9.219   1.934 -0.2838 -1.9983  2.7954
  317MOL0     H42743  12.472   9.160   1.927 -0.8312  3.7783  0.9260
  317MOL0     H42744  12.370   9.175   1.693  0.9605 -0.1349  0.4853
  317MOL0     H42745  12.235   9.063   1.743  0.6793 -0.6143 -3.7933
  317MOL0     H42746  12.252   8.833   1.677 -0.5073 -2.3030 -1.3756
  317MOL0     H42747  12.550   8.586   1.656  1.0725  0.5220 -1.1594
  317MOL0     H42748  12.373   8.592   1.642 -0.3182  2.0947  0.9530
  317MOL0     H42749  12.572   8.660   1.422 -1.5671  2.4565 -2.7982
  317MOL0     H42750  12.403   8.641   1.387  1.0221  0.3896 -0.5368
  317MOL0     H42751  12.591   8.415   1.437  0.2531 -0.6261  0.1195
  317MOL0     H42752  12.485   8.448   1.310  0.2589  2.1294 -0.5464
  317MOL0     H42753  12.446   8.313   1.572 -0.3990  0.2808 -0.3182
  317MOL0     H42754  12.387   8.265   1.403 -0.7066  1.0021 -2.0277
  317MOL0     H42755  12.288   8.144   1.607 -0.7751 -1.2266  3.7140
  317MOL0     H42756  12.051   7.905   1.653  0.5355 -2.0503  2.9932
  317MOL0     H42757  12.208   7.941   1.633  0.2108 -0.5186  1.0866
  317MOL0     H42758  12.144   7.955   1.795  0.8758  0.9482  1.3496
  317MOL0     H42759  11.816   7.824   1.864  1.2051  2.3459 -1.2348
  317MOL0     H42760  11.687   7.722   2.055  5.3589 -1.1438  0.0303
  317MOL0     H42761  11.700   7.951   2.391  0.2239  0.0448  2.7759
  317MOL0     H42762  11.520   7.992   2.379  2.1088  1.1440  0.7010
  317MOL0     H42763  11.562   7.884   2.591  2.1178 -0.5792  0.8648
  317MOL0     H42764  11.468   7.779   2.490 -0.7149  1.2655 -0.0888
  317MOL0     H42765  11.780   7.768   2.516  0.4301 -0.5477 -3.4015
  317MOL0     H42766  11.679   7.660   2.409 -1.2223 -0.7928 -0.2046
  317MOL0     H42767  11.674   7.650   2.711 -1.0126 -2.0546  1.1262
  317MOL0     H42768  11.566   7.575   2.602  0.7315  0.6066  1.3442
  317MOL0     H42769  11.768   7.450   2.687  0.9321  2.5727  0.8039
  317MOL0     H42770  11.848   7.542   2.563 -0.8040  0.9730  0.8554
  317MOL0     H42771  11.625   7.319   2.534  1.1853  1.3050  2.3108
  317MOL0     H42772  11.678   7.422   2.398 -2.5522 -1.0160  0.2799
  317MOL0     H42773  11.902   7.277   2.531  1.3091  1.9050 -1.3266
  317MOL0     H42774  11.884   7.342   2.375 -0.3840  0.5369 -0.8059
  317MOL0     H42775  11.692   7.169   2.325  0.2309  2.0849 -0.3503
  317MOL0     H42776  11.714   7.103   2.489  1.3263 -1.6995 -0.3269
  317MOL0     H42777  11.638   8.118   2.218  1.8596 -0.2395  2.6012
  317MOL0     H42778  11.820   8.193   2.048  0.9830  0.5321  2.0058
  317MOL0     H42779  11.856   8.375   1.683 -1.4323 -3.4666  0.8212
  317MOL0     H42780  12.044   8.485   1.546  2.1588 -0.4122 -2.4712
  317MOL0     H42781  11.847   8.410   2.458 -0.2088  2.3734 -0.4706
  317MOL0     H42782  11.668   8.254   2.504  0.0150  4.7363  4.5249
  317MOL0     H42783  11.242   8.041   2.648 -2.3976 -1.1042  1.3532
  317MOL0     H42784  11.043   7.892   2.621 -0.3014  1.0778 -0.2039
  317MOL0     H42785  10.982   7.666   2.500  0.9211  4.5796  3.8221
  317MOL0     H42786  10.884   7.776   2.568  1.2261  1.0549 -0.3891
  317MOL0     H42787  10.781   7.615   2.325  1.6471  0.2917 -0.2579
  317MOL0     H42788  10.703   7.761   2.397 -0.1815 -0.8837 -1.1790
  317MOL0     H42789  10.719   7.622   2.629 -0.0481  4.0590 -1.8224
  317MOL0     H42790  10.756   7.489   2.520 -1.2280 -0.3866 -3.9235
  317MOL0     H42791  10.512   7.666   2.476 -1.8017 -0.8761  0.3880
  317MOL0     H42792  10.505   7.527   2.586 -0.8671  4.3096  0.9940
  317MOL0     H42793  10.534   7.335   2.210  0.4708  1.7957 -0.6139
  317MOL0     H42794  11.068   7.930   2.208  0.2779 -1.7026  0.7017
  317MOL0     H42795  11.255   8.108   2.221  5.9748 -1.3327  0.8477
  318MOL0     O42796   9.758   9.855  11.476 -0.5370  0.4807 -0.0389
  318MOL0     C42797   9.679   9.807  11.390 -0.0361  1.0655 -0.0769
  318MOL0     O42798   9.687   9.824  11.254 -0.0694  0.3866 -0.7691
  318MOL0     C42799   9.700   9.948  11.210  0.4116  0.1912 -0.3567
  318MOL0     C42800   9.738   9.964  11.083 -1.0148 -0.9752 -0.3933
  318MOL0     C42801   9.741  10.089  11.022 -0.5623 -0.3605 -0.3872
  318MOL0     C42802   9.725  10.204  11.094 -0.5248 -0.7378  0.5998
  318MOL0     O42803   9.740  10.324  11.029 -0.5862  0.7582  0.4762
  318MOL0     C42804   9.745  10.456  11.098 -0.3389 -0.9919  0.6655
  318MOL0     C42805   9.794  10.570  11.005 -0.0886  0.1880  0.5071
  318MOL0     C42806   9.928  10.536  10.937  1.0642 -0.2199 -0.7424
  318MOL0     C42807   9.963  10.651  10.845 -0.6814 -0.4851 -0.0683
  318MOL0     C42808  10.088  10.625  10.760 -0.1769  0.4520 -0.2768
  318MOL0     C42809  10.108  10.723  10.644  0.9923 -0.0426 -0.1233
  318MOL0     C42810  10.228  10.680  10.560 -1.2315  0.6385  0.3019
  318MOL0     C42811  10.203  10.565  10.466 -0.0382  0.3556  1.2620
  318MOL0     N42812  10.334  10.533  10.398  0.5083  0.2024  0.3564
  318MOL0     C42813  10.426  10.449  10.451  0.2509  0.2294 -0.0540
  318MOL0     C42814  10.551  10.477  10.394  0.3757 -0.6467 -0.5929
  318MOL0     C42815  10.686  10.404  10.410 -0.3227  0.8524 -0.0926
  318MOL0     C42816  10.667  10.252  10.399  0.0613  1.1924 -0.3268
  318MOL0     C42817  10.800  10.169  10.399 -0.9770  0.3971 -0.5402
  318MOL0     C42818  10.773  10.032  10.330  0.2883 -0.9561 -0.5818
  318MOL0     O42819  10.897   9.960  10.317  0.6843  0.4841  0.2054
  318MOL0     C42820  10.886   9.842  10.243  0.6474  0.5065  0.0020
  318MOL0     C42821  10.990   9.753  10.237  0.5420 -0.7472  0.7053
  318MOL0     C42822  10.978   9.615  10.206  0.7555  0.1255  0.2002
  318MOL0     C42823  11.102   9.544  10.220  0.4895 -0.1277 -0.0967
  318MOL0     C42824  10.849   9.568  10.161 -0.3607 -0.0117  0.2068
  318MOL0     C42825  10.821   9.436  10.106 -0.3515  0.2368 -0.8522
  318MOL0     O42826  10.715   9.428  10.016 -0.6331  0.3610 -0.2505
  318MOL0     C42827  10.661   9.311   9.957 -0.4735  0.0204 -0.2440
  318MOL0     C42828  10.557   9.321   9.864 -0.9367 -1.4222  0.4521
  318MOL0     C42829  10.488   9.223   9.812 -0.1620 -0.1967  0.3570
  318MOL0     C42830  10.504   9.096   9.868  0.5555  0.9279  0.2675
  318MOL0     O42831  10.431   8.983   9.827  0.0961 -0.3854  0.5712
  318MOL0     C42832  10.285   9.005   9.840  0.0971  0.3246 -0.1806
  318MOL0     C42833  10.219   8.925   9.734  0.4710  0.2459  0.0330
  318MOL0     C42834  10.240   8.775   9.763  0.2120 -0.7551  0.1747
  318MOL0     C42835  10.155   8.715   9.891  0.4152  0.3090  0.1006
  318MOL0     C42836  10.146   8.559   9.881 -0.4845  0.5561 -0.8872
  318MOL0     C42837  10.282   8.495   9.921  0.3683  0.1017  0.3265
  318MOL0     C42838  10.288   8.352   9.883  1.1581  0.4194 -0.1926
  318MOL0     C42839  10.186   8.252   9.949  0.0734 -0.3987  0.3099
  318MOL0    Cl42840  10.272   8.109  10.016  0.8313  0.4306  0.1703
  318MOL0     C42841  10.612   9.074   9.952  0.2086 -1.6206 -0.3582
  318MOL0     C42842  10.682   9.182   9.995  0.6338 -0.5653 -0.0086
  318MOL0     O42843  10.894   9.343  10.144 -1.2419 -0.8696 -0.1091
  318MOL0     C42844  10.749   9.667  10.133  0.4909 -0.2112 -0.4523
  318MOL0     C42845  10.765   9.798  10.183  0.2231  0.3698 -0.4647
  318MOL0     N42846  10.522  10.571  10.297 -0.8264  0.1921  0.3168
  318MOL0     N42847  10.399  10.603  10.303 -0.3459  0.2250  1.0513
  318MOL0     C42848   9.693  10.199  11.228  0.2326  0.0752 -0.0032
  318MOL0     C42849   9.679  10.071  11.285 -0.3374  0.9505 -0.7736
  318MOL0     C42850   9.564   9.720  11.449  0.3358 -0.0593 -0.4400
  318MOL0     C42851   9.558   9.689  11.583 -0.0620 -0.3192 -0.9132
  318MOL0     C42852   9.466   9.596  11.627  0.5158  0.5215  0.1929
  318MOL0     C42853   9.360   9.542  11.548 -1.0127 -0.3807  0.3184
  318MOL0     O42854   9.260   9.462  11.594 -0.5352  0.6085 -0.1749
  318MOL0     C42855   9.168   9.404  11.500 -0.1818  0.8635 -0.5387
  318MOL0     C42856   9.072   9.313  11.587  0.1435  0.6279 -0.2056
  318MOL0     C42857   8.965   9.239  11.507  0.1116  0.1508 -0.0277
  318MOL0     C42858   8.870   9.159  11.593  0.5972 -0.2158 -1.2009
  318MOL0     C42859   8.757   9.112  11.517 -0.4572  0.3303  0.6464
  318MOL0     C42860   8.666   9.072  11.434  0.0371 -0.3744  0.1991
  318MOL0     C42861   9.361   9.592  11.413  0.7185 -0.3631  0.0128
  318MOL0     C42862   9.463   9.680  11.366 -0.7385 -0.4446  0.7380
  318MOL0     H42863   9.765   9.883  11.017  1.3139 -0.8265  0.2643
  318MOL0     H42864   9.767  10.103  10.917 -1.1491  2.0939 -0.2652
  318MOL0     H42865   9.649  10.479  11.145 -1.0957  1.0411 -1.6454
  318MOL0     H42866   9.820  10.472  11.176 -1.9153  2.3874  1.6782
  318MOL0     H42867   9.719  10.599  10.931  0.1467  3.1253  1.3057
  318MOL0     H42868   9.824  10.653  11.069  1.2063 -1.9872  2.8861
  318MOL0     H42869  10.005  10.525  11.014 -0.0216  1.3298  0.6211
  318MOL0     H42870   9.924  10.435  10.895  1.2297 -2.0306  3.2115
  318MOL0     H42871   9.879  10.677  10.781 -0.2218 -0.5716 -0.7162
  318MOL0     H42872   9.981  10.741  10.906 -1.2470 -0.3868 -0.0439
  318MOL0     H42873  10.182  10.624  10.816  1.1272 -3.0878 -2.2126
  318MOL0     H42874  10.070  10.522  10.725 -3.8146  0.1185  2.0021
  318MOL0     H42875  10.020  10.724  10.580  0.7949 -1.5180  0.0854
  318MOL0     H42876  10.127  10.823  10.684  0.7498 -0.2830  0.6076
  318MOL0     H42877  10.266  10.768  10.508  2.3283  1.4989  3.8882
  318MOL0     H42878  10.316  10.661  10.622  2.0060 -0.6701 -4.1722
  318MOL0     H42879  10.132  10.592  10.387  1.2437  3.0531  0.9102
  318MOL0     H42880  10.174  10.478  10.526 -1.6165  0.3200  0.4771
  318MOL0     H42881  10.425  10.376  10.532  1.6976  1.0591  0.7425
  318MOL0     H42882  10.740  10.430  10.319  1.7799 -1.1495  0.4793
  318MOL0     H42883  10.735  10.428  10.505 -1.5265  1.6510  0.3392
  318MOL0     H42884  10.609  10.224  10.310  1.3212  2.3705 -1.5750
  318MOL0     H42885  10.610  10.218  10.486 -0.6645 -0.2392 -1.3147
  318MOL0     H42886  10.824  10.149  10.503  0.0341 -2.1633 -1.1888
  318MOL0     H42887  10.879  10.228  10.351 -1.1836  3.0882  2.1883
  318MOL0     H42888  10.710  10.052  10.243  0.5975  0.5414 -0.4870
  318MOL0     H42889  10.706   9.976  10.396  1.2948 -1.0171  0.4339
  318MOL0     H42890  11.082   9.801  10.270  0.0771  0.7960 -0.1224
  318MOL0     H42891  11.122   9.502  10.320 -0.6899 -0.9841 -0.1980
  318MOL0     H42892  11.089   9.464  10.147 -2.9475  0.8597 -0.7445
  318MOL0     H42893  11.180   9.609  10.181 -2.3465  3.6295 -0.0638
  318MOL0     H42894  10.522   9.418   9.831  0.1979 -0.5208  1.7744
  318MOL0     H42895  10.424   9.248   9.728  0.3473 -0.0702  0.0043
  318MOL0     H42896  10.252   8.984   9.942  0.1565 -0.8292 -0.3818
  318MOL0     H42897  10.265   9.111   9.820  1.8196  0.0466 -4.3693
  318MOL0     H42898  10.109   8.931   9.734  0.4723  0.2676 -0.7064
  318MOL0     H42899  10.254   8.954   9.635  2.0240  1.7205  0.9573
  318MOL0     H42900  10.349   8.761   9.768  0.6362  0.3358 -3.0745
  318MOL0     H42901  10.211   8.718   9.674  0.5705  0.5740 -0.8243
  318MOL0     H42902  10.222   8.742   9.973  0.6211  2.7993 -0.7957
  318MOL0     H42903  10.054   8.759   9.895 -0.3473 -1.3957  0.3395
  318MOL0     H42904  10.102   8.527   9.786 -2.9309  2.2456 -0.4241
  318MOL0     H42905  10.085   8.520   9.963  0.7251  2.6324  1.1149
  318MOL0     H42906  10.358   8.543   9.859  0.9356  0.0969  1.0071
  318MOL0     H42907  10.312   8.511  10.025 -0.0653  0.7907  0.3562
  318MOL0     H42908  10.389   8.313   9.898  0.2064 -2.1452  0.0597
  318MOL0     H42909  10.264   8.329   9.779 -1.6247 -0.9624  0.6520
  318MOL0     H42910  10.106   8.216   9.883 -0.7359  0.7779  0.6390
  318MOL0     H42911  10.138   8.308  10.030  4.1695  1.0504  1.9831
  318MOL0     H42912  10.629   8.975   9.993  2.3824 -0.7232  1.1285
  318MOL0     H42913  10.748   9.173  10.081 -2.1246  0.0945  2.3461
  318MOL0     H42914  10.649   9.657  10.093  0.5504  2.3641 -1.3967
  318MOL0     H42915  10.673   9.856  10.178 -0.7072 -1.0262 -0.1142
  318MOL0     H42916   9.675  10.287  11.289 -2.0528 -0.6711  0.4845
  318MOL0     H42917   9.634  10.063  11.383 -1.7456 -0.1987 -1.4774
  318MOL0     H42918   9.631   9.730  11.652 -1.0960 -1.9269  1.2397
  318MOL0     H42919   9.478   9.565  11.730  0.8122 -0.2641 -0.0702
  318MOL0     H42920   9.110   9.489  11.464  0.6971  2.6806  2.0446
  318MOL0     H42921   9.217   9.339  11.427 -1.4667 -0.3875 -0.3223
  318MOL0     H42922   9.014   9.359  11.667 -0.0047 -0.8996  0.5864
  318MOL0     H42923   9.145   9.239  11.621  0.2432  2.6395  4.7909
  318MOL0     H42924   9.022   9.170  11.444  0.0554 -0.3425  0.4597
  318MOL0     H42925   8.906   9.319  11.463 -0.7568 -2.3984 -3.9913
  318MOL0     H42926   8.843   9.218  11.681  3.7587  1.5028 -1.2352
  318MOL0     H42927   8.927   9.072  11.627  0.5839 -0.5619 -2.0452
  318MOL0     H42928   8.598   9.034  11.361  0.4298 -1.8687  0.5714
  318MOL0     H42929   9.291   9.556  11.338 -1.0105  1.9086  0.4454
  318MOL0     H42930   9.467   9.714  11.263  3.4686 -2.2967  0.0717
  319MOL0     O42931  10.972   8.953  11.029  0.0479 -0.1602  0.4323
  319MOL0     C42932  10.916   8.920  10.924 -0.4561  0.5572 -0.3782
  319MOL0     O42933  10.797   8.856  10.916 -0.3986  0.1633 -0.5858
  319MOL0     C42934  10.724   8.879  11.025  0.5699 -0.5279 -0.0735
  319MOL0     C42935  10.722   8.775  11.117  0.4920 -0.2001  1.3075
  319MOL0     C42936  10.646   8.789  11.236 -0.6984 -0.3981  0.0628
  319MOL0     C42937  10.588   8.910  11.269  0.2366  0.6714  0.7185
  319MOL0     O42938  10.519   8.935  11.386 -0.8584 -0.6547  0.0623
  319MOL0     C42939  10.410   8.846  11.416 -0.1466 -0.7173  0.4508
  319MOL0     C42940  10.304   8.836  11.304 -0.7131 -0.0689  0.6582
  319MOL0     C42941  10.240   8.973  11.290 -0.0090  1.1023  0.4340
  319MOL0     C42942  10.144   8.976  11.163  0.0456 -0.0962  0.6089
  319MOL0     C42943  10.113   9.122  11.121 -0.6045 -0.3436 -0.3726
  319MOL0     C42944  10.017   9.150  11.008 -1.4321  0.6237 -0.0950
  319MOL0     C42945   9.881   9.082  11.014 -0.3569 -0.1167 -0.2985
  319MOL0     C42946   9.802   9.116  11.143 -0.9254 -1.0369  0.1551
  319MOL0     N42947   9.692   9.021  11.151 -1.2308 -0.3433  0.2165
  319MOL0     C42948   9.586   9.017  11.065  0.2661  0.8384  0.2054
  319MOL0     C42949   9.528   8.902  11.085 -0.2680  0.3035  0.1072
  319MOL0     C42950   9.415   8.852  11.006  0.5232 -0.3346  0.0564
  319MOL0     C42951   9.441   8.760  10.887 -0.8990 -0.7224  0.0484
  319MOL0     C42952   9.323   8.758  10.799  0.0591  0.0017 -0.2885
  319MOL0     C42953   9.200   8.698  10.863 -0.3702 -0.4527 -0.9929
  319MOL0     O42954   9.120   8.646  10.759  0.6076 -0.7943 -0.2851
  319MOL0     C42955   9.138   8.521  10.706 -0.4467  0.0066 -0.4363
  319MOL0     C42956   9.079   8.504  10.580  0.4718  0.5106 -0.4610
  319MOL0     C42957   9.092   8.382  10.511  0.0004 -0.7590 -0.0863
  319MOL0     C42958   9.018   8.374  10.380  0.1107  0.4466  0.8233
  319MOL0     C42959   9.174   8.282  10.565 -0.0550 -0.4618 -0.4355
  319MOL0     C42960   9.201   8.159  10.496 -0.1803  0.6449  0.3442
  319MOL0     O42961   9.333   8.120  10.491  0.3307  0.1036 -0.0463
  319MOL0     C42962   9.359   7.987  10.461 -0.1454 -0.6559 -0.1744
  319MOL0     C42963   9.367   7.885  10.558  0.1200 -0.8475  0.4372
  319MOL0     C42964   9.408   7.762  10.523 -0.0003  0.8945 -0.1999
  319MOL0     C42965   9.433   7.725  10.393 -0.9121 -0.2669  0.6281
  319MOL0     O42966   9.463   7.592  10.364 -0.6121 -0.0998 -0.2936
  319MOL0     C42967   9.514   7.498  10.451  0.6096 -0.2800 -0.2987
  319MOL0     C42968   9.604   7.422  10.356 -0.0252 -0.0387 -1.4405
  319MOL0     C42969   9.653   7.297  10.426 -0.0897 -1.6628 -0.4582
  319MOL0     C42970   9.716   7.199  10.328  0.4086  0.8159 -0.3041
  319MOL0     C42971   9.840   7.239  10.254 -0.0602  0.0259 -0.5478
  319MOL0     C42972   9.956   7.274  10.347 -0.2321 -0.1339 -0.3930
  319MOL0     C42973  10.079   7.289  10.263 -0.4810  0.6154 -0.0718
  319MOL0     C42974  10.207   7.350  10.328 -0.7763 -0.6258  0.4345
  319MOL0    Cl42975  10.211   7.523  10.315 -0.0778  0.0121  0.3705
  319MOL0     C42976   9.402   7.817  10.291 -0.7458  0.3119 -1.0742
  319MOL0     C42977   9.379   7.953  10.329  0.8119  0.1431  0.2755
  319MOL0     O42978   9.104   8.101  10.446 -0.3260 -0.2185  0.5780
  319MOL0     C42979   9.236   8.306  10.694 -0.3828  0.1799 -0.1504
  319MOL0     C42980   9.223   8.431  10.759 -0.2856 -0.6820  0.1178
  319MOL0     N42981   9.588   8.830  11.189 -0.1298 -0.7128  0.4924
  319MOL0     N42982   9.690   8.909  11.224 -0.0367  0.9722 -0.2849
  319MOL0     C42983  10.599   9.008  11.181  0.2813  0.3918  0.9521
  319MOL0     C42984  10.659   8.994  11.056  0.6074 -0.0613  0.3150
  319MOL0     C42985  10.986   8.944  10.803 -0.3757  1.1415  1.3161
  319MOL0     C42986  10.918   8.913  10.678 -0.7528 -0.0030 -0.7046
  319MOL0     C42987  10.986   8.933  10.560 -0.1288  0.2716 -0.3019
  319MOL0     C42988  11.120   8.983  10.558  0.5452 -0.3864 -0.3833
  319MOL0     O42989  11.198   8.999  10.440 -0.5392  0.0603  0.3119
  319MOL0     C42990  11.144   8.968  10.312  0.1048 -0.1744  0.5301
  319MOL0     C42991  11.231   8.975  10.183 -0.4463 -0.2349 -0.3847
  319MOL0     C42992  11.247   9.126  10.134 -0.0603 -0.6406 -0.2935
  319MOL0     C42993  11.324   9.145  10.000  0.1633 -0.0539  0.7615
  319MOL0     C42994  11.362   9.281   9.959  0.3876  0.3450 -0.0252
  319MOL0     C42995  11.404   9.391   9.928 -0.0284 -0.2236  0.0001
  319MOL0     C42996  11.183   9.008  10.674  0.7181 -0.3408 -0.7987
  319MOL0     C42997  11.117   8.985  10.800  0.1158  0.1477 -0.5534
  319MOL0     H42998  10.792   8.693  11.108  1.9216  1.1098 -0.5091
  319MOL0     H42999  10.650   8.704  11.303  2.3997 -2.7415 -2.7445
  319MOL0     H43000  10.445   8.745  11.439 -1.2424 -1.1516  0.2882
  319MOL0     H43001  10.352   8.883  11.501 -0.0777  1.4292 -0.3596
  319MOL0     H43002  10.358   8.812  11.212 -1.3320 -0.6644  0.4411
  319MOL0     H43003  10.226   8.765  11.333 -1.8022 -0.8756 -3.6316
  319MOL0     H43004  10.179   8.981  11.381 -1.2275 -0.7761 -0.1609
  319MOL0     H43005  10.310   9.056  11.288 -0.6290  1.6194 -0.6116
  319MOL0     H43006  10.198   8.935  11.077  1.4549  2.2970  0.2616
  319MOL0     H43007  10.056   8.911  11.161  1.1654 -1.6572 -1.5077
  319MOL0     H43008  10.086   9.182  11.208  1.2796 -0.1952  0.1688
  319MOL0     H43009  10.211   9.157  11.085 -0.7137 -3.0904 -3.9419
  319MOL0     H43010  10.008   9.259  11.001 -2.7339  0.6641  1.6032
  319MOL0     H43011  10.064   9.122  10.913 -1.4702  1.3173 -0.3245
  319MOL0     H43012   9.832   9.105  10.919  1.7162  0.5617 -1.2791
  319MOL0     H43013   9.911   8.977  11.008 -0.0588 -0.2233  2.1746
  319MOL0     H43014   9.773   9.220  11.128  1.6850 -0.1929  0.4833
  319MOL0     H43015   9.865   9.102  11.231  4.2697 -0.5652 -3.1211
  319MOL0     H43016   9.563   9.080  10.979 -1.0155 -0.0561 -0.1293
  319MOL0     H43017   9.352   8.800  11.079  0.8410 -0.6296  0.1258
  319MOL0     H43018   9.354   8.934  10.968  1.0482  1.2620  2.4769
  319MOL0     H43019   9.461   8.659  10.924  0.1995 -0.8772 -0.9170
  319MOL0     H43020   9.533   8.789  10.835 -0.2378 -1.0073  1.0184
  319MOL0     H43021   9.354   8.694  10.716  1.3286 -0.7529  0.7435
  319MOL0     H43022   9.309   8.860  10.760  1.8399  1.2707  2.1644
  319MOL0     H43023   9.134   8.769  10.914 -2.6127 -3.1712  0.1575
  319MOL0     H43024   9.216   8.625  10.943 -2.7179  1.8672  1.8229
  319MOL0     H43025   9.010   8.579  10.544 -1.9815 -1.4525 -0.1017
  319MOL0     H43026   9.013   8.471  10.329  0.3500  0.8905  1.6235
  319MOL0     H43027   9.061   8.304  10.308 -2.1680 -1.8875  1.5575
  319MOL0     H43028   8.924   8.327  10.412  1.4888 -2.2898  1.1282
  319MOL0     H43029   9.337   7.906  10.660  1.6696 -0.7112  0.8804
  319MOL0     H43030   9.418   7.692  10.605  3.9065  3.3036  1.6231
  319MOL0     H43031   9.579   7.533  10.532  0.0636 -2.9003  1.4063
  319MOL0     H43032   9.430   7.451  10.503 -0.6077  2.0559 -0.0012
  319MOL0     H43033   9.542   7.404  10.268 -0.6268  0.4256 -1.1162
  319MOL0     H43034   9.690   7.484  10.328  0.5451 -0.2740 -0.2921
  319MOL0     H43035   9.566   7.252  10.475 -1.1191 -0.3245 -0.9955
  319MOL0     H43036   9.724   7.329  10.503  2.4584  1.5796 -3.8203
  319MOL0     H43037   9.727   7.104  10.380 -2.9831 -0.1320 -1.0610
  319MOL0     H43038   9.633   7.186  10.258  0.9107 -1.4271 -0.5516
  319MOL0     H43039   9.820   7.330  10.197  1.2586  2.5571  2.6864
  319MOL0     H43040   9.867   7.161  10.182 -2.8957 -2.3159  0.7089
  319MOL0     H43041   9.948   7.357  10.418 -0.9552 -0.5055 -0.0284
  319MOL0     H43042   9.958   7.191  10.419 -1.7159 -1.4572 -1.7950
  319MOL0     H43043  10.048   7.354  10.181  2.0015  2.1815  0.1286
  319MOL0     H43044  10.100   7.191  10.220 -1.7488 -0.6039  1.9044
  319MOL0     H43045  10.287   7.306  10.266 -0.8781 -2.4758  1.5497
  319MOL0     H43046  10.224   7.322  10.432 -1.0513 -0.4788  0.5190
  319MOL0     H43047   9.413   7.797  10.185  1.9435  1.9543 -1.1787
  319MOL0     H43048   9.340   8.020  10.253  2.0937 -1.0939 -1.5729
  319MOL0     H43049   9.295   8.228  10.740 -1.0797  0.1856  0.7835
  319MOL0     H43050   9.263   8.445  10.859  0.3221  0.3108 -0.2574
  319MOL0     H43051  10.537   9.090  11.214 -0.7939  1.1715 -2.6467
  319MOL0     H43052  10.650   9.071  10.979 -2.4325 -3.7220 -3.5063
  319MOL0     H43053  10.811   8.891  10.679 -1.4578  2.4399  3.3278
  319MOL0     H43054  10.927   8.906  10.473  0.4880 -1.9139 -0.0934
  319MOL0     H43055  11.107   8.865  10.306 -0.6310  0.1102  0.1361
  319MOL0     H43056  11.046   9.014  10.298  0.4305 -0.4644 -4.1362
  319MOL0     H43057  11.175   8.932  10.099  0.4889 -1.1643 -0.5571
  319MOL0     H43058  11.329   8.927  10.186  1.2213  2.7077 -2.3977
  319MOL0     H43059  11.303   9.186  10.206  0.9174 -0.9153 -0.8076
  319MOL0     H43060  11.149   9.172  10.122 -0.6930 -2.3044 -2.1085
  319MOL0     H43061  11.258   9.105   9.922  0.4448  0.7769  0.0787
  319MOL0     H43062  11.415   9.084  10.002  1.0854  1.0780 -1.8464
  319MOL0     H43063  11.442   9.491   9.920  0.2770 -0.3407  0.0021
  319MOL0     H43064  11.287   9.037  10.667  0.3028  1.9388  1.1250
  319MOL0     H43065  11.172   9.006  10.890  1.5285 -1.2124 -1.0504
  320MOL0     O43066   0.424   6.377   8.735 -0.2782 -0.2017 -1.1295
  320MOL0     C43067   0.535   6.396   8.711 -0.3007  0.4506  0.1720
  320MOL0     O43068   0.634   6.302   8.699  0.0102  0.1207  0.1193
  320MOL0     C43069   0.618   6.171   8.720  0.1750  1.0201 -0.0778
  320MOL0     C43070   0.741   6.093   8.718  0.5290  0.1101  0.0636
  320MOL0     C43071   0.737   5.959   8.748  0.3341  0.5829 -0.6723
  320MOL0     C43072   0.609   5.894   8.766 -1.6261  0.0142 -0.9790
  320MOL0     O43073   0.595   5.757   8.776 -0.8937  0.8047  0.3431
  320MOL0     C43074   0.690   5.679   8.846 -1.8648  0.2389 -1.0277
  320MOL0     C43075   0.757   5.585   8.747 -0.4129  0.0000 -0.3149
  320MOL0     C43076   0.649   5.494   8.689  0.1213  0.2870 -0.2363
  320MOL0     C43077   0.713   5.373   8.622  0.3829  1.0826 -0.6965
  320MOL0     C43078   0.593   5.291   8.551  0.1855 -1.2147  0.2688
  320MOL0     C43079   0.629   5.178   8.452 -0.3638  1.3819 -0.4152
  320MOL0     C43080   0.504   5.124   8.373 -1.9243 -0.3103 -0.3742
  320MOL0     C43081   0.427   5.225   8.285  0.1921  0.0681 -0.2952
  320MOL0     N43082   0.316   5.152   8.211  0.0410  0.3455 -0.3541
  320MOL0     C43083   0.287   5.144   8.076  0.3008 -0.3192  0.7812
  320MOL0     C43084   0.176   5.065   8.064  0.7788  0.8601  0.3590
  320MOL0     C43085   0.106   5.013   7.939  0.9299 -0.3418 -1.0852
  320MOL0     C43086  -0.008   5.097   7.870  0.8371 -0.4812 -0.9195
  320MOL0     C43087  -0.053   5.030   7.736  0.3342  0.8499 -0.1704
  320MOL0     C43088  -0.149   5.112   7.648  0.5601 -0.2820 -0.2372
  320MOL0     O43089  -0.246   5.174   7.736  0.1235  0.3436  0.5261
  320MOL0     C43090  -0.386   5.168   7.708  0.9667  0.3485  0.5201
  320MOL0     C43091  -0.440   5.127   7.590 -0.1752  0.2755 -0.1800
  320MOL0     C43092  -0.576   5.105   7.570  0.8731  0.5741  1.0193
  320MOL0     C43093  -0.621   5.069   7.432  0.1767 -0.7817  0.0992
  320MOL0     C43094  -0.666   5.122   7.679 -0.5452  0.2314 -0.6349
  320MOL0     C43095  -0.811   5.098   7.678  1.0120  0.3420 -0.7987
  320MOL0     O43096  -0.873   5.033   7.569  0.0805 -0.4291  0.3767
  320MOL0     C43097  -1.000   5.048   7.519  0.9266 -0.1621 -0.1490
  320MOL0     C43098  -1.113   5.115   7.575 -0.4603 -0.1848  0.5604
  320MOL0     C43099  -1.237   5.127   7.516 -0.4086  0.5174  0.4952
  320MOL0     C43100  -1.264   5.055   7.401 -0.0300  0.8448 -0.3926
  320MOL0     O43101  -1.387   5.033   7.340  0.7816  0.0234  0.8605
  320MOL0     C43102  -1.505   5.025   7.423  0.3003 -0.3972  0.4776
  320MOL0     C43103  -1.494   4.923   7.541 -1.1046 -0.3032  0.1200
  320MOL0     C43104  -1.464   4.784   7.484 -0.8369  0.2999 -0.5472
  320MOL0     C43105  -1.470   4.671   7.582 -0.7923  0.3021 -0.0134
  320MOL0     C43106  -1.519   4.539   7.523  0.0204 -0.1218 -0.1497
  320MOL0     C43107  -1.452   4.429   7.607 -0.1534 -0.1571  0.5517
  320MOL0     C43108  -1.490   4.291   7.551 -0.3660 -1.0475 -0.6772
  320MOL0     C43109  -1.448   4.188   7.657 -0.2171 -0.3521  1.1432
  320MOL0    Cl43110  -1.559   4.213   7.813  0.7417 -0.3121 -0.1048
  320MOL0     C43111  -1.157   4.993   7.334 -0.0099  0.1871  0.2220
  320MOL0     C43112  -1.029   4.992   7.394  0.3325 -0.7879 -0.1906
  320MOL0     O43113  -0.869   5.156   7.773 -0.1900 -0.6042  0.0195
  320MOL0     C43114  -0.612   5.181   7.792 -0.4205 -0.1136 -0.3493
  320MOL0     C43115  -0.478   5.200   7.808  0.1163  0.0347 -0.2104
  320MOL0     N43116   0.140   5.020   8.189 -0.5851 -0.5372  0.2301
  320MOL0     N43117   0.217   5.072   8.274  0.2776  0.1570  0.2082
  320MOL0     C43118   0.491   5.968   8.757 -0.2580  0.6123  0.2781
  320MOL0     C43119   0.495   6.098   8.736 -0.0796  0.1246 -0.1235
  320MOL0     C43120   0.564   6.539   8.711 -0.0764  0.0792  0.4363
  320MOL0     C43121   0.699   6.581   8.720  0.4638  1.0913 -0.4018
  320MOL0     C43122   0.738   6.710   8.707  0.2640  0.4324 -0.1832
  320MOL0     C43123   0.643   6.811   8.692  0.4077  0.7123  0.0290
  320MOL0     O43124   0.684   6.937   8.676 -0.6429  0.6181  0.2831
  320MOL0     C43125   0.691   6.974   8.535  0.3164  0.2849  1.4791
  320MOL0     C43126   0.729   7.114   8.524 -0.1190 -0.7887  0.5252
  320MOL0     C43127   0.624   7.197   8.596  0.0983 -0.4734 -0.0327
  320MOL0     C43128   0.478   7.218   8.534 -0.5548 -0.2282 -0.4838
  320MOL0     C43129   0.474   7.289   8.403 -0.2121 -0.3248 -0.9548
  320MOL0     C43130   0.481   7.357   8.307 -0.3029 -0.2302  0.0234
  320MOL0     C43131   0.505   6.777   8.684  0.3216 -1.3342 -0.5828
  320MOL0     C43132   0.464   6.645   8.693 -0.6235 -0.0701  0.8687
  320MOL0     H43133   0.838   6.137   8.696 -0.7207  2.1829 -1.6655
  320MOL0     H43134   0.832   5.906   8.743  0.7730  0.9802  1.9736
  320MOL0     H43135   0.775   5.734   8.886 -2.6630  0.6149  0.2129
  320MOL0     H43136   0.649   5.630   8.935 -1.2580 -0.4591 -1.1177
  320MOL0     H43137   0.783   5.657   8.669 -4.6788  3.7216  1.2289
  320MOL0     H43138   0.842   5.533   8.791 -0.9329  0.6581  1.5859
  320MOL0     H43139   0.587   5.456   8.770 -0.6125  0.9475 -0.4762
  320MOL0     H43140   0.590   5.554   8.619 -4.4270  0.2895  3.1704
  320MOL0     H43141   0.793   5.394   8.550 -1.1895  3.4730 -1.8829
  320MOL0     H43142   0.753   5.331   8.714  0.6808  2.2161 -0.2889
  320MOL0     H43143   0.519   5.269   8.630  0.9440 -1.2161  0.9894
  320MOL0     H43144   0.540   5.356   8.481 -1.5470 -4.2356 -1.4984
  320MOL0     H43145   0.696   5.199   8.369  0.1033 -0.7164 -0.6208
  320MOL0     H43146   0.674   5.093   8.504 -3.1197 -0.1644 -0.3368
  320MOL0     H43147   0.535   5.034   8.320  0.7958  1.1529 -1.5131
  320MOL0     H43148   0.436   5.103   8.456  1.5592  1.8204  3.3957
  320MOL0     H43149   0.499   5.259   8.210  0.4417 -1.5140 -0.8061
  320MOL0     H43150   0.379   5.311   8.333  1.0654 -0.3874  1.4665
  320MOL0     H43151   0.344   5.185   7.993  0.5486  1.8508  1.9454
  320MOL0     H43152   0.182   5.011   7.860 -0.9380  2.2461 -3.1264
  320MOL0     H43153   0.074   4.915   7.977 -2.2361  1.3436  1.1306
  320MOL0     H43154   0.025   5.199   7.849  0.1522  0.5917  2.5949
  320MOL0     H43155  -0.097   5.097   7.934  1.3978  1.1050 -0.0901
  320MOL0     H43156  -0.100   4.937   7.771 -0.9960  0.3076 -3.1284
  320MOL0     H43157   0.035   5.001   7.678  1.1789  2.1333  0.4222
  320MOL0     H43158  -0.198   5.052   7.570 -1.4782  0.8135  0.1249
  320MOL0     H43159  -0.092   5.188   7.595  2.8458  1.1294  3.8309
  320MOL0     H43160  -0.373   5.104   7.507  0.5312 -3.1220  1.1731
  320MOL0     H43161  -0.728   5.082   7.412 -0.5534 -3.1358  2.0054
  320MOL0     H43162  -0.566   5.120   7.352  0.7840 -1.8278 -0.1660
  320MOL0     H43163  -0.619   4.960   7.419 -1.9249 -1.0917  1.7654
  320MOL0     H43164  -1.106   5.169   7.670 -1.5199  3.7944 -1.3935
  320MOL0     H43165  -1.312   5.186   7.569 -0.3834 -0.3463  1.5234
  320MOL0     H43166  -1.524   5.130   7.446  0.9303  0.1467 -1.2872
  320MOL0     H43167  -1.595   4.993   7.370  0.6182 -5.2057  2.3008
  320MOL0     H43168  -1.412   4.934   7.612 -1.0019 -1.3137  0.1806
  320MOL0     H43169  -1.584   4.934   7.602 -1.6317  1.2691 -0.8830
  320MOL0     H43170  -1.362   4.791   7.444 -0.9752  2.5288 -0.6813
  320MOL0     H43171  -1.531   4.780   7.397 -0.2155 -0.5910 -1.0018
  320MOL0     H43172  -1.374   4.663   7.634 -0.0172  2.6793 -0.9700
  320MOL0     H43173  -1.552   4.696   7.650 -1.6563  0.5324 -1.1149
  320MOL0     H43174  -1.486   4.522   7.421 -1.8648 -0.6386 -0.7187
  320MOL0     H43175  -1.628   4.523   7.520  0.2352 -1.4890 -1.6148
  320MOL0     H43176  -1.344   4.442   7.596 -0.4656  1.1478 -1.6647
  320MOL0     H43177  -1.488   4.443   7.709 -1.1570 -4.6844  1.0474
  320MOL0     H43178  -1.434   4.266   7.460  2.3419  0.5657  0.4303
  320MOL0     H43179  -1.598   4.288   7.535 -0.3479  2.2007 -2.2263
  320MOL0     H43180  -1.343   4.208   7.682  0.7506 -1.7236 -1.5229
  320MOL0     H43181  -1.446   4.086   7.618  3.7822 -0.1462  0.4487
  320MOL0     H43182  -1.187   4.949   7.240 -0.3609  0.6156  0.1245
  320MOL0     H43183  -0.953   4.941   7.335  1.4313  1.0871 -0.4944
  320MOL0     H43184  -0.671   5.220   7.874  2.8709  0.6800  1.8333
  320MOL0     H43185  -0.445   5.253   7.897 -0.3090 -1.2625  0.7658
  320MOL0     H43186   0.404   5.908   8.782  3.0024 -3.3855  3.6010
  320MOL0     H43187   0.397   6.144   8.730  0.0741  0.8068  1.8914
  320MOL0     H43188   0.777   6.507   8.725 -0.9897 -0.4401  0.7006
  320MOL0     H43189   0.843   6.738   8.710  0.9527 -1.9494  0.7498
  320MOL0     H43190   0.763   6.908   8.487 -0.7739 -0.9151  1.4198
  320MOL0     H43191   0.598   6.950   8.482 -0.2728 -1.2244  3.1049
  320MOL0     H43192   0.737   7.149   8.420  0.1361  0.1901  0.8618
  320MOL0     H43193   0.828   7.134   8.566 -0.0920 -0.1700  0.1773
  320MOL0     H43194   0.669   7.297   8.600 -0.1605 -0.3214 -0.7692
  320MOL0     H43195   0.614   7.160   8.698 -0.4897  3.8184  1.6738
  320MOL0     H43196   0.403   7.260   8.603 -2.0147 -2.8048 -0.3552
  320MOL0     H43197   0.433   7.122   8.504  2.4392 -1.2106 -2.2525
  320MOL0     H43198   0.486   7.422   8.222  0.9721 -0.1143  0.1628
  320MOL0     H43199   0.427   6.851   8.674 -2.7837 -4.6797 -5.3045
  320MOL0     H43200   0.358   6.621   8.692 -0.4683 -0.7525  0.7642
  321MOL0     O43201   2.036   0.921  10.214 -0.7626 -0.6009 -0.1585
  321MOL0     C43202   2.019   0.874  10.324 -0.2522  0.6585 -0.5868
  321MOL0     O43203   2.088   0.906  10.434  0.6379  0.5226 -0.0409
  321MOL0     C43204   2.207   0.977  10.435  0.6723  0.5754  0.1129
  321MOL0     C43205   2.264   1.047  10.547  0.3574  0.2876 -0.1184
  321MOL0     C43206   2.388   1.113  10.546  0.0903  1.0193  0.4973
  321MOL0     C43207   2.476   1.103  10.438  0.7554 -0.0686 -0.3242
  321MOL0     O43208   2.580   1.187  10.426  0.1630  0.4933 -0.5951
  321MOL0     C43209   2.688   1.146  10.514 -0.4154 -0.2349 -0.0570
  321MOL0     C43210   2.824   1.136  10.451  0.3908 -0.0466 -0.2065
  321MOL0     C43211   2.827   1.006  10.379 -0.1149 -0.3031 -0.2816
  321MOL0     C43212   2.943   0.997  10.275 -0.1272  0.1348 -0.3451
  321MOL0     C43213   2.892   1.001  10.131  0.1730  0.3603  1.1553
  321MOL0     C43214   3.002   1.010  10.019 -0.1162 -0.1900 -1.1876
  321MOL0     C43215   2.965   1.032   9.872 -0.3146  0.4233 -0.4401
  321MOL0     C43216   2.880   0.913   9.810  0.0752  0.2152 -0.2185
  321MOL0     N43217   2.856   0.922   9.666 -0.0407  1.2562 -0.0901
  321MOL0     C43218   2.765   0.835   9.607 -0.9855  0.5678 -1.0057
  321MOL0     C43219   2.710   0.895   9.504  0.2772  0.2888  0.2573
  321MOL0     C43220   2.603   0.823   9.422 -0.4995  0.1666 -0.2838
  321MOL0     C43221   2.470   0.877   9.473 -1.3454  0.1942 -0.9471
  321MOL0     C43222   2.349   0.830   9.397  0.2795  0.6866 -0.4332
  321MOL0     C43223   2.288   0.705   9.464  0.5969 -1.6311  0.7070
  321MOL0     O43224   2.385   0.602   9.469  0.2469 -0.4943 -0.3469
  321MOL0     C43225   2.394   0.521   9.581 -0.2451  0.4200 -0.2047
  321MOL0     C43226   2.290   0.491   9.663 -0.4618  0.3666  0.9298
  321MOL0     C43227   2.307   0.381   9.763  0.3063 -0.5894  0.7662
  321MOL0     C43228   2.186   0.350   9.847 -0.6546 -0.2491  0.4850
  321MOL0     C43229   2.430   0.313   9.775 -0.1412 -0.1173 -0.3003
  321MOL0     C43230   2.468   0.195   9.860  0.4762 -0.5478 -0.3586
  321MOL0     O43231   2.591   0.182   9.918  0.0321  0.8524 -0.0123
  321MOL0     C43232   2.630   0.059   9.966  0.9432  0.2651  0.0970
  321MOL0     C43233   2.609  -0.061   9.888 -0.3584 -0.2045 -0.6635
  321MOL0     C43234   2.650  -0.186   9.943 -0.1854  0.6118  0.3590
  321MOL0     C43235   2.712  -0.198  10.070  0.1879 -0.4625 -1.1253
  321MOL0     O43236   2.751  -0.309  10.137 -0.2821  0.1129  0.3616
  321MOL0     C43237   2.680  -0.427  10.107 -0.3441  0.5593 -0.2456
  321MOL0     C43238   2.704  -0.542  10.215  0.2637 -0.0289  0.5443
  321MOL0     C43239   2.847  -0.576  10.247  0.0307  0.1722 -0.7305
  321MOL0     C43240   2.874  -0.688  10.348  0.7773  1.0856  0.5433
  321MOL0     C43241   3.023  -0.701  10.392  1.2669  0.1651 -0.5143
  321MOL0     C43242   3.063  -0.838  10.431 -0.1895  0.7423 -0.2672
  321MOL0     C43243   3.201  -0.848  10.502  0.7831 -0.1981  0.4124
  321MOL0     C43244   3.317  -0.797  10.420  1.0352 -0.3501  0.5623
  321MOL0    Cl43245   3.418  -0.921  10.362 -0.5209 -0.1943 -0.5409
  321MOL0     C43246   2.737  -0.079  10.145 -0.5198 -0.7581 -0.7099
  321MOL0     C43247   2.696   0.048  10.083 -0.6651 -0.6059 -0.4018
  321MOL0     O43248   2.376   0.109   9.859 -0.2874  0.6277 -0.2826
  321MOL0     C43249   2.538   0.358   9.694  0.3358  0.4018 -0.2528
  321MOL0     C43250   2.519   0.457   9.602  0.5293 -0.3689 -0.0591
  321MOL0     N43251   2.759   1.020   9.487 -0.5480 -0.1855  0.1055
  321MOL0     N43252   2.838   1.040   9.592  0.6548  0.1538  0.5002
  321MOL0     C43253   2.432   1.022  10.334  0.3512  0.2819  1.2496
  321MOL0     C43254   2.307   0.953  10.334 -0.3816 -0.6427  0.1044
  321MOL0     C43255   1.910   0.773  10.334  1.0617  0.0390 -0.3118
  321MOL0     C43256   1.851   0.740  10.451 -0.3077  0.2350 -0.1509
  321MOL0     C43257   1.758   0.633  10.460  0.1106  0.1835  0.3219
  321MOL0     C43258   1.721   0.556  10.348  0.3060  0.8497 -0.4578
  321MOL0     O43259   1.640   0.446  10.361  0.0421 -0.1591 -0.2277
  321MOL0     C43260   1.576   0.399  10.247 -0.1195 -0.0420 -0.4368
  321MOL0     C43261   1.445   0.336  10.289  0.2025 -0.0712 -0.4439
  321MOL0     C43262   1.470   0.200  10.354 -0.2612  0.3095  0.7191
  321MOL0     C43263   1.475   0.094  10.241 -0.7025 -0.0631 -0.2828
  321MOL0     C43264   1.414  -0.027  10.294 -0.5817  0.6309  0.0606
  321MOL0     C43265   1.363  -0.137  10.330  0.1234 -0.0354 -0.5385
  321MOL0     C43266   1.774   0.600  10.224 -0.0170 -0.2112  0.7385
  321MOL0     C43267   1.867   0.705  10.221  0.0091  0.2692 -0.7251
  321MOL0     H43268   2.199   1.065  10.632 -0.6845  3.2927 -1.4086
  321MOL0     H43269   2.404   1.177  10.633  0.6048  2.9086 -0.9036
  321MOL0     H43270   2.685   1.209  10.603 -1.4810  0.8917 -0.8415
  321MOL0     H43271   2.658   1.050  10.557 -0.2948  0.7333  2.3225
  321MOL0     H43272   2.844   1.210  10.373 -2.3537 -0.4904 -1.4572
  321MOL0     H43273   2.902   1.149  10.527  1.1950  2.3171 -1.3319
  321MOL0     H43274   2.858   0.929  10.450 -0.7315 -0.7340 -0.4673
  321MOL0     H43275   2.725   0.980  10.347 -0.3790  3.1342 -2.7261
  321MOL0     H43276   3.011   1.081  10.296  0.9791 -0.6229 -0.7711
  321MOL0     H43277   3.000   0.906  10.295 -1.4739 -0.9229 -1.1528
  321MOL0     H43278   2.833   0.911  10.110  2.6461 -1.4773  1.6031
  321MOL0     H43279   2.825   1.087  10.119  1.8306  1.4448 -1.0951
  321MOL0     H43280   3.074   1.086  10.049  1.1507 -2.3092  1.6547
  321MOL0     H43281   3.053   0.913  10.021 -1.9141 -1.3227 -4.1867
  321MOL0     H43282   2.912   1.126   9.852 -1.2462 -0.1289 -0.6152
  321MOL0     H43283   3.064   1.050   9.829  0.1050 -1.4285 -0.3310
  321MOL0     H43284   2.786   0.905   9.864 -0.2491 -0.6225 -0.8841
  321MOL0     H43285   2.926   0.817   9.837 -2.2089 -0.8565  0.0777
  321MOL0     H43286   2.738   0.730   9.618  2.3361 -0.2199  1.0998
  321MOL0     H43287   2.625   0.836   9.315  3.0097 -0.6567  0.1985
  321MOL0     H43288   2.605   0.716   9.441 -5.0990  0.0890  0.8445
  321MOL0     H43289   2.482   0.986   9.475  2.7554 -0.1105  0.3257
  321MOL0     H43290   2.454   0.841   9.575 -3.6723 -0.2859 -1.4256
  321MOL0     H43291   2.370   0.813   9.291  0.3864 -0.8378 -0.1779
  321MOL0     H43292   2.288   0.921   9.399  0.3236  0.7375 -1.0630
  321MOL0     H43293   2.193   0.675   9.421  1.4947 -2.3079 -0.8899
  321MOL0     H43294   2.267   0.736   9.567 -3.2810 -0.6717 -0.2279
  321MOL0     H43295   2.190   0.531   9.657 -0.8746 -0.6053  1.0762
  321MOL0     H43296   2.214   0.275   9.921  0.1414  1.3482  1.8604
  321MOL0     H43297   2.157   0.440   9.902  0.4665  0.1307  0.4685
  321MOL0     H43298   2.122   0.308   9.768  3.9050 -1.7274 -2.8534
  321MOL0     H43299   2.575  -0.058   9.785  0.4381  2.2290 -0.9214
  321MOL0     H43300   2.643  -0.279   9.887 -1.4533  2.0917 -2.1546
  321MOL0     H43301   2.573  -0.403  10.107  0.0661  2.5842 -0.1284
  321MOL0     H43302   2.699  -0.470  10.008 -1.1344 -2.0521  0.6493
  321MOL0     H43303   2.655  -0.510  10.308  1.4416 -1.3713  1.6858
  321MOL0     H43304   2.646  -0.628  10.183  0.5919  0.1697 -0.6378
  321MOL0     H43305   2.876  -0.482  10.294 -1.3078  1.5489 -2.4891
  321MOL0     H43306   2.895  -0.604  10.152 -1.4006 -2.2112 -0.8320
  321MOL0     H43307   2.812  -0.677  10.437  1.2399 -1.8007  1.3423
  321MOL0     H43308   2.840  -0.781  10.302  1.8685  1.1805 -0.5005
  321MOL0     H43309   3.026  -0.631  10.476 -1.8729 -0.2477  0.0737
  321MOL0     H43310   3.087  -0.665  10.312 -2.3870  2.0696 -2.8884
  321MOL0     H43311   2.983  -0.889  10.484 -0.0286 -0.7538 -1.4196
  321MOL0     H43312   3.090  -0.906  10.350  2.0977 -1.3651  2.0622
  321MOL0     H43313   3.218  -0.950  10.538 -0.2740 -0.4857  0.1227
  321MOL0     H43314   3.190  -0.784  10.590 -1.7236 -0.2040  0.1543
  321MOL0     H43315   3.381  -0.742  10.490  3.0315 -2.2689  0.3754
  321MOL0     H43316   3.288  -0.727  10.341 -0.0674  0.4693  1.6593
  321MOL0     H43317   2.786  -0.083  10.242  1.2345 -1.5281 -1.5804
  321MOL0     H43318   2.727   0.139  10.134  0.6275 -1.3279  0.1757
  321MOL0     H43319   2.636   0.310   9.688  0.3975  0.4110  0.5699
  321MOL0     H43320   2.603   0.481   9.537  1.5745  1.5838  1.8553
  321MOL0     H43321   2.502   1.017  10.252 -1.1634 -2.8979 -0.0319
  321MOL0     H43322   2.274   0.903  10.243  2.3311  1.2523 -2.0723
  321MOL0     H43323   1.879   0.785  10.546  1.1875  2.0631 -1.3886
  321MOL0     H43324   1.696   0.618  10.547 -0.6064 -0.2227 -0.2477
  321MOL0     H43325   1.568   0.470  10.165  1.8944 -0.4521 -1.0533
  321MOL0     H43326   1.637   0.317  10.208  2.1227  0.0982  2.4345
  321MOL0     H43327   1.375   0.318  10.206 -2.7847 -0.1548  1.9325
  321MOL0     H43328   1.389   0.400  10.358  2.2801  0.6069  0.6973
  321MOL0     H43329   1.387   0.178  10.422 -1.8618  2.5540 -0.3617
  321MOL0     H43330   1.560   0.190  10.415 -0.8953 -1.4886  1.4339
  321MOL0     H43331   1.579   0.072  10.219 -1.1175 -2.1519 -0.3092
  321MOL0     H43332   1.422   0.124  10.150  1.2626  0.1825 -1.4112
  321MOL0     H43333   1.318  -0.230  10.359  0.7985 -0.5780 -1.1975
  321MOL0     H43334   1.742   0.554  10.131 -1.1729  1.8506  0.0429
  321MOL0     H43335   1.893   0.741  10.122  0.9902 -0.3707 -0.7141
  322MOL0     O43336  10.303   7.567   9.247 -0.0333 -0.0861  0.4650
  322MOL0     C43337  10.372   7.658   9.209  0.7099  0.7288 -0.7264
  322MOL0     O43338  10.468   7.705   9.303 -0.0477  0.2498 -0.2505
  322MOL0     C43339  10.487   7.652   9.429 -0.8540  0.3397  0.8434
  322MOL0     C43340  10.559   7.532   9.461 -0.8753 -0.4647 -0.8308
  322MOL0     C43341  10.552   7.482   9.598  0.8784 -0.1490  0.6997
  322MOL0     C43342  10.477   7.545   9.695 -0.5194 -0.0596  0.2880
  322MOL0     O43343  10.467   7.485   9.819 -0.1792  0.1177  0.7234
  322MOL0     C43344  10.368   7.524   9.915  0.0477  0.5668 -0.0865
  322MOL0     C43345  10.405   7.648  10.003 -1.1879 -1.1524 -0.7604
  322MOL0     C43346  10.491   7.625  10.125  0.2665  0.3574 -0.6992
  322MOL0     C43347  10.512   7.763  10.187  0.3726  0.2657  0.3322
  322MOL0     C43348  10.569   7.752  10.330 -0.4726 -0.9680  0.2349
  322MOL0     C43349  10.696   7.666  10.341  1.0693  0.4184 -0.1252
  322MOL0     C43350  10.754   7.679  10.476 -0.4551  0.6007  0.6207
  322MOL0     C43351  10.664   7.607  10.589 -0.2665  0.4254  0.1112
  322MOL0     N43352  10.749   7.559  10.697 -0.0127  0.2550 -0.1847
  322MOL0     C43353  10.813   7.438  10.705  0.2331  0.8202  0.1668
  322MOL0     C43354  10.885   7.446  10.820  0.4159  0.2267  0.1088
  322MOL0     C43355  10.978   7.345  10.871  0.5196  0.2600  0.3613
  322MOL0     C43356  10.905   7.221  10.900 -0.1127  0.5431 -0.4651
  322MOL0     C43357  10.994   7.108  10.944  0.5788  0.1380  0.2001
  322MOL0     C43358  10.909   7.015  11.035  0.0319 -0.5211 -0.0213
  322MOL0     O43359  11.009   6.948  11.118  0.0305  0.6948 -0.5439
  322MOL0     C43360  10.967   6.853  11.205  0.6775  0.2505  0.1464
  322MOL0     C43361  11.061   6.812  11.292 -0.6073 -0.4223 -0.0874
  322MOL0     C43362  11.049   6.722  11.389 -0.0378 -0.8519 -0.0182
  322MOL0     C43363  11.167   6.676  11.459 -0.3148 -0.1560  0.6943
  322MOL0     C43364  10.915   6.680  11.411 -0.1526  0.9159  0.1503
  322MOL0     C43365  10.875   6.572  11.511 -0.7199 -0.0870  0.1422
  322MOL0     O43366  10.776   6.600  11.592  0.3106 -0.6351 -0.1466
  322MOL0     C43367  10.765   6.525  11.707  0.4064  0.1537 -0.0653
  322MOL0     C43368  10.875   6.514  11.801  0.2960 -0.2391 -0.6295
  322MOL0     C43369  10.857   6.437  11.915 -0.6061 -0.2283 -0.9844
  322MOL0     C43370  10.733   6.381  11.937 -0.4210  0.8366  0.5557
  322MOL0     O43371  10.704   6.304  12.050 -0.5982  0.2958  0.0949
  322MOL0     C43372  10.800   6.200  12.077  1.2196  1.0843  0.1020
  322MOL0     C43373  10.761   6.095  12.194  0.3247 -0.8787 -0.1398
  322MOL0     C43374  10.793   5.949  12.140  0.5946 -0.3860 -0.2145
  322MOL0     C43375  10.808   5.855  12.258 -0.0296 -0.0230 -0.1682
  322MOL0     C43376  10.901   5.744  12.229 -0.1766  0.3443 -0.3364
  322MOL0     C43377  10.861   5.616  12.298  0.7727  0.1694  0.3004
  322MOL0     C43378  10.951   5.491  12.262  0.0461 -0.0876  0.3010
  322MOL0     C43379  10.898   5.361  12.302 -0.0476 -0.3415 -0.3816
  322MOL0    Cl43380  11.018   5.233  12.263  0.1898 -0.0051 -0.6526
  322MOL0     C43381  10.624   6.399  11.845 -1.0689  0.7552  0.0321
  322MOL0     C43382  10.636   6.478  11.731 -0.1042  0.0410  0.0989
  322MOL0     O43383  10.940   6.466  11.513 -1.2912  0.0159 -0.0952
  322MOL0     C43384  10.814   6.713  11.316  0.3651  0.0225 -0.5497
  322MOL0     C43385  10.836   6.803  11.219 -0.2245  0.4531 -0.8828
  322MOL0     N43386  10.877   7.558  10.874  0.8819  0.3555  0.1428
  322MOL0     N43387  10.807   7.633  10.796  0.0891 -0.7711 -0.0523
  322MOL0     C43388  10.423   7.665   9.662 -1.3777  0.3553 -0.0747
  322MOL0     C43389  10.423   7.715   9.535  0.2311 -0.1590  0.4557
  322MOL0     C43390  10.370   7.707   9.068 -0.1459 -0.1256  0.2045
  322MOL0     C43391  10.285   7.652   8.978  0.1667  0.1788  0.0784
  322MOL0     C43392  10.318   7.670   8.847 -0.1641 -0.0001  1.0135
  322MOL0     C43393  10.397   7.769   8.794 -1.2084 -0.7196 -0.3176
  322MOL0     O43394  10.374   7.788   8.660 -0.5167 -0.2174  0.2383
  322MOL0     C43395  10.446   7.893   8.594 -0.0193  0.0635  0.2733
  322MOL0     C43396  10.594   7.861   8.572  0.4128 -0.9550  0.7422
  322MOL0     C43397  10.626   7.741   8.484  0.6414 -0.2157 -0.0880
  322MOL0     C43398  10.775   7.750   8.435 -0.5918 -0.5554  0.2054
  322MOL0     C43399  10.829   7.866   8.368  0.0018 -0.0452 -0.3635
  322MOL0     C43400  10.854   7.969   8.317 -0.3496  0.1539 -0.2977
  322MOL0     C43401  10.476   7.845   8.886 -0.1787  0.1461 -0.1527
  322MOL0     C43402  10.466   7.803   9.015  1.5117 -0.7968 -1.7326
  322MOL0     H43403  10.612   7.484   9.380 -1.7961 -0.4764 -1.4385
  322MOL0     H43404  10.607   7.392   9.620 -0.0967 -0.0283  4.3225
  322MOL0     H43405  10.274   7.548   9.865 -0.1167 -0.2912 -0.2078
  322MOL0     H43406  10.344   7.434   9.973 -0.1442  2.1020  2.3783
  322MOL0     H43407  10.460   7.724   9.946  0.3264  0.6302  2.7679
  322MOL0     H43408  10.321   7.698  10.052 -0.1313 -2.2750  2.4493
  322MOL0     H43409  10.458   7.541  10.187  1.8736 -1.4266 -2.1802
  322MOL0     H43410  10.590   7.588  10.097  0.4390  0.4288 -0.2084
  322MOL0     H43411  10.578   7.826  10.126  2.8119 -1.8865  0.5923
  322MOL0     H43412  10.414   7.807  10.205  0.1572 -0.6188  1.3956
  322MOL0     H43413  10.590   7.847  10.380 -2.4657 -0.3390 -0.0748
  322MOL0     H43414  10.494   7.708  10.396  0.8961  1.0098  3.3446
  322MOL0     H43415  10.665   7.563  10.319  1.3411 -0.0375  1.5189
  322MOL0     H43416  10.768   7.693  10.263  0.3570 -2.2696 -1.8695
  322MOL0     H43417  10.853   7.633  10.474  0.5502  2.3944 -3.7132
  322MOL0     H43418  10.791   7.773  10.518 -1.0492  2.5067 -2.7638
  322MOL0     H43419  10.592   7.530  10.560  1.1138 -1.6564  1.8788
  322MOL0     H43420  10.603   7.690  10.624 -0.4858  1.3355 -2.2446
  322MOL0     H43421  10.796   7.361  10.631  3.8284  2.6652 -2.9302
  322MOL0     H43422  11.061   7.338  10.799 -0.1468 -0.3688 -0.3681
  322MOL0     H43423  11.022   7.368  10.968  2.0367 -1.9056  0.2471
  322MOL0     H43424  10.831   7.195  10.824  0.4929 -0.3830 -0.7410
  322MOL0     H43425  10.846   7.237  10.991  0.5401 -2.0401  0.4881
  322MOL0     H43426  11.070   7.146  11.013  0.6731  1.6342 -0.7045
  322MOL0     H43427  11.053   7.052  10.871  0.6991  1.1188 -0.4777
  322MOL0     H43428  10.855   6.945  10.970 -0.7908  0.7841 -0.7798
  322MOL0     H43429  10.843   7.074  11.099  0.4560 -0.1920  0.1205
  322MOL0     H43430  11.160   6.847  11.263 -0.6822  0.4327  0.6372
  322MOL0     H43431  11.249   6.746  11.442 -0.7158  0.0550 -0.5229
  322MOL0     H43432  11.150   6.674  11.567 -1.6359  0.1619  0.5133
  322MOL0     H43433  11.200   6.574  11.435 -0.6851 -0.3489  0.9916
  322MOL0     H43434  10.970   6.553  11.764  0.6554  1.2806  1.7450
  322MOL0     H43435  10.936   6.432  11.990 -0.7175  3.4173 -0.4667
  322MOL0     H43436  10.776   6.140  11.988  0.2026  2.2166 -0.4278
  322MOL0     H43437  10.902   6.238  12.077  1.9005 -0.5523 -1.9658
  322MOL0     H43438  10.825   6.107  12.282 -0.9925 -2.4007  1.0812
  322MOL0     H43439  10.655   6.107  12.219  1.3362  2.6742  3.4778
  322MOL0     H43440  10.877   5.955  12.070  0.6758  3.1017  0.0108
  322MOL0     H43441  10.704   5.912  12.088 -0.4058 -3.0466  3.0464
  322MOL0     H43442  10.852   5.908  12.343 -1.3561  0.2060  0.3982
  322MOL0     H43443  10.712   5.818  12.296 -1.4364  1.3398 -2.2022
  322MOL0     H43444  11.005   5.775  12.236 -0.2685  1.2538 -2.4284
  322MOL0     H43445  10.896   5.726  12.122  3.9994  0.1647 -0.6604
  322MOL0     H43446  10.866   5.632  12.406  1.7859 -2.6681  0.7678
  322MOL0     H43447  10.758   5.594  12.265  0.9503 -0.1677 -0.0407
  322MOL0     H43448  11.056   5.509  12.288  0.1527 -0.2542  0.0003
  322MOL0     H43449  10.975   5.480  12.156  0.8307 -0.3675  0.4979
  322MOL0     H43450  10.809   5.321  12.251  1.5539 -3.1574 -1.1896
  322MOL0     H43451  10.869   5.370  12.407 -2.1747  3.0755 -1.0847
  322MOL0     H43452  10.528   6.353  11.865  0.3341 -2.2886  0.1685
  322MOL0     H43453  10.567   6.486  11.647  1.9131 -1.0317 -1.7591
  322MOL0     H43454  10.717   6.666  11.330  0.9100 -0.7614  0.8562
  322MOL0     H43455  10.751   6.840  11.162 -1.2203 -0.8027 -0.2529
  322MOL0     H43456  10.365   7.723   9.733 -1.8306 -2.3978  1.9268
  322MOL0     H43457  10.364   7.805   9.517  0.9605  0.3168  0.4090
  322MOL0     H43458  10.218   7.574   9.016  0.3686  0.8041  1.8270
  322MOL0     H43459  10.258   7.608   8.781  0.3835 -0.2752  0.7636
  322MOL0     H43460  10.395   7.905   8.498 -1.5543  1.3643  1.2050
  322MOL0     H43461  10.434   7.981   8.657  0.6243 -2.5540  4.4552
  322MOL0     H43462  10.635   7.848   8.673  0.1526  0.8492  1.1185
  322MOL0     H43463  10.638   7.950   8.526 -0.7044 -1.5488 -1.5886
  322MOL0     H43464  10.570   7.736   8.390  4.0887 -0.2557 -2.3105
  322MOL0     H43465  10.602   7.648   8.536 -2.2626  0.3777 -0.1793
  322MOL0     H43466  10.782   7.674   8.357 -1.4130  0.0868 -0.5114
  322MOL0     H43467  10.842   7.706   8.510 -0.5293 -1.9403 -0.6264
  322MOL0     H43468  10.869   8.060   8.262 -2.1889  0.2624 -0.7046
  322MOL0     H43469  10.537   7.932   8.864 -0.4480  1.1782  2.8002
  322MOL0     H43470  10.535   7.847   9.087 -1.9934  1.5945  0.4457
  323MOL0     O43471   4.437  10.554   5.649  0.4982  0.6069  0.0492
  323MOL0     C43472   4.425  10.618   5.751  0.3614  0.7551  0.8464
  323MOL0     O43473   4.435  10.756   5.753 -0.2104 -0.6644 -0.4819
  323MOL0     C43474   4.489  10.830   5.645 -0.3096  0.5006 -0.2413
  323MOL0     C43475   4.623  10.848   5.625 -0.7484 -0.0104  0.2993
  323MOL0     C43476   4.665  10.928   5.520 -0.2976  1.0984  0.7185
  323MOL0     C43477   4.578  10.987   5.429  0.2050  0.5828  0.1376
  323MOL0     O43478   4.620  11.068   5.326  0.4975  0.0290  0.5382
  323MOL0     C43479   4.714  11.015   5.225 -0.2626 -0.1369 -0.4050
  323MOL0     C43480   4.786  11.135   5.162 -0.2715 -0.3420  0.8781
  323MOL0     C43481   4.847  11.084   5.023 -1.0577  0.1318 -0.2733
  323MOL0     C43482   4.959  11.176   4.967  0.9977 -0.4234 -0.0355
  323MOL0     C43483   5.020  11.115   4.840  0.1801  0.0766 -0.3310
  323MOL0     C43484   5.105  10.990   4.836 -0.7169 -0.4903 -0.4404
  323MOL0     C43485   5.203  10.966   4.718  1.2108 -1.1490  0.2071
  323MOL0     C43486   5.239  11.083   4.640 -0.2921 -0.8325  0.7731
  323MOL0     N43487   5.347  11.041   4.555 -0.0499 -0.3360  0.4717
  323MOL0     C43488   5.483  11.073   4.580  0.0185 -0.3152  0.5039
  323MOL0     C43489   5.543  11.034   4.462 -0.8099 -0.6249 -0.9341
  323MOL0     C43490   5.685  11.056   4.442 -1.1293 -0.1276  0.1956
  323MOL0     C43491   5.695  11.183   4.350  0.7403 -0.0408  0.5321
  323MOL0     C43492   5.746  11.316   4.403 -0.4189 -0.4696  0.2988
  323MOL0     C43493   5.725  11.429   4.294 -0.0353 -0.0793  0.4496
  323MOL0     O43494   5.593  11.491   4.295  0.3366 -0.3987  0.2084
  323MOL0     C43495   5.568  11.611   4.225  1.0142 -1.6457 -0.1036
  323MOL0     C43496   5.445  11.623   4.169 -0.6647  0.2034  0.1353
  323MOL0     C43497   5.413  11.738   4.098 -0.0158 -0.2751 -0.2450
  323MOL0     C43498   5.282  11.742   4.015 -0.3188 -0.7217 -0.2714
  323MOL0     C43499   5.504  11.849   4.105  0.0827  0.0723  0.8759
  323MOL0     C43500   5.480  11.988   4.067  0.7344 -1.3354 -0.5901
  323MOL0     O43501   5.355  12.039   4.104 -0.2343 -0.4857 -0.5119
  323MOL0     C43502   5.339  12.176   4.116 -0.5664 -0.2450  0.2396
  323MOL0     C43503   5.363  12.278   4.018  0.1135  0.4509 -0.0567
  323MOL0     C43504   5.355  12.411   4.056  0.3842  1.2710  0.6165
  323MOL0     C43505   5.335  12.457   4.184 -0.3326 -0.2873  0.8678
  323MOL0     O43506   5.364  12.586   4.212 -0.0811 -0.5942  0.7124
  323MOL0     C43507   5.250  12.652   4.281  0.7593 -0.1838 -0.8808
  323MOL0     C43508   5.114  12.614   4.214  0.0018  0.2341 -0.0134
  323MOL0     C43509   4.989  12.706   4.228  0.1141  0.2376 -0.5964
  323MOL0     C43510   5.011  12.850   4.186  0.9672  0.4969  0.2005
  323MOL0     C43511   4.920  12.956   4.245 -0.1350 -0.1285 -0.0934
  323MOL0     C43512   5.017  13.058   4.316 -0.3989 -0.5807  0.2892
  323MOL0     C43513   4.932  13.177   4.375  0.1400  0.5155  0.7575
  323MOL0     C43514   5.028  13.279   4.437  0.9019  0.6306 -0.0003
  323MOL0    Cl43515   4.918  13.406   4.519 -0.0249  0.1876  0.2417
  323MOL0     C43516   5.311  12.356   4.277  0.8428 -0.9591  0.3800
  323MOL0     C43517   5.314  12.220   4.242 -0.1662  0.0524 -1.3177
  323MOL0     O43518   5.561  12.055   4.003 -0.2529 -0.4027  0.2496
  323MOL0     C43519   5.635  11.821   4.147  0.0492 -0.0868 -0.5861
  323MOL0     C43520   5.664  11.705   4.210  0.2805 -0.0700 -0.0308
  323MOL0     N43521   5.451  10.953   4.392  1.1632 -0.2134 -0.1624
  323MOL0     N43522   5.331  10.965   4.446 -0.0853 -0.4644  0.0120
  323MOL0     C43523   4.437  10.967   5.446  0.1420 -0.0838  0.3712
  323MOL0     C43524   4.401  10.887   5.555  0.8573 -0.2544 -0.6758
  323MOL0     C43525   4.387  10.552   5.879 -0.6220 -1.1294  0.5335
  323MOL0     C43526   4.342  10.619   5.987  0.5904 -0.1293  0.4871
  323MOL0     C43527   4.344  10.566   6.112 -0.5837  0.2126  0.0077
  323MOL0     C43528   4.400  10.438   6.137  0.0710 -0.9242 -0.5896
  323MOL0     O43529   4.425  10.386   6.264  0.4564 -0.8144  0.2088
  323MOL0     C43530   4.305  10.332   6.333  0.2469  0.7444  0.4591
  323MOL0     C43531   4.318  10.341   6.486  0.7371 -0.6132 -0.0809
  323MOL0     C43532   4.189  10.315   6.560 -0.4228 -0.4902 -0.6251
  323MOL0     C43533   4.200  10.328   6.717  0.0268  0.4538 -0.3038
  323MOL0     C43534   4.072  10.286   6.769  0.5225 -0.2275  0.2052
  323MOL0     C43535   3.964  10.247   6.802 -0.6306 -0.6731 -0.7739
  323MOL0     C43536   4.422  10.359   6.026 -0.5722  1.1599 -0.7663
  323MOL0     C43537   4.420  10.416   5.897 -0.3080  0.5220 -1.1877
  323MOL0     H43538   4.697  10.812   5.696 -0.4365 -1.4491 -0.7015
  323MOL0     H43539   4.767  10.967   5.520  1.1097 -2.2270  1.4226
  323MOL0     H43540   4.782  10.954   5.284 -0.6105  1.3186  1.6256
  323MOL0     H43541   4.663  10.952   5.152 -0.4725  2.2754 -2.4902
  323MOL0     H43542   4.720  11.220   5.144 -0.6127 -1.0295 -1.5083
  323MOL0     H43543   4.860  11.186   5.225 -1.8768 -0.3235  2.8248
  323MOL0     H43544   4.898  10.989   5.043  1.0127  1.3717  0.7096
  323MOL0     H43545   4.766  11.066   4.952  0.4826  1.9575 -2.6600
  323MOL0     H43546   4.918  11.277   4.955 -3.8493 -2.0788  0.2393
  323MOL0     H43547   5.034  11.192   5.044  0.2099 -1.3574  0.9711
  323MOL0     H43548   4.944  11.087   4.768  1.5484 -0.3978 -1.6411
  323MOL0     H43549   5.083  11.190   4.790  0.2820 -0.1379 -0.5263
  323MOL0     H43550   5.168  10.978   4.924 -0.6980  0.5978 -0.2880
  323MOL0     H43551   5.039  10.905   4.854  0.7189 -1.5217  0.0223
  323MOL0     H43552   5.296  10.927   4.760  3.2706  4.1036  1.3081
  323MOL0     H43553   5.169  10.886   4.652 -3.5421  1.6203 -1.2342
  323MOL0     H43554   5.281  11.166   4.697  1.1290 -1.0172  0.0300
  323MOL0     H43555   5.152  11.106   4.577 -1.1790 -0.2762  2.1513
  323MOL0     H43556   5.517  11.143   4.656 -0.4058  2.8103 -2.0016
  323MOL0     H43557   5.740  11.074   4.535 -2.0286  3.3484  0.2289
  323MOL0     H43558   5.726  10.971   4.387  0.7963  2.0542 -1.9612
  323MOL0     H43559   5.598  11.191   4.298  2.2067 -2.1725 -2.8976
  323MOL0     H43560   5.764  11.154   4.271  1.4690  0.6950  0.8830
  323MOL0     H43561   5.852  11.306   4.427 -0.5380 -1.7756  0.3242
  323MOL0     H43562   5.700  11.349   4.497 -0.8227  0.6076 -0.2638
  323MOL0     H43563   5.731  11.378   4.197 -2.1740 -1.0253  0.7434
  323MOL0     H43564   5.805  11.502   4.307 -0.0801 -0.0206  0.4004
  323MOL0     H43565   5.391  11.529   4.163 -0.3382  0.0833 -1.7392
  323MOL0     H43566   5.211  11.821   4.042 -1.1200 -2.3124  2.6131
  323MOL0     H43567   5.319  11.749   3.912  2.6018 -2.8081  0.5320
  323MOL0     H43568   5.226  11.650   4.034 -2.1031  0.4080  0.2163
  323MOL0     H43569   5.402  12.259   3.919 -1.9553  0.0443 -0.8611
  323MOL0     H43570   5.382  12.484   3.981 -0.2409  0.7764 -0.1160
  323MOL0     H43571   5.231  12.616   4.383 -3.5674 -0.9199 -1.7437
  323MOL0     H43572   5.265  12.760   4.293  1.2643 -0.5517  3.2483
  323MOL0     H43573   5.134  12.604   4.107 -0.7977  3.8018 -0.6101
  323MOL0     H43574   5.072  12.514   4.230  0.1191 -0.3341 -2.7110
  323MOL0     H43575   4.957  12.699   4.332 -2.1749  1.8748 -1.1133
  323MOL0     H43576   4.916  12.667   4.157  2.3513 -0.9382 -2.4000
  323MOL0     H43577   5.118  12.868   4.204  1.4305 -1.8997  0.1957
  323MOL0     H43578   4.998  12.848   4.077 -1.1917  0.5435  0.4242
  323MOL0     H43579   4.848  12.914   4.315 -0.6315 -2.1817 -1.7102
  323MOL0     H43580   4.859  13.010   4.171  1.7483  2.2039 -0.0663
  323MOL0     H43581   5.049  12.993   4.399 -2.9848 -0.5363  1.4292
  323MOL0     H43582   5.096  13.092   4.249 -1.3751 -0.8709 -1.0419
  323MOL0     H43583   4.858  13.153   4.451  0.8473 -0.9774  1.0110
  323MOL0     H43584   4.885  13.221   4.286  4.4914 -1.8754 -3.2046
  323MOL0     H43585   5.088  13.329   4.361  0.0802  0.0861 -1.0356
  323MOL0     H43586   5.089  13.234   4.516 -0.8294 -0.1874  0.9192
  323MOL0     H43587   5.286  12.378   4.380  0.4972 -1.7030  0.4633
  323MOL0     H43588   5.296  12.144   4.318  1.7910  0.4676 -0.3841
  323MOL0     H43589   5.710  11.899   4.155  0.4356 -0.6067  1.4591
  323MOL0     H43590   5.762  11.673   4.245 -1.6530 -3.5719  2.8245
  323MOL0     H43591   4.358  10.993   5.376 -1.3872 -1.9806  1.3238
  323MOL0     H43592   4.295  10.877   5.576 -0.3657  4.7704 -2.9001
  323MOL0     H43593   4.315  10.724   5.987 -0.5109 -0.3381  3.3369
  323MOL0     H43594   4.311  10.613   6.205 -1.8864 -1.2252  0.3025
  323MOL0     H43595   4.210  10.369   6.293  0.4508 -1.5672 -2.5170
  323MOL0     H43596   4.313  10.227   6.306 -1.9004  0.9276 -1.1151
  323MOL0     H43597   4.336  10.448   6.499  1.9943 -0.7636 -0.4489
  323MOL0     H43598   4.387  10.273   6.537  0.6765  0.7358  1.9035
  323MOL0     H43599   4.140  10.222   6.529  0.8298 -1.1538 -0.6555
  323MOL0     H43600   4.126  10.401   6.534 -1.6521 -0.0860  3.0237
  323MOL0     H43601   4.226  10.433   6.738 -0.2186  0.7185 -1.2717
  323MOL0     H43602   4.278  10.256   6.744 -0.4533 -0.2657 -0.8032
  323MOL0     H43603   3.873  10.206   6.842  0.4755 -0.7128  1.9103
  323MOL0     H43604   4.435  10.252   6.040  3.4188  1.5453 -0.2447
  323MOL0     H43605   4.432  10.367   5.801 -0.6890 -0.5194 -0.7204
  324MOL0     O43606   7.394   1.691   7.496 -0.1145  0.0308  0.4477
  324MOL0     C43607   7.427   1.712   7.382  0.4054  0.1701 -0.1362
  324MOL0     O43608   7.493   1.624   7.290 -0.0563  0.2623 -0.8531
  324MOL0     C43609   7.539   1.512   7.341  0.3751  0.0311  0.1985
  324MOL0     C43610   7.674   1.500   7.322 -0.3679  0.0777  0.1331
  324MOL0     C43611   7.738   1.391   7.372  0.0562 -0.7134 -0.7076
  324MOL0     C43612   7.662   1.286   7.433 -0.9669 -0.4459 -0.4504
  324MOL0     O43613   7.728   1.191   7.499  0.3929  0.1081 -0.5416
  324MOL0     C43614   7.721   1.183   7.644  0.5593 -0.6218 -0.2535
  324MOL0     C43615   7.828   1.283   7.702 -0.0639  0.1354  0.0266
  324MOL0     C43616   7.792   1.431   7.733 -0.0449  0.5021 -0.1532
  324MOL0     C43617   7.714   1.438   7.867 -0.4740 -0.1967  0.5455
  324MOL0     C43618   7.688   1.581   7.915  0.1684  0.2710 -0.2978
  324MOL0     C43619   7.553   1.591   7.987  0.0859 -0.1043 -0.9189
  324MOL0     C43620   7.488   1.728   8.021  0.4325  0.7064  0.7808
  324MOL0     C43621   7.543   1.802   8.143 -0.2247 -0.2181  0.3452
  324MOL0     N43622   7.674   1.867   8.125 -0.5818  0.0240 -0.5733
  324MOL0     C43623   7.727   1.925   8.012 -0.1976 -0.2032 -1.2663
  324MOL0     C43624   7.845   1.982   8.056  0.3135  0.1448  0.2957
  324MOL0     C43625   7.940   2.043   7.958 -0.5448 -0.8289 -0.0121
  324MOL0     C43626   8.076   1.979   7.980  0.3714  0.5636 -0.5233
  324MOL0     C43627   8.188   2.032   7.892 -0.2510 -0.0807 -0.3368
  324MOL0     C43628   8.317   1.970   7.943  1.0205 -0.2036  0.9010
  324MOL0     O43629   8.360   2.037   8.060  0.4646  0.3052 -0.9502
  324MOL0     C43630   8.484   2.029   8.108 -0.3830  0.3964  0.5976
  324MOL0     C43631   8.510   2.135   8.196  0.3427  0.5062  1.0470
  324MOL0     C43632   8.633   2.132   8.269  0.4774  0.5427  0.2949
  324MOL0     C43633   8.653   2.261   8.351 -0.1213  0.6542  0.1971
  324MOL0     C43634   8.723   2.018   8.261 -0.2160 -0.1146  0.3738
  324MOL0     C43635   8.845   2.016   8.338  1.1437 -0.7854  0.8197
  324MOL0     O43636   8.956   2.002   8.265  0.2766 -0.2106  0.1086
  324MOL0     C43637   9.085   2.008   8.311  0.5204  0.5036 -0.2999
  324MOL0     C43638   9.124   1.988   8.447 -0.5397  0.4068  0.2505
  324MOL0     C43639   9.247   2.005   8.493 -0.6531  1.0015  0.3355
  324MOL0     C43640   9.348   2.050   8.399  0.4329 -0.1629 -0.4402
  324MOL0     O43641   9.479   2.076   8.430  0.9389 -0.5650 -0.6643
  324MOL0     C43642   9.510   2.100   8.568  0.0555  0.4864 -0.3287
  324MOL0     C43643   9.656   2.148   8.592 -0.0088 -0.0763 -1.1382
  324MOL0     C43644   9.748   2.022   8.575 -0.4416 -0.0455 -0.2300
  324MOL0     C43645   9.781   1.962   8.706  0.5092  0.2880 -0.5052
  324MOL0     C43646   9.897   1.856   8.689  0.6367 -0.6190 -0.2339
  324MOL0     C43647   9.965   1.827   8.820 -0.4124  0.6041 -0.5619
  324MOL0     C43648  10.088   1.731   8.803  0.6456 -0.2104  0.3197
  324MOL0     C43649  10.178   1.702   8.922  0.1446  0.3098 -0.2659
  324MOL0    Cl43650  10.168   1.807   9.053 -0.1102 -0.1662  0.6438
  324MOL0     C43651   9.320   2.042   8.265  0.9346  0.0354  0.7360
  324MOL0     C43652   9.188   2.022   8.224  0.1117  0.0562  0.4715
  324MOL0     O43653   8.845   2.051   8.453 -0.3531  0.1170 -0.6919
  324MOL0     C43654   8.701   1.931   8.153  0.2620  0.5116 -0.3533
  324MOL0     C43655   8.580   1.930   8.079  0.3594 -0.8002 -0.2248
  324MOL0     N43656   7.857   1.968   8.192 -0.2545 -0.5732  0.3504
  324MOL0     N43657   7.758   1.902   8.230 -0.4297 -0.3979  0.3539
  324MOL0     C43658   7.527   1.289   7.445  0.7567 -0.4740  0.3628
  324MOL0     C43659   7.464   1.399   7.386  0.6251 -0.4156  0.1345
  324MOL0     C43660   7.400   1.851   7.334 -0.3566  0.2958 -0.2245
  324MOL0     C43661   7.321   1.943   7.399 -0.2215 -0.2747  0.7251
  324MOL0     C43662   7.312   2.076   7.352 -0.2629  0.6928  0.3950
  324MOL0     C43663   7.395   2.119   7.249 -0.3684  0.3783  0.3784
  324MOL0     O43664   7.395   2.252   7.210  0.7404  0.5301  0.0955
  324MOL0     C43665   7.283   2.338   7.237 -0.6423  0.4063  0.4290
  324MOL0     C43666   7.287   2.409   7.376 -0.1473 -0.0606 -0.1508
  324MOL0     C43667   7.154   2.455   7.438  0.2833 -0.4166  0.2494
  324MOL0     C43668   7.056   2.345   7.483 -0.1059  0.0131 -0.0336
  324MOL0     C43669   6.980   2.285   7.368  0.8862 -0.8073  0.1689
  324MOL0     C43670   6.915   2.227   7.285  0.0279  0.5724  0.7667
  324MOL0     C43671   7.486   2.034   7.193 -0.0741 -0.2865 -0.0568
  324MOL0     C43672   7.491   1.902   7.238  0.9544 -0.0237  0.9787
  324MOL0     H43673   7.722   1.565   7.248 -0.9281  0.2385 -0.0965
  324MOL0     H43674   7.844   1.374   7.360  0.1050  0.9146 -3.1089
  324MOL0     H43675   7.625   1.206   7.692  1.0861  0.1853  0.4313
  324MOL0     H43676   7.735   1.081   7.683 -3.6053 -0.4447  2.3187
  324MOL0     H43677   7.866   1.245   7.797 -0.2066 -0.0368  0.0160
  324MOL0     H43678   7.903   1.276   7.622 -2.3917  0.8016 -2.3694
  324MOL0     H43679   7.878   1.495   7.753 -1.9498  3.2934 -0.2344
  324MOL0     H43680   7.743   1.483   7.649  1.1513 -2.5594 -2.9588
  324MOL0     H43681   7.620   1.382   7.862 -1.6190  1.2679  3.2495
  324MOL0     H43682   7.782   1.405   7.946  0.3339 -0.9711 -0.4533
  324MOL0     H43683   7.777   1.612   7.971 -2.3932  0.5313  4.0225
  324MOL0     H43684   7.670   1.637   7.822 -1.2372 -2.3837 -1.7374
  324MOL0     H43685   7.475   1.547   7.925 -0.1801 -0.3896 -0.3873
  324MOL0     H43686   7.554   1.540   8.084 -0.7533 -0.5559 -1.1384
  324MOL0     H43687   7.502   1.791   7.933 -1.7309 -2.8203 -2.4079
  324MOL0     H43688   7.382   1.723   8.048  0.4791  2.5850  1.4656
  324MOL0     H43689   7.555   1.728   8.223 -0.3514 -1.6485 -0.9230
  324MOL0     H43690   7.473   1.868   8.195  0.0489 -1.1370  1.9661
  324MOL0     H43691   7.690   1.920   7.910 -1.8247 -1.6701 -0.6589
  324MOL0     H43692   7.919   2.022   7.853  1.4003  0.2592 -0.6676
  324MOL0     H43693   7.935   2.150   7.978  0.9546  0.1200 -3.8010
  324MOL0     H43694   8.051   1.874   7.966  0.0563  0.3297  1.5666
  324MOL0     H43695   8.105   1.982   8.085  2.3204 -3.5820 -0.7388
  324MOL0     H43696   8.194   2.141   7.897 -1.1355 -0.0891  1.9779
  324MOL0     H43697   8.159   2.006   7.790  1.3143 -0.1927 -0.7863
  324MOL0     H43698   8.381   1.982   7.856 -2.0007  1.0492 -1.3277
  324MOL0     H43699   8.312   1.861   7.949 -2.2834 -0.3634 -1.7817
  324MOL0     H43700   8.433   2.212   8.191  1.3331  1.4382 -1.4430
  324MOL0     H43701   8.577   2.334   8.323 -1.1812  0.1048  1.5254
  324MOL0     H43702   8.637   2.236   8.457 -0.5814 -1.2971 -0.2848
  324MOL0     H43703   8.750   2.312   8.349 -0.9617  2.3738  1.2785
  324MOL0     H43704   9.056   1.967   8.529 -0.7967  2.6258  0.6509
  324MOL0     H43705   9.272   2.004   8.599 -0.4968  0.6981  0.2994
  324MOL0     H43706   9.431   2.165   8.608 -0.1001  0.3360 -0.3924
  324MOL0     H43707   9.510   2.002   8.615  4.7712  0.0824 -0.6818
  324MOL0     H43708   9.686   2.229   8.525 -1.0455  1.3814  0.0879
  324MOL0     H43709   9.663   2.196   8.690 -0.8569 -0.0895 -1.0649
  324MOL0     H43710   9.840   2.037   8.518 -0.4059  1.3434  0.1476
  324MOL0     H43711   9.693   1.943   8.525 -1.1830  0.1737  0.2133
  324MOL0     H43712   9.817   2.042   8.771 -1.7339  2.6740 -1.9689
  324MOL0     H43713   9.692   1.917   8.751  0.4014  0.0620 -0.9413
  324MOL0     H43714   9.966   1.884   8.608 -0.3258  2.6740 -0.0522
  324MOL0     H43715   9.857   1.761   8.653 -2.3667  0.7515 -0.8350
  324MOL0     H43716   9.993   1.924   8.863 -2.3932  1.4018 -0.9466
  324MOL0     H43717   9.887   1.788   8.886 -0.9564 -0.7054 -1.9107
  324MOL0     H43718  10.153   1.782   8.731  0.9805 -1.9962 -0.7058
  324MOL0     H43719  10.044   1.637   8.768  0.7541 -0.6199  1.2574
  324MOL0     H43720  10.279   1.713   8.880  0.4081 -1.4840 -0.2225
  324MOL0     H43721  10.171   1.598   8.956  0.2586  0.0659 -0.9699
  324MOL0     H43722   9.388   2.075   8.186 -0.9850  0.1165 -0.9595
  324MOL0     H43723   9.176   2.046   8.119  4.2290 -2.2446 -0.7760
  324MOL0     H43724   8.759   1.840   8.140 -1.8813 -0.8984 -0.6323
  324MOL0     H43725   8.564   1.861   7.997  0.9296 -0.7583 -0.3786
  324MOL0     H43726   7.468   1.206   7.482  2.0836 -1.5054  0.1921
  324MOL0     H43727   7.355   1.401   7.389  0.5716 -0.8056 -1.1008
  324MOL0     H43728   7.278   1.913   7.494 -0.1451 -0.6688  0.6353
  324MOL0     H43729   7.253   2.143   7.413 -1.0846  2.1443 -1.8516
  324MOL0     H43730   7.274   2.412   7.157 -1.6347  0.2989  0.4327
  324MOL0     H43731   7.193   2.278   7.220  1.5730 -2.4652 -2.4271
  324MOL0     H43732   7.350   2.497   7.361 -0.3396  0.4163  1.6574
  324MOL0     H43733   7.337   2.342   7.446 -3.4474  0.6099  3.2026
  324MOL0     H43734   7.106   2.516   7.360  0.8573 -1.1414 -0.6810
  324MOL0     H43735   7.183   2.524   7.519  0.6431  1.1277 -1.1357
  324MOL0     H43736   6.992   2.380   7.564  0.2215 -2.1481  1.2384
  324MOL0     H43737   7.115   2.264   7.527  1.5896  1.0388 -0.3294
  324MOL0     H43738   6.852   2.173   7.217  1.2228 -0.9941  0.8369
  324MOL0     H43739   7.556   2.071   7.119 -0.8346  1.3953  0.0381
  324MOL0     H43740   7.573   1.856   7.184  0.7103  0.4129  0.2191
  325MOL0     O43741   7.428   1.790   4.713 -0.7964 -0.0268  0.5679
  325MOL0     C43742   7.508   1.816   4.620 -0.1206  0.0850  0.4646
  325MOL0     O43743   7.574   1.718   4.541 -0.4787 -0.0685 -0.3047
  325MOL0     C43744   7.531   1.596   4.552 -0.5350  0.4322  0.8921
  325MOL0     C43745   7.405   1.552   4.507 -0.9139 -0.5470 -0.7779
  325MOL0     C43746   7.383   1.418   4.507 -0.6623  0.3524 -0.5434
  325MOL0     C43747   7.472   1.316   4.548 -0.5308 -0.3164  0.1805
  325MOL0     O43748   7.438   1.182   4.534  0.1520  0.9614  0.0660
  325MOL0     C43749   7.436   1.096   4.650 -0.2148  1.0553 -0.4023
  325MOL0     C43750   7.549   1.103   4.754  0.7907  0.3668  0.1144
  325MOL0     C43751   7.513   1.019   4.872  0.3721  0.1803 -0.3715
  325MOL0     C43752   7.624   1.011   4.980 -0.1117 -0.0231 -0.2569
  325MOL0     C43753   7.709   0.883   4.957  0.3836 -0.0658 -0.4052
  325MOL0     C43754   7.788   0.859   5.084  0.4116  0.2353  0.4229
  325MOL0     C43755   7.871   0.728   5.088 -0.4023 -0.5029  0.2261
  325MOL0     C43756   8.007   0.739   5.009  0.6184 -0.2525  0.0976
  325MOL0     N43757   7.985   0.742   4.862 -0.6555 -0.7155 -0.1649
  325MOL0     C43758   7.890   0.674   4.795  0.3658 -0.4393  0.4139
  325MOL0     C43759   7.887   0.731   4.676 -0.0781 -0.3552  0.6799
  325MOL0     C43760   7.792   0.688   4.572  0.3296 -0.4292  0.3652
  325MOL0     C43761   7.664   0.761   4.568  0.9370  0.0144  0.2134
  325MOL0     C43762   7.579   0.707   4.456  0.9097  0.5699 -0.2390
  325MOL0     C43763   7.526   0.567   4.497  0.1950  1.2805  0.3850
  325MOL0     O43764   7.414   0.526   4.420  0.1329  0.2593  0.5306
  325MOL0     C43765   7.390   0.396   4.417 -0.6029  0.2492  0.3373
  325MOL0     C43766   7.297   0.347   4.500  0.0720 -0.2712  0.2108
  325MOL0     C43767   7.265   0.207   4.500 -0.3049 -0.6322 -0.3614
  325MOL0     C43768   7.154   0.162   4.598  0.5439  0.4714  0.9646
  325MOL0     C43769   7.308   0.132   4.390 -0.3954  0.1525 -0.2350
  325MOL0     C43770   7.266  -0.012   4.353  0.1919 -0.0822  0.3995
  325MOL0     O43771   7.288  -0.060   4.223 -0.4279  0.5149  1.0434
  325MOL0     C43772   7.257  -0.185   4.196  0.1263  0.1123 -0.0574
  325MOL0     C43773   7.130  -0.216   4.170  0.3051  0.3284 -0.1637
  325MOL0     C43774   7.103  -0.346   4.146  0.5217  0.6749  0.0282
  325MOL0     C43775   7.196  -0.452   4.140 -0.5580  0.0146  0.2731
  325MOL0     O43776   7.182  -0.580   4.096  0.4692  0.0097  0.2754
  325MOL0     C43777   7.053  -0.637   4.072  0.8532  0.1998 -0.1369
  325MOL0     C43778   7.084  -0.757   3.991 -0.2757 -0.4509  0.0262
  325MOL0     C43779   6.963  -0.847   4.013 -0.1887 -0.8047  0.7512
  325MOL0     C43780   6.987  -0.995   3.979 -0.2685 -0.2528 -0.5965
  325MOL0     C43781   7.075  -1.072   4.081 -0.5021 -0.9311  0.0538
  325MOL0     C43782   7.093  -1.220   4.051  0.4732  0.0750 -0.2673
  325MOL0     C43783   6.962  -1.291   4.004 -0.4155 -0.2647 -0.8199
  325MOL0     C43784   6.981  -1.437   4.014  0.2150  0.5404 -0.0082
  325MOL0    Cl43785   6.832  -1.539   4.025  0.3331 -0.6283 -0.4784
  325MOL0     C43786   7.327  -0.419   4.171 -0.5619  0.7717  0.3149
  325MOL0     C43787   7.354  -0.288   4.192 -0.7118 -0.1785  0.0242
  325MOL0     O43788   7.200  -0.067   4.430 -0.0194 -0.0713  0.6221
  325MOL0     C43789   7.416   0.189   4.315  0.4483 -0.5338  0.3166
  325MOL0     C43790   7.460   0.318   4.330 -0.6074 -0.4399  0.3152
  325MOL0     N43791   7.970   0.834   4.667  0.2998 -0.6494 -0.7292
  325MOL0     N43792   8.022   0.846   4.785 -0.9929 -0.1633 -0.0700
  325MOL0     C43793   7.602   1.362   4.578 -0.7854 -0.7585 -0.1663
  325MOL0     C43794   7.635   1.501   4.580  0.2824 -0.9857  0.0759
  325MOL0     C43795   7.536   1.958   4.598 -1.1526  0.0021 -1.0703
  325MOL0     C43796   7.615   2.005   4.488 -0.9215 -0.0497  0.3359
  325MOL0     C43797   7.635   2.148   4.479 -0.4996 -0.4602 -0.4099
  325MOL0     C43798   7.601   2.229   4.592  0.1822  0.1013 -0.0534
  325MOL0     O43799   7.663   2.348   4.598  0.6350  0.3301 -0.9575
  325MOL0     C43800   7.793   2.336   4.658 -0.3305  0.7700 -0.3734
  325MOL0     C43801   7.865   2.468   4.624  0.2023 -0.1417  0.2747
  325MOL0     C43802   7.924   2.467   4.485  0.3351  0.7983 -0.2772
  325MOL0     C43803   7.985   2.607   4.449 -0.2784 -0.4160  1.0068
  325MOL0     C43804   8.063   2.603   4.326 -0.2525  0.5868  0.1080
  325MOL0     C43805   8.121   2.590   4.218  0.1946  0.2169 -0.2459
  325MOL0     C43806   7.528   2.184   4.696  0.6357 -0.1464  0.0382
  325MOL0     C43807   7.487   2.054   4.697 -0.6848  0.5586  0.9995
  325MOL0     H43808   7.329   1.624   4.477  0.0786 -0.2620 -2.8423
  325MOL0     H43809   7.282   1.381   4.491  0.3191 -3.1869  0.5734
  325MOL0     H43810   7.341   1.106   4.703  0.1942  1.5483  0.2560
  325MOL0     H43811   7.427   0.994   4.614 -2.7629  0.5787  1.3331
  325MOL0     H43812   7.650   1.085   4.718  0.4769 -3.2090  0.6461
  325MOL0     H43813   7.545   1.207   4.789 -0.0190  0.8409 -1.3228
  325MOL0     H43814   7.428   1.067   4.921  2.4398  0.5159  3.2398
  325MOL0     H43815   7.481   0.921   4.833  0.4519  0.1516 -0.3651
  325MOL0     H43816   7.676   1.104   5.005  2.2677 -1.2602 -0.2955
  325MOL0     H43817   7.567   0.993   5.071 -0.1683 -0.8711 -0.4478
  325MOL0     H43818   7.643   0.796   4.952 -1.2375  0.9461  1.6646
  325MOL0     H43819   7.760   0.897   4.862 -0.7055  1.3809 -0.8188
  325MOL0     H43820   7.856   0.945   5.094  0.1040  1.1844 -3.8019
  325MOL0     H43821   7.715   0.857   5.165  1.6720  0.7498  1.6323
  325MOL0     H43822   7.914   0.701   5.185  1.0943  1.4861  0.1607
  325MOL0     H43823   7.817   0.637   5.059 -3.7924  1.3710  0.1817
  325MOL0     H43824   8.066   0.653   5.041 -1.0345 -0.6947  2.2146
  325MOL0     H43825   8.059   0.826   5.052 -0.2647 -1.7550  4.8574
  325MOL0     H43826   7.822   0.603   4.840 -0.6523  0.5644  0.4909
  325MOL0     H43827   7.840   0.696   4.474 -1.4090 -3.6017 -0.8957
  325MOL0     H43828   7.780   0.580   4.584  2.3504 -1.2285 -3.3284
  325MOL0     H43829   7.691   0.867   4.561  0.2004  0.3735  2.0929
  325MOL0     H43830   7.610   0.753   4.663  0.7333 -1.4839 -0.0067
  325MOL0     H43831   7.639   0.716   4.365  3.3495  1.6869  1.3688
  325MOL0     H43832   7.496   0.776   4.436  2.5876  2.7480 -0.1080
  325MOL0     H43833   7.493   0.570   4.601 -0.6434 -0.4662  0.2054
  325MOL0     H43834   7.601   0.488   4.500  1.9389  2.8282 -0.1375
  325MOL0     H43835   7.248   0.409   4.574  1.5429  1.0531  0.1328
  325MOL0     H43836   7.064   0.130   4.545 -0.0783 -0.3200  2.4250
  325MOL0     H43837   7.193   0.076   4.653  1.2660  0.7283  0.8665
  325MOL0     H43838   7.130   0.232   4.679 -4.2583 -1.2574  1.3870
  325MOL0     H43839   7.055  -0.139   4.154 -1.3467 -1.7478 -3.6793
  325MOL0     H43840   6.995  -0.357   4.138  0.8041 -2.2789 -0.9384
  325MOL0     H43841   7.008  -0.665   4.168 -4.3387  1.5854 -1.8461
  325MOL0     H43842   6.980  -0.576   4.017 -0.3891 -2.7773 -2.0218
  325MOL0     H43843   7.092  -0.736   3.884  0.4734  0.2493  0.2056
  325MOL0     H43844   7.178  -0.791   4.035  0.6440  1.8248 -0.0604
  325MOL0     H43845   6.891  -0.805   3.941  2.4013  2.6347 -0.1217
  325MOL0     H43846   6.914  -0.852   4.110 -3.0063  0.0301 -0.5120
  325MOL0     H43847   6.887  -1.038   3.982 -0.6745  0.7105  1.5288
  325MOL0     H43848   7.025  -1.020   3.879 -3.5150 -2.4545 -1.4265
  325MOL0     H43849   7.028  -1.075   4.179  0.1260  2.4573  0.5952
  325MOL0     H43850   7.171  -1.021   4.090 -0.7232 -0.8117  2.1033
  325MOL0     H43851   7.176  -1.229   3.980  1.3171 -1.1053  0.7900
  325MOL0     H43852   7.129  -1.266   4.144  0.9509 -0.4271 -0.6925
  325MOL0     H43853   6.935  -1.254   3.905  2.6065 -2.0536 -2.4738
  325MOL0     H43854   6.875  -1.273   4.067 -0.1080 -0.3970 -0.3482
  325MOL0     H43855   7.034  -1.458   4.108 -2.6607  2.2813  2.1752
  325MOL0     H43856   7.035  -1.466   3.924  0.0570  2.4223 -0.7525
  325MOL0     H43857   7.411  -0.488   4.166 -0.9264  0.2410  1.2622
  325MOL0     H43858   7.457  -0.254   4.186  0.0363 -2.3716 -0.2934
  325MOL0     H43859   7.468   0.148   4.229  0.6255 -1.9363  1.0670
  325MOL0     H43860   7.542   0.372   4.286 -0.4380  0.8181  2.0985
  325MOL0     H43861   7.694   1.305   4.591  0.4038  0.6876 -1.6872
  325MOL0     H43862   7.732   1.547   4.591  0.0012  0.5264 -2.7640
  325MOL0     H43863   7.642   1.931   4.414 -0.5266  1.7247 -1.3685
  325MOL0     H43864   7.689   2.189   4.394  1.2895  0.8677  1.2693
  325MOL0     H43865   7.789   2.331   4.767  0.8843  1.3410 -0.2801
  325MOL0     H43866   7.849   2.248   4.623 -1.9283 -1.1973  1.7393
  325MOL0     H43867   7.947   2.495   4.692 -0.5565 -0.0905  1.1969
  325MOL0     H43868   7.796   2.552   4.615  0.0685 -0.2629  0.1743
  325MOL0     H43869   7.860   2.423   4.408  1.0195  4.0562 -2.9480
  325MOL0     H43870   8.000   2.388   4.485 -1.1641 -0.7467  1.6446
  325MOL0     H43871   8.060   2.628   4.526  0.9808 -1.2070  0.0421
  325MOL0     H43872   7.917   2.692   4.435 -1.6909 -1.8946 -2.0581
  325MOL0     H43873   8.169   2.570   4.124 -4.1462 -1.1180 -2.4429
  325MOL0     H43874   7.514   2.249   4.783  4.0876 -0.7338  1.2027
  325MOL0     H43875   7.425   2.021   4.779  0.0837  0.7210  1.6629
  326MOL0     O43876   7.760   0.332   4.858 -0.0156  0.4858  1.1434
  326MOL0     C43877   7.647   0.286   4.826 -0.4500 -0.2702 -0.5871
  326MOL0     O43878   7.526   0.353   4.835 -0.6396 -0.0479  0.0785
  326MOL0     C43879   7.511   0.451   4.924 -1.1962  0.0076 -0.0750
  326MOL0     C43880   7.421   0.560   4.898 -0.2815 -0.5127  0.0979
  326MOL0     C43881   7.406   0.650   5.000  0.6996 -0.9568 -0.0681
  326MOL0     C43882   7.473   0.640   5.127  0.0846 -0.4643  0.5905
  326MOL0     O43883   7.452   0.738   5.219 -0.1917 -0.3569 -0.2755
  326MOL0     C43884   7.490   0.701   5.356 -0.5910 -0.3232  0.4256
  326MOL0     C43885   7.488   0.833   5.431 -0.1408 -0.4004 -0.3067
  326MOL0     C43886   7.345   0.877   5.438  0.3643 -0.6139  0.3211
  326MOL0     C43887   7.322   0.995   5.520 -0.1312 -0.3356 -0.0739
  326MOL0     C43888   7.181   1.057   5.532 -0.8281  0.8578  0.4156
  326MOL0     C43889   7.178   1.173   5.629  0.0460  0.2328 -0.2878
  326MOL0     C43890   7.052   1.254   5.623  1.6035 -0.2458  0.4596
  326MOL0     C43891   7.064   1.386   5.692 -0.4604 -0.6739  0.5821
  326MOL0     N43892   7.080   1.387   5.840  0.0969 -0.5454 -0.2612
  326MOL0     C43893   6.972   1.416   5.918 -0.2407  0.4299 -0.3668
  326MOL0     C43894   7.022   1.392   6.039 -0.1212  0.8727 -1.1014
  326MOL0     C43895   6.959   1.411   6.177 -0.5428 -0.0378  0.5905
  326MOL0     C43896   6.937   1.271   6.247 -0.4400 -0.2102 -0.9480
  326MOL0     C43897   6.858   1.313   6.379  1.1221  1.1957  0.1306
  326MOL0     C43898   6.798   1.191   6.450  0.2987 -0.0631  0.2601
  326MOL0     O43899   6.804   1.216   6.592  0.6279  0.5872  0.0849
  326MOL0     C43900   6.902   1.142   6.654 -0.6934  0.5578 -0.3015
  326MOL0     C43901   6.854   1.025   6.712 -0.2849  0.7640 -0.7428
  326MOL0     C43902   6.938   0.963   6.810  0.2548  0.3728 -0.1818
  326MOL0     C43903   6.896   0.834   6.875  0.8111 -0.0595  0.4720
  326MOL0     C43904   7.063   1.010   6.840  0.7071  0.5466 -0.3457
  326MOL0     C43905   7.165   0.953   6.938  0.6611  0.0255  1.0771
  326MOL0     O43906   7.281   1.026   6.967  0.1819 -0.2407 -0.3468
  326MOL0     C43907   7.392   0.961   7.018  0.0883  1.1431  0.3660
  326MOL0     C43908   7.457   1.013   7.127 -0.7607 -0.1723 -0.7168
  326MOL0     C43909   7.581   0.955   7.181  0.6055 -0.7284 -0.4367
  326MOL0     C43910   7.627   0.833   7.127 -0.7598 -0.1470 -0.3520
  326MOL0     O43911   7.732   0.759   7.179 -0.2669  0.4016  0.2205
  326MOL0     C43912   7.835   0.832   7.255 -1.0531  0.3899  0.7238
  326MOL0     C43913   7.944   0.738   7.295  0.5959 -0.0564 -0.3136
  326MOL0     C43914   7.896   0.639   7.394 -0.1088  1.4207  0.8144
  326MOL0     C43915   8.008   0.552   7.446  0.3857  0.3946  0.0424
  326MOL0     C43916   7.981   0.472   7.568  1.2611  0.4547  0.0598
  326MOL0     C43917   8.107   0.406   7.627  1.0151 -0.4689 -0.2447
  326MOL0     C43918   8.063   0.330   7.743 -0.0723 -0.1772  0.7345
  326MOL0     C43919   8.181   0.297   7.830 -0.0015 -0.0380 -0.2256
  326MOL0    Cl43920   8.292   0.223   7.729  0.0066 -0.1875 -0.6543
  326MOL0     C43921   7.555   0.777   7.017 -0.1471 -0.0567 -0.0432
  326MOL0     C43922   7.441   0.839   6.960  0.8517 -0.1984 -0.3564
  326MOL0     O43923   7.141   0.843   6.977  0.2599  0.1312 -1.0412
  326MOL0     C43924   7.110   1.121   6.766  0.6120 -0.0299  0.3248
  326MOL0     C43925   7.026   1.197   6.680 -1.0282  0.5180  0.0551
  326MOL0     N43926   7.141   1.330   6.028 -0.4025  0.4787 -0.4320
  326MOL0     N43927   7.181   1.343   5.908 -0.1051 -0.1791  0.4537
  326MOL0     C43928   7.552   0.528   5.150  0.1383  0.2743 -0.2357
  326MOL0     C43929   7.560   0.431   5.052 -0.0533  0.0299  0.1428
  326MOL0     C43930   7.644   0.155   4.749 -0.1153 -1.0890 -1.1614
  326MOL0     C43931   7.521   0.106   4.714 -0.5696  0.1457  0.4613
  326MOL0     C43932   7.508  -0.019   4.659  1.1833 -1.0666  0.0350
  326MOL0     C43933   7.614  -0.103   4.641 -0.4167  0.3528  0.1741
  326MOL0     O43934   7.610  -0.228   4.583 -0.9579 -0.0726 -0.5098
  326MOL0     C43935   7.482  -0.298   4.582  0.6088 -0.8312  0.5658
  326MOL0     C43936   7.498  -0.427   4.488 -0.4382  0.5657 -0.1516
  326MOL0     C43937   7.617  -0.515   4.530 -1.0823  1.0078  0.4281
  326MOL0     C43938   7.615  -0.564   4.676 -0.0892 -0.5599 -1.1651
  326MOL0     C43939   7.497  -0.640   4.709 -0.6943  0.9151  0.2714
  326MOL0     C43940   7.393  -0.708   4.702  0.0805 -0.4794  0.3571
  326MOL0     C43941   7.745  -0.049   4.675  0.7750 -0.5388  0.7017
  326MOL0     C43942   7.759   0.074   4.729 -0.5108  0.5399  0.1194
  326MOL0     H43943   7.365   0.570   4.806  0.7681  0.6285 -0.4488
  326MOL0     H43944   7.340   0.732   4.975  2.1019 -0.8381 -3.9840
  326MOL0     H43945   7.424   0.619   5.389 -1.5443  0.3960  0.3603
  326MOL0     H43946   7.594   0.669   5.361 -0.4721  0.0358  0.2274
  326MOL0     H43947   7.517   0.818   5.536 -3.2299  0.8670  0.8405
  326MOL0     H43948   7.563   0.899   5.388  0.8137 -1.5161 -0.3965
  326MOL0     H43949   7.302   0.908   5.343 -2.2768 -2.3019  0.8827
  326MOL0     H43950   7.281   0.794   5.469 -0.4896 -0.0108  0.2122
  326MOL0     H43951   7.349   0.983   5.625 -2.0717  2.5262  0.8649
  326MOL0     H43952   7.387   1.076   5.486  0.4224  0.4542  2.6342
  326MOL0     H43953   7.146   1.093   5.435 -0.3595  1.5722  0.5069
  326MOL0     H43954   7.109   0.976   5.548  0.6320 -0.7652 -0.8942
  326MOL0     H43955   7.186   1.128   5.728 -1.7789  2.7939  1.1524
  326MOL0     H43956   7.260   1.244   5.616 -0.8372  1.1408 -0.9986
  326MOL0     H43957   7.034   1.267   5.516 -3.9073 -2.6587  0.7506
  326MOL0     H43958   6.963   1.205   5.664  1.9883  0.0112  1.6348
  326MOL0     H43959   6.974   1.434   5.653 -0.9472 -4.0090 -3.0875
  326MOL0     H43960   7.145   1.436   5.638 -0.9486  0.8163  1.1931
  326MOL0     H43961   6.868   1.436   5.897  0.1358  2.0853 -0.7953
  326MOL0     H43962   7.028   1.477   6.229  1.8126 -3.4794  2.2497
  326MOL0     H43963   6.864   1.460   6.154  0.5345  2.1704  0.6188
  326MOL0     H43964   7.034   1.227   6.273 -1.3353 -1.9155 -0.3635
  326MOL0     H43965   6.871   1.203   6.194 -1.8679  0.9717 -0.7641
  326MOL0     H43966   6.784   1.387   6.348  0.3667  0.0941 -0.8240
  326MOL0     H43967   6.917   1.375   6.446  0.1372  2.8990 -0.5175
  326MOL0     H43968   6.856   1.100   6.431 -2.8613 -1.6054 -3.6977
  326MOL0     H43969   6.690   1.185   6.433 -0.1739 -0.2191  2.9510
  326MOL0     H43970   6.755   0.989   6.685 -0.7452 -0.7469  2.4493
  326MOL0     H43971   6.809   0.797   6.820  2.8470 -3.2499 -0.8726
  326MOL0     H43972   6.968   0.762   6.835 -0.0479 -0.5555 -0.1975
  326MOL0     H43973   6.904   0.828   6.984  0.7736  1.0994  0.5509
  326MOL0     H43974   7.420   1.105   7.170  0.7526  0.3734 -0.5210
  326MOL0     H43975   7.623   1.003   7.268 -0.0105  2.5038 -1.7769
  326MOL0     H43976   7.865   0.916   7.190 -5.0272  1.6385  0.2328
  326MOL0     H43977   7.791   0.879   7.343 -0.8440 -1.5993  1.9567
  326MOL0     H43978   7.995   0.699   7.206  0.0199 -0.1289 -0.6184
  326MOL0     H43979   8.007   0.805   7.354  1.2055 -0.5251 -0.4246
  326MOL0     H43980   7.827   0.571   7.344  1.6278 -0.1102  0.3828
  326MOL0     H43981   7.854   0.685   7.484  1.3144  2.2806  1.0688
  326MOL0     H43982   8.052   0.487   7.370  0.4519 -0.7873  1.0674
  326MOL0     H43983   8.089   0.623   7.468  1.7143 -0.8345 -0.7068
  326MOL0     H43984   7.910   0.391   7.549  1.3552 -0.2928  2.5299
  326MOL0     H43985   7.933   0.527   7.649  1.4016 -1.5308  1.5624
  326MOL0     H43986   8.136   0.334   7.550  0.9711 -3.5174  2.3772
  326MOL0     H43987   8.187   0.478   7.642  0.0211  0.5614  0.2091
  326MOL0     H43988   8.010   0.240   7.709 -1.7709 -1.5585  6.0429
  326MOL0     H43989   7.987   0.383   7.801 -2.0320 -1.8020 -0.2279
  326MOL0     H43990   8.148   0.230   7.910  0.1906 -0.3901 -0.4383
  326MOL0     H43991   8.219   0.390   7.871 -1.0142  2.0077 -3.5381
  326MOL0     H43992   7.592   0.678   6.990 -0.9298 -0.8590  1.6850
  326MOL0     H43993   7.379   0.785   6.889 -0.6897  0.1471  0.6590
  326MOL0     H43994   7.211   1.158   6.779 -0.3962  2.6162  1.1692
  326MOL0     H43995   7.048   1.289   6.626  1.4501 -0.5286 -0.8843
  326MOL0     H43996   7.591   0.490   5.244 -0.6105  1.2437  0.4833
  326MOL0     H43997   7.612   0.344   5.089  0.1393 -0.7657 -1.8741
  326MOL0     H43998   7.425   0.156   4.726 -1.3641 -0.3557 -2.8737
  326MOL0     H43999   7.413  -0.054   4.620  1.2295 -0.9436 -0.1900
  326MOL0     H44000   7.461  -0.318   4.687  3.1206  0.0243  1.3016
  326MOL0     H44001   7.401  -0.237   4.541  0.4436 -1.9213 -0.8072
  326MOL0     H44002   7.507  -0.392   4.385 -0.2484  0.2834 -0.2307
  326MOL0     H44003   7.417  -0.501   4.478  3.4685 -4.2984  0.2312
  326MOL0     H44004   7.712  -0.463   4.523 -0.0019 -0.9844 -0.5164
  326MOL0     H44005   7.612  -0.600   4.461 -0.1000  0.8432  0.5495
  326MOL0     H44006   7.615  -0.476   4.742 -2.7025 -0.9124 -0.5659
  326MOL0     H44007   7.701  -0.626   4.703 -2.9497 -4.2947  0.2183
  326MOL0     H44008   7.311  -0.776   4.696  0.8121 -1.5080  1.5273
  326MOL0     H44009   7.834  -0.108   4.656  0.1976 -2.2809  2.9794
  326MOL0     H44010   7.859   0.095   4.764 -0.3474 -1.9266  1.3661
  327MOL0     O44011   9.858   2.602   9.988 -0.5154 -0.5815  0.2930
  327MOL0     C44012   9.794   2.613  10.092  0.5498  0.8519  0.1314
  327MOL0     O44013   9.824   2.553  10.208  0.8590  0.6964 -0.5409
  327MOL0     C44014   9.917   2.447  10.213 -0.3207  0.6172 -0.3370
  327MOL0     C44015  10.040   2.455  10.278  0.8132 -0.1467 -0.5272
  327MOL0     C44016  10.118   2.336  10.295  0.0782 -0.6998 -0.2984
  327MOL0     C44017  10.073   2.212  10.235 -0.1802 -0.4997 -0.5575
  327MOL0     O44018  10.144   2.098  10.229 -0.2099  0.2996 -0.2238
  327MOL0     C44019  10.275   2.099  10.281 -0.4707 -0.7428 -0.3529
  327MOL0     C44020  10.352   1.969  10.275 -0.1522 -0.3154  0.8906
  327MOL0     C44021  10.254   1.864  10.336 -0.3062 -0.7671  0.0062
  327MOL0     C44022  10.335   1.731  10.335 -0.0989  0.2374  0.1232
  327MOL0     C44023  10.268   1.608  10.383 -0.0813 -0.2234  0.7228
  327MOL0     C44024  10.187   1.544  10.270 -0.2402  1.1719  0.0860
  327MOL0     C44025  10.179   1.403  10.281 -0.2539  0.5136 -0.0053
  327MOL0     C44026  10.111   1.332  10.164  0.0245  0.2760 -0.3655
  327MOL0     N44027   9.980   1.377  10.118  1.4901  0.7685  0.6187
  327MOL0     C44028   9.856   1.347  10.186 -0.5416 -0.3946 -0.5323
  327MOL0     C44029   9.763   1.440  10.136 -0.1542  0.9153 -0.7749
  327MOL0     C44030   9.634   1.459  10.215 -0.0186  0.9098 -0.1051
  327MOL0     C44031   9.516   1.398  10.135 -0.4988 -0.0525 -1.0042
  327MOL0     C44032   9.528   1.244  10.164  1.1290  0.8030  0.8017
  327MOL0     C44033   9.419   1.167  10.083 -0.2885 -0.2262 -0.6751
  327MOL0     O44034   9.290   1.194  10.153 -0.4962 -0.1907 -0.3270
  327MOL0     C44035   9.169   1.150  10.099 -0.6289 -0.4523  0.4460
  327MOL0     C44036   9.060   1.192  10.163 -0.1186  0.2468 -0.3015
  327MOL0     C44037   8.932   1.151  10.122 -0.8858 -0.0090 -0.0324
  327MOL0     C44038   8.820   1.201  10.208  1.2232  0.6893  0.1834
  327MOL0     C44039   8.919   1.057  10.012  0.0991 -0.2601 -0.6721
  327MOL0     C44040   8.786   1.007   9.960  0.3597 -0.1212 -0.2806
  327MOL0     O44041   8.798   0.952   9.831  0.0325 -0.5354  0.0355
  327MOL0     C44042   8.689   0.887   9.781  0.4229  0.2746 -0.3116
  327MOL0     C44043   8.626   0.787   9.850 -0.1849 -0.1961  0.0827
  327MOL0     C44044   8.522   0.718   9.799 -0.7935 -0.3483 -0.3546
  327MOL0     C44045   8.477   0.749   9.674  0.5839 -0.7343  0.2643
  327MOL0     O44046   8.359   0.696   9.631 -0.4658 -0.1956  0.5637
  327MOL0     C44047   8.316   0.685   9.496  0.1627 -0.1694  0.9820
  327MOL0     C44048   8.207   0.578   9.490 -0.0462  0.9890 -0.3165
  327MOL0     C44049   8.140   0.548   9.347 -0.3628 -0.2214 -0.2817
  327MOL0     C44050   8.049   0.421   9.351  0.4872 -0.8727 -1.5295
  327MOL0     C44051   7.946   0.417   9.237 -0.5639  0.9406 -0.1142
  327MOL0     C44052   7.837   0.320   9.271  0.2083 -0.0051 -0.2012
  327MOL0     C44053   7.884   0.181   9.298  0.2237  0.2082  0.9092
  327MOL0     C44054   7.753   0.107   9.323 -0.7804 -0.2933  0.4613
  327MOL0    Cl44055   7.783  -0.066   9.303 -0.1904  0.6721  0.1349
  327MOL0     C44056   8.548   0.841   9.594 -1.2596  0.2127 -0.1272
  327MOL0     C44057   8.659   0.909   9.648  0.5440  0.5209 -0.2242
  327MOL0     O44058   8.686   1.016  10.023  0.9660 -0.4380  0.9782
  327MOL0     C44059   9.039   1.010   9.945  0.9656 -0.7565  0.1249
  327MOL0     C44060   9.163   1.061   9.988  0.6185 -0.4786  0.8604
  327MOL0     N44061   9.825   1.525  10.048 -0.3942  0.5679  0.3249
  327MOL0     N44062   9.954   1.488  10.034  0.0789 -0.3159  0.4066
  327MOL0     C44063   9.945   2.211  10.187 -0.9934 -0.5505  0.2174
  327MOL0     C44064   9.867   2.324  10.163  0.4165  0.5368  0.2942
  327MOL0     C44065   9.687   2.716  10.111  0.2508  0.1778 -0.9522
  327MOL0     C44066   9.656   2.767  10.246 -0.9862 -0.7863  1.0228
  327MOL0     C44067   9.571   2.881  10.263  0.0122 -0.9074 -0.1983
  327MOL0     C44068   9.505   2.937  10.147  0.4767 -0.4747 -0.2105
  327MOL0     O44069   9.413   3.036  10.161  0.3114  0.2531 -0.5893
  327MOL0     C44070   9.327   3.086  10.056  0.5708 -0.1557  0.1537
  327MOL0     C44071   9.213   3.173  10.111  0.6372 -0.0529  0.1085
  327MOL0     C44072   9.131   3.077  10.195  0.1029 -0.0246 -0.0958
  327MOL0     C44073   9.024   3.142  10.285 -0.5011  0.0747 -0.5939
  327MOL0     C44074   8.914   3.222  10.219 -0.1740 -1.2496  0.7049
  327MOL0     C44075   8.846   3.270  10.129  1.2046 -0.9678 -0.9507
  327MOL0     C44076   9.527   2.881  10.021 -0.1835  0.0616  0.2460
  327MOL0     C44077   9.614   2.772  10.012 -0.8405  0.4197  0.1037
  327MOL0     H44078  10.074   2.554  10.306  0.0843  0.1692 -0.7531
  327MOL0     H44079  10.210   2.338  10.352 -1.1513  1.3554  1.8011
  327MOL0     H44080  10.333   2.157  10.209  0.2232 -2.4652 -1.2375
  327MOL0     H44081  10.276   2.137  10.384  1.3293  2.0600 -1.2964
  327MOL0     H44082  10.380   1.935  10.175 -1.2329  0.3902  0.3288
  327MOL0     H44083  10.446   1.976  10.331 -1.0738 -0.2881  2.5068
  327MOL0     H44084  10.214   1.891  10.434  0.6694  1.2143 -0.0916
  327MOL0     H44085  10.171   1.851  10.265  0.1356  0.8578 -0.8563
  327MOL0     H44086  10.366   1.716  10.232 -1.9036  0.2966 -0.4668
  327MOL0     H44087  10.422   1.751  10.398  0.2322 -1.2849  0.1660
  327MOL0     H44088  10.346   1.541  10.419 -1.1898 -2.8699 -1.3962
  327MOL0     H44089  10.204   1.635  10.468 -1.0028  0.1481 -0.0642
  327MOL0     H44090  10.087   1.589  10.270 -0.6473  0.2862 -0.2161
  327MOL0     H44091  10.237   1.558  10.174  0.0423  0.6835  0.1602
  327MOL0     H44092  10.281   1.366  10.295  0.2889  2.7329  3.2909
  327MOL0     H44093  10.134   1.387  10.379 -0.4962  2.9531  0.3490
  327MOL0     H44094  10.109   1.224  10.179  0.4391  0.4266  0.9245
  327MOL0     H44095  10.165   1.345  10.070  1.8996  1.0890  0.7604
  327MOL0     H44096   9.850   1.279  10.270 -2.3034  0.6287  0.2481
  327MOL0     H44097   9.645   1.411  10.313 -1.9163 -1.2132 -0.8288
  327MOL0     H44098   9.614   1.564  10.237  3.2811  1.3391  1.4980
  327MOL0     H44099   9.532   1.413  10.028  1.0084  2.6885 -0.4794
  327MOL0     H44100   9.422   1.439  10.173 -0.7914 -1.8188  0.3141
  327MOL0     H44101   9.517   1.224  10.271  1.2205  2.4000  1.1225
  327MOL0     H44102   9.623   1.198  10.135 -1.0806 -2.8093 -1.4681
  327MOL0     H44103   9.448   1.062  10.077 -0.0573 -0.1361 -1.1035
  327MOL0     H44104   9.416   1.193   9.977 -0.0788  0.3779 -0.5370
  327MOL0     H44105   9.075   1.251  10.253  0.3632  1.9096 -1.4231
  327MOL0     H44106   8.743   1.237  10.138 -0.2271 -2.2278  0.1344
  327MOL0     H44107   8.780   1.123  10.273  2.7152  2.1814  3.0558
  327MOL0     H44108   8.852   1.279  10.277  0.1765 -0.3010  1.8505
  327MOL0     H44109   8.635   0.766   9.957  0.9240 -0.6248 -0.0795
  327MOL0     H44110   8.468   0.644   9.857  0.1218 -0.1589  0.7750
  327MOL0     H44111   8.287   0.783   9.457  4.5240  2.4308  3.5100
  327MOL0     H44112   8.396   0.654   9.428  0.8570  1.2770  1.0991
  327MOL0     H44113   8.255   0.488   9.528  1.7647  0.5632 -3.2725
  327MOL0     H44114   8.130   0.608   9.562 -0.1041  1.0962 -0.4209
  327MOL0     H44115   8.219   0.527   9.275  0.8555 -1.3045  1.3146
  327MOL0     H44116   8.089   0.640   9.316  0.3451  1.5487  3.2900
  327MOL0     H44117   8.109   0.330   9.361  2.0402  0.2301 -0.0742
  327MOL0     H44118   7.998   0.426   9.448  1.4554 -0.4779 -1.0202
  327MOL0     H44119   7.990   0.380   9.144 -2.9012  0.1633 -0.9897
  327MOL0     H44120   7.901   0.516   9.227  3.9888  3.7578  3.5850
  327MOL0     H44121   7.789   0.367   9.357  3.5197 -0.6439  2.2019
  327MOL0     H44122   7.760   0.317   9.194  0.6985 -1.1443 -0.6696
  327MOL0     H44123   7.941   0.165   9.390  0.1715 -0.7815  0.7855
  327MOL0     H44124   7.934   0.132   9.214  2.6748  0.0933  2.3355
  327MOL0     H44125   7.680   0.135   9.246  0.2373  0.4063 -0.2784
  327MOL0     H44126   7.720   0.146   9.420  1.7754 -1.1922  1.7554
  327MOL0     H44127   8.511   0.859   9.494 -3.9930 -0.8500  0.5921
  327MOL0     H44128   8.718   0.990   9.606  2.4569 -0.1944  0.9577
  327MOL0     H44129   9.040   0.945   9.858 -1.9195 -1.5784  0.5739
  327MOL0     H44130   9.249   1.018   9.938  0.3876 -1.3079  1.1593
  327MOL0     H44131   9.918   2.127  10.123 -0.6121  1.8891 -3.4548
  327MOL0     H44132   9.770   2.319  10.115  0.0712 -0.9476  1.0977
  327MOL0     H44133   9.688   2.716  10.336  0.7878 -0.1832  0.7847
  327MOL0     H44134   9.555   2.916  10.365  2.2473 -0.4664  0.0697
  327MOL0     H44135   9.394   3.151  10.000 -0.4333  2.6503  1.9794
  327MOL0     H44136   9.277   3.005  10.003 -0.7697  0.7312  0.0187
  327MOL0     H44137   9.154   3.224  10.034 -1.2363  3.9557  3.7238
  327MOL0     H44138   9.250   3.245  10.185  0.9789 -1.5487  1.4418
  327MOL0     H44139   9.204   3.027  10.261  0.0070  0.1190  0.1195
  327MOL0     H44140   9.088   2.994  10.137  0.1470 -0.1158  0.0010
  327MOL0     H44141   9.085   3.210  10.344 -0.9277  0.4374 -0.5679
  327MOL0     H44142   8.967   3.064  10.338 -1.6955  0.8240 -0.7295
  327MOL0     H44143   8.779   3.315  10.058  0.9841  2.7688  1.3257
  327MOL0     H44144   9.465   2.915   9.939  0.7764 -0.6427 -0.8009
  327MOL0     H44145   9.633   2.713   9.923  0.5012 -0.5886  1.0281
  328MOL0     O44146   3.365   2.573   6.044  0.5921 -0.4014 -0.3481
  328MOL0     C44147   3.413   2.687   6.074 -0.3994 -0.1941  0.8433
  328MOL0     O44148   3.346   2.804   6.041  0.2264 -0.0631  0.4839
  328MOL0     C44149   3.210   2.799   6.010  1.3591  0.1003 -0.0777
  328MOL0     C44150   3.112   2.724   6.082 -0.4392 -0.7243 -0.0894
  328MOL0     C44151   2.976   2.718   6.041 -0.9440  0.0202  0.3532
  328MOL0     C44152   2.934   2.806   5.939  0.0602 -0.0762 -0.5441
  328MOL0     O44153   2.800   2.801   5.916 -0.3737 -0.2835 -0.1913
  328MOL0     C44154   2.749   2.916   5.852 -0.2250  0.5325 -0.2000
  328MOL0     C44155   2.596   2.903   5.851  0.4053  0.2857 -0.3876
  328MOL0     C44156   2.547   2.862   5.990  0.5344 -0.3369  0.2547
  328MOL0     C44157   2.425   2.948   6.027 -0.3173 -0.3802  0.2357
  328MOL0     C44158   2.342   2.872   6.133 -0.7857  0.8065 -0.4750
  328MOL0     C44159   2.235   2.961   6.206 -0.6262  0.8924  0.2990
  328MOL0     C44160   2.179   2.874   6.316 -0.1537  0.1934 -0.7027
  328MOL0     C44161   2.100   2.958   6.417 -0.5521 -0.6876  0.3621
  328MOL0     N44162   2.007   3.062   6.364  0.4858 -0.4300 -0.2910
  328MOL0     C44163   2.046   3.187   6.323  1.1083  0.3114  0.4768
  328MOL0     C44164   1.926   3.240   6.297  0.2656  0.6432  0.1796
  328MOL0     C44165   1.921   3.375   6.216 -0.7175  0.2664 -0.3146
  328MOL0     C44166   1.982   3.362   6.070 -0.0037  0.6060 -0.7495
  328MOL0     C44167   1.906   3.257   5.985  0.2026  0.1031  0.7299
  328MOL0     C44168   1.956   3.241   5.840  0.5422 -1.3694  0.3237
  328MOL0     O44169   2.023   3.122   5.838 -0.1249  0.2422 -0.1040
  328MOL0     C44170   2.022   3.042   5.721 -0.5397  0.0364 -0.5458
  328MOL0     C44171   1.984   3.073   5.591 -0.1928  0.1665 -0.4067
  328MOL0     C44172   1.961   2.971   5.495 -0.6230 -0.0812 -0.6013
  328MOL0     C44173   1.904   3.011   5.357 -0.0940 -0.0977 -0.4171
  328MOL0     C44174   1.998   2.838   5.531 -0.1498  0.3320 -0.1933
  328MOL0     C44175   1.979   2.723   5.442  0.0204  0.3400  0.3223
  328MOL0     O44176   1.957   2.745   5.315  0.4336  0.1743  0.7140
  328MOL0     C44177   1.971   2.639   5.224  0.5482  0.9273 -0.1294
  328MOL0     C44178   1.860   2.621   5.133  0.0736  0.2964  0.0526
  328MOL0     C44179   1.877   2.528   5.029 -0.7898  0.3354  0.5614
  328MOL0     C44180   1.992   2.443   5.014 -0.1296  0.6895 -0.1749
  328MOL0     O44181   2.003   2.348   4.911  0.1836  0.3852 -0.5299
  328MOL0     C44182   1.879   2.303   4.845 -0.0654 -0.9292 -0.6497
  328MOL0     C44183   1.913   2.210   4.738  0.0803 -0.2486  0.4936
  328MOL0     C44184   2.008   2.095   4.789  0.2195  0.8362  0.0539
  328MOL0     C44185   2.013   1.971   4.703 -0.2910  0.4647 -0.6022
  328MOL0     C44186   2.068   1.848   4.780  0.1328 -0.0403 -0.5128
  328MOL0     C44187   2.197   1.863   4.857 -0.0573 -0.2147 -0.3944
  328MOL0     C44188   2.233   1.722   4.926 -0.0362 -0.5587  0.2890
  328MOL0     C44189   2.330   1.642   4.833 -0.6554 -0.0758 -0.4483
  328MOL0    Cl44190   2.493   1.721   4.809  0.1873 -0.4929  0.1719
  328MOL0     C44191   2.091   2.453   5.112 -0.1555  0.3749  0.3024
  328MOL0     C44192   2.079   2.549   5.212  0.2048 -0.8116 -0.0462
  328MOL0     O44193   1.985   2.610   5.494  0.2925  0.1031  0.2316
  328MOL0     C44194   2.046   2.809   5.664 -0.1786 -1.1043  0.5281
  328MOL0     C44195   2.068   2.920   5.744  0.7959  0.7258 -0.3133
  328MOL0     N44196   1.819   3.155   6.315  0.5748 -0.8362 -0.5298
  328MOL0     N44197   1.867   3.044   6.357 -0.0365  0.0582 -0.7472
  328MOL0     C44198   3.029   2.880   5.869 -0.1058 -0.0141  0.0413
  328MOL0     C44199   3.163   2.868   5.899  0.3982  1.0487  0.2248
  328MOL0     C44200   3.533   2.695   6.140 -0.2521 -0.8648 -1.3352
  328MOL0     C44201   3.618   2.589   6.147 -0.4400  0.6268 -0.8577
  328MOL0     C44202   3.736   2.598   6.224 -0.3925  0.8469  0.5151
  328MOL0     C44203   3.769   2.712   6.292  0.3341  0.3651  0.6395
  328MOL0     O44204   3.893   2.718   6.346 -1.0744 -1.6598 -0.3078
  328MOL0     C44205   3.901   2.773   6.474  0.1245  0.0784  0.3272
  328MOL0     C44206   3.987   2.675   6.552  0.9313 -0.3768 -0.1984
  328MOL0     C44207   3.934   2.533   6.539  0.0414  0.3234  0.8470
  328MOL0     C44208   4.005   2.452   6.436 -0.1631  1.3568  0.8702
  328MOL0     C44209   4.139   2.412   6.479 -0.1466 -0.4464  0.0215
  328MOL0     C44210   4.253   2.379   6.511  1.0274  0.7197 -0.2816
  328MOL0     C44211   3.691   2.824   6.282 -0.3900  0.2437 -0.0210
  328MOL0     C44212   3.573   2.816   6.209  0.0628 -0.4255 -0.1913
  328MOL0     H44213   3.144   2.678   6.175  1.7827 -3.1833 -1.9089
  328MOL0     H44214   2.907   2.648   6.087 -0.3338 -0.2357  0.8887
  328MOL0     H44215   2.778   3.009   5.902  1.0838  0.8761 -1.5089
  328MOL0     H44216   2.787   2.919   5.749 -1.0611  1.9071 -0.4984
  328MOL0     H44217   2.552   3.001   5.828  0.1929  0.4917  0.8241
  328MOL0     H44218   2.570   2.826   5.778  1.0363 -1.1124  0.8038
  328MOL0     H44219   2.514   2.758   5.982  0.3640 -0.2140 -0.8621
  328MOL0     H44220   2.631   2.871   6.059  0.4096 -2.5250  0.7656
  328MOL0     H44221   2.448   3.048   6.063  1.1963  0.2279 -2.1454
  328MOL0     H44222   2.355   2.967   5.944  0.3476  0.2677 -0.1896
  328MOL0     H44223   2.287   2.789   6.087  0.9947 -1.0820  0.6565
  328MOL0     H44224   2.422   2.824   6.190  1.9680 -0.5677 -4.9805
  328MOL0     H44225   2.277   3.050   6.252 -3.0964  2.8889 -1.0798
  328MOL0     H44226   2.159   2.987   6.132 -2.6387 -4.1704  0.1367
  328MOL0     H44227   2.110   2.802   6.270 -0.5875  0.5923 -0.6765
  328MOL0     H44228   2.251   2.816   6.374 -2.0956  0.5422  2.3226
  328MOL0     H44229   2.169   3.013   6.482 -1.5420  0.2004  0.6913
  328MOL0     H44230   2.045   2.889   6.482 -2.5492  1.0914  0.6757
  328MOL0     H44231   2.148   3.224   6.322  2.6011 -3.4472 -0.1841
  328MOL0     H44232   1.819   3.414   6.204 -1.8661 -2.4144 -0.0382
  328MOL0     H44233   1.979   3.451   6.269 -2.1689  1.4189 -0.3237
  328MOL0     H44234   2.087   3.334   6.079  0.3742  1.4908 -2.2350
  328MOL0     H44235   1.993   3.450   6.007  0.8833 -0.7682 -2.6030
  328MOL0     H44236   1.802   3.290   5.974 -0.1547 -0.2538  2.7737
  328MOL0     H44237   1.899   3.159   6.033  0.6469  0.1189  0.8280
  328MOL0     H44238   2.028   3.321   5.819 -1.2698  0.4805  0.8199
  328MOL0     H44239   1.869   3.245   5.773  1.0591  1.1100 -0.2839
  328MOL0     H44240   1.952   3.175   5.572  1.2796  0.6763 -0.2414
  328MOL0     H44241   1.813   2.954   5.336 -0.6706  1.3147 -2.0342
  328MOL0     H44242   1.878   3.117   5.370 -0.1760 -0.2877  1.1161
  328MOL0     H44243   1.965   3.003   5.266 -0.3491 -0.7976 -0.5300
  328MOL0     H44244   1.773   2.685   5.136  0.0174  0.3674 -1.9918
  328MOL0     H44245   1.798   2.543   4.956 -0.0987  1.2764 -0.0292
  328MOL0     H44246   1.804   2.263   4.914  0.1745 -0.4150 -0.0796
  328MOL0     H44247   1.828   2.387   4.798  0.6912  0.7123  1.3401
  328MOL0     H44248   1.820   2.156   4.718 -1.5246  2.3823  0.3809
  328MOL0     H44249   1.954   2.260   4.650 -0.4297 -0.2732  0.2336
  328MOL0     H44250   1.983   2.067   4.892 -0.4343 -3.6457 -1.0801
  328MOL0     H44251   2.107   2.138   4.805  1.1855 -2.0993  3.2132
  328MOL0     H44252   1.914   1.959   4.659 -0.1118  0.5602 -1.0366
  328MOL0     H44253   2.079   1.974   4.616 -0.1866  0.7478 -0.5150
  328MOL0     H44254   2.066   1.767   4.706  0.6307  0.3390 -0.9487
  328MOL0     H44255   1.988   1.818   4.849  3.4526 -1.1200  3.2273
  328MOL0     H44256   2.286   1.899   4.805  0.7932  1.1120  1.8093
  328MOL0     H44257   2.180   1.932   4.940 -1.9712  1.0745 -1.7712
  328MOL0     H44258   2.142   1.661   4.925  0.0029 -0.6898 -2.2854
  328MOL0     H44259   2.281   1.731   5.023  2.4724  0.8690 -0.9888
  328MOL0     H44260   2.287   1.629   4.734 -1.7236  1.7782 -0.2843
  328MOL0     H44261   2.355   1.546   4.879 -1.4052  0.1670  0.5160
  328MOL0     H44262   2.191   2.417   5.089  0.3451  1.9232 -0.1054
  328MOL0     H44263   2.164   2.550   5.279 -0.2503 -0.6570  0.5346
  328MOL0     H44264   2.080   2.714   5.704  2.0415 -0.1415  1.1055
  328MOL0     H44265   2.108   2.883   5.838 -0.3038 -0.0066 -0.1210
  328MOL0     H44266   3.009   2.943   5.783  1.4506 -0.5054 -0.7233
  328MOL0     H44267   3.222   2.932   5.835  2.8804 -2.6608 -1.5961
  328MOL0     H44268   3.583   2.502   6.092 -0.8730 -2.5947  3.8840
  328MOL0     H44269   3.806   2.515   6.218 -0.6538  0.6679 -4.7754
  328MOL0     H44270   3.944   2.872   6.458  0.0338 -0.0321 -0.6775
  328MOL0     H44271   3.806   2.788   6.527  0.3270 -0.2859  0.8000
  328MOL0     H44272   3.981   2.702   6.658  1.7826  1.5294 -0.5899
  328MOL0     H44273   4.089   2.691   6.516  1.6038 -2.4825  0.6457
  328MOL0     H44274   3.825   2.520   6.530  0.3658 -2.4146 -0.1893
  328MOL0     H44275   3.950   2.480   6.634  0.4646  0.1349  0.6712
  328MOL0     H44276   4.005   2.496   6.336  1.5203 -2.2473 -0.9246
  328MOL0     H44277   3.946   2.359   6.439  2.2629 -0.2604  2.3300
  328MOL0     H44278   4.356   2.368   6.535  1.3427  1.1932 -1.3525
  328MOL0     H44279   3.710   2.909   6.346  0.9957 -1.3200  1.7644
  328MOL0     H44280   3.501   2.897   6.219  0.6858  0.2954 -1.4083
  329MOL0     O44281   7.221   4.570   0.763 -0.6560  0.6966 -0.6013
  329MOL0     C44282   7.157   4.476   0.724 -0.1867  0.0321  0.3553
  329MOL0     O44283   7.149   4.353   0.783 -0.9128  0.4013  0.5476
  329MOL0     C44284   7.174   4.329   0.921  0.0728 -0.1004 -0.1426
  329MOL0     C44285   7.164   4.189   0.941 -0.1399 -0.2897 -0.0953
  329MOL0     C44286   7.174   4.141   1.069 -0.1861  0.3102  0.2594
  329MOL0     C44287   7.186   4.231   1.178 -0.2562 -0.7621 -0.6118
  329MOL0     O44288   7.176   4.167   1.299  0.0466  0.8983  0.1432
  329MOL0     C44289   7.156   4.252   1.412 -0.9064 -0.7215  0.4936
  329MOL0     C44290   7.099   4.170   1.536  0.4145 -0.2611  0.7422
  329MOL0     C44291   7.179   4.049   1.575  0.2374 -0.6531  0.4190
  329MOL0     C44292   7.148   3.990   1.709  0.2323 -0.4418 -0.0026
  329MOL0     C44293   7.217   3.852   1.732  0.7092 -0.1875 -0.4479
  329MOL0     C44294   7.156   3.797   1.860 -0.2013  0.3238  0.8259
  329MOL0     C44295   7.228   3.667   1.891 -0.0530 -0.9407 -0.1220
  329MOL0     C44296   7.194   3.561   1.796 -0.0484 -0.6991 -0.1000
  329MOL0     N44297   7.226   3.419   1.837  0.2093  0.2536 -0.3561
  329MOL0     C44298   7.227   3.314   1.748  0.7067 -0.0694 -0.0559
  329MOL0     C44299   7.249   3.202   1.820  0.2442  0.0516  0.5393
  329MOL0     C44300   7.269   3.054   1.764  0.6566 -0.3423 -0.4677
  329MOL0     C44301   7.417   3.017   1.754 -0.5304 -0.3567  1.1006
  329MOL0     C44302   7.419   2.870   1.689  0.0839 -1.1579  0.1993
  329MOL0     C44303   7.563   2.817   1.652  0.4972  0.0797  0.8068
  329MOL0     O44304   7.545   2.687   1.607 -0.5866  0.0372 -0.6373
  329MOL0     C44305   7.655   2.607   1.587 -0.2756  0.4853  0.6682
  329MOL0     C44306   7.780   2.623   1.658  0.6501 -0.3590  0.4192
  329MOL0     C44307   7.878   2.523   1.649  0.4232  0.3934 -0.2344
  329MOL0     C44308   8.011   2.532   1.722 -0.4149  0.1991  0.1359
  329MOL0     C44309   7.847   2.407   1.571 -0.1678  0.3538 -1.2254
  329MOL0     C44310   7.936   2.290   1.558 -0.3346  0.0496  1.3365
  329MOL0     O44311   8.010   2.236   1.659 -0.0252 -0.2006  0.3507
  329MOL0     C44312   8.103   2.145   1.612  0.2982  0.7014  0.0488
  329MOL0     C44313   8.232   2.171   1.558 -0.5444 -0.2099  0.3161
  329MOL0     C44314   8.314   2.066   1.527 -0.6887 -0.3891  0.2957
  329MOL0     C44315   8.269   1.929   1.544 -0.2390 -0.3267 -0.1399
  329MOL0     O44316   8.368   1.839   1.509 -0.0656 -0.3805 -0.3455
  329MOL0     C44317   8.344   1.713   1.577  0.4235  0.7234 -0.0421
  329MOL0     C44318   8.490   1.638   1.594  0.3620  0.4243  0.1522
  329MOL0     C44319   8.490   1.494   1.640 -0.0024  0.5448  0.7371
  329MOL0     C44320   8.631   1.436   1.596 -0.1759  0.3709  0.1087
  329MOL0     C44321   8.747   1.454   1.698  0.9211  0.0438 -0.2496
  329MOL0     C44322   8.885   1.414   1.651  0.6490 -0.2384 -0.0048
  329MOL0     C44323   8.996   1.472   1.741  0.1166  0.6001  0.2957
  329MOL0     C44324   9.136   1.412   1.723 -0.3328  0.5470 -0.1400
  329MOL0    Cl44325   9.210   1.472   1.571  0.6213 -0.0967 -0.0582
  329MOL0     C44326   8.136   1.906   1.583 -0.0949  1.0308  0.4328
  329MOL0     C44327   8.061   2.010   1.624  0.8144 -0.1809 -0.5839
  329MOL0     O44328   7.941   2.252   1.444  0.6342  1.2953  0.3908
  329MOL0     C44329   7.729   2.404   1.493  0.0882 -0.0739 -0.1516
  329MOL0     C44330   7.635   2.501   1.506 -0.0160  0.3348 -0.5765
  329MOL0     N44331   7.270   3.239   1.949 -0.0594  0.1930 -0.4449
  329MOL0     N44332   7.256   3.372   1.961  0.3071  0.3558  0.7500
  329MOL0     C44333   7.189   4.369   1.158  1.1243  0.2856  0.5153
  329MOL0     C44334   7.193   4.418   1.035  0.1741 -0.1979 -0.6444
  329MOL0     C44335   7.092   4.504   0.592  0.7078 -0.3318  0.7214
  329MOL0     C44336   7.109   4.617   0.518  0.8999 -0.4029  0.3301
  329MOL0     C44337   7.065   4.634   0.388  0.0112 -0.5170  1.6829
  329MOL0     C44338   6.988   4.538   0.320  0.2272 -0.9835  0.3453
  329MOL0     O44339   6.944   4.558   0.186 -0.3637  0.6104  0.6000
  329MOL0     C44340   6.910   4.694   0.139  0.4467  0.0950  0.1514
  329MOL0     C44341   6.874   4.683  -0.009  0.1566 -0.8304 -0.5785
  329MOL0     C44342   6.733   4.629  -0.029 -0.0294  0.5001 -0.2908
  329MOL0     C44343   6.690   4.651  -0.178  0.3592 -0.3761  0.4302
  329MOL0     C44344   6.779   4.592  -0.276  0.4006  0.2297 -0.9890
  329MOL0     C44345   6.862   4.538  -0.347 -0.3849  0.1468  1.0824
  329MOL0     C44346   6.965   4.418   0.390 -0.1048 -0.0263  0.0750
  329MOL0     C44347   7.016   4.409   0.524  0.5594  0.8434 -0.2142
  329MOL0     H44348   7.149   4.121   0.857 -1.2141 -3.9821  2.8057
  329MOL0     H44349   7.159   4.037   1.096  1.7054  0.1124  0.6777
  329MOL0     H44350   7.253   4.293   1.444 -0.7408 -1.3395  0.8035
  329MOL0     H44351   7.086   4.335   1.402  0.2428  0.3152  0.7350
  329MOL0     H44352   7.088   4.237   1.621 -1.1070  1.2587 -0.5648
  329MOL0     H44353   6.998   4.144   1.504  0.8066 -0.2349 -0.6143
  329MOL0     H44354   7.167   3.976   1.495  0.8160 -1.1792  0.8017
  329MOL0     H44355   7.285   4.078   1.574 -0.1392  0.8722  1.1992
  329MOL0     H44356   7.192   4.050   1.789  2.3569 -0.7279 -0.8874
  329MOL0     H44357   7.040   3.981   1.726 -0.1328  0.1081 -1.7449
  329MOL0     H44358   7.195   3.777   1.656 -1.4967 -0.1467  0.0701
  329MOL0     H44359   7.325   3.868   1.738  0.7150  0.0622 -1.0829
  329MOL0     H44360   7.178   3.869   1.939 -2.8387 -0.0162  1.9709
  329MOL0     H44361   7.051   3.769   1.860  0.2254 -1.4143  1.3660
  329MOL0     H44362   7.336   3.684   1.890 -0.1161 -0.3934  0.8343
  329MOL0     H44363   7.196   3.638   1.992 -0.0274 -0.7771 -0.0670
  329MOL0     H44364   7.253   3.579   1.705  3.4668  2.5065  2.4719
  329MOL0     H44365   7.089   3.580   1.775 -0.1147 -0.6174  0.3058
  329MOL0     H44366   7.218   3.327   1.640 -0.7488  2.7529  0.3044
  329MOL0     H44367   7.213   2.984   1.826 -0.6777 -0.6015 -1.8981
  329MOL0     H44368   7.217   3.049   1.668  4.4115  1.0222 -2.8270
  329MOL0     H44369   7.466   3.023   1.851  1.0552  3.9707  0.2445
  329MOL0     H44370   7.472   3.086   1.689 -1.6210 -1.6598 -1.3611
  329MOL0     H44371   7.354   2.876   1.601  0.5592  2.0978 -0.0463
  329MOL0     H44372   7.363   2.802   1.755  0.7093 -1.7672  0.1084
  329MOL0     H44373   7.622   2.815   1.744 -1.5586 -1.3610  2.1750
  329MOL0     H44374   7.613   2.873   1.573 -0.3228 -2.2741 -1.5401
  329MOL0     H44375   7.797   2.707   1.725  2.4139 -1.7600  1.8255
  329MOL0     H44376   8.025   2.626   1.778  3.1534 -1.4508  2.4354
  329MOL0     H44377   8.025   2.451   1.795 -2.2440  1.5475  2.1069
  329MOL0     H44378   8.088   2.534   1.644  2.3390  2.3707  2.6669
  329MOL0     H44379   8.259   2.276   1.554  1.5686 -0.7453 -2.0727
  329MOL0     H44380   8.410   2.070   1.476 -1.3473 -2.2185 -1.2008
  329MOL0     H44381   8.316   1.729   1.681 -1.6076  0.6479 -0.5416
  329MOL0     H44382   8.279   1.643   1.523 -0.9267 -1.5110  4.0915
  329MOL0     H44383   8.537   1.644   1.495  0.8899 -2.9919  0.0789
  329MOL0     H44384   8.544   1.694   1.670 -1.9473  0.4635  1.8765
  329MOL0     H44385   8.411   1.436   1.591 -0.3743  0.2809  1.6107
  329MOL0     H44386   8.472   1.487   1.748  0.9376  3.2846  1.1598
  329MOL0     H44387   8.610   1.329   1.589  1.0516 -0.0527  2.0727
  329MOL0     H44388   8.670   1.478   1.503 -1.8894  1.5264 -0.1301
  329MOL0     H44389   8.727   1.404   1.793 -0.6339  1.4468  0.2075
  329MOL0     H44390   8.740   1.558   1.729  0.5116 -0.4344  1.3739
  329MOL0     H44391   8.899   1.305   1.655  2.1540 -0.0411  1.0670
  329MOL0     H44392   8.900   1.427   1.544 -2.8439 -4.1328 -1.2251
  329MOL0     H44393   8.970   1.469   1.847 -0.8846 -0.0078  0.0490
  329MOL0     H44394   9.010   1.576   1.712 -0.8644  0.7164  0.1989
  329MOL0     H44395   9.134   1.303   1.730 -1.4408  0.5275 -0.5406
  329MOL0     H44396   9.205   1.441   1.803  0.6047  2.8472 -1.6760
  329MOL0     H44397   8.102   1.804   1.601 -0.9376  1.4500  1.2835
  329MOL0     H44398   7.960   1.988   1.658  1.2008  1.5809  2.0256
  329MOL0     H44399   7.719   2.317   1.429  1.0899 -0.1955 -0.1643
  329MOL0     H44400   7.539   2.504   1.455  0.3990  0.7852 -1.3287
  329MOL0     H44401   7.181   4.447   1.234  1.5003  1.1479 -0.3086
  329MOL0     H44402   7.185   4.525   1.017 -1.3429 -0.1191  0.2699
  329MOL0     H44403   7.156   4.705   0.561  0.6239 -0.0876 -0.0058
  329MOL0     H44404   7.096   4.727   0.341  0.2281 -0.4074  2.0412
  329MOL0     H44405   6.825   4.734   0.195  0.2403  2.7512 -1.8889
  329MOL0     H44406   6.994   4.763   0.144  1.2255 -0.7387 -0.9788
  329MOL0     H44407   6.949   4.618  -0.055  2.3481  0.8472  0.4326
  329MOL0     H44408   6.879   4.774  -0.069 -1.4794 -1.6726 -2.0915
  329MOL0     H44409   6.678   4.692   0.042 -0.1404 -0.5178  0.5543
  329MOL0     H44410   6.732   4.523  -0.002  1.9723  0.1910 -1.2497
  329MOL0     H44411   6.687   4.757  -0.205  0.9039 -0.5343 -0.2685
  329MOL0     H44412   6.596   4.603  -0.208 -0.5003  1.3976  0.1293
  329MOL0     H44413   6.922   4.470  -0.404 -2.6089 -1.4730  0.5597
  329MOL0     H44414   6.915   4.338   0.338 -0.3615  0.0666  0.1786
  329MOL0     H44415   6.985   4.315   0.568 -0.0922 -0.3339 -3.0055
  330MOL0     O44416   7.244   1.308   1.098  0.1070  0.4822  0.2626
  330MOL0     C44417   7.335   1.376   1.132  0.1936 -0.5753 -0.3011
  330MOL0     O44418   7.454   1.330   1.186  0.6219  0.9836 -0.3114
  330MOL0     C44419   7.484   1.195   1.170  0.8774 -0.2040  1.1238
  330MOL0     C44420   7.407   1.092   1.237  0.5362 -0.4575 -0.3494
  330MOL0     C44421   7.429   0.958   1.213 -0.2733  0.1110  0.6912
  330MOL0     C44422   7.537   0.921   1.127  0.1883  0.2355  0.0364
  330MOL0     O44423   7.541   0.795   1.096  0.0474  0.8524 -0.3634
  330MOL0     C44424   7.631   0.752   0.996 -0.4786 -0.7115 -0.4777
  330MOL0     C44425   7.615   0.608   0.981  0.4616  0.4790  0.0808
  330MOL0     C44426   7.707   0.515   1.060  0.5976  0.4038 -0.8138
  330MOL0     C44427   7.632   0.393   1.121  0.5947 -0.4601  0.0003
  330MOL0     C44428   7.712   0.260   1.127  0.4200  0.2598  0.4047
  330MOL0     C44429   7.759   0.225   0.981 -1.1750  0.4575 -0.1564
  330MOL0     C44430   7.749   0.080   0.967  0.4617  0.4920  0.4798
  330MOL0     C44431   7.803   0.008   0.841  0.4836  0.0345 -0.2441
  330MOL0     N44432   7.694  -0.025   0.751  0.7787  0.0385  0.2378
  330MOL0     C44433   7.600   0.059   0.687 -1.1216 -0.7882  0.0273
  330MOL0     C44434   7.545  -0.004   0.586 -0.1337 -0.2000 -0.2488
  330MOL0     C44435   7.467   0.056   0.472  0.5576  1.1927 -0.1191
  330MOL0     C44436   7.313   0.034   0.487  0.6826  0.3482  0.9965
  330MOL0     C44437   7.240   0.031   0.355 -0.4682 -0.7136 -0.0380
  330MOL0     C44438   7.249   0.167   0.284 -0.7766  0.0580 -0.7330
  330MOL0     O44439   7.182   0.265   0.354  0.8310 -0.4295  0.3131
  330MOL0     C44440   7.222   0.395   0.333  1.1151  0.9043 -0.3266
  330MOL0     C44441   7.283   0.461   0.433  0.5058 -0.0486  0.2311
  330MOL0     C44442   7.319   0.589   0.418  0.4038 -0.3541 -0.7103
  330MOL0     C44443   7.399   0.655   0.536 -0.3186 -0.8426 -0.8114
  330MOL0     C44444   7.290   0.662   0.298  1.0215  0.3498  0.4235
  330MOL0     C44445   7.303   0.804   0.263  0.5578 -0.4541 -0.2546
  330MOL0     O44446   7.321   0.835   0.127  0.4606  0.5498  0.7318
  330MOL0     C44447   7.307   0.968   0.085  0.7581 -0.6780 -0.0390
  330MOL0     C44448   7.418   1.062   0.089 -0.6081  0.0668  0.1205
  330MOL0     C44449   7.409   1.189   0.029  0.0487 -1.1213 -0.2529
  330MOL0     C44450   7.279   1.233  -0.013 -0.5232  0.7079 -0.0792
  330MOL0     O44451   7.277   1.351  -0.065 -0.1923  0.3857  0.0267
  330MOL0     C44452   7.163   1.439  -0.052  0.2848 -0.1419  0.1784
  330MOL0     C44453   7.179   1.575  -0.105  0.4345  0.5861 -0.1045
  330MOL0     C44454   7.276   1.648  -0.033 -0.3441 -0.4579  0.2543
  330MOL0     C44455   7.287   1.790  -0.093  0.5083  0.4429 -0.2035
  330MOL0     C44456   7.311   1.898   0.010  0.3271  0.4283  0.1752
  330MOL0     C44457   7.168   1.933   0.065 -1.4505 -0.2240  0.2540
  330MOL0     C44458   7.182   2.027   0.186 -0.0693  0.6667  0.0334
  330MOL0     C44459   7.249   1.953   0.305 -0.1454 -0.1298  0.0987
  330MOL0    Cl44460   7.197   2.032   0.457  0.1598  0.6391  0.3102
  330MOL0     C44461   7.171   1.139  -0.014  0.5791  0.2160 -0.4503
  330MOL0     C44462   7.179   1.009   0.029  0.6346  0.1829 -0.0728
  330MOL0     O44463   7.297   0.892   0.356 -0.0805  0.3097  0.0582
  330MOL0     C44464   7.250   0.580   0.187  0.0194 -0.1678  0.5586
  330MOL0     C44465   7.202   0.452   0.210 -0.1490  0.2462  0.7548
  330MOL0     N44466   7.591  -0.135   0.587  0.1809  0.3950  0.6866
  330MOL0     N44467   7.685  -0.143   0.677 -0.0880  0.2546 -0.5317
  330MOL0     C44468   7.622   1.025   1.075 -0.8174 -0.2941 -0.0016
  330MOL0     C44469   7.588   1.160   1.088  0.1437 -0.0532 -0.1750
  330MOL0     C44470   7.297   1.519   1.161 -0.4648  0.4648 -0.0952
  330MOL0     C44471   7.394   1.604   1.212 -0.8222 -0.8441  0.0482
  330MOL0     C44472   7.357   1.727   1.257 -0.7553  0.1823  0.4443
  330MOL0     C44473   7.218   1.767   1.263 -0.0379 -0.1611  0.2440
  330MOL0     O44474   7.196   1.885   1.316 -0.5385  0.0228  0.1583
  330MOL0     C44475   7.072   1.915   1.373  1.5370  0.0964  0.2732
  330MOL0     C44476   7.009   2.010   1.275 -0.0996 -1.3951  0.5278
  330MOL0     C44477   6.865   2.053   1.317  0.0209 -0.3859 -0.1231
  330MOL0     C44478   6.754   2.020   1.218  0.5553  0.1586  0.4890
  330MOL0     C44479   6.742   1.876   1.201 -0.1097  0.7531 -0.6249
  330MOL0     C44480   6.737   1.753   1.187  0.3632 -0.4541  0.1711
  330MOL0     C44481   7.123   1.692   1.196  0.2669  0.0120  0.4127
  330MOL0     C44482   7.158   1.563   1.148 -1.1636  0.3747  0.2347
  330MOL0     H44483   7.326   1.125   1.301 -0.3719  0.1787 -1.7804
  330MOL0     H44484   7.361   0.881   1.247  1.3393 -0.5412  2.6519
  330MOL0     H44485   7.603   0.792   0.898 -2.3020  0.8720  0.6081
  330MOL0     H44486   7.737   0.765   1.017 -0.2063  0.5847 -2.4330
  330MOL0     H44487   7.510   0.582   0.998  0.5568  0.8095  1.3018
  330MOL0     H44488   7.640   0.591   0.876 -0.1778  0.1598 -0.0283
  330MOL0     H44489   7.782   0.482   0.987 -0.0429  0.4111 -1.4886
  330MOL0     H44490   7.771   0.564   1.135 -0.6875  1.3827 -0.3235
  330MOL0     H44491   7.607   0.413   1.226 -0.4136 -0.4121 -0.2377
  330MOL0     H44492   7.541   0.383   1.061  0.8562  1.4951 -0.7889
  330MOL0     H44493   7.799   0.269   1.192  0.1974 -1.4331  0.9759
  330MOL0     H44494   7.660   0.183   1.184  1.8870 -1.7688 -0.8852
  330MOL0     H44495   7.689   0.272   0.911 -3.2045 -1.9890  0.0824
  330MOL0     H44496   7.862   0.258   0.964  0.1775 -1.9241  2.4871
  330MOL0     H44497   7.800   0.032   1.051  1.4697  3.1228  1.4801
  330MOL0     H44498   7.644   0.051   0.977  0.2011  0.4618 -1.9309
  330MOL0     H44499   7.837  -0.090   0.875 -2.5643 -1.3851 -0.9761
  330MOL0     H44500   7.886   0.051   0.783  0.4814  2.1261  1.1992
  330MOL0     H44501   7.581   0.161   0.719  2.9117 -0.0154  0.4799
  330MOL0     H44502   7.483   0.163   0.455 -1.8037  1.4657 -1.0154
  330MOL0     H44503   7.497   0.004   0.381  0.1525  2.8304 -1.2435
  330MOL0     H44504   7.271   0.109   0.554 -0.2992  0.4290  0.3118
  330MOL0     H44505   7.282  -0.058   0.537  0.7116 -1.2439 -1.7113
  330MOL0     H44506   7.134   0.005   0.359 -0.0638 -2.3985  0.5851
  330MOL0     H44507   7.291  -0.045   0.295  1.3282 -3.6198  4.5857
  330MOL0     H44508   7.202   0.160   0.185  2.8289  1.3231 -2.7256
  330MOL0     H44509   7.351   0.202   0.265 -1.0971  1.4568  0.0170
  330MOL0     H44510   7.313   0.400   0.518 -1.9216 -1.7472 -0.0207
  330MOL0     H44511   7.330   0.723   0.586 -1.3802 -0.0865 -3.1628
  330MOL0     H44512   7.440   0.577   0.600 -2.8053 -0.4411  1.4033
  330MOL0     H44513   7.483   0.704   0.484 -1.6529  1.6860 -0.7532
  330MOL0     H44514   7.515   1.024   0.121  0.3709  1.2986 -1.2278
  330MOL0     H44515   7.487   1.263   0.024  1.6340 -2.5306  1.9363
  330MOL0     H44516   7.078   1.395  -0.105 -0.2301  2.3640 -1.2005
  330MOL0     H44517   7.127   1.453   0.051  1.3399  1.8022  0.3341
  330MOL0     H44518   7.217   1.572  -0.207  0.8570 -2.0485  0.0641
  330MOL0     H44519   7.082   1.627  -0.102 -0.2268 -0.0431 -4.4779
  330MOL0     H44520   7.371   1.594  -0.033  0.0377  0.1588  1.7444
  330MOL0     H44521   7.240   1.650   0.070 -1.0694 -1.0510  0.0190
  330MOL0     H44522   7.365   1.802  -0.169  1.5197 -0.6048  0.6299
  330MOL0     H44523   7.198   1.817  -0.151 -0.3830  0.7351  1.2728
  330MOL0     H44524   7.358   1.982  -0.043  0.2450  0.0691 -0.4816
  330MOL0     H44525   7.369   1.868   0.098 -1.8533 -1.3389  1.0918
  330MOL0     H44526   7.115   1.991  -0.012 -0.7822  1.0315  0.7060
  330MOL0     H44527   7.106   1.847   0.091 -0.0590 -1.3411 -0.0301
  330MOL0     H44528   7.082   2.063   0.213 -1.5357 -1.5296 -1.9987
  330MOL0     H44529   7.246   2.113   0.165  3.0312 -1.5024 -0.1248
  330MOL0     H44530   7.358   1.966   0.296 -0.7041  4.1550 -3.4791
  330MOL0     H44531   7.238   1.844   0.306  4.0038 -0.7477 -0.9279
  330MOL0     H44532   7.075   1.165  -0.059  1.2748 -1.1069 -2.9289
  330MOL0     H44533   7.088   0.950   0.018  0.8242 -0.3078  0.8940
  330MOL0     H44534   7.246   0.613   0.084  1.6765 -1.7172 -0.0549
  330MOL0     H44535   7.159   0.390   0.132 -1.5555 -0.4366  2.0191
  330MOL0     H44536   7.709   1.006   1.013  0.3796 -1.0195  1.8207
  330MOL0     H44537   7.654   1.229   1.038  1.0083 -0.2922  0.6194
  330MOL0     H44538   7.495   1.565   1.219 -0.7024 -0.3343  1.4761
  330MOL0     H44539   7.432   1.797   1.294 -1.2076  1.6644 -1.2919
  330MOL0     H44540   7.007   1.828   1.389  2.6067 -0.6751  0.5080
  330MOL0     H44541   7.089   1.965   1.469  0.3088  1.2450 -0.0796
  330MOL0     H44542   7.020   1.970   1.174 -0.1978 -0.6050  0.1900
  330MOL0     H44543   7.077   2.095   1.290 -0.4576 -1.2514  1.3451
  330MOL0     H44544   6.879   2.161   1.320 -1.7523  0.1108 -3.9451
  330MOL0     H44545   6.840   2.012   1.415 -1.2041  3.4966  1.3723
  330MOL0     H44546   6.784   2.069   1.125 -1.9126 -0.6356 -0.8222
  330MOL0     H44547   6.653   2.059   1.235 -1.0435 -0.9675 -4.5955
  330MOL0     H44548   6.711   1.649   1.184 -1.5436  0.0043 -1.0287
  330MOL0     H44549   7.024   1.734   1.182  0.1514 -0.7311 -1.3565
  330MOL0     H44550   7.088   1.506   1.088  2.2391 -1.8949 -1.8602
  331MOL0     O44551   4.606   3.981   4.936 -0.0368 -0.1080  0.0500
  331MOL0     C44552   4.629   3.916   4.833  0.1194  0.0883  1.1160
  331MOL0     O44553   4.746   3.915   4.750  0.0855 -0.2522 -0.1021
  331MOL0     C44554   4.862   3.977   4.798 -1.0550  0.1907  0.1352
  331MOL0     C44555   4.980   3.902   4.815  0.2105  1.1508 -0.2049
  331MOL0     C44556   5.098   3.954   4.868  0.0793  0.2904  0.0423
  331MOL0     C44557   5.113   4.090   4.910 -0.2003  0.4553  0.0759
  331MOL0     O44558   5.220   4.148   4.971  0.6434 -0.0988 -0.1107
  331MOL0     C44559   5.331   4.061   5.014 -0.1199 -0.3568 -1.0093
  331MOL0     C44560   5.421   4.139   5.116 -0.7822  0.2386  0.3981
  331MOL0     C44561   5.532   4.220   5.037 -0.2560 -0.0480 -0.0955
  331MOL0     C44562   5.671   4.170   5.060 -0.8825  0.7470 -0.4833
  331MOL0     C44563   5.785   4.275   5.010  0.1357 -0.2188  0.1341
  331MOL0     C44564   5.926   4.226   5.047 -0.1670 -1.2237  0.4833
  331MOL0     C44565   6.031   4.309   4.971  0.1682 -0.4589  0.4119
  331MOL0     C44566   6.164   4.259   5.029  0.8041  0.1704  0.1121
  331MOL0     N44567   6.264   4.266   4.919 -0.0508 -0.3473 -1.0855
  331MOL0     C44568   6.372   4.346   4.926 -0.3583 -0.1517 -0.1786
  331MOL0     C44569   6.448   4.302   4.820 -0.7791 -0.0524  0.8589
  331MOL0     C44570   6.594   4.340   4.793 -0.7677  0.5016 -0.3594
  331MOL0     C44571   6.604   4.493   4.781 -0.6380  0.0538 -0.0973
  331MOL0     C44572   6.741   4.556   4.787 -0.1923  0.2018 -0.2401
  331MOL0     C44573   6.749   4.703   4.748  0.6384 -0.1689 -0.3858
  331MOL0     O44574   6.655   4.774   4.826  1.0388 -0.5872 -0.2535
  331MOL0     C44575   6.569   4.865   4.772  0.6605 -0.1902  0.1208
  331MOL0     C44576   6.466   4.900   4.863 -0.0864  0.1513 -0.6131
  331MOL0     C44577   6.357   4.971   4.827  1.1939  0.7129  0.2319
  331MOL0     C44578   6.241   4.982   4.922  0.0191 -0.1830  0.0837
  331MOL0     C44579   6.349   5.021   4.688  0.8294 -0.2281 -0.4602
  331MOL0     C44580   6.231   5.096   4.636 -0.3033 -0.1529  0.3984
  331MOL0     O44581   6.166   5.188   4.718 -0.6409  0.2556 -0.2690
  331MOL0     C44582   6.039   5.239   4.685  0.0966 -0.1278  0.9159
  331MOL0     C44583   5.970   5.288   4.795  0.7005  1.2261 -0.5621
  331MOL0     C44584   5.847   5.364   4.788 -0.4864 -0.2826  0.4555
  331MOL0     C44585   5.795   5.380   4.656 -0.3754 -0.1789  0.0408
  331MOL0     O44586   5.679   5.456   4.638 -0.3671  0.6335  0.0609
  331MOL0     C44587   5.603   5.482   4.750  0.8550 -0.4104 -0.3315
  331MOL0     C44588   5.470   5.543   4.710 -0.2472  0.4383 -0.2812
  331MOL0     C44589   5.479   5.683   4.652 -0.6588 -0.0575  0.3045
  331MOL0     C44590   5.338   5.726   4.599  0.6180 -0.4735 -0.0275
  331MOL0     C44591   5.219   5.721   4.700  0.5179  0.3894  0.2226
  331MOL0     C44592   5.081   5.760   4.635 -0.6398 -0.3472  0.3804
  331MOL0     C44593   5.062   5.907   4.613  0.5529  0.8768 -0.5553
  331MOL0     C44594   4.920   5.945   4.567  0.7981  0.0614  0.4784
  331MOL0    Cl44595   4.904   5.874   4.400 -0.5933  0.0538 -0.0811
  331MOL0     C44596   5.861   5.318   4.543  0.6647  0.0635 -0.4948
  331MOL0     C44597   5.983   5.254   4.554  0.0634 -0.9729  0.5766
  331MOL0     O44598   6.209   5.083   4.517 -0.4962  0.2183  0.2782
  331MOL0     C44599   6.450   4.976   4.596 -0.0683  0.2513 -0.6017
  331MOL0     C44600   6.549   4.887   4.633  0.3398 -1.0562 -0.5545
  331MOL0     N44601   6.381   4.191   4.762  0.1079 -0.0010 -0.2028
  331MOL0     N44602   6.275   4.171   4.820 -0.4297  0.2693 -0.6259
  331MOL0     C44603   4.993   4.157   4.893  0.2275  0.6459  0.7402
  331MOL0     C44604   4.871   4.103   4.849  0.1925  0.8913  0.4949
  331MOL0     C44605   4.520   3.829   4.784  0.1762 -0.5256  0.3085
  331MOL0     C44606   4.506   3.792   4.656 -0.7214 -0.9044 -0.3365
  331MOL0     C44607   4.394   3.722   4.609 -0.3278  0.4589  0.5411
  331MOL0     C44608   4.292   3.674   4.692  0.6551  0.6218 -0.4171
  331MOL0     O44609   4.214   3.573   4.646 -0.4074  0.5372  0.1880
  331MOL0     C44610   4.095   3.529   4.714 -1.0803  0.0039 -0.2314
  331MOL0     C44611   4.016   3.430   4.621  1.2396  0.7602  1.0664
  331MOL0     C44612   4.101   3.307   4.564 -1.1279  1.2479 -1.0713
  331MOL0     C44613   4.145   3.200   4.673  0.3772 -0.7058  0.2244
  331MOL0     C44614   4.025   3.126   4.727 -0.4923 -0.3408 -0.0603
  331MOL0     C44615   3.946   3.062   4.800 -0.4640  1.0753  0.6225
  331MOL0     C44616   4.291   3.722   4.824 -0.1236 -0.3589 -0.5333
  331MOL0     C44617   4.406   3.799   4.861 -0.5770  0.3286  0.1445
  331MOL0     H44618   4.979   3.796   4.789 -0.8703  1.6887 -2.6992
  331MOL0     H44619   5.179   3.887   4.894 -0.6802 -0.7185 -0.1485
  331MOL0     H44620   5.298   3.971   5.066 -2.8794 -0.2857 -2.4145
  331MOL0     H44621   5.392   4.029   4.929 -0.9112  3.4363 -3.2749
  331MOL0     H44622   5.347   4.199   5.169  1.6802  1.6812  2.4040
  331MOL0     H44623   5.468   4.082   5.196 -1.9958 -0.2830  0.7581
  331MOL0     H44624   5.515   4.212   4.929 -0.7368  0.8185 -0.0846
  331MOL0     H44625   5.517   4.325   5.062 -1.1839  0.5196 -2.6913
  331MOL0     H44626   5.675   4.141   5.166 -1.2280  2.6274  0.0929
  331MOL0     H44627   5.683   4.082   4.997  1.2996  1.0379 -0.5436
  331MOL0     H44628   5.779   4.269   4.901 -1.8141 -3.1835  0.2773
  331MOL0     H44629   5.766   4.377   5.043 -1.5707 -0.3712 -0.2719
  331MOL0     H44630   5.945   4.231   5.154 -2.5978 -1.4738  0.9778
  331MOL0     H44631   5.939   4.124   5.012  2.2445 -0.2549 -1.7860
  331MOL0     H44632   6.028   4.288   4.864  1.0447  0.5024  0.1821
  331MOL0     H44633   6.024   4.417   4.989 -0.9382 -0.7328  1.8281
  331MOL0     H44634   6.162   4.153   5.056  0.3210  1.1870  4.8089
  331MOL0     H44635   6.182   4.323   5.116 -0.6555  1.3437 -0.4104
  331MOL0     H44636   6.403   4.422   4.997 -0.1290 -0.1668 -0.2617
  331MOL0     H44637   6.652   4.301   4.878 -1.1138  3.0528  1.1570
  331MOL0     H44638   6.626   4.279   4.708 -0.9706 -1.1240  0.6655
  331MOL0     H44639   6.564   4.533   4.874  0.8963  0.1068  0.5655
  331MOL0     H44640   6.547   4.537   4.698  1.0148  1.3352 -0.5914
  331MOL0     H44641   6.815   4.502   4.727  1.0241 -0.4442  1.7702
  331MOL0     H44642   6.787   4.545   4.885  2.2913  2.5482 -0.9960
  331MOL0     H44643   6.731   4.707   4.641  0.7809 -2.4261 -0.5441
  331MOL0     H44644   6.849   4.740   4.774 -0.4049  1.7372  1.2588
  331MOL0     H44645   6.473   4.870   4.967 -0.7225  2.4098  0.1313
  331MOL0     H44646   6.262   5.061   4.995 -2.3464  1.5647 -0.9884
  331MOL0     H44647   6.148   5.006   4.870  0.0696 -0.2312 -0.0290
  331MOL0     H44648   6.230   4.886   4.974 -2.5853  0.1835  0.3633
  331MOL0     H44649   6.023   5.295   4.890 -1.2729  1.5282  0.5676
  331MOL0     H44650   5.819   5.419   4.877  1.1719 -0.1694  0.9483
  331MOL0     H44651   5.591   5.390   4.809  3.4110 -0.3175  0.4689
  331MOL0     H44652   5.653   5.559   4.810 -1.3458 -0.0093  1.1067
  331MOL0     H44653   5.430   5.490   4.624 -2.1952 -0.4738  1.1084
  331MOL0     H44654   5.399   5.541   4.794 -0.2537 -4.7770 -0.0851
  331MOL0     H44655   5.555   5.707   4.577 -1.6688 -1.7369 -1.3329
  331MOL0     H44656   5.521   5.750   4.728 -0.0661  0.7464 -0.7001
  331MOL0     H44657   5.352   5.828   4.565 -1.7349  0.8597  2.5415
  331MOL0     H44658   5.321   5.659   4.514  1.9028 -2.2241  1.0169
  331MOL0     H44659   5.241   5.777   4.792  0.6633 -1.0340  1.0907
  331MOL0     H44660   5.212   5.620   4.742  0.5308 -0.3052 -1.4039
  331MOL0     H44661   5.060   5.702   4.544 -0.3723  0.1955 -0.0324
  331MOL0     H44662   4.999   5.725   4.699  0.1203 -0.2679  1.4094
  331MOL0     H44663   5.123   5.936   4.527  1.1500  0.0588 -0.4199
  331MOL0     H44664   5.079   5.970   4.700  2.6890  0.2384 -0.4729
  331MOL0     H44665   4.920   6.054   4.570 -0.6567  0.0625  1.6393
  331MOL0     H44666   4.830   5.913   4.620 -1.3005 -1.5738 -3.6463
  331MOL0     H44667   5.822   5.335   4.443 -0.8128  2.4857  0.3997
  331MOL0     H44668   6.030   5.238   4.457  2.2661  2.3981  0.9163
  331MOL0     H44669   6.455   4.993   4.488 -0.5393  0.9322 -0.5227
  331MOL0     H44670   6.605   4.850   4.547 -1.8097 -0.4187 -2.3426
  331MOL0     H44671   4.993   4.259   4.930 -1.3050  0.4139  1.4866
  331MOL0     H44672   4.788   4.172   4.845  0.1855  1.0001  2.0787
  331MOL0     H44673   4.581   3.821   4.584 -0.5545 -1.1652 -0.2678
  331MOL0     H44674   4.394   3.693   4.505  1.1316 -3.7069  1.5077
  331MOL0     H44675   4.135   3.490   4.808  2.5783  1.2403 -1.1259
  331MOL0     H44676   4.031   3.615   4.737 -1.0004 -0.4644  1.9423
  331MOL0     H44677   3.991   3.488   4.532  0.2964 -0.7383  0.3086
  331MOL0     H44678   3.919   3.402   4.663 -0.6656  2.0791 -2.1052
  331MOL0     H44679   4.190   3.359   4.529  0.2890  1.5910  2.6156
  331MOL0     H44680   4.045   3.255   4.486  2.2849 -3.3772 -0.8289
  331MOL0     H44681   4.191   3.249   4.759  0.1469  0.1093 -0.1072
  331MOL0     H44682   4.212   3.126   4.629  0.2384  0.4952 -2.2049
  331MOL0     H44683   3.874   3.023   4.868  2.3152 -2.5118  1.8025
  331MOL0     H44684   4.222   3.690   4.902  1.1268  1.8803  1.6320
  331MOL0     H44685   4.420   3.808   4.968  0.7466  0.2057 -0.0020
  332MOL0     O44686   7.219  10.435   2.739  0.7592  0.4124 -0.2128
  332MOL0     C44687   7.285  10.504   2.816 -0.9031 -0.9784  0.2139
  332MOL0     O44688   7.242  10.577   2.920 -0.1343  1.0725  0.0468
  332MOL0     C44689   7.122  10.570   2.977  0.5420  0.1655  0.2694
  332MOL0     C44690   7.083  10.683   3.038  0.7263  0.7438  0.1553
  332MOL0     C44691   6.958  10.687   3.112 -0.9276  0.0198  0.1464
  332MOL0     C44692   6.879  10.578   3.116  1.2260 -0.4854 -0.3067
  332MOL0     O44693   6.758  10.589   3.176 -0.1557  0.1750 -0.0321
  332MOL0     C44694   6.679  10.469   3.191  1.0860 -0.2128 -0.5702
  332MOL0     C44695   6.537  10.499   3.243 -0.3760  0.8324  0.2457
  332MOL0     C44696   6.448  10.575   3.145 -0.1437 -0.2922 -0.0786
  332MOL0     C44697   6.301  10.546   3.148 -0.3670  0.8514  0.5485
  332MOL0     C44698   6.222  10.651   3.079  0.0149 -0.3426 -0.8904
  332MOL0     C44699   6.072  10.649   3.097  0.1565 -0.0516 -0.2474
  332MOL0     C44700   6.036  10.691   3.242  0.2603 -0.0005 -0.5730
  332MOL0     C44701   5.882  10.662   3.265  0.3980  1.0658  0.2450
  332MOL0     N44702   5.859  10.533   3.333  0.2258  0.5830 -0.2247
  332MOL0     C44703   5.947  10.419   3.326 -0.1231 -0.5969 -0.0388
  332MOL0     C44704   5.868  10.310   3.354 -0.6990  0.4800  0.1601
  332MOL0     C44705   5.908  10.154   3.350  0.4268  0.6977 -0.9753
  332MOL0     C44706   5.812  10.068   3.267 -0.7362 -0.3985  0.3360
  332MOL0     C44707   5.701   9.991   3.333  0.3521 -0.0689  0.2978
  332MOL0     C44708   5.574   9.971   3.256 -0.0257  0.7519 -0.3135
  332MOL0     O44709   5.459   9.916   3.328 -0.4362  0.2993 -0.3903
  332MOL0     C44710   5.388   9.994   3.418 -0.7951 -0.0605  0.8693
  332MOL0     C44711   5.415  10.125   3.464  0.1875  0.5495 -0.0449
  332MOL0     C44712   5.343  10.209   3.543 -0.2358 -0.3710 -0.9231
  332MOL0     C44713   5.398  10.343   3.583  0.0796 -0.5280  0.3241
  332MOL0     C44714   5.214  10.170   3.586 -0.4966  0.6446 -0.2864
  332MOL0     C44715   5.122  10.244   3.669  0.4444 -0.3316  0.7774
  332MOL0     O44716   5.093  10.368   3.630  0.0714  0.5449  0.0729
  332MOL0     C44717   4.994  10.432   3.708  0.5032 -0.4644 -0.6069
  332MOL0     C44718   4.997  10.449   3.847 -0.8569  0.0847 -0.0696
  332MOL0     C44719   4.904  10.528   3.903  0.2127 -0.7432 -0.5253
  332MOL0     C44720   4.811  10.608   3.834 -0.1510 -0.6273 -0.2270
  332MOL0     O44721   4.713  10.686   3.898 -0.4510 -0.8967  0.5522
  332MOL0     C44722   4.604  10.620   3.945 -0.6210  1.2213  0.1328
  332MOL0     C44723   4.525  10.716   4.033 -0.0115  0.2213  0.4052
  332MOL0     C44724   4.465  10.830   3.950  0.3812  0.4809 -0.1196
  332MOL0     C44725   4.393  10.779   3.828  0.7255 -0.6846 -0.2768
  332MOL0     C44726   4.282  10.860   3.748 -0.3543  0.3965  0.4373
  332MOL0     C44727   4.148  10.805   3.798  0.1150  0.1661 -0.0562
  332MOL0     C44728   4.027  10.878   3.732 -0.9236 -1.3517 -0.9112
  332MOL0     C44729   4.024  10.871   3.583  0.3782 -1.0864 -0.3916
  332MOL0    Cl44730   4.028  10.694   3.529 -0.0671 -0.1619 -0.2180
  332MOL0     C44731   4.826  10.605   3.699  0.3822  0.1452  0.2028
  332MOL0     C44732   4.915  10.521   3.637  0.4008 -0.3295  0.8116
  332MOL0     O44733   5.071  10.181   3.769 -0.1363 -0.2515  0.4888
  332MOL0     C44734   5.181  10.035   3.548  0.5131 -0.2902  0.4624
  332MOL0     C44735   5.258   9.952   3.465 -0.0453 -0.5191  0.1613
  332MOL0     N44736   5.743  10.359   3.375  0.5730 -0.3776 -0.0422
  332MOL0     N44737   5.736  10.490   3.362  1.3008  0.0656 -0.0302
  332MOL0     C44738   6.928  10.455   3.063  0.3167 -0.2181 -0.5429
  332MOL0     C44739   7.046  10.455   2.989 -0.1791  1.1456 -0.1091
  332MOL0     C44740   7.415  10.541   2.771 -1.3265  0.6760 -0.7349
  332MOL0     C44741   7.507  10.594   2.868 -0.9571 -0.5503 -0.8533
  332MOL0     C44742   7.627  10.642   2.833 -0.9941  0.8259  0.0017
  332MOL0     C44743   7.663  10.638   2.700  0.7867 -0.0970  0.4116
  332MOL0     O44744   7.786  10.686   2.657  0.0475  0.7932  0.0799
  332MOL0     C44745   7.870  10.770   2.733  0.7108 -0.0782  0.2017
  332MOL0     C44746   7.988  10.829   2.656  0.4776  0.7551  0.4476
  332MOL0     C44747   8.068  10.720   2.572 -0.5774  0.3940  0.4016
  332MOL0     C44748   8.200  10.770   2.505  0.4325 -0.0079  0.2096
  332MOL0     C44749   8.270  10.653   2.454 -0.2199  0.1940 -0.9617
  332MOL0     C44750   8.324  10.546   2.438  0.3704 -1.2873  0.0753
  332MOL0     C44751   7.588  10.568   2.604  0.1891  0.1870  0.5867
  332MOL0     C44752   7.464  10.515   2.641 -0.3286 -0.4166 -0.3829
  332MOL0     H44753   7.143  10.774   3.039  1.2780  0.3915  0.9768
  332MOL0     H44754   6.935  10.769   3.180  1.8223 -2.9080  5.2349
  332MOL0     H44755   6.662  10.423   3.093  1.9514  1.9758 -1.8248
  332MOL0     H44756   6.724  10.418   3.277  0.3286  3.2463  2.0947
  332MOL0     H44757   6.496  10.401   3.272  2.4288 -1.6470 -3.2487
  332MOL0     H44758   6.557  10.561   3.331  1.9929  2.7982 -1.5502
  332MOL0     H44759   6.463  10.681   3.170 -0.2436 -0.4201  0.5528
  332MOL0     H44760   6.477  10.562   3.041 -0.0588  2.1248 -0.4256
  332MOL0     H44761   6.283  10.448   3.103  1.9331  0.6142  0.0026
  332MOL0     H44762   6.265  10.528   3.249  4.1366  2.2517  2.6683
  332MOL0     H44763   6.258  10.751   3.105 -0.1452  0.2213 -2.6876
  332MOL0     H44764   6.237  10.637   2.972  1.0297  1.1357 -0.9696
  332MOL0     H44765   6.028  10.725   3.033  0.8958  0.5225 -0.0874
  332MOL0     H44766   6.036  10.553   3.059  1.3505  0.7940 -3.9508
  332MOL0     H44767   6.090  10.646   3.326 -2.1180  1.1793  1.7278
  332MOL0     H44768   6.059  10.797   3.252  1.7751 -0.4586  1.8552
  332MOL0     H44769   5.820  10.656   3.175 -0.3873  0.2062  0.8419
  332MOL0     H44770   5.833  10.746   3.315 -0.1548  1.6928 -1.2783
  332MOL0     H44771   6.049  10.419   3.289  0.8047  0.5228  2.3024
  332MOL0     H44772   6.014  10.161   3.327  1.1491  5.0229  2.3788
  332MOL0     H44773   5.907  10.116   3.453  0.8375  1.3991 -0.7067
  332MOL0     H44774   5.875   9.994   3.216 -1.0322  0.0915 -0.7781
  332MOL0     H44775   5.768  10.120   3.181 -0.1831 -3.3948 -1.9705
  332MOL0     H44776   5.674  10.043   3.425  2.6066  2.2723 -0.2324
  332MOL0     H44777   5.739   9.891   3.356 -1.9562 -1.2061 -0.4783
  332MOL0     H44778   5.590   9.918   3.162 -0.8552  1.6863 -1.0102
  332MOL0     H44779   5.532  10.066   3.220 -3.7491 -1.2559 -1.7795
  332MOL0     H44780   5.514  10.167   3.449  0.7545 -0.9116 -0.5745
  332MOL0     H44781   5.490  10.331   3.642  0.6287  0.8602 -0.1967
  332MOL0     H44782   5.431  10.406   3.499 -0.2223 -0.5435  0.1936
  332MOL0     H44783   5.325  10.399   3.641 -1.9774 -1.2470 -1.4193
  332MOL0     H44784   5.061  10.387   3.910 -0.3659  0.0587 -0.5796
  332MOL0     H44785   4.900  10.538   4.011 -2.8798 -2.6472 -0.3153
  332MOL0     H44786   4.549  10.569   3.865  3.3966 -0.9560 -1.5542
  332MOL0     H44787   4.654  10.540   4.001 -0.9469  1.5008  0.8217
  332MOL0     H44788   4.454  10.654   4.090  0.4610 -0.2562  0.4816
  332MOL0     H44789   4.583  10.763   4.113  1.9864 -1.9548  0.3272
  332MOL0     H44790   4.542  10.896   3.907  0.2566  0.0432 -1.0394
  332MOL0     H44791   4.406  10.897   4.013  0.2113  0.0163  0.2205
  332MOL0     H44792   4.472  10.745   3.760  1.5570 -0.6954  0.6715
  332MOL0     H44793   4.341  10.693   3.872  1.8308  0.3176  3.2461
  332MOL0     H44794   4.290  10.839   3.641 -2.6736 -2.1258  0.6445
  332MOL0     H44795   4.290  10.966   3.770 -0.1328  0.8681 -1.6568
  332MOL0     H44796   4.148  10.697   3.776 -0.1578 -0.1352  1.3328
  332MOL0     H44797   4.143  10.805   3.907 -3.1134 -3.6339  0.0268
  332MOL0     H44798   4.021  10.983   3.762 -0.0413 -1.4605 -0.3215
  332MOL0     H44799   3.936  10.832   3.771 -1.0602 -0.0474  0.3646
  332MOL0     H44800   4.115  10.922   3.550  0.8343 -0.6818  1.3843
  332MOL0     H44801   3.937  10.923   3.541 -0.6593  0.2605  3.0173
  332MOL0     H44802   4.758  10.658   3.633  0.8903 -1.6641 -1.8823
  332MOL0     H44803   4.915  10.521   3.528 -3.7329 -2.6914  0.6203
  332MOL0     H44804   5.093   9.977   3.573  0.1818 -0.7368 -1.5812
  332MOL0     H44805   5.226   9.849   3.452 -0.7315 -0.3750  0.6415
  332MOL0     H44806   6.874  10.361   3.066  1.7383 -1.1133 -1.7212
  332MOL0     H44807   7.083  10.364   2.942  1.9268  2.2493 -0.7130
  332MOL0     H44808   7.485  10.603   2.974 -1.0136 -3.6077 -0.5045
  332MOL0     H44809   7.681  10.690   2.914  0.2274 -1.5518  0.6910
  332MOL0     H44810   7.798  10.844   2.771 -0.2119 -1.4185  1.1326
  332MOL0     H44811   7.916  10.718   2.817  1.4719  0.0192 -0.1458
  332MOL0     H44812   8.055  10.867   2.734  1.4859 -1.8681  0.9837
  332MOL0     H44813   7.962  10.908   2.586  1.1378 -0.2249 -0.9591
  332MOL0     H44814   8.002  10.686   2.491  1.1850  0.5254 -1.1566
  332MOL0     H44815   8.097  10.634   2.633  2.0228 -2.6700 -4.5304
  332MOL0     H44816   8.245  10.809   2.597 -4.4494  0.7170  2.6309
  332MOL0     H44817   8.163  10.845   2.433 -0.5577 -0.4957  0.1931
  332MOL0     H44818   8.364  10.451   2.410  0.5579 -0.4644 -2.8424
  332MOL0     H44819   7.632  10.574   2.505  0.5925  0.2293  0.7688
  332MOL0     H44820   7.396  10.475   2.567 -0.8738  0.2859 -0.2756
  333MOL0     O44821   1.583   9.379   4.565  0.1215 -0.2273  0.0682
  333MOL0     C44822   1.499   9.465   4.590 -0.1814  1.0670  0.0944
  333MOL0     O44823   1.446   9.561   4.501 -0.5385 -0.1881  0.8130
  333MOL0     C44824   1.480   9.552   4.366  0.1288  0.9896  0.3622
  333MOL0     C44825   1.576   9.635   4.313 -0.0889 -0.0011  0.4032
  333MOL0     C44826   1.616   9.620   4.183 -0.2237 -1.1711  0.2724
  333MOL0     C44827   1.561   9.521   4.103 -0.4224 -0.1800 -0.0094
  333MOL0     O44828   1.620   9.496   3.985 -1.0150 -0.0999 -0.0899
  333MOL0     C44829   1.597   9.601   3.894 -0.3955  0.1172  0.1544
  333MOL0     C44830   1.698   9.585   3.784  0.7974 -0.1044 -0.0332
  333MOL0     C44831   1.829   9.651   3.812  0.4615 -0.5792  0.1893
  333MOL0     C44832   1.847   9.796   3.769 -0.1927  0.4409  0.2268
  333MOL0     C44833   1.863   9.803   3.622  0.5847 -0.6681 -0.2023
  333MOL0     C44834   2.002   9.770   3.567 -0.3685 -0.9293  0.4543
  333MOL0     C44835   2.003   9.768   3.418  0.8835 -0.1608 -0.2965
  333MOL0     C44836   1.999   9.911   3.352  0.2924  0.1395 -0.8025
  333MOL0     N44837   2.101  10.005   3.405  0.3104  0.4648 -0.6045
  333MOL0     C44838   2.210  10.033   3.323 -0.0657 -0.3081  1.2525
  333MOL0     C44839   2.231  10.169   3.352 -0.3979 -0.2206  1.1580
  333MOL0     C44840   2.311  10.272   3.281  0.2779 -0.7182 -0.8104
  333MOL0     C44841   2.291  10.273   3.132 -0.8261  0.8193 -0.5270
  333MOL0     C44842   2.383  10.381   3.074  0.5970  0.3789  0.4140
  333MOL0     C44843   2.409  10.349   2.926 -0.0699  0.2568 -0.1713
  333MOL0     O44844   2.541  10.291   2.890 -0.7988 -0.2270  0.6285
  333MOL0     C44845   2.570  10.272   2.749 -0.5318 -0.5548  0.0000
  333MOL0     C44846   2.500  10.307   2.635 -0.7344 -0.4761  0.7948
  333MOL0     C44847   2.546  10.271   2.506 -0.4427  0.4036  0.4101
  333MOL0     C44848   2.444  10.287   2.404  0.0471  0.5893  0.6086
  333MOL0     C44849   2.679  10.221   2.477 -0.9245 -0.7583 -0.8666
  333MOL0     C44850   2.738  10.200   2.339  0.4432 -0.1908  0.0187
  333MOL0     O44851   2.829  10.096   2.326 -0.8180  0.4069  0.1061
  333MOL0     C44852   2.868  10.071   2.198 -1.0179  0.0687  0.0149
  333MOL0     C44853   3.001  10.107   2.160  0.1134  0.7551 -0.0180
  333MOL0     C44854   3.044  10.075   2.037 -0.4447  0.4999  0.6087
  333MOL0     C44855   2.957  10.019   1.945  0.9497  0.4949  0.0762
  333MOL0     O44856   3.009   9.990   1.818 -0.2029  0.0582 -0.1147
  333MOL0     C44857   2.918   9.959   1.705 -0.2144  0.0547  0.7658
  333MOL0     C44858   2.997   9.992   1.581  0.2669 -0.3410 -0.1909
  333MOL0     C44859   2.913   9.998   1.456 -0.6485  0.1725  0.1813
  333MOL0     C44860   2.978  10.071   1.334 -0.8319  0.6890 -0.3258
  333MOL0     C44861   2.881  10.081   1.213  0.1866  0.3426 -0.3131
  333MOL0     C44862   2.974  10.104   1.095 -0.1714  0.4211 -0.4159
  333MOL0     C44863   2.888  10.114   0.969  0.5450  0.4947 -0.0235
  333MOL0     C44864   2.968  10.144   0.843  0.8775  1.1072 -0.2685
  333MOL0    Cl44865   2.844  10.173   0.707  0.2144  0.4254 -0.7144
  333MOL0     C44866   2.818   9.987   1.976 -0.6650  0.1850  0.5686
  333MOL0     C44867   2.778  10.019   2.106 -0.0891  0.1048  0.0152
  333MOL0     O44868   2.688  10.265   2.251 -0.5475 -0.0427 -0.5621
  333MOL0     C44869   2.767  10.196   2.590 -0.9693 -0.5948 -0.5526
  333MOL0     C44870   2.709  10.226   2.722  0.6517 -0.1733 -0.2841
  333MOL0     N44871   2.162  10.201   3.467  0.4894 -0.0086  0.1797
  333MOL0     N44872   2.075  10.110   3.484  0.0549  0.7162 -0.9873
  333MOL0     C44873   1.460   9.433   4.146  0.8322  0.5709 -0.5490
  333MOL0     C44874   1.415   9.452   4.282 -0.5968  0.4296 -0.7222
  333MOL0     C44875   1.456   9.499   4.739 -0.4659 -0.4433  0.9954
  333MOL0     C44876   1.521   9.430   4.834  0.1213  0.1986  0.0121
  333MOL0     C44877   1.472   9.462   4.969  0.2926  0.2933  0.4987
  333MOL0     C44878   1.370   9.557   4.993  1.4476 -0.4854 -0.5708
  333MOL0     O44879   1.324   9.584   5.122  0.4522 -0.3544 -0.0327
  333MOL0     C44880   1.214   9.510   5.180 -0.5602  0.8166  0.6584
  333MOL0     C44881   1.286   9.428   5.298 -0.5362  0.5640 -0.1376
  333MOL0     C44882   1.351   9.516   5.418  0.5091  0.2289 -0.3667
  333MOL0     C44883   1.253   9.567   5.526  0.4625 -0.0829 -0.9817
  333MOL0     C44884   1.177   9.447   5.584 -0.3179  1.4707 -1.2822
  333MOL0     C44885   1.123   9.361   5.653  0.7418  0.1278 -1.1647
  333MOL0     C44886   1.314   9.626   4.880 -0.7940  0.1578  0.2248
  333MOL0     C44887   1.355   9.593   4.751  0.1705  0.0500 -0.3868
  333MOL0     H44888   1.621   9.709   4.378  2.1467  1.5285 -2.6214
  333MOL0     H44889   1.685   9.693   4.141 -2.2936  0.4843 -0.4739
  333MOL0     H44890   1.504   9.583   3.838 -0.0369  1.7444 -1.0705
  333MOL0     H44891   1.596   9.704   3.932 -0.5080  0.8297 -1.6553
  333MOL0     H44892   1.701   9.476   3.774 -0.2350 -0.5252  3.0918
  333MOL0     H44893   1.651   9.639   3.701 -4.0578  0.1045  2.4594
  333MOL0     H44894   1.854   9.636   3.918 -1.5463 -4.3030  0.2935
  333MOL0     H44895   1.900   9.589   3.757 -2.3220 -0.9744 -3.2723
  333MOL0     H44896   1.752   9.846   3.791 -0.8070  1.1145 -3.3933
  333MOL0     H44897   1.926   9.848   3.825  1.5725  0.6238 -2.2717
  333MOL0     H44898   1.796   9.736   3.567 -2.0481  0.5373  1.2924
  333MOL0     H44899   1.829   9.902   3.590  0.8412 -0.3584  0.4680
  333MOL0     H44900   2.079   9.836   3.609 -2.1178  1.5325 -0.0429
  333MOL0     H44901   2.038   9.672   3.601  2.3196  0.5486  2.2987
  333MOL0     H44902   2.094   9.710   3.400  0.6013 -1.1567  1.2710
  333MOL0     H44903   1.926   9.699   3.383 -1.1419  1.6425  0.3677
  333MOL0     H44904   1.896   9.939   3.376 -0.8327 -2.6649 -1.8576
  333MOL0     H44905   2.010   9.892   3.245  2.8943 -1.2366 -0.3872
  333MOL0     H44906   2.242   9.967   3.242 -5.2194 -3.0401  1.0212
  333MOL0     H44907   2.285  10.376   3.306  2.5319 -0.7050  1.9649
  333MOL0     H44908   2.414  10.262   3.317 -0.8742  1.0644  3.8016
  333MOL0     H44909   2.186  10.288   3.108 -0.6393 -0.6678 -2.5529
  333MOL0     H44910   2.332  10.182   3.087 -1.4459 -0.1994  0.8884
  333MOL0     H44911   2.478  10.395   3.127  0.1501 -2.7630  2.2605
  333MOL0     H44912   2.324  10.473   3.080 -1.3781 -0.8630  0.9399
  333MOL0     H44913   2.398  10.442   2.870  2.1529  1.1582  0.7557
  333MOL0     H44914   2.325  10.289   2.889 -0.4755  1.1552 -0.7275
  333MOL0     H44915   2.403  10.355   2.640  0.4161  2.3584 -1.4498
  333MOL0     H44916   2.342  10.273   2.442  1.0722 -3.4991  2.3911
  333MOL0     H44917   2.454  10.385   2.358  0.8102 -1.0819 -3.1806
  333MOL0     H44918   2.456  10.211   2.326 -1.8914  2.0247 -1.1791
  333MOL0     H44919   3.064  10.153   2.236 -0.2091  1.4435 -0.1569
  333MOL0     H44920   3.150  10.084   2.015 -0.5891  1.2513  0.1881
  333MOL0     H44921   2.893   9.853   1.713 -0.7925  0.1602  0.4294
  333MOL0     H44922   2.820  10.007   1.702 -1.0900 -1.5995 -2.5754
  333MOL0     H44923   3.039  10.092   1.593 -0.8390  0.0417  0.6620
  333MOL0     H44924   3.077   9.917   1.583 -0.2985 -1.0768  3.7689
  333MOL0     H44925   2.819  10.050   1.478 -1.3723 -0.2286 -1.7432
  333MOL0     H44926   2.889   9.898   1.421  2.9502  0.1441 -2.7586
  333MOL0     H44927   3.021  10.167   1.365  1.7395  0.2391 -2.1278
  333MOL0     H44928   3.071  10.018   1.309 -0.3325  2.1476 -1.6717
  333MOL0     H44929   2.823  10.171   1.234 -1.8508 -0.7154 -1.0765
  333MOL0     H44930   2.818   9.995   1.187 -0.2966  1.0817 -1.6608
  333MOL0     H44931   3.040  10.190   1.109  4.1248 -2.9200  3.0710
  333MOL0     H44932   3.027  10.008   1.087  1.4818  1.3724 -1.4599
  333MOL0     H44933   2.827  10.202   0.989  3.5424  2.2333  2.4546
  333MOL0     H44934   2.830  10.022   0.970  5.1206 -2.8909  4.1329
  333MOL0     H44935   3.015  10.046   0.829 -1.7438 -0.5123  1.4091
  333MOL0     H44936   3.040  10.225   0.855  1.5323  0.6565 -0.9998
  333MOL0     H44937   2.729   9.946   1.930 -0.2748  1.3062 -1.2996
  333MOL0     H44938   2.673  10.009   2.131 -0.5448  1.4742 -1.1759
  333MOL0     H44939   2.870  10.165   2.582 -0.0078  2.2682 -0.2287
  333MOL0     H44940   2.779  10.217   2.805 -1.1901 -0.7646  1.2921
  333MOL0     H44941   1.432   9.344   4.091  0.1989 -0.2205  0.9966
  333MOL0     H44942   1.349   9.375   4.321 -0.7511  0.6853 -0.4745
  333MOL0     H44943   1.600   9.360   4.807 -0.5655 -0.1360 -1.1774
  333MOL0     H44944   1.505   9.411   5.059  1.6855  1.7408  0.8637
  333MOL0     H44945   1.141   9.584   5.213  1.1186  2.7126  0.3357
  333MOL0     H44946   1.179   9.446   5.099  0.6949  2.9643 -1.7363
  333MOL0     H44947   1.365   9.369   5.253 -1.4512  0.0938 -1.1641
  333MOL0     H44948   1.215   9.360   5.346  0.9022 -0.2619  0.8795
  333MOL0     H44949   1.398   9.605   5.376 -0.6056 -0.5013 -3.4820
  333MOL0     H44950   1.426   9.448   5.460  0.9994  0.9615 -0.0543
  333MOL0     H44951   1.189   9.640   5.475  0.6868  0.0338 -1.0977
  333MOL0     H44952   1.303   9.611   5.612 -2.2945 -1.1149  1.3206
  333MOL0     H44953   1.079   9.285   5.714 -0.0170  2.0437  0.8140
  333MOL0     H44954   1.233   9.697   4.895 -2.2641 -1.1085 -1.3293
  333MOL0     H44955   1.295   9.634   4.671 -1.0749 -0.3119  0.3140
  334MOL0     O44956   7.516   7.807   7.730  0.3415 -0.9068  0.9678
  334MOL0     C44957   7.520   7.738   7.830  0.2728 -0.4166  0.5552
  334MOL0     O44958   7.603   7.640   7.853 -0.1796  0.7270  0.2955
  334MOL0     C44959   7.683   7.587   7.753 -0.1120  0.2656 -1.5967
  334MOL0     C44960   7.727   7.448   7.768 -0.8486  0.1536  0.2997
  334MOL0     C44961   7.829   7.388   7.678 -0.1482  0.3232 -0.2702
  334MOL0     C44962   7.883   7.466   7.580 -0.4740 -0.3121 -0.4941
  334MOL0     O44963   7.985   7.430   7.497 -0.5461  0.0997  0.3629
  334MOL0     C44964   8.041   7.300   7.496 -0.0969 -0.3283 -0.2812
  334MOL0     C44965   7.947   7.191   7.437 -0.6843 -1.0511 -0.4266
  334MOL0     C44966   8.005   7.051   7.453 -0.1318  0.3570  0.1458
  334MOL0     C44967   8.060   6.991   7.329 -0.0237 -0.0757 -0.2655
  334MOL0     C44968   8.108   6.849   7.358 -0.5342 -0.4478 -0.1771
  334MOL0     C44969   8.230   6.848   7.468  0.0486  0.5789  0.2391
  334MOL0     C44970   8.355   6.916   7.406 -0.0665 -0.5051 -0.1087
  334MOL0     C44971   8.474   6.934   7.509 -0.7682  1.0879  0.2175
  334MOL0     N44972   8.571   7.028   7.459 -0.4939  0.5113 -0.3042
  334MOL0     C44973   8.562   7.160   7.489  0.5854  0.4131  0.3116
  334MOL0     C44974   8.691   7.203   7.465 -0.0100  0.4359  0.7682
  334MOL0     C44975   8.731   7.343   7.483 -0.0286 -0.0081 -0.0723
  334MOL0     C44976   8.752   7.406   7.349 -0.1568 -0.4815 -0.0476
  334MOL0     C44977   8.818   7.548   7.363 -0.3631  0.6755 -0.3720
  334MOL0     C44978   8.858   7.595   7.226 -0.6383 -1.6620  0.5275
  334MOL0     O44979   8.970   7.514   7.199 -0.7069  0.2153  0.0329
  334MOL0     C44980   9.053   7.538   7.091 -0.3823  0.2832 -0.1986
  334MOL0     C44981   9.146   7.447   7.066 -1.7512 -0.1812  0.5342
  334MOL0     C44982   9.226   7.435   6.953 -0.2771 -0.2018 -0.0281
  334MOL0     C44983   9.340   7.329   6.947 -1.2271 -0.0959  0.2422
  334MOL0     C44984   9.200   7.531   6.851 -0.4681 -0.9528 -0.0095
  334MOL0     C44985   9.275   7.541   6.717 -0.3362  0.3788  0.2835
  334MOL0     O44986   9.238   7.643   6.631  1.2153 -0.6119  0.1518
  334MOL0     C44987   9.310   7.674   6.519 -0.0904  0.6610 -0.3266
  334MOL0     C44988   9.352   7.802   6.504  0.9335  0.3776  0.5507
  334MOL0     C44989   9.422   7.844   6.390 -1.4023  0.4659 -0.1806
  334MOL0     C44990   9.475   7.750   6.301  0.5278 -0.1121 -0.1189
  334MOL0     O44991   9.571   7.785   6.207  0.5136  0.6929  0.5798
  334MOL0     C44992   9.648   7.685   6.148  0.5162 -0.2622 -0.5203
  334MOL0     C44993   9.767   7.757   6.077 -0.5706 -0.4249  0.5909
  334MOL0     C44994   9.796   7.696   5.941 -0.0362  0.1241  0.7937
  334MOL0     C44995   9.894   7.787   5.856  1.3395 -0.3015  0.1149
  334MOL0     C44996   9.953   7.722   5.736  0.3595  0.1194  1.2651
  334MOL0     C44997   9.858   7.719   5.607 -0.5009  0.1341  0.2047
  334MOL0     C44998   9.860   7.851   5.525  1.0912  0.6833 -0.1328
  334MOL0     C44999   9.726   7.846   5.438 -0.4059  0.2860  0.4958
  334MOL0    Cl45000   9.717   7.992   5.337 -0.0048 -0.7205  0.4896
  334MOL0     C45001   9.428   7.616   6.320 -0.5889  0.3807  0.4483
  334MOL0     C45002   9.337   7.582   6.419  0.1696  0.4376 -0.6748
  334MOL0     O45003   9.366   7.462   6.691 -0.3683 -1.1842  0.7964
  334MOL0     C45004   9.101   7.628   6.874 -0.5375  0.0670 -0.3562
  334MOL0     C45005   9.031   7.627   6.993  0.9459  0.0558  0.4812
  334MOL0     N45006   8.769   7.096   7.421 -0.3737 -0.1621  0.7179
  334MOL0     N45007   8.702   6.998   7.421  1.3976 -0.3299 -0.3825
  334MOL0     C45008   7.846   7.602   7.573 -0.6293  0.1988 -0.4980
  334MOL0     C45009   7.755   7.667   7.663 -0.4706  0.1283  0.0293
  334MOL0     C45010   7.421   7.766   7.928 -0.7431 -0.2735 -0.1486
  334MOL0     C45011   7.355   7.897   7.932  0.9161 -0.1801 -0.2609
  334MOL0     C45012   7.256   7.927   8.021 -0.9845  0.7595 -0.7381
  334MOL0     C45013   7.225   7.839   8.128 -1.3419  0.0531  0.2460
  334MOL0     O45014   7.130   7.864   8.221  1.2540 -0.5766  0.5369
  334MOL0     C45015   7.042   7.978   8.209  0.2550 -0.0373 -0.9791
  334MOL0     C45016   6.936   7.957   8.100  0.5442 -0.6855  1.0035
  334MOL0     C45017   6.851   7.829   8.125 -0.0426 -0.0891  0.3174
  334MOL0     C45018   6.721   7.847   8.034  0.2673 -0.0737 -0.2512
  334MOL0     C45019   6.631   7.736   8.045  0.5601  0.9265  0.1773
  334MOL0     C45020   6.564   7.638   8.030 -0.0484  0.8384 -0.0574
  334MOL0     C45021   7.303   7.722   8.138  1.0203  0.4142 -0.0889
  334MOL0     C45022   7.393   7.688   8.040  0.3699  0.8926 -0.4264
  334MOL0     H45023   7.681   7.388   7.845 -0.2132  2.4102  2.5629
  334MOL0     H45024   7.859   7.284   7.672  1.5261  0.8379 -1.5227
  334MOL0     H45025   8.136   7.309   7.441 -1.0972 -1.7384 -2.3808
  334MOL0     H45026   8.080   7.279   7.596 -0.4442 -3.9067 -0.7556
  334MOL0     H45027   7.854   7.190   7.494 -0.0810 -0.0069  0.6397
  334MOL0     H45028   7.925   7.224   7.335  3.8382 -0.3093 -1.3828
  334MOL0     H45029   8.099   7.058   7.509  2.9588  0.5916 -4.5524
  334MOL0     H45030   7.925   6.989   7.496 -0.8070 -0.2664 -1.9125
  334MOL0     H45031   7.977   6.980   7.259 -0.2758 -1.6938  0.2443
  334MOL0     H45032   8.136   7.052   7.280 -0.1099 -0.2041 -0.5615
  334MOL0     H45033   8.022   6.794   7.397 -2.6653  2.0154 -1.0643
  334MOL0     H45034   8.143   6.809   7.262 -1.1828 -1.6398  0.0567
  334MOL0     H45035   8.207   6.889   7.566  1.6418 -1.5740  1.5976
  334MOL0     H45036   8.263   6.747   7.491  3.8638  0.6314 -3.6469
  334MOL0     H45037   8.383   6.864   7.315 -0.2753 -1.3253  0.2905
  334MOL0     H45038   8.322   7.018   7.385  0.7653  0.5617  3.1432
  334MOL0     H45039   8.508   6.831   7.519 -2.4674  0.6985  2.9856
  334MOL0     H45040   8.447   6.960   7.612 -0.8123 -3.7011  1.6247
  334MOL0     H45041   8.493   7.223   7.544  2.5857  1.3397  1.8936
  334MOL0     H45042   8.663   7.393   7.552 -0.6939  4.3886 -3.4343
  334MOL0     H45043   8.828   7.324   7.532 -0.8557 -0.6613  1.3898
  334MOL0     H45044   8.655   7.410   7.299 -0.1129  1.2211 -0.0327
  334MOL0     H45045   8.815   7.341   7.287 -1.6442  2.0371 -4.6744
  334MOL0     H45046   8.902   7.534   7.431  0.1221 -0.7201 -1.2074
  334MOL0     H45047   8.748   7.620   7.405 -1.0197  1.4552 -2.6196
  334MOL0     H45048   8.890   7.700   7.220 -1.7005 -1.3791 -0.5898
  334MOL0     H45049   8.773   7.580   7.158  1.2622  0.4811 -2.6074
  334MOL0     H45050   9.169   7.382   7.150 -0.2592  2.0287  1.9381
  334MOL0     H45051   9.432   7.384   6.929 -3.1774  4.2403  2.0167
  334MOL0     H45052   9.345   7.274   7.042 -0.3221  4.3702  3.0745
  334MOL0     H45053   9.314   7.259   6.867 -3.4678  1.6902 -0.7262
  334MOL0     H45054   9.322   7.866   6.586  1.1064 -1.6188  2.2668
  334MOL0     H45055   9.444   7.950   6.376 -0.7449  0.0898 -2.4708
  334MOL0     H45056   9.693   7.627   6.229  1.1850 -0.0414 -0.7284
  334MOL0     H45057   9.592   7.620   6.079 -1.3518  2.2893 -1.5647
  334MOL0     H45058   9.743   7.864   6.068  0.1582 -0.2786  0.2749
  334MOL0     H45059   9.856   7.756   6.140  1.4195  1.4398 -1.9941
  334MOL0     H45060   9.703   7.669   5.890 -0.0310  0.2798  0.7009
  334MOL0     H45061   9.848   7.601   5.956  4.1538  2.2970  1.5754
  334MOL0     H45062   9.852   7.885   5.835 -1.3393 -1.4964 -0.4752
  334MOL0     H45063   9.980   7.816   5.918  1.4972  0.7035 -0.5566
  334MOL0     H45064   9.988   7.622   5.764  0.4660 -0.2003  0.0364
  334MOL0     H45065  10.047   7.771   5.708  0.1783  0.0522  0.5069
  334MOL0     H45066   9.895   7.637   5.545  2.5340  1.3943  0.1314
  334MOL0     H45067   9.757   7.690   5.637 -0.6732 -1.2003 -1.5061
  334MOL0     H45068   9.953   7.861   5.468  0.1302  0.9054 -1.7588
  334MOL0     H45069   9.843   7.935   5.593  1.3171  0.0868  0.6670
  334MOL0     H45070   9.630   7.838   5.489 -0.6732  0.1406 -0.0187
  334MOL0     H45071   9.741   7.761   5.370  1.4531  1.2859 -0.4474
  334MOL0     H45072   9.462   7.538   6.253 -1.4613  0.1570  0.2517
  334MOL0     H45073   9.288   7.486   6.419 -0.8150  0.8916  1.2420
  334MOL0     H45074   9.081   7.702   6.797 -2.5730 -1.8623 -1.8140
  334MOL0     H45075   8.955   7.704   7.000  2.0802  1.2671 -0.0936
  334MOL0     H45076   7.889   7.678   7.510 -2.2942  0.0250 -1.9406
  334MOL0     H45077   7.747   7.775   7.662 -2.3849  0.0285  0.7960
  334MOL0     H45078   7.384   7.975   7.863  0.3289  2.5286  2.3333
  334MOL0     H45079   7.203   8.022   8.014 -2.5406  0.3099  2.6889
  334MOL0     H45080   6.992   7.994   8.306 -2.3534  0.6477 -2.3425
  334MOL0     H45081   7.099   8.070   8.195 -0.2248  0.2010 -1.3711
  334MOL0     H45082   6.971   7.951   7.997 -4.3888  3.0264 -1.3138
  334MOL0     H45083   6.876   8.048   8.101 -0.2509 -1.1852  2.8830
  334MOL0     H45084   6.822   7.827   8.230 -0.7735  1.0157  0.1570
  334MOL0     H45085   6.910   7.745   8.085 -0.5664  0.0209 -0.7219
  334MOL0     H45086   6.744   7.843   7.927 -1.7787 -5.2165 -0.7954
  334MOL0     H45087   6.668   7.937   8.067 -0.1815  0.8988 -3.2981
  334MOL0     H45088   6.503   7.550   8.022  2.0471 -0.7238  0.2159
  334MOL0     H45089   7.302   7.658   8.226  0.2851 -0.7246 -0.8989
  334MOL0     H45090   7.449   7.598   8.065 -0.0080  0.6159 -0.5691
  335MOL0     O45091   0.286   1.648   1.868 -0.3356 -0.0074  0.2251
  335MOL0     C45092   0.282   1.768   1.824  0.5848  0.7200 -0.3424
  335MOL0     O45093   0.180   1.813   1.736  0.8205  0.0434  0.6083
  335MOL0     C45094   0.108   1.727   1.658 -0.1478 -0.3324  0.4874
  335MOL0     C45095  -0.026   1.761   1.633 -1.3677 -0.2459  0.9770
  335MOL0     C45096  -0.096   1.693   1.538  0.6744 -0.1333  0.6283
  335MOL0     C45097  -0.031   1.597   1.451  0.5946  0.5389 -0.3338
  335MOL0     O45098  -0.106   1.539   1.345  0.1885  0.3583 -0.4129
  335MOL0     C45099  -0.228   1.604   1.301 -0.8638  0.6921 -0.7543
  335MOL0     C45100  -0.285   1.515   1.184  0.0272  0.9293  0.6692
  335MOL0     C45101  -0.423   1.557   1.136 -0.3787 -0.9068 -0.3091
  335MOL0     C45102  -0.524   1.511   1.242  0.2212  0.9098 -0.6544
  335MOL0     C45103  -0.672   1.529   1.205 -0.7067 -0.0724 -0.8363
  335MOL0     C45104  -0.782   1.447   1.294  0.2770 -0.6230 -0.7791
  335MOL0     C45105  -0.917   1.520   1.294 -0.2205  0.0043 -0.0770
  335MOL0     C45106  -1.026   1.469   1.394 -0.2520  0.8215  1.0578
  335MOL0     N45107  -1.147   1.543   1.361  0.4352 -0.0045  1.0272
  335MOL0     C45108  -1.176   1.671   1.390  0.7157 -0.2659 -0.4516
  335MOL0     C45109  -1.305   1.695   1.354  0.6714 -0.2116 -0.0678
  335MOL0     C45110  -1.376   1.823   1.360  0.4025 -0.0975  0.7702
  335MOL0     C45111  -1.423   1.856   1.214  0.0764  0.6258 -0.7740
  335MOL0     C45112  -1.470   1.997   1.188  0.2642  0.0791  0.0789
  335MOL0     C45113  -1.622   1.995   1.171  0.6607 -0.4277  0.3368
  335MOL0     O45114  -1.692   1.992   1.293  0.1811 -0.1231  0.0817
  335MOL0     C45115  -1.708   1.877   1.369  0.5797 -0.4757  1.2283
  335MOL0     C45116  -1.730   1.897   1.504  0.1721  0.6885 -0.5569
  335MOL0     C45117  -1.753   1.804   1.603 -0.3067  0.5215  0.1049
  335MOL0     C45118  -1.737   1.833   1.744 -0.9276 -0.6231  0.2664
  335MOL0     C45119  -1.763   1.668   1.556 -0.2118  0.1824  0.3162
  335MOL0     C45120  -1.754   1.552   1.642 -0.6670 -0.2371 -1.1618
  335MOL0     O45121  -1.649   1.525   1.723  0.1375 -0.0291  1.2841
  335MOL0     C45122  -1.646   1.403   1.795  0.5914 -0.5294  0.4210
  335MOL0     C45123  -1.658   1.280   1.731 -0.3446  0.1476  0.0862
  335MOL0     C45124  -1.664   1.161   1.804 -0.6101  0.4771  0.0034
  335MOL0     C45125  -1.652   1.157   1.948  0.3378  0.3152  0.7398
  335MOL0     O45126  -1.659   1.042   2.022  0.5862  0.4540  0.3637
  335MOL0     C45127  -1.596   1.034   2.146 -0.8231  0.4925 -0.1858
  335MOL0     C45128  -1.569   0.881   2.146  0.0501 -0.2556  0.4989
  335MOL0     C45129  -1.694   0.791   2.168 -0.9952  0.2662  0.2601
  335MOL0     C45130  -1.745   0.808   2.307  0.1837  0.4234 -0.1364
  335MOL0     C45131  -1.878   0.738   2.343 -0.1709 -0.8354  0.5635
  335MOL0     C45132  -1.984   0.843   2.315  0.1564 -0.5333  0.7714
  335MOL0     C45133  -2.119   0.782   2.335  0.0112  0.7014 -0.6504
  335MOL0     C45134  -2.162   0.694   2.217  0.3058 -0.0346  0.2019
  335MOL0    Cl45135  -2.327   0.641   2.241  0.2533  0.3201 -0.5323
  335MOL0     C45136  -1.612   1.284   2.003  0.7597  0.1290  0.3541
  335MOL0     C45137  -1.620   1.405   1.929 -0.4446  0.0582 -0.9448
  335MOL0     O45138  -1.858   1.481   1.636 -1.2336  0.7825  0.4448
  335MOL0     C45139  -1.728   1.640   1.416 -0.5365 -1.1755 -0.1098
  335MOL0     C45140  -1.709   1.747   1.324 -0.1522  0.3465 -0.7846
  335MOL0     N45141  -1.346   1.577   1.294 -0.5954  0.0549 -0.4795
  335MOL0     N45142  -1.255   1.484   1.292  0.0700 -0.0244 -0.1068
  335MOL0     C45143   0.097   1.560   1.482 -0.6612 -0.4575 -0.1578
  335MOL0     C45144   0.168   1.619   1.585  0.6477 -0.5202  0.6210
  335MOL0     C45145   0.394   1.859   1.865 -0.3907 -0.0340  1.3554
  335MOL0     C45146   0.421   1.974   1.800  0.3152  0.2793  0.6984
  335MOL0     C45147   0.549   2.037   1.808 -0.1226  1.1197 -0.1116
  335MOL0     C45148   0.637   1.999   1.911 -0.3292  0.0470  0.2502
  335MOL0     O45149   0.761   2.051   1.937  0.8308  0.0367 -0.4906
  335MOL0     C45150   0.785   2.179   1.870  0.0990  0.6198  0.2991
  335MOL0     C45151   0.891   2.262   1.944  0.7173 -0.6112 -0.0999
  335MOL0     C45152   0.913   2.406   1.874 -0.1542  0.5796  0.0269
  335MOL0     C45153   1.028   2.473   1.945  0.5528 -0.4823  0.0846
  335MOL0     C45154   1.043   2.615   1.906 -0.1658 -2.0443 -0.2424
  335MOL0     C45155   1.042   2.733   1.886 -0.7192 -0.0020  0.8172
  335MOL0     C45156   0.605   1.891   1.990 -0.6767 -1.1286 -0.3015
  335MOL0     C45157   0.499   1.809   1.954  0.0964 -0.9167 -0.7516
  335MOL0     H45158  -0.065   1.838   1.699 -1.9337  1.5868 -1.3601
  335MOL0     H45159  -0.201   1.723   1.535  0.7311  0.1662  1.4875
  335MOL0     H45160  -0.302   1.613   1.381 -4.3289  0.5271 -3.6673
  335MOL0     H45161  -0.203   1.702   1.260 -0.5567  1.0503  0.2622
  335MOL0     H45162  -0.207   1.521   1.107  0.4946 -1.6808  0.8227
  335MOL0     H45163  -0.292   1.408   1.207 -3.0804 -0.2096 -4.1863
  335MOL0     H45164  -0.441   1.664   1.121 -2.7702 -1.3315 -0.9941
  335MOL0     H45165  -0.446   1.514   1.038  2.1440  0.1331 -1.4444
  335MOL0     H45166  -0.503   1.405   1.263 -1.1192  1.1650  2.5842
  335MOL0     H45167  -0.504   1.564   1.335  1.5141 -0.8880  0.1666
  335MOL0     H45168  -0.685   1.637   1.218 -0.7119  0.1114 -2.2160
  335MOL0     H45169  -0.681   1.498   1.101 -1.3463 -5.1044  0.4771
  335MOL0     H45170  -0.788   1.344   1.256  1.5563  0.3808 -4.0817
  335MOL0     H45171  -0.746   1.462   1.396  0.8605  2.2199 -1.3091
  335MOL0     H45172  -0.886   1.620   1.327  3.8146 -0.8135 -0.8936
  335MOL0     H45173  -0.942   1.526   1.188  0.9971 -0.1955 -0.3892
  335MOL0     H45174  -0.984   1.492   1.493  0.7442 -0.4446  0.9610
  335MOL0     H45175  -1.033   1.361   1.377  3.4724  0.6719 -0.4675
  335MOL0     H45176  -1.105   1.739   1.437  2.4757 -1.6325 -1.0352
  335MOL0     H45177  -1.464   1.820   1.425  1.5569 -1.1449  2.3277
  335MOL0     H45178  -1.303   1.898   1.392 -1.8929  2.1398  1.1763
  335MOL0     H45179  -1.496   1.783   1.179  1.0136 -1.0031  0.5005
  335MOL0     H45180  -1.328   1.842   1.161  1.7231 -1.7793  2.4410
  335MOL0     H45181  -1.432   2.033   1.092 -0.5207  3.8228  0.9823
  335MOL0     H45182  -1.458   2.078   1.261  0.4915  0.2813 -0.1823
  335MOL0     H45183  -1.654   1.913   1.106 -3.5798  0.1262  1.4177
  335MOL0     H45184  -1.664   2.083   1.121 -0.7742 -1.1949  0.1454
  335MOL0     H45185  -1.726   2.001   1.535  0.5349  0.3903  0.4193
  335MOL0     H45186  -1.831   1.828   1.801 -0.8566  2.4424  0.8211
  335MOL0     H45187  -1.666   1.761   1.786  1.1317  0.7206 -0.7643
  335MOL0     H45188  -1.706   1.936   1.764 -0.4294 -1.1539  2.5023
  335MOL0     H45189  -1.666   1.279   1.623 -2.0534  4.3912 -0.0311
  335MOL0     H45190  -1.679   1.069   1.748 -3.0969  1.0403 -0.3973
  335MOL0     H45191  -1.498   1.082   2.149 -0.1732 -0.7300 -1.0743
  335MOL0     H45192  -1.660   1.063   2.230 -0.4171 -2.7679  1.4003
  335MOL0     H45193  -1.514   0.857   2.055  0.5117 -0.5761  0.8544
  335MOL0     H45194  -1.511   0.864   2.237 -0.7374 -1.5536  0.7742
  335MOL0     H45195  -1.680   0.684   2.152 -3.2231  0.1616 -1.4728
  335MOL0     H45196  -1.779   0.826   2.109 -1.5547 -1.5149 -0.0504
  335MOL0     H45197  -1.675   0.781   2.387  1.1683  2.7708 -0.1472
  335MOL0     H45198  -1.759   0.914   2.326 -1.8749 -0.2033  2.4283
  335MOL0     H45199  -1.873   0.718   2.450  0.4608 -1.6478  0.3911
  335MOL0     H45200  -1.883   0.645   2.285  3.1779 -1.1438  0.5513
  335MOL0     H45201  -1.972   0.924   2.388  0.2744 -3.1721  3.9150
  335MOL0     H45202  -1.970   0.869   2.209  2.0314 -2.4971  0.4754
  335MOL0     H45203  -2.184   0.870   2.332  1.6081  2.1285  2.0380
  335MOL0     H45204  -2.129   0.736   2.434 -2.5046  1.1411 -0.6471
  335MOL0     H45205  -2.105   0.601   2.222 -1.4716 -1.1189  1.8347
  335MOL0     H45206  -2.157   0.734   2.116  2.5203 -3.8941 -1.4226
  335MOL0     H45207  -1.585   1.298   2.107  0.7838 -0.6452  0.4576
  335MOL0     H45208  -1.592   1.495   1.985  2.4396 -0.1459 -1.9063
  335MOL0     H45209  -1.706   1.536   1.392  0.9005 -1.2999  1.5671
  335MOL0     H45210  -1.676   1.730   1.222 -2.0745 -3.4098 -0.9808
  335MOL0     H45211   0.145   1.481   1.424  3.6053  0.7308  1.3933
  335MOL0     H45212   0.270   1.585   1.596  0.6384 -1.0021 -0.5985
  335MOL0     H45213   0.348   2.013   1.729 -1.2296 -2.1387  0.8574
  335MOL0     H45214   0.557   2.106   1.724  2.1774 -1.8626 -2.5666
  335MOL0     H45215   0.816   2.165   1.766  1.7037  1.5477  0.6123
  335MOL0     H45216   0.697   2.243   1.879  0.0154  0.3580  1.5740
  335MOL0     H45217   0.975   2.192   1.950  2.3600  1.2808  0.2215
  335MOL0     H45218   0.849   2.285   2.043 -0.6132  0.1436 -0.8175
  335MOL0     H45219   0.823   2.469   1.871  0.8595  2.0512 -0.6427
  335MOL0     H45220   0.934   2.389   1.768 -1.8295  0.6998 -0.3641
  335MOL0     H45221   1.128   2.430   1.934  0.6440 -0.0242 -0.9982
  335MOL0     H45222   0.998   2.482   2.050  0.5095  1.9634 -0.0923
  335MOL0     H45223   1.044   2.834   1.849 -1.9337 -0.5365 -0.8493
  335MOL0     H45224   0.678   1.860   2.064 -2.1983 -1.1848  1.2415
  335MOL0     H45225   0.486   1.712   2.001 -1.4398 -1.3276 -1.9505
  336MOL0     O45226   5.839   5.961   9.069 -0.2418 -0.9391 -0.1070
  336MOL0     C45227   5.904   5.866   9.112  0.6685  0.9592  0.2740
  336MOL0     O45228   6.037   5.866   9.151 -0.0750  0.4771 -0.1983
  336MOL0     C45229   6.111   5.971   9.135 -0.8740  0.1921 -0.4999
  336MOL0     C45230   6.179   5.986   9.014 -1.4676 -0.2194 -0.7646
  336MOL0     C45231   6.259   6.105   8.988 -0.7672  0.6171 -0.5630
  336MOL0     C45232   6.262   6.209   9.077 -0.3984  0.1497 -0.1747
  336MOL0     O45233   6.342   6.308   9.056 -0.7646  0.4501  0.6107
  336MOL0     C45234   6.324   6.400   8.940 -0.1174  0.2009 -0.3404
  336MOL0     C45235   6.362   6.535   8.984 -0.6408 -0.6307  0.2018
  336MOL0     C45236   6.301   6.577   9.118  0.3168  0.5837  0.3576
  336MOL0     C45237   6.364   6.716   9.142  0.1126 -0.9565 -0.6593
  336MOL0     C45238   6.328   6.777   9.286 -0.1101 -1.4366  0.1086
  336MOL0     C45239   6.306   6.927   9.286 -0.8165  0.7575  1.9354
  336MOL0     C45240   6.285   7.003   9.419 -1.1494  0.6126  0.6575
  336MOL0     C45241   6.335   7.144   9.386  0.1813 -0.3268  0.3397
  336MOL0     N45242   6.314   7.225   9.514  0.5756  0.2959 -0.1195
  336MOL0     C45243   6.282   7.168   9.636  0.0623  0.0139  0.3121
  336MOL0     C45244   6.339   7.242   9.731 -0.2333 -0.2203 -0.0120
  336MOL0     C45245   6.330   7.222   9.881  0.0057  0.6350 -1.4353
  336MOL0     C45246   6.462   7.161   9.931 -0.1417 -0.5601 -0.1961
  336MOL0     C45247   6.464   7.128  10.076 -0.0961  0.1567 -0.7596
  336MOL0     C45248   6.579   7.047  10.137 -0.1474 -0.0165 -1.2803
  336MOL0     O45249   6.568   7.066  10.279 -0.3879 -0.4151  0.3872
  336MOL0     C45250   6.667   7.009  10.356  0.3645 -0.1560  0.3865
  336MOL0     C45251   6.634   7.009  10.495  0.0978  0.3109  0.6232
  336MOL0     C45252   6.724   6.956  10.581 -0.4679  0.1186  1.1386
  336MOL0     C45253   6.705   6.944  10.729 -0.7233 -0.3040 -0.4690
  336MOL0     C45254   6.847   6.899  10.536 -0.7415  0.4758  0.2862
  336MOL0     C45255   6.939   6.818  10.629 -0.3249 -0.2868 -0.3562
  336MOL0     O45256   6.955   6.693  10.598  0.2031  0.4880  0.6076
  336MOL0     C45257   7.056   6.635  10.672 -1.1138  0.8314  0.5109
  336MOL0     C45258   7.195   6.648  10.632 -0.3759 -1.3205 -0.4814
  336MOL0     C45259   7.295   6.582  10.699 -0.1316  0.3808 -0.6799
  336MOL0     C45260   7.263   6.505  10.813 -0.0770  0.7104  0.6109
  336MOL0     O45261   7.373   6.438  10.869 -0.4957 -0.4416  0.3668
  336MOL0     C45262   7.346   6.358  10.985  0.2264  0.0570 -0.0906
  336MOL0     C45263   7.461   6.266  11.036 -0.1615  1.0730 -0.1642
  336MOL0     C45264   7.588   6.348  11.058  0.9751  0.1474 -0.4393
  336MOL0     C45265   7.717   6.258  11.067 -0.2871  0.5752  0.3136
  336MOL0     C45266   7.824   6.338  11.130 -0.5140 -0.0400 -0.5114
  336MOL0     C45267   7.880   6.458  11.052  0.0220 -0.7353 -0.7359
  336MOL0     C45268   7.979   6.530  11.144  0.2928  1.1263 -0.7410
  336MOL0     C45269   8.061   6.636  11.077 -0.1511 -0.0524  0.2879
  336MOL0    Cl45270   7.963   6.785  11.059 -0.0756 -0.4401 -0.2336
  336MOL0     C45271   7.125   6.491  10.856 -0.3576 -0.1041  0.0953
  336MOL0     C45272   7.023   6.563  10.784 -0.3700 -0.0681 -0.3991
  336MOL0     O45273   7.000   6.882  10.712  0.1891  0.3153  0.0253
  336MOL0     C45274   6.868   6.890  10.399  0.5535 -0.1242  0.0595
  336MOL0     C45275   6.787   6.949  10.307  0.2139 -0.0902  0.0572
  336MOL0     N45276   6.384   7.358   9.681 -0.4196 -0.1214  0.1235
  336MOL0     N45277   6.374   7.339   9.551 -0.4179  0.4829  0.6845
  336MOL0     C45278   6.202   6.194   9.200  0.1067 -0.9322  0.2884
  336MOL0     C45279   6.135   6.077   9.225  0.7706  0.5527  0.0211
  336MOL0     C45280   5.821   5.743   9.141  0.0573  0.8377  0.0725
  336MOL0     C45281   5.884   5.644   9.218 -0.3618  0.0861  0.5320
  336MOL0     C45282   5.829   5.523   9.239 -0.3577 -1.5784  0.3833
  336MOL0     C45283   5.698   5.500   9.201  0.2036  0.3672 -0.6468
  336MOL0     O45284   5.651   5.370   9.225  0.0148  0.3399  0.2373
  336MOL0     C45285   5.524   5.320   9.178  0.0017  0.0596 -0.5433
  336MOL0     C45286   5.534   5.293   9.032 -0.2158  0.8758 -0.7122
  336MOL0     C45287   5.398   5.295   8.955  0.3191  0.2028 -0.5599
  336MOL0     C45288   5.400   5.247   8.810 -0.3364 -0.5194  0.9958
  336MOL0     C45289   5.399   5.100   8.820 -0.3325 -0.0592  0.0157
  336MOL0     C45290   5.404   4.982   8.845 -0.7792 -0.3847  0.0878
  336MOL0     C45291   5.627   5.599   9.147  0.3196  0.5396  0.5625
  336MOL0     C45292   5.683   5.722   9.109 -0.7950 -0.7393  0.2196
  336MOL0     H45293   6.177   5.906   8.941  0.0987  2.6738 -4.3264
  336MOL0     H45294   6.313   6.107   8.894 -1.6164  7.2817 -1.4206
  336MOL0     H45295   6.400   6.371   8.867  2.4471 -0.8464  2.5137
  336MOL0     H45296   6.225   6.376   8.898 -0.2945  1.8707 -0.9221
  336MOL0     H45297   6.470   6.548   8.986 -0.0512 -4.2930 -0.9917
  336MOL0     H45298   6.324   6.595   8.899 -1.6436  1.0761  1.7734
  336MOL0     H45299   6.195   6.602   9.104 -0.0579 -1.1458 -0.1143
  336MOL0     H45300   6.323   6.497   9.189  0.4229 -1.6980 -2.0838
  336MOL0     H45301   6.472   6.700   9.139 -0.0814 -2.2338 -2.4107
  336MOL0     H45302   6.336   6.778   9.056  0.1349 -1.1307 -0.7924
  336MOL0     H45303   6.242   6.727   9.331 -0.1252 -2.3589 -0.9083
  336MOL0     H45304   6.409   6.758   9.358 -1.6589 -0.6716  2.1489
  336MOL0     H45305   6.394   6.967   9.235 -0.4649 -2.5560 -0.3357
  336MOL0     H45306   6.227   6.952   9.214 -0.8918 -1.1103  1.3177
  336MOL0     H45307   6.185   7.006   9.463 -0.2965  0.6569  2.6732
  336MOL0     H45308   6.349   6.965   9.499  1.2691 -0.7242 -1.7183
  336MOL0     H45309   6.261   7.179   9.313 -2.8215  0.8447  3.6373
  336MOL0     H45310   6.437   7.163   9.352 -0.9504  0.8045 -2.7475
  336MOL0     H45311   6.232   7.073   9.652 -1.9916  1.2619  1.9112
  336MOL0     H45312   6.309   7.317   9.932  3.3721 -0.4701  2.4754
  336MOL0     H45313   6.255   7.149   9.912  2.1639 -0.6096  1.2910
  336MOL0     H45314   6.551   7.218   9.905  1.7246 -2.9723  0.5119
  336MOL0     H45315   6.478   7.071   9.871  2.4094 -0.2797 -0.0487
  336MOL0     H45316   6.372   7.076  10.102 -1.3028  1.6559 -1.7952
  336MOL0     H45317   6.471   7.228  10.120  2.5703  0.0517 -0.7714
  336MOL0     H45318   6.671   7.088  10.094  0.4014  0.8409  0.6376
  336MOL0     H45319   6.570   6.943  10.102  0.2908 -0.7312  0.6464
  336MOL0     H45320   6.553   7.069  10.535 -1.5738 -0.4453 -1.4119
  336MOL0     H45321   6.598   6.949  10.749 -1.0959  0.4888 -2.3955
  336MOL0     H45322   6.749   6.860  10.783  0.8232  1.6961  1.5865
  336MOL0     H45323   6.735   7.032  10.787 -1.2735 -0.9521  0.8353
  336MOL0     H45324   7.213   6.709  10.544 -4.1849 -1.3561 -1.4415
  336MOL0     H45325   7.393   6.606  10.660 -0.4543  0.9373 -1.1521
  336MOL0     H45326   7.315   6.432  11.059 -5.5255 -0.4667 -1.5019
  336MOL0     H45327   7.261   6.290  10.974 -0.8639  0.9654  2.0219
  336MOL0     H45328   7.428   6.227  11.133 -1.3351  1.1813 -0.5008
  336MOL0     H45329   7.488   6.184  10.967 -2.4966  0.5249 -0.5272
  336MOL0     H45330   7.573   6.400  11.153  0.6100  0.1643 -0.5051
  336MOL0     H45331   7.598   6.428  10.984  0.4302  1.3280  0.7185
  336MOL0     H45332   7.690   6.176  11.135 -3.0922  1.2851  0.1734
  336MOL0     H45333   7.745   6.224  10.967  0.1183 -0.7999  0.8631
  336MOL0     H45334   7.913   6.276  11.143 -0.1580  0.8106  1.3084
  336MOL0     H45335   7.797   6.369  11.231 -3.0097  0.0119 -1.1246
  336MOL0     H45336   7.939   6.419  10.969 -0.0761  0.3449 -1.3265
  336MOL0     H45337   7.800   6.526  11.020 -0.6853  0.0290  2.3420
  336MOL0     H45338   8.054   6.454  11.168  4.6751  5.4468  0.9218
  336MOL0     H45339   7.933   6.563  11.238  2.5930 -1.0525  1.2766
  336MOL0     H45340   8.086   6.609  10.974  1.0727  0.9949  0.2861
  336MOL0     H45341   8.141   6.668  11.145 -2.1910 -0.1640  2.8697
  336MOL0     H45342   7.096   6.426  10.938 -2.1009  0.6829  0.1478
  336MOL0     H45343   6.915   6.561  10.801 -0.5901  2.7577 -0.9241
  336MOL0     H45344   6.950   6.827  10.367  2.4131  3.1983 -2.2522
  336MOL0     H45345   6.809   6.943  10.201  2.5281  2.2931  0.3104
  336MOL0     H45346   6.232   6.275   9.266  3.6929  0.6008 -2.8537
  336MOL0     H45347   6.104   6.056   9.327  0.4259 -0.1638 -0.2215
  336MOL0     H45348   5.984   5.665   9.254  0.5349 -2.0929 -0.4952
  336MOL0     H45349   5.875   5.444   9.298  0.0182 -0.8447  1.0846
  336MOL0     H45350   5.490   5.239   9.244 -1.3096  1.4775  0.6017
  336MOL0     H45351   5.453   5.401   9.198  1.6469  1.1472  1.1758
  336MOL0     H45352   5.573   5.192   9.018 -1.3463  0.3371 -0.1415
  336MOL0     H45353   5.593   5.372   8.986  0.0309  0.4315 -1.1692
  336MOL0     H45354   5.367   5.400   8.958  1.8714  0.7186 -1.3816
  336MOL0     H45355   5.333   5.231   9.017  3.9427  0.1305  3.6004
  336MOL0     H45356   5.483   5.291   8.754 -2.0558  0.1590 -1.1650
  336MOL0     H45357   5.305   5.271   8.761  0.8746 -1.3886 -1.9571
  336MOL0     H45358   5.426   4.879   8.866  2.4118 -0.0096 -0.9703
  336MOL0     H45359   5.524   5.586   9.117 -0.0685  0.7566  1.7459
  336MOL0     H45360   5.632   5.798   9.050 -1.3208 -0.4231  1.0559
  337MOL0     O45361   5.375   6.956  10.275 -0.0209 -0.1843  0.0720
  337MOL0     C45362   5.427   6.969  10.165 -0.2598  0.0134 -0.5203
  337MOL0     O45363   5.384   7.054  10.072 -0.4317 -0.5271 -0.3416
  337MOL0     C45364   5.265   7.130  10.070 -1.1897  0.0730  0.1680
  337MOL0     C45365   5.272   7.263  10.014  0.1306  0.3603  0.5241
  337MOL0     C45366   5.167   7.352  10.024  0.0120  0.6713 -0.3945
  337MOL0     C45367   5.052   7.311  10.102  0.0814 -0.0810  1.2770
  337MOL0     O45368   4.951   7.400  10.102 -0.6791 -1.0884  0.5432
  337MOL0     C45369   4.819   7.337  10.125  0.1443 -0.8523  0.0229
  337MOL0     C45370   4.706   7.450  10.134  1.5370  0.7691  0.4372
  337MOL0     C45371   4.717   7.543  10.248  0.4009 -0.2418 -0.7902
  337MOL0     C45372   4.587   7.613  10.309 -0.4275  0.4439  1.0189
  337MOL0     C45373   4.512   7.512  10.406  0.4574 -0.0574 -0.5661
  337MOL0     C45374   4.589   7.503  10.532 -0.2907  0.2676 -0.9705
  337MOL0     C45375   4.512   7.484  10.661 -0.0248  0.0028 -0.7000
  337MOL0     C45376   4.521   7.611  10.764 -0.6288 -0.5869 -0.6469
  337MOL0     N45377   4.446   7.572  10.885  0.6162  0.9970  0.0618
  337MOL0     C45378   4.495   7.488  10.993  0.8194  0.7817 -0.0748
  337MOL0     C45379   4.398   7.493  11.083 -0.2565 -0.6721 -0.3928
  337MOL0     C45380   4.370   7.419  11.214 -0.5848  1.2756 -0.2592
  337MOL0     C45381   4.357   7.498  11.341  0.3376 -0.4720 -0.9027
  337MOL0     C45382   4.296   7.419  11.462  1.1016  0.3710 -0.9519
  337MOL0     C45383   4.363   7.287  11.503  0.8609 -0.1525 -0.2060
  337MOL0     O45384   4.312   7.179  11.432 -0.5926  0.5497  0.3024
  337MOL0     C45385   4.359   7.048  11.463 -0.1204  0.3011 -0.5294
  337MOL0     C45386   4.351   6.956  11.356  0.3622  0.3884  0.2263
  337MOL0     C45387   4.368   6.816  11.379 -0.0804  0.7728  1.0996
  337MOL0     C45388   4.368   6.736  11.253 -0.4425  0.4552 -1.0056
  337MOL0     C45389   4.432   6.778  11.500  0.2855 -0.2089  0.9264
  337MOL0     C45390   4.480   6.639  11.534  0.3668 -0.5448 -0.3166
  337MOL0     O45391   4.572   6.625  11.634 -0.3212  0.5189  0.1492
  337MOL0     C45392   4.638   6.505  11.650 -0.9588 -0.1967 -0.5076
  337MOL0     C45393   4.576   6.399  11.713 -1.0165 -1.6897  0.4235
  337MOL0     C45394   4.651   6.290  11.759  0.3212  0.0393 -0.2177
  337MOL0     C45395   4.778   6.272  11.713  0.6342  0.4100  1.3713
  337MOL0     O45396   4.832   6.153  11.761 -0.2898  0.5757  0.3883
  337MOL0     C45397   4.965   6.117  11.731  0.6170 -0.7147  0.1352
  337MOL0     C45398   5.015   5.976  11.784 -0.7651 -0.2593 -0.0515
  337MOL0     C45399   4.924   5.862  11.744  0.5200 -0.8978 -0.9352
  337MOL0     C45400   4.982   5.721  11.736 -0.6953  0.3054 -0.1345
  337MOL0     C45401   5.116   5.706  11.651 -1.1812  0.5526  0.1420
  337MOL0     C45402   5.158   5.566  11.619  0.1062  0.9260 -0.4390
  337MOL0     C45403   5.306   5.566  11.576 -0.1853 -0.0016 -0.4081
  337MOL0     C45404   5.348   5.423  11.544 -0.5845  0.1136 -1.1136
  337MOL0    Cl45405   5.428   5.358  11.699  0.1034  0.3103  0.3151
  337MOL0     C45406   4.844   6.365  11.633  0.0078 -0.7875  0.7202
  337MOL0     C45407   4.769   6.484  11.602  0.3056 -0.3445  0.6852
  337MOL0     O45408   4.434   6.545  11.471 -0.1717 -0.8044  0.2010
  337MOL0     C45409   4.436   6.870  11.606  0.9910 -0.0957 -0.4001
  337MOL0     C45410   4.412   7.005  11.586  0.4182  0.0737 -0.2007
  337MOL0     N45411   4.286   7.564  11.028  0.4341 -0.3293  0.0448
  337MOL0     N45412   4.315   7.614  10.913  0.5905 -0.2147  0.1524
  337MOL0     C45413   5.052   7.178  10.146 -0.2472 -0.6648  0.0981
  337MOL0     C45414   5.153   7.085  10.139  0.0740 -0.0378  1.4818
  337MOL0     C45415   5.544   6.903  10.130 -0.7246 -0.0866  0.9151
  337MOL0     C45416   5.645   6.967  10.049  0.0195  0.2434  0.0870
  337MOL0     C45417   5.769   6.903  10.032  0.1839 -0.8930 -0.1859
  337MOL0     C45418   5.798   6.783  10.094  1.0012 -0.0765 -0.4675
  337MOL0     O45419   5.923   6.735  10.082  0.0225  1.0495  0.7487
  337MOL0     C45420   5.958   6.600  10.134  0.2766  0.4480  1.3907
  337MOL0     C45421   6.090   6.564  10.058 -0.7558 -0.8256  0.0924
  337MOL0     C45422   6.212   6.628  10.122  0.0768 -0.1169 -0.3142
  337MOL0     C45423   6.261   6.767  10.074  0.5579 -0.0779  0.7959
  337MOL0     C45424   6.299   6.757   9.929 -0.8433 -0.3373 -0.5338
  337MOL0     C45425   6.333   6.747   9.812  0.4817 -1.0451 -0.5832
  337MOL0     C45426   5.695   6.718  10.174 -1.2396 -0.3150 -0.5785
  337MOL0     C45427   5.575   6.783  10.188 -0.9604 -0.3692  0.5365
  337MOL0     H45428   5.354   7.292   9.950  1.2732 -1.4454  1.0983
  337MOL0     H45429   5.172   7.453   9.985  0.7965  1.2266  1.0684
  337MOL0     H45430   4.801   7.264  10.046 -1.1005  1.5227 -2.0100
  337MOL0     H45431   4.808   7.281  10.218  2.1093 -1.2439  0.0744
  337MOL0     H45432   4.685   7.492  10.035  1.2183 -1.0510 -0.3085
  337MOL0     H45433   4.615   7.393  10.153 -0.0524  2.3610 -1.8396
  337MOL0     H45434   4.767   7.501  10.335 -0.3292  0.9575  0.2449
  337MOL0     H45435   4.765   7.632  10.207 -1.8102  1.3568 -0.1179
  337MOL0     H45436   4.606   7.702  10.370 -0.0165 -0.8460  2.8534
  337MOL0     H45437   4.524   7.636  10.222 -1.0408 -3.3592  0.3050
  337MOL0     H45438   4.416   7.560  10.426  1.0867  1.1911 -0.4579
  337MOL0     H45439   4.491   7.410  10.373  1.0739 -0.7331  1.0039
  337MOL0     H45440   4.656   7.418  10.514  1.1439  1.2759 -0.6154
  337MOL0     H45441   4.653   7.589  10.554 -2.5829  1.9351 -0.4625
  337MOL0     H45442   4.406   7.469  10.638  0.9855 -4.1624 -3.8008
  337MOL0     H45443   4.538   7.391  10.712 -0.8846 -0.7840 -1.6332
  337MOL0     H45444   4.468   7.696  10.720  1.0654  0.0596 -1.5021
  337MOL0     H45445   4.626   7.632  10.788 -0.0336 -3.8152  0.0018
  337MOL0     H45446   4.578   7.418  10.984  0.4393  0.4260 -0.9611
  337MOL0     H45447   4.287   7.348  11.211  0.8324 -0.7535  3.2194
  337MOL0     H45448   4.462   7.361  11.215 -0.2695  1.6601 -2.0574
  337MOL0     H45449   4.286   7.581  11.334 -1.2804 -1.2706  3.2635
  337MOL0     H45450   4.456   7.538  11.363  0.5386 -0.9032 -1.0131
  337MOL0     H45451   4.188   7.407  11.446  0.0038  1.2726  4.0040
  337MOL0     H45452   4.291   7.486  11.548 -4.4598  0.9126 -1.3480
  337MOL0     H45453   4.370   7.268  11.610  0.0847  1.5916  0.1994
  337MOL0     H45454   4.464   7.307  11.468  0.4493  0.3718 -1.1400
  337MOL0     H45455   4.319   6.991  11.259 -3.6726  0.1435  1.2635
  337MOL0     H45456   4.473   6.710  11.234 -0.4546 -1.0485  0.6464
  337MOL0     H45457   4.304   6.650  11.275 -0.4113  0.7045  0.1027
  337MOL0     H45458   4.332   6.803  11.175 -0.3200  1.7260  0.0085
  337MOL0     H45459   4.476   6.411  11.752 -2.1653 -1.7956 -2.2870
  337MOL0     H45460   4.604   6.208  11.813  1.8068 -4.1117 -4.5268
  337MOL0     H45461   4.962   6.110  11.622  0.2491 -0.2742  0.1169
  337MOL0     H45462   5.035   6.194  11.767 -0.2066 -0.0648  0.3637
  337MOL0     H45463   5.115   5.962  11.742  0.4072  2.0894  1.7329
  337MOL0     H45464   5.029   5.983  11.892  0.3713 -0.1000 -0.1951
  337MOL0     H45465   4.879   5.879  11.645  0.2229 -1.6313 -0.9415
  337MOL0     H45466   4.846   5.857  11.820  0.0815  1.5101 -1.1660
  337MOL0     H45467   5.002   5.667  11.829 -2.6504 -2.1299 -1.0138
  337MOL0     H45468   4.915   5.655  11.680  1.9708 -3.9392  1.1309
  337MOL0     H45469   5.192   5.752  11.715 -1.9673 -1.6091  2.8108
  337MOL0     H45470   5.120   5.759  11.555  0.0644  0.1439 -0.0444
  337MOL0     H45471   5.150   5.503  11.708  1.8111  1.3879  0.0901
  337MOL0     H45472   5.098   5.518  11.541  0.8135 -2.6467  1.0142
  337MOL0     H45473   5.375   5.612  11.647 -3.1081  2.1952  1.2455
  337MOL0     H45474   5.311   5.624  11.483  0.0708  2.3325  0.9791
  337MOL0     H45475   5.422   5.416  11.464  0.3999 -3.6777 -0.0888
  337MOL0     H45476   5.264   5.356  11.523  0.3285 -1.6155  0.4316
  337MOL0     H45477   4.938   6.346  11.582  0.9136  0.9648  1.6428
  337MOL0     H45478   4.811   6.565  11.544  1.7039 -0.6673  1.2242
  337MOL0     H45479   4.468   6.844  11.706 -0.1452  2.9793  0.8673
  337MOL0     H45480   4.426   7.064  11.675  1.4227  2.9802 -2.1558
  337MOL0     H45481   4.964   7.143  10.199 -2.2673 -2.1371 -3.7973
  337MOL0     H45482   5.150   6.984  10.178  0.7176 -0.5972  0.1503
  337MOL0     H45483   5.627   7.059   9.995 -2.2812  0.3562  0.9529
  337MOL0     H45484   5.847   6.953   9.976  0.1839  3.4635  3.0831
  337MOL0     H45485   5.983   6.610  10.240  0.0623  0.1657  1.4697
  337MOL0     H45486   5.876   6.528  10.122 -1.2347  2.2406  0.4205
  337MOL0     H45487   6.076   6.587   9.952  0.2494  1.0337  0.3311
  337MOL0     H45488   6.102   6.455  10.069 -0.3709 -0.5819  2.6002
  337MOL0     H45489   6.296   6.563  10.097 -1.3955 -3.0971  1.8683
  337MOL0     H45490   6.214   6.638  10.231  0.4065  5.3061 -0.5219
  337MOL0     H45491   6.347   6.794  10.136  0.1916 -0.4415  1.4804
  337MOL0     H45492   6.184   6.845  10.077 -0.4049 -0.9910  0.6159
  337MOL0     H45493   6.350   6.745   9.706 -0.3620  4.0338 -1.0274
  337MOL0     H45494   5.722   6.624  10.222  2.2202  0.7437 -0.1770
  337MOL0     H45495   5.494   6.745  10.250 -2.4358  1.7522  0.0131
  338MOL0     O45496   7.090  11.487   7.734  0.4124 -0.0576 -0.0173
  338MOL0     C45497   7.011  11.455   7.825  0.3254 -0.5398 -0.5544
  338MOL0     O45498   7.003  11.337   7.897  0.0729 -0.7590  1.2805
  338MOL0     C45499   7.080  11.225   7.847  0.2492  0.1409  0.6884
  338MOL0     C45500   7.085  11.194   7.707 -0.0864 -0.0578 -0.0449
  338MOL0     C45501   7.160  11.080   7.662 -0.4485 -0.2307  0.1304
  338MOL0     C45502   7.231  11.002   7.752 -0.6859  0.4408  0.7611
  338MOL0     O45503   7.311  10.894   7.726 -0.1136 -0.3277  0.1912
  338MOL0     C45504   7.322  10.857   7.588 -0.4444  0.1118  1.0230
  338MOL0     C45505   7.422  10.735   7.584  1.1134 -0.4258 -0.5426
  338MOL0     C45506   7.494  10.692   7.448 -0.7970 -0.8099  0.5287
  338MOL0     C45507   7.389  10.697   7.338  0.3894  1.0742 -0.6093
  338MOL0     C45508   7.418  10.637   7.202 -0.0920  0.3824 -0.0279
  338MOL0     C45509   7.511  10.730   7.127 -0.9264 -0.2411 -0.2377
  338MOL0     C45510   7.512  10.672   6.989  0.1548  0.8440 -0.1691
  338MOL0     C45511   7.615  10.743   6.909  0.2900 -0.1864  0.5957
  338MOL0     N45512   7.622  10.685   6.779 -0.7082  0.5232 -0.3719
  338MOL0     C45513   7.630  10.750   6.661  0.1924 -0.3120  0.3522
  338MOL0     C45514   7.673  10.657   6.574  0.9371 -0.6715 -0.1049
  338MOL0     C45515   7.707  10.689   6.430 -0.9419  0.1492  0.2074
  338MOL0     C45516   7.585  10.704   6.340  0.7863 -0.3772 -0.5636
  338MOL0     C45517   7.615  10.655   6.191  0.5426 -1.2564  0.3186
  338MOL0     C45518   7.656  10.499   6.171 -0.2196 -0.0315  0.5147
  338MOL0     O45519   7.597  10.457   6.051  0.2672  0.3829  0.4595
  338MOL0     C45520   7.597  10.315   6.022  0.0936 -0.0298 -0.0937
  338MOL0     C45521   7.547  10.262   5.905 -0.2828 -0.6442  0.5715
  338MOL0     C45522   7.553  10.131   5.866 -1.0344  0.0430 -1.2640
  338MOL0     C45523   7.462  10.083   5.753  0.1117 -0.4598  0.4072
  338MOL0     C45524   7.648  10.043   5.943  1.1559 -0.2921  0.6561
  338MOL0     C45525   7.676   9.900   5.922 -0.2889 -0.6501  0.3787
  338MOL0     O45526   7.745   9.832   6.021 -0.2557 -0.4155 -0.1821
  338MOL0     C45527   7.811   9.717   5.982  0.3437 -0.1773  0.0882
  338MOL0     C45528   7.945   9.710   5.998 -0.0470 -1.1151 -0.3527
  338MOL0     C45529   8.016   9.589   5.986  0.7521 -0.0567  0.0440
  338MOL0     C45530   7.954   9.474   5.936  1.4005 -0.3002  0.5118
  338MOL0     O45531   8.028   9.355   5.943  0.3956  0.3146 -0.1476
  338MOL0     C45532   8.131   9.334   5.845 -0.2131 -0.0287  0.2681
  338MOL0     C45533   8.076   9.312   5.701  0.3252 -0.1281 -0.8903
  338MOL0     C45534   7.984   9.185   5.692  0.4538 -0.4374 -0.5411
  338MOL0     C45535   8.012   9.110   5.562  0.8454 -0.7632 -0.0763
  338MOL0     C45536   7.964   8.964   5.564  0.2169  0.0149 -0.0414
  338MOL0     C45537   7.923   8.935   5.419  0.1911  0.1870 -0.5535
  338MOL0     C45538   7.913   8.783   5.390 -0.1595  0.4439  0.4584
  338MOL0     C45539   7.907   8.764   5.233 -0.6694  0.5622  0.1622
  338MOL0    Cl45540   7.906   8.592   5.199 -0.4185  0.8948 -0.0946
  338MOL0     C45541   7.821   9.489   5.896  0.7594 -0.3719 -0.4838
  338MOL0     C45542   7.741   9.604   5.920  0.8315  0.9239 -0.2712
  338MOL0     O45543   7.638   9.852   5.814  0.6440  0.4653  0.1086
  338MOL0     C45544   7.706  10.097   6.051 -0.2678 -0.1601 -0.7488
  338MOL0     C45545   7.690  10.235   6.093 -0.1710 -0.0939  0.6338
  338MOL0     N45546   7.697  10.536   6.638 -0.2713 -0.1920  0.2803
  338MOL0     N45547   7.661  10.550   6.763  0.4401 -0.4568 -0.0353
  338MOL0     C45548   7.225  11.031   7.895  0.4758 -0.3087 -0.1342
  338MOL0     C45549   7.142  11.132   7.937 -0.4853 -0.3629 -0.3689
  338MOL0     C45550   6.913  11.567   7.863  0.4360  0.0842  0.0112
  338MOL0     C45551   6.921  11.692   7.804 -0.3538  1.0637  0.6077
  338MOL0     C45552   6.843  11.783   7.853  0.8306  0.8182  0.2412
  338MOL0     C45553   6.734  11.765   7.943 -0.4512 -0.9970 -0.2570
  338MOL0     O45554   6.655  11.871   7.981  0.9057  0.9070 -0.3927
  338MOL0     C45555   6.701  12.008   7.964 -0.5381  0.2820  0.2099
  338MOL0     C45556   6.637  12.102   8.067  0.8345  0.0969 -1.0434
  338MOL0     C45557   6.486  12.114   8.042  0.9818 -0.5230  0.6831
  338MOL0     C45558   6.419  12.226   8.113 -0.4486 -0.6865 -0.3599
  338MOL0     C45559   6.291  12.241   8.040  0.5883 -0.6287 -0.0521
  338MOL0     C45560   6.189  12.254   7.980 -0.3600  0.2504  0.6053
  338MOL0     C45561   6.731  11.639   8.003 -1.0323  0.8859  0.3778
  338MOL0     C45562   6.819  11.536   7.963  0.0737  0.3751  0.6851
  338MOL0     H45563   7.020  11.244   7.635 -0.2827  1.7754  1.3176
  338MOL0     H45564   7.175  11.069   7.556  0.7641  1.2514  0.1227
  338MOL0     H45565   7.227  10.824   7.546  0.1338  0.8914 -0.9973
  338MOL0     H45566   7.361  10.941   7.529 -0.6893  0.6129  1.5560
  338MOL0     H45567   7.511  10.764   7.641  1.4204 -4.3115  1.3002
  338MOL0     H45568   7.378  10.646   7.629  0.4269 -0.0944 -0.5420
  338MOL0     H45569   7.578  10.759   7.430  0.4954 -1.5844  3.2747
  338MOL0     H45570   7.539  10.595   7.471 -1.0100 -0.8466  0.7950
  338MOL0     H45571   7.307  10.637   7.379  1.6723  0.5132  1.2791
  338MOL0     H45572   7.360  10.800   7.313  2.5303  1.2224 -2.7330
  338MOL0     H45573   7.466  10.539   7.214  0.1693  0.6004  0.7877
  338MOL0     H45574   7.325  10.636   7.144 -0.1346 -2.6976 -0.0721
  338MOL0     H45575   7.474  10.832   7.117 -1.2954 -0.2754  0.6788
  338MOL0     H45576   7.614  10.731   7.164 -1.3410  0.0428  0.9697
  338MOL0     H45577   7.531  10.565   6.989  3.9093  1.3292 -2.0952
  338MOL0     H45578   7.414  10.695   6.943 -0.2383  2.8453  1.5088
  338MOL0     H45579   7.711  10.760   6.959  0.5111  1.6827 -0.3571
  338MOL0     H45580   7.578  10.845   6.894 -3.7685 -1.5664 -0.0533
  338MOL0     H45581   7.617  10.855   6.636  0.1887 -0.5384 -0.6343
  338MOL0     H45582   7.758  10.786   6.432  0.4702 -0.5588 -0.2265
  338MOL0     H45583   7.765  10.604   6.395  1.4182  0.9566  1.9328
  338MOL0     H45584   7.552  10.808   6.343  0.5120 -0.4692  1.8415
  338MOL0     H45585   7.506  10.645   6.387  1.9332 -1.3752  0.1707
  338MOL0     H45586   7.695  10.713   6.142  1.9127 -4.2066 -1.1770
  338MOL0     H45587   7.516  10.666   6.146 -0.1472  0.5985  2.1443
  338MOL0     H45588   7.600  10.446   6.249 -1.7770 -0.3398 -0.7544
  338MOL0     H45589   7.762  10.472   6.167 -0.4572 -1.0223  0.6568
  338MOL0     H45590   7.492  10.331   5.842  1.7630 -0.3004 -0.9404
  338MOL0     H45591   7.409  10.162   5.701 -1.4720 -1.1927  0.8444
  338MOL0     H45592   7.533  10.043   5.680 -1.1050 -0.6318 -0.6982
  338MOL0     H45593   7.385  10.010   5.781 -0.8739  0.9263  1.4626
  338MOL0     H45594   7.988   9.795   6.051  1.5980 -2.4963  0.6657
  338MOL0     H45595   8.122   9.589   6.007  0.5477  1.7245  1.4302
  338MOL0     H45596   8.198   9.419   5.857 -0.9808  0.5492  0.5876
  338MOL0     H45597   8.200   9.258   5.884 -0.5710  1.3375  3.9900
  338MOL0     H45598   8.026   9.402   5.665  1.6594  2.8296  3.7739
  338MOL0     H45599   8.165   9.297   5.639  1.1989  3.7516 -0.7814
  338MOL0     H45600   7.883   9.224   5.707  1.5057  1.8071  1.3766
  338MOL0     H45601   7.990   9.117   5.778 -0.8863  1.3677  1.0632
  338MOL0     H45602   7.969   9.165   5.478  1.2905  3.5102  2.2082
  338MOL0     H45603   8.121   9.100   5.549  0.8567 -4.1737  1.4754
  338MOL0     H45604   7.887   8.939   5.638 -0.9371 -1.3407 -1.6453
  338MOL0     H45605   8.036   8.887   5.591 -3.1631 -2.4395  3.0479
  338MOL0     H45606   7.829   8.988   5.403  0.4032  1.4832  2.0287
  338MOL0     H45607   7.996   8.975   5.348  1.5319 -0.4418  0.4326
  338MOL0     H45608   7.820   8.750   5.437 -0.2088 -4.0035 -2.2574
  338MOL0     H45609   7.991   8.718   5.430 -2.6521  0.1086  5.6127
  338MOL0     H45610   7.998   8.805   5.189  1.2011 -0.1242  3.1126
  338MOL0     H45611   7.822   8.806   5.180  0.3337 -0.4969 -2.4436
  338MOL0     H45612   7.777   9.401   5.848 -1.7326  1.8118 -2.5825
  338MOL0     H45613   7.635   9.588   5.900  1.5610 -2.3660 -2.1920
  338MOL0     H45614   7.799  10.058   6.089  1.6141  0.5183 -4.2310
  338MOL0     H45615   7.760  10.257   6.173  2.3825 -4.0173 -0.2004
  338MOL0     H45616   7.269  10.968   7.972  0.2425  0.0206  0.2729
  338MOL0     H45617   7.118  11.148   8.041 -2.6861  1.5263 -1.0785
  338MOL0     H45618   6.978  11.706   7.713  1.3228  2.1420  1.7798
  338MOL0     H45619   6.854  11.877   7.801  0.0006  0.8488  0.1094
  338MOL0     H45620   6.808  12.009   7.986 -0.3131  3.0815 -0.6270
  338MOL0     H45621   6.678  12.047   7.864 -1.3164 -1.5662 -0.3864
  338MOL0     H45622   6.693  12.196   8.070  1.9870 -0.5967  0.3390
  338MOL0     H45623   6.651  12.045   8.159 -1.3195 -2.9595 -2.4568
  338MOL0     H45624   6.439  12.024   8.083 -2.1759  0.7889  0.2903
  338MOL0     H45625   6.463  12.115   7.935  0.1220 -3.8263  0.7358
  338MOL0     H45626   6.477  12.318   8.109  0.3559 -1.1667 -0.0364
  338MOL0     H45627   6.395  12.206   8.218 -1.0113 -1.7997 -0.6793
  338MOL0     H45628   6.101  12.262   7.918 -1.0349  1.5581  1.7008
  338MOL0     H45629   6.660  11.608   8.079 -1.2601 -2.2865 -0.9480
  338MOL0     H45630   6.834  11.439   8.011  0.3196  0.7236  1.3275
  339MOL0     O45631   5.137   0.169   9.367  0.9361  0.4030  0.2085
  339MOL0     C45632   5.241   0.108   9.332 -0.3389  0.7849  0.5678
  339MOL0     O45633   5.363   0.115   9.398 -0.4436 -0.6759  0.0041
  339MOL0     C45634   5.369   0.203   9.499  0.0028  0.9414 -0.4079
  339MOL0     C45635   5.360   0.342   9.483 -0.3291 -0.8762 -0.0830
  339MOL0     C45636   5.374   0.428   9.587 -0.3171  0.1512  0.5515
  339MOL0     C45637   5.393   0.376   9.715 -0.0223 -0.1594 -0.0157
  339MOL0     O45638   5.395   0.471   9.818  0.5110  0.5371  0.2545
  339MOL0     C45639   5.466   0.440   9.939  1.1889 -0.3139 -0.2237
  339MOL0     C45640   5.463   0.561  10.038  0.0148 -0.0392  0.9755
  339MOL0     C45641   5.538   0.527  10.168 -1.2249  0.4137 -0.0821
  339MOL0     C45642   5.694   0.493  10.144  1.1036 -0.0857 -0.5035
  339MOL0     C45643   5.781   0.537  10.269 -0.0154 -0.4956 -0.0786
  339MOL0     C45644   5.926   0.507  10.249 -0.4248  0.4449 -0.3435
  339MOL0     C45645   6.009   0.636  10.250  0.3324 -0.5630 -0.1297
  339MOL0     C45646   6.158   0.625  10.269 -0.5221  0.8632  0.2762
  339MOL0     N45647   6.221   0.523  10.185 -0.6879  0.0098 -0.3698
  339MOL0     C45648   6.211   0.520  10.048 -0.5316  0.5290 -0.8642
  339MOL0     C45649   6.278   0.397  10.019 -0.5743  0.5804  0.6856
  339MOL0     C45650   6.292   0.330   9.886  0.2049 -0.4127 -1.7835
  339MOL0     C45651   6.254   0.187   9.866 -0.3168 -0.2362 -1.0522
  339MOL0     C45652   6.241   0.149   9.717  0.2537 -0.5118 -0.1332
  339MOL0     C45653   6.202  -0.001   9.707 -0.1466  0.6084 -0.1760
  339MOL0     O45654   6.071  -0.011   9.764 -0.3034 -0.9885 -1.0074
  339MOL0     C45655   5.982  -0.068   9.689 -0.4866  0.2754  0.3929
  339MOL0     C45656   5.892   0.017   9.633  0.4202 -0.7723 -0.3857
  339MOL0     C45657   5.792  -0.019   9.543 -1.3531  0.0544 -0.4251
  339MOL0     C45658   5.702   0.089   9.482  0.8415  0.0996 -0.7537
  339MOL0     C45659   5.798  -0.154   9.497  0.1620 -0.0621  1.2224
  339MOL0     C45660   5.725  -0.212   9.370 -0.5717 -0.0700  0.3459
  339MOL0     O45661   5.737  -0.349   9.339 -0.4966 -0.4495  0.6261
  339MOL0     C45662   5.669  -0.401   9.224 -0.1175 -0.1558 -0.4483
  339MOL0     C45663   5.730  -0.412   9.100 -0.3365 -0.2140 -1.2539
  339MOL0     C45664   5.662  -0.471   8.990  0.1946 -0.0358  0.1383
  339MOL0     C45665   5.532  -0.510   9.001  0.4451 -0.8829 -0.1000
  339MOL0     O45666   5.488  -0.559   8.883 -0.4804 -0.5324  1.1247
  339MOL0     C45667   5.368  -0.628   8.888  0.0086  0.4431 -0.0674
  339MOL0     C45668   5.345  -0.722   8.760  0.2996 -1.0210  0.3852
  339MOL0     C45669   5.465  -0.803   8.711  0.2657 -0.2649 -0.2576
  339MOL0     C45670   5.436  -0.901   8.603  0.2556 -0.1324 -0.1348
  339MOL0     C45671   5.565  -0.967   8.537  0.6609 -0.5750  0.2739
  339MOL0     C45672   5.517  -1.088   8.457 -0.3199  0.3721  0.6866
  339MOL0     C45673   5.420  -1.044   8.346  0.2962 -0.0089  0.0336
  339MOL0     C45674   5.380  -1.157   8.258  0.2347  0.1114  0.0546
  339MOL0    Cl45675   5.236  -1.236   8.327  0.0148 -0.1279  0.1408
  339MOL0     C45676   5.458  -0.497   9.125 -0.7142 -0.1347 -0.6737
  339MOL0     C45677   5.534  -0.445   9.234  0.4068 -0.0545  0.0852
  339MOL0     O45678   5.656  -0.130   9.301  0.5419  0.1194  0.2504
  339MOL0     C45679   5.890  -0.242   9.553 -0.4253 -0.6625 -0.1674
  339MOL0     C45680   5.980  -0.200   9.649 -0.1591 -1.1563 -0.4502
  339MOL0     N45681   6.319   0.333  10.136  0.0930 -0.4904 -0.4207
  339MOL0     N45682   6.274   0.407  10.237 -0.3011  0.1795 -0.3297
  339MOL0     C45683   5.403   0.235   9.728 -0.0700 -0.3695  0.4460
  339MOL0     C45684   5.398   0.153   9.621  0.8381 -0.5977  0.2180
  339MOL0     C45685   5.242   0.033   9.204  0.5731  1.0711 -0.6499
  339MOL0     C45686   5.138   0.028   9.117  0.2424 -0.3076  0.6000
  339MOL0     C45687   5.158  -0.028   8.984  1.4333  1.8845  0.9084
  339MOL0     C45688   5.278  -0.096   8.955 -0.2599 -0.0194 -0.6894
  339MOL0     O45689   5.288  -0.155   8.828  0.2186  0.5523 -0.4843
  339MOL0     C45690   5.417  -0.176   8.767 -0.2405 -0.3070 -0.3006
  339MOL0     C45691   5.431  -0.278   8.653 -0.4700 -0.0597  0.5031
  339MOL0     C45692   5.580  -0.288   8.612  0.3682 -0.0509 -0.3200
  339MOL0     C45693   5.603  -0.407   8.524  0.0764 -0.6383  0.6613
  339MOL0     C45694   5.715  -0.383   8.434  0.8265 -0.4260  0.1136
  339MOL0     C45695   5.805  -0.366   8.347 -0.9372  0.2547 -0.2486
  339MOL0     C45696   5.379  -0.098   9.051  0.5643  0.1080 -0.5498
  339MOL0     C45697   5.358  -0.039   9.174  0.4801 -1.1551 -0.5965
  339MOL0     H45698   5.330   0.384   9.388  0.3628 -0.6298 -0.1985
  339MOL0     H45699   5.357   0.534   9.567  1.4984  0.8141  2.1622
  339MOL0     H45700   5.410   0.350   9.966  0.2653 -0.8684 -3.5420
  339MOL0     H45701   5.562   0.389   9.928  0.5259 -1.4055 -1.2218
  339MOL0     H45702   5.517   0.641   9.986  1.7284 -0.8554  1.4192
  339MOL0     H45703   5.361   0.595  10.059  0.3504  0.3016  2.1503
  339MOL0     H45704   5.543   0.603  10.247  1.1041  0.8794 -0.5992
  339MOL0     H45705   5.480   0.446  10.213 -1.4266  1.8626  2.4615
  339MOL0     H45706   5.719   0.387  10.133 -0.4798 -0.2624 -3.8379
  339MOL0     H45707   5.735   0.546  10.057  0.6190 -1.7483 -1.8050
  339MOL0     H45708   5.761   0.642  10.289  1.7048 -0.2615  0.5440
  339MOL0     H45709   5.737   0.477  10.350 -1.3964  0.1270 -0.3375
  339MOL0     H45710   5.962   0.444  10.331  2.6916  0.6983 -1.3976
  339MOL0     H45711   5.940   0.438  10.165  3.2647 -1.1888  1.3971
  339MOL0     H45712   5.994   0.688  10.155 -1.5346  1.2530  1.0659
  339MOL0     H45713   5.969   0.699  10.331  1.9875 -0.0086  0.3059
  339MOL0     H45714   6.162   0.590  10.373 -2.9897 -1.2007 -0.1937
  339MOL0     H45715   6.214   0.714  10.242  1.5029 -0.8650 -1.6819
  339MOL0     H45716   6.149   0.578   9.980 -0.2522  3.3279  1.0999
  339MOL0     H45717   6.221   0.387   9.825  0.7522  3.6383  0.9725
  339MOL0     H45718   6.386   0.356   9.836  0.3614  0.2793 -1.1430
  339MOL0     H45719   6.162   0.170   9.923  2.1866 -2.7229  2.7416
  339MOL0     H45720   6.336   0.127   9.907 -1.9865 -2.9068 -1.3904
  339MOL0     H45721   6.337   0.162   9.667 -0.0759  0.0746 -0.6158
  339MOL0     H45722   6.160   0.210   9.676  0.1873 -0.5663 -0.0858
  339MOL0     H45723   6.260  -0.072   9.767 -1.5837  0.5214  1.2108
  339MOL0     H45724   6.197  -0.025   9.601 -3.7959 -2.6256  0.4787
  339MOL0     H45725   5.908   0.120   9.665 -2.1992 -0.6355  0.8171
  339MOL0     H45726   5.678   0.163   9.558 -0.3142 -1.9035  0.9402
  339MOL0     H45727   5.758   0.138   9.402  0.9675 -0.2323 -0.8715
  339MOL0     H45728   5.605   0.052   9.450  1.5766 -0.4799 -2.4494
  339MOL0     H45729   5.833  -0.377   9.090 -0.4701  0.3060 -0.8095
  339MOL0     H45730   5.713  -0.476   8.894 -0.5870  0.8698 -0.3454
  339MOL0     H45731   5.375  -0.695   8.974  2.3007  0.4363 -0.1926
  339MOL0     H45732   5.287  -0.556   8.901 -1.2520 -0.8529 -0.4998
  339MOL0     H45733   5.274  -0.792   8.805  0.2348  1.0501  3.9150
  339MOL0     H45734   5.294  -0.657   8.689 -0.6406  0.2053  2.1128
  339MOL0     H45735   5.490  -0.859   8.801  2.0047  2.3465  0.9979
  339MOL0     H45736   5.549  -0.738   8.685 -0.4707  2.2033  2.9631
  339MOL0     H45737   5.356  -0.970   8.633 -1.1430  1.2849 -0.4792
  339MOL0     H45738   5.389  -0.837   8.528  0.7545  1.3913  0.8072
  339MOL0     H45739   5.638  -0.997   8.612 -0.0240  0.5673  1.4544
  339MOL0     H45740   5.606  -0.900   8.461  0.2737 -0.1194  0.4537
  339MOL0     H45741   5.606  -1.141   8.421  2.0847  2.1218  3.6052
  339MOL0     H45742   5.466  -1.152   8.529 -1.1409 -3.0060 -2.5800
  339MOL0     H45743   5.454  -0.963   8.282  1.4465 -1.2239 -0.9319
  339MOL0     H45744   5.327  -1.012   8.395  0.3964 -0.7856  0.7514
  339MOL0     H45745   5.469  -1.220   8.253  0.6043  0.6095  0.3491
  339MOL0     H45746   5.342  -1.117   8.163 -2.1885  3.2585  2.1471
  339MOL0     H45747   5.355  -0.513   9.154 -0.5378  1.3382  0.9287
  339MOL0     H45748   5.477  -0.424   9.324  0.9858 -1.5351  0.8342
  339MOL0     H45749   5.886  -0.346   9.523 -0.0568 -1.4428  2.2904
  339MOL0     H45750   6.058  -0.263   9.691  0.6550  0.0224 -0.1373
  339MOL0     H45751   5.433   0.195   9.824  1.2957  0.0081  0.2034
  339MOL0     H45752   5.407   0.046   9.637  2.8161 -0.8298 -1.9625
  339MOL0     H45753   5.040   0.071   9.136  0.7120  0.9278  0.3213
  339MOL0     H45754   5.091  -0.016   8.898  3.4807 -2.8956 -1.7087
  339MOL0     H45755   5.453  -0.079   8.733  2.0633 -0.2759  1.9734
  339MOL0     H45756   5.482  -0.212   8.847 -1.8567 -0.3180  1.0557
  339MOL0     H45757   5.372  -0.246   8.567 -0.9888  0.4044  1.0265
  339MOL0     H45758   5.397  -0.379   8.680  0.1037 -0.9191 -1.7570
  339MOL0     H45759   5.644  -0.305   8.698 -0.7285  1.5859  0.8866
  339MOL0     H45760   5.619  -0.195   8.567  0.5693  0.2840  0.5248
  339MOL0     H45761   5.516  -0.423   8.459 -1.2396  1.4760  1.7854
  339MOL0     H45762   5.618  -0.497   8.584 -0.1942 -1.5024 -0.5329
  339MOL0     H45763   5.901  -0.370   8.301 -1.3534 -0.9879 -1.0769
  339MOL0     H45764   5.471  -0.153   9.031  0.6894  0.1362 -0.0651
  339MOL0     H45765   5.440  -0.047   9.245 -0.4999 -3.9034  0.3337
  340MOL0     O45766   4.672   3.847  11.314  0.5711  0.3695  0.3201
  340MOL0     C45767   4.561   3.888  11.342 -0.9906 -0.0156  0.5303
  340MOL0     O45768   4.517   3.923  11.465 -0.0405  0.4296  0.2229
  340MOL0     C45769   4.585   3.917  11.582  0.5655 -0.0353  0.3619
  340MOL0     C45770   4.513   3.961  11.695 -0.6510 -0.3033  0.5412
  340MOL0     C45771   4.573   3.971  11.819 -0.8732 -0.2941  0.9206
  340MOL0     C45772   4.694   3.912  11.834  1.1570  0.0479 -0.1196
  340MOL0     O45773   4.752   3.916  11.950  0.3901  0.1101  0.4145
  340MOL0     C45774   4.797   4.034  12.000  0.4570 -0.3477 -0.2569
  340MOL0     C45775   4.846   4.023  12.138 -0.4879 -0.9043 -0.0172
  340MOL0     C45776   4.739   4.045  12.249 -0.4733  0.2420  0.0346
  340MOL0     C45777   4.629   3.941  12.251 -0.5133 -1.1367  0.3171
  340MOL0     C45778   4.535   3.949  12.369 -0.0797  0.7800 -0.2326
  340MOL0     C45779   4.411   3.859  12.344  0.4417 -0.3385 -0.2156
  340MOL0     C45780   4.314   3.869  12.462 -0.3693 -0.4790 -0.8337
  340MOL0     C45781   4.278   4.011  12.500  0.1042 -0.4814 -0.1885
  340MOL0     N45782   4.198   4.016  12.622  0.4203  0.5287  0.1779
  340MOL0     C45783   4.062   4.009  12.621 -0.2325  0.3817 -0.9123
  340MOL0     C45784   4.018   4.046  12.748  0.6719  1.0087  0.1552
  340MOL0     C45785   3.873   4.046  12.788 -0.0183 -0.1684  0.7730
  340MOL0     C45786   3.819   4.167  12.860 -0.4346 -0.2197 -0.0879
  340MOL0     C45787   3.818   4.286  12.757  0.2884 -0.8336  0.0218
  340MOL0     C45788   3.780   4.430  12.818 -0.8988 -0.5688 -0.2661
  340MOL0     O45789   3.649   4.443  12.869 -0.2341 -0.1502  0.2910
  340MOL0     C45790   3.549   4.429  12.782  0.4695  0.0077 -0.5281
  340MOL0     C45791   3.464   4.324  12.794  0.0292  0.1329 -0.5301
  340MOL0     C45792   3.357   4.303  12.710  0.2684  0.1128  0.7561
  340MOL0     C45793   3.282   4.171  12.733  0.1561 -0.1403  0.3047
  340MOL0     C45794   3.334   4.388  12.601  0.2083 -0.2273  0.0586
  340MOL0     C45795   3.234   4.361  12.495  0.0828 -0.7332 -0.2721
  340MOL0     O45796   3.181   4.474  12.447  0.4110 -0.1394  0.4156
  340MOL0     C45797   3.082   4.470  12.349 -1.3609 -0.4075  0.2891
  340MOL0     C45798   2.985   4.372  12.325  0.4136  0.1896 -0.7816
  340MOL0     C45799   2.890   4.382  12.223 -0.9680 -0.3669  0.0608
  340MOL0     C45800   2.867   4.506  12.160 -0.0093 -1.2044  1.3493
  340MOL0     O45801   2.773   4.538  12.059  0.1004  0.3512  0.5025
  340MOL0     C45802   2.712   4.443  11.973 -0.0701  0.1650 -0.4293
  340MOL0     C45803   2.609   4.507  11.876  0.6320 -0.9381 -0.8171
  340MOL0     C45804   2.485   4.577  11.933 -0.4313  0.2681 -0.1543
  340MOL0     C45805   2.382   4.473  11.957 -0.5980  0.1705 -1.2117
  340MOL0     C45806   2.253   4.528  12.017 -0.4850 -0.7360 -0.3436
  340MOL0     C45807   2.166   4.406  12.046 -1.0807 -0.3863 -0.8246
  340MOL0     C45808   2.022   4.436  12.066 -0.3437  0.0345  0.2730
  340MOL0     C45809   1.963   4.492  11.936 -0.5392 -0.7725  0.5490
  340MOL0    Cl45810   2.023   4.425  11.788 -0.3793  0.2709 -0.3564
  340MOL0     C45811   2.964   4.613  12.187  0.4198  0.2547  0.1697
  340MOL0     C45812   3.066   4.587  12.277 -0.0369  0.1852 -0.1633
  340MOL0     O45813   3.219   4.248  12.454  0.0595  0.1178  0.0640
  340MOL0     C45814   3.403   4.508  12.599 -0.0798 -0.7407  0.2082
  340MOL0     C45815   3.508   4.534  12.680  0.0708  0.3080 -0.1137
  340MOL0     N45816   4.124   4.077  12.823  0.1759  0.3284  0.1492
  340MOL0     N45817   4.233   4.053  12.744 -0.4124 -0.5301  0.6565
  340MOL0     C45818   4.757   3.838  11.729  0.3173 -0.0053 -0.8119
  340MOL0     C45819   4.708   3.854  11.596  0.0094  0.2826 -0.4928
  340MOL0     C45820   4.472   3.903  11.218  0.4234 -0.6956 -0.1470
  340MOL0     C45821   4.334   3.945  11.237 -0.2311  0.4411 -0.1140
  340MOL0     C45822   4.256   3.943  11.125  0.1307 -0.0950  0.0406
  340MOL0     C45823   4.307   3.898  11.002 -1.4247  0.6289 -0.2578
  340MOL0     O45824   4.216   3.885  10.900 -0.7205 -0.3618  0.4487
  340MOL0     C45825   4.244   3.819  10.774 -0.4517 -0.3719 -0.0981
  340MOL0     C45826   4.116   3.809  10.679 -0.2889 -0.2307 -1.3633
  340MOL0     C45827   4.013   3.703  10.722 -0.5441 -0.7939 -0.0988
  340MOL0     C45828   4.070   3.559  10.729 -0.7678  0.0101  0.3023
  340MOL0     C45829   3.969   3.472  10.787 -0.1305 -0.7113  0.2485
  340MOL0     C45830   3.887   3.402  10.845  0.7908 -0.2639  0.6038
  340MOL0     C45831   4.442   3.869  10.985 -0.6824 -0.4863  0.9461
  340MOL0     C45832   4.521   3.865  11.093 -0.9071  0.3995  1.2854
  340MOL0     H45833   4.407   3.982  11.682 -1.0827 -1.9107  1.1326
  340MOL0     H45834   4.515   4.014  11.900 -0.0127 -0.0368  1.4050
  340MOL0     H45835   4.875   4.062  11.930 -2.6268  2.0946 -3.0347
  340MOL0     H45836   4.715   4.105  11.983 -0.3680 -1.4320 -0.9758
  340MOL0     H45837   4.896   3.926  12.138 -0.8570 -1.1426 -2.2091
  340MOL0     H45838   4.918   4.102  12.161  0.1807 -2.6811  5.7878
  340MOL0     H45839   4.794   4.017  12.339  0.5368  1.1129 -0.2930
  340MOL0     H45840   4.698   4.145  12.261 -0.5627  0.0561  1.4093
  340MOL0     H45841   4.571   3.955  12.159  2.6106  2.4583 -1.3823
  340MOL0     H45842   4.675   3.842  12.247  2.4688  0.1821 -0.6046
  340MOL0     H45843   4.584   3.918  12.462 -2.0860  1.5138  1.1420
  340MOL0     H45844   4.515   4.057  12.374  0.3030  0.9669 -2.0539
  340MOL0     H45845   4.362   3.898  12.254 -0.8578  3.7275  2.0368
  340MOL0     H45846   4.431   3.753  12.326 -1.0710 -1.0179  1.7603
  340MOL0     H45847   4.223   3.818  12.429  0.2258  0.7260 -4.9690
  340MOL0     H45848   4.346   3.814  12.551  1.7297  0.6695 -0.8158
  340MOL0     H45849   4.221   4.054  12.417  0.0848  0.1979  0.1740
  340MOL0     H45850   4.361   4.081  12.512 -1.4760  2.4198 -4.1261
  340MOL0     H45851   4.012   3.974  12.531 -1.3363  0.6436 -0.4192
  340MOL0     H45852   3.816   4.028  12.696  1.7939  0.2036 -0.4738
  340MOL0     H45853   3.850   3.956  12.845  1.9638 -0.7785  0.6657
  340MOL0     H45854   3.873   4.197  12.950  0.8628  2.6706 -1.6810
  340MOL0     H45855   3.718   4.135  12.886 -0.7923  1.2846  0.4534
  340MOL0     H45856   3.733   4.265  12.691 -0.6866 -3.1941  1.8581
  340MOL0     H45857   3.908   4.284  12.695 -0.0920 -2.9337 -0.5625
  340MOL0     H45858   3.799   4.508  12.743  1.6723  1.0137  1.8744
  340MOL0     H45859   3.850   4.461  12.896 -2.3675  2.0265  0.1267
  340MOL0     H45860   3.459   4.266  12.885 -0.4352 -0.3859 -0.8781
  340MOL0     H45861   3.179   4.174  12.695  0.1714  3.4885  0.2405
  340MOL0     H45862   3.340   4.089  12.691 -0.6520  0.0254 -1.2040
  340MOL0     H45863   3.275   4.156  12.841  2.8467  1.3463  0.7632
  340MOL0     H45864   2.995   4.285  12.389 -2.5818 -1.0689 -1.8296
  340MOL0     H45865   2.826   4.297  12.200  1.7607 -2.8611  1.0081
  340MOL0     H45866   2.780   4.389  11.906 -2.6026 -2.1457 -1.3103
  340MOL0     H45867   2.651   4.371  12.028  1.8060 -1.1497  0.0238
  340MOL0     H45868   2.666   4.571  11.809 -0.4296  0.1786 -0.6895
  340MOL0     H45869   2.567   4.426  11.816  1.4849 -2.8105  0.9748
  340MOL0     H45870   2.451   4.648  11.856 -1.2956  1.5550  1.3528
  340MOL0     H45871   2.522   4.631  12.020 -1.2207 -2.0883  1.7385
  340MOL0     H45872   2.362   4.423  11.862 -0.7733 -2.4108  0.0994
  340MOL0     H45873   2.412   4.404  12.036 -2.5749 -0.3803 -0.8940
  340MOL0     H45874   2.210   4.589  11.936 -0.6916  0.9130  0.9494
  340MOL0     H45875   2.279   4.587  12.105  1.7005 -0.2238 -1.2735
  340MOL0     H45876   2.174   4.342  11.958 -4.4001  2.6951 -3.6971
  340MOL0     H45877   2.208   4.369  12.140 -0.7426 -0.8094 -1.1372
  340MOL0     H45878   2.001   4.513  12.141 -0.6675  2.7189 -2.3853
  340MOL0     H45879   1.962   4.350  12.098 -2.4792  2.0589  2.1193
  340MOL0     H45880   1.982   4.598  11.916  1.5801 -1.2662 -0.3280
  340MOL0     H45881   1.855   4.474  11.943 -0.2960 -2.1162  1.2224
  340MOL0     H45882   2.957   4.709  12.137  1.6414  2.0824  3.2256
  340MOL0     H45883   3.126   4.677  12.287  2.2715 -0.9786 -2.3703
  340MOL0     H45884   3.368   4.581  12.526  1.8262 -0.5585 -0.5988
  340MOL0     H45885   3.568   4.625  12.678  0.0895  0.2774 -0.9742
  340MOL0     H45886   4.846   3.783  11.757  1.3910  1.6414 -0.8161
  340MOL0     H45887   4.770   3.812  11.517 -2.1463 -2.0032 -1.0712
  340MOL0     H45888   4.299   3.955  11.340  1.8864 -3.7275  1.2625
  340MOL0     H45889   4.152   3.972  11.117  0.9146  3.0829 -0.3022
  340MOL0     H45890   4.316   3.875  10.713  1.2446 -1.2232  1.0276
  340MOL0     H45891   4.284   3.720  10.798 -0.0170 -0.5424 -1.4521
  340MOL0     H45892   4.140   3.789  10.574 -1.8990  2.1676 -2.2797
  340MOL0     H45893   4.067   3.906  10.673  0.2485  0.2818  1.1398
  340MOL0     H45894   3.937   3.720  10.645  0.9123  1.9693 -1.0774
  340MOL0     H45895   3.976   3.730  10.821 -1.7789 -0.7542 -0.5548
  340MOL0     H45896   4.145   3.563  10.808  1.7842 -1.2336 -1.9285
  340MOL0     H45897   4.121   3.510  10.645 -2.2474  0.5256 -0.9635
  340MOL0     H45898   3.810   3.354  10.902 -1.0396  3.8114  1.9054
  340MOL0     H45899   4.484   3.849  10.887  2.9754  1.9139  1.8449
  340MOL0     H45900   4.623   3.830  11.085 -0.4382  1.7589  0.9907
  341MOL0     O45901   6.889   7.349   7.324 -0.3331  0.3659 -0.1942
  341MOL0     C45902   6.850   7.239   7.370 -0.8214 -0.6583 -0.8566
  341MOL0     O45903   6.749   7.224   7.452  0.0293 -0.7621  0.1162
  341MOL0     C45904   6.672   7.333   7.490  0.4497  0.2654 -0.2278
  341MOL0     C45905   6.596   7.408   7.402  0.5056  1.0642 -0.7899
  341MOL0     C45906   6.523   7.520   7.437  0.0845 -0.6218 -0.6405
  341MOL0     C45907   6.514   7.559   7.576  0.2515 -0.6654 -0.7268
  341MOL0     O45908   6.422   7.651   7.609  0.3026 -0.5483  1.0076
  341MOL0     C45909   6.396   7.675   7.751  0.4744 -0.9890 -0.6917
  341MOL0     C45910   6.281   7.778   7.756  0.3503 -1.6152  0.2591
  341MOL0     C45911   6.141   7.723   7.756  1.0511  0.7096  0.2427
  341MOL0     C45912   6.106   7.687   7.609  0.3669 -0.1293 -0.4029
  341MOL0     C45913   5.985   7.595   7.593 -0.5492 -0.4313  0.6366
  341MOL0     C45914   5.972   7.561   7.435 -0.4412 -0.5522  0.6673
  341MOL0     C45915   5.857   7.473   7.384 -0.3277 -0.1012 -0.1162
  341MOL0     C45916   5.727   7.546   7.381  0.1302 -0.7497 -0.1453
  341MOL0     N45917   5.605   7.479   7.326  0.7466  0.7019 -0.0921
  341MOL0     C45918   5.617   7.389   7.222 -0.1317 -0.3981 -0.8610
  341MOL0     C45919   5.486   7.361   7.190  0.4737 -0.0195 -0.4961
  341MOL0     C45920   5.438   7.254   7.092  0.1614 -0.4621  0.0513
  341MOL0     C45921   5.503   7.280   6.954 -0.1874 -0.5927 -0.9684
  341MOL0     C45922   5.422   7.392   6.887 -0.5858  0.3366 -0.3959
  341MOL0     C45923   5.496   7.451   6.774  0.2102 -0.9865  0.2302
  341MOL0     O45924   5.463   7.365   6.666 -0.8085 -0.5962  0.4185
  341MOL0     C45925   5.563   7.273   6.627  0.1612 -0.2843 -0.4483
  341MOL0     C45926   5.536   7.132   6.635  0.8443 -0.5587 -0.2966
  341MOL0     C45927   5.639   7.045   6.616 -0.2677  0.4013  0.0216
  341MOL0     C45928   5.598   6.900   6.642  0.2005 -0.2739  0.1317
  341MOL0     C45929   5.767   7.084   6.593 -0.2191 -0.0577  0.7710
  341MOL0     C45930   5.878   6.987   6.587 -0.1668 -0.4113 -0.5199
  341MOL0     O45931   5.967   6.998   6.484  0.1654 -0.4261 -0.5440
  341MOL0     C45932   6.095   6.946   6.474  0.2370 -0.2517 -0.2793
  341MOL0     C45933   6.148   6.937   6.343  1.2024  0.5885 -1.0990
  341MOL0     C45934   6.272   6.882   6.328 -0.0547  0.5406 -0.2662
  341MOL0     C45935   6.352   6.836   6.435 -0.8672  1.3994 -0.1621
  341MOL0     O45936   6.485   6.791   6.433  0.2277  0.3671  0.5735
  341MOL0     C45937   6.536   6.732   6.313  0.4080  0.5420 -1.7402
  341MOL0     C45938   6.688   6.745   6.319 -0.2863 -0.6100 -0.8365
  341MOL0     C45939   6.757   6.650   6.220  0.2963 -0.2277 -0.2960
  341MOL0     C45940   6.913   6.661   6.242 -1.2557 -1.5618 -0.3980
  341MOL0     C45941   7.002   6.603   6.125  0.0619 -0.3577  1.0693
  341MOL0     C45942   6.963   6.459   6.094 -0.4842 -0.0879  0.4393
  341MOL0     C45943   6.851   6.449   5.987 -0.0098 -0.5399 -0.8769
  341MOL0     C45944   6.857   6.307   5.922  0.4056 -0.7335  0.8845
  341MOL0    Cl45945   6.686   6.271   5.872 -0.4486  0.1662  0.3029
  341MOL0     C45946   6.300   6.848   6.560  0.3637 -0.1282 -0.3838
  341MOL0     C45947   6.178   6.902   6.581  0.6864  0.4469  0.1938
  341MOL0     O45948   5.880   6.897   6.666 -0.1399  0.7142  0.2075
  341MOL0     C45949   5.795   7.223   6.568  0.6901 -0.1462 -0.5525
  341MOL0     C45950   5.696   7.319   6.600  0.2917  0.6714  0.6186
  341MOL0     N45951   5.400   7.431   7.280  0.8519  0.0174 -0.3894
  341MOL0     N45952   5.479   7.499   7.363 -0.1993 -0.0901 -0.3952
  341MOL0     C45953   6.595   7.494   7.669 -0.6282 -0.0179  0.6686
  341MOL0     C45954   6.676   7.375   7.627  0.1849  0.0612 -0.2223
  341MOL0     C45955   6.926   7.115   7.326 -0.1294  0.6705 -0.4703
  341MOL0     C45956   7.040   7.116   7.240 -0.4830  0.1428  0.1271
  341MOL0     C45957   7.107   7.000   7.207 -0.1589  0.4461  0.3009
  341MOL0     C45958   7.070   6.885   7.272  0.2029  1.0404 -0.0839
  341MOL0     O45959   7.144   6.773   7.269  0.2622  0.2331 -0.7751
  341MOL0     C45960   7.288   6.785   7.291  0.0202  0.1944  0.6707
  341MOL0     C45961   7.369   6.651   7.267 -0.2662 -0.3264  1.0698
  341MOL0     C45962   7.325   6.580   7.133 -0.8303  0.5371  0.0499
  341MOL0     C45963   7.397   6.457   7.089  0.0589 -0.1248  0.3854
  341MOL0     C45964   7.296   6.372   7.027  0.7891 -0.2254 -0.1562
  341MOL0     C45965   7.214   6.291   6.990  1.1206 -0.6136 -0.0006
  341MOL0     C45966   6.956   6.885   7.356 -0.1635  0.5661 -0.6993
  341MOL0     C45967   6.874   6.997   7.372 -0.5137  0.2351 -0.4589
  341MOL0     H45968   6.600   7.386   7.296  2.2073  2.3763 -1.0551
  341MOL0     H45969   6.457   7.561   7.362  0.7787  2.1787  0.1785
  341MOL0     H45970   6.368   7.576   7.789 -0.5424 -0.8216 -0.9680
  341MOL0     H45971   6.479   7.716   7.809  0.7656 -0.2016 -1.6549
  341MOL0     H45972   6.301   7.852   7.834  0.3335 -0.5187 -0.7583
  341MOL0     H45973   6.289   7.843   7.669 -1.0347 -2.0236 -0.1966
  341MOL0     H45974   6.148   7.627   7.808 -1.3477  1.2738  1.7588
  341MOL0     H45975   6.076   7.798   7.803 -0.5262 -0.7935  0.5555
  341MOL0     H45976   6.101   7.783   7.557  1.9186  0.7355  0.9751
  341MOL0     H45977   6.188   7.632   7.561 -0.7937 -0.2941 -2.3535
  341MOL0     H45978   6.008   7.506   7.652  3.0126  0.4406  0.8112
  341MOL0     H45979   5.898   7.650   7.630 -0.6569 -1.0687  1.3272
  341MOL0     H45980   5.974   7.652   7.375  0.4154 -2.2522 -2.0669
  341MOL0     H45981   6.063   7.508   7.404 -0.8937 -0.1478 -1.5564
  341MOL0     H45982   5.889   7.436   7.286 -2.1981 -2.7993  0.1928
  341MOL0     H45983   5.856   7.382   7.445  1.6615 -1.6271 -2.1777
  341MOL0     H45984   5.743   7.639   7.325 -1.7198  0.4479  1.1759
  341MOL0     H45985   5.700   7.581   7.482  0.1284 -1.4872  0.1117
  341MOL0     H45986   5.710   7.357   7.177  1.7425  0.7225  1.9188
  341MOL0     H45987   5.467   7.156   7.131  0.6895 -0.7796 -1.0997
  341MOL0     H45988   5.330   7.238   7.085  0.0173 -1.3107  2.9170
  341MOL0     H45989   5.499   7.192   6.889  1.6483 -0.1706 -1.6997
  341MOL0     H45990   5.609   7.304   6.967  0.7049 -4.1232 -0.5336
  341MOL0     H45991   5.409   7.477   6.955 -2.4493 -1.3572  1.5054
  341MOL0     H45992   5.321   7.358   6.863  0.3788 -2.6296 -0.7056
  341MOL0     H45993   5.601   7.466   6.799 -0.3824  0.9242  1.8595
  341MOL0     H45994   5.463   7.552   6.749  2.9897 -0.3439 -1.2089
  341MOL0     H45995   5.433   7.109   6.657  1.4961  0.0730  4.3101
  341MOL0     H45996   5.490   6.886   6.634 -0.1903  1.6014  1.3973
  341MOL0     H45997   5.634   6.831   6.565 -0.7883 -0.3159 -0.3077
  341MOL0     H45998   5.629   6.856   6.737 -2.0357 -0.8210  0.6452
  341MOL0     H45999   6.090   6.973   6.259 -1.2561 -3.4423 -1.3437
  341MOL0     H46000   6.307   6.898   6.227  1.0497  1.0573  0.1763
  341MOL0     H46001   6.514   6.625   6.313  3.6728 -0.2835 -0.0151
  341MOL0     H46002   6.498   6.778   6.222 -1.6675  2.6770  0.0512
  341MOL0     H46003   6.711   6.852   6.315  0.5854 -0.7420  0.1438
  341MOL0     H46004   6.729   6.714   6.416  3.0366 -0.5817 -2.0787
  341MOL0     H46005   6.734   6.679   6.117  0.6901 -0.2969 -0.4056
  341MOL0     H46006   6.718   6.549   6.235  2.7724 -1.2790 -0.4053
  341MOL0     H46007   6.924   6.770   6.253 -3.4026 -1.3561  0.0626
  341MOL0     H46008   6.938   6.612   6.336 -1.6055 -1.6223 -0.3373
  341MOL0     H46009   7.110   6.612   6.140  0.6367 -2.5970 -1.0522
  341MOL0     H46010   6.989   6.663   6.034  1.3989  0.1479  1.1920
  341MOL0     H46011   7.052   6.408   6.055 -1.4300 -1.4650 -0.0164
  341MOL0     H46012   6.921   6.412   6.184 -0.6563 -0.5659  0.1132
  341MOL0     H46013   6.866   6.533   5.919  0.0744 -0.4893 -0.7960
  341MOL0     H46014   6.755   6.460   6.039  1.3788  0.4688  1.6396
  341MOL0     H46015   6.885   6.227   5.991 -0.1043 -0.0652  1.8783
  341MOL0     H46016   6.913   6.323   5.829 -0.6553 -1.2237  0.1332
  341MOL0     H46017   6.363   6.824   6.645  0.4282 -1.5461 -0.7961
  341MOL0     H46018   6.136   6.913   6.681  2.4274  2.4576  0.7938
  341MOL0     H46019   5.901   7.230   6.548  0.4867 -1.2087 -2.3262
  341MOL0     H46020   5.712   7.426   6.595 -4.4682  1.7455  2.7822
  341MOL0     H46021   6.608   7.524   7.772 -0.6543 -1.1059  1.0037
  341MOL0     H46022   6.749   7.327   7.691  0.5630 -0.2717 -0.8866
  341MOL0     H46023   7.086   7.207   7.202 -1.5509  1.0525  0.9170
  341MOL0     H46024   7.186   6.993   7.133 -1.2747 -4.2677 -0.7874
  341MOL0     H46025   7.324   6.868   7.230 -0.5326  1.6717  2.2650
  341MOL0     H46026   7.288   6.797   7.399 -0.8494 -3.8205  1.2953
  341MOL0     H46027   7.351   6.571   7.338 -0.6960 -1.1462  0.0615
  341MOL0     H46028   7.473   6.684   7.261 -0.9776  1.8780 -0.8279
  341MOL0     H46029   7.351   6.648   7.051 -0.4966 -2.1803 -2.2674
  341MOL0     H46030   7.216   6.567   7.127 -0.5458 -2.9386 -0.0489
  341MOL0     H46031   7.455   6.419   7.174  2.6376  5.1621  1.3724
  341MOL0     H46032   7.481   6.468   7.020 -0.2374 -1.3440 -0.2016
  341MOL0     H46033   7.152   6.218   6.942 -0.8752  0.6327  0.5168
  341MOL0     H46034   6.938   6.792   7.409 -0.3281  1.4941  0.9502
  341MOL0     H46035   6.792   6.994   7.444  0.0902  1.4446  0.3218
  342MOL0     O46036   1.986   6.612   5.568  0.6189 -0.2470  0.6780
  342MOL0     C46037   2.043   6.713   5.591 -0.5179  0.2972 -0.3076
  342MOL0     O46038   1.992   6.817   5.669  0.1641  0.7534  0.1093
  342MOL0     C46039   1.871   6.796   5.736 -0.1978  0.2415  0.4283
  342MOL0     C46040   1.876   6.776   5.871  0.8476 -0.0946 -0.3528
  342MOL0     C46041   1.760   6.752   5.947  0.3372 -0.0824 -1.0295
  342MOL0     C46042   1.641   6.728   5.876 -0.5164  0.6185 -1.1702
  342MOL0     O46043   1.535   6.677   5.956  0.2457  0.3348  0.6612
  342MOL0     C46044   1.399   6.651   5.893  0.0422 -0.3689 -1.3282
  342MOL0     C46045   1.295   6.592   5.996  0.0328  0.7189  0.3119
  342MOL0     C46046   1.242   6.688   6.100  0.2435 -0.0829  0.4539
  342MOL0     C46047   1.187   6.616   6.220  0.7007  0.0305 -0.3924
  342MOL0     C46048   1.031   6.597   6.222  0.0734 -0.0124  0.2249
  342MOL0     C46049   0.989   6.463   6.160  0.2106  0.4347  0.9106
  342MOL0     C46050   0.840   6.449   6.120  0.6004 -0.7792  0.1571
  342MOL0     C46051   0.779   6.575   6.040 -0.6530  1.0495  0.0036
  342MOL0     N46052   0.640   6.534   5.996  0.7622  0.3706 -0.7516
  342MOL0     C46053   0.604   6.450   5.902  0.2074  0.1756  0.1647
  342MOL0     C46054   0.472   6.472   5.876  0.0469 -0.5425  1.1961
  342MOL0     C46055   0.396   6.425   5.758  0.7185 -0.0857  0.8930
  342MOL0     C46056   0.365   6.279   5.765 -0.2460  0.3852  0.1773
  342MOL0     C46057   0.276   6.244   5.646  0.0697  0.2502  0.6642
  342MOL0     C46058   0.269   6.091   5.630  0.6822  0.8943  0.8699
  342MOL0     O46059   0.227   6.060   5.497 -0.6836 -0.2594 -0.6896
  342MOL0     C46060   0.192   5.927   5.476  0.2397  0.7927 -0.3707
  342MOL0     C46061   0.160   5.884   5.347 -0.6063 -0.8165  0.0231
  342MOL0     C46062   0.112   5.758   5.309  0.1817  0.5563 -0.5065
  342MOL0     C46063   0.108   5.745   5.157  0.1084  0.5303  0.5552
  342MOL0     C46064   0.082   5.671   5.419  0.6274 -0.3819 -0.5723
  342MOL0     C46065   0.017   5.535   5.401  0.8994  0.7563  0.3872
  342MOL0     O46066  -0.025   5.479   5.519  0.4006 -0.6028  0.2092
  342MOL0     C46067  -0.127   5.386   5.508 -0.2098  0.2060 -0.0054
  342MOL0     C46068  -0.117   5.251   5.462  0.3059  0.4506 -0.3263
  342MOL0     C46069  -0.220   5.166   5.477  0.0668  0.0281 -0.2369
  342MOL0     C46070  -0.335   5.202   5.544  0.0625  0.0657 -0.6745
  342MOL0     O46071  -0.422   5.104   5.588  0.0186 -0.0116  0.1274
  342MOL0     C46072  -0.567   5.120   5.605  1.4048  0.3609  0.1957
  342MOL0     C46073  -0.642   4.983   5.619  0.5460 -0.9819  1.1059
  342MOL0     C46074  -0.691   4.932   5.491 -1.0268  0.4359  0.8320
  342MOL0     C46075  -0.585   4.903   5.376  0.2823  0.0387  0.0564
  342MOL0     C46076  -0.654   4.852   5.247 -0.4973 -0.5873  0.0452
  342MOL0     C46077  -0.556   4.781   5.143 -0.5053 -0.4998 -0.8758
  342MOL0     C46078  -0.449   4.687   5.199 -1.2518  0.8048  0.0673
  342MOL0     C46079  -0.380   4.589   5.102  1.2552 -0.0325  0.3060
  342MOL0    Cl46080  -0.494   4.477   5.035 -0.4276 -0.6884  0.5432
  342MOL0     C46081  -0.354   5.343   5.581 -0.6730  0.1996 -0.0271
  342MOL0     C46082  -0.247   5.423   5.562  0.7604 -0.0815 -0.3328
  342MOL0     O46083  -0.026   5.508   5.291 -0.4855  0.2891 -0.8737
  342MOL0     C46084   0.113   5.711   5.553  0.1668 -0.2849  1.0293
  342MOL0     C46085   0.175   5.833   5.579  0.6544  0.9679  0.3724
  342MOL0     N46086   0.425   6.538   5.984  0.2995  1.2425  0.1254
  342MOL0     N46087   0.524   6.581   6.053 -0.6520 -0.3510  0.0716
  342MOL0     C46088   1.648   6.759   5.736 -0.0217  0.4951  0.0916
  342MOL0     C46089   1.753   6.793   5.670 -0.8823 -0.5943  0.2745
  342MOL0     C46090   2.180   6.731   5.518 -0.3030  0.4082 -0.0772
  342MOL0     C46091   2.226   6.861   5.498 -0.2708  0.7469 -0.5230
  342MOL0     C46092   2.346   6.881   5.431  0.4235  0.2833 -0.0672
  342MOL0     C46093   2.425   6.775   5.403  0.2545  0.1596  0.8036
  342MOL0     O46094   2.543   6.783   5.337 -0.3250 -0.3328 -0.5904
  342MOL0     C46095   2.589   6.899   5.273 -0.8698  0.0646 -0.3599
  342MOL0     C46096   2.509   6.947   5.137 -0.5192  0.2589 -0.9664
  342MOL0     C46097   2.550   7.091   5.095  0.1360 -0.1742 -0.0275
  342MOL0     C46098   2.438   7.152   5.003 -0.0728 -0.2089 -0.1703
  342MOL0     C46099   2.435   7.088   4.870 -0.2400 -0.0665 -1.0503
  342MOL0     C46100   2.435   7.025   4.761  0.1983 -0.0814 -0.2757
  342MOL0     C46101   2.380   6.645   5.427 -0.0053  0.0534  0.0055
  342MOL0     C46102   2.255   6.620   5.486  0.9120  0.0518 -0.4778
  342MOL0     H46103   1.976   6.785   5.911  0.9610 -0.6578 -0.5037
  342MOL0     H46104   1.783   6.729   6.050  0.2969 -1.4072 -1.2964
  342MOL0     H46105   1.358   6.744   5.852 -1.1464  0.3699  1.2693
  342MOL0     H46106   1.419   6.574   5.818 -1.2748 -3.2503  1.0849
  342MOL0     H46107   1.207   6.562   5.938 -1.1310 -2.4063  3.3749
  342MOL0     H46108   1.341   6.503   6.040 -0.6362  0.4985  0.5768
  342MOL0     H46109   1.326   6.752   6.129 -1.3977  2.3191  0.2880
  342MOL0     H46110   1.160   6.751   6.063 -2.1637 -3.3035 -0.0867
  342MOL0     H46111   1.241   6.522   6.230 -2.4632 -1.6446  4.3073
  342MOL0     H46112   1.223   6.674   6.305  2.0865 -1.1344 -0.1517
  342MOL0     H46113   0.997   6.596   6.326 -2.9282  2.8263 -0.5493
  342MOL0     H46114   0.988   6.687   6.177 -0.9496  0.7228  2.5112
  342MOL0     H46115   1.043   6.460   6.065  2.3292  0.9486  2.0354
  342MOL0     H46116   1.029   6.383   6.223  1.9660  2.0004  1.8933
  342MOL0     H46117   0.845   6.363   6.052 -0.8545 -1.1014  0.4333
  342MOL0     H46118   0.776   6.423   6.205 -3.5807  2.1149 -1.7468
  342MOL0     H46119   0.853   6.595   5.962 -0.7107 -0.5358 -0.4947
  342MOL0     H46120   0.762   6.660   6.107 -2.3684 -0.7637  1.9971
  342MOL0     H46121   0.676   6.399   5.838 -0.3619 -0.5531  0.0918
  342MOL0     H46122   0.313   6.494   5.736  0.9755 -0.1570 -0.3859
  342MOL0     H46123   0.466   6.424   5.674 -0.0214  2.3487  0.1462
  342MOL0     H46124   0.318   6.235   5.853 -3.4460 -1.9222 -2.4048
  342MOL0     H46125   0.461   6.227   5.765  0.5535  1.7898 -0.1313
  342MOL0     H46126   0.335   6.274   5.559  2.9418 -1.5924  1.8281
  342MOL0     H46127   0.182   6.295   5.666  0.0421  0.1111  0.8872
  342MOL0     H46128   0.198   6.052   5.703  2.8680 -0.7830  2.2174
  342MOL0     H46129   0.368   6.047   5.644  0.2835  0.1370  1.3377
  342MOL0     H46130   0.191   5.960   5.276 -0.6658 -1.4278 -0.6752
  342MOL0     H46131   0.196   5.688   5.124 -1.9255 -0.5255 -3.8058
  342MOL0     H46132   0.020   5.693   5.119  1.7168 -1.6746 -0.4256
  342MOL0     H46133   0.100   5.839   5.103  0.2536  0.1134 -0.2068
  342MOL0     H46134  -0.023   5.214   5.422  1.2605  1.5157  0.8507
  342MOL0     H46135  -0.218   5.064   5.441  0.6702 -0.9591  2.3847
  342MOL0     H46136  -0.582   5.182   5.695 -1.3452  0.7967 -0.4735
  342MOL0     H46137  -0.602   5.174   5.517  2.3654  3.6399  1.6654
  342MOL0     H46138  -0.563   4.915   5.653  1.7624 -0.8148 -1.2162
  342MOL0     H46139  -0.716   4.989   5.699  2.3848  1.2701  2.7701
  342MOL0     H46140  -0.761   5.004   5.446 -3.5767 -0.1115  3.5994
  342MOL0     H46141  -0.745   4.838   5.500 -0.3292 -0.2481 -1.3357
  342MOL0     H46142  -0.527   4.993   5.352  1.2407 -0.7929 -0.8564
  342MOL0     H46143  -0.529   4.821   5.421 -1.1214 -1.7251 -1.2930
  342MOL0     H46144  -0.721   4.927   5.206  0.3554  0.7552  1.0218
  342MOL0     H46145  -0.715   4.768   5.283  0.6017 -2.0830 -1.4232
  342MOL0     H46146  -0.609   4.719   5.070 -0.6119 -0.2640 -0.9995
  342MOL0     H46147  -0.497   4.860   5.096  0.1958 -0.4508  0.0643
  342MOL0     H46148  -0.489   4.632   5.284  1.7365  2.2060  2.6004
  342MOL0     H46149  -0.368   4.750   5.237 -0.8744 -1.1420  2.8152
  342MOL0     H46150  -0.300   4.535   5.154  0.1335 -1.8956  0.2254
  342MOL0     H46151  -0.347   4.655   5.022  2.8433  1.5296  2.1590
  342MOL0     H46152  -0.451   5.377   5.615 -1.2097  2.1748 -3.1745
  342MOL0     H46153  -0.258   5.527   5.591  1.9889 -0.0520  0.0666
  342MOL0     H46154   0.095   5.645   5.637  1.2708 -0.0264  1.4808
  342MOL0     H46155   0.200   5.849   5.683  0.8313  0.5522  0.3952
  342MOL0     H46156   1.555   6.741   5.683  0.3137 -1.4141  0.0852
  342MOL0     H46157   1.745   6.821   5.566  0.0067  1.4889  0.7113
  342MOL0     H46158   2.155   6.943   5.502 -0.2343  0.7327  0.5686
  342MOL0     H46159   2.386   6.973   5.390  0.3093  1.2643  1.9189
  342MOL0     H46160   2.614   6.985   5.336 -0.2273  0.5814 -1.3030
  342MOL0     H46161   2.689   6.870   5.242 -1.1362  0.4069 -1.5884
  342MOL0     H46162   2.400   6.939   5.146 -0.3249 -0.6231  1.2484
  342MOL0     H46163   2.526   6.872   5.059  1.0303 -2.2195  1.5611
  342MOL0     H46164   2.642   7.092   5.037 -0.2429 -2.6510 -0.7797
  342MOL0     H46165   2.558   7.156   5.182  0.0559 -2.7811  2.0433
  342MOL0     H46166   2.463   7.256   4.981 -1.6731  0.7904  2.3067
  342MOL0     H46167   2.341   7.154   5.053  0.1530 -1.8643  0.4251
  342MOL0     H46168   2.439   6.974   4.667  1.2097  0.0583 -0.3298
  342MOL0     H46169   2.444   6.561   5.403  0.0904 -0.4668  1.9584
  342MOL0     H46170   2.206   6.523   5.493  0.1504  0.3863 -1.0298
  343MOL0     O46171   5.930   9.071   9.494  0.1089  0.4349 -0.0689
  343MOL0     C46172   5.907   8.951   9.457 -0.3125 -0.4979  0.0933
  343MOL0     O46173   5.997   8.854   9.433 -0.5697 -0.2936 -0.3122
  343MOL0     C46174   6.125   8.883   9.471  0.3407 -0.5918  0.0198
  343MOL0     C46175   6.227   8.920   9.380  0.5447  0.8403  0.0444
  343MOL0     C46176   6.355   8.959   9.432  0.7053  0.3074  0.9349
  343MOL0     C46177   6.371   8.950   9.568  0.2472 -0.4646  0.6088
  343MOL0     O46178   6.478   9.004   9.636  0.6740 -0.1956 -0.4409
  343MOL0     C46179   6.601   9.011   9.567 -0.5970  0.1867 -0.8995
  343MOL0     C46180   6.711   9.017   9.676 -0.9993 -0.2687  0.2453
  343MOL0     C46181   6.765   9.167   9.707 -0.3756  0.0466 -0.0158
  343MOL0     C46182   6.796   9.242   9.572 -0.5892 -0.2229 -0.2341
  343MOL0     C46183   6.867   9.376   9.610 -1.3055  0.2119 -0.0306
  343MOL0     C46184   6.793   9.495   9.557  0.1989  0.3852 -0.1256
  343MOL0     C46185   6.883   9.615   9.555  0.2441 -0.1975  0.0255
  343MOL0     C46186   6.792   9.747   9.554 -0.7769  0.3461 -0.0085
  343MOL0     N46187   6.687   9.760   9.659 -0.1698  0.1274  1.2685
  343MOL0     C46188   6.686   9.717   9.792  1.1381  0.5988  1.5169
  343MOL0     C46189   6.570   9.745   9.845 -0.3125  0.8608 -0.5658
  343MOL0     C46190   6.531   9.733   9.992  0.3025 -0.2743 -0.3604
  343MOL0     C46191   6.544   9.868  10.063  0.9010  0.0429  0.1806
  343MOL0     C46192   6.485   9.863  10.201  0.4320  0.6627 -0.4346
  343MOL0     C46193   6.513   9.980  10.296 -0.8117  0.0378  0.6916
  343MOL0     O46194   6.479  10.108  10.235 -0.4355 -0.3431  0.8874
  343MOL0     C46195   6.351  10.167  10.243 -0.2536 -0.0841 -0.5817
  343MOL0     C46196   6.323  10.289  10.178 -0.3098 -0.9670 -0.2617
  343MOL0     C46197   6.198  10.353  10.192 -0.0866  0.4533 -0.6818
  343MOL0     C46198   6.177  10.470  10.092  0.3909 -0.0309  0.0287
  343MOL0     C46199   6.098  10.290  10.275  0.4808 -0.5633  0.4033
  343MOL0     C46200   5.959  10.342  10.280  0.2344  0.1200  0.7071
  343MOL0     O46201   5.867  10.264  10.349 -0.0611  0.6786 -0.0405
  343MOL0     C46202   5.736  10.300  10.347 -0.1842  0.2557 -0.7564
  343MOL0     C46203   5.650  10.261  10.245  0.3145 -0.7435  1.9987
  343MOL0     C46204   5.519  10.309  10.236  0.6878  0.3831 -0.6771
  343MOL0     C46205   5.467  10.383  10.348  0.1816  0.4842 -0.9039
  343MOL0     O46206   5.337  10.422  10.361  0.2230  0.5323  0.3395
  343MOL0     C46207   5.234  10.365  10.275 -0.9707  0.7859 -0.1566
  343MOL0     C46208   5.181  10.242  10.331  0.2794 -0.3445 -0.0339
  343MOL0     C46209   5.077  10.270  10.441  0.0370  0.3296 -0.6148
  343MOL0     C46210   4.947  10.337  10.401 -1.1762  0.0363 -0.0029
  343MOL0     C46211   4.852  10.363  10.524 -0.0130 -1.6137 -0.7105
  343MOL0     C46212   4.711  10.411  10.478 -0.1111  0.0171 -0.1301
  343MOL0     C46213   4.625  10.437  10.599  0.2788  0.1174 -0.1679
  343MOL0     C46214   4.499  10.532  10.581 -0.8690 -0.4411 -0.5610
  343MOL0    Cl46215   4.369  10.453  10.493 -0.1604 -0.0032  0.6151
  343MOL0     C46216   5.548  10.412  10.453 -0.1956  0.1369  1.0956
  343MOL0     C46217   5.678  10.365  10.459 -0.6422 -0.1201 -0.5928
  343MOL0     O46218   5.924  10.442  10.207  0.3666  0.4625 -0.0959
  343MOL0     C46219   6.129  10.168  10.337 -0.9807  0.8015  0.6693
  343MOL0     C46220   6.256  10.105  10.324  0.3974 -1.1808  0.0684
  343MOL0     N46221   6.494   9.791   9.743 -0.1543 -0.8967  0.5958
  343MOL0     N46222   6.562   9.796   9.632 -1.1070 -0.4770  0.4290
  343MOL0     C46223   6.271   8.910   9.660 -0.1082  0.1378  0.3081
  343MOL0     C46224   6.152   8.878   9.608 -0.8184  1.0920 -0.2515
  343MOL0     C46225   5.762   8.922   9.420 -0.4860 -0.0969  0.2661
  343MOL0     C46226   5.725   8.830   9.326 -0.3456 -0.4927 -0.3823
  343MOL0     C46227   5.583   8.785   9.299  0.1435 -0.1151 -1.8343
  343MOL0     C46228   5.486   8.836   9.401  0.1461  0.2852  0.4706
  343MOL0     O46229   5.350   8.807   9.405  0.0703  0.1615 -0.5749
  343MOL0     C46230   5.307   8.666   9.394  0.9065 -0.8469 -0.2646
  343MOL0     C46231   5.162   8.649   9.420  0.8747 -0.9741  0.8172
  343MOL0     C46232   5.089   8.676   9.289  0.3384 -0.0785 -0.1166
  343MOL0     C46233   5.117   8.810   9.222 -0.0614 -0.2891  0.5705
  343MOL0     C46234   5.232   8.792   9.130  0.2350  0.0264 -0.2203
  343MOL0     C46235   5.317   8.787   9.045  0.3109 -0.0474  1.0551
  343MOL0     C46236   5.524   8.932   9.488 -0.4015 -0.4690 -0.8250
  343MOL0     C46237   5.658   8.974   9.502 -0.2384 -0.5296  0.5923
  343MOL0     H46238   6.208   8.929   9.273  3.8989 -0.5139 -0.7939
  343MOL0     H46239   6.434   8.972   9.358 -0.8401  1.7152 -0.5684
  343MOL0     H46240   6.620   8.921   9.508 -0.1682  1.7129 -3.2452
  343MOL0     H46241   6.611   9.101   9.504  0.5889  0.3284 -0.5332
  343MOL0     H46242   6.677   8.969   9.768  1.0553 -0.2488  1.0590
  343MOL0     H46243   6.797   8.959   9.641  0.1462  2.9452 -2.8477
  343MOL0     H46244   6.686   9.225   9.756 -3.9274 -3.8695 -0.6038
  343MOL0     H46245   6.864   9.162   9.753  0.3365 -1.4930 -1.6268
  343MOL0     H46246   6.852   9.176   9.506  0.4963  0.3196  0.1322
  343MOL0     H46247   6.699   9.267   9.527 -0.1603  0.3872 -0.8251
  343MOL0     H46248   6.891   9.392   9.716 -1.3689 -2.4625  0.4477
  343MOL0     H46249   6.964   9.380   9.560 -1.9347  0.1830 -1.2743
  343MOL0     H46250   6.764   9.483   9.453  0.2175  3.3785 -0.5732
  343MOL0     H46251   6.706   9.513   9.621 -0.7809  0.4202 -1.4247
  343MOL0     H46252   6.956   9.616   9.636  4.3982  0.1485 -3.4081
  343MOL0     H46253   6.938   9.610   9.461  0.7031  2.2557  0.1001
  343MOL0     H46254   6.763   9.766   9.450  0.4749 -1.0947 -0.6552
  343MOL0     H46255   6.859   9.830   9.579  0.1313 -0.1208 -0.8388
  343MOL0     H46256   6.770   9.671   9.844  0.3508  0.8365  3.0744
  343MOL0     H46257   6.429   9.698  10.009  0.5958 -2.1413 -2.0522
  343MOL0     H46258   6.595   9.659  10.039 -2.7422 -1.7043  1.8515
  343MOL0     H46259   6.488   9.943  10.007  2.5242 -1.2973 -3.5819
  343MOL0     H46260   6.647   9.902  10.078  1.1154 -1.0081  1.2195
  343MOL0     H46261   6.509   9.766  10.247 -0.0319  1.9541  2.8246
  343MOL0     H46262   6.377   9.870  10.190  0.4641 -0.3933 -1.6845
  343MOL0     H46263   6.618   9.973  10.327 -1.1956 -0.0633  2.0708
  343MOL0     H46264   6.466   9.970  10.395 -1.8676  2.0718  0.4524
  343MOL0     H46265   6.394  10.325  10.105  1.0167 -2.8993 -0.0132
  343MOL0     H46266   6.275  10.508  10.064  0.5013  1.3578  2.0577
  343MOL0     H46267   6.127  10.419  10.009  0.3018 -1.5260  0.9514
  343MOL0     H46268   6.123  10.558  10.127  0.3033  0.8406 -2.1508
  343MOL0     H46269   5.703  10.230  10.156  2.2201 -1.8259  3.4554
  343MOL0     H46270   5.454  10.289  10.152  1.5775 -0.7815 -1.1177
  343MOL0     H46271   5.158  10.443  10.267 -2.4788 -0.7077 -0.9272
  343MOL0     H46272   5.272  10.357  10.173  0.0595 -0.8226  0.3239
  343MOL0     H46273   5.146  10.171  10.255  0.7452 -2.6362  1.7617
  343MOL0     H46274   5.268  10.190  10.373  1.6653  1.0671 -1.0306
  343MOL0     H46275   5.119  10.328  10.524 -0.5682  0.7026 -0.5628
  343MOL0     H46276   5.063  10.172  10.488  0.4042  0.8802  0.6849
  343MOL0     H46277   4.967  10.436  10.359  2.2764  0.0130  1.2099
  343MOL0     H46278   4.898  10.280  10.322 -0.2572  2.3628 -2.4132
  343MOL0     H46279   4.892  10.444  10.586 -2.5557 -0.8723  0.0982
  343MOL0     H46280   4.852  10.267  10.577  2.4456 -1.0745  0.4200
  343MOL0     H46281   4.711  10.503  10.418 -2.1172 -0.2065 -0.5145
  343MOL0     H46282   4.665  10.331  10.419  1.2249 -0.5311 -0.4772
  343MOL0     H46283   4.686  10.476  10.681 -1.9146 -1.1388  2.2514
  343MOL0     H46284   4.591  10.345  10.648  2.2656  0.6265  2.4316
  343MOL0     H46285   4.522  10.626  10.529  1.7139  0.3915  1.8266
  343MOL0     H46286   4.463  10.563  10.680  3.0616 -1.1312  1.2940
  343MOL0     H46287   5.507  10.482  10.525 -1.8802  1.0569 -0.6688
  343MOL0     H46288   5.735  10.412  10.538 -1.9984  1.2734 -0.4016
  343MOL0     H46289   6.058  10.126  10.408  0.9205 -1.9713  1.0872
  343MOL0     H46290   6.267  10.009  10.372  1.0648  0.2944  3.1469
  343MOL0     H46291   6.264   8.909   9.768 -0.7790  0.6274  0.2770
  343MOL0     H46292   6.077   8.857   9.684  0.6786  0.3910  1.1058
  343MOL0     H46293   5.804   8.793   9.261  1.7167  1.7599  0.6638
  343MOL0     H46294   5.551   8.715   9.223 -1.8745 -1.0945 -0.1681
  343MOL0     H46295   5.336   8.611   9.305 -2.4232 -1.0042 -1.4015
  343MOL0     H46296   5.352   8.627   9.486  0.2987  0.8705  0.8157
  343MOL0     H46297   5.119   8.725   9.486 -2.5778 -1.7010 -0.3935
  343MOL0     H46298   5.129   8.550   9.451 -1.3356  0.2208  2.5254
  343MOL0     H46299   4.982   8.665   9.306 -0.1529  1.4171 -1.8749
  343MOL0     H46300   5.113   8.598   9.216  1.4779 -0.1107  0.2829
  343MOL0     H46301   5.121   8.896   9.290 -0.4210  0.4980 -0.3756
  343MOL0     H46302   5.025   8.833   9.167  0.8973  1.4031 -0.4425
  343MOL0     H46303   5.384   8.790   8.961 -0.5185  0.2339  0.3903
  343MOL0     H46304   5.455   8.976   9.559 -0.8417  1.0154 -2.1256
  343MOL0     H46305   5.675   9.056   9.571  1.1722  1.8835 -2.3732
  344MOL0     O46306   6.602  11.072   4.216  0.0641  0.0626  0.1635
  344MOL0     C46307   6.602  11.162   4.140  1.0593 -0.4125  0.1839
  344MOL0     O46308   6.636  11.290   4.159 -0.0902  0.4863 -0.2487
  344MOL0     C46309   6.675  11.330   4.285 -0.2285  0.6089  0.1296
  344MOL0     C46310   6.809  11.383   4.311 -0.1905  0.2719 -0.0970
  344MOL0     C46311   6.843  11.434   4.435 -0.0515 -0.3090  0.0381
  344MOL0     C46312   6.747  11.440   4.539  0.1892  0.7327 -0.4679
  344MOL0     O46313   6.779  11.507   4.654  0.1016 -0.1938 -0.8376
  344MOL0     C46314   6.792  11.651   4.637  0.4181 -0.2541 -0.3569
  344MOL0     C46315   6.654  11.717   4.616 -0.2458  0.3084 -0.0102
  344MOL0     C46316   6.559  11.701   4.726  0.0031  0.5673  0.1292
  344MOL0     C46317   6.420  11.744   4.683  0.2105 -0.0736 -0.1229
  344MOL0     C46318   6.350  11.650   4.586 -0.3989  0.1204 -0.7011
  344MOL0     C46319   6.205  11.682   4.579  0.0409  0.6741 -0.3958
  344MOL0     C46320   6.138  11.579   4.484 -0.3802 -0.9537 -0.0720
  344MOL0     C46321   6.132  11.626   4.335  0.8120  1.1370  0.3216
  344MOL0     N46322   6.263  11.616   4.269 -0.2510 -0.4591 -0.1209
  344MOL0     C46323   6.310  11.715   4.181 -0.3461 -0.7438 -1.1501
  344MOL0     C46324   6.413  11.652   4.114  0.2000 -0.0249 -0.0038
  344MOL0     C46325   6.510  11.708   4.019 -0.6092  0.2677  0.1338
  344MOL0     C46326   6.574  11.833   4.068  0.2629  0.8005 -0.0799
  344MOL0     C46327   6.664  11.814   4.193 -0.7266 -0.3243  0.7547
  344MOL0     C46328   6.673  11.939   4.277 -0.1429 -0.5193  0.8706
  344MOL0     O46329   6.766  11.901   4.372 -0.9250 -0.0791  0.5342
  344MOL0     C46330   6.806  12.011   4.447 -0.0036 -0.1427 -0.4863
  344MOL0     C46331   6.936  12.044   4.469  0.5230  0.0795 -0.0083
  344MOL0     C46332   6.981  12.158   4.542 -0.2910  0.3788 -0.3613
  344MOL0     C46333   7.129  12.189   4.543 -0.6012 -0.1050  0.9306
  344MOL0     C46334   6.882  12.237   4.610 -1.0201 -0.1234  0.7361
  344MOL0     C46335   6.911  12.363   4.676  1.3507 -0.7821 -0.1603
  344MOL0     O46336   6.829  12.475   4.630 -1.3884  0.1389  0.1159
  344MOL0     C46337   6.871  12.584   4.700  0.0780 -0.9392 -0.4002
  344MOL0     C46338   6.851  12.610   4.841  0.4956 -0.5522 -0.5102
  344MOL0     C46339   6.881  12.737   4.889 -0.3230 -0.3006  0.5058
  344MOL0     C46340   6.926  12.842   4.807  1.3223 -0.2893  0.9951
  344MOL0     O46341   6.968  12.952   4.873  0.3531 -0.9141 -0.3841
  344MOL0     C46342   7.050  13.058   4.809 -0.1297  0.2555 -0.0584
  344MOL0     C46343   7.176  13.005   4.750 -1.3042 -0.2255 -0.3969
  344MOL0     C46344   7.291  13.021   4.843 -0.1775 -0.1865 -0.5504
  344MOL0     C46345   7.287  12.920   4.955  0.1671  1.0426  0.0576
  344MOL0     C46346   7.406  12.929   5.054 -0.7159  0.4094 -0.0885
  344MOL0     C46347   7.411  12.833   5.171  0.5462 -0.5889  0.2797
  344MOL0     C46348   7.512  12.872   5.293  0.4006 -0.1284 -0.0207
  344MOL0     C46349   7.658  12.837   5.274  0.4344  0.9900  0.1960
  344MOL0    Cl46350   7.673  12.652   5.278  0.5327 -0.0607 -0.0492
  344MOL0     C46351   6.935  12.826   4.668  0.4308  0.0244 -0.5770
  344MOL0     C46352   6.910  12.696   4.619 -0.2239  0.0237  0.6223
  344MOL0     O46353   6.973  12.351   4.782 -0.4053  0.0360 -0.6746
  344MOL0     C46354   6.753  12.212   4.577  0.0654 -0.3427 -0.4708
  344MOL0     C46355   6.713  12.104   4.499 -0.2626  0.6074 -0.1262
  344MOL0     N46356   6.423  11.526   4.165 -0.7315  0.7949  0.1663
  344MOL0     N46357   6.324  11.500   4.245  0.1499 -0.9621  0.4299
  344MOL0     C46358   6.617  11.376   4.517 -0.5888  0.3806 -1.1393
  344MOL0     C46359   6.585  11.318   4.390  0.3114 -1.0837  0.0765
  344MOL0     C46360   6.531  11.127   4.011  1.1030  0.8843 -0.6289
  344MOL0     C46361   6.462  11.000   4.003 -0.5528 -0.6572 -0.5212
  344MOL0     C46362   6.375  10.965   3.898  1.3392 -0.4957 -0.0754
  344MOL0     C46363   6.348  11.057   3.797  0.3369 -0.6767  0.9239
  344MOL0     O46364   6.274  11.027   3.688  0.1800 -0.1033 -0.6691
  344MOL0     C46365   6.131  10.991   3.706 -0.9935  0.7554  0.4993
  344MOL0     C46366   6.059  11.027   3.575  0.5039 -0.1845  0.3700
  344MOL0     C46367   5.914  11.012   3.579  1.0449 -0.0428  0.4702
  344MOL0     C46368   5.838  11.021   3.445  0.8017 -0.4141  0.9343
  344MOL0     C46369   5.851  11.144   3.373 -0.7842 -0.5388 -0.2959
  344MOL0     C46370   5.870  11.247   3.318 -0.6124 -0.3645 -0.3753
  344MOL0     C46371   6.395  11.189   3.813  0.4079 -1.3641  0.4422
  344MOL0     C46372   6.493  11.223   3.914  0.1541  0.4107 -0.0520
  344MOL0     H46373   6.883  11.377   4.231 -0.7075 -1.5682 -0.4822
  344MOL0     H46374   6.939  11.479   4.455 -0.6681  2.5062 -2.5013
  344MOL0     H46375   6.838  11.692   4.727  0.6407  0.6148 -0.8523
  344MOL0     H46376   6.861  11.683   4.558 -0.7024  0.6562 -1.0007
  344MOL0     H46377   6.665  11.825   4.604  1.1464  0.2221  0.2844
  344MOL0     H46378   6.610  11.676   4.525  2.2886  0.9263 -1.6233
  344MOL0     H46379   6.560  11.598   4.762 -0.7221 -0.2707 -2.0804
  344MOL0     H46380   6.588  11.762   4.812 -0.0486 -2.0054  2.0852
  344MOL0     H46381   6.355  11.735   4.771 -3.2661 -1.0116 -2.5416
  344MOL0     H46382   6.413  11.846   4.645  1.1872 -0.0587 -0.2788
  344MOL0     H46383   6.385  11.663   4.483 -0.8318 -0.5365 -0.9378
  344MOL0     H46384   6.378  11.549   4.616  1.9031  0.2466 -2.2215
  344MOL0     H46385   6.167  11.661   4.680  0.5678 -1.3231 -0.5760
  344MOL0     H46386   6.183  11.787   4.560 -0.0469  1.1799  2.1494
  344MOL0     H46387   6.203  11.491   4.491  1.7733  0.5532  0.1433
  344MOL0     H46388   6.041  11.542   4.516  0.2630 -2.4744  0.1902
  344MOL0     H46389   6.095  11.727   4.312 -0.8837  0.1002 -1.9510
  344MOL0     H46390   6.077  11.555   4.273  4.6307  0.5648 -2.8081
  344MOL0     H46391   6.274  11.816   4.167 -0.4103 -0.0646  2.8634
  344MOL0     H46392   6.590  11.634   4.006 -0.0138  1.1066 -1.1552
  344MOL0     H46393   6.462  11.728   3.922  3.0055 -1.1255 -2.1243
  344MOL0     H46394   6.496  11.906   4.093 -0.8299  0.0654 -1.2135
  344MOL0     H46395   6.628  11.874   3.983  2.8845 -1.1950  0.4842
  344MOL0     H46396   6.761  11.788   4.149 -2.6065 -2.7651 -2.3674
  344MOL0     H46397   6.633  11.729   4.253  0.5754 -0.0948  1.7992
  344MOL0     H46398   6.580  11.957   4.332  1.9768 -0.2476  4.7680
  344MOL0     H46399   6.707  12.034   4.234 -0.7714  0.9648  3.3948
  344MOL0     H46400   7.019  11.981   4.436  0.7918  0.1420  0.5219
  344MOL0     H46401   7.157  12.292   4.522 -0.3234 -0.2691  0.4715
  344MOL0     H46402   7.184  12.152   4.630  0.7042 -1.3180 -0.3724
  344MOL0     H46403   7.161  12.130   4.456 -1.2613 -2.9765  2.4902
  344MOL0     H46404   6.816  12.521   4.892  1.0728 -0.9050 -0.7186
  344MOL0     H46405   6.877  12.763   4.994  2.0657  2.0983  0.1029
  344MOL0     H46406   6.985  13.104   4.735 -2.6580  2.7564  3.4045
  344MOL0     H46407   7.056  13.133   4.888 -1.2209  1.5559 -1.1599
  344MOL0     H46408   7.170  12.904   4.710 -0.0518 -0.7616  0.7056
  344MOL0     H46409   7.197  13.075   4.668 -2.5899  1.2224  0.4358
  344MOL0     H46410   7.289  13.121   4.888 -0.8788 -0.9346  1.1410
  344MOL0     H46411   7.382  13.016   4.782 -0.7407 -1.8382 -1.2970
  344MOL0     H46412   7.199  12.938   5.018  0.8679  1.0465  1.0632
  344MOL0     H46413   7.290  12.823   4.904  1.9491  0.4528  1.2101
  344MOL0     H46414   7.393  13.026   5.102 -0.6048 -1.1922  3.5177
  344MOL0     H46415   7.493  12.929   4.987 -1.9365  2.5350 -1.8009
  344MOL0     H46416   7.311  12.836   5.215  0.3341 -1.2196 -0.1603
  344MOL0     H46417   7.421  12.727   5.147 -0.8748 -0.4659 -1.0118
  344MOL0     H46418   7.461  12.833   5.382 -1.6325  3.5486  0.6129
  344MOL0     H46419   7.508  12.980   5.311 -1.9589 -0.5060  2.3558
  344MOL0     H46420   7.726  12.894   5.337  0.0493  0.7927  0.7904
  344MOL0     H46421   7.690  12.861   5.172 -1.6074  0.3793 -0.6390
  344MOL0     H46422   6.953  12.912   4.605  0.4934  0.5113  0.0869
  344MOL0     H46423   6.918  12.675   4.513 -0.9293 -0.9442  0.7421
  344MOL0     H46424   6.678  12.279   4.617  1.5226 -0.0518  1.9444
  344MOL0     H46425   6.610  12.079   4.473  0.7959 -3.1398 -1.3068
  344MOL0     H46426   6.542  11.365   4.595 -0.7021 -2.8844 -1.5636
  344MOL0     H46427   6.486  11.275   4.380 -0.0967 -0.0249 -0.5729
  344MOL0     H46428   6.478  10.918   4.072  0.7806 -1.5799 -1.8640
  344MOL0     H46429   6.333  10.865   3.902  0.1633 -0.0267 -0.3258
  344MOL0     H46430   6.113  10.886   3.729 -1.7247  1.1415  1.7854
  344MOL0     H46431   6.077  11.044   3.785 -2.3025 -0.9013  0.7847
  344MOL0     H46432   6.107  10.967   3.497  1.6122  0.7464  0.3001
  344MOL0     H46433   6.083  11.132   3.555  1.1104 -1.0063 -4.3579
  344MOL0     H46434   5.865  11.097   3.627 -1.6483  0.4413 -2.7822
  344MOL0     H46435   5.889  10.915   3.624 -2.2127  0.6111  0.2996
  344MOL0     H46436   5.734  10.997   3.468 -0.6817  1.1403 -3.2426
  344MOL0     H46437   5.862  10.934   3.382 -1.9492  0.1120 -1.0156
  344MOL0     H46438   5.881  11.339   3.264  4.0888 -2.1206 -3.0779
  344MOL0     H46439   6.365  11.268   3.744  1.2954 -1.8691 -0.5516
  344MOL0     H46440   6.534  11.323   3.928 -1.5683  0.8744  2.3696
  345MOL0     O46441   2.699   2.144   8.184 -0.4178 -1.0948  0.5043
  345MOL0     C46442   2.718   2.108   8.075  0.3804  0.5631 -0.1346
  345MOL0     O46443   2.821   2.145   7.993  0.6839  0.1388  0.9542
  345MOL0     C46444   2.913   2.233   8.047 -0.2406  0.3386  0.0560
  345MOL0     C46445   3.035   2.188   8.095 -0.6298 -0.1577  0.7559
  345MOL0     C46446   3.132   2.281   8.150 -1.0052 -0.3241  0.7040
  345MOL0     C46447   3.116   2.421   8.135  0.5329 -0.1274 -0.9009
  345MOL0     O46448   3.212   2.507   8.188  0.4996 -0.7231  0.3246
  345MOL0     C46449   3.195   2.645   8.156  0.1082 -0.6674  0.1347
  345MOL0     C46450   3.243   2.675   8.007 -0.0809  0.0704 -0.5548
  345MOL0     C46451   3.269   2.821   7.982  0.3559 -0.1657  0.8571
  345MOL0     C46452   3.338   2.833   7.860 -0.3615  0.2207  0.2486
  345MOL0     C46453   3.380   2.971   7.808  0.0681  1.2483 -0.2101
  345MOL0     C46454   3.303   3.096   7.876  0.0109  0.8309 -0.6044
  345MOL0     C46455   3.372   3.142   8.007  0.0570  0.5381 -0.1924
  345MOL0     C46456   3.285   3.240   8.073  0.5650  0.0482 -0.5794
  345MOL0     N46457   3.365   3.304   8.183  0.7040  0.0352  0.6517
  345MOL0     C46458   3.461   3.242   8.262  1.1189 -0.5615  0.2936
  345MOL0     C46459   3.522   3.346   8.322 -1.0252 -0.0721 -0.0088
  345MOL0     C46460   3.628   3.332   8.433 -0.0929  0.9891 -0.2638
  345MOL0     C46461   3.712   3.203   8.420 -0.2980  0.7471  0.6145
  345MOL0     C46462   3.862   3.205   8.441  0.0796  0.5648 -0.2400
  345MOL0     C46463   3.904   3.294   8.553 -0.3126 -0.0263 -0.9001
  345MOL0     O46464   3.902   3.211   8.679 -0.5935  0.3831  0.4751
  345MOL0     C46465   3.973   3.258   8.790 -0.0545  0.3383  0.7384
  345MOL0     C46466   3.895   3.314   8.899 -0.4446  0.1109  0.5728
  345MOL0     C46467   3.953   3.370   9.012  0.9176 -0.0975 -1.1863
  345MOL0     C46468   3.859   3.456   9.104  0.5053 -0.5154 -0.4685
  345MOL0     C46469   4.091   3.358   9.032  1.0218  0.0707  0.0557
  345MOL0     C46470   4.160   3.399   9.156  0.7262  0.1440 -0.2403
  345MOL0     O46471   4.103   3.484   9.248 -0.7477 -0.1387 -0.2404
  345MOL0     C46472   4.169   3.503   9.368  0.2199  0.2530 -0.5040
  345MOL0     C46473   4.288   3.573   9.390 -0.3711  0.5700 -1.3112
  345MOL0     C46474   4.331   3.593   9.530 -1.0143 -0.0712  0.8015
  345MOL0     C46475   4.255   3.556   9.638  0.3555 -0.2098 -0.0805
  345MOL0     O46476   4.279   3.581   9.771 -0.4736 -0.4166  0.6432
  345MOL0     C46477   4.394   3.663   9.795  1.2970 -0.3585 -0.2694
  345MOL0     C46478   4.413   3.692   9.947  0.9299 -1.4587  0.0086
  345MOL0     C46479   4.410   3.563  10.031 -0.0140  1.0864  0.1470
  345MOL0     C46480   4.513   3.464   9.970 -0.2023 -1.1970  0.5370
  345MOL0     C46481   4.572   3.365  10.060 -0.1588 -0.4246 -0.2449
  345MOL0     C46482   4.477   3.272  10.130 -0.4325 -0.2545  0.8078
  345MOL0     C46483   4.554   3.180  10.229  0.1017  0.2592  0.1587
  345MOL0     C46484   4.451   3.117  10.329 -0.0693  0.6903 -0.5158
  345MOL0    Cl46485   4.298   3.065  10.247 -0.3941  0.3306  0.2361
  345MOL0     C46486   4.135   3.489   9.608 -0.0887  0.5820  0.3135
  345MOL0     C46487   4.090   3.460   9.484  0.3203  0.4439  0.5131
  345MOL0     O46488   4.269   3.338   9.175 -0.1362  0.1040 -0.1145
  345MOL0     C46489   4.168   3.325   8.925 -0.4323 -0.4362 -0.1478
  345MOL0     C46490   4.110   3.274   8.801 -0.0219 -0.4997 -0.0069
  345MOL0     N46491   3.460   3.469   8.291  0.2557  0.2211 -0.6091
  345MOL0     N46492   3.375   3.442   8.203  0.4595  0.6831 -0.6243
  345MOL0     C46493   2.992   2.463   8.074  0.4322  0.4297 -0.5009
  345MOL0     C46494   2.894   2.367   8.034  0.1418 -0.4570 -0.0064
  345MOL0     C46495   2.603   2.041   8.016  0.3969  1.1300  1.0742
  345MOL0     C46496   2.609   1.951   7.902  0.2024 -0.0166 -0.4240
  345MOL0     C46497   2.498   1.885   7.848  0.7664  0.0923  0.2498
  345MOL0     C46498   2.376   1.901   7.912 -0.9005 -0.8571 -0.1244
  345MOL0     O46499   2.274   1.826   7.854 -0.9047 -0.5841 -0.3106
  345MOL0     C46500   2.154   1.814   7.936  1.0942  0.7320  0.8005
  345MOL0     C46501   2.033   1.752   7.857 -0.5402 -0.1721  0.6300
  345MOL0     C46502   2.039   1.601   7.834 -0.1705  0.1920  0.4702
  345MOL0     C46503   1.993   1.522   7.949  0.2527  0.1570 -0.7738
  345MOL0     C46504   2.041   1.388   7.960 -0.0505 -0.6892 -0.3423
  345MOL0     C46505   2.085   1.280   7.980  0.0910  0.4318  0.0952
  345MOL0     C46506   2.365   1.993   8.022 -0.1444 -0.6439 -0.3758
  345MOL0     C46507   2.478   2.050   8.073  0.2694 -0.0862 -0.6991
  345MOL0     H46508   3.065   2.084   8.086  0.4374  0.1561  0.5246
  345MOL0     H46509   3.223   2.239   8.189 -0.3635  1.0749  0.7612
  345MOL0     H46510   3.093   2.677   8.175  0.2513  0.6650 -1.1513
  345MOL0     H46511   3.255   2.692   8.234  0.5960  0.4321 -0.8557
  345MOL0     H46512   3.334   2.619   7.985  1.7750  2.2630  1.1049
  345MOL0     H46513   3.160   2.661   7.938 -4.0118  4.6899  2.5496
  345MOL0     H46514   3.179   2.879   7.965  3.0440  5.1184  2.4843
  345MOL0     H46515   3.317   2.851   8.076 -0.8774  0.2605  1.3723
  345MOL0     H46516   3.431   2.777   7.875 -1.4981 -1.3216  1.8847
  345MOL0     H46517   3.282   2.788   7.778 -0.7086 -1.5407  1.4043
  345MOL0     H46518   3.488   2.980   7.822  0.6991  0.1844 -3.5877
  345MOL0     H46519   3.363   2.981   7.701 -0.6085  3.6383  0.0597
  345MOL0     H46520   3.288   3.173   7.799 -0.9837 -1.1687 -2.5438
  345MOL0     H46521   3.201   3.061   7.894  0.2634 -0.4197 -1.4656
  345MOL0     H46522   3.387   3.061   8.078  0.6814  0.1477 -0.7539
  345MOL0     H46523   3.463   3.197   7.983  0.6813 -0.6970 -0.7305
  345MOL0     H46524   3.213   3.171   8.117  2.4501 -1.5770  0.1049
  345MOL0     H46525   3.233   3.323   8.024  1.4131  1.3578  0.6349
  345MOL0     H46526   3.484   3.136   8.261  1.8775 -0.4134  0.7597
  345MOL0     H46527   3.686   3.424   8.440  0.3337  0.8874 -2.0603
  345MOL0     H46528   3.565   3.322   8.522 -2.5984 -2.2185 -2.1414
  345MOL0     H46529   3.705   3.161   8.319  3.4390 -3.8742  1.8952
  345MOL0     H46530   3.673   3.124   8.486 -0.8320 -0.4012 -1.0068
  345MOL0     H46531   3.913   3.240   8.351 -1.6963 -1.3098 -2.0872
  345MOL0     H46532   3.888   3.103   8.468 -3.5431 -0.7812 -1.2144
  345MOL0     H46533   3.833   3.375   8.574 -1.5210 -1.6223  1.5897
  345MOL0     H46534   4.007   3.328   8.537 -0.8585  2.3582  0.1348
  345MOL0     H46535   3.786   3.316   8.898 -0.5006 -1.7034 -0.4218
  345MOL0     H46536   3.851   3.416   9.206  1.4284  1.7026  0.5445
  345MOL0     H46537   3.892   3.561   9.105  1.2808 -0.7075 -2.2938
  345MOL0     H46538   3.758   3.464   9.061 -1.2905  1.2530  3.5354
  345MOL0     H46539   4.355   3.611   9.313  0.6515  0.7851 -0.3531
  345MOL0     H46540   4.431   3.634   9.535 -1.4584  1.1977 -0.0564
  345MOL0     H46541   4.490   3.624   9.759  1.7373  0.1024  0.3811
  345MOL0     H46542   4.382   3.758   9.743 -0.8304 -0.3605  0.1233
  345MOL0     H46543   4.506   3.748   9.962  1.3671 -2.6066  1.8671
  345MOL0     H46544   4.329   3.758   9.972  0.4116 -0.8480 -2.9428
  345MOL0     H46545   4.311   3.520  10.013 -0.5490  2.5499 -0.6391
  345MOL0     H46546   4.429   3.590  10.135 -3.1518 -0.1471  1.1649
  345MOL0     H46547   4.465   3.419   9.882 -1.9197  0.9643  0.2837
  345MOL0     H46548   4.586   3.538   9.938 -0.9960 -0.3430  0.6437
  345MOL0     H46549   4.633   3.424  10.128  1.5762 -2.7704  0.3600
  345MOL0     H46550   4.645   3.309  10.000  1.3778 -0.4323  1.5647
  345MOL0     H46551   4.404   3.338  10.178 -1.1600 -0.8059  0.4811
  345MOL0     H46552   4.427   3.224  10.045 -0.7200  2.5418 -0.7323
  345MOL0     H46553   4.634   3.240  10.272 -0.0637  0.1739  0.5859
  345MOL0     H46554   4.592   3.093  10.174 -0.0018  1.6228 -2.2111
  345MOL0     H46555   4.425   3.201  10.395 -3.4950  1.9034 -3.0730
  345MOL0     H46556   4.477   3.030  10.390 -1.6649 -0.7959 -1.8431
  345MOL0     H46557   4.064   3.486   9.690  0.1203  3.1009  0.6846
  345MOL0     H46558   3.992   3.416   9.477 -0.1527  1.7249 -3.1160
  345MOL0     H46559   4.275   3.331   8.938 -0.6782 -0.4088  2.4288
  345MOL0     H46560   4.175   3.240   8.721 -1.4326 -0.5180 -1.1706
  345MOL0     H46561   2.965   2.568   8.076 -0.3093  0.2691  3.0681
  345MOL0     H46562   2.798   2.403   7.999  0.9662  1.3178 -0.6026
  345MOL0     H46563   2.712   1.934   7.876  0.4427 -2.5205  1.7366
  345MOL0     H46564   2.504   1.827   7.757  5.6637  0.6364 -0.0516
  345MOL0     H46565   2.169   1.742   8.017 -1.2347 -2.0774 -1.0445
  345MOL0     H46566   2.130   1.917   7.961 -0.1932  0.6860 -0.1477
  345MOL0     H46567   2.038   1.794   7.756 -2.5731  0.2335  0.6584
  345MOL0     H46568   1.938   1.786   7.899 -0.8965 -1.7116  1.1227
  345MOL0     H46569   2.142   1.576   7.809 -0.3246 -2.0260  1.7631
  345MOL0     H46570   1.970   1.582   7.751 -1.7476 -2.1570  2.1818
  345MOL0     H46571   1.883   1.521   7.945  0.1684  2.0909 -0.3230
  345MOL0     H46572   2.020   1.580   8.038 -1.8466  2.3549 -1.4464
  345MOL0     H46573   2.134   1.186   7.993  2.9580  1.6273 -1.1713
  345MOL0     H46574   2.280   1.990   8.089 -0.6518  2.1628 -0.7877
  345MOL0     H46575   2.468   2.099   8.169  0.5173 -3.8548  1.4577
  346MOL0     O46576   7.744   7.800   6.254  1.4395 -0.8152  0.7952
  346MOL0     C46577   7.817   7.719   6.302 -0.2051 -0.1126 -0.5844
  346MOL0     O46578   7.916   7.749   6.390  0.2517  0.3130 -0.7917
  346MOL0     C46579   7.922   7.869   6.451  0.4698 -0.4993 -0.3101
  346MOL0     C46580   8.030   7.955   6.441 -0.1492 -0.7395 -0.6377
  346MOL0     C46581   8.031   8.084   6.508 -0.0748 -0.1405  0.8390
  346MOL0     C46582   7.922   8.127   6.574  0.4711 -1.0054  0.2089
  346MOL0     O46583   7.932   8.254   6.621  0.9172  0.8918 -0.8858
  346MOL0     C46584   7.820   8.317   6.686  0.4453 -0.3007 -0.6523
  346MOL0     C46585   7.842   8.473   6.708  0.6954 -0.1771  0.9489
  346MOL0     C46586   7.961   8.492   6.795 -0.7299 -0.8739 -0.0826
  346MOL0     C46587   8.070   8.587   6.741  0.9263 -0.5848  0.4037
  346MOL0     C46588   8.182   8.616   6.847 -0.3137  0.1194  0.7723
  346MOL0     C46589   8.125   8.690   6.962  0.2865  0.8545 -0.1268
  346MOL0     C46590   8.222   8.798   7.023 -0.2525  0.0227 -0.9253
  346MOL0     C46591   8.165   8.891   7.128 -0.3656  0.1870 -0.4074
  346MOL0     N46592   8.266   8.936   7.223 -0.4512 -1.3437  0.0227
  346MOL0     C46593   8.262   8.902   7.358 -0.0084  0.0353  0.7488
  346MOL0     C46594   8.346   8.992   7.413 -0.6823  0.3826 -0.1908
  346MOL0     C46595   8.372   9.014   7.561  0.5542  0.1358 -0.0457
  346MOL0     C46596   8.492   8.931   7.616 -0.1905 -0.0032 -0.0520
  346MOL0     C46597   8.512   8.932   7.767 -0.6043  0.6122  0.5823
  346MOL0     C46598   8.546   9.074   7.824  0.3337 -0.1974 -0.7159
  346MOL0     O46599   8.585   9.034   7.959 -0.1100 -0.0740 -0.1570
  346MOL0     C46600   8.539   9.128   8.055  0.4156  1.2191  0.5505
  346MOL0     C46601   8.532   9.266   8.043  1.5510 -1.2985  0.6059
  346MOL0     C46602   8.507   9.353   8.155 -0.0149 -0.5088 -0.6426
  346MOL0     C46603   8.490   9.502   8.129 -0.3883  0.3159 -0.1758
  346MOL0     C46604   8.484   9.294   8.287  0.2782 -0.3792 -0.5393
  346MOL0     C46605   8.464   9.375   8.415  0.8756 -0.9513  0.6725
  346MOL0     O46606   8.462   9.295   8.530  1.0278 -0.5884 -1.1670
  346MOL0     C46607   8.455   9.366   8.656  0.3883  0.7046 -0.1665
  346MOL0     C46608   8.336   9.422   8.707  0.0958 -0.2367  1.7549
  346MOL0     C46609   8.328   9.495   8.824  0.5317  0.3365  0.5839
  346MOL0     C46610   8.438   9.506   8.906 -0.9915 -0.1613 -0.2861
  346MOL0     O46611   8.433   9.581   9.019  1.1588 -0.2478 -0.4802
  346MOL0     C46612   8.498   9.538   9.139 -0.0586 -0.0655 -0.3855
  346MOL0     C46613   8.519   9.647   9.249  1.1660 -0.3240  0.0768
  346MOL0     C46614   8.580   9.568   9.371  0.0664  0.4655  0.6017
  346MOL0     C46615   8.725   9.518   9.359  0.8567  0.1326  0.8147
  346MOL0     C46616   8.741   9.419   9.477  0.0314  0.0226 -0.7723
  346MOL0     C46617   8.866   9.329   9.447  0.4615 -0.0944  0.1439
  346MOL0     C46618   8.903   9.241   9.559 -0.6009 -0.0601 -0.3070
  346MOL0     C46619   8.832   9.104   9.543 -0.3839 -0.6210 -0.4509
  346MOL0    Cl46620   8.811   9.019   9.703 -0.1620  0.2323  0.0092
  346MOL0     C46621   8.556   9.440   8.855 -0.2836 -0.7175 -0.1617
  346MOL0     C46622   8.570   9.368   8.734  0.6645  0.1971 -0.1721
  346MOL0     O46623   8.450   9.495   8.413 -0.3217  0.0363  0.3094
  346MOL0     C46624   8.493   9.154   8.290  0.4221 -0.4049 -0.7670
  346MOL0     C46625   8.516   9.070   8.179 -0.1593  0.0197 -0.5634
  346MOL0     N46626   8.409   9.061   7.312 -0.7173 -0.8886  0.4150
  346MOL0     N46627   8.363   9.023   7.200 -0.4538  0.2113 -0.1664
  346MOL0     C46628   7.808   8.044   6.585 -0.0449 -0.3216  0.3107
  346MOL0     C46629   7.814   7.916   6.523  0.1215 -0.7526 -0.2448
  346MOL0     C46630   7.803   7.574   6.285 -0.4593 -0.2638  1.0680
  346MOL0     C46631   7.711   7.526   6.189  0.4834  0.0441 -0.4212
  346MOL0     C46632   7.678   7.394   6.183 -0.2233  0.9724  0.1920
  346MOL0     C46633   7.742   7.300   6.267 -0.1204  0.9574 -0.1716
  346MOL0     O46634   7.707   7.167   6.260 -0.4069  0.7307  0.1398
  346MOL0     C46635   7.578   7.128   6.194  0.1930  0.3518  0.4176
  346MOL0     C46636   7.538   6.986   6.245 -0.5568 -0.8696 -0.4267
  346MOL0     C46637   7.405   6.946   6.182 -0.7753  0.5048 -0.1336
  346MOL0     C46638   7.366   6.798   6.226  0.6991 -0.4958  0.3288
  346MOL0     C46639   7.469   6.691   6.207 -0.2177  0.2595  0.3118
  346MOL0     C46640   7.557   6.608   6.196 -0.3954 -0.0533 -0.4231
  346MOL0     C46641   7.824   7.352   6.363  0.2213  0.5446 -0.1950
  346MOL0     C46642   7.861   7.484   6.374 -0.4543 -0.4701  0.3689
  346MOL0     H46643   8.114   7.911   6.387 -0.7831  0.1619 -2.4458
  346MOL0     H46644   8.124   8.141   6.503  2.0174 -3.3839 -1.0966
  346MOL0     H46645   7.741   8.306   6.612 -0.3453 -1.0966  0.2900
  346MOL0     H46646   7.792   8.262   6.776 -3.7185  1.7817 -0.4550
  346MOL0     H46647   7.855   8.528   6.615 -0.6151 -0.5682  0.5289
  346MOL0     H46648   7.758   8.516   6.764  0.0187 -0.8003  0.4217
  346MOL0     H46649   7.930   8.544   6.887  0.9460  1.3072 -0.6496
  346MOL0     H46650   8.008   8.398   6.827 -1.8924 -1.0916  1.0908
  346MOL0     H46651   8.106   8.549   6.645 -0.2240  0.4117 -0.4474
  346MOL0     H46652   8.026   8.682   6.710  3.5413  0.5314 -0.1728
  346MOL0     H46653   8.209   8.515   6.879 -0.3803 -0.2639 -0.3404
  346MOL0     H46654   8.266   8.666   6.798 -1.2080  0.7167 -0.2063
  346MOL0     H46655   8.037   8.747   6.932  0.6641  1.6889  0.3216
  346MOL0     H46656   8.098   8.614   7.036  1.3358  1.3116  0.7555
  346MOL0     H46657   8.319   8.755   7.049 -0.5950 -0.0738  0.2815
  346MOL0     H46658   8.242   8.868   6.942 -7.3080  0.9702 -2.4710
  346MOL0     H46659   8.088   8.843   7.188  0.2234  1.6176  1.5793
  346MOL0     H46660   8.126   8.983   7.084 -1.5432  0.5703  1.3534
  346MOL0     H46661   8.200   8.822   7.398  0.0789 -1.7305 -2.2822
  346MOL0     H46662   8.399   9.119   7.569  2.4094 -0.3487  0.6611
  346MOL0     H46663   8.279   8.991   7.612  0.6413  0.7657  0.3964
  346MOL0     H46664   8.584   8.963   7.566 -0.0384  0.6485  0.6308
  346MOL0     H46665   8.463   8.828   7.592 -3.1838  0.8934 -0.6448
  346MOL0     H46666   8.590   8.859   7.790 -0.5071  0.2146 -0.9123
  346MOL0     H46667   8.420   8.898   7.815 -1.3424  0.4442 -0.9145
  346MOL0     H46668   8.465   9.147   7.818  0.7838  0.4090  0.2938
  346MOL0     H46669   8.623   9.117   7.760  0.5162  1.0865  0.3276
  346MOL0     H46670   8.543   9.319   7.949 -2.0220 -1.3450  0.0026
  346MOL0     H46671   8.559   9.572   8.175 -0.6294 -0.9041  2.2034
  346MOL0     H46672   8.501   9.530   8.024  0.8490  1.3507  0.2019
  346MOL0     H46673   8.399   9.537   8.179 -1.2612 -1.5944 -0.3295
  346MOL0     H46674   8.248   9.423   8.643 -0.8087 -0.3133  2.9482
  346MOL0     H46675   8.236   9.538   8.863  0.3887 -0.0359  0.6706
  346MOL0     H46676   8.431   9.462   9.180 -1.6228 -1.0264 -4.2599
  346MOL0     H46677   8.598   9.498   9.117  0.9031  1.6285  0.6743
  346MOL0     H46678   8.581   9.734   9.225 -0.3288  1.0294  0.9492
  346MOL0     H46679   8.424   9.689   9.283  0.3172 -3.4188  1.9683
  346MOL0     H46680   8.521   9.481   9.400  1.1490  0.3101  2.4921
  346MOL0     H46681   8.581   9.635   9.458  5.6610 -3.0313  3.8530
  346MOL0     H46682   8.734   9.462   9.266 -0.4510 -1.0707  1.3624
  346MOL0     H46683   8.791   9.605   9.364 -0.4753  1.4559 -2.1280
  346MOL0     H46684   8.651   9.358   9.494  1.7630 -2.8008 -1.0501
  346MOL0     H46685   8.749   9.480   9.567 -0.1187 -0.7804 -0.2043
  346MOL0     H46686   8.849   9.271   9.356  1.2530  1.2254 -0.8904
  346MOL0     H46687   8.962   9.380   9.428 -0.3085  1.2399 -0.3184
  346MOL0     H46688   8.864   9.290   9.648  1.7386 -2.4340  2.2015
  346MOL0     H46689   9.012   9.231   9.557 -0.1434  3.7004 -0.8685
  346MOL0     H46690   8.893   9.044   9.475  0.4706 -0.5013  0.2039
  346MOL0     H46691   8.731   9.110   9.501 -0.4150 -1.4710 -0.5086
  346MOL0     H46692   8.643   9.430   8.919  1.1830  2.1177 -1.5089
  346MOL0     H46693   8.670   9.332   8.710  2.1563  2.9314  1.3893
  346MOL0     H46694   8.470   9.112   8.387  0.8297  3.3900  1.1294
  346MOL0     H46695   8.512   8.963   8.199  1.4850  0.1851  0.9462
  346MOL0     H46696   7.719   8.054   6.646 -1.3503 -4.5678 -0.5407
  346MOL0     H46697   7.719   7.863   6.529  0.6744 -2.2367 -2.9864
  346MOL0     H46698   7.672   7.578   6.102 -3.5100 -1.0322  0.5169
  346MOL0     H46699   7.619   7.352   6.102  0.1736 -3.8158  2.0627
  346MOL0     H46700   7.501   7.201   6.220 -0.9543 -0.5988 -0.2504
  346MOL0     H46701   7.591   7.123   6.085 -0.4154  3.4375  0.0835
  346MOL0     H46702   7.548   7.000   6.353 -1.2834 -0.1392 -0.4414
  346MOL0     H46703   7.600   6.912   6.194  1.7337  0.6303  0.0035
  346MOL0     H46704   7.395   6.959   6.074  1.4536  2.3743 -0.1708
  346MOL0     H46705   7.323   7.003   6.227  0.8852  1.1488  2.3087
  346MOL0     H46706   7.272   6.764   6.180 -0.0447 -2.1292  2.8193
  346MOL0     H46707   7.339   6.808   6.332  0.4560 -0.5729  0.2752
  346MOL0     H46708   7.628   6.528   6.187 -0.7366 -0.6961  1.9176
  346MOL0     H46709   7.864   7.281   6.435 -0.4093  3.1154  2.9280
  346MOL0     H46710   7.932   7.506   6.453  3.0409  0.7488 -2.7837
  347MOL0     O46711   7.157   7.790   6.544  0.1956 -0.2307 -0.6735
  347MOL0     C46712   7.269   7.794   6.487  0.5371  0.3524 -0.2750
  347MOL0     O46713   7.298   7.835   6.356 -0.6810  0.4099 -0.2250
  347MOL0     C46714   7.200   7.860   6.260  1.5925 -0.0040 -0.8123
  347MOL0     C46715   7.105   7.762   6.229 -0.1776  0.1604  1.0861
  347MOL0     C46716   7.012   7.780   6.127  0.5880 -0.2212  0.5900
  347MOL0     C46717   7.013   7.904   6.060 -0.4839  0.7668 -0.4704
  347MOL0     O46718   6.913   7.919   5.971 -0.3740  0.1871 -0.2364
  347MOL0     C46719   6.940   7.901   5.828 -0.0237 -0.5716 -0.7127
  347MOL0     C46720   6.856   7.993   5.748  0.3273  0.0166  0.3638
  347MOL0     C46721   6.910   8.021   5.610  0.6544 -0.0496  0.1370
  347MOL0     C46722   6.835   8.124   5.523  1.4177  0.7666 -0.6182
  347MOL0     C46723   6.892   8.130   5.375  0.2871 -0.2214 -0.4988
  347MOL0     C46724   6.849   8.249   5.295 -0.6022 -0.2883  0.0876
  347MOL0     C46725   6.700   8.247   5.265 -0.8008  0.9802 -0.5309
  347MOL0     C46726   6.640   8.391   5.243 -0.3008  0.4231  1.0327
  347MOL0     N46727   6.630   8.465   5.368 -0.0980 -0.8275 -0.1931
  347MOL0     C46728   6.522   8.456   5.458 -0.4781  0.2110  0.1045
  347MOL0     C46729   6.535   8.545   5.555 -0.4862 -0.4987 -0.4300
  347MOL0     C46730   6.437   8.555   5.661  0.4986  1.0271 -0.2501
  347MOL0     C46731   6.476   8.513   5.800 -0.7601 -0.0376 -1.1742
  347MOL0     C46732   6.362   8.541   5.898  0.0639  0.4388  0.1991
  347MOL0     C46733   6.329   8.695   5.909 -0.5310  0.2775  0.1614
  347MOL0     O46734   6.213   8.735   5.977 -1.1979 -0.5759  0.2749
  347MOL0     C46735   6.171   8.870   5.971  0.0083  0.4976 -1.4140
  347MOL0     C46736   6.260   8.971   5.989  0.5072 -0.3787  0.9320
  347MOL0     C46737   6.226   9.107   5.984  0.2930  0.0218 -0.3900
  347MOL0     C46738   6.332   9.208   5.997  0.1552 -0.4391 -0.2274
  347MOL0     C46739   6.088   9.142   5.964  0.7799 -0.5248 -0.6643
  347MOL0     C46740   6.030   9.277   5.981 -0.1911  0.1983 -0.4349
  347MOL0     O46741   6.115   9.387   6.013  0.5641  0.5219 -0.3603
  347MOL0     C46742   6.087   9.511   5.961 -0.1707  0.3858  0.5075
  347MOL0     C46743   6.135   9.625   6.023 -0.6512 -0.6795 -0.0453
  347MOL0     C46744   6.114   9.757   5.969  0.1501 -0.0049  0.4294
  347MOL0     C46745   6.049   9.767   5.852  0.0336 -0.6106  0.2763
  347MOL0     O46746   6.029   9.895   5.807  0.2982 -0.7062  0.2756
  347MOL0     C46747   5.932   9.977   5.874 -0.4872  0.5100 -0.7336
  347MOL0     C46748   5.889  10.091   5.792 -0.7051 -0.1710  0.0673
  347MOL0     C46749   5.797  10.183   5.865 -0.3754  0.0372 -0.8687
  347MOL0     C46750   5.847  10.248   5.987 -0.0676  0.2758 -0.0558
  347MOL0     C46751   5.790  10.389   6.007  0.2040  1.1295  0.4322
  347MOL0     C46752   5.756  10.433   6.154 -0.4327  0.3249 -0.1674
  347MOL0     C46753   5.881  10.483   6.238  0.0262 -0.6086  1.3226
  347MOL0     C46754   5.965  10.593   6.188 -0.6115  0.2195 -0.6731
  347MOL0    Cl46755   6.124  10.572   6.260 -0.2543 -0.0235  0.1509
  347MOL0     C46756   5.980   9.659   5.799 -0.2410 -0.0321  0.4135
  347MOL0     C46757   6.014   9.528   5.841 -0.1500 -0.0964  1.0967
  347MOL0     O46758   5.903   9.284   5.971 -1.1045  0.3466 -0.3151
  347MOL0     C46759   5.992   9.033   5.947 -0.1948  0.3599 -0.3216
  347MOL0     C46760   6.038   8.898   5.960  0.0503 -0.6571 -0.5685
  347MOL0     N46761   6.642   8.620   5.520 -0.2019  0.3960 -0.4806
  347MOL0     N46762   6.697   8.569   5.418 -0.6250  0.8587  0.2969
  347MOL0     C46763   7.108   7.998   6.090 -0.5439 -1.1818 -0.1377
  347MOL0     C46764   7.206   7.973   6.186 -0.4808  0.2817  0.5541
  347MOL0     C46765   7.377   7.734   6.568 -0.3196  0.8872 -0.1054
  347MOL0     C46766   7.366   7.710   6.700  0.0510 -0.9036  0.7546
  347MOL0     C46767   7.473   7.672   6.776 -1.1658 -2.2528 -0.5596
  347MOL0     C46768   7.594   7.628   6.716  0.0113  0.8133 -0.2031
  347MOL0     O46769   7.693   7.577   6.787 -0.5449 -0.2405  0.2800
  347MOL0     C46770   7.710   7.604   6.929 -0.4369  0.7471  0.1485
  347MOL0     C46771   7.845   7.553   6.980 -0.3652 -0.1412 -0.3410
  347MOL0     C46772   7.869   7.405   6.953  0.3309  1.2627 -0.3600
  347MOL0     C46773   7.985   7.339   7.029 -0.8272  0.2197  0.5057
  347MOL0     C46774   8.007   7.189   7.008 -0.4865 -0.4697 -0.4032
  347MOL0     C46775   8.025   7.075   7.006 -0.1203  0.6120  0.5958
  347MOL0     C46776   7.600   7.620   6.581 -0.8522 -0.6633  0.0438
  347MOL0     C46777   7.492   7.683   6.505  0.4491  0.3111  0.3558
  347MOL0     H46778   7.109   7.668   6.281  1.1530 -1.7850 -2.1889
  347MOL0     H46779   6.935   7.705   6.110  1.4743 -1.0772  0.2690
  347MOL0     H46780   7.037   7.941   5.795  0.6896 -1.2700  0.4835
  347MOL0     H46781   6.932   7.796   5.801  0.7633 -1.1968  1.3034
  347MOL0     H46782   6.752   7.961   5.743  0.2476 -0.2285  2.6516
  347MOL0     H46783   6.856   8.093   5.793 -2.7666  1.3246 -2.1585
  347MOL0     H46784   7.016   8.044   5.619  0.1073  2.8531  0.1467
  347MOL0     H46785   6.897   7.924   5.560 -0.9926  0.4908 -0.5605
  347MOL0     H46786   6.730   8.094   5.524  1.9342 -1.2318  0.9584
  347MOL0     H46787   6.847   8.213   5.585  2.4892 -1.2329  2.2279
  347MOL0     H46788   7.000   8.119   5.375  0.2092 -1.0639 -0.5867
  347MOL0     H46789   6.861   8.033   5.334  0.9372  0.6380 -3.3037
  347MOL0     H46790   6.896   8.336   5.341  3.1025 -0.7893 -2.3250
  347MOL0     H46791   6.896   8.254   5.196  0.2909  1.5356  0.5579
  347MOL0     H46792   6.696   8.203   5.166 -1.7842 -0.5972  0.1729
  347MOL0     H46793   6.644   8.177   5.327 -2.4770  0.6902 -2.3040
  347MOL0     H46794   6.549   8.394   5.183  0.9557  0.9717 -0.9839
  347MOL0     H46795   6.711   8.454   5.189 -1.0115  1.2083  1.0005
  347MOL0     H46796   6.448   8.376   5.454 -2.0106  1.6003 -0.3081
  347MOL0     H46797   6.417   8.662   5.668  0.5055  1.0750 -0.9251
  347MOL0     H46798   6.353   8.493   5.627  2.5442 -1.1759 -1.6127
  347MOL0     H46799   6.564   8.573   5.825 -0.6462 -0.8674  0.5895
  347MOL0     H46800   6.513   8.410   5.804  2.4859  1.0233  0.9594
  347MOL0     H46801   6.380   8.485   5.990  4.7849  0.7963 -0.2362
  347MOL0     H46802   6.269   8.501   5.856 -0.4955 -3.0498  4.1472
  347MOL0     H46803   6.304   8.731   5.809 -0.9304  0.7468  0.4252
  347MOL0     H46804   6.423   8.736   5.947  1.0064 -0.7213 -2.3366
  347MOL0     H46805   6.364   8.942   5.994  0.2004 -1.6812  0.3536
  347MOL0     H46806   6.428   9.156   6.000 -0.4429 -1.6794 -1.4236
  347MOL0     H46807   6.331   9.271   5.908  2.5567  1.3757  0.9188
  347MOL0     H46808   6.332   9.261   6.093  0.9688  0.5664 -0.7704
  347MOL0     H46809   6.212   9.615   6.100 -0.6957 -2.4910 -0.1996
  347MOL0     H46810   6.147   9.848   6.020  1.2600 -0.9300  1.4210
  347MOL0     H46811   5.838   9.927   5.899  0.0685 -0.4499 -0.4988
  347MOL0     H46812   5.982  10.009   5.966  1.7631  0.7317 -1.9688
  347MOL0     H46813   5.975  10.148   5.754 -2.5691  1.1622 -2.4218
  347MOL0     H46814   5.837  10.048   5.706 -3.0485  0.8207  0.9195
  347MOL0     H46815   5.705  10.130   5.891  0.7163 -2.3635 -1.6689
  347MOL0     H46816   5.774  10.267   5.799 -1.9750  0.7201  0.4622
  347MOL0     H46817   5.820  10.192   6.077  1.3200  3.3919  2.5164
  347MOL0     H46818   5.956  10.254   5.994 -0.0906  0.7791 -0.1000
  347MOL0     H46819   5.689  10.390   5.966  0.7267  1.0974 -0.8941
  347MOL0     H46820   5.849  10.462   5.951  0.5106 -0.2622 -1.1429
  347MOL0     H46821   5.691  10.521   6.146  1.2028  1.5129 -0.7477
  347MOL0     H46822   5.698  10.351   6.198  1.1614 -1.1209 -0.6650
  347MOL0     H46823   5.943  10.393   6.246 -0.3308 -0.6601  4.4957
  347MOL0     H46824   5.866  10.502   6.344  1.0700 -1.7657  1.6997
  347MOL0     H46825   5.924  10.687   6.226  0.6931  0.0096  1.3844
  347MOL0     H46826   5.976  10.595   6.079  0.6429 -0.2506 -0.5645
  347MOL0     H46827   5.940   9.671   5.699 -0.0697 -1.1998  0.1971
  347MOL0     H46828   5.990   9.441   5.780 -0.7173  0.6625  0.2159
  347MOL0     H46829   5.889   9.057   5.921  0.0567  0.6299 -1.1253
  347MOL0     H46830   5.967   8.817   5.972 -0.2086 -0.3675 -0.1699
  347MOL0     H46831   7.113   8.096   6.044 -2.5667  0.2148  2.3555
  347MOL0     H46832   7.295   8.036   6.194  1.3481 -2.0978 -0.0389
  347MOL0     H46833   7.265   7.722   6.737 -0.9115 -0.8313 -1.6634
  347MOL0     H46834   7.456   7.656   6.882 -1.8762 -1.7098 -0.5827
  347MOL0     H46835   7.712   7.711   6.950  0.8884  0.3415  2.5322
  347MOL0     H46836   7.629   7.558   6.987  1.0017 -3.6772 -0.9274
  347MOL0     H46837   7.830   7.559   7.088  3.4016  2.2864  0.2705
  347MOL0     H46838   7.929   7.619   6.956 -0.1250  1.4530  4.0755
  347MOL0     H46839   7.885   7.394   6.846  1.1385  2.5965 -0.4032
  347MOL0     H46840   7.777   7.349   6.970 -0.4364  1.4819 -3.2328
  347MOL0     H46841   7.996   7.372   7.133  4.8480 -0.4379  0.4212
  347MOL0     H46842   8.073   7.391   6.991 -0.5521 -0.8107 -0.3383
  347MOL0     H46843   8.064   6.975   7.008 -0.9298  0.3004  0.9037
  347MOL0     H46844   7.690   7.573   6.542  0.5377  0.7458  1.4031
  347MOL0     H46845   7.487   7.686   6.397  0.0725 -0.9270  0.3196
  348MOL0     O46846   4.861   4.957   1.890 -0.0817  0.4620  0.0619
  348MOL0     C46847   4.824   5.041   1.977  0.7978 -0.2956 -0.0421
  348MOL0     O46848   4.847   5.024   2.118  0.4719  0.2875 -0.2869
  348MOL0     C46849   4.912   4.908   2.151  0.2289  0.1287 -0.3059
  348MOL0     C46850   5.045   4.909   2.181  0.0612  0.7883  0.7006
  348MOL0     C46851   5.121   4.791   2.196  0.7240  0.5177  0.0136
  348MOL0     C46852   5.053   4.666   2.194 -0.6618  0.1020 -0.4907
  348MOL0     O46853   5.118   4.544   2.210  0.5223 -0.3644 -0.9371
  348MOL0     C46854   5.257   4.529   2.176  0.7065  0.0727  0.9454
  348MOL0     C46855   5.340   4.531   2.304  0.3165 -0.4515  0.1462
  348MOL0     C46856   5.474   4.450   2.301  0.3660 -0.2710 -0.4464
  348MOL0     C46857   5.571   4.498   2.194  0.2994 -0.8120 -0.5964
  348MOL0     C46858   5.692   4.419   2.167  0.1791  0.2339  0.6770
  348MOL0     C46859   5.762   4.387   2.302  0.0551  0.5678  0.7647
  348MOL0     C46860   5.911   4.365   2.261  0.7286  0.3335 -0.1019
  348MOL0     C46861   5.983   4.290   2.374  0.1428 -0.1868 -0.6639
  348MOL0     N46862   6.129   4.309   2.361 -0.1803  0.8891 -0.3907
  348MOL0     C46863   6.204   4.257   2.251 -0.2245  0.6015 -0.5868
  348MOL0     C46864   6.325   4.319   2.274  0.5236 -0.1590 -0.2211
  348MOL0     C46865   6.447   4.301   2.186  0.7769 -0.2534 -0.0987
  348MOL0     C46866   6.562   4.402   2.206  0.6773 -0.4980 -0.5691
  348MOL0     C46867   6.685   4.365   2.127  0.3005 -0.4673 -0.4814
  348MOL0     C46868   6.784   4.479   2.109  0.5111  0.3838 -0.4481
  348MOL0     O46869   6.866   4.470   1.989 -0.6030 -0.5818 -0.0648
  348MOL0     C46870   6.997   4.424   2.008  0.5954  0.9302  0.2778
  348MOL0     C46871   7.078   4.436   1.897  0.9050  0.0955  0.0702
  348MOL0     C46872   7.211   4.385   1.896 -0.1437 -0.1476 -0.0356
  348MOL0     C46873   7.289   4.434   1.779  0.5626  0.1208  0.1175
  348MOL0     C46874   7.240   4.287   1.994  0.4513  0.7245  0.9498
  348MOL0     C46875   7.372   4.216   1.999  0.6777 -0.6501  0.0810
  348MOL0     O46876   7.368   4.091   2.043 -1.2868 -0.1390 -0.5060
  348MOL0     C46877   7.461   4.003   1.991  0.5699  0.5518 -0.1816
  348MOL0     C46878   7.495   3.893   2.067 -0.3284 -0.3233 -0.2983
  348MOL0     C46879   7.585   3.798   2.013  0.6086  0.4961 -1.0561
  348MOL0     C46880   7.639   3.800   1.887 -0.0436  0.4072  0.5082
  348MOL0     O46881   7.714   3.707   1.820 -0.5251  0.1050 -0.6411
  348MOL0     C46882   7.725   3.569   1.866  0.4168 -0.7531  0.6285
  348MOL0     C46883   7.595   3.497   1.839  1.1151  0.1468  0.1780
  348MOL0     C46884   7.619   3.347   1.851  0.9326 -0.3372 -0.4290
  348MOL0     C46885   7.671   3.288   1.983 -1.0600 -0.4985  0.1152
  348MOL0     C46886   7.748   3.158   1.964  0.8106  0.1695  0.9056
  348MOL0     C46887   7.815   3.095   2.083  0.8344 -0.3262  0.0009
  348MOL0     C46888   7.723   3.013   2.173 -0.2470 -0.0105  0.9236
  348MOL0     C46889   7.793   2.972   2.294 -0.6943  0.9733 -0.3594
  348MOL0    Cl46890   7.784   3.094   2.409 -0.0792 -0.1356  0.0684
  348MOL0     C46891   7.605   3.918   1.813 -0.2521  0.2608 -0.4601
  348MOL0     C46892   7.518   4.020   1.863 -0.6979 -0.1583  0.3737
  348MOL0     O46893   7.472   4.297   1.985  0.6149  0.5194 -0.4474
  348MOL0     C46894   7.148   4.262   2.095  0.9206 -0.7474  0.0606
  348MOL0     C46895   7.030   4.337   2.110  1.0106 -0.7761  0.3745
  348MOL0     N46896   6.319   4.408   2.380 -0.4570 -0.1983 -0.2733
  348MOL0     N46897   6.204   4.398   2.432  0.0997 -1.0891  0.1757
  348MOL0     C46898   4.914   4.666   2.182  0.2476 -1.0621  0.4401
  348MOL0     C46899   4.845   4.783   2.150 -0.2854  0.5920  0.3386
  348MOL0     C46900   4.757   5.168   1.926  0.4621 -0.5735 -1.0828
  348MOL0     C46901   4.745   5.205   1.792 -1.2531  0.4498  0.9455
  348MOL0     C46902   4.676   5.316   1.756 -0.0245 -0.9420  0.6766
  348MOL0     C46903   4.625   5.407   1.854 -1.0242  0.6494 -0.0427
  348MOL0     O46904   4.555   5.512   1.815 -0.2488 -0.5846 -0.9431
  348MOL0     C46905   4.628   5.639   1.843  0.2236  0.4830 -0.0659
  348MOL0     C46906   4.733   5.675   1.735 -0.4389 -0.1146 -0.1153
  348MOL0     C46907   4.813   5.797   1.777 -0.8373  0.5492  0.6660
  348MOL0     C46908   4.920   5.833   1.672  0.4447 -0.6895  0.3143
  348MOL0     C46909   4.877   5.865   1.530 -0.2472  0.0890  0.0250
  348MOL0     C46910   4.836   5.905   1.423  0.0169 -0.4537  0.7229
  348MOL0     C46911   4.642   5.374   1.987  0.1413  0.3076  0.7890
  348MOL0     C46912   4.700   5.258   2.027  0.3491  0.8386  1.0471
  348MOL0     H46913   5.083   5.009   2.202  3.5329 -0.2530  0.0095
  348MOL0     H46914   5.225   4.789   2.226  0.2780 -0.8104  1.5725
  348MOL0     H46915   5.263   4.434   2.123 -2.0916  0.8237 -0.9338
  348MOL0     H46916   5.291   4.601   2.102 -0.7737 -2.1008 -2.0320
  348MOL0     H46917   5.348   4.637   2.330 -2.6706  0.4411 -2.0200
  348MOL0     H46918   5.274   4.491   2.382 -1.9790  1.1658 -0.8464
  348MOL0     H46919   5.519   4.458   2.401  1.2323 -1.5722 -0.7019
  348MOL0     H46920   5.452   4.349   2.264  0.7139 -0.8556  0.8895
  348MOL0     H46921   5.515   4.513   2.102 -1.2390  0.5955  0.5184
  348MOL0     H46922   5.604   4.600   2.216 -3.8885  0.6260 -0.2008
  348MOL0     H46923   5.663   4.325   2.120  1.6578  0.0673  0.0479
  348MOL0     H46924   5.744   4.478   2.091 -1.1661 -0.7428 -1.1077
  348MOL0     H46925   5.754   4.475   2.366  2.6282 -0.0366  2.0462
  348MOL0     H46926   5.710   4.312   2.363 -2.7095  0.9212 -0.9671
  348MOL0     H46927   5.913   4.294   2.177  2.0213  0.3514 -0.1050
  348MOL0     H46928   5.954   4.463   2.237 -0.8573  0.1880 -4.4445
  348MOL0     H46929   5.947   4.187   2.379 -2.3076  0.5760 -1.3502
  348MOL0     H46930   5.950   4.327   2.471  0.9976 -0.2587 -0.3320
  348MOL0     H46931   6.177   4.179   2.181  0.4705 -1.2261  1.1174
  348MOL0     H46932   6.491   4.202   2.203  0.0873 -0.4034  0.9138
  348MOL0     H46933   6.412   4.315   2.084  1.2680  1.8069 -0.0271
  348MOL0     H46934   6.585   4.398   2.313 -1.5966 -2.2643 -0.0582
  348MOL0     H46935   6.524   4.502   2.185 -0.3982 -0.3598  1.7579
  348MOL0     H46936   6.651   4.325   2.031  3.4100 -1.2093 -1.3727
  348MOL0     H46937   6.732   4.289   2.189 -0.8142 -0.6201  0.2037
  348MOL0     H46938   6.829   4.492   2.208  0.9805 -1.4316 -0.3747
  348MOL0     H46939   6.732   4.572   2.086 -1.4192 -0.9123 -1.6292
  348MOL0     H46940   7.035   4.490   1.813 -0.0598 -1.0413 -0.2005
  348MOL0     H46941   7.396   4.451   1.791  0.9805 -1.0320 -1.6024
  348MOL0     H46942   7.273   4.374   1.689  1.1849  0.6185 -0.3374
  348MOL0     H46943   7.250   4.533   1.755  2.1014  0.8128  0.3634
  348MOL0     H46944   7.446   3.864   2.159 -1.1525  1.2410 -0.2179
  348MOL0     H46945   7.606   3.715   2.079 -0.3977  0.7269 -0.4298
  348MOL0     H46946   7.804   3.520   1.808 -1.5692 -1.0681 -2.0323
  348MOL0     H46947   7.748   3.553   1.972  2.4022 -2.0011  0.0728
  348MOL0     H46948   7.515   3.522   1.910 -2.1374 -1.9655 -2.4178
  348MOL0     H46949   7.555   3.526   1.741  1.9243 -1.8102 -0.7754
  348MOL0     H46950   7.690   3.313   1.775  0.2355 -2.5449 -0.1717
  348MOL0     H46951   7.521   3.301   1.836  0.4583  1.4129 -3.7039
  348MOL0     H46952   7.753   3.353   2.017  0.1625 -1.4275 -0.9803
  348MOL0     H46953   7.590   3.286   2.057  1.3003  0.9275  2.9626
  348MOL0     H46954   7.814   3.175   1.879 -1.6813 -2.9234 -1.9277
  348MOL0     H46955   7.673   3.089   1.925  0.4631  1.6249 -1.1617
  348MOL0     H46956   7.885   3.021   2.043  2.8260  2.2457 -1.5794
  348MOL0     H46957   7.863   3.175   2.139 -0.8318 -1.4003  3.1887
  348MOL0     H46958   7.705   2.921   2.116  2.5882 -2.1583  3.1704
  348MOL0     H46959   7.628   3.065   2.187 -1.5034 -2.7029  3.4103
  348MOL0     H46960   7.900   2.957   2.273 -0.8264 -2.5584  0.8821
  348MOL0     H46961   7.742   2.879   2.318  2.7051 -0.7346  0.8636
  348MOL0     H46962   7.649   3.940   1.717 -0.0324  0.4715 -0.3121
  348MOL0     H46963   7.494   4.096   1.788  2.0941 -0.7012 -1.2196
  348MOL0     H46964   7.174   4.200   2.180  0.3934 -0.6469  0.2986
  348MOL0     H46965   6.966   4.332   2.197 -0.8979 -1.4304 -1.0064
  348MOL0     H46966   4.848   4.581   2.195 -0.3556 -0.2815  3.0379
  348MOL0     H46967   4.743   4.780   2.112 -0.1616 -0.1793  0.0619
  348MOL0     H46968   4.773   5.131   1.717 -2.0545 -0.6017  1.6539
  348MOL0     H46969   4.672   5.328   1.648 -0.4616 -0.0550  0.7811
  348MOL0     H46970   4.559   5.724   1.851  3.1336  2.8228  2.2444
  348MOL0     H46971   4.680   5.629   1.938  0.7082  1.2807 -0.2366
  348MOL0     H46972   4.692   5.686   1.634 -0.0350 -2.6619 -0.6050
  348MOL0     H46973   4.801   5.589   1.732 -0.9054 -0.5034 -2.9274
  348MOL0     H46974   4.856   5.785   1.876 -0.7219 -0.2963  0.5215
  348MOL0     H46975   4.739   5.875   1.795 -2.3259 -1.0957  2.0532
  348MOL0     H46976   4.987   5.746   1.670 -0.9769 -1.9920  3.1233
  348MOL0     H46977   4.988   5.915   1.695 -0.4456  1.3667 -3.5489
  348MOL0     H46978   4.805   5.943   1.327  1.4340 -0.1303  0.3752
  348MOL0     H46979   4.589   5.424   2.068  0.3744 -0.0495  1.1704
  348MOL0     H46980   4.701   5.222   2.129  2.3846 -1.5773  0.3165
  349MOL0     O46981   7.545   4.075   8.097  0.9558  0.5536  0.2573
  349MOL0     C46982   7.466   3.980   8.091 -0.4594 -0.9930  0.0547
  349MOL0     O46983   7.490   3.853   8.054  0.1591  0.0356  0.0388
  349MOL0     C46984   7.620   3.805   8.083 -0.0592 -0.3930  0.0552
  349MOL0     C46985   7.742   3.873   8.123 -0.0728 -0.5887  0.4432
  349MOL0     C46986   7.867   3.806   8.135 -0.2027 -1.0945 -0.4368
  349MOL0     C46987   7.875   3.672   8.121  0.2067  0.3759  1.0913
  349MOL0     O46988   7.995   3.618   8.150  0.5788  0.2346  0.5213
  349MOL0     C46989   8.002   3.538   8.264 -0.2953 -0.9663  0.2512
  349MOL0     C46990   8.148   3.504   8.285  1.2567  0.3732 -0.3240
  349MOL0     C46991   8.153   3.443   8.428 -0.5481 -1.3804 -0.4077
  349MOL0     C46992   8.098   3.292   8.439  0.2374 -0.4027 -0.6028
  349MOL0     C46993   7.950   3.297   8.495  0.4708 -0.1134  0.3879
  349MOL0     C46994   7.938   3.337   8.638 -0.1679  0.3314 -0.3150
  349MOL0     C46995   7.845   3.448   8.670  0.1389 -0.2288 -0.6942
  349MOL0     C46996   7.838   3.498   8.815 -0.7669  0.3018 -0.2612
  349MOL0     N46997   7.762   3.623   8.821  0.6255 -0.3487  0.3076
  349MOL0     C46998   7.635   3.620   8.802  0.7426  0.3595 -0.8974
  349MOL0     C46999   7.599   3.737   8.771  0.7600 -0.3985  1.1179
  349MOL0     C47000   7.455   3.770   8.722 -0.0812  0.0121  0.0578
  349MOL0     C47001   7.423   3.762   8.566  0.3952 -0.1699 -0.2279
  349MOL0     C47002   7.468   3.627   8.491  0.0437 -0.9499 -0.2120
  349MOL0     C47003   7.383   3.626   8.366  0.7583 -0.0099 -0.3375
  349MOL0     O47004   7.421   3.517   8.287  0.3953  0.0127  0.4892
  349MOL0     C47005   7.344   3.404   8.262  0.9721 -0.3429  0.6444
  349MOL0     C47006   7.247   3.349   8.342 -0.9996  0.3615 -0.1641
  349MOL0     C47007   7.174   3.238   8.309  0.5071 -0.0368  0.0202
  349MOL0     C47008   7.045   3.196   8.393  0.3932 -0.6616  0.7017
  349MOL0     C47009   7.203   3.170   8.187  0.7078 -1.0021 -0.3213
  349MOL0     C47010   7.120   3.055   8.144  0.0194 -0.4169 -0.8508
  349MOL0     O47011   7.135   3.021   8.012  0.3266 -0.1716  0.7053
  349MOL0     C47012   7.057   2.936   7.948  0.9372  0.8216 -0.4981
  349MOL0     C47013   6.958   2.983   7.858  0.1633  0.0535  0.0741
  349MOL0     C47014   6.872   2.888   7.800  0.5916 -0.5165 -0.6980
  349MOL0     C47015   6.888   2.755   7.825  0.4284  0.7187  0.1662
  349MOL0     O47016   6.788   2.677   7.775 -0.4645 -0.2129 -0.2479
  349MOL0     C47017   6.806   2.533   7.783  0.4493 -0.8801 -0.4647
  349MOL0     C47018   6.683   2.466   7.721  0.4456 -0.4834  0.1544
  349MOL0     C47019   6.684   2.310   7.712  0.1684 -0.3334 -0.0558
  349MOL0     C47020   6.559   2.253   7.646 -0.7825 -0.0912  0.0092
  349MOL0     C47021   6.552   2.095   7.627 -0.5948 -0.1136  1.1461
  349MOL0     C47022   6.660   2.036   7.526  0.3663 -0.4014  0.3716
  349MOL0     C47023   6.664   1.882   7.537 -0.0243 -0.1944  0.2162
  349MOL0     C47024   6.737   1.829   7.421 -0.7318  0.6274 -0.0866
  349MOL0    Cl47025   6.917   1.878   7.418 -0.1407  0.2230  0.0232
  349MOL0     C47026   6.990   2.708   7.909 -0.5678  0.4481 -0.3185
  349MOL0     C47027   7.077   2.803   7.971  0.0127 -0.0700 -0.5663
  349MOL0     O47028   7.090   2.976   8.236  0.2385 -0.5109 -0.0266
  349MOL0     C47029   7.314   3.220   8.112  0.3225 -0.5053  0.1413
  349MOL0     C47030   7.376   3.335   8.153  0.0747  0.0176 -0.3757
  349MOL0     N47031   7.707   3.818   8.751  0.4661 -0.0184 -0.4453
  349MOL0     N47032   7.807   3.752   8.794 -0.6045 -0.2361 -0.0374
  349MOL0     C47033   7.758   3.602   8.077  0.1037 -0.1339 -0.2149
  349MOL0     C47034   7.642   3.665   8.059  0.1921 -0.1093 -0.6327
  349MOL0     C47035   7.325   4.020   8.114 -0.5282 -0.8526  0.4106
  349MOL0     C47036   7.234   3.908   8.113 -0.4566  0.9277 -0.0847
  349MOL0     C47037   7.098   3.935   8.124 -0.1196  0.3192  0.7788
  349MOL0     C47038   7.051   4.064   8.158  0.4633 -0.7874  0.2078
  349MOL0     O47039   6.923   4.074   8.185  0.0796  0.3585 -0.2811
  349MOL0     C47040   6.869   4.198   8.230 -0.2035  0.3270  0.5233
  349MOL0     C47041   6.776   4.245   8.125  0.8041  0.6354  0.0388
  349MOL0     C47042   6.710   4.382   8.163  0.5364 -0.6465 -0.3377
  349MOL0     C47043   6.674   4.453   8.023 -0.1912  0.4821  0.2080
  349MOL0     C47044   6.559   4.383   7.955  0.6068  0.4655  0.6355
  349MOL0     C47045   6.485   4.324   7.886  0.2503  0.0086  0.0990
  349MOL0     C47046   7.148   4.172   8.155  0.0358  1.3009  0.0175
  349MOL0     C47047   7.280   4.147   8.137  0.7461  0.5451  0.3426
  349MOL0     H47048   7.762   3.978   8.141  6.6059 -1.8762  3.3007
  349MOL0     H47049   7.954   3.862   8.168 -1.3191 -0.4841  1.6692
  349MOL0     H47050   7.954   3.588   8.348  0.1023  0.8518 -0.5692
  349MOL0     H47051   7.945   3.445   8.252 -3.0025  0.5019  0.9522
  349MOL0     H47052   8.186   3.434   8.210 -0.2876  0.1396 -0.9215
  349MOL0     H47053   8.214   3.591   8.290  2.6038 -0.6862  1.7187
  349MOL0     H47054   8.262   3.445   8.439 -0.4683  2.3980 -0.5484
  349MOL0     H47055   8.109   3.512   8.500  2.2988  4.1079 -3.2469
  349MOL0     H47056   8.104   3.250   8.338 -2.6613  1.0761 -1.5125
  349MOL0     H47057   8.164   3.232   8.502  0.6473  3.1496  2.6632
  349MOL0     H47058   7.881   3.358   8.436 -0.5772 -1.6662 -0.0675
  349MOL0     H47059   7.917   3.193   8.484  1.3955 -0.4971  1.1427
  349MOL0     H47060   7.907   3.255   8.702 -0.7672  1.7876  1.3284
  349MOL0     H47061   8.034   3.377   8.672  1.5481 -2.8785 -1.0088
  349MOL0     H47062   7.876   3.531   8.607  0.5180  0.6562  0.6154
  349MOL0     H47063   7.745   3.413   8.642 -0.3659  1.8811 -1.7016
  349MOL0     H47064   7.936   3.528   8.853  0.6283  0.4907 -3.6413
  349MOL0     H47065   7.798   3.423   8.884  0.0123 -1.1754 -1.3516
  349MOL0     H47066   7.566   3.537   8.815 -0.2358  1.0211 -1.7366
  349MOL0     H47067   7.384   3.693   8.755  2.2502 -3.2730 -1.9658
  349MOL0     H47068   7.433   3.875   8.743  0.7818  0.3136 -0.4906
  349MOL0     H47069   7.451   3.851   8.509 -1.6165 -0.3182 -1.5723
  349MOL0     H47070   7.314   3.759   8.558  0.4808 -1.7899 -1.4305
  349MOL0     H47071   7.443   3.534   8.542 -1.5841 -1.5778 -1.9919
  349MOL0     H47072   7.576   3.620   8.477  0.2534  0.8090  0.2233
  349MOL0     H47073   7.384   3.719   8.309  0.0938  0.6879  0.7430
  349MOL0     H47074   7.284   3.617   8.413  0.9899  2.1619  0.6554
  349MOL0     H47075   7.230   3.395   8.439 -0.4165 -1.6306  0.9451
  349MOL0     H47076   7.002   3.266   8.465  0.5465 -0.7351  0.8653
  349MOL0     H47077   6.960   3.178   8.326 -1.0574  2.7820  1.4084
  349MOL0     H47078   7.060   3.105   8.452  1.1493  0.7620  2.8331
  349MOL0     H47079   6.947   3.091   7.855  2.7551  0.3345 -1.9479
  349MOL0     H47080   6.798   2.918   7.727  0.7414  0.2428 -0.5419
  349MOL0     H47081   6.902   2.491   7.753 -0.6759 -2.3342 -2.2610
  349MOL0     H47082   6.806   2.508   7.889  0.5621  0.5852 -0.0966
  349MOL0     H47083   6.598   2.477   7.789  1.6086  0.5047  1.5098
  349MOL0     H47084   6.673   2.504   7.619  2.8717  2.2572  0.7946
  349MOL0     H47085   6.698   2.259   7.808  0.8743  2.8408  1.6377
  349MOL0     H47086   6.774   2.285   7.655 -1.1750 -0.6492 -2.2045
  349MOL0     H47087   6.474   2.270   7.713 -2.7680 -0.1770 -2.3235
  349MOL0     H47088   6.542   2.306   7.552 -1.3374  3.4399  1.9396
  349MOL0     H47089   6.450   2.071   7.594  0.4996 -0.8815 -2.0146
  349MOL0     H47090   6.579   2.036   7.715  3.1445 -1.5677 -0.7436
  349MOL0     H47091   6.638   2.076   7.427  0.6412  3.5371  1.7275
  349MOL0     H47092   6.756   2.083   7.545  0.5622 -0.0268 -1.4362
  349MOL0     H47093   6.562   1.844   7.532 -1.4689  3.3805 -0.3882
  349MOL0     H47094   6.715   1.850   7.629  1.4860  0.5661 -0.3160
  349MOL0     H47095   6.692   1.860   7.327 -0.3445 -0.8878 -0.7885
  349MOL0     H47096   6.731   1.720   7.426  3.8514  0.1785 -0.1044
  349MOL0     H47097   7.000   2.605   7.939  2.5344  1.2931  2.1002
  349MOL0     H47098   7.153   2.766   8.040 -1.0773 -1.9423 -0.2749
  349MOL0     H47099   7.358   3.176   8.024  1.1887  2.4151 -0.9938
  349MOL0     H47100   7.464   3.375   8.103  0.4792  1.1007  1.1220
  349MOL0     H47101   7.752   3.496   8.056  1.4743  0.1996 -2.6493
  349MOL0     H47102   7.549   3.623   8.022 -2.8810  1.3864  4.4237
  349MOL0     H47103   7.261   3.804   8.097 -0.6486  0.9289 -0.4415
  349MOL0     H47104   7.027   3.856   8.142  0.1863 -0.4939 -1.3621
  349MOL0     H47105   6.813   4.196   8.324 -0.0644  0.7267  0.6166
  349MOL0     H47106   6.951   4.267   8.245 -1.0505  1.3574  0.5380
  349MOL0     H47107   6.710   4.163   8.096  1.1565  1.4002 -3.2434
  349MOL0     H47108   6.835   4.268   8.037 -0.8423  2.2520 -0.7261
  349MOL0     H47109   6.761   4.463   8.214 -0.0310 -0.1667 -0.5213
  349MOL0     H47110   6.616   4.361   8.215  0.2023  0.5592 -0.4237
  349MOL0     H47111   6.763   4.463   7.961 -0.9581 -2.0353 -1.4925
  349MOL0     H47112   6.641   4.557   8.033 -4.7318 -0.7611  0.7292
  349MOL0     H47113   6.432   4.281   7.803  1.3411  0.4319 -0.8470
  349MOL0     H47114   7.134   4.279   8.167  1.3161  1.2065  4.4172
  349MOL0     H47115   7.344   4.234   8.137 -1.5103  2.3155 -0.0946
  350MOL0     O47116  10.633   0.733   9.155 -0.5661 -0.4393 -0.4475
  350MOL0     C47117  10.690   0.661   9.232 -1.0124  0.1009  0.3387
  350MOL0     O47118  10.634   0.585   9.335 -0.1393 -0.0501 -0.1071
  350MOL0     C47119  10.507   0.555   9.324 -0.0035  0.1509 -0.3059
  350MOL0     C47120  10.461   0.458   9.227 -0.4653  0.0736  0.5315
  350MOL0     C47121  10.328   0.444   9.192  0.6487  1.0505 -0.7442
  350MOL0     C47122  10.238   0.510   9.279 -0.2073 -0.5755 -0.5782
  350MOL0     O47123  10.102   0.517   9.267 -0.0208 -0.2634  0.2186
  350MOL0     C47124  10.052   0.401   9.186  0.3012 -0.2788  0.2123
  350MOL0     C47125  10.025   0.436   9.038 -0.0877 -0.6251 -0.3550
  350MOL0     C47126   9.884   0.504   9.033 -0.1240 -0.1537 -0.0157
  350MOL0     C47127   9.767   0.411   8.979 -1.1889 -0.3145 -0.8342
  350MOL0     C47128   9.641   0.489   8.951  0.0816 -0.5050 -0.2161
  350MOL0     C47129   9.640   0.524   8.802 -0.2910  0.3183  0.8112
  350MOL0     C47130   9.524   0.605   8.747  0.1989  0.8203 -0.3295
  350MOL0     C47131   9.550   0.644   8.604 -0.5030  0.8391 -0.7574
  350MOL0     N47132   9.431   0.687   8.529  0.4347 -0.5864  0.2240
  350MOL0     C47133   9.353   0.612   8.452 -0.4269  0.0702 -0.2293
  350MOL0     C47134   9.266   0.706   8.404  0.2100  0.5273  0.3138
  350MOL0     C47135   9.147   0.686   8.313  0.4217  0.0508  0.6402
  350MOL0     C47136   9.015   0.708   8.378 -0.5861 -1.3497 -0.2779
  350MOL0     C47137   9.005   0.849   8.441  0.2332  0.3106 -0.0155
  350MOL0     C47138   8.866   0.885   8.481  0.8119 -0.6164  0.2324
  350MOL0     O47139   8.784   0.884   8.358 -0.2083  0.3814  0.4159
  350MOL0     C47140   8.672   0.805   8.370 -0.5866  1.1751  0.5585
  350MOL0     C47141   8.597   0.770   8.473  0.4051 -1.0636 -0.2076
  350MOL0     C47142   8.516   0.660   8.478 -0.8976  0.1063  0.2649
  350MOL0     C47143   8.442   0.633   8.604 -0.3206 -0.2602 -0.0636
  350MOL0     C47144   8.502   0.584   8.355  0.0441 -0.5212 -0.4056
  350MOL0     C47145   8.411   0.470   8.347  1.0002 -0.0274  0.5669
  350MOL0     O47146   8.460   0.343   8.344  0.9425  0.3432 -0.3594
  350MOL0     C47147   8.371   0.243   8.323 -0.2669 -0.1093  0.3288
  350MOL0     C47148   8.301   0.230   8.203 -0.0305  0.2819 -0.6925
  350MOL0     C47149   8.206   0.119   8.194 -0.0755  1.1054 -0.1498
  350MOL0     C47150   8.202   0.020   8.299  0.4690 -0.8653  0.5171
  350MOL0     O47151   8.121  -0.097   8.283 -1.2169 -0.7705  0.0048
  350MOL0     C47152   8.061  -0.142   8.400 -1.4580 -0.7993 -0.1485
  350MOL0     C47153   7.942  -0.235   8.358  0.2477  0.6928  0.7593
  350MOL0     C47154   7.856  -0.282   8.476  0.1368 -0.7679  0.6194
  350MOL0     C47155   7.730  -0.202   8.482  0.2748  0.1013  0.5060
  350MOL0     C47156   7.670  -0.215   8.627  0.0635 -0.1500 -0.4274
  350MOL0     C47157   7.743  -0.112   8.724  0.9043 -0.4557 -0.6229
  350MOL0     C47158   7.688  -0.136   8.869 -0.1676  0.0685 -0.1331
  350MOL0     C47159   7.729  -0.033   8.972 -0.0582  0.7883 -0.8027
  350MOL0    Cl47160   7.678   0.127   8.933  0.7708  0.2457 -0.2819
  350MOL0     C47161   8.276   0.043   8.415  0.6309 -0.3335 -0.1061
  350MOL0     C47162   8.366   0.152   8.418 -0.7168  0.2998 -0.1743
  350MOL0     O47163   8.289   0.500   8.342  0.4968 -0.3595 -0.4773
  350MOL0     C47164   8.571   0.626   8.241 -0.6392 -0.0868 -0.0598
  350MOL0     C47165   8.664   0.732   8.244  0.6045 -0.3327 -0.2787
  350MOL0     N47166   9.301   0.832   8.444 -0.0026  0.1798 -0.4713
  350MOL0     N47167   9.407   0.820   8.514  0.7290 -0.2087 -0.9188
  350MOL0     C47168  10.279   0.592   9.382 -0.7059  0.2978 -0.2639
  350MOL0     C47169  10.415   0.618   9.408  0.1773  0.2814 -0.1037
  350MOL0     C47170  10.835   0.685   9.254  0.6651 -0.5160 -0.0578
  350MOL0     C47171  10.910   0.607   9.340  0.2384  0.0299  0.3828
  350MOL0     C47172  11.047   0.633   9.355  0.0507 -0.4367  0.0144
  350MOL0     C47173  11.116   0.741   9.302 -0.2932 -0.3156  0.1939
  350MOL0     O47174  11.248   0.766   9.330 -0.6711  0.2587  0.2254
  350MOL0     C47175  11.274   0.825   9.446  0.2078 -0.8736 -0.8556
  350MOL0     C47176  11.425   0.809   9.472 -0.0201  1.0576 -0.4083
  350MOL0     C47177  11.506   0.909   9.392  0.0641  0.1100 -0.4032
  350MOL0     C47178  11.647   0.871   9.363 -0.9981 -0.0009 -0.6259
  350MOL0     C47179  11.718   0.985   9.304  0.3543  0.1925  0.1599
  350MOL0     C47180  11.775   1.094   9.282 -0.3247  0.7894  0.5117
  350MOL0     C47181  11.041   0.820   9.218  1.1878  0.1822 -0.2289
  350MOL0     C47182  10.905   0.794   9.197  0.5270 -0.5836  1.2948
  350MOL0     H47183  10.529   0.395   9.171  0.2159  1.2533 -0.0250
  350MOL0     H47184  10.299   0.370   9.118  0.7140 -1.7193  1.8362
  350MOL0     H47185  10.121   0.316   9.184  0.1131 -0.4610  0.9489
  350MOL0     H47186   9.961   0.366   9.235  0.7194 -1.2529  0.3235
  350MOL0     H47187  10.095   0.507   8.995  0.5695  0.0573  1.7139
  350MOL0     H47188  10.019   0.351   8.970 -0.5164 -1.3099  0.5067
  350MOL0     H47189   9.856   0.562   9.121 -2.2976  1.8820 -1.9066
  350MOL0     H47190   9.904   0.583   8.960 -0.3518 -1.8361 -1.9954
  350MOL0     H47191   9.806   0.352   8.896 -1.2690 -2.1209  0.3519
  350MOL0     H47192   9.737   0.341   9.059  0.4087 -0.6064 -0.4578
  350MOL0     H47193   9.545   0.445   8.979 -0.3957 -0.4749 -1.7149
  350MOL0     H47194   9.650   0.577   9.015  1.7191  0.0975 -1.2053
  350MOL0     H47195   9.729   0.584   8.780 -0.8649  1.0376  0.3884
  350MOL0     H47196   9.643   0.422   8.765  1.3633 -0.0624  1.8813
  350MOL0     H47197   9.437   0.542   8.767  2.3724 -2.8784 -1.4360
  350MOL0     H47198   9.505   0.694   8.807 -0.3655  0.7450 -0.3876
  350MOL0     H47199   9.596   0.557   8.558  1.8401  0.2137  2.3918
  350MOL0     H47200   9.629   0.720   8.609  1.2917 -0.9723  0.0755
  350MOL0     H47201   9.339   0.505   8.444  0.7830 -0.2117  1.1206
  350MOL0     H47202   9.153   0.750   8.225 -3.9439  0.0138  0.1046
  350MOL0     H47203   9.149   0.587   8.266 -2.3561  0.8132 -1.3229
  350MOL0     H47204   9.004   0.635   8.458  3.2887  0.5954  2.3731
  350MOL0     H47205   8.937   0.701   8.303 -0.9593  0.3056 -0.0807
  350MOL0     H47206   9.042   0.928   8.374  1.5639 -0.3683 -0.1197
  350MOL0     H47207   9.083   0.866   8.516  2.6243  0.4544 -2.3972
  350MOL0     H47208   8.866   0.985   8.525  0.1846 -0.4225 -0.1846
  350MOL0     H47209   8.825   0.807   8.547 -2.8589 -1.0851 -2.2798
  350MOL0     H47210   8.608   0.830   8.563  1.2485 -5.2682  2.8039
  350MOL0     H47211   8.470   0.684   8.697 -1.7141  0.5182 -0.0469
  350MOL0     H47212   8.335   0.654   8.595 -0.8719 -2.7179  0.0799
  350MOL0     H47213   8.447   0.524   8.612 -1.0295 -0.2710  0.3731
  350MOL0     H47214   8.304   0.316   8.136 -0.8925  0.0697 -1.0182
  350MOL0     H47215   8.158   0.091   8.100  2.2282 -0.7586 -0.8586
  350MOL0     H47216   8.114  -0.183   8.486 -0.6473  1.6359  0.5908
  350MOL0     H47217   8.022  -0.054   8.452  1.3738 -1.0377  2.6791
  350MOL0     H47218   7.889  -0.190   8.274  0.0263 -0.8117  0.0605
  350MOL0     H47219   7.984  -0.323   8.307  0.4228  2.0045 -1.5150
  350MOL0     H47220   7.927  -0.280   8.559  1.6747  1.3595 -0.6532
  350MOL0     H47221   7.824  -0.387   8.467 -1.9542 -0.5910  4.0891
  350MOL0     H47222   7.752  -0.098   8.455  0.0845 -0.9055 -4.6760
  350MOL0     H47223   7.647  -0.244   8.423 -1.4247  0.3528  2.5895
  350MOL0     H47224   7.668  -0.317   8.667 -3.0932  0.6425  1.8194
  350MOL0     H47225   7.565  -0.188   8.614 -0.9346 -3.2687  0.2685
  350MOL0     H47226   7.850  -0.134   8.736  0.5706 -1.1197  1.6137
  350MOL0     H47227   7.736  -0.006   8.698 -0.6181 -0.6915 -1.2496
  350MOL0     H47228   7.714  -0.240   8.893 -1.3466 -0.3489 -0.5829
  350MOL0     H47229   7.579  -0.133   8.861 -0.1308  3.3341 -0.5261
  350MOL0     H47230   7.837  -0.039   8.991  0.4058  0.5930 -3.1886
  350MOL0     H47231   7.683  -0.058   9.068  0.5251 -0.1337 -0.7505
  350MOL0     H47232   8.256  -0.019   8.502 -0.9444 -0.3029 -0.4231
  350MOL0     H47233   8.432   0.160   8.504 -1.1493 -3.3696  0.6358
  350MOL0     H47234   8.557   0.576   8.145 -1.1649 -1.1219  0.5348
  350MOL0     H47235   8.742   0.755   8.171 -0.2543 -0.8672 -1.3941
  350MOL0     H47236  10.198   0.649   9.425  0.5145  2.0387 -0.1830
  350MOL0     H47237  10.430   0.682   9.494  0.1830  2.6763 -1.7924
  350MOL0     H47238  10.875   0.522   9.399  2.0176 -2.5173 -1.9795
  350MOL0     H47239  11.099   0.574   9.429 -0.3670  3.4004  3.7967
  350MOL0     H47240  11.241   0.929   9.442 -1.6209 -1.3824  0.1549
  350MOL0     H47241  11.214   0.781   9.527  1.1373  0.8217  0.8365
  350MOL0     H47242  11.457   0.708   9.444 -1.2138  0.8685 -1.1791
  350MOL0     H47243  11.454   0.813   9.577  1.7720 -2.3939 -0.6323
  350MOL0     H47244  11.500   1.000   9.454 -1.1253 -0.5564  0.5142
  350MOL0     H47245  11.446   0.937   9.305 -2.1782  1.8570  1.5459
  350MOL0     H47246  11.660   0.774   9.314 -1.8800 -0.1911 -0.4888
  350MOL0     H47247  11.687   0.856   9.463 -0.3757 -0.8083 -0.9856
  350MOL0     H47248  11.806   1.196   9.278 -0.2668  0.7777 -3.6531
  350MOL0     H47249  11.084   0.909   9.173  0.2866  0.6088 -0.2699
  350MOL0     H47250  10.841   0.861   9.140  0.5904  2.0940  4.0977
  351MOL0     O47251   3.432   9.758  10.014 -0.3142  0.3234 -0.2020
  351MOL0     C47252   3.313   9.750  10.035 -1.1760 -0.1551  0.3999
  351MOL0     O47253   3.238   9.648   9.989  0.1799 -0.1116  0.2271
  351MOL0     C47254   3.310   9.543   9.928 -0.3343  0.2296 -0.1665
  351MOL0     C47255   3.357   9.557   9.801  0.3254 -0.0155  0.5791
  351MOL0     C47256   3.443   9.454   9.749 -0.4707 -0.2235  0.5157
  351MOL0     C47257   3.472   9.343   9.825 -0.0045 -0.1069  0.5656
  351MOL0     O47258   3.566   9.249   9.793  0.1528 -0.3362 -0.1060
  351MOL0     C47259   3.682   9.284   9.720 -0.0769 -0.5526  1.0532
  351MOL0     C47260   3.769   9.167   9.706 -0.3111 -0.2827 -1.4178
  351MOL0     C47261   3.850   9.147   9.842  0.9230 -0.4292  0.0889
  351MOL0     C47262   3.908   9.007   9.858 -0.8626 -0.5592 -0.7015
  351MOL0     C47263   4.004   9.000   9.989  0.1698 -0.0691  0.2081
  351MOL0     C47264   4.025   8.858  10.038 -0.4710  0.3271 -0.3126
  351MOL0     C47265   3.895   8.797  10.072  0.5159  0.2922 -0.3407
  351MOL0     C47266   3.922   8.693  10.178  0.0475  0.1769  0.1503
  351MOL0     N47267   3.842   8.578  10.169 -0.6592 -0.5872 -0.2824
  351MOL0     C47268   3.706   8.574  10.203 -0.3402  0.1785  1.2132
  351MOL0     C47269   3.668   8.444  10.181 -0.7884 -0.1040 -0.3414
  351MOL0     C47270   3.542   8.373  10.220 -0.6772  0.1601 -0.1159
  351MOL0     C47271   3.491   8.414  10.366 -0.6260  0.8924 -0.4762
  351MOL0     C47272   3.366   8.336  10.406 -0.5544  0.5477  0.4485
  351MOL0     C47273   3.249   8.384  10.331 -0.9451 -0.0163  0.0735
  351MOL0     O47274   3.220   8.521  10.369  0.0417  0.2598 -0.1133
  351MOL0     C47275   3.104   8.583  10.335  0.3066  0.0536 -1.0046
  351MOL0     C47276   3.019   8.536  10.233 -0.1446 -0.5217 -0.1515
  351MOL0     C47277   2.889   8.595  10.206  0.1900  0.1514 -0.3833
  351MOL0     C47278   2.816   8.547  10.085  0.2954 -0.4829 -0.0302
  351MOL0     C47279   2.835   8.689  10.293 -0.0018  0.1550 -0.2497
  351MOL0     C47280   2.695   8.751  10.278 -0.0698 -0.2208 -0.4406
  351MOL0     O47281   2.668   8.853  10.358  0.6066 -0.2071 -0.5189
  351MOL0     C47282   2.540   8.906  10.395  0.1325  0.3429 -0.2441
  351MOL0     C47283   2.498   8.899  10.530 -0.1635 -0.6329 -1.2058
  351MOL0     C47284   2.383   8.971  10.561  0.8765 -0.2345 -0.1301
  351MOL0     C47285   2.293   9.017  10.474 -0.1645 -0.2224  0.1447
  351MOL0     O47286   2.175   9.070  10.523 -0.0946  0.4468  0.6020
  351MOL0     C47287   2.084   8.965  10.554 -0.4749 -0.9297 -0.2609
  351MOL0     C47288   1.994   9.007  10.673  0.6346  0.9929  0.4533
  351MOL0     C47289   1.864   8.942  10.650  0.0282 -0.3111 -0.2616
  351MOL0     C47290   1.767   8.947  10.780  0.3044 -0.1966 -0.3380
  351MOL0     C47291   1.620   8.967  10.742 -0.8227 -0.0587 -0.0248
  351MOL0     C47292   1.607   9.114  10.700 -0.2512  0.0626  0.1813
  351MOL0     C47293   1.455   9.136  10.669 -1.1238  0.5257 -0.2042
  351MOL0     C47294   1.429   9.148  10.522 -0.2580 -0.9687  0.0856
  351MOL0    Cl47295   1.470   8.997  10.438  0.1291  0.1763 -0.3404
  351MOL0     C47296   2.333   9.013  10.340  0.0100 -0.1344 -0.4081
  351MOL0     C47297   2.459   8.959  10.300 -0.2197 -1.2544  0.5960
  351MOL0     O47298   2.612   8.712  10.194  0.6437 -0.7852  0.8043
  351MOL0     C47299   2.914   8.728  10.397  0.0482  0.0285  0.4609
  351MOL0     C47300   3.050   8.687  10.410 -0.0686 -0.4069 -1.4260
  351MOL0     N47301   3.779   8.382  10.131 -0.0950  0.7354  0.1872
  351MOL0     N47302   3.879   8.458  10.122  0.8675  0.9960 -0.1841
  351MOL0     C47303   3.410   9.323   9.947 -1.7293  0.6433 -0.1193
  351MOL0     C47304   3.338   9.427  10.005  1.1565  0.6184 -0.1145
  351MOL0     C47305   3.241   9.831  10.128  0.0407 -0.6908  1.0148
  351MOL0     C47306   3.299   9.914  10.223 -0.7052  0.0642  0.2488
  351MOL0     C47307   3.224   9.996  10.299 -0.1009  0.0987  0.3131
  351MOL0     C47308   3.091  10.014  10.268  0.3315 -0.2523 -0.4634
  351MOL0     O47309   3.038  10.130  10.318  1.1743  0.6111 -0.6963
  351MOL0     C47310   2.931  10.185  10.248  0.5317 -0.1914 -0.2461
  351MOL0     C47311   2.931  10.338  10.218  0.4064  0.2232  0.6126
  351MOL0     C47312   3.025  10.365  10.101 -0.0796 -0.2243  0.1768
  351MOL0     C47313   3.051  10.504  10.071 -0.3571 -0.0156  0.4778
  351MOL0     C47314   3.122  10.517   9.946 -0.7718  0.4327  0.0255
  351MOL0     C47315   3.183  10.526   9.847 -0.6569 -0.0869  0.0099
  351MOL0     C47316   3.026   9.916  10.190  0.0732  0.3289  0.2746
  351MOL0     C47317   3.102   9.825  10.122 -0.8234 -0.9936  0.8454
  351MOL0     H47318   3.333   9.645   9.742  0.4672  0.6472  1.4840
  351MOL0     H47319   3.483   9.454   9.648 -0.7644 -2.0634  0.3680
  351MOL0     H47320   3.656   9.318   9.620 -1.3262  3.0025  2.4320
  351MOL0     H47321   3.741   9.364   9.767  0.2040  0.6630 -1.2296
  351MOL0     H47322   3.710   9.084   9.667  0.5991 -0.9689 -1.3816
  351MOL0     H47323   3.841   9.179   9.624 -0.4167  2.1294 -1.2012
  351MOL0     H47324   3.941   9.208   9.842  0.7248 -0.1364 -0.0034
  351MOL0     H47325   3.800   9.182   9.933  3.2515 -0.2153  1.3667
  351MOL0     H47326   3.819   8.949   9.882 -1.5339  1.4345  2.1154
  351MOL0     H47327   3.969   8.971   9.775 -0.7859 -1.7959 -0.1206
  351MOL0     H47328   4.091   9.061   9.965 -0.9466  1.2160 -0.7958
  351MOL0     H47329   3.957   9.057  10.070 -0.0499  0.5156 -0.3158
  351MOL0     H47330   4.074   8.805   9.956  0.8798  1.9907 -0.6296
  351MOL0     H47331   4.092   8.864  10.124  1.2843 -1.3106 -1.4602
  351MOL0     H47332   3.834   8.868  10.128 -0.8538 -0.8961 -0.2788
  351MOL0     H47333   3.837   8.758   9.988  2.1989 -2.1110 -0.4947
  351MOL0     H47334   3.908   8.737  10.277  0.3630 -0.0579  0.3016
  351MOL0     H47335   4.029   8.671  10.173  0.1517  0.6838  0.0831
  351MOL0     H47336   3.656   8.654  10.256  0.4563  0.8932  0.9048
  351MOL0     H47337   3.478   8.410  10.139 -1.5920  0.0261  0.5287
  351MOL0     H47338   3.550   8.266  10.201 -1.5094  0.5921 -3.6703
  351MOL0     H47339   3.482   8.523  10.372  3.4280  1.3067  1.8434
  351MOL0     H47340   3.570   8.390  10.439 -4.1012 -3.7813  2.2877
  351MOL0     H47341   3.341   8.340  10.513 -1.2087 -2.0972  0.4589
  351MOL0     H47342   3.392   8.236  10.371  1.6458  1.3905 -0.5237
  351MOL0     H47343   3.175   8.310  10.362 -1.0064 -0.4559 -1.0610
  351MOL0     H47344   3.274   8.386  10.224 -2.2395 -0.7600 -0.2666
  351MOL0     H47345   3.061   8.461  10.167 -0.1621 -1.8005  1.2218
  351MOL0     H47346   2.866   8.468  10.027 -0.9850  0.2534 -2.2505
  351MOL0     H47347   2.726   8.499  10.125  1.2235 -2.6407 -0.3867
  351MOL0     H47348   2.809   8.634  10.020 -2.0435  0.2673  1.1028
  351MOL0     H47349   2.572   8.859  10.598 -1.5967 -3.7628 -1.3235
  351MOL0     H47350   2.359   8.987  10.665  0.2823 -1.4103 -0.0734
  351MOL0     H47351   2.024   8.933  10.468 -3.8946  0.2875  1.4915
  351MOL0     H47352   2.138   8.877  10.591 -1.2929 -0.8806  1.1313
  351MOL0     H47353   2.041   8.962  10.761 -1.5959 -1.6559  0.4146
  351MOL0     H47354   1.990   9.116  10.679  4.3523  1.6320 -3.5743
  351MOL0     H47355   1.881   8.837  10.627 -1.1463 -0.2763 -1.3897
  351MOL0     H47356   1.820   8.985  10.559  0.5860  0.0620 -0.3596
  351MOL0     H47357   1.785   8.851  10.828  2.3755  1.2635  2.0419
  351MOL0     H47358   1.791   9.019  10.859  5.0492 -1.9130  0.1004
  351MOL0     H47359   1.549   8.948  10.824 -0.5639  0.2266  0.2689
  351MOL0     H47360   1.596   8.891  10.667 -0.7744  1.3613 -1.5140
  351MOL0     H47361   1.637   9.184  10.778 -2.1200  0.3034  0.7346
  351MOL0     H47362   1.663   9.135  10.609  0.0737  1.1850  0.6351
  351MOL0     H47363   1.418   9.230  10.711  0.9373  1.2762  0.0777
  351MOL0     H47364   1.398   9.050  10.705  1.5297 -1.9537 -1.5011
  351MOL0     H47365   1.499   9.228  10.497  1.0943 -1.4074  2.2635
  351MOL0     H47366   1.322   9.170  10.507 -0.7571 -3.5140 -0.5393
  351MOL0     H47367   2.278   9.051  10.255  0.9776 -2.6821 -2.2887
  351MOL0     H47368   2.501   8.953  10.200  1.7135  0.8555  1.1997
  351MOL0     H47369   2.875   8.796  10.473  2.2725  2.7935 -0.6766
  351MOL0     H47370   3.088   8.716  10.508 -2.4332 -2.4871  0.2643
  351MOL0     H47371   3.440   9.239  10.008 -0.9562 -2.9401 -4.8460
  351MOL0     H47372   3.300   9.435  10.106 -3.7460  0.2280 -1.6784
  351MOL0     H47373   3.404   9.904  10.250 -0.5835  0.4407 -0.0883
  351MOL0     H47374   3.281  10.062  10.364 -1.7028  2.0483 -0.1271
  351MOL0     H47375   2.939  10.147  10.146  0.7511 -0.0465 -0.2838
  351MOL0     H47376   2.832  10.165  10.290  0.9982 -2.0738  0.0336
  351MOL0     H47377   2.973  10.392  10.303 -0.0378  0.3126  0.7796
  351MOL0     H47378   2.837  10.382  10.183  1.2045  1.6459  0.2231
  351MOL0     H47379   2.985  10.319  10.011  0.4510  2.1119 -1.3445
  351MOL0     H47380   3.113  10.307  10.131 -0.1494 -0.0116  0.8127
  351MOL0     H47381   3.112  10.551  10.149 -0.8123  1.1568  0.1466
  351MOL0     H47382   2.950  10.546  10.063 -1.1339 -2.1250 -2.1282
  351MOL0     H47383   3.248  10.537   9.762  0.9967 -0.1885  1.2140
  351MOL0     H47384   2.920   9.928  10.170 -0.0869 -0.4503  0.6142
  351MOL0     H47385   3.051   9.767  10.046 -0.9899  0.2929 -0.0610
  352MOL0     O47386   7.475   6.985   3.189  0.8987  0.0563 -0.2541
  352MOL0     C47387   7.520   6.869   3.202 -0.1370 -0.6762  0.0467
  352MOL0     O47388   7.479   6.755   3.142 -0.6312 -0.0915  0.0507
  352MOL0     C47389   7.383   6.743   3.043  0.4263 -0.7757 -0.6458
  352MOL0     C47390   7.367   6.837   2.945 -0.2155 -0.3826  0.0028
  352MOL0     C47391   7.259   6.830   2.862  1.1986 -0.4773  0.2127
  352MOL0     C47392   7.154   6.730   2.888  0.5049  0.2264  0.9234
  352MOL0     O47393   7.037   6.719   2.810 -0.3417 -0.1805  0.5877
  352MOL0     C47394   6.997   6.846   2.746 -0.5327  0.9131 -0.6749
  352MOL0     C47395   6.843   6.868   2.741 -0.1639 -0.3354 -0.9675
  352MOL0     C47396   6.796   6.929   2.884 -0.4693  0.3814 -0.4798
  352MOL0     C47397   6.647   6.961   2.885  0.7907  0.0055 -0.2895
  352MOL0     C47398   6.606   7.017   3.020 -0.1052 -0.3885  0.6171
  352MOL0     C47399   6.449   6.985   3.026  0.2790  0.1876 -0.5165
  352MOL0     C47400   6.393   7.021   3.157 -0.3366 -0.2194 -0.1964
  352MOL0     C47401   6.441   6.947   3.282  0.3930  0.1843 -0.8899
  352MOL0     N47402   6.496   7.037   3.390 -0.3572 -0.3678  0.3700
  352MOL0     C47403   6.438   7.066   3.512 -0.8400  0.3576 -0.2115
  352MOL0     C47404   6.554   7.079   3.587  0.1439  0.2116  0.3393
  352MOL0     C47405   6.552   7.073   3.738 -0.3471  1.1726 -0.3979
  352MOL0     C47406   6.686   7.112   3.805 -0.2973 -0.3794  0.1168
  352MOL0     C47407   6.687   7.095   3.947 -0.2099 -0.3922 -0.2346
  352MOL0     C47408   6.827   7.105   4.018 -0.1202  1.2195 -0.0335
  352MOL0     O47409   6.904   7.006   3.962  0.2785  0.6028  0.2199
  352MOL0     C47410   7.045   7.026   3.968 -0.4517  0.0644  0.6347
  352MOL0     C47411   7.116   6.941   3.882  0.3905 -0.1658  0.0728
  352MOL0     C47412   7.255   6.927   3.874  0.2349  0.9845 -0.0326
  352MOL0     C47413   7.329   6.856   3.755  0.1466  0.0997 -0.1213
  352MOL0     C47414   7.332   7.009   3.963 -0.5598  1.3064 -0.6545
  352MOL0     C47415   7.487   7.008   3.969  0.5509  0.0774 -0.1497
  352MOL0     O47416   7.532   7.103   4.057  0.4962 -0.1165  0.1659
  352MOL0     C47417   7.671   7.120   4.063  0.3920 -0.3081 -0.3935
  352MOL0     C47418   7.722   7.095   4.190 -1.3769  0.7071  0.7701
  352MOL0     C47419   7.861   7.105   4.211  1.1064 -0.5128 -0.4263
  352MOL0     C47420   7.946   7.144   4.110 -0.4263 -0.5401  0.2878
  352MOL0     O47421   8.084   7.121   4.123 -0.2313 -0.6710  0.2876
  352MOL0     C47422   8.164   7.236   4.082 -0.3545  0.7367 -0.6493
  352MOL0     C47423   8.279   7.181   4.001 -0.4886  0.5920  0.3381
  352MOL0     C47424   8.406   7.259   3.975 -0.6946 -0.1692  0.2827
  352MOL0     C47425   8.397   7.352   3.853  0.3195 -0.2182  0.6676
  352MOL0     C47426   8.537   7.401   3.814 -0.6236  0.1337  1.0385
  352MOL0     C47427   8.635   7.305   3.738  0.2537 -0.6852  0.5534
  352MOL0     C47428   8.764   7.385   3.700  1.2530  1.0296  0.3026
  352MOL0     C47429   8.857   7.303   3.603 -0.5373 -0.6736 -1.0448
  352MOL0    Cl47430   8.770   7.253   3.456  0.0086  0.0476  0.0949
  352MOL0     C47431   7.885   7.175   3.985 -0.0108  1.4326 -0.2946
  352MOL0     C47432   7.748   7.163   3.955  0.7631  0.2564  0.0099
  352MOL0     O47433   7.554   6.936   3.900  0.3821 -0.0158 -0.0623
  352MOL0     C47434   7.260   7.101   4.042 -0.2544  0.4032 -0.0431
  352MOL0     C47435   7.120   7.119   4.034  0.1883 -0.0339  0.3978
  352MOL0     N47436   6.662   7.081   3.505 -0.0649 -0.1849  0.2874
  352MOL0     N47437   6.630   7.058   3.390 -0.1666  0.6646  0.8678
  352MOL0     C47438   7.175   6.635   2.990 -0.5897 -0.2976  0.5160
  352MOL0     C47439   7.286   6.644   3.065 -0.3497  0.4368 -1.2127
  352MOL0     C47440   7.624   6.849   3.290 -1.1220 -1.0519  0.2793
  352MOL0     C47441   7.628   6.921   3.411 -0.1045 -0.1457  1.0051
  352MOL0     C47442   7.732   6.894   3.504  0.1690  0.5945 -0.4326
  352MOL0     C47443   7.836   6.811   3.464 -0.1856  0.0928 -0.3912
  352MOL0     O47444   7.944   6.781   3.546 -0.4741 -1.1012 -0.1944
  352MOL0     C47445   7.914   6.751   3.686  0.1497  0.7198 -0.5237
  352MOL0     C47446   7.799   6.657   3.720 -0.6863 -0.7683  0.5433
  352MOL0     C47447   7.804   6.519   3.639 -0.2620  1.1580 -0.6021
  352MOL0     C47448   7.687   6.419   3.656  0.4121 -0.8126 -0.3555
  352MOL0     C47449   7.694   6.295   3.577 -1.4269 -2.2180 -0.3312
  352MOL0     C47450   7.712   6.193   3.513 -1.4279 -1.5158  0.9641
  352MOL0     C47451   7.841   6.750   3.342  0.4159  1.0634 -0.2805
  352MOL0     C47452   7.744   6.765   3.248  0.4408 -0.1119 -0.7628
  352MOL0     H47453   7.445   6.911   2.935  0.0017 -0.6603 -0.3647
  352MOL0     H47454   7.243   6.909   2.789 -1.2395 -0.6374  0.4965
  352MOL0     H47455   7.046   6.935   2.786  2.6853 -0.9187 -0.1598
  352MOL0     H47456   7.037   6.832   2.645 -0.3392 -0.0714 -0.4655
  352MOL0     H47457   6.809   6.932   2.658 -5.2182 -0.2768  0.7892
  352MOL0     H47458   6.781   6.780   2.723  0.8945 -1.1295 -0.8007
  352MOL0     H47459   6.819   6.857   2.962 -2.5065 -1.7606 -1.7158
  352MOL0     H47460   6.850   7.024   2.894 -1.1433  0.9201 -1.6322
  352MOL0     H47461   6.619   7.030   2.805  2.5567  0.9132 -0.1554
  352MOL0     H47462   6.592   6.871   2.853  0.7332  0.2179 -0.7895
  352MOL0     H47463   6.661   6.970   3.102  0.1736 -0.8038  0.1974
  352MOL0     H47464   6.624   7.125   3.019  0.2710 -0.3350 -3.1960
  352MOL0     H47465   6.399   7.043   2.947 -1.0810 -0.1903  0.0502
  352MOL0     H47466   6.435   6.877   3.020 -3.6385  0.5754 -0.5425
  352MOL0     H47467   6.411   7.127   3.175 -1.2356  0.0202 -0.6706
  352MOL0     H47468   6.285   7.008   3.143  0.1033 -1.5812 -2.9743
  352MOL0     H47469   6.518   6.873   3.259 -0.9163 -2.4956  2.5881
  352MOL0     H47470   6.352   6.905   3.329 -1.0047  4.0663  0.3402
  352MOL0     H47471   6.336   7.053   3.546 -0.1488  0.2386  1.9169
  352MOL0     H47472   6.474   7.136   3.781 -1.7482 -1.0706  0.4975
  352MOL0     H47473   6.527   6.970   3.766 -2.0568  0.9311 -2.5161
  352MOL0     H47474   6.705   7.216   3.775  1.6078 -0.6138  0.4317
  352MOL0     H47475   6.769   7.061   3.755  2.6034  1.1157  3.0286
  352MOL0     H47476   6.659   6.990   3.961 -1.7393  0.2694  2.1935
  352MOL0     H47477   6.624   7.174   3.988 -0.6033 -0.9053  0.1609
  352MOL0     H47478   6.810   7.097   4.125 -4.7618  1.3397 -0.5597
  352MOL0     H47479   6.860   7.207   3.997 -2.3481  2.2416  1.0500
  352MOL0     H47480   7.053   6.888   3.812  1.0018 -1.0295  0.1599
  352MOL0     H47481   7.383   6.921   3.685 -1.2678 -0.9382 -2.3047
  352MOL0     H47482   7.395   6.775   3.789 -1.1156 -1.1970 -0.6429
  352MOL0     H47483   7.257   6.810   3.686  0.8081 -2.1613  0.5887
  352MOL0     H47484   7.668   7.071   4.281 -1.3675  0.9477  0.8381
  352MOL0     H47485   7.899   7.099   4.312 -0.6841 -3.6350  0.1551
  352MOL0     H47486   8.106   7.308   4.024  0.6347  1.7512 -0.4273
  352MOL0     H47487   8.204   7.287   4.171  1.1003 -1.6367  0.1586
  352MOL0     H47488   8.294   7.082   4.045 -1.3334  1.0199  1.6275
  352MOL0     H47489   8.234   7.177   3.901 -2.0167  2.5187  0.8912
  352MOL0     H47490   8.480   7.180   3.959  1.6880  2.1251 -0.8203
  352MOL0     H47491   8.444   7.308   4.065 -0.1293  0.9536 -0.5388
  352MOL0     H47492   8.352   7.319   3.759 -1.2483 -0.3691  1.4404
  352MOL0     H47493   8.339   7.442   3.878 -1.5016 -0.5409 -1.9624
  352MOL0     H47494   8.598   7.421   3.903  2.0273  0.1935 -0.6714
  352MOL0     H47495   8.529   7.497   3.763 -0.5941  1.9341  4.1287
  352MOL0     H47496   8.662   7.224   3.807 -4.6553 -1.4020  2.0264
  352MOL0     H47497   8.579   7.254   3.659  1.4306 -2.7117  0.9651
  352MOL0     H47498   8.826   7.409   3.787  0.6009 -1.6423  1.5952
  352MOL0     H47499   8.731   7.477   3.651 -1.5779  0.0140  0.1122
  352MOL0     H47500   8.906   7.222   3.656 -1.7933 -0.2410  0.8844
  352MOL0     H47501   8.938   7.369   3.573 -0.3791 -1.0029 -1.3460
  352MOL0     H47502   7.950   7.196   3.901  2.1818 -2.5649  0.1636
  352MOL0     H47503   7.700   7.172   3.858 -1.2452 -2.0550  0.6983
  352MOL0     H47504   7.314   7.175   4.101  2.9243  0.5650 -2.8521
  352MOL0     H47505   7.081   7.198   4.098  2.6889  3.3168 -1.8210
  352MOL0     H47506   7.095   6.561   2.993 -0.6901 -0.3408 -1.5685
  352MOL0     H47507   7.293   6.566   3.140 -1.1374 -1.1979 -2.7395
  352MOL0     H47508   7.545   6.986   3.434 -1.7813 -1.4980 -0.8999
  352MOL0     H47509   7.745   6.933   3.604  0.4197 -2.8589  1.0347
  352MOL0     H47510   8.007   6.709   3.728  0.0215  0.4978 -0.4576
  352MOL0     H47511   7.886   6.838   3.746  1.3282 -0.2230  1.5119
  352MOL0     H47512   7.700   6.702   3.708  0.4877  2.0332  0.5437
  352MOL0     H47513   7.798   6.643   3.829  0.5737  1.8133  0.9699
  352MOL0     H47514   7.890   6.466   3.683 -0.8778  0.2302 -0.4814
  352MOL0     H47515   7.822   6.537   3.533  0.5408 -1.1967 -0.9232
  352MOL0     H47516   7.597   6.472   3.623  0.2308  0.0298  1.3892
  352MOL0     H47517   7.674   6.382   3.758 -2.4513  0.7184 -0.0413
  352MOL0     H47518   7.743   6.105   3.460  0.4676 -1.9003  2.5971
  352MOL0     H47519   7.927   6.690   3.316  0.4243  1.3730 -0.9742
  352MOL0     H47520   7.753   6.702   3.160  0.3286 -1.4872  0.1918
  353MOL0     O47521   7.459   5.819   9.120  0.0912 -0.4236  0.1521
  353MOL0     C47522   7.355   5.818   9.191 -0.0879  1.2856 -0.5599
  353MOL0     O47523   7.329   5.920   9.278  0.0667 -0.5594 -0.6812
  353MOL0     C47524   7.383   6.045   9.281 -0.1664 -0.2192 -0.0390
  353MOL0     C47525   7.296   6.153   9.263  0.6696  0.6499  0.5409
  353MOL0     C47526   7.338   6.281   9.264 -0.3321  0.2211 -0.3030
  353MOL0     C47527   7.480   6.297   9.287 -0.0240 -0.7873  0.8003
  353MOL0     O47528   7.530   6.426   9.291 -1.5916 -0.1996  0.3834
  353MOL0     C47529   7.566   6.469   9.157 -0.5554  1.1290 -0.2151
  353MOL0     C47530   7.613   6.610   9.168  0.9808 -0.3814  0.9497
  353MOL0     C47531   7.714   6.638   9.269  0.2587  0.1213 -0.1058
  353MOL0     C47532   7.850   6.618   9.204 -0.5053  0.1048  0.0696
  353MOL0     C47533   7.959   6.600   9.317  0.5091  0.4096 -0.1528
  353MOL0     C47534   7.973   6.733   9.391 -0.4105 -0.1900  0.6477
  353MOL0     C47535   8.088   6.742   9.497  0.2269 -0.2966  0.0386
  353MOL0     C47536   8.111   6.865   9.578 -0.4919  0.0334 -0.4586
  353MOL0     N47537   8.010   6.898   9.673  0.2181  1.1251 -0.5684
  353MOL0     C47538   7.966   6.821   9.773  0.2191 -0.2288 -0.7744
  353MOL0     C47539   7.917   6.905   9.864 -0.3050  0.1674 -0.1293
  353MOL0     C47540   7.847   6.872   9.992 -1.0577  0.3753  0.3046
  353MOL0     C47541   7.923   6.777  10.076  0.5641  1.3021 -0.0300
  353MOL0     C47542   7.861   6.767  10.223 -1.1516  0.3248  0.0522
  353MOL0     C47543   7.967   6.692  10.314  0.5988 -0.2890 -0.4833
  353MOL0     O47544   8.005   6.557  10.267 -0.6920 -0.2976  0.1626
  353MOL0     C47545   8.024   6.468  10.373 -0.1931 -0.4228 -0.3356
  353MOL0     C47546   8.024   6.337  10.339  0.7000  0.3049 -1.0979
  353MOL0     C47547   8.047   6.235  10.423  0.5717  0.0384  0.5376
  353MOL0     C47548   8.057   6.099  10.362 -0.5914 -0.0029 -0.4582
  353MOL0     C47549   8.064   6.262  10.557 -0.5911  0.0408  0.6790
  353MOL0     C47550   8.063   6.165  10.667 -0.5751 -0.0523  0.5314
  353MOL0     O47551   8.090   6.205  10.791 -0.0854 -0.3090 -0.1619
  353MOL0     C47552   8.084   6.128  10.909 -0.9068 -0.0420  0.0378
  353MOL0     C47553   8.172   6.173  11.005  0.2259  0.6735 -0.9925
  353MOL0     C47554   8.160   6.130  11.142 -0.6848  0.0463 -0.3244
  353MOL0     C47555   8.061   6.035  11.172 -0.6317 -0.5326 -0.1995
  353MOL0     O47556   8.038   5.999  11.300 -0.3414  0.5969 -0.3217
  353MOL0     C47557   8.087   5.872  11.335 -0.3052  0.9608 -0.6963
  353MOL0     C47558   7.976   5.806  11.419 -0.2961 -0.3934 -0.1908
  353MOL0     C47559   8.013   5.661  11.468  0.4046 -0.1277 -0.5545
  353MOL0     C47560   8.060   5.566  11.349  0.1837  0.1185 -0.2796
  353MOL0     C47561   8.055   5.431  11.417  0.3096  0.3765 -0.0899
  353MOL0     C47562   8.091   5.327  11.312 -1.2660  1.3515  0.3914
  353MOL0     C47563   8.002   5.202  11.337  0.1970  0.1525  0.5036
  353MOL0     C47564   8.059   5.081  11.252  0.2167  0.5506  0.9984
  353MOL0    Cl47565   8.209   5.019  11.314 -0.2209 -0.0992 -0.0943
  353MOL0     C47566   7.971   5.991  11.078  0.1259 -0.8405 -0.0388
  353MOL0     C47567   7.986   6.036  10.942  0.0169 -0.8453  0.9977
  353MOL0     O47568   8.054   6.041  10.637 -0.9988  0.5470 -0.3456
  353MOL0     C47569   8.073   6.398  10.591 -0.9946 -0.2088 -0.6561
  353MOL0     C47570   8.052   6.502  10.504  0.8615  0.3108 -0.7558
  353MOL0     N47571   7.929   7.035   9.813  0.5207 -0.2948  0.1847
  353MOL0     N47572   7.986   7.035   9.695  0.1870  0.0013 -0.1650
  353MOL0     C47573   7.564   6.191   9.306 -0.5597 -0.3631 -0.2357
  353MOL0     C47574   7.513   6.065   9.304 -0.9553 -0.1007 -0.0898
  353MOL0     C47575   7.255   5.707   9.181  0.4661 -0.5057  0.6926
  353MOL0     C47576   7.280   5.602   9.092  0.5858 -0.3138 -0.2849
  353MOL0     C47577   7.199   5.492   9.087  0.6787 -0.5763 -0.5565
  353MOL0     C47578   7.078   5.489   9.167 -0.4075  0.3263  1.1413
  353MOL0     O47579   6.973   5.394   9.148 -0.1727  0.3633  0.4158
  353MOL0     C47580   7.022   5.268   9.084  0.0561 -1.4636  0.0356
  353MOL0     C47581   6.911   5.167   9.107 -0.4257  0.8270 -0.6122
  353MOL0     C47582   6.950   5.039   9.042  0.4839 -0.6247  0.4800
  353MOL0     C47583   6.847   5.029   8.931 -0.2908 -0.0307  0.9744
  353MOL0     C47584   6.886   4.932   8.832 -0.1277 -0.4626  0.1118
  353MOL0     C47585   6.897   4.834   8.769 -1.5187  0.7208  0.3574
  353MOL0     C47586   7.052   5.601   9.250  0.1704  0.3920 -0.0359
  353MOL0     C47587   7.137   5.711   9.259  0.1993  1.1836 -0.2136
  353MOL0     H47588   7.189   6.133   9.262  0.6823  0.2735  2.2976
  353MOL0     H47589   7.273   6.368   9.257  0.1755  0.9027  2.2905
  353MOL0     H47590   7.649   6.407   9.124 -3.3232 -2.2432 -1.4140
  353MOL0     H47591   7.485   6.459   9.084  0.9186 -0.1700 -1.7674
  353MOL0     H47592   7.636   6.642   9.066 -0.8632  2.5747  1.3489
  353MOL0     H47593   7.517   6.656   9.191 -2.4008 -5.6648 -0.6854
  353MOL0     H47594   7.721   6.747   9.282 -0.5631  0.0698  0.9537
  353MOL0     H47595   7.693   6.580   9.360 -2.4040 -0.7386 -1.1734
  353MOL0     H47596   7.857   6.529   9.142 -1.7751 -0.9640  1.3697
  353MOL0     H47597   7.878   6.710   9.152  1.6624 -0.3518  0.3450
  353MOL0     H47598   7.920   6.528   9.390  0.0065 -0.1055 -0.9137
  353MOL0     H47599   8.056   6.565   9.281  0.7589 -0.5977  1.4071
  353MOL0     H47600   7.976   6.811   9.314 -2.1422 -0.1696  0.5774
  353MOL0     H47601   7.887   6.747   9.457 -1.1778  0.0900 -0.3946
  353MOL0     H47602   8.086   6.648   9.554 -0.1351  1.2129  2.7093
  353MOL0     H47603   8.184   6.735   9.446  0.6153  1.6978  0.4142
  353MOL0     H47604   8.123   6.953   9.515  0.5067  0.3023  0.0936
  353MOL0     H47605   8.204   6.839   9.629  0.5195  0.2835 -2.1272
  353MOL0     H47606   7.975   6.714   9.787 -0.4067 -0.2869 -0.7788
  353MOL0     H47607   7.818   6.959  10.053 -0.7437 -0.9564  2.4564
  353MOL0     H47608   7.758   6.828   9.946 -1.4834  1.4247  0.0969
  353MOL0     H47609   8.029   6.806  10.074  0.4804  1.6017 -0.2301
  353MOL0     H47610   7.910   6.673  10.044  2.0142  1.7293 -2.2568
  353MOL0     H47611   7.763   6.717  10.228 -1.1913  0.5228  2.0546
  353MOL0     H47612   7.835   6.862  10.270 -2.5599 -1.1486  2.4509
  353MOL0     H47613   7.908   6.689  10.406  0.5066  2.6008 -0.3591
  353MOL0     H47614   8.049   6.761  10.337 -0.8155  0.7847  1.7376
  353MOL0     H47615   8.012   6.323  10.232  0.6242 -0.3004 -1.0149
  353MOL0     H47616   7.962   6.046  10.374 -0.6210  0.5630  2.5323
  353MOL0     H47617   8.076   6.105  10.255 -3.2602  0.9157 -0.9567
  353MOL0     H47618   8.139   6.037  10.400 -0.3034  0.9698  0.5537
  353MOL0     H47619   8.240   6.256  10.992  1.1241 -0.1621 -1.7999
  353MOL0     H47620   8.204   6.176  11.230  3.4475 -1.7048 -1.2663
  353MOL0     H47621   8.123   5.809  11.254 -1.2319 -1.5512  0.7571
  353MOL0     H47622   8.178   5.880  11.395 -0.7443  1.1346 -0.0475
  353MOL0     H47623   7.978   5.872  11.505  3.3782  0.1100 -0.5227
  353MOL0     H47624   7.876   5.803  11.374 -0.7657  2.3729  0.5047
  353MOL0     H47625   7.922   5.624  11.518 -0.5995  0.4305 -1.9267
  353MOL0     H47626   8.097   5.660  11.539  0.7837 -0.2637 -1.0028
  353MOL0     H47627   7.987   5.564  11.267  2.3624 -0.3262 -2.3187
  353MOL0     H47628   8.162   5.586  11.315  1.2745 -1.7361  1.7303
  353MOL0     H47629   7.961   5.408  11.466  1.0109 -1.8380  0.3240
  353MOL0     H47630   8.132   5.429  11.495  0.4707 -2.5079 -0.2213
  353MOL0     H47631   8.074   5.356  11.208  0.2894  1.6206  0.1886
  353MOL0     H47632   8.197   5.299  11.313 -1.7818 -0.9921  2.9438
  353MOL0     H47633   7.902   5.223  11.299  0.5195 -0.2804 -0.6029
  353MOL0     H47634   8.016   5.178  11.443  2.6100 -1.8700 -0.1766
  353MOL0     H47635   8.083   5.107  11.149  4.0011  0.5514  1.7463
  353MOL0     H47636   7.993   4.994  11.246 -1.2054  1.6220  0.6109
  353MOL0     H47637   7.900   5.916  11.110  1.0874 -1.4085  0.8197
  353MOL0     H47638   7.916   6.016  10.861  1.2297 -4.3846  0.6525
  353MOL0     H47639   8.112   6.422  10.690 -2.0956  0.1164 -0.2800
  353MOL0     H47640   8.041   6.601  10.546 -3.9213 -1.0593  1.9409
  353MOL0     H47641   7.666   6.219   9.330 -0.5153 -0.5273 -0.2326
  353MOL0     H47642   7.585   5.985   9.291 -1.6322 -0.8826  0.8249
  353MOL0     H47643   7.370   5.612   9.033  0.0788  2.3462 -0.7682
  353MOL0     H47644   7.238   5.415   9.021  3.2819 -0.0995  0.3091
  353MOL0     H47645   7.046   5.288   8.980  1.2931  1.4615  0.7661
  353MOL0     H47646   7.111   5.227   9.132  0.1744  1.5665  2.8337
  353MOL0     H47647   6.812   5.199   9.072 -1.1670 -3.1834 -2.8316
  353MOL0     H47648   6.911   5.163   9.216  1.2080  0.6482 -0.6064
  353MOL0     H47649   6.936   4.951   9.106 -0.8920 -0.3177  0.6299
  353MOL0     H47650   7.054   5.049   9.011  0.3043 -0.9444 -0.2645
  353MOL0     H47651   6.851   5.122   8.872 -1.3046  0.3433  1.4730
  353MOL0     H47652   6.743   5.016   8.960 -0.9964  1.0011 -0.8788
  353MOL0     H47653   6.919   4.735   8.734  1.0796  0.1665  3.0846
  353MOL0     H47654   6.968   5.603   9.319  0.0465  0.3510 -0.1856
  353MOL0     H47655   7.109   5.791   9.327  0.7252  2.8747 -1.9145
  354MOL0     O47656   2.470   9.139  10.055  0.0616 -0.0581  0.4787
  354MOL0     C47657   2.437   9.246   9.999 -0.0556  0.5566 -0.6891
  354MOL0     O47658   2.471   9.277   9.876 -0.3106 -0.1805 -0.3390
  354MOL0     C47659   2.539   9.191   9.796  0.5729 -0.2400  1.3304
  354MOL0     C47660   2.651   9.234   9.722  0.6659  0.9926 -1.3836
  354MOL0     C47661   2.729   9.153   9.640 -0.1648 -0.1631 -1.0741
  354MOL0     C47662   2.698   9.020   9.631  0.3976 -0.2575  0.4816
  354MOL0     O47663   2.774   8.926   9.557  0.1470 -0.4725  0.6679
  354MOL0     C47664   2.842   8.814   9.627 -0.5480 -1.1370 -0.9060
  354MOL0     C47665   2.960   8.862   9.727 -0.5199 -1.0426  0.0911
  354MOL0     C47666   3.088   8.776   9.718 -0.2798 -0.0920  0.2944
  354MOL0     C47667   3.082   8.648   9.801  0.7143  0.4011 -0.4898
  354MOL0     C47668   3.220   8.577   9.807  0.6245  0.1223  0.9210
  354MOL0     C47669   3.192   8.427   9.827 -0.2367  0.0058 -0.3912
  354MOL0     C47670   3.323   8.371   9.874 -0.3925 -0.4853 -0.2169
  354MOL0     C47671   3.318   8.221   9.874  0.0582 -0.1164  0.2514
  354MOL0     N47672   3.234   8.163   9.977 -0.3727 -0.8580 -0.5763
  354MOL0     C47673   3.100   8.152   9.980  0.8634 -0.4678 -0.0888
  354MOL0     C47674   3.077   8.107  10.108  0.3578  0.2356 -0.0193
  354MOL0     C47675   2.945   8.062  10.171 -0.7856 -0.1518 -0.8464
  354MOL0     C47676   2.896   8.149  10.282 -0.3973 -0.1902 -0.7088
  354MOL0     C47677   2.793   8.080  10.379 -0.4452  0.7248 -0.5393
  354MOL0     C47678   2.697   8.182  10.433 -0.3954  0.6125  0.4009
  354MOL0     O47679   2.588   8.174  10.338 -0.0921 -0.5939  0.7383
  354MOL0     C47680   2.474   8.225  10.385 -0.0196 -1.2336 -0.6146
  354MOL0     C47681   2.437   8.359  10.360  0.4847 -0.6370  0.1567
  354MOL0     C47682   2.324   8.414  10.420 -0.0275 -0.0627 -0.2608
  354MOL0     C47683   2.304   8.557  10.378 -0.9824 -0.2000 -0.6757
  354MOL0     C47684   2.255   8.335  10.524 -1.7080 -1.1382 -0.5754
  354MOL0     C47685   2.140   8.380  10.603 -0.0802  0.4006  0.2664
  354MOL0     O47686   2.103   8.291  10.704  0.1470 -0.5449 -0.1311
  354MOL0     C47687   1.982   8.314  10.764  0.2044 -0.4424 -0.5942
  354MOL0     C47688   1.854   8.317  10.686 -0.4314  0.7149  0.4267
  354MOL0     C47689   1.736   8.339  10.757  0.2299 -0.6834 -0.1806
  354MOL0     C47690   1.723   8.352  10.897  0.0463 -0.3865  1.2707
  354MOL0     O47691   1.596   8.379  10.950  0.2767  0.5704  0.1874
  354MOL0     C47692   1.488   8.349  10.865  0.1316  0.7025  0.2736
  354MOL0     C47693   1.362   8.345  10.941 -0.1471  0.1491  0.9274
  354MOL0     C47694   1.335   8.466  11.024  1.1026 -0.7354 -0.5430
  354MOL0     C47695   1.345   8.602  10.957 -0.2711  0.5604  0.2191
  354MOL0     C47696   1.303   8.723  11.047 -0.5441 -0.1490  0.2259
  354MOL0     C47697   1.291   8.848  10.972  0.0055  0.4696  0.3332
  354MOL0     C47698   1.264   8.968  11.067  0.4522  0.5229 -0.2283
  354MOL0     C47699   1.275   9.114  11.000  1.5638  0.8463 -0.3950
  354MOL0    Cl47700   1.139   9.151  10.891  0.0668 -0.1096  0.1916
  354MOL0     C47701   1.849   8.372  10.963  0.3006 -0.1013 -0.0088
  354MOL0     C47702   1.975   8.349  10.898 -0.1374  0.3821  0.4289
  354MOL0     O47703   2.094   8.493  10.582 -0.3353  0.5907 -0.1301
  354MOL0     C47704   2.314   8.208  10.552 -0.2864 -0.4606 -0.8441
  354MOL0     C47705   2.411   8.153  10.477 -0.3855  0.1734 -1.0241
  354MOL0     N47706   3.202   8.088  10.166 -1.1912  0.9103 -1.0745
  354MOL0     N47707   3.300   8.111  10.085  0.3336  0.1883 -0.0904
  354MOL0     C47708   2.582   8.972   9.693 -1.6560  0.6055  0.0127
  354MOL0     C47709   2.512   9.051   9.783 -0.6455 -0.5274 -0.3970
  354MOL0     C47710   2.332   9.329  10.069 -0.2434 -0.1681 -1.1891
  354MOL0     C47711   2.317   9.321  10.219 -1.0849  0.0689  0.4339
  354MOL0     C47712   2.246   9.416  10.274  0.2696  0.1072  1.0477
  354MOL0     C47713   2.176   9.503  10.197  0.3010 -0.1029 -0.1025
  354MOL0     O47714   2.075   9.576  10.247 -0.7526  0.9008 -0.3319
  354MOL0     C47715   2.057   9.587  10.390 -0.2693 -0.2474 -0.0742
  354MOL0     C47716   1.950   9.698  10.423  0.2535  1.2256  0.4407
  354MOL0     C47717   1.939   9.730  10.576  0.6132  0.3163  0.1744
  354MOL0     C47718   2.060   9.817  10.608 -0.8229 -0.5442 -1.4644
  354MOL0     C47719   2.060   9.821  10.758 -0.1713 -0.2825 -0.4066
  354MOL0     C47720   2.070   9.840  10.879  0.8602  0.5294 -0.3177
  354MOL0     C47721   2.186   9.504  10.059 -0.2339  0.2658 -0.5139
  354MOL0     C47722   2.263   9.414   9.998  1.2059 -0.2357  0.1818
  354MOL0     H47723   2.673   9.339   9.709 -0.4497  1.2206 -1.4868
  354MOL0     H47724   2.819   9.191   9.592  1.3815 -0.1239  1.6367
  354MOL0     H47725   2.759   8.760   9.673 -0.3889 -1.8992 -1.4935
  354MOL0     H47726   2.887   8.742   9.557 -0.4731  1.4600 -3.7366
  354MOL0     H47727   2.983   8.964   9.694  2.5012 -1.1542  1.5436
  354MOL0     H47728   2.921   8.877   9.828 -3.0603  3.0722 -1.2564
  354MOL0     H47729   3.098   8.765   9.610 -2.6794  1.8070 -0.2034
  354MOL0     H47730   3.174   8.829   9.761 -0.2913 -0.7916  1.2131
  354MOL0     H47731   3.064   8.687   9.902 -3.4770 -0.0001 -0.9064
  354MOL0     H47732   3.002   8.590   9.755 -0.9098  0.4334  2.0902
  354MOL0     H47733   3.275   8.586   9.713 -0.6640  3.2891  0.3479
  354MOL0     H47734   3.280   8.632   9.880  1.0006  0.9946 -0.0216
  354MOL0     H47735   3.116   8.404   9.903 -1.1676  4.5211  0.3235
  354MOL0     H47736   3.166   8.391   9.727 -0.1335 -2.9099  0.5549
  354MOL0     H47737   3.407   8.401   9.810 -0.8902  1.0872 -0.1899
  354MOL0     H47738   3.343   8.406   9.976 -3.6206 -4.2164  1.9805
  354MOL0     H47739   3.419   8.190   9.901 -0.0475 -0.0180  0.7758
  354MOL0     H47740   3.294   8.190   9.772 -1.9879 -0.6642  0.8453
  354MOL0     H47741   3.028   8.169   9.901  0.3232 -2.3086 -0.0271
  354MOL0     H47742   2.869   8.059  10.092 -0.8770  0.1294 -0.7693
  354MOL0     H47743   2.969   7.959  10.202 -1.0241 -0.8505 -2.8183
  354MOL0     H47744   2.840   8.231  10.236 -0.3403  1.1948  1.5450
  354MOL0     H47745   2.975   8.205  10.334 -1.6536  1.4368 -0.4725
  354MOL0     H47746   2.859   8.031  10.452  0.9511  1.1506 -1.4682
  354MOL0     H47747   2.740   7.999  10.328  0.3938  0.8379 -1.6162
  354MOL0     H47748   2.735   8.285  10.436  0.8166  0.2028 -0.3840
  354MOL0     H47749   2.662   8.156  10.534 -0.9587  0.2912  0.1289
  354MOL0     H47750   2.500   8.407  10.286 -0.1507  0.3032  0.2205
  354MOL0     H47751   2.323   8.614  10.469 -2.4717  0.4951 -0.7743
  354MOL0     H47752   2.379   8.581  10.302  1.8987 -1.8139  1.4295
  354MOL0     H47753   2.203   8.578  10.342 -0.8813  1.5723 -0.0121
  354MOL0     H47754   1.855   8.293  10.580  3.5295 -2.6733  0.9856
  354MOL0     H47755   1.646   8.338  10.695 -0.2913  1.1769  0.4944
  354MOL0     H47756   1.468   8.430  10.794  1.9976  3.5195  2.6949
  354MOL0     H47757   1.499   8.255  10.809  0.3113 -0.0181  1.4803
  354MOL0     H47758   1.294   8.345  10.856  1.4703  1.8188 -0.4440
  354MOL0     H47759   1.335   8.250  10.989 -3.4973 -0.3368 -1.5698
  354MOL0     H47760   1.409   8.465  11.105 -1.1989  1.0263  1.7340
  354MOL0     H47761   1.232   8.462  11.060  0.6467  1.6690 -1.3891
  354MOL0     H47762   1.451   8.610  10.930  0.4465 -2.7822  1.4663
  354MOL0     H47763   1.278   8.606  10.871 -4.1356 -1.7158  2.8444
  354MOL0     H47764   1.385   8.738  11.117 -0.1328  3.1107 -0.7687
  354MOL0     H47765   1.203   8.705  11.089 -0.4468 -0.3281  0.3786
  354MOL0     H47766   1.385   8.847  10.917  0.3704 -0.3812  0.9625
  354MOL0     H47767   1.203   8.849  10.906  0.1254 -2.3689  0.0246
  354MOL0     H47768   1.344   8.959  11.141  1.1590 -2.3685 -1.1810
  354MOL0     H47769   1.163   8.974  11.109 -0.6971  4.9641 -2.9637
  354MOL0     H47770   1.374   9.124  10.954  2.4076 -0.6999  1.0203
  354MOL0     H47771   1.253   9.176  11.087 -0.6438  0.8586 -0.9195
  354MOL0     H47772   1.860   8.391  11.069  0.5088  1.3652 -0.2743
  354MOL0     H47773   2.065   8.352  10.959 -0.7200  1.4532  1.2643
  354MOL0     H47774   2.256   8.147  10.621 -5.1044  1.7187 -2.4773
  354MOL0     H47775   2.434   8.052  10.511 -4.5698 -1.9705 -3.7586
  354MOL0     H47776   2.551   8.874   9.658 -1.9281  2.0180 -4.2990
  354MOL0     H47777   2.421   9.010   9.826 -0.5532  1.0004  1.4123
  354MOL0     H47778   2.377   9.258  10.284 -0.6985 -2.4254 -2.1164
  354MOL0     H47779   2.248   9.419  10.383  2.2375  4.7061  1.1323
  354MOL0     H47780   2.014   9.491  10.420 -0.0142 -1.7019 -3.8002
  354MOL0     H47781   2.151   9.596  10.444 -0.0409 -2.9976  0.1211
  354MOL0     H47782   1.849   9.672  10.391  0.4351  1.2165 -0.1271
  354MOL0     H47783   1.980   9.786  10.366 -0.1755  1.6400  0.8502
  354MOL0     H47784   1.923   9.639  10.634 -1.3535 -0.6480 -1.7470
  354MOL0     H47785   1.845   9.783  10.593 -0.8596 -2.8293  3.0358
  354MOL0     H47786   2.062   9.917  10.563  2.4857 -0.4255 -1.2366
  354MOL0     H47787   2.156   9.774  10.579  2.0974  2.0849  3.1415
  354MOL0     H47788   2.066   9.872  10.982 -0.1247  2.0459 -0.8058
  354MOL0     H47789   2.125   9.574  10.004  0.1424 -1.1808 -2.9040
  354MOL0     H47790   2.266   9.430   9.891  0.3601 -1.5970 -0.0693
  355MOL0     O47791   9.682   9.627   9.271 -0.7876  0.8823  0.3990
  355MOL0     C47792   9.766   9.563   9.205 -0.0717 -0.2348 -1.0351
  355MOL0     O47793   9.900   9.604   9.199  0.1101  0.9002  0.0395
  355MOL0     C47794   9.949   9.718   9.250 -0.9226  0.4620 -0.7017
  355MOL0     C47795   9.888   9.846   9.248  0.1511  0.1566 -0.8580
  355MOL0     C47796   9.965   9.960   9.283 -0.6705 -0.5661  1.2949
  355MOL0     C47797  10.104   9.952   9.313  0.5375  0.3569  0.6105
  355MOL0     O47798  10.175  10.074   9.323  0.9930  0.8264 -0.7680
  355MOL0     C47799  10.311  10.071   9.370  0.7260  0.3820 -0.0494
  355MOL0     C47800  10.375  10.218   9.382  0.1473 -0.6699  0.2652
  355MOL0     C47801  10.283  10.314   9.452 -0.0950 -0.9821  0.8084
  355MOL0     C47802  10.192  10.396   9.353  0.1844 -0.3152 -0.8488
  355MOL0     C47803  10.099  10.495   9.421  0.1208  0.0887 -0.6953
  355MOL0     C47804  10.032  10.581   9.312  0.0134 -0.3261 -0.4344
  355MOL0     C47805   9.923  10.488   9.237 -1.1147 -0.3952  0.3013
  355MOL0     C47806   9.835  10.551   9.139  0.2231 -0.7365  0.4134
  355MOL0     N47807   9.757  10.449   9.074  0.0235 -0.2994 -0.2770
  355MOL0     C47808   9.775  10.401   8.948 -0.3968 -0.5349  0.9725
  355MOL0     C47809   9.693  10.298   8.939 -0.8426  0.4712  0.0517
  355MOL0     C47810   9.646  10.217   8.826  0.1315  0.1026 -0.3690
  355MOL0     C47811   9.579  10.316   8.724 -0.7085 -0.2635  0.7407
  355MOL0     C47812   9.517  10.248   8.607  0.5745  0.6978  0.0569
  355MOL0     C47813   9.360  10.227   8.625 -0.6979 -0.0375  0.0577
  355MOL0     O47814   9.331  10.155   8.747  0.4127 -0.3031  0.0923
  355MOL0     C47815   9.220  10.209   8.811 -0.2824 -0.3137 -0.3261
  355MOL0     C47816   9.093  10.162   8.773 -0.8366 -0.0205 -0.8144
  355MOL0     C47817   8.973  10.221   8.810  0.3889  0.0962  0.3711
  355MOL0     C47818   8.845  10.163   8.751  0.2050  0.3615 -0.6267
  355MOL0     C47819   8.978  10.333   8.900  0.3759  0.3158  0.1076
  355MOL0     C47820   8.862  10.387   8.977 -0.3727  0.2719 -0.9314
  355MOL0     O47821   8.762  10.298   8.983 -0.0120  0.0257 -0.0516
  355MOL0     C47822   8.634  10.335   9.021  0.2176 -0.1987 -0.4738
  355MOL0     C47823   8.551  10.248   9.085  0.1706 -0.4486  0.3251
  355MOL0     C47824   8.421  10.280   9.124 -1.0830 -0.3977 -0.0093
  355MOL0     C47825   8.362  10.406   9.085  0.4574  0.4529  0.3355
  355MOL0     O47826   8.233  10.444   9.101  1.2879  1.0507  0.1706
  355MOL0     C47827   8.140  10.337   9.127  0.2903 -0.1621  0.2864
  355MOL0     C47828   7.995  10.388   9.153  0.5304  0.4045 -0.2764
  355MOL0     C47829   7.945  10.516   9.082 -0.3054 -0.1704  0.1159
  355MOL0     C47830   7.807  10.556   9.129 -1.3242 -0.3026 -0.3155
  355MOL0     C47831   7.753  10.649   9.007  0.5499 -0.0294  0.2971
  355MOL0     C47832   7.616  10.704   9.046 -0.0342 -0.0609 -1.0101
  355MOL0     C47833   7.546  10.786   8.944 -1.0455  0.1760  0.3366
  355MOL0     C47834   7.415  10.821   8.993 -0.1498  0.2714 -0.7656
  355MOL0    Cl47835   7.298  10.702   8.943  0.1609  0.2120  0.3136
  355MOL0     C47836   8.444  10.501   9.021 -0.9743  0.3052  0.1650
  355MOL0     C47837   8.584  10.470   8.990 -0.1829 -0.1838 -0.5041
  355MOL0     O47838   8.876  10.493   9.041 -0.6325  0.4727  0.1015
  355MOL0     C47839   9.110  10.379   8.931  0.6037  0.1952  0.0410
  355MOL0     C47840   9.225  10.325   8.884 -0.3937  0.4106 -0.6539
  355MOL0     N47841   9.626  10.283   9.053 -0.7915  1.0114  0.1779
  355MOL0     N47842   9.656  10.382   9.131 -0.4912  0.5455 -0.3793
  355MOL0     C47843  10.156   9.827   9.319 -0.9673  1.1109  0.3036
  355MOL0     C47844  10.086   9.711   9.290 -0.0676 -0.4323  0.9965
  355MOL0     C47845   9.725   9.443   9.124 -0.2094  1.2224  0.3154
  355MOL0     C47846   9.826   9.370   9.054  0.4916  1.4696 -0.9840
  355MOL0     C47847   9.792   9.242   8.995  0.7626 -0.3290 -0.2940
  355MOL0     C47848   9.661   9.187   8.996 -0.5376  0.2858  0.2856
  355MOL0     O47849   9.634   9.073   8.918 -0.2748  0.7389  0.2576
  355MOL0     C47850   9.507   9.023   8.900  0.2727  0.7782  0.5614
  355MOL0     C47851   9.506   8.891   8.824 -0.0344  0.2408  0.2636
  355MOL0     C47852   9.563   8.883   8.681  0.5730  0.4872  0.2673
  355MOL0     C47853   9.715   8.908   8.677 -0.4691  0.6400 -0.3935
  355MOL0     C47854   9.758   8.874   8.539 -0.7002  0.0013  0.2026
  355MOL0     C47855   9.822   8.846   8.433 -0.3590  0.4430  0.2963
  355MOL0     C47856   9.566   9.265   9.053  0.1231  0.4647  0.6674
  355MOL0     C47857   9.592   9.390   9.112 -0.0752 -0.3166 -0.1585
  355MOL0     H47858   9.782   9.845   9.224 -0.5345 -1.6919  1.7782
  355MOL0     H47859   9.908  10.052   9.284  0.0962 -0.0754  0.7357
  355MOL0     H47860  10.329  10.013   9.462 -1.0439  1.2038  0.8773
  355MOL0     H47861  10.375  10.011   9.305  1.3863 -2.3269  2.8074
  355MOL0     H47862  10.459  10.217   9.452 -2.5669  1.1064  3.9387
  355MOL0     H47863  10.398  10.258   9.283 -1.5844 -0.2928 -0.0197
  355MOL0     H47864  10.218  10.267   9.526  0.5469 -3.2279  0.0350
  355MOL0     H47865  10.339  10.377   9.522 -3.3955  0.0751  2.7378
  355MOL0     H47866  10.257  10.442   9.279  1.9960  1.5258  1.7311
  355MOL0     H47867  10.129  10.321   9.303  0.0154  0.1511 -1.3513
  355MOL0     H47868  10.031  10.443   9.488  1.7364  1.4063  2.1616
  355MOL0     H47869  10.159  10.541   9.500 -2.2798  0.5967  0.9435
  355MOL0     H47870   9.978  10.663   9.361  0.2264  0.5766 -1.6646
  355MOL0     H47871  10.106  10.623   9.244 -1.8978  2.3302 -1.0282
  355MOL0     H47872   9.987  10.412   9.190 -2.1491 -0.7237 -0.6118
  355MOL0     H47873   9.864  10.437   9.313  0.0541  1.3672  2.5133
  355MOL0     H47874   9.889  10.612   9.065 -1.3267  2.6499  1.8757
  355MOL0     H47875   9.762  10.618   9.184 -0.1590  1.4844 -3.1242
  355MOL0     H47876   9.841  10.438   8.870  0.9483 -0.8056  1.9370
  355MOL0     H47877   9.734  10.168   8.781  0.0493 -1.5135  1.1496
  355MOL0     H47878   9.574  10.141   8.857  1.5027 -1.2451 -0.3484
  355MOL0     H47879   9.652  10.389   8.688 -2.2587 -0.1153 -2.5049
  355MOL0     H47880   9.502  10.378   8.770 -0.4464  2.3637 -2.0487
  355MOL0     H47881   9.567  10.152   8.590  2.4076  1.4411  0.9055
  355MOL0     H47882   9.512  10.316   8.522 -1.7347 -1.5007 -1.7070
  355MOL0     H47883   9.326  10.192   8.527 -2.7614  2.2516 -0.1289
  355MOL0     H47884   9.311  10.325   8.629 -3.7347 -1.4495  0.8531
  355MOL0     H47885   9.106  10.088   8.695 -0.6707  0.5194 -1.3010
  355MOL0     H47886   8.791  10.246   8.706  0.3039  0.0830 -1.2725
  355MOL0     H47887   8.868  10.087   8.676  1.9912  0.5893 -0.3609
  355MOL0     H47888   8.792  10.122   8.837 -0.5895  2.6765  0.0628
  355MOL0     H47889   8.586  10.151   9.120 -1.7580 -0.7442  1.5582
  355MOL0     H47890   8.364  10.212   9.186 -0.6308  1.7982  3.0420
  355MOL0     H47891   8.138  10.263   9.046 -4.4180 -0.9307  0.8356
  355MOL0     H47892   8.183  10.287   9.214  1.1570 -1.5421 -0.8987
  355MOL0     H47893   7.916  10.314   9.142 -1.1421  1.7825  1.6481
  355MOL0     H47894   8.000  10.420   9.258  0.6315  0.3604 -0.2683
  355MOL0     H47895   7.929  10.505   8.975  1.2139  2.3030 -0.4470
  355MOL0     H47896   8.012  10.602   9.088  2.3859 -2.0413 -1.3217
  355MOL0     H47897   7.742  10.469   9.145 -0.9066 -0.2988  1.6337
  355MOL0     H47898   7.817  10.615   9.221  2.8452  0.8847 -1.3283
  355MOL0     H47899   7.748  10.591   8.915  0.0502 -0.6062  0.6774
  355MOL0     H47900   7.820  10.735   8.997 -0.3252  0.4264 -2.7100
  355MOL0     H47901   7.548  10.620   9.064  1.5903 -1.7456 -2.3433
  355MOL0     H47902   7.627  10.754   9.143  3.0430 -3.4314  0.6212
  355MOL0     H47903   7.518  10.741   8.849 -1.5772  0.3169  0.4238
  355MOL0     H47904   7.604  10.878   8.930  1.5505 -1.6378 -1.8100
  355MOL0     H47905   7.391  10.922   8.958  2.5583  0.5428 -2.1003
  355MOL0     H47906   7.423  10.829   9.102  2.9488  0.1857 -0.8823
  355MOL0     H47907   8.393  10.587   8.979 -3.1879 -1.9713 -2.2050
  355MOL0     H47908   8.652  10.545   8.952 -0.6695 -0.9009 -2.9213
  355MOL0     H47909   9.123  10.468   8.993  2.3435 -1.7904  2.7585
  355MOL0     H47910   9.318  10.371   8.916  1.6786 -3.0292 -1.2476
  355MOL0     H47911  10.263   9.810   9.331 -0.5596  1.0459 -2.6433
  355MOL0     H47912  10.143   9.620   9.275 -0.5616 -0.3951 -1.7354
  355MOL0     H47913   9.925   9.415   9.057 -0.0800  3.0980 -3.5345
  355MOL0     H47914   9.877   9.189   8.953 -0.0391  1.5177 -4.8196
  355MOL0     H47915   9.471   9.005   9.001 -0.0569  1.4389  0.5673
  355MOL0     H47916   9.456   9.095   8.835  0.9331  0.4468 -0.3549
  355MOL0     H47917   9.401   8.860   8.828  0.2251 -0.6083  0.8776
  355MOL0     H47918   9.561   8.818   8.884  3.0315  2.7163  0.6990
  355MOL0     H47919   9.527   8.958   8.610  0.7440  1.2502  0.9591
  355MOL0     H47920   9.533   8.784   8.647 -0.5191 -0.0075  2.4722
  355MOL0     H47921   9.778   8.846   8.741  0.0935  2.2275  0.6571
  355MOL0     H47922   9.741   9.011   8.701  1.3303  0.0822  0.2145
  355MOL0     H47923   9.869   8.829   8.338 -1.7695 -1.9517 -0.0379
  355MOL0     H47924   9.466   9.225   9.068 -0.3556  0.6867 -1.5253
  355MOL0     H47925   9.506   9.423   9.169  0.2974 -3.7596  2.7996
  356MOL0     O47926  10.343   1.404  10.873 -0.4850  0.6531  0.2977
  356MOL0     C47927  10.379   1.281  10.887  0.6068  0.0050 -0.1983
  356MOL0     O47928  10.497   1.236  10.943 -1.1660  0.2400  0.5027
  356MOL0     C47929  10.567   1.324  11.012 -0.1221 -0.0416  0.2152
  356MOL0     C47930  10.616   1.444  10.959  0.8638 -0.1535 -0.3191
  356MOL0     C47931  10.695   1.532  11.026  0.6940 -0.5457 -0.3523
  356MOL0     C47932  10.727   1.517  11.162  0.2525  1.4155  0.0881
  356MOL0     O47933  10.820   1.607  11.219  0.4399 -0.2846 -0.2898
  356MOL0     C47934  10.811   1.619  11.362 -0.9618  0.0117 -0.4718
  356MOL0     C47935  10.944   1.558  11.422  1.5879  0.3511 -0.7149
  356MOL0     C47936  11.074   1.634  11.370  0.3219 -0.6146  0.2992
  356MOL0     C47937  11.095   1.787  11.403 -0.2754  0.7722  0.1112
  356MOL0     C47938  11.237   1.837  11.391  0.4807  0.0699 -0.2036
  356MOL0     C47939  11.257   1.969  11.476  0.3308  0.2562  0.5532
  356MOL0     C47940  11.397   2.017  11.479  0.6035  0.4488 -0.4356
  356MOL0     C47941  11.498   1.907  11.521  0.7698  0.5285  0.4230
  356MOL0     N47942  11.634   1.956  11.554  0.1087 -0.1478  0.6230
  356MOL0     C47943  11.728   2.018  11.477  0.0854 -0.3355 -0.1471
  356MOL0     C47944  11.819   2.063  11.566 -0.8102 -0.9166  0.1064
  356MOL0     C47945  11.953   2.129  11.532  0.4224  0.8593 -0.3981
  356MOL0     C47946  11.956   2.284  11.543  0.6033  0.5753  0.4813
  356MOL0     C47947  12.037   2.335  11.662  0.3865  0.3106 -0.4340
  356MOL0     C47948  12.002   2.299  11.806 -0.5284  0.8163  0.0685
  356MOL0     O47949  11.882   2.338  11.850  0.1132 -0.9862 -0.4421
  356MOL0     C47950  11.859   2.373  11.985  0.9964 -0.0476  0.9170
  356MOL0     C47951  11.936   2.335  12.096 -0.0559  0.4144 -0.8126
  356MOL0     C47952  11.894   2.345  12.228  0.3634  0.3096  0.0094
  356MOL0     C47953  11.973   2.264  12.329 -0.1549 -0.0267 -0.6281
  356MOL0     C47954  11.758   2.389  12.252  0.4815  0.2182 -0.4694
  356MOL0     C47955  11.713   2.396  12.392 -0.5704  0.4114 -0.0427
  356MOL0     O47956  11.811   2.439  12.480  0.3001 -0.0953 -0.2460
  356MOL0     C47957  11.790   2.507  12.602  0.8361  0.0447 -0.3986
  356MOL0     C47958  11.892   2.605  12.641  0.3193  1.1455  1.0541
  356MOL0     C47959  11.879   2.678  12.749 -0.5636  0.0869  0.1506
  356MOL0     C47960  11.766   2.665  12.833  0.4104  1.1720 -1.1188
  356MOL0     O47961  11.745   2.743  12.942 -0.3836  0.3875 -0.7620
  356MOL0     C47962  11.856   2.796  13.030  1.0124 -0.5359  0.4772
  356MOL0     C47963  11.882   2.945  12.987 -0.2119 -0.4141 -0.6317
  356MOL0     C47964  11.938   3.029  13.102 -0.3162 -0.1388 -1.4977
  356MOL0     C47965  11.929   3.185  13.068 -0.4777 -0.4725 -0.1425
  356MOL0     C47966  11.999   3.275  13.160 -0.4472  0.7366 -0.3189
  356MOL0     C47967  11.965   3.422  13.136 -0.1306  0.4665 -0.8976
  356MOL0     C47968  12.052   3.511  13.222 -0.6967  0.3104  0.0780
  356MOL0     C47969  12.204   3.523  13.197  0.1407 -0.0491 -0.2755
  356MOL0    Cl47970  12.262   3.513  13.365 -0.2774 -0.5014  0.1210
  356MOL0     C47971  11.657   2.580  12.799  0.7010 -0.1619 -0.2438
  356MOL0     C47972  11.675   2.504  12.679 -0.5509  0.4465 -1.1890
  356MOL0     O47973  11.605   2.359  12.423  0.9637  0.4076  0.3653
  356MOL0     C47974  11.683   2.436  12.141 -0.2942 -0.5480 -0.4443
  356MOL0     C47975  11.733   2.430  12.017 -0.6699  0.4436  0.5548
  356MOL0     N47976  11.782   2.039  11.692 -0.6418  0.6425 -0.8610
  356MOL0     N47977  11.669   1.979  11.685  0.0567  1.0469 -0.5453
  356MOL0     C47978  10.683   1.397  11.224  0.1225 -0.2102  0.0021
  356MOL0     C47979  10.598   1.305  11.150  0.2139 -0.6431 -0.2023
  356MOL0     C47980  10.287   1.182  10.836 -0.7590 -0.6796  0.5571
  356MOL0     C47981  10.158   1.210  10.788  0.5484  0.8978  0.0734
  356MOL0     C47982  10.075   1.106  10.745  0.6998 -0.1188  0.9024
  356MOL0     C47983  10.120   0.978  10.740 -0.7261 -1.0055  0.9286
  356MOL0     O47984  10.028   0.882  10.709  0.5581 -0.3544  0.1652
  356MOL0     C47985  10.054   0.750  10.749  0.1731 -0.5012  0.5445
  356MOL0     C47986  10.103   0.669  10.629  0.5112  0.0568  0.4013
  356MOL0     C47987  10.126   0.522  10.665  1.3609 -1.1810 -0.5737
  356MOL0     C47988  10.193   0.454  10.542  0.6706 -1.4586 -1.2485
  356MOL0     C47989  10.223   0.317  10.571 -0.9760 -0.1075  0.6552
  356MOL0     C47990  10.246   0.195  10.588  0.4120 -0.6190 -1.2173
  356MOL0     C47991  10.252   0.951  10.780 -0.5329  0.8113  0.2218
  356MOL0     C47992  10.328   1.049  10.832  0.4539  0.6362  0.2247
  356MOL0     H47993  10.584   1.468  10.858  0.7595 -0.9276 -0.4762
  356MOL0     H47994  10.741   1.620  10.983 -1.7424  0.1657 -1.6691
  356MOL0     H47995  10.790   1.721  11.395  1.0814 -0.4001  2.4234
  356MOL0     H47996  10.733   1.560  11.410 -2.0400  2.6637  1.2768
  356MOL0     H47997  10.954   1.557  11.531  0.6911  0.4084 -0.6192
  356MOL0     H47998  10.951   1.456  11.382  0.2311  0.7114 -1.9713
  356MOL0     H47999  11.166   1.600  11.418  0.8484  3.0718  2.2996
  356MOL0     H48000  11.079   1.631  11.261 -4.3427  3.9921 -0.4516
  356MOL0     H48001  11.031   1.851  11.342  0.0600  1.3385  0.3380
  356MOL0     H48002  11.068   1.807  11.507  0.7149 -0.3641  0.6063
  356MOL0     H48003  11.308   1.759  11.421  0.7061  0.6757  0.8991
  356MOL0     H48004  11.246   1.858  11.284 -3.8496 -3.0923 -1.4509
  356MOL0     H48005  11.199   2.047  11.426 -0.1863 -0.6437 -0.2938
  356MOL0     H48006  11.217   1.955  11.576 -0.9635  0.6603  0.1053
  356MOL0     H48007  11.420   2.055  11.379 -1.7680  1.9174 -0.5187
  356MOL0     H48008  11.412   2.099  11.551 -0.1160 -1.5134  2.0986
  356MOL0     H48009  11.498   1.841  11.433 -0.3486  1.6985 -0.5017
  356MOL0     H48010  11.455   1.844  11.599 -0.7449 -1.3689 -1.7989
  356MOL0     H48011  11.746   2.003  11.371 -0.0400 -1.2103 -0.0517
  356MOL0     H48012  12.025   2.078  11.597  0.6202  0.6202 -0.8021
  356MOL0     H48013  11.968   2.098  11.428  3.3582 -2.3832  0.7716
  356MOL0     H48014  11.858   2.328  11.561  1.6531  3.3172 -0.0243
  356MOL0     H48015  11.982   2.318  11.443 -1.0602 -3.3384 -1.5156
  356MOL0     H48016  12.025   2.443  11.654 -2.0727 -0.0320 -2.3666
  356MOL0     H48017  12.140   2.301  11.648  0.1604 -0.7480  0.3234
  356MOL0     H48018  12.082   2.343  11.866  0.6613 -3.1591  1.7317
  356MOL0     H48019  12.016   2.193  11.828 -3.3336  0.4132  0.2389
  356MOL0     H48020  12.027   2.277  12.081 -1.5392 -2.1536 -0.3684
  356MOL0     H48021  12.041   2.334  12.378 -0.6241  0.6217 -0.8969
  356MOL0     H48022  11.903   2.222  12.402  0.4838 -2.3566 -1.2714
  356MOL0     H48023  12.024   2.177  12.286 -1.6160 -1.6945  0.8400
  356MOL0     H48024  11.958   2.641  12.562  0.5381  2.4043  1.7739
  356MOL0     H48025  11.956   2.755  12.750  0.8158 -1.0733 -3.0457
  356MOL0     H48026  11.823   2.781  13.133  1.6068  3.6202  1.4491
  356MOL0     H48027  11.949   2.741  13.019  0.1929 -2.2344  1.6085
  356MOL0     H48028  11.951   2.942  12.902 -0.8544  0.8050 -1.2279
  356MOL0     H48029  11.789   2.980  12.942  1.0120 -0.2767 -3.2843
  356MOL0     H48030  12.042   2.996  13.110 -0.6575 -0.8443  2.8436
  356MOL0     H48031  11.894   3.014  13.201  0.8532  1.0339 -0.7703
  356MOL0     H48032  11.987   3.206  12.978 -1.2466 -0.1648 -0.5784
  356MOL0     H48033  11.823   3.212  13.063 -0.0839  1.3981  0.5055
  356MOL0     H48034  12.106   3.253  13.162 -0.5541  0.1036 -0.9712
  356MOL0     H48035  11.952   3.256  13.257  0.3769  0.2620 -0.0049
  356MOL0     H48036  11.965   3.432  13.027 -1.8422  2.3820 -0.7854
  356MOL0     H48037  11.862   3.444  13.166  0.0816 -1.4402  1.4930
  356MOL0     H48038  12.032   3.475  13.323 -1.4269 -1.3325 -0.6193
  356MOL0     H48039  12.007   3.610  13.209 -2.1062 -0.4517 -1.1275
  356MOL0     H48040  12.228   3.614  13.141 -1.2132  0.1299 -0.6070
  356MOL0     H48041  12.257   3.440  13.149  4.6209  2.5591 -0.4351
  356MOL0     H48042  11.568   2.592  12.860  2.4266  0.4177  2.3367
  356MOL0     H48043  11.595   2.432  12.663 -1.0205  0.1477  1.9578
  356MOL0     H48044  11.592   2.492  12.157 -1.8846 -3.3093  1.0604
  356MOL0     H48045  11.678   2.480  11.938 -0.0895  1.6151  0.8682
  356MOL0     H48046  10.699   1.376  11.329 -0.4709 -0.2542  0.0839
  356MOL0     H48047  10.560   1.215  11.197 -0.3382 -0.6523 -0.6534
  356MOL0     H48048  10.106   1.305  10.794  1.9710  1.8594 -1.7445
  356MOL0     H48049   9.976   1.132  10.710  0.9189  1.8703  1.6687
  356MOL0     H48050  10.123   0.746  10.834 -1.2393  4.4995  2.2841
  356MOL0     H48051   9.966   0.695  10.784 -0.0621  1.1792  2.8487
  356MOL0     H48052  10.195   0.720  10.600  1.1348 -1.1409  0.2098
  356MOL0     H48053  10.025   0.678  10.553  0.1008 -0.7001  0.7224
  356MOL0     H48054  10.034   0.478  10.704  2.0691 -0.6003  1.9231
  356MOL0     H48055  10.188   0.522  10.755  1.1576  3.2110 -0.2268
  356MOL0     H48056  10.289   0.505  10.528  1.1976 -1.2406  2.2599
  356MOL0     H48057  10.114   0.468  10.467  2.1107  3.1560 -2.2194
  356MOL0     H48058  10.258   0.097  10.629  1.2578  0.8011  2.3349
  356MOL0     H48059  10.287   0.848  10.789 -2.1807  0.3096  1.6315
  356MOL0     H48060  10.424   1.017  10.871  0.1144 -1.4198 -0.4576
  357MOL0     O48061   2.944  10.769   4.560  0.7217 -0.1214  0.7949
  357MOL0     C48062   2.988  10.775   4.441  0.4195  0.3387 -0.3878
  357MOL0     O48063   3.084  10.688   4.394  0.1425  0.2981  0.5574
  357MOL0     C48064   3.116  10.584   4.475 -0.4440 -0.4431 -0.2241
  357MOL0     C48065   3.074  10.457   4.432  0.3846  0.2793  0.7558
  357MOL0     C48066   3.116  10.342   4.489  0.4536 -0.9032 -1.2961
  357MOL0     C48067   3.201  10.349   4.613  0.6827 -0.2137  0.3252
  357MOL0     O48068   3.234  10.236   4.679  0.2807 -0.0977 -0.4911
  357MOL0     C48069   3.338  10.166   4.616 -0.3740 -0.2727 -0.9349
  357MOL0     C48070   3.345  10.017   4.659 -0.6804  0.7817  0.1124
  357MOL0     C48071   3.297   9.921   4.549  0.2867  0.2425 -0.3517
  357MOL0     C48072   3.269   9.787   4.624 -0.2481  0.7368  0.4418
  357MOL0     C48073   3.146   9.778   4.709  0.3060  0.7283  0.0012
  357MOL0     C48074   3.030   9.751   4.616  0.0405  0.4725 -0.4707
  357MOL0     C48075   2.892   9.709   4.678 -0.5735  0.1641 -0.0867
  357MOL0     C48076   2.899   9.590   4.766 -0.0442 -0.3175  0.0655
  357MOL0     N48077   2.921   9.622   4.900 -0.0577 -0.7865 -0.1873
  357MOL0     C48078   2.835   9.708   4.981 -0.0225  0.6807 -0.6598
  357MOL0     C48079   2.900   9.698   5.100 -0.0103  0.3478 -1.2309
  357MOL0     C48080   2.855   9.756   5.234  1.0849  0.3827 -0.7685
  357MOL0     C48081   2.725   9.705   5.308  0.1480 -0.1060  0.0859
  357MOL0     C48082   2.683   9.821   5.419 -0.1103  0.5443 -0.1364
  357MOL0     C48083   2.691   9.779   5.558 -0.0487  0.8528 -0.3438
  357MOL0     O48084   2.687   9.900   5.636  0.3801 -0.0949 -0.6137
  357MOL0     C48085   2.710   9.885   5.768  0.8451  0.3730  0.6025
  357MOL0     C48086   2.648   9.784   5.845  1.2878  0.3353  0.0528
  357MOL0     C48087   2.694   9.756   5.976 -0.0774  0.9943  0.5077
  357MOL0     C48088   2.623   9.651   6.050 -0.0014  0.0912  0.3640
  357MOL0     C48089   2.796   9.836   6.029  0.2280  0.1024 -1.2506
  357MOL0     C48090   2.857   9.810   6.174  1.2068 -0.4580 -0.0131
  357MOL0     O48091   2.812   9.694   6.241 -0.0855 -0.2679 -0.4679
  357MOL0     C48092   2.842   9.676   6.370 -0.5094 -0.0620 -1.1309
  357MOL0     C48093   2.910   9.551   6.405  1.0973 -0.6480 -0.6759
  357MOL0     C48094   2.921   9.514   6.545  0.2878  0.4995  0.4964
  357MOL0     C48095   2.894   9.601   6.648  0.6554  1.1833 -0.1143
  357MOL0     O48096   2.921   9.572   6.779 -0.2909 -0.1053  0.2669
  357MOL0     C48097   3.000   9.462   6.814  0.3508  0.2230 -0.8877
  357MOL0     C48098   3.031   9.488   6.957  0.1781  0.9748 -1.2202
  357MOL0     C48099   3.138   9.392   7.017  0.8847 -0.2574 -0.2552
  357MOL0     C48100   3.209   9.464   7.134  0.1483  0.6570 -0.3123
  357MOL0     C48101   3.346   9.523   7.088  0.8137  1.0203 -0.7815
  357MOL0     C48102   3.442   9.561   7.200 -0.3141 -0.6672 -0.7869
  357MOL0     C48103   3.552   9.661   7.140 -0.0933 -0.7090 -0.4037
  357MOL0     C48104   3.650   9.697   7.248 -0.0923 -0.7409  0.0164
  357MOL0    Cl48105   3.804   9.760   7.168 -0.0648 -0.0743 -0.2559
  357MOL0     C48106   2.829   9.721   6.610  0.7280 -0.2060 -0.6172
  357MOL0     C48107   2.808   9.763   6.479  1.0987  0.8872 -0.3080
  357MOL0     O48108   2.932   9.902   6.221  0.8773 -0.0465  0.1472
  357MOL0     C48109   2.845   9.944   5.955 -0.0819  0.4346 -0.3837
  357MOL0     C48110   2.807   9.966   5.825 -0.6450 -0.1822 -0.3084
  357MOL0     N48111   3.019   9.616   5.092 -0.4010 -0.2080 -0.0277
  357MOL0     N48112   3.024   9.570   4.971  0.3703  0.1656  0.9096
  357MOL0     C48113   3.225  10.478   4.669  0.9464 -1.0130  0.1260
  357MOL0     C48114   3.185  10.592   4.591  1.1960  0.1127  0.0406
  357MOL0     C48115   2.938  10.880   4.344  0.3752 -0.0253  0.1176
  357MOL0     C48116   2.820  10.944   4.371 -0.3819 -0.4643  0.5705
  357MOL0     C48117   2.778  11.044   4.275  0.3853  0.0225  0.4822
  357MOL0     C48118   2.852  11.079   4.166  0.1002  0.3566 -0.4253
  357MOL0     O48119   2.793  11.174   4.082  0.0587 -0.1959  0.1465
  357MOL0     C48120   2.850  11.212   3.941  0.3236 -0.1020 -1.0135
  357MOL0     C48121   2.776  11.325   3.876  0.6801  0.5737  0.9142
  357MOL0     C48122   2.626  11.309   3.860  0.0856 -0.7207 -0.1494
  357MOL0     C48123   2.562  11.424   3.780  0.5696  0.3136 -0.3326
  357MOL0     C48124   2.571  11.557   3.838  0.8835 -0.6791 -1.0967
  357MOL0     C48125   2.580  11.666   3.883  1.0672 -0.5021  0.1103
  357MOL0     C48126   2.973  11.023   4.135  0.4520 -0.7309 -0.0163
  357MOL0     C48127   3.011  10.915   4.219  0.2223 -0.0152 -1.0743
  357MOL0     H48128   3.003  10.435   4.353 -0.4766  0.5394  1.4500
  357MOL0     H48129   3.066  10.252   4.456 -1.7430 -0.1637 -0.1671
  357MOL0     H48130   3.336  10.161   4.507  0.7714 -1.0358 -0.9471
  357MOL0     H48131   3.435  10.209   4.644  0.2682 -2.5195  0.6507
  357MOL0     H48132   3.450  10.002   4.684 -1.9137 -1.3377  5.2726
  357MOL0     H48133   3.298   9.992   4.755 -1.0075 -1.3804 -0.5464
  357MOL0     H48134   3.210   9.962   4.497 -0.6456  1.6126  2.1121
  357MOL0     H48135   3.376   9.907   4.475  0.3930 -0.0658 -0.1805
  357MOL0     H48136   3.270   9.717   4.540  0.5563  1.0669  0.1670
  357MOL0     H48137   3.358   9.776   4.686  0.8957  0.7670 -1.1285
  357MOL0     H48138   3.171   9.695   4.775  0.8941 -0.0865 -1.2027
  357MOL0     H48139   3.127   9.867   4.770  0.9314  2.8818 -2.7069
  357MOL0     H48140   3.012   9.835   4.548  0.7046  0.8204 -0.2167
  357MOL0     H48141   3.069   9.670   4.553  2.8635 -1.1786  3.0568
  357MOL0     H48142   2.855   9.799   4.728 -0.7150  0.6380 -1.0137
  357MOL0     H48143   2.819   9.695   4.598 -1.9453 -3.2792  1.5798
  357MOL0     H48144   2.979   9.523   4.731  2.8257  1.6093  2.5078
  357MOL0     H48145   2.799   9.548   4.767  1.4371 -4.4804 -1.9945
  357MOL0     H48146   2.746   9.763   4.952  0.0396  0.0355 -2.2155
  357MOL0     H48147   2.933   9.740   5.309 -2.1977  1.4184  3.2681
  357MOL0     H48148   2.840   9.862   5.213  0.2423  0.0220 -2.1028
  357MOL0     H48149   2.742   9.604   5.347  2.3268  0.2812  0.2362
  357MOL0     H48150   2.640   9.716   5.239  1.9053  1.3293 -1.9702
  357MOL0     H48151   2.585   9.863   5.394 -0.8999 -0.4262  1.2248
  357MOL0     H48152   2.764   9.893   5.407 -0.4984  1.0418  0.1734
  357MOL0     H48153   2.783   9.724   5.577 -1.4384 -1.1058  1.1354
  357MOL0     H48154   2.618   9.702   5.584  2.4623 -1.1678  1.2739
  357MOL0     H48155   2.569   9.715   5.816  1.4378 -0.3795  1.3087
  357MOL0     H48156   2.687   9.567   6.076  0.5003  0.8612  1.7337
  357MOL0     H48157   2.580   9.695   6.141 -0.7637 -0.0304  0.0705
  357MOL0     H48158   2.547   9.605   5.986  2.0569 -0.4274 -1.8340
  357MOL0     H48159   2.964   9.484   6.339  0.2002 -0.7025 -1.3644
  357MOL0     H48160   2.968   9.417   6.556 -1.1373 -0.5640 -1.9131
  357MOL0     H48161   2.932   9.378   6.804  0.3613 -0.2699  2.2571
  357MOL0     H48162   3.093   9.443   6.760  0.8475  0.8808 -0.2881
  357MOL0     H48163   3.063   9.591   6.975 -0.8733  0.8756  1.8790
  357MOL0     H48164   2.946   9.457   7.018  1.3597  0.9163  0.4417
  357MOL0     H48165   3.207   9.363   6.937  0.3595 -0.8343 -0.5065
  357MOL0     H48166   3.079   9.306   7.050  0.1177  0.4791  0.3580
  357MOL0     H48167   3.140   9.539   7.175 -1.4921 -1.1338  0.3790
  357MOL0     H48168   3.233   9.385   7.207  1.3229  2.7417  1.6784
  357MOL0     H48169   3.325   9.609   7.023 -1.2904 -0.8346 -2.7138
  357MOL0     H48170   3.384   9.449   7.017 -1.1033 -1.8617  1.0047
  357MOL0     H48171   3.380   9.625   7.264  3.2808  3.1441 -0.6735
  357MOL0     H48172   3.491   9.478   7.251  0.1638 -0.4059 -0.8130
  357MOL0     H48173   3.506   9.758   7.122 -1.1231 -1.1678 -0.3479
  357MOL0     H48174   3.590   9.627   7.044  1.7309  0.2054 -0.0407
  357MOL0     H48175   3.670   9.610   7.311 -1.1779 -3.0002 -2.5046
  357MOL0     H48176   3.611   9.772   7.317  3.3100  1.6114 -0.3666
  357MOL0     H48177   2.818   9.798   6.685  1.1709 -1.0853  0.3650
  357MOL0     H48178   2.758   9.859   6.464 -1.3540 -0.1426  0.7658
  357MOL0     H48179   2.933   9.996   5.991  0.5535  0.6472 -2.1537
  357MOL0     H48180   2.860  10.020   5.746 -1.4221  0.3723 -0.4601
  357MOL0     H48181   3.285  10.489   4.759  1.8275  0.2273 -0.5670
  357MOL0     H48182   3.221  10.691   4.618 -1.7540  0.5367  2.9565
  357MOL0     H48183   2.746  10.917   4.445 -0.7727 -0.5052  0.1720
  357MOL0     H48184   2.689  11.104   4.290 -0.2186 -0.0477 -2.3116
  357MOL0     H48185   2.954  11.248   3.942  1.4959 -3.1117 -2.4898
  357MOL0     H48186   2.835  11.126   3.875 -2.1210 -1.2883  0.9285
  357MOL0     H48187   2.819  11.346   3.777  0.9401 -1.8037  0.4593
  357MOL0     H48188   2.785  11.418   3.933  0.9532  2.4889 -2.0243
  357MOL0     H48189   2.587  11.298   3.962  2.2955  0.2262  0.8529
  357MOL0     H48190   2.601  11.215   3.810 -0.4696 -1.7885  2.0198
  357MOL0     H48191   2.460  11.392   3.755  1.0380  0.3593 -2.5682
  357MOL0     H48192   2.615  11.425   3.684  0.8663 -0.6497 -0.1821
  357MOL0     H48193   2.574  11.769   3.913 -0.7806 -0.8736  1.1743
  357MOL0     H48194   3.033  11.055   4.051  0.2009 -0.7224 -0.1910
  357MOL0     H48195   3.111  10.872   4.211 -0.8711 -2.6944 -1.0686
  358MOL0     O48196   7.828   5.898   4.802 -0.6478  0.3134  0.1410
  358MOL0     C48197   7.906   5.904   4.891 -0.9014 -0.0010 -0.4326
  358MOL0     O48198   7.962   6.017   4.936  0.5576 -0.5519 -0.2520
  358MOL0     C48199   7.931   6.142   4.874  0.2791 -1.6835  0.6322
  358MOL0     C48200   7.964   6.167   4.736  0.3108  0.3999  0.5870
  358MOL0     C48201   7.932   6.283   4.675 -0.7142  0.4814 -0.8640
  358MOL0     C48202   7.871   6.381   4.750 -0.0851 -0.0608  0.0120
  358MOL0     O48203   7.836   6.508   4.706 -0.4587  0.9089  0.4965
  358MOL0     C48204   7.817   6.530   4.571  0.7927 -0.4958  0.4612
  358MOL0     C48205   7.762   6.672   4.562 -1.2818 -0.0417  0.1926
  358MOL0     C48206   7.605   6.681   4.572  1.1895  0.3637 -1.2234
  358MOL0     C48207   7.557   6.822   4.540 -0.7362  0.4906 -1.5411
  358MOL0     C48208   7.403   6.826   4.544  0.6319  0.1444  0.2895
  358MOL0     C48209   7.338   6.959   4.534 -0.9380  0.1860  0.5422
  358MOL0     C48210   7.185   6.959   4.513 -0.4535  0.0202  0.8285
  358MOL0     C48211   7.122   7.090   4.564  0.0021  0.2963 -0.3391
  358MOL0     N48212   6.982   7.076   4.611  0.3048  0.0853 -0.0433
  358MOL0     C48213   6.940   7.087   4.737 -0.1314 -0.0249 -0.1572
  358MOL0     C48214   6.811   7.059   4.731 -0.2920 -0.5317 -0.1393
  358MOL0     C48215   6.721   7.081   4.851 -0.4516 -0.8282 -0.4158
  358MOL0     C48216   6.657   7.220   4.813 -0.2218  0.3089  0.1012
  358MOL0     C48217   6.546   7.245   4.917 -1.1017 -0.7771 -0.3531
  358MOL0     C48218   6.624   7.286   5.044  0.1766  0.3636 -0.5048
  358MOL0     O48219   6.520   7.362   5.113 -0.1729 -0.1550 -0.4315
  358MOL0     C48220   6.551   7.409   5.243  0.3840  0.2235 -0.2381
  358MOL0     C48221   6.670   7.475   5.281 -0.6415  0.5692  0.1087
  358MOL0     C48222   6.699   7.529   5.400  0.3691 -1.4335 -0.5556
  358MOL0     C48223   6.821   7.605   5.418 -0.5069 -0.3453 -0.1122
  358MOL0     C48224   6.594   7.531   5.496  0.2429 -0.0578  0.1582
  358MOL0     C48225   6.592   7.604   5.633 -0.0774  1.2367 -0.2713
  358MOL0     O48226   6.532   7.530   5.740  0.2742 -0.2282 -0.2755
  358MOL0     C48227   6.482   7.601   5.843  0.5272 -0.6433 -0.9861
  358MOL0     C48228   6.497   7.536   5.969  0.6240  0.3504 -0.5985
  358MOL0     C48229   6.432   7.584   6.077 -0.1115 -0.0355 -0.7598
  358MOL0     C48230   6.345   7.698   6.075  0.5161 -0.3246 -0.1267
  358MOL0     O48231   6.261   7.742   6.175  0.5192  0.7583  0.1443
  358MOL0     C48232   6.267   7.674   6.300 -0.0651 -0.9398 -1.2137
  358MOL0     C48233   6.198   7.748   6.416  0.1449 -0.4242  0.2375
  358MOL0     C48234   6.280   7.857   6.478  0.2871  0.2692  0.2198
  358MOL0     C48235   6.360   7.812   6.602  0.3997 -1.1913 -0.0906
  358MOL0     C48236   6.486   7.888   6.633 -0.0705 -0.4152  0.6250
  358MOL0     C48237   6.587   7.906   6.521 -0.0374 -0.6020  0.0209
  358MOL0     C48238   6.683   7.780   6.499 -0.0220 -0.4296 -0.1229
  358MOL0     C48239   6.777   7.797   6.386 -0.5078  0.7221  0.9410
  358MOL0    Cl48240   6.688   7.827   6.233  0.1094  0.6907  0.5421
  358MOL0     C48241   6.334   7.762   5.952 -0.2531  0.0236  0.1715
  358MOL0     C48242   6.404   7.714   5.835  0.4890  1.1256 -0.2556
  358MOL0     O48243   6.640   7.718   5.639 -0.1913 -0.0163 -0.2754
  358MOL0     C48244   6.478   7.462   5.466  0.5371  0.9393 -0.1504
  358MOL0     C48245   6.453   7.400   5.340  0.6799 -1.2970 -0.0413
  358MOL0     N48246   6.776   7.032   4.601 -0.1666  1.1614 -0.3930
  358MOL0     N48247   6.875   7.048   4.531  0.4781 -0.4939  0.1719
  358MOL0     C48248   7.849   6.357   4.885  0.2419 -0.3143 -0.9551
  358MOL0     C48249   7.876   6.240   4.957  0.3505  0.0447  0.4841
  358MOL0     C48250   7.965   5.781   4.948 -0.4113 -0.1406 -0.0980
  358MOL0     C48251   8.032   5.794   5.071  0.1316  0.5348  0.1334
  358MOL0     C48252   8.084   5.685   5.134 -0.5968  0.2324 -0.3019
  358MOL0     C48253   8.089   5.564   5.067  0.6352  1.4233 -0.3263
  358MOL0     O48254   8.130   5.447   5.131  0.2548 -0.3297 -0.1517
  358MOL0     C48255   8.172   5.447   5.268 -0.2224  0.0887  0.9088
  358MOL0     C48256   8.161   5.308   5.317 -0.0395 -0.2319  0.5436
  358MOL0     C48257   8.019   5.245   5.309 -0.3962  0.9825  1.0100
  358MOL0     C48258   7.982   5.143   5.419 -0.3997  0.2493 -0.2480
  358MOL0     C48259   8.068   5.025   5.411 -1.1937 -0.2534  0.9630
  358MOL0     C48260   8.134   4.926   5.396 -0.7662  0.3172  0.0941
  358MOL0     C48261   8.045   5.551   4.935  0.9258  0.1867  0.7490
  358MOL0     C48262   7.963   5.654   4.881 -0.5195 -0.4693 -0.3943
  358MOL0     H48263   8.023   6.091   4.686 -0.1936 -0.4323  1.2236
  358MOL0     H48264   7.953   6.284   4.568 -1.7353  1.1959 -1.0745
  358MOL0     H48265   7.910   6.506   4.518  1.2658 -3.2719  2.2967
  358MOL0     H48266   7.740   6.465   4.528  2.4607 -2.6983  0.6102
  358MOL0     H48267   7.810   6.735   4.637 -1.0366 -3.3791  3.0808
  358MOL0     H48268   7.789   6.713   4.464 -0.9457  0.5223  0.5155
  358MOL0     H48269   7.553   6.614   4.503  0.5499  0.5376 -0.9150
  358MOL0     H48270   7.579   6.655   4.675  0.3558 -3.1245 -2.1972
  358MOL0     H48271   7.599   6.881   4.622  1.6423  0.3113 -2.5537
  358MOL0     H48272   7.585   6.852   4.439  2.4798  0.2532 -0.8294
  358MOL0     H48273   7.371   6.767   4.457 -0.0713 -0.2190  0.7908
  358MOL0     H48274   7.365   6.777   4.634  0.0787  1.3510  0.7176
  358MOL0     H48275   7.367   7.013   4.626  1.2146  1.7423 -0.9344
  358MOL0     H48276   7.388   7.016   4.455  1.3323 -1.0450  1.0030
  358MOL0     H48277   7.158   6.955   4.407 -3.1801 -0.2133  1.4467
  358MOL0     H48278   7.137   6.870   4.555  1.8857 -1.6333  0.1789
  358MOL0     H48279   7.139   7.160   4.482 -1.2158  1.6003  0.4740
  358MOL0     H48280   7.167   7.131   4.655 -1.6210  3.7369 -0.9047
  358MOL0     H48281   7.004   7.098   4.824 -0.6751 -3.1496  0.7833
  358MOL0     H48282   6.646   7.001   4.850  1.6801 -2.9428 -0.0546
  358MOL0     H48283   6.781   7.097   4.942  4.4106 -5.0260 -2.4369
  358MOL0     H48284   6.615   7.219   4.712  1.5839  0.3444 -0.6871
  358MOL0     H48285   6.733   7.298   4.809 -0.6637  0.7170 -3.2946
  358MOL0     H48286   6.489   7.152   4.923 -1.0377 -0.7787  0.2550
  358MOL0     H48287   6.493   7.340   4.901 -0.5450  0.2628  3.1529
  358MOL0     H48288   6.715   7.345   5.029 -0.5094  1.5630 -0.0949
  358MOL0     H48289   6.650   7.195   5.098  0.8387 -1.5224 -3.6817
  358MOL0     H48290   6.750   7.468   5.208 -1.1547  0.8217 -0.4973
  358MOL0     H48291   6.876   7.533   5.479 -1.0568 -0.4297  0.2867
  358MOL0     H48292   6.876   7.613   5.324 -0.5978  1.6903 -0.0403
  358MOL0     H48293   6.831   7.702   5.469 -1.1764 -1.4330  2.2065
  358MOL0     H48294   6.548   7.442   5.992  1.5099  0.4614 -1.9696
  358MOL0     H48295   6.435   7.531   6.171 -1.4832 -0.4069 -0.9025
  358MOL0     H48296   6.206   7.584   6.286 -2.0900  0.4757 -1.9866
  358MOL0     H48297   6.365   7.647   6.341 -0.5421 -0.5404  0.2550
  358MOL0     H48298   6.098   7.780   6.385  0.8145  1.2787 -0.2958
  358MOL0     H48299   6.190   7.675   6.497  3.7801 -0.9340  0.2867
  358MOL0     H48300   6.212   7.933   6.518 -1.1687  0.2155 -1.9807
  358MOL0     H48301   6.348   7.896   6.402  3.5075 -1.1306  2.1569
  358MOL0     H48302   6.302   7.815   6.695  0.2469 -1.7802 -0.1704
  358MOL0     H48303   6.388   7.709   6.581  2.6999 -1.0848  1.8708
  358MOL0     H48304   6.548   7.824   6.696  1.0761 -0.5090 -0.5436
  358MOL0     H48305   6.463   7.980   6.687  2.7601 -0.9409  2.9844
  358MOL0     H48306   6.534   7.923   6.427 -1.2426 -1.8382  0.4315
  358MOL0     H48307   6.650   7.990   6.549  0.8165 -1.3520  0.3767
  358MOL0     H48308   6.611   7.699   6.478 -1.5600  0.6968  0.6157
  358MOL0     H48309   6.739   7.758   6.590  2.0581  1.5926 -0.8352
  358MOL0     H48310   6.827   7.701   6.370 -4.2362 -1.2802  0.0989
  358MOL0     H48311   6.856   7.869   6.406  0.9980  0.4159 -3.0142
  358MOL0     H48312   6.267   7.847   5.944 -2.6957 -1.5534  2.1585
  358MOL0     H48313   6.371   7.760   5.742 -1.5877 -0.8351 -0.5706
  358MOL0     H48314   6.408   7.437   5.544  0.2170 -1.0370 -0.9898
  358MOL0     H48315   6.363   7.342   5.323  1.1808 -1.7937 -1.1046
  358MOL0     H48316   7.797   6.434   4.941 -2.9190 -1.0349 -2.6624
  358MOL0     H48317   7.869   6.238   5.065 -0.9197  1.6263  0.4614
  358MOL0     H48318   8.031   5.881   5.135  1.2270 -1.6800  3.4064
  358MOL0     H48319   8.112   5.682   5.238 -1.1227  0.3039 -0.1569
  358MOL0     H48320   8.274   5.487   5.269 -0.2408  0.2447 -0.6566
  358MOL0     H48321   8.102   5.500   5.332 -2.0377 -1.4591  0.2971
  358MOL0     H48322   8.184   5.304   5.424 -3.1853 -2.0063  1.2901
  358MOL0     H48323   8.228   5.238   5.266 -0.6597 -1.9436  1.9461
  358MOL0     H48324   8.026   5.184   5.219 -1.8509 -1.7744  2.6167
  358MOL0     H48325   7.937   5.317   5.313 -0.6105  0.7148  1.6361
  358MOL0     H48326   7.880   5.108   5.401 -0.3602 -0.0203  0.0556
  358MOL0     H48327   7.988   5.195   5.515  2.3863 -0.8862  0.2726
  358MOL0     H48328   8.200   4.843   5.383  1.9621  2.1289  1.4763
  358MOL0     H48329   8.060   5.459   4.880  0.3592  0.3659  0.2899
  358MOL0     H48330   7.910   5.650   4.787  0.2911  1.0232 -0.9515
  359MOL0     O48331   7.340  10.578   9.304 -0.4653 -0.2199  0.3817
  359MOL0     C48332   7.274  10.671   9.341 -0.5894  0.9337  0.0210
  359MOL0     O48333   7.140  10.681   9.316  0.2607 -0.3683 -0.5003
  359MOL0     C48334   7.072  10.561   9.281 -0.2349 -0.6701 -1.1945
  359MOL0     C48335   6.996  10.483   9.367  0.4244  0.3147 -0.0585
  359MOL0     C48336   6.939  10.359   9.319  0.0946 -0.6780 -0.2455
  359MOL0     C48337   6.970  10.314   9.194 -0.8185 -1.2229  0.4512
  359MOL0     O48338   6.911  10.192   9.165  0.3757 -0.3061  0.1351
  359MOL0     C48339   6.981  10.083   9.199  0.2651  0.1900  0.2813
  359MOL0     C48340   7.094  10.057   9.100  1.0804  0.6794  0.5576
  359MOL0     C48341   7.045  10.048   8.954 -0.2839  0.2344 -0.0611
  359MOL0     C48342   7.159  10.073   8.858  0.1683  0.4523  0.0298
  359MOL0     C48343   7.263   9.951   8.862 -0.0608  0.7643  0.9383
  359MOL0     C48344   7.357   9.960   8.738 -0.8918  0.3169 -0.4129
  359MOL0     C48345   7.293   9.969   8.600 -0.8060 -0.4956  0.2097
  359MOL0     C48346   7.406   9.962   8.498  1.3270  0.4518  0.3758
  359MOL0     N48347   7.341   9.953   8.365 -0.1683 -0.5482 -0.4040
  359MOL0     C48348   7.239  10.041   8.315 -0.2318  0.2918 -0.1565
  359MOL0     C48349   7.206  10.002   8.189  0.6878 -0.0038  0.2590
  359MOL0     C48350   7.110  10.069   8.092  0.1182 -0.4685  0.2954
  359MOL0     C48351   7.066   9.991   7.977  0.0426  0.3755  0.9219
  359MOL0     C48352   6.971   9.879   8.016 -0.2151  0.1439  0.7660
  359MOL0     C48353   6.876   9.896   8.141  0.2193  0.0293  0.6022
  359MOL0     O48354   6.789  10.002   8.107  0.1593  0.0964  0.1188
  359MOL0     C48355   6.694   9.983   8.016  0.4917 -0.5009 -0.4870
  359MOL0     C48356   6.669  10.061   7.903  0.0793  0.0759 -0.3010
  359MOL0     C48357   6.574  10.036   7.802  1.2503 -0.0366 -1.4605
  359MOL0     C48358   6.560  10.129   7.688  0.0118  0.6747  0.6470
  359MOL0     C48359   6.500   9.913   7.806 -0.2622 -0.3039 -0.2585
  359MOL0     C48360   6.413   9.870   7.702  0.1738  0.9203 -0.2172
  359MOL0     O48361   6.321   9.964   7.648  0.3715  1.6497  0.2633
  359MOL0     C48362   6.302   9.966   7.510  0.9679  0.5549 -0.3560
  359MOL0     C48363   6.180  10.023   7.462  0.8663 -0.9662  0.2384
  359MOL0     C48364   6.151  10.024   7.318 -0.1410  0.0144  0.1687
  359MOL0     C48365   6.252   9.983   7.227  0.0367  0.3568 -0.4197
  359MOL0     O48366   6.228  10.001   7.097 -0.3665 -0.9893 -0.3503
  359MOL0     C48367   6.321   9.946   7.000 -0.1282 -0.0485  0.2540
  359MOL0     C48368   6.275  10.007   6.866  0.0810  0.5747 -0.6482
  359MOL0     C48369   6.401  10.021   6.787 -0.5908 -1.0274 -0.1073
  359MOL0     C48370   6.454   9.886   6.729 -0.0437 -0.1327  0.2996
  359MOL0     C48371   6.533   9.917   6.602 -0.6997  0.0514 -0.4520
  359MOL0     C48372   6.602   9.802   6.519 -0.8287  0.7024  0.0431
  359MOL0     C48373   6.717   9.739   6.597 -0.8465  1.1277  0.3869
  359MOL0     C48374   6.841   9.791   6.521 -0.4316  0.0400 -0.7219
  359MOL0    Cl48375   6.880   9.949   6.566 -0.2299  0.4300  0.0803
  359MOL0     C48376   6.375   9.930   7.280 -0.0799 -0.0044  0.4728
  359MOL0     C48377   6.398   9.926   7.413  0.0692 -0.6451 -0.2254
  359MOL0     O48378   6.427   9.755   7.664 -0.4450  0.0420 -0.7311
  359MOL0     C48379   6.528   9.832   7.910 -0.4915  0.0593  0.0320
  359MOL0     C48380   6.623   9.865   8.011  0.0697 -0.1046  0.4942
  359MOL0     N48381   7.276   9.882   8.157 -0.0697  0.1448  0.2321
  359MOL0     N48382   7.357   9.868   8.264  0.8510  0.2051 -0.3969
  359MOL0     C48383   7.052  10.390   9.112  0.3321  0.9352  0.8412
  359MOL0     C48384   7.100  10.512   9.158 -0.4640  0.4648  0.1565
  359MOL0     C48385   7.337  10.787   9.406  0.4151  0.1395  1.1296
  359MOL0     C48386   7.272  10.906   9.432  0.0496  0.2855 -0.2299
  359MOL0     C48387   7.330  11.006   9.507 -0.1411 -0.8567 -0.4276
  359MOL0     C48388   7.466  11.004   9.549 -0.5237 -0.0732  0.8412
  359MOL0     O48389   7.500  11.115   9.614  0.2526 -0.5607 -0.1844
  359MOL0     C48390   7.628  11.118   9.680  0.7879 -0.4949 -0.3211
  359MOL0     C48391   7.700  11.243   9.639 -1.1694  0.5359  0.8919
  359MOL0     C48392   7.827  11.260   9.709 -0.5212  0.0540 -0.5691
  359MOL0     C48393   7.890  11.399   9.682  1.1883 -0.7376  0.3128
  359MOL0     C48394   8.010  11.421   9.772 -0.0516 -0.8099 -0.2269
  359MOL0     C48395   8.109  11.449   9.843  0.1036  0.6394  0.2311
  359MOL0     C48396   7.538  10.895   9.501  0.1255  0.3437 -0.6668
  359MOL0     C48397   7.475  10.790   9.438  0.0043  0.1937  0.3701
  359MOL0     H48398   6.974  10.508   9.470 -0.5759 -1.7610  0.2748
  359MOL0     H48399   6.880  10.293   9.382 -0.1609 -1.7881 -1.6049
  359MOL0     H48400   7.032  10.100   9.294  1.0115  0.4919 -0.1646
  359MOL0     H48401   6.910  10.001   9.211  0.2905  0.5480  4.0840
  359MOL0     H48402   7.169  10.134   9.120  1.4413  0.6649 -0.6676
  359MOL0     H48403   7.146   9.961   9.112  3.2707  1.5853 -0.9352
  359MOL0     H48404   7.002   9.951   8.927  0.5547 -0.2651  0.3575
  359MOL0     H48405   6.966  10.122   8.935 -0.9194 -0.5639 -0.6026
  359MOL0     H48406   7.120  10.088   8.757  3.6272  4.2690 -1.0502
  359MOL0     H48407   7.204  10.166   8.895  0.7828 -0.3491  1.3980
  359MOL0     H48408   7.328   9.962   8.950  0.5356  0.3991  0.5485
  359MOL0     H48409   7.213   9.854   8.856 -0.5679  1.1191 -2.3153
  359MOL0     H48410   7.423  10.046   8.752 -0.5840  0.4762 -2.5556
  359MOL0     H48411   7.417   9.868   8.733 -1.7994 -0.1976 -3.1223
  359MOL0     H48412   7.233   9.880   8.577 -2.8969  1.1794 -1.2110
  359MOL0     H48413   7.226  10.054   8.582  0.6426  0.1331 -2.6858
  359MOL0     H48414   7.469   9.873   8.507  0.5586 -0.0729  0.7347
  359MOL0     H48415   7.469  10.052   8.494  0.1221  1.3130  0.3069
  359MOL0     H48416   7.211  10.128   8.374  3.4852  0.8476  1.0786
  359MOL0     H48417   7.030  10.124   8.142 -0.9196 -0.3157 -1.4695
  359MOL0     H48418   7.171  10.143   8.039 -0.5956 -0.8592 -1.1362
  359MOL0     H48419   7.157   9.960   7.925 -0.7062 -0.3561 -0.0032
  359MOL0     H48420   7.019  10.061   7.907 -2.5136 -4.1311 -2.4778
  359MOL0     H48421   7.030   9.788   8.027  1.7980  1.5873  3.2648
  359MOL0     H48422   6.902   9.858   7.933 -0.2093 -0.3600  0.8862
  359MOL0     H48423   6.933   9.933   8.227  1.8121  0.2910 -0.5159
  359MOL0     H48424   6.825   9.807   8.180 -1.2790  1.4336  2.0073
  359MOL0     H48425   6.729  10.151   7.888  0.0385  0.1001 -0.3195
  359MOL0     H48426   6.623  10.218   7.696 -1.3653  1.6655  0.7094
  359MOL0     H48427   6.600  10.076   7.601 -1.1371 -0.4822  0.7830
  359MOL0     H48428   6.457  10.158   7.665  0.3061 -1.3524 -4.6216
  359MOL0     H48429   6.103  10.058   7.529 -0.2135  0.9232 -1.8413
  359MOL0     H48430   6.057  10.065   7.283  0.1249 -0.3794 -1.0610
  359MOL0     H48431   6.425   9.974   7.021  0.6023  0.0691 -2.9298
  359MOL0     H48432   6.330   9.837   6.995  0.3483  0.0430 -2.2219
  359MOL0     H48433   6.205   9.940   6.816 -1.2905  2.7128 -1.7246
  359MOL0     H48434   6.233  10.107   6.874 -0.0723  0.6917 -2.5357
  359MOL0     H48435   6.475  10.073   6.849 -1.1367 -1.9920  1.4105
  359MOL0     H48436   6.375  10.085   6.702  0.6059  0.2646  0.4520
  359MOL0     H48437   6.517   9.848   6.809  0.0243 -2.1102 -0.6419
  359MOL0     H48438   6.371   9.818   6.707 -0.7343  0.8609 -0.2682
  359MOL0     H48439   6.619   9.982   6.619 -2.5981  2.5557  0.2640
  359MOL0     H48440   6.469   9.969   6.529  0.4185  1.5456 -0.4218
  359MOL0     H48441   6.533   9.718   6.504 -0.1047  0.3167 -1.2783
  359MOL0     H48442   6.626   9.850   6.424 -0.7036  4.6471  1.8863
  359MOL0     H48443   6.717   9.631   6.577 -2.2033  0.8666  1.6472
  359MOL0     H48444   6.701   9.751   6.704 -0.9183 -0.1922  0.5484
  359MOL0     H48445   6.838   9.784   6.412 -0.1687 -0.1182 -0.7190
  359MOL0     H48446   6.927   9.733   6.555 -1.1478 -0.7113 -0.1617
  359MOL0     H48447   6.458   9.898   7.218  1.2847  0.8683  1.7489
  359MOL0     H48448   6.489   9.884   7.455 -0.6657 -0.3973  1.7256
  359MOL0     H48449   6.479   9.735   7.921  0.3094 -0.0740  6.7863
  359MOL0     H48450   6.627   9.788   8.088  1.1488 -0.3088  0.2475
  359MOL0     H48451   7.076  10.361   9.010  0.9883 -0.8274  1.4554
  359MOL0     H48452   7.163  10.575   9.096 -0.5129  0.0516 -0.3225
  359MOL0     H48453   7.168  10.914   9.402 -0.7392 -2.7329  1.3207
  359MOL0     H48454   7.264  11.092   9.520  0.4299 -0.4218 -0.3734
  359MOL0     H48455   7.591  11.116   9.783 -2.2829 -2.4490 -1.2994
  359MOL0     H48456   7.692  11.030   9.666  3.8050  1.3720  0.7994
  359MOL0     H48457   7.632  11.326   9.662  0.8368  1.8644  2.4070
  359MOL0     H48458   7.714  11.246   9.530 -4.4541 -1.2648  0.3032
  359MOL0     H48459   7.895  11.182   9.673 -1.1671 -1.7264  1.8217
  359MOL0     H48460   7.811  11.254   9.817 -1.6496  0.5790 -0.6954
  359MOL0     H48461   7.813  11.477   9.679  3.2027  1.3149 -2.0080
  359MOL0     H48462   7.917  11.404   9.576 -0.8169  1.3815 -0.1956
  359MOL0     H48463   8.198  11.471   9.899  0.9071  1.2396 -1.2019
  359MOL0     H48464   7.640  10.876   9.532  0.0415  1.3935  0.3379
  359MOL0     H48465   7.538  10.711   9.398 -0.6766 -0.2228  0.0887
  360MOL0     O48466   1.309   7.075   9.639  0.4449  0.1473 -0.0983
  360MOL0     C48467   1.189   7.075   9.624  0.5244 -0.2476 -0.1874
  360MOL0     O48468   1.105   6.971   9.648 -0.4274  0.7264 -0.0417
  360MOL0     C48469   1.136   6.853   9.712 -0.7208  0.0931 -0.0799
  360MOL0     C48470   1.061   6.821   9.821 -0.8036  0.0945 -0.0672
  360MOL0     C48471   1.098   6.718   9.904 -0.1863  0.2006  0.0102
  360MOL0     C48472   1.212   6.647   9.876 -0.8514 -0.8456  0.1395
  360MOL0     O48473   1.252   6.554   9.975  0.0394 -0.0725  0.4159
  360MOL0     C48474   1.277   6.614  10.105 -0.3872 -0.3017 -0.4496
  360MOL0     C48475   1.374   6.516  10.186  0.1809  1.0063  0.7355
  360MOL0     C48476   1.522   6.539  10.158 -0.0354 -0.1079 -0.1230
  360MOL0     C48477   1.581   6.491  10.027  0.8628  0.0918  0.2206
  360MOL0     C48478   1.705   6.558   9.984 -0.2095 -0.3389 -1.3338
  360MOL0     C48479   1.784   6.461   9.885  1.2976 -0.0174 -0.9253
  360MOL0     C48480   1.906   6.544   9.836 -0.3648 -0.8749  0.3142
  360MOL0     C48481   1.860   6.645   9.721 -0.6162 -1.4421  0.3458
  360MOL0     N48482   1.822   6.567   9.603 -0.0035 -0.7476  0.5609
  360MOL0     C48483   1.910   6.510   9.517 -0.4444 -0.2386 -0.4298
  360MOL0     C48484   1.837   6.458   9.421  0.4064  0.4061 -0.0322
  360MOL0     C48485   1.898   6.386   9.297 -0.3161 -0.3986  0.3104
  360MOL0     C48486   1.845   6.243   9.287 -0.5780  0.8934  0.1546
  360MOL0     C48487   1.891   6.183   9.156  0.3043 -0.7604 -0.3433
  360MOL0     C48488   1.797   6.072   9.105 -0.3446 -0.1033  0.1485
  360MOL0     O48489   1.858   6.037   8.978 -0.6523  0.8096  0.1970
  360MOL0     C48490   1.809   5.921   8.913 -0.0195 -0.1010  0.0414
  360MOL0     C48491   1.850   5.888   8.782  1.0658  0.3696  0.0746
  360MOL0     C48492   1.793   5.788   8.708 -0.6803 -1.2374  0.2063
  360MOL0     C48493   1.834   5.780   8.564  0.5143  0.3144 -0.3279
  360MOL0     C48494   1.698   5.697   8.765 -0.4317 -0.5276 -1.0447
  360MOL0     C48495   1.634   5.579   8.700  1.2180 -1.3867  0.2530
  360MOL0     O48496   1.721   5.484   8.648 -0.0211 -0.1087 -0.7294
  360MOL0     C48497   1.675   5.393   8.549  0.4032  0.0669 -0.4385
  360MOL0     C48498   1.722   5.412   8.414  0.0953 -0.0706 -0.4567
  360MOL0     C48499   1.682   5.317   8.315  0.2476  1.0904 -0.4806
  360MOL0     C48500   1.589   5.219   8.354 -0.4286  0.6230  1.0932
  360MOL0     O48501   1.559   5.129   8.252  0.1385 -0.3449  0.1074
  360MOL0     C48502   1.422   5.125   8.205 -1.0901  0.7847  0.1220
  360MOL0     C48503   1.412   5.073   8.072 -0.5589 -0.8875  0.0464
  360MOL0     C48504   1.276   5.061   8.013 -0.7209 -0.3823  0.0742
  360MOL0     C48505   1.271   4.971   7.892 -0.6480 -0.2716  0.4804
  360MOL0     C48506   1.120   4.974   7.843 -0.4321 -0.1981  1.1196
  360MOL0     C48507   1.108   4.917   7.699 -0.0468  0.2936 -0.9028
  360MOL0     C48508   0.957   4.897   7.658  0.3252 -0.6584  0.8812
  360MOL0     C48509   0.873   5.022   7.693  0.4562  0.1212 -0.2497
  360MOL0    Cl48510   0.968   5.161   7.616  0.0778  0.4494  0.6274
  360MOL0     C48511   1.535   5.207   8.486 -1.0802 -0.3788  0.1117
  360MOL0     C48512   1.572   5.303   8.581  0.1170 -0.8829 -0.3137
  360MOL0     O48513   1.509   5.576   8.705 -0.3335 -0.5788 -0.0626
  360MOL0     C48514   1.663   5.722   8.896  0.2205  0.0346  0.8562
  360MOL0     C48515   1.710   5.832   8.966  0.5485  0.3535 -0.6556
  360MOL0     N48516   1.703   6.470   9.456  0.4874  0.8998  0.0014
  360MOL0     N48517   1.695   6.541   9.568  0.0131 -0.1328 -0.5012
  360MOL0     C48518   1.297   6.675   9.775  0.6244  0.4032  0.4244
  360MOL0     C48519   1.253   6.781   9.687 -0.4835  0.9625  0.8509
  360MOL0     C48520   1.114   7.202   9.582  0.7536 -0.9028 -1.4470
  360MOL0     C48521   1.170   7.331   9.605  0.6698 -0.1260 -0.4461
  360MOL0     C48522   1.107   7.438   9.533  0.6632 -0.7065  0.7949
  360MOL0     C48523   0.990   7.429   9.461  0.4359 -0.7432 -0.1299
  360MOL0     O48524   0.942   7.554   9.409 -0.0376  0.5465  0.6084
  360MOL0     C48525   0.798   7.560   9.377 -0.0185  0.5140 -0.4553
  360MOL0     C48526   0.753   7.667   9.266  0.0709 -0.3229 -0.1049
  360MOL0     C48527   0.805   7.814   9.301 -0.4935 -0.3315  0.5399
  360MOL0     C48528   0.780   7.910   9.180 -0.3969 -0.0737 -0.2284
  360MOL0     C48529   0.874   7.874   9.072 -0.0757  0.1928  0.0007
  360MOL0     C48530   0.953   7.858   8.981  0.7676  0.8238 -0.6200
  360MOL0     C48531   0.925   7.303   9.455 -1.0323  0.5971  0.2533
  360MOL0     C48532   0.987   7.194   9.523  0.2351  0.5018 -0.1340
  360MOL0     H48533   0.980   6.880   9.863  0.0818  0.4684  1.1822
  360MOL0     H48534   1.031   6.697   9.987  1.4306 -1.8431  0.8806
  360MOL0     H48535   1.315   6.716  10.098  2.2760 -1.1349  0.7871
  360MOL0     H48536   1.191   6.627  10.171 -1.1492  2.2576 -1.7942
  360MOL0     H48537   1.358   6.537  10.293  0.5195  0.2917  0.9328
  360MOL0     H48538   1.351   6.411  10.169  1.1645  1.0523 -1.1610
  360MOL0     H48539   1.527   6.647  10.173  0.4857  0.2207 -2.3835
  360MOL0     H48540   1.577   6.492  10.241  1.4425  2.0224  0.1988
  360MOL0     H48541   1.599   6.385  10.045  1.6159  0.3731  1.1564
  360MOL0     H48542   1.502   6.505   9.952 -0.9077 -1.0136  1.7810
  360MOL0     H48543   1.682   6.652   9.933  1.3363  2.1169  2.1171
  360MOL0     H48544   1.766   6.572  10.073 -0.2553 -1.9654 -1.0107
  360MOL0     H48545   1.819   6.366   9.927  0.1764 -1.9680 -4.0119
  360MOL0     H48546   1.711   6.425   9.811  1.3062  0.2526 -1.0660
  360MOL0     H48547   1.956   6.593   9.921 -1.6391 -0.9653  1.1527
  360MOL0     H48548   1.975   6.482   9.779 -0.8843  0.9338 -2.4716
  360MOL0     H48549   1.939   6.717   9.696 -2.0734  0.3783  0.7858
  360MOL0     H48550   1.775   6.708   9.748 -0.5551 -0.6436 -1.2445
  360MOL0     H48551   2.018   6.503   9.519 -0.1757  2.8065  0.6968
  360MOL0     H48552   1.870   6.441   9.207 -1.8385  0.8643  1.4894
  360MOL0     H48553   2.007   6.381   9.300 -0.3117 -1.8657 -1.0328
  360MOL0     H48554   1.737   6.227   9.293 -0.2760 -1.4769  0.2438
  360MOL0     H48555   1.877   6.176   9.367  0.0265 -0.2555 -1.0193
  360MOL0     H48556   1.990   6.138   9.170 -0.6549 -3.2269 -0.9735
  360MOL0     H48557   1.894   6.254   9.072  2.5873  0.0775  0.3694
  360MOL0     H48558   1.694   6.107   9.106  0.4036  2.7773  4.3790
  360MOL0     H48559   1.801   5.984   9.171 -1.0539  0.9743  1.6920
  360MOL0     H48560   1.917   5.961   8.738  0.7983  0.7907  0.3595
  360MOL0     H48561   1.748   5.750   8.504  0.7107  2.0254 -1.5291
  360MOL0     H48562   1.874   5.878   8.535  0.4092  0.2920 -0.5463
  360MOL0     H48563   1.912   5.707   8.542  0.0202  0.0850 -1.3981
  360MOL0     H48564   1.777   5.497   8.375 -3.1652  3.0167  1.0134
  360MOL0     H48565   1.708   5.307   8.210 -1.6963  1.7585 -1.0706
  360MOL0     H48566   1.357   5.061   8.266 -0.2536  0.6712  0.9048
  360MOL0     H48567   1.375   5.224   8.208 -1.2776  0.7514 -1.0940
  360MOL0     H48568   1.462   5.148   8.010 -2.4288  2.8075  2.6609
  360MOL0     H48569   1.466   4.978   8.068  3.8424  1.2837  1.3338
  360MOL0     H48570   1.245   5.164   7.992  1.9312 -0.0073 -2.5933
  360MOL0     H48571   1.206   5.031   8.092 -1.5426 -0.2374 -0.5733
  360MOL0     H48572   1.328   5.023   7.813 -1.5848 -2.9579 -2.1541
  360MOL0     H48573   1.320   4.874   7.904  1.4680  0.8025  1.0682
  360MOL0     H48574   1.091   5.078   7.862  3.8796  2.0400 -2.5552
  360MOL0     H48575   1.072   4.905   7.913 -0.1472  0.9701  2.5394
  360MOL0     H48576   1.162   4.978   7.626 -1.3689 -0.9523 -3.0405
  360MOL0     H48577   1.159   4.820   7.687 -0.6304 -0.3642  1.4549
  360MOL0     H48578   0.912   4.813   7.713  2.8186 -2.1540  0.7670
  360MOL0     H48579   0.947   4.878   7.551  0.5124  0.1172  0.7260
  360MOL0     H48580   0.872   5.033   7.802  1.4114  1.8538 -0.3904
  360MOL0     H48581   0.771   5.004   7.658 -0.3021  0.2422  1.7736
  360MOL0     H48582   1.471   5.125   8.516 -0.8310 -0.3095  0.8599
  360MOL0     H48583   1.529   5.299   8.681 -2.3572  1.2247 -1.2028
  360MOL0     H48584   1.582   5.662   8.937  1.5895 -2.6443 -0.1325
  360MOL0     H48585   1.646   5.842   9.054  0.1810  0.8268 -0.9737
  360MOL0     H48586   1.389   6.619   9.763  2.0802  2.8143 -0.2478
  360MOL0     H48587   1.317   6.809   9.604  0.9239 -0.6646  1.3360
  360MOL0     H48588   1.261   7.352   9.658  1.7173 -2.4571 -1.1638
  360MOL0     H48589   1.156   7.535   9.533  2.3611 -1.5250  0.4211
  360MOL0     H48590   0.767   7.465   9.332 -2.4382  0.7127  0.6416
  360MOL0     H48591   0.729   7.558   9.461  2.2136 -1.8040  1.4729
  360MOL0     H48592   0.645   7.665   9.249  0.2596 -3.4959 -1.8968
  360MOL0     H48593   0.785   7.641   9.164 -2.9480  0.7341 -1.4322
  360MOL0     H48594   0.912   7.796   9.320 -0.4729 -3.1041 -1.4410
  360MOL0     H48595   0.756   7.859   9.387  0.6249 -1.0827  1.6159
  360MOL0     H48596   0.815   8.010   9.207 -1.6576 -0.5404  3.9337
  360MOL0     H48597   0.673   7.919   9.159 -0.6660  0.2156  1.1268
  360MOL0     H48598   1.011   7.835   8.894  2.7359  3.1820 -0.0446
  360MOL0     H48599   0.831   7.284   9.405  0.4126 -1.2295 -1.9729
  360MOL0     H48600   0.934   7.102   9.506 -0.2926  0.8436 -0.3564
  361MOL0     O48601   9.044   3.509   4.742 -0.1364  0.1941 -0.3730
  361MOL0     C48602   8.924   3.501   4.753 -0.7609 -0.0525 -1.3064
  361MOL0     O48603   8.831   3.600   4.748  0.4220 -0.1072 -0.1965
  361MOL0     C48604   8.877   3.731   4.755  0.3764 -0.8602  0.4289
  361MOL0     C48605   8.972   3.772   4.856 -0.0083 -0.0435 -0.2474
  361MOL0     C48606   9.006   3.909   4.852 -0.5903  0.6591  0.4878
  361MOL0     C48607   8.951   4.005   4.761 -0.1555  0.7338 -0.9275
  361MOL0     O48608   8.974   4.145   4.758 -0.6020  0.6941 -0.3908
  361MOL0     C48609   9.033   4.189   4.880  0.4353 -0.5086 -0.2451
  361MOL0     C48610   8.991   4.338   4.920 -0.2622  0.2928  0.1886
  361MOL0     C48611   9.011   4.432   4.806 -0.2559 -0.2763  1.7170
  361MOL0     C48612   8.993   4.582   4.847 -0.3323 -0.2317  0.2950
  361MOL0     C48613   9.063   4.682   4.750 -0.6864 -0.1421  1.2638
  361MOL0     C48614   9.215   4.705   4.749 -0.8964  0.4851  0.6168
  361MOL0     C48615   9.285   4.713   4.885 -0.2979 -0.7835 -0.1578
  361MOL0     C48616   9.438   4.741   4.865  0.5800  0.4952  0.0976
  361MOL0     N48617   9.509   4.749   4.999  0.0405 -1.2090  0.4448
  361MOL0     C48618   9.464   4.702   5.121  0.7179 -0.0711 -0.3476
  361MOL0     C48619   9.527   4.784   5.208  0.4561  0.3366  0.4148
  361MOL0     C48620   9.512   4.787   5.360 -0.3741 -0.4971  0.8009
  361MOL0     C48621   9.644   4.833   5.428  0.8575  0.8752  0.0079
  361MOL0     C48622   9.771   4.747   5.386  0.0569  0.1928 -0.2480
  361MOL0     C48623   9.890   4.765   5.477  0.2200  0.2210  0.0164
  361MOL0     O48624   9.916   4.901   5.509  0.9099 -0.9110  0.1664
  361MOL0     C48625   9.879   4.969   5.625 -1.3044 -0.0405 -1.3061
  361MOL0     C48626   9.795   4.915   5.724 -0.1395  0.6604 -0.1883
  361MOL0     C48627   9.762   4.994   5.834 -1.1911 -0.3943 -0.4118
  361MOL0     C48628   9.698   4.911   5.943  0.0256 -0.1205  0.7902
  361MOL0     C48629   9.801   5.129   5.848 -0.2509  0.3561 -0.7101
  361MOL0     C48630   9.766   5.212   5.975  0.0270  0.9720  0.5644
  361MOL0     O48631   9.813   5.341   5.966  0.6318  0.6843  0.2739
  361MOL0     C48632   9.759   5.438   6.052  0.4113  0.8110  0.4416
  361MOL0     C48633   9.757   5.432   6.189  0.3621 -0.2658  0.0434
  361MOL0     C48634   9.731   5.540   6.272 -0.2656 -0.4067  0.7962
  361MOL0     C48635   9.668   5.655   6.206 -0.4917  0.0193 -0.0899
  361MOL0     O48636   9.636   5.776   6.280  0.7870  0.4861  0.5741
  361MOL0     C48637   9.610   5.752   6.423 -0.2420  0.2818 -0.1040
  361MOL0     C48638   9.495   5.844   6.474 -0.1137 -0.9274  0.5923
  361MOL0     C48639   9.356   5.773   6.460 -0.5418  0.0457  0.0594
  361MOL0     C48640   9.233   5.857   6.503  0.2141 -0.2353 -0.3295
  361MOL0     C48641   9.098   5.786   6.489 -0.3062 -0.8761  0.7585
  361MOL0     C48642   9.049   5.727   6.624  0.1237 -1.0438  0.7430
  361MOL0     C48643   8.920   5.654   6.612 -0.2960 -0.4883  0.6357
  361MOL0     C48644   8.940   5.522   6.560  1.2303  0.1276 -0.0255
  361MOL0    Cl48645   8.785   5.460   6.480  0.5348  0.0047  0.1868
  361MOL0     C48646   9.650   5.652   6.069  0.1665  0.2843 -0.7389
  361MOL0     C48647   9.691   5.550   5.990 -0.3744  0.7956  0.2028
  361MOL0     O48648   9.693   5.170   6.065  0.5006  0.1878  0.5998
  361MOL0     C48649   9.891   5.177   5.749 -0.3664 -1.3880  0.5150
  361MOL0     C48650   9.930   5.103   5.640  0.3646 -0.2054  0.1044
  361MOL0     N48651   9.613   4.863   5.137  0.5063 -0.3790 -0.2780
  361MOL0     N48652   9.615   4.845   5.019 -0.2040  0.8838  0.3129
  361MOL0     C48653   8.859   3.958   4.673 -0.2680  0.5839  0.1109
  361MOL0     C48654   8.828   3.823   4.664 -0.4564  1.4768  0.2672
  361MOL0     C48655   8.868   3.362   4.753 -1.1933 -0.4594  0.4728
  361MOL0     C48656   8.954   3.251   4.763 -0.2355  0.4058  0.4459
  361MOL0     C48657   8.896   3.124   4.755  0.0925 -0.0567 -0.1268
  361MOL0     C48658   8.757   3.105   4.727  0.3751 -0.7942 -0.9103
  361MOL0     O48659   8.709   2.979   4.725  0.2559  0.5384  0.3519
  361MOL0     C48660   8.583   2.957   4.787 -0.1397 -0.9714 -0.0578
  361MOL0     C48661   8.561   2.808   4.821  0.1862 -0.9741 -0.0851
  361MOL0     C48662   8.488   2.730   4.716 -0.4166  0.1357  0.7698
  361MOL0     C48663   8.522   2.581   4.747  0.6700  0.4101 -0.1770
  361MOL0     C48664   8.452   2.481   4.663 -0.1063  0.1704 -0.5339
  361MOL0     C48665   8.374   2.404   4.604  0.4357  0.1164 -0.0026
  361MOL0     C48666   8.677   3.220   4.703  0.6559  0.0843 -0.4734
  361MOL0     C48667   8.729   3.342   4.730  0.1852  0.6378  0.4965
  361MOL0     H48668   9.030   3.708   4.922  0.3609 -0.2192 -0.7332
  361MOL0     H48669   9.090   3.936   4.916 -1.4799  0.2205  1.8925
  361MOL0     H48670   9.015   4.130   4.971 -0.9834  0.8776  0.4108
  361MOL0     H48671   9.138   4.200   4.851  0.6657  0.6736  0.9528
  361MOL0     H48672   8.885   4.330   4.946 -0.8320 -1.4670 -2.2966
  361MOL0     H48673   9.053   4.371   5.003  1.9129 -0.8864 -0.8846
  361MOL0     H48674   9.110   4.416   4.763 -1.4014 -0.4395 -1.0714
  361MOL0     H48675   8.927   4.412   4.739 -0.7982  2.0616  1.5947
  361MOL0     H48676   8.887   4.608   4.847 -0.3885 -0.3482 -1.1712
  361MOL0     H48677   9.024   4.606   4.949 -0.4830 -1.8800  0.7490
  361MOL0     H48678   9.030   4.648   4.652  0.3692  1.0697  0.4509
  361MOL0     H48679   9.027   4.784   4.767 -0.4928  0.4777 -1.6090
  361MOL0     H48680   9.264   4.620   4.699 -1.5583 -0.1954  1.0954
  361MOL0     H48681   9.228   4.795   4.688 -1.5204  0.8230  0.9691
  361MOL0     H48682   9.231   4.783   4.950 -0.0836 -2.1836  1.6032
  361MOL0     H48683   9.287   4.616   4.935  1.6044 -1.6584 -1.8120
  361MOL0     H48684   9.469   4.831   4.811  2.9483 -0.9879 -1.1832
  361MOL0     H48685   9.485   4.655   4.816 -2.4088 -0.3907 -1.4261
  361MOL0     H48686   9.383   4.636   5.153 -0.2021  0.9754 -0.4639
  361MOL0     H48687   9.430   4.848   5.397  0.2381  0.3010  0.8496
  361MOL0     H48688   9.492   4.683   5.389 -2.3202 -0.0778  1.0980
  361MOL0     H48689   9.619   4.812   5.532  0.8284  1.0794  0.0413
  361MOL0     H48690   9.665   4.939   5.415 -0.5714  1.2602  0.6108
  361MOL0     H48691   9.808   4.776   5.287  1.7978  0.2829  0.4039
  361MOL0     H48692   9.750   4.640   5.382  2.8777 -0.4761  0.4390
  361MOL0     H48693   9.985   4.730   5.438  2.1403  2.4646  2.3244
  361MOL0     H48694   9.863   4.709   5.568  3.1874  0.0401  0.8954
  361MOL0     H48695   9.746   4.820   5.706 -2.1905  1.8040 -0.9893
  361MOL0     H48696   9.678   4.804   5.927  1.2892 -0.6238  2.2854
  361MOL0     H48697   9.769   4.915   6.027 -1.5053  2.1902  2.0854
  361MOL0     H48698   9.606   4.963   5.971 -0.0890 -1.8627  4.3110
  361MOL0     H48699   9.794   5.340   6.233 -0.6651 -0.1987  1.1005
  361MOL0     H48700   9.758   5.540   6.377  3.4146 -2.6675  0.0741
  361MOL0     H48701   9.591   5.647   6.447  0.7370 -0.6930 -3.1586
  361MOL0     H48702   9.702   5.785   6.470  0.0362  0.7658 -0.9581
  361MOL0     H48703   9.506   5.873   6.578  3.0981 -0.7507  0.3053
  361MOL0     H48704   9.494   5.938   6.417  2.1192 -1.7818 -1.0266
  361MOL0     H48705   9.356   5.684   6.523 -0.6083 -2.2212 -2.9137
  361MOL0     H48706   9.352   5.723   6.362  2.9417 -5.1229  2.1234
  361MOL0     H48707   9.251   5.893   6.605  0.8271 -4.2032  1.1575
  361MOL0     H48708   9.237   5.942   6.434  5.0849 -1.7537 -2.3936
  361MOL0     H48709   9.106   5.703   6.417  2.4890 -1.6302  1.8129
  361MOL0     H48710   9.022   5.857   6.454 -0.7554 -1.9802 -0.6687
  361MOL0     H48711   9.112   5.655   6.677  0.0519 -1.6019  0.0832
  361MOL0     H48712   9.038   5.813   6.691 -0.2411  1.2165 -2.0192
  361MOL0     H48713   8.854   5.708   6.544 -0.7194 -3.2115 -1.3199
  361MOL0     H48714   8.861   5.643   6.703 -0.0304  2.9491  1.3418
  361MOL0     H48715   8.948   5.476   6.659 -0.4286  1.9768  1.0675
  361MOL0     H48716   9.031   5.508   6.502 -0.3428  1.1159 -2.9484
  361MOL0     H48717   9.620   5.749   6.033  1.0684 -0.9805 -5.6114
  361MOL0     H48718   9.679   5.555   5.882 -0.8315 -2.3141  0.0345
  361MOL0     H48719   9.936   5.273   5.768 -1.5338 -0.4883 -0.9768
  361MOL0     H48720  10.001   5.142   5.568 -0.0798  1.0478  0.3294
  361MOL0     H48721   8.809   4.019   4.598 -0.6076 -0.7717 -0.8005
  361MOL0     H48722   8.745   3.801   4.597 -0.8649  3.3345  0.0978
  361MOL0     H48723   9.063   3.251   4.762 -0.1108 -2.2101 -2.3392
  361MOL0     H48724   8.954   3.032   4.757 -1.1781 -0.8704  0.7206
  361MOL0     H48725   8.577   3.022   4.875  1.1242 -0.6957 -0.1538
  361MOL0     H48726   8.507   2.998   4.719 -2.2376 -3.4734  0.6495
  361MOL0     H48727   8.505   2.799   4.914 -0.0200 -2.0365 -0.3028
  361MOL0     H48728   8.659   2.763   4.835  1.5017  0.4119 -3.5356
  361MOL0     H48729   8.521   2.764   4.617 -0.0820 -2.3375 -0.0401
  361MOL0     H48730   8.380   2.747   4.718 -0.2570  1.3542 -0.0366
  361MOL0     H48731   8.494   2.549   4.848 -0.8272  1.1617 -0.3233
  361MOL0     H48732   8.630   2.569   4.738  0.3865 -1.3332 -1.8129
  361MOL0     H48733   8.300   2.347   4.551  0.3071 -2.3277  2.6190
  361MOL0     H48734   8.573   3.209   4.672 -0.3050  0.2772  2.4282
  361MOL0     H48735   8.672   3.432   4.708  4.9985  3.4808 -1.9507
  362MOL0     O48736  10.200   2.901   0.505 -0.1248 -0.0596  0.4150
  362MOL0     C48737  10.092   2.951   0.547 -1.0717 -1.0801  0.1538
  362MOL0     O48738  10.087   3.081   0.604 -0.1586  0.2070  0.0479
  362MOL0     C48739  10.211   3.133   0.625  0.4063 -0.3407 -0.0690
  362MOL0     C48740  10.282   3.111   0.738 -0.7552  1.1915 -1.0502
  362MOL0     C48741  10.397   3.178   0.761  0.0277  0.4469 -0.4720
  362MOL0     C48742  10.466   3.256   0.664 -0.7491 -0.4515 -1.0086
  362MOL0     O48743  10.588   3.323   0.698  0.0239  0.1199 -0.0876
  362MOL0     C48744  10.649   3.410   0.597 -0.0413  0.1308 -1.4978
  362MOL0     C48745  10.769   3.476   0.661  0.0453  0.5576  0.8948
  362MOL0     C48746  10.808   3.587   0.563  0.7220 -0.6468  0.8666
  362MOL0     C48747  10.784   3.735   0.615 -0.0610 -0.0258 -0.4285
  362MOL0     C48748  10.774   3.829   0.492 -0.3863 -0.3741 -1.0959
  362MOL0     C48749  10.912   3.857   0.436  0.0617  0.2870  0.0686
  362MOL0     C48750  10.913   3.955   0.321 -0.4216 -0.4385  0.2726
  362MOL0     C48751  11.058   3.953   0.262  1.0267  0.0217 -0.1185
  362MOL0     N48752  11.069   4.058   0.168 -0.0593 -0.3772  0.4699
  362MOL0     C48753  11.011   4.053   0.042  1.2786 -1.2004  0.2811
  362MOL0     C48754  11.056   4.179  -0.002  0.0424  0.0104 -0.2861
  362MOL0     C48755  11.019   4.243  -0.129  0.4205  0.8490  0.9623
  362MOL0     C48756  11.134   4.351  -0.177  0.2785 -0.1136 -0.8538
  362MOL0     C48757  11.256   4.277  -0.214  0.4361  0.0905 -1.0187
  362MOL0     C48758  11.359   4.386  -0.264 -0.1862  1.2571 -0.3709
  362MOL0     O48759  11.342   4.397  -0.406  1.2663 -0.8320 -0.0157
  362MOL0     C48760  11.393   4.509  -0.460  0.9251 -0.0206 -0.1453
  362MOL0     C48761  11.497   4.589  -0.408 -0.3406  0.6156 -0.2723
  362MOL0     C48762  11.531   4.708  -0.466  0.8059 -0.3453 -0.9094
  362MOL0     C48763  11.649   4.787  -0.398  0.2307 -0.0919  0.3608
  362MOL0     C48764  11.483   4.748  -0.591  0.2906 -0.3952  0.4642
  362MOL0     C48765  11.535   4.846  -0.680  0.4284  1.5232 -0.2475
  362MOL0     O48766  11.596   4.810  -0.797 -0.1439 -0.2672 -0.5426
  362MOL0     C48767  11.640   4.917  -0.870 -0.3243 -0.2712 -0.8838
  362MOL0     C48768  11.767   4.973  -0.839  0.3742 -0.4237 -0.0585
  362MOL0     C48769  11.818   5.078  -0.915  0.1116  0.3346 -0.5444
  362MOL0     C48770  11.749   5.125  -1.021 -0.9879 -0.5248  0.3239
  362MOL0     O48771  11.796   5.232  -1.089 -0.8220  0.1229  0.1093
  362MOL0     C48772  11.933   5.243  -1.148  0.7982  0.7428 -0.6774
  362MOL0     C48773  11.970   5.132  -1.246 -0.5878  0.0063  0.2335
  362MOL0     C48774  11.854   5.123  -1.349  0.8038  0.0946  0.9072
  362MOL0     C48775  11.887   5.035  -1.475 -0.6346  0.6570 -0.6622
  362MOL0     C48776  11.768   5.008  -1.565 -0.6722  0.6251 -0.9422
  362MOL0     C48777  11.632   4.961  -1.508  0.1404  0.1775 -0.2953
  362MOL0     C48778  11.522   4.948  -1.615 -1.0402  0.2301  1.0978
  362MOL0     C48779  11.421   4.845  -1.584  0.1736 -0.9058 -0.1860
  362MOL0    Cl48780  11.293   4.859  -1.707 -0.1397  0.2752  0.4754
  362MOL0     C48781  11.631   5.066  -1.062  0.9542 -0.0446 -0.1331
  362MOL0     C48782  11.578   4.960  -0.989  0.2932  0.5546 -0.3265
  362MOL0     O48783  11.521   4.963  -0.636  0.6599  0.2898  0.3316
  362MOL0     C48784  11.368   4.667  -0.636 -0.0171  0.0278  0.4555
  362MOL0     C48785  11.323   4.555  -0.575 -0.1290 -0.3606 -0.7115
  362MOL0     N48786  11.107   4.254   0.097  0.0540  0.6088  0.3634
  362MOL0     N48787  11.119   4.183   0.206 -0.7226  0.0253  0.1458
  362MOL0     C48788  10.398   3.267   0.545 -0.0194 -0.7601 -0.0021
  362MOL0     C48789  10.271   3.214   0.525  0.3275  0.5288  1.1797
  362MOL0     C48790   9.957   2.880   0.532 -0.1448 -0.0495 -0.7940
  362MOL0     C48791   9.962   2.741   0.501  0.7251 -0.2296 -0.4047
  362MOL0     C48792   9.844   2.666   0.475 -0.4592 -0.3315  1.0482
  362MOL0     C48793   9.724   2.737   0.489  1.0295 -0.1665 -0.3233
  362MOL0     O48794   9.608   2.680   0.469  0.0021  0.6995  0.4268
  362MOL0     C48795   9.575   2.561   0.544 -0.2487 -0.3670  0.3573
  362MOL0     C48796   9.539   2.598   0.684 -0.4727  0.0914  0.5475
  362MOL0     C48797   9.425   2.695   0.722  0.5853  0.7479  0.4971
  362MOL0     C48798   9.414   2.737   0.875  0.9459  0.4315  0.2831
  362MOL0     C48799   9.295   2.824   0.878  0.7933  0.8027 -0.0374
  362MOL0     C48800   9.199   2.899   0.870  0.3089 -1.0751  0.3286
  362MOL0     C48801   9.720   2.871   0.530 -0.2515  0.3636  0.2079
  362MOL0     C48802   9.838   2.949   0.547  0.0540  0.3209  0.4274
  362MOL0     H48803  10.245   3.044   0.815 -0.3203 -0.8381 -2.5223
  362MOL0     H48804  10.456   3.166   0.851  0.3398  2.4523 -0.3574
  362MOL0     H48805  10.662   3.357   0.502  1.5831 -0.5034 -0.9670
  362MOL0     H48806  10.577   3.489   0.576 -0.4299  0.1494 -0.1924
  362MOL0     H48807  10.742   3.507   0.762  0.5731 -0.1932  1.2727
  362MOL0     H48808  10.851   3.404   0.667 -0.9261 -0.4474  4.1671
  362MOL0     H48809  10.911   3.585   0.525  0.6873  2.9591  0.2184
  362MOL0     H48810  10.751   3.578   0.470  2.1617  0.6158 -0.1856
  362MOL0     H48811  10.692   3.741   0.674 -0.4483 -0.9826 -0.9033
  362MOL0     H48812  10.864   3.775   0.678  0.3447  2.8026 -2.5421
  362MOL0     H48813  10.711   3.791   0.411  2.7264 -0.8172 -3.5401
  362MOL0     H48814  10.735   3.923   0.532  1.5047 -0.8165  2.1159
  362MOL0     H48815  10.970   3.884   0.524  1.0822 -2.2198  0.2411
  362MOL0     H48816  10.962   3.769   0.395 -0.8781 -0.1776 -0.1161
  362MOL0     H48817  10.840   3.938   0.242 -1.2179  2.4516  0.2746
  362MOL0     H48818  10.883   4.055   0.355 -0.6956  0.1342 -1.5783
  362MOL0     H48819  11.075   3.854   0.217 -1.2814 -1.5672  2.1316
  362MOL0     H48820  11.133   3.973   0.339 -0.2387 -0.0080  1.1821
  362MOL0     H48821  10.954   3.982  -0.017  3.0506 -0.2633 -2.8208
  362MOL0     H48822  11.003   4.170  -0.209 -0.4303  1.2332  0.7635
  362MOL0     H48823  10.921   4.290  -0.115  1.0147  2.0755  1.1869
  362MOL0     H48824  11.155   4.425  -0.099 -0.9122 -0.3816 -0.2571
  362MOL0     H48825  11.092   4.398  -0.266 -0.2199 -0.0577 -0.5912
  362MOL0     H48826  11.242   4.183  -0.268  2.5690 -1.9305  1.6670
  362MOL0     H48827  11.301   4.244  -0.120  0.2653 -0.7450 -1.2278
  362MOL0     H48828  11.448   4.331  -0.234 -1.4010 -0.7748 -0.3273
  362MOL0     H48829  11.344   4.477  -0.206 -4.2495  0.9836 -0.7139
  362MOL0     H48830  11.545   4.558  -0.315  0.8100  0.5902 -0.8581
  362MOL0     H48831  11.735   4.745  -0.451 -0.5205 -0.6884 -0.4154
  362MOL0     H48832  11.657   4.894  -0.414  2.6489 -0.0007  1.7760
  362MOL0     H48833  11.656   4.758  -0.293  1.0094 -1.1432  0.0336
  362MOL0     H48834  11.812   4.940  -0.746 -1.1031 -2.1538  0.1046
  362MOL0     H48835  11.915   5.116  -0.885  0.8884 -1.5506 -0.5128
  362MOL0     H48836  11.940   5.343  -1.191  0.4394  1.4791  0.8933
  362MOL0     H48837  12.016   5.258  -1.078 -0.8438 -1.4647  1.9746
  362MOL0     H48838  12.059   5.162  -1.303 -0.2813  0.4319  0.9252
  362MOL0     H48839  11.985   5.039  -1.191 -0.0188  1.9546  3.6090
  362MOL0     H48840  11.824   5.225  -1.375 -0.5628  0.1103  2.4119
  362MOL0     H48841  11.770   5.078  -1.295 -1.4397  0.1718 -2.2276
  362MOL0     H48842  11.965   5.083  -1.536  1.3969  0.1384  1.3804
  362MOL0     H48843  11.928   4.937  -1.449 -1.3843 -0.6847 -4.0061
  362MOL0     H48844  11.789   4.929  -1.638 -2.1409 -2.2289  1.4813
  362MOL0     H48845  11.750   5.098  -1.624  0.5183 -0.5655 -3.2844
  362MOL0     H48846  11.644   4.865  -1.456 -4.2381 -0.4456 -0.0832
  362MOL0     H48847  11.597   5.032  -1.432 -0.7419 -2.0445  1.5019
  362MOL0     H48848  11.565   4.911  -1.709  1.3001  1.3308  1.6850
  362MOL0     H48849  11.460   5.035  -1.638 -1.6377 -0.4553 -0.0366
  362MOL0     H48850  11.383   4.866  -1.484  1.3571  0.6870 -0.0340
  362MOL0     H48851  11.458   4.743  -1.597  2.7845  0.0729 -1.0911
  362MOL0     H48852  11.590   5.112  -1.152  0.5232  1.1446  0.6367
  362MOL0     H48853  11.491   4.907  -1.027 -1.0017 -0.5157  3.6451
  362MOL0     H48854  11.312   4.687  -0.726  0.6983 -4.4920 -1.2504
  362MOL0     H48855  11.228   4.508  -0.596 -0.3801  0.3900 -1.3067
  362MOL0     H48856  10.453   3.326   0.472  1.0595  0.2909  1.5985
  362MOL0     H48857  10.214   3.230   0.434  1.7124 -2.8914 -0.4700
  362MOL0     H48858  10.057   2.690   0.489  1.4330  0.8117  0.6375
  362MOL0     H48859   9.847   2.572   0.420  2.0900  0.4890 -0.3792
  362MOL0     H48860   9.484   2.524   0.495 -1.1376  0.4501  1.3422
  362MOL0     H48861   9.660   2.491   0.546  0.1724  0.1612  2.2197
  362MOL0     H48862   9.630   2.649   0.718 -0.0949  0.1601 -0.5328
  362MOL0     H48863   9.531   2.506   0.742  2.0186  0.4009  1.5242
  362MOL0     H48864   9.331   2.645   0.695  0.6116  2.4232 -3.2493
  362MOL0     H48865   9.433   2.778   0.651  2.4580  2.0228  2.1192
  362MOL0     H48866   9.498   2.782   0.928  1.9405 -2.6452  1.5374
  362MOL0     H48867   9.396   2.646   0.933 -1.4418  2.0066  2.2068
  362MOL0     H48868   9.120   2.967   0.847  0.2173 -2.0638 -2.6995
  362MOL0     H48869   9.626   2.919   0.554  0.3666  1.4732  0.4527
  362MOL0     H48870   9.838   3.055   0.568 -1.7847  0.6213 -0.9044
  363MOL0     O48871   9.940   0.500   6.099 -0.2591  0.8135  0.4719
  363MOL0     C48872  10.033   0.582   6.074 -0.8154 -0.7675  0.7904
  363MOL0     O48873  10.169   0.578   6.122  0.6504 -0.1260  0.0724
  363MOL0     C48874  10.202   0.504   6.228 -0.1067  0.7532 -0.9084
  363MOL0     C48875  10.118   0.437   6.325  0.1894 -0.5879 -0.2982
  363MOL0     C48876  10.166   0.373   6.437 -0.6010  0.4171  0.5860
  363MOL0     C48877  10.304   0.366   6.458 -1.3067 -0.2788 -0.0763
  363MOL0     O48878  10.365   0.305   6.574  0.2005 -0.3221  0.0271
  363MOL0     C48879  10.290   0.234   6.667 -0.0296 -0.0436 -1.0295
  363MOL0     C48880  10.230   0.322   6.780  0.1083  0.1122  0.8241
  363MOL0     C48881  10.334   0.373   6.872  0.2680 -0.6252 -0.2648
  363MOL0     C48882  10.281   0.415   7.013  0.1328 -0.3800  0.3710
  363MOL0     C48883  10.390   0.481   7.097 -0.0334  0.2848  0.6081
  363MOL0     C48884  10.348   0.500   7.249 -0.0243  0.3186 -0.3281
  363MOL0     C48885  10.231   0.606   7.273 -1.0572  0.1776 -1.4898
  363MOL0     C48886  10.224   0.656   7.410 -0.4562  0.3085 -0.4416
  363MOL0     N48887  10.090   0.704   7.441  0.4337 -0.1189  0.2652
  363MOL0     C48888  10.036   0.824   7.402  0.2341 -0.2764  0.3235
  363MOL0     C48889   9.914   0.828   7.452 -0.0303  0.1114 -0.1891
  363MOL0     C48890   9.817   0.935   7.443  0.6446 -0.5824  0.3343
  363MOL0     C48891   9.855   1.054   7.542 -0.0641 -0.5704 -0.4763
  363MOL0     C48892   9.854   1.002   7.691 -0.1848  0.1357  0.6056
  363MOL0     C48893   9.894   1.106   7.798  0.0264  0.0506 -0.4684
  363MOL0     O48894  10.038   1.141   7.791 -0.0314 -0.2487  0.9492
  363MOL0     C48895  10.129   1.042   7.788  0.3711  0.1185  0.1768
  363MOL0     C48896  10.101   0.913   7.843  0.2250  0.4773  1.0074
  363MOL0     C48897  10.191   0.809   7.827  0.0237 -0.3850  0.2096
  363MOL0     C48898  10.158   0.670   7.871 -0.6038 -0.1971  0.0989
  363MOL0     C48899  10.317   0.826   7.770 -0.2067 -1.1973  0.2706
  363MOL0     C48900  10.415   0.725   7.754  0.1364 -0.0122  0.9657
  363MOL0     O48901  10.453   0.651   7.862  0.5272  0.0694 -0.9745
  363MOL0     C48902  10.512   0.529   7.854 -0.1457  0.4709 -0.4485
  363MOL0     C48903  10.575   0.471   7.744  0.5563 -0.2681  0.7187
  363MOL0     C48904  10.653   0.355   7.766  0.8127 -0.5704 -0.7148
  363MOL0     C48905  10.658   0.291   7.889 -0.7421 -0.0068 -0.2509
  363MOL0     O48906  10.723   0.170   7.911  0.2016 -0.3372  0.1432
  363MOL0     C48907  10.820   0.128   7.808  0.8895 -0.8639 -0.4232
  363MOL0     C48908  10.862  -0.010   7.860  1.3212  0.0814  1.2630
  363MOL0     C48909  10.943  -0.021   7.988  0.2686 -0.1861  0.5372
  363MOL0     C48910  10.979  -0.169   7.994  0.5993 -0.4206  1.1756
  363MOL0     C48911  11.021  -0.207   8.137 -0.4478  0.4597 -0.2927
  363MOL0     C48912  11.171  -0.167   8.159 -0.1673  0.2573  0.3588
  363MOL0     C48913  11.200  -0.009   8.178 -0.6335  0.0765  0.0324
  363MOL0     C48914  11.322   0.006   8.272 -0.7750 -1.0756  0.6769
  363MOL0    Cl48915  11.399   0.166   8.261  0.2736  0.0242 -0.4308
  363MOL0     C48916  10.586   0.345   7.996 -0.3805  0.5443  0.4837
  363MOL0     C48917  10.518   0.462   7.976 -0.2872  0.0636 -0.6474
  363MOL0     O48918  10.462   0.719   7.640  0.2892 -0.4179  1.3341
  363MOL0     C48919  10.345   0.951   7.707 -0.8293  0.4468 -0.8403
  363MOL0     C48920  10.250   1.053   7.723 -0.4509 -0.1875 -1.0890
  363MOL0     N48921   9.895   0.718   7.535 -0.8088 -0.1753 -0.1331
  363MOL0     N48922  10.001   0.641   7.521 -0.1288 -0.3103  0.4001
  363MOL0     C48923  10.389   0.433   6.365 -0.5015  0.4230 -1.0056
  363MOL0     C48924  10.339   0.503   6.257  0.2842 -0.4379  0.4029
  363MOL0     C48925  10.003   0.703   5.985 -0.8988 -0.1955 -0.7543
  363MOL0     C48926   9.874   0.718   5.922 -0.3254 -0.6237  0.1653
  363MOL0     C48927   9.850   0.820   5.833  0.7808  0.5208 -0.1384
  363MOL0     C48928   9.930   0.928   5.814  0.1186 -1.1189 -0.0604
  363MOL0     O48929   9.905   1.047   5.745 -0.1812 -0.5386 -0.1076
  363MOL0     C48930   9.831   1.044   5.623  0.9500 -0.1041  0.6144
  363MOL0     C48931   9.684   1.072   5.664  0.3190 -0.5154 -0.3515
  363MOL0     C48932   9.599   1.125   5.544 -0.0114 -0.5043 -1.0058
  363MOL0     C48933   9.464   1.174   5.602 -0.0158 -0.2481 -0.0124
  363MOL0     C48934   9.371   1.071   5.648  0.2471  0.4150 -0.5819
  363MOL0     C48935   9.294   0.984   5.683 -0.3613 -0.2039  0.1975
  363MOL0     C48936  10.053   0.922   5.872 -0.2604  0.9996 -0.4983
  363MOL0     C48937  10.092   0.808   5.950  0.4134 -0.2481 -0.5595
  363MOL0     H48938  10.010   0.436   6.309  0.1657  1.5230 -0.5897
  363MOL0     H48939  10.093   0.331   6.505 -0.5618 -2.3010 -0.8981
  363MOL0     H48940  10.215   0.167   6.624 -0.2051 -2.1986  2.2610
  363MOL0     H48941  10.344   0.160   6.727 -1.7000  0.0893  0.7240
  363MOL0     H48942  10.180   0.409   6.737 -0.9882 -0.1009  1.6214
  363MOL0     H48943  10.147   0.279   6.838 -2.1009  0.7445 -1.6848
  363MOL0     H48944  10.403   0.294   6.902  0.1663  0.5679  3.6483
  363MOL0     H48945  10.381   0.461   6.825 -1.7906  0.4996 -0.3331
  363MOL0     H48946  10.208   0.495   6.996  2.2765  1.1689 -2.3345
  363MOL0     H48947  10.226   0.333   7.061  0.8248 -2.0279 -1.4994
  363MOL0     H48948  10.480   0.420   7.087 -0.5508 -0.1912 -1.6843
  363MOL0     H48949  10.420   0.576   7.052  2.9986 -1.1604 -0.7433
  363MOL0     H48950  10.321   0.403   7.293  0.4184  0.0915 -0.5468
  363MOL0     H48951  10.439   0.528   7.303 -0.4533 -1.7698  1.6291
  363MOL0     H48952  10.242   0.674   7.188  1.6346  0.2747 -1.1472
  363MOL0     H48953  10.140   0.546   7.263 -0.3660 -0.6184 -4.0139
  363MOL0     H48954  10.298   0.734   7.432  0.8119 -0.9011 -0.3302
  363MOL0     H48955  10.252   0.571   7.472 -1.2475 -0.5700 -1.2589
  363MOL0     H48956  10.088   0.898   7.343 -4.1232  2.6255 -0.2894
  363MOL0     H48957   9.811   0.968   7.339 -0.2065 -1.2245  0.1696
  363MOL0     H48958   9.722   0.892   7.475  1.5719 -0.8521  3.0172
  363MOL0     H48959   9.784   1.137   7.535 -1.4501 -1.3006  2.9229
  363MOL0     H48960   9.957   1.089   7.523  1.8392 -1.0006  6.2199
  363MOL0     H48961   9.907   0.906   7.697 -1.9837 -0.8823  1.1753
  363MOL0     H48962   9.751   0.970   7.711 -0.8373  0.8561 -1.3398
  363MOL0     H48963   9.865   1.076   7.900  1.9981 -2.4567 -0.5439
  363MOL0     H48964   9.831   1.190   7.767 -0.1861  0.6287  1.3709
  363MOL0     H48965  10.004   0.893   7.887  0.3930 -0.5994  0.9278
  363MOL0     H48966  10.229   0.589   7.851  1.4927  0.0111  5.2221
  363MOL0     H48967  10.126   0.661   7.975 -1.4045 -4.0717 -0.3011
  363MOL0     H48968  10.066   0.645   7.816 -1.7261 -0.8316  2.1340
  363MOL0     H48969  10.577   0.506   7.641  0.7124  1.8813  1.4206
  363MOL0     H48970  10.704   0.316   7.679  0.5782 -3.6156  0.3980
  363MOL0     H48971  10.770   0.113   7.712 -0.6762  1.1177  0.0120
  363MOL0     H48972  10.906   0.195   7.807 -0.4106  1.1262  2.9439
  363MOL0     H48973  10.770  -0.067   7.875  0.8659  0.5815  0.4375
  363MOL0     H48974  10.929  -0.058   7.788  0.6581 -1.9863  1.9527
  363MOL0     H48975  10.875  -0.003   8.073 -0.8398  0.4939 -0.4564
  363MOL0     H48976  11.028   0.047   7.975 -0.2633  0.0775 -2.2438
  363MOL0     H48977  10.892  -0.226   7.959  0.9188 -1.9296  2.6864
  363MOL0     H48978  11.062  -0.195   7.927 -0.6041 -1.0705 -0.1117
  363MOL0     H48979  11.024  -0.317   8.145 -3.4205  0.1740 -2.0417
  363MOL0     H48980  10.959  -0.163   8.216  0.1020  1.6957 -0.5304
  363MOL0     H48981  11.219  -0.206   8.250  1.0847  0.1335 -0.3237
  363MOL0     H48982  11.231  -0.210   8.077  1.5286  0.2208  1.5611
  363MOL0     H48983  11.109   0.037   8.218 -0.5483 -0.4822  0.8833
  363MOL0     H48984  11.224   0.049   8.089 -1.7176  1.6392  0.7082
  363MOL0     H48985  11.396  -0.073   8.254 -1.3692 -1.1385 -1.8681
  363MOL0     H48986  11.294  -0.016   8.375 -1.2763 -0.8762  0.5880
  363MOL0     H48987  10.598   0.297   8.093 -0.3819  0.2602  0.3421
  363MOL0     H48988  10.477   0.500   8.069 -0.9193 -2.9128  0.4313
  363MOL0     H48989  10.441   0.973   7.662 -0.0885 -1.9797 -0.6122
  363MOL0     H48990  10.268   1.151   7.680  1.7464 -0.3083 -0.5582
  363MOL0     H48991  10.495   0.445   6.387 -0.2224  1.6927 -2.8190
  363MOL0     H48992  10.416   0.552   6.199  1.7407 -3.1131 -0.0670
  363MOL0     H48993   9.794   0.645   5.923 -0.2886 -0.6655  0.7981
  363MOL0     H48994   9.761   0.808   5.773  0.3170  1.1576  0.4035
  363MOL0     H48995   9.883   1.113   5.555 -0.3517  0.5468  0.2489
  363MOL0     H48996   9.835   0.953   5.562  2.6350  1.9776 -2.6515
  363MOL0     H48997   9.678   1.148   5.742 -2.2092  0.3463 -1.2693
  363MOL0     H48998   9.632   0.988   5.711 -2.0840  1.2403  0.3449
  363MOL0     H48999   9.581   1.046   5.470  1.1006 -1.0559 -0.6955
  363MOL0     H49000   9.647   1.207   5.489 -1.2328  0.2558 -0.9894
  363MOL0     H49001   9.409   1.219   5.519  0.6924 -2.6663 -1.9075
  363MOL0     H49002   9.491   1.237   5.688 -1.5153 -0.9884  1.0414
  363MOL0     H49003   9.220   0.912   5.710 -1.3277  0.4744 -0.5675
  363MOL0     H49004  10.120   1.004   5.849  0.9135  0.0733 -0.4951
  363MOL0     H49005  10.192   0.803   5.993  0.4724  0.7013 -0.5636
  364MOL0     O49006   3.778   6.805   9.604 -0.0370 -0.3898  0.0499
  364MOL0     C49007   3.866   6.749   9.545 -1.0239 -0.0719 -0.7241
  364MOL0     O49008   3.878   6.719   9.413  0.3945 -0.0369  0.7000
  364MOL0     C49009   3.770   6.716   9.317  0.5547  0.0732  0.5425
  364MOL0     C49010   3.798   6.749   9.180  0.5734 -0.3680  0.1282
  364MOL0     C49011   3.702   6.716   9.085  0.2150 -0.8151 -0.2824
  364MOL0     C49012   3.583   6.648   9.116 -0.8430  0.1584  0.6246
  364MOL0     O49013   3.500   6.603   9.014 -0.3774  0.5774  0.1210
  364MOL0     C49014   3.362   6.575   9.046  0.2340 -0.0469 -0.0279
  364MOL0     C49015   3.291   6.546   8.911 -0.5275 -0.1971 -0.5795
  364MOL0     C49016   3.156   6.479   8.935  0.0455  0.1879 -0.2625
  364MOL0     C49017   3.079   6.457   8.801 -0.0681  0.4763 -0.7504
  364MOL0     C49018   2.940   6.409   8.825 -0.0892 -0.0881  0.2787
  364MOL0     C49019   2.841   6.455   8.707  0.1861 -0.3052 -0.3321
  364MOL0     C49020   2.701   6.399   8.704  0.5362  0.3478 -1.2228
  364MOL0     C49021   2.631   6.447   8.574 -0.4004 -0.5013 -0.6251
  364MOL0     N49022   2.606   6.594   8.576  0.2056  0.2144  0.1897
  364MOL0     C49023   2.661   6.674   8.474  0.6553 -0.2943 -0.1432
  364MOL0     C49024   2.610   6.799   8.507  0.5507 -0.6332 -0.4438
  364MOL0     C49025   2.624   6.922   8.427  1.0625  0.6198  0.5007
  364MOL0     C49026   2.551   6.914   8.290  0.8221 -0.2349 -0.4494
  364MOL0     C49027   2.475   7.024   8.231  0.5961  0.3510 -0.6342
  364MOL0     C49028   2.429   6.973   8.092 -0.4272  0.5330 -0.4528
  364MOL0     O49029   2.355   7.077   8.037  0.2212  0.7203  0.0931
  364MOL0     C49030   2.300   7.072   7.908  0.2930  0.0491 -0.2135
  364MOL0     C49031   2.262   7.199   7.850  0.5328 -0.3037  0.5341
  364MOL0     C49032   2.217   7.208   7.717 -0.1364  0.8494 -1.3430
  364MOL0     C49033   2.195   7.350   7.673  0.2559 -0.1595  1.1678
  364MOL0     C49034   2.211   7.095   7.643  1.2478 -0.9391 -0.2871
  364MOL0     C49035   2.178   7.100   7.495  0.1282 -0.0747  0.3681
  364MOL0     O49036   2.167   6.979   7.436  0.3215 -0.0620  0.1581
  364MOL0     C49037   2.121   6.966   7.310  0.2822  0.6984 -0.1441
  364MOL0     C49038   2.210   6.927   7.200  0.0681  0.3835  0.4677
  364MOL0     C49039   2.162   6.913   7.074 -0.9208  0.0234  1.1041
  364MOL0     C49040   2.020   6.935   7.045 -0.8358 -0.0176 -0.1735
  364MOL0     O49041   1.993   6.928   6.916  0.5898 -0.1518  1.5238
  364MOL0     C49042   1.861   6.968   6.864  0.2522  0.8687  0.3081
  364MOL0     C49043   1.879   7.006   6.711  0.7504 -0.3988  0.0805
  364MOL0     C49044   1.749   7.045   6.642 -0.5499 -0.1699 -0.7581
  364MOL0     C49045   1.756   7.080   6.489  0.1009 -0.0624 -0.0281
  364MOL0     C49046   1.665   6.989   6.400 -0.0212 -0.0065 -0.2797
  364MOL0     C49047   1.520   7.000   6.447 -0.4001  0.9761  0.4582
  364MOL0     C49048   1.417   6.935   6.351 -0.3146  0.0960  0.3723
  364MOL0     C49049   1.275   6.959   6.384  0.1924 -0.9571 -0.4458
  364MOL0    Cl49050   1.175   7.003   6.233 -0.2510 -0.3670 -0.4118
  364MOL0     C49051   1.929   6.956   7.150  0.0363  0.5317  0.5063
  364MOL0     C49052   1.981   6.968   7.285  0.4571  0.2929  0.1921
  364MOL0     O49053   2.169   7.205   7.434  0.2184  0.1366 -0.1522
  364MOL0     C49054   2.230   6.969   7.706 -0.1257  0.3421  0.2262
  364MOL0     C49055   2.284   6.960   7.833  0.4260 -0.3775  0.3460
  364MOL0     N49056   2.552   6.788   8.629  0.4308  0.2939 -0.5925
  364MOL0     N49057   2.544   6.660   8.673  0.0918 -0.4213  1.5052
  364MOL0     C49058   3.554   6.633   9.251  0.2148  0.5400 -0.8842
  364MOL0     C49059   3.640   6.669   9.352 -0.3930 -0.3609 -0.0130
  364MOL0     C49060   3.982   6.702   9.623  0.4399  1.0340  0.6905
  364MOL0     C49061   4.106   6.701   9.567 -0.6528 -0.7044 -0.6780
  364MOL0     C49062   4.218   6.664   9.648 -0.2922 -0.6961 -0.1250
  364MOL0     C49063   4.208   6.621   9.773  0.0532  0.3066 -0.2780
  364MOL0     O49064   4.318   6.592   9.843 -0.1309 -0.1287 -0.3948
  364MOL0     C49065   4.353   6.692   9.937 -0.2292 -0.2846 -0.3637
  364MOL0     C49066   4.484   6.628  10.003 -1.2881 -0.6491  0.0635
  364MOL0     C49067   4.601   6.722  10.032 -0.1824 -0.4747  0.2508
  364MOL0     C49068   4.573   6.805  10.155 -0.9836  1.0212 -0.7084
  364MOL0     C49069   4.602   6.720  10.279  0.9293  0.3624  0.2343
  364MOL0     C49070   4.625   6.652  10.372 -0.1022  0.0954 -0.1785
  364MOL0     C49071   4.079   6.620   9.828 -0.1238 -0.9065 -0.3068
  364MOL0     C49072   3.964   6.659   9.755  0.4069  0.7749 -0.0730
  364MOL0     H49073   3.891   6.789   9.140 -0.1870 -0.2288 -1.5735
  364MOL0     H49074   3.709   6.741   8.980 -2.4396  1.4175 -0.0515
  364MOL0     H49075   3.352   6.497   9.123 -3.1793  1.2834  1.0790
  364MOL0     H49076   3.308   6.662   9.086  0.3343 -0.5125  1.1801
  364MOL0     H49077   3.270   6.636   8.853  0.9666  0.1284 -0.6679
  364MOL0     H49078   3.362   6.480   8.861  1.3022  1.8944 -0.8712
  364MOL0     H49079   3.178   6.389   8.992 -2.7571 -0.0889  0.5375
  364MOL0     H49080   3.111   6.553   9.001  0.8898 -0.6013  1.2629
  364MOL0     H49081   3.070   6.547   8.740 -0.2373  0.4279 -0.7968
  364MOL0     H49082   3.133   6.391   8.732 -3.8502  0.1252 -3.6759
  364MOL0     H49083   2.935   6.299   8.822  0.9326 -0.1337 -0.1157
  364MOL0     H49084   2.911   6.446   8.924  1.6102 -1.3900  1.3160
  364MOL0     H49085   2.838   6.562   8.688 -1.3983 -0.2701 -0.0657
  364MOL0     H49086   2.883   6.404   8.620 -0.6932  0.3840 -1.1842
  364MOL0     H49087   2.704   6.290   8.712  1.2368  0.4251  5.8261
  364MOL0     H49088   2.649   6.430   8.794 -2.0268 -1.0314 -2.1250
  364MOL0     H49089   2.531   6.403   8.576 -0.5124 -0.2672  1.6562
  364MOL0     H49090   2.675   6.414   8.480 -0.4759 -0.4503 -0.6783
  364MOL0     H49091   2.717   6.627   8.394 -2.3730 -1.1259 -1.9706
  364MOL0     H49092   2.571   6.993   8.491  0.3471  1.3662 -0.8690
  364MOL0     H49093   2.730   6.944   8.415  1.1118 -0.3093 -1.1080
  364MOL0     H49094   2.483   6.832   8.317  0.1068  0.8787  1.3034
  364MOL0     H49095   2.630   6.875   8.225  2.3835  3.8408 -1.2926
  364MOL0     H49096   2.526   7.120   8.225  0.6473  0.2676 -1.8987
  364MOL0     H49097   2.385   7.045   8.290 -0.5611 -0.1788 -2.1306
  364MOL0     H49098   2.354   6.894   8.103 -1.8485  2.1535  3.8585
  364MOL0     H49099   2.505   6.931   8.025  0.9661  1.4094  0.5231
  364MOL0     H49100   2.249   7.278   7.922  0.4161  1.1345 -0.9989
  364MOL0     H49101   2.252   7.372   7.582  2.7766 -4.2482  1.4678
  364MOL0     H49102   2.091   7.381   7.657  0.7992  1.6029  0.8481
  364MOL0     H49103   2.244   7.423   7.737  2.7906  2.3767 -3.1577
  364MOL0     H49104   2.318   6.925   7.215 -0.1319 -0.0094  2.0355
  364MOL0     H49105   2.228   6.904   6.988 -2.5779 -0.0994 -0.2139
  364MOL0     H49106   1.802   6.878   6.884  1.8390  0.3858  3.5735
  364MOL0     H49107   1.805   7.049   6.911 -1.6532  1.3632 -2.5441
  364MOL0     H49108   1.945   7.093   6.714 -1.9682  1.8004  0.9119
  364MOL0     H49109   1.922   6.918   6.663 -1.1065 -1.7867  0.8277
  364MOL0     H49110   1.716   7.139   6.688  1.2653  0.6008 -0.9434
  364MOL0     H49111   1.675   6.967   6.665 -0.6309  0.3886  1.0871
  364MOL0     H49112   1.725   7.185   6.492 -0.4530 -0.2327  2.1595
  364MOL0     H49113   1.859   7.061   6.457  0.3183 -1.6112  1.4367
  364MOL0     H49114   1.706   6.890   6.421 -1.5819 -1.6185 -3.9416
  364MOL0     H49115   1.688   7.017   6.297  0.8141  1.7958  0.3433
  364MOL0     H49116   1.513   6.943   6.540 -0.5185 -0.0482 -0.1677
  364MOL0     H49117   1.485   7.099   6.479 -3.2143 -0.1384  1.0494
  364MOL0     H49118   1.438   6.828   6.341 -2.1919 -0.4490  1.5684
  364MOL0     H49119   1.438   6.985   6.256  1.3493 -0.3867  0.4564
  364MOL0     H49120   1.270   7.044   6.453  0.6511 -1.6567  0.4736
  364MOL0     H49121   1.234   6.875   6.440 -0.6863  0.6526  1.4548
  364MOL0     H49122   1.828   6.987   7.127  1.1587  2.0155 -3.2606
  364MOL0     H49123   1.904   6.987   7.360 -1.4671  2.5884 -2.1668
  364MOL0     H49124   2.219   6.871   7.662  0.7932  0.1571  0.3890
  364MOL0     H49125   2.307   6.860   7.868  0.6710 -1.2893 -2.1709
  364MOL0     H49126   3.458   6.584   9.266  0.8571 -1.2887 -2.4265
  364MOL0     H49127   3.607   6.635   9.450 -1.3752  0.0238 -0.1967
  364MOL0     H49128   4.130   6.736   9.467 -0.0568 -0.9791 -0.6361
  364MOL0     H49129   4.311   6.665   9.592  0.3698  0.8122  0.9433
  364MOL0     H49130   4.390   6.783   9.890 -2.5548  0.4742 -0.8811
  364MOL0     H49131   4.262   6.713   9.995  0.6625 -0.6426  1.1954
  364MOL0     H49132   4.517   6.540   9.946 -0.6076 -0.2459 -0.1750
  364MOL0     H49133   4.443   6.600  10.100 -4.1387 -0.9782 -1.1317
  364MOL0     H49134   4.608   6.776   9.937 -0.8475 -0.4792  0.1938
  364MOL0     H49135   4.696   6.669  10.039  0.2049 -0.1461 -1.7436
  364MOL0     H49136   4.466   6.829  10.160 -0.6507  2.9848 -1.7195
  364MOL0     H49137   4.631   6.898  10.155 -0.3911  0.6512 -0.6780
  364MOL0     H49138   4.654   6.602  10.462  1.2794  2.0028  0.4885
  364MOL0     H49139   4.083   6.574   9.926 -2.3405 -2.0764 -0.7290
  364MOL0     H49140   3.868   6.641   9.804  1.0464 -2.4648  0.2275
  365MOL0     O49141   6.877   3.681   1.626  0.6735  0.2286  0.4397
  365MOL0     C49142   6.789   3.658   1.542 -0.3318  0.0272  0.0056
  365MOL0     O49143   6.695   3.576   1.553 -0.0223  0.7153 -0.4072
  365MOL0     C49144   6.656   3.496   1.658 -0.6005 -0.0554  0.8619
  365MOL0     C49145   6.743   3.444   1.754 -0.2629  0.0820  0.3697
  365MOL0     C49146   6.696   3.354   1.837 -0.9323  0.2677 -0.4616
  365MOL0     C49147   6.570   3.290   1.819  1.2143  1.8806 -0.4006
  365MOL0     O49148   6.548   3.191   1.918  0.3916 -0.7067 -0.4138
  365MOL0     C49149   6.442   3.095   1.887  0.4317 -0.1882 -1.0168
  365MOL0     C49150   6.489   2.994   1.776  0.6710  0.3217  0.7264
  365MOL0     C49151   6.634   2.942   1.787  0.2876  0.6731  0.1463
  365MOL0     C49152   6.656   2.839   1.908  0.4699  0.3639  0.8899
  365MOL0     C49153   6.586   2.711   1.898  0.2092  0.2736  0.3173
  365MOL0     C49154   6.645   2.608   1.994 -1.0444  0.0337  0.1081
  365MOL0     C49155   6.617   2.462   1.963  0.4566  0.3124  0.2538
  365MOL0     C49156   6.708   2.366   2.038  0.2852  0.4000 -1.2761
  365MOL0     N49157   6.657   2.308   2.162  0.0398 -0.4239 -0.2081
  365MOL0     C49158   6.604   2.185   2.181  0.9932  0.0161  0.4774
  365MOL0     C49159   6.587   2.178   2.312 -0.4071  0.1478  0.6052
  365MOL0     C49160   6.538   2.064   2.386  1.5430  0.2175  0.6221
  365MOL0     C49161   6.390   2.065   2.376  0.9533  0.8215  0.1483
  365MOL0     C49162   6.309   2.166   2.463 -0.1480 -0.0711  0.7264
  365MOL0     C49163   6.164   2.145   2.447 -0.2764  0.4953  0.2228
  365MOL0     O49164   6.125   2.174   2.312 -0.7022 -1.2754  0.3320
  365MOL0     C49165   5.993   2.168   2.284 -0.9663  0.0816 -1.2940
  365MOL0     C49166   5.965   2.157   2.149  0.5737  0.6444 -0.2085
  365MOL0     C49167   5.838   2.135   2.097 -0.2296 -0.3244  0.4375
  365MOL0     C49168   5.831   2.129   1.947 -0.2614  0.4160 -0.3667
  365MOL0     C49169   5.726   2.117   2.183  0.8768  0.1679  0.6012
  365MOL0     C49170   5.586   2.117   2.137 -0.9934 -0.4741 -0.0476
  365MOL0     O49171   5.484   2.091   2.232 -0.1889  0.1645  0.2296
  365MOL0     C49172   5.347   2.105   2.184 -0.4578  0.2416  0.3590
  365MOL0     C49173   5.257   2.134   2.273  0.0140  0.3881 -0.3745
  365MOL0     C49174   5.127   2.155   2.246  0.4677  0.4455  0.7117
  365MOL0     C49175   5.083   2.134   2.115  0.5135  0.3822 -0.0748
  365MOL0     O49176   4.955   2.147   2.082 -0.6852 -0.4230  0.2849
  365MOL0     C49177   4.925   2.197   1.951  0.5111  0.2858 -0.5760
  365MOL0     C49178   4.780   2.227   1.950 -0.0319 -0.3194  0.5712
  365MOL0     C49179   4.732   2.343   2.049  0.8653 -0.8006  0.6095
  365MOL0     C49180   4.606   2.304   2.122  0.6900 -0.6089  0.2676
  365MOL0     C49181   4.484   2.298   2.024  0.1359 -0.9488 -0.1809
  365MOL0     C49182   4.356   2.335   2.099  0.1858  0.1723 -0.0548
  365MOL0     C49183   4.320   2.221   2.200 -0.1706  0.3573  0.3451
  365MOL0     C49184   4.198   2.245   2.289  0.5984 -0.6530  0.2420
  365MOL0    Cl49185   4.251   2.362   2.415 -0.0653 -0.0104 -0.4083
  365MOL0     C49186   5.177   2.103   2.015 -0.4764 -0.1247 -0.6043
  365MOL0     C49187   5.305   2.079   2.055 -0.2460 -0.4532 -0.1426
  365MOL0     O49188   5.572   2.161   2.023  0.0854 -0.0605  0.3121
  365MOL0     C49189   5.752   2.131   2.314  0.0510  0.1821  0.3485
  365MOL0     C49190   5.881   2.159   2.368 -1.1651 -0.7442 -0.6353
  365MOL0     N49191   6.626   2.299   2.379  0.6205  0.4586  0.0592
  365MOL0     N49192   6.673   2.370   2.286 -0.5614 -0.1350 -0.3522
  365MOL0     C49193   6.479   3.335   1.720  0.1238  0.6902 -0.0516
  365MOL0     C49194   6.523   3.446   1.640 -1.1644 -0.9156 -0.0061
  365MOL0     C49195   6.780   3.750   1.423 -0.1267  0.0000 -1.0649
  365MOL0     C49196   6.657   3.783   1.365  0.4517 -1.2178  0.8387
  365MOL0     C49197   6.649   3.862   1.251  0.2276  0.0555 -0.2752
  365MOL0     C49198   6.750   3.935   1.202  0.8735 -1.0106 -0.6745
  365MOL0     O49199   6.740   4.018   1.097 -0.0520 -0.6192  0.5092
  365MOL0     C49200   6.837   4.116   1.063 -0.4556 -0.5868  0.6685
  365MOL0     C49201   6.791   4.195   0.937 -0.1194 -1.4425 -0.3161
  365MOL0     C49202   6.730   4.116   0.823 -0.2300 -0.0779 -0.9777
  365MOL0     C49203   6.713   4.203   0.691 -0.0457  0.0483  0.4032
  365MOL0     C49204   6.600   4.291   0.716 -1.0871 -0.6841  0.7649
  365MOL0     C49205   6.488   4.354   0.715  0.8121  0.3396 -0.8930
  365MOL0     C49206   6.872   3.902   1.265 -0.3755  0.0630  0.7877
  365MOL0     C49207   6.892   3.815   1.375  0.9062  0.2177  0.3637
  365MOL0     H49208   6.844   3.470   1.782  0.7403 -3.4634  0.5233
  365MOL0     H49209   6.764   3.317   1.913 -1.6689 -0.6626 -0.2364
  365MOL0     H49210   6.424   3.030   1.973  0.9004  1.1547  0.1371
  365MOL0     H49211   6.345   3.135   1.855  0.3460 -1.5751 -2.6577
  365MOL0     H49212   6.420   2.909   1.778  0.6445  0.3440  0.7661
  365MOL0     H49213   6.484   3.049   1.682  0.1605  1.2997  1.3169
  365MOL0     H49214   6.652   2.890   1.693 -2.2094  3.1640 -1.8929
  365MOL0     H49215   6.701   3.029   1.790 -0.9316  1.7039 -1.2124
  365MOL0     H49216   6.765   2.824   1.912  0.4359 -1.0324 -1.4594
  365MOL0     H49217   6.641   2.873   2.010  4.3228  1.3256  1.3264
  365MOL0     H49218   6.480   2.731   1.918  0.0926 -0.6805  0.6999
  365MOL0     H49219   6.611   2.677   1.797 -0.7043 -0.0785  0.2007
  365MOL0     H49220   6.753   2.611   1.978 -0.8818  0.8504  1.2727
  365MOL0     H49221   6.629   2.638   2.098  3.4206  0.3487  0.9110
  365MOL0     H49222   6.512   2.457   1.993 -0.1147 -1.2332 -1.7493
  365MOL0     H49223   6.621   2.439   1.856 -2.0719 -1.3920  0.4497
  365MOL0     H49224   6.801   2.411   2.074  0.2620 -0.0905 -0.5982
  365MOL0     H49225   6.741   2.288   1.969 -0.7541  0.3097 -1.6870
  365MOL0     H49226   6.581   2.119   2.098 -1.1430 -2.9264  3.1847
  365MOL0     H49227   6.580   1.968   2.356  3.0865  1.3745 -1.1894
  365MOL0     H49228   6.563   2.072   2.492 -0.8523 -1.7099  1.4150
  365MOL0     H49229   6.353   1.966   2.407  2.5089  1.1217  3.4668
  365MOL0     H49230   6.363   2.088   2.273  0.5517  0.7031  0.2234
  365MOL0     H49231   6.328   2.272   2.444 -0.3113  0.1306  1.6387
  365MOL0     H49232   6.325   2.135   2.567 -0.5246 -0.2126  0.7430
  365MOL0     H49233   6.109   2.197   2.527 -0.2949  0.8368 -0.0081
  365MOL0     H49234   6.152   2.039   2.473 -0.9521  1.2624  3.6170
  365MOL0     H49235   6.048   2.177   2.083  0.9729  4.4911  1.1986
  365MOL0     H49236   5.761   2.049   1.921 -1.2654  0.7111  1.2677
  365MOL0     H49237   5.809   2.227   1.903  2.4798  2.2906  2.1094
  365MOL0     H49238   5.931   2.098   1.917 -0.5113  1.2070 -2.1921
  365MOL0     H49239   5.296   2.153   2.372  1.7231  0.7089 -1.0701
  365MOL0     H49240   5.068   2.180   2.334  1.2287 -0.9551  1.6473
  365MOL0     H49241   4.983   2.288   1.931 -0.7611  0.9940 -1.1308
  365MOL0     H49242   4.938   2.129   1.867 -0.6932 -4.2512  2.5368
  365MOL0     H49243   4.764   2.255   1.845  4.3404 -7.8691 -2.9536
  365MOL0     H49244   4.723   2.133   1.961 -0.1684 -0.3583 -0.3294
  365MOL0     H49245   4.722   2.437   1.994 -0.3363 -2.8332 -2.9988
  365MOL0     H49246   4.809   2.358   2.125 -0.1940 -2.2003  2.0218
  365MOL0     H49247   4.622   2.207   2.171  0.8612  0.7118  3.0049
  365MOL0     H49248   4.586   2.370   2.207 -1.7550 -1.4737  0.4413
  365MOL0     H49249   4.472   2.208   1.964 -1.8490 -0.1167 -1.1189
  365MOL0     H49250   4.504   2.385   1.961 -0.7297  3.8146  5.2799
  365MOL0     H49251   4.377   2.425   2.156  2.7365 -0.1503 -0.3978
  365MOL0     H49252   4.292   2.347   2.010  1.5779 -3.3615 -1.7299
  365MOL0     H49253   4.406   2.215   2.267 -0.6955 -0.2848  0.9923
  365MOL0     H49254   4.295   2.132   2.141 -2.9054  1.1354  0.1985
  365MOL0     H49255   4.163   2.155   2.340  1.2202 -1.4325 -0.6588
  365MOL0     H49256   4.114   2.278   2.227  2.3271  0.8907 -1.4319
  365MOL0     H49257   5.164   2.073   1.912  0.7634  0.4047 -0.9418
  365MOL0     H49258   5.374   2.038   1.983  1.6351  2.4099 -0.1434
  365MOL0     H49259   5.675   2.118   2.390 -0.0749 -0.7278  0.0812
  365MOL0     H49260   5.897   2.163   2.475  1.6726  1.0347 -1.0110
  365MOL0     H49261   6.379   3.293   1.710  1.5392 -3.6068  1.5575
  365MOL0     H49262   6.460   3.488   1.562  1.2205  0.2198 -1.4155
  365MOL0     H49263   6.572   3.729   1.407 -1.6119  0.6379 -0.6698
  365MOL0     H49264   6.545   3.872   1.223  0.2153  0.9950  0.0803
  365MOL0     H49265   6.855   4.188   1.144  2.4113  2.9882 -2.7224
  365MOL0     H49266   6.925   4.054   1.040 -1.1215 -1.5319  0.5865
  365MOL0     H49267   6.868   4.257   0.890 -1.9837  2.4715  1.3841
  365MOL0     H49268   6.724   4.269   0.981  0.7346 -1.1933  0.5985
  365MOL0     H49269   6.632   4.092   0.864 -0.2794  1.8916  0.1869
  365MOL0     H49270   6.795   4.029   0.807 -0.9112 -0.4766 -1.6528
  365MOL0     H49271   6.689   4.136   0.608  2.0559  2.6290 -2.5469
  365MOL0     H49272   6.807   4.253   0.667 -0.8548  2.9041  2.6096
  365MOL0     H49273   6.394   4.404   0.726  0.7248  0.0119 -0.0799
  365MOL0     H49274   6.971   3.933   1.232  0.5517 -2.5798  0.8548
  365MOL0     H49275   6.992   3.785   1.405  0.4448 -0.5607  1.1559
  366MOL0     O49276   8.217   0.221   2.881 -0.6053  0.0330 -0.5300
  366MOL0     C49277   8.234   0.139   2.976 -0.1833  0.2271  0.0856
  366MOL0     O49278   8.249  -0.000   2.957 -0.0372 -0.3342 -0.8089
  366MOL0     C49279   8.284  -0.055   2.842  0.4131  0.7886  0.3601
  366MOL0     C49280   8.319   0.000   2.711  0.4556 -0.3983 -1.4885
  366MOL0     C49281   8.326  -0.088   2.600 -0.6349 -0.1252  0.0999
  366MOL0     C49282   8.321  -0.224   2.613  0.8045  0.5150 -0.1646
  366MOL0     O49283   8.346  -0.293   2.491 -0.2398  0.1350 -0.2288
  366MOL0     C49284   8.405  -0.425   2.492 -0.0277  0.4720 -0.1114
  366MOL0     C49285   8.387  -0.485   2.354  0.8371 -0.2021  0.5256
  366MOL0     C49286   8.245  -0.453   2.307 -0.1009 -0.0566  1.2065
  366MOL0     C49287   8.208  -0.551   2.196  0.8278 -0.4862  0.3359
  366MOL0     C49288   8.060  -0.524   2.149  0.7254  0.2528 -0.0586
  366MOL0     C49289   8.044  -0.429   2.035 -0.2738 -0.4595 -0.5259
  366MOL0     C49290   8.111  -0.479   1.906  0.4509  0.9252 -0.0594
  366MOL0     C49291   8.052  -0.434   1.778 -0.5404  0.2957 -0.3198
  366MOL0     N49292   8.073  -0.293   1.737  0.4286  0.2969  0.1047
  366MOL0     C49293   8.192  -0.227   1.722  0.3516  0.9641 -0.1333
  366MOL0     C49294   8.160  -0.099   1.723 -0.0176  1.0220  0.3413
  366MOL0     C49295   8.252   0.020   1.700 -0.1110  0.5842  0.6583
  366MOL0     C49296   8.396  -0.004   1.738  0.0446  1.1480 -0.0030
  366MOL0     C49297   8.476   0.124   1.779 -1.2602  0.3595  0.1137
  366MOL0     C49298   8.624   0.100   1.767  0.5652 -0.7229 -0.2603
  366MOL0     O49299   8.690   0.196   1.847 -0.0150 -0.3521 -0.6574
  366MOL0     C49300   8.830   0.189   1.855 -0.0456 -0.3973  0.1716
  366MOL0     C49301   8.920   0.126   1.756  0.4331 -0.4034 -0.0119
  366MOL0     C49302   9.057   0.112   1.772  0.1477  0.4501 -0.9026
  366MOL0     C49303   9.134   0.016   1.693  0.6044  0.9668  0.8580
  366MOL0     C49304   9.120   0.171   1.884  0.1020  0.5091 -1.0704
  366MOL0     C49305   9.270   0.174   1.923  0.5166  0.4158  0.8942
  366MOL0     O49306   9.295   0.227   2.044  0.2624  0.5199 -0.8601
  366MOL0     C49307   9.428   0.224   2.088 -0.6574  0.2954 -0.2501
  366MOL0     C49308   9.487   0.113   2.157  0.4068 -0.3395 -0.9887
  366MOL0     C49309   9.616   0.135   2.218  0.0696  0.8814 -0.1361
  366MOL0     C49310   9.689   0.258   2.185 -0.9548  0.0677  0.0125
  366MOL0     O49311   9.824   0.277   2.215 -0.0804  0.5499  0.5470
  366MOL0     C49312   9.910   0.161   2.232 -0.3280 -0.0019 -0.7311
  366MOL0     C49313  10.057   0.202   2.197  0.8858 -1.2765  0.8393
  366MOL0     C49314  10.095   0.151   2.052  0.2916 -0.5626 -0.0390
  366MOL0     C49315  10.213   0.228   1.985  0.7973 -0.5174 -0.3344
  366MOL0     C49316  10.348   0.177   2.015 -1.0804 -0.1482 -0.3723
  366MOL0     C49317  10.406   0.176   2.156  0.5700  0.1016  0.1934
  366MOL0     C49318  10.547   0.124   2.154  0.2090 -0.8499  0.5087
  366MOL0     C49319  10.633   0.175   2.268  1.1258  0.1557 -0.7755
  366MOL0    Cl49320  10.795   0.084   2.255 -0.1194  0.0474  0.3945
  366MOL0     C49321   9.631   0.365   2.120  1.2806 -0.0305 -0.3369
  366MOL0     C49322   9.506   0.337   2.066 -0.8895  0.0712 -0.6049
  366MOL0     O49323   9.349   0.132   1.842  0.0639  0.0513 -0.3939
  366MOL0     C49324   9.038   0.242   1.975 -0.6646  0.1042 -0.9310
  366MOL0     C49325   8.897   0.248   1.962  0.1178  0.2667  0.2116
  366MOL0     N49326   8.025  -0.089   1.749  0.3492 -0.5156  0.6829
  366MOL0     N49327   7.971  -0.210   1.761 -0.7954  0.5405  0.0797
  366MOL0     C49328   8.298  -0.280   2.739 -0.3401  0.0680  0.2152
  366MOL0     C49329   8.267  -0.195   2.852  0.0630  0.1549 -0.2895
  366MOL0     C49330   8.232   0.193   3.118 -0.1015  0.1607  0.3229
  366MOL0     C49331   8.232   0.331   3.147 -1.1786 -0.3483  0.4226
  366MOL0     C49332   8.231   0.374   3.285  0.1564  0.6720  0.6727
  366MOL0     C49333   8.214   0.287   3.388 -0.3465  0.0237 -1.0329
  366MOL0     O49334   8.237   0.329   3.517 -0.3414 -0.7481 -0.2314
  366MOL0     C49335   8.370   0.379   3.549  0.0631 -0.1807  0.3568
  366MOL0     C49336   8.377   0.529   3.565 -0.4585 -0.2946  0.4982
  366MOL0     C49337   8.282   0.593   3.677 -0.9064  0.4596  0.7313
  366MOL0     C49338   8.134   0.615   3.633  0.1251  0.4148  0.0963
  366MOL0     C49339   8.067   0.704   3.732  0.7248 -0.5283  0.5127
  366MOL0     C49340   8.006   0.765   3.816  0.6410 -0.3555  0.7998
  366MOL0     C49341   8.208   0.151   3.353  0.9232  0.1725 -0.1837
  366MOL0     C49342   8.203   0.104   3.219 -1.0928 -0.0749  0.2104
  366MOL0     H49343   8.344   0.106   2.713 -0.4381 -0.1532  1.4440
  366MOL0     H49344   8.357  -0.034   2.512 -0.5059  1.3799  1.0392
  366MOL0     H49345   8.512  -0.416   2.509  0.6202 -3.2206 -1.4130
  366MOL0     H49346   8.362  -0.489   2.569 -2.2861  0.3019 -1.4342
  366MOL0     H49347   8.467  -0.452   2.287 -0.9102  0.9618 -1.0698
  366MOL0     H49348   8.386  -0.594   2.353 -3.3096 -0.4669 -3.9578
  366MOL0     H49349   8.171  -0.464   2.387  0.9993  2.0530  2.6220
  366MOL0     H49350   8.252  -0.353   2.262 -0.6875 -0.2253  0.7248
  366MOL0     H49351   8.282  -0.538   2.117  2.7850 -5.3694  0.9930
  366MOL0     H49352   8.216  -0.656   2.225  0.0805 -0.5410  0.3743
  366MOL0     H49353   8.008  -0.618   2.130  2.4243 -0.7301 -0.0449
  366MOL0     H49354   8.006  -0.490   2.239 -0.5340 -1.8275  0.0525
  366MOL0     H49355   7.937  -0.415   2.022 -0.4029 -1.4307 -0.6284
  366MOL0     H49356   8.095  -0.337   2.064  0.8632 -1.5392  1.1264
  366MOL0     H49357   8.214  -0.445   1.895  0.1507  1.6134 -0.8248
  366MOL0     H49358   8.117  -0.588   1.911  2.9116  1.0724  2.2267
  366MOL0     H49359   7.944  -0.447   1.786 -0.3593 -0.3812  1.8891
  366MOL0     H49360   8.088  -0.492   1.693 -1.6896  0.4250 -0.9169
  366MOL0     H49361   8.291  -0.270   1.710  0.3545  1.1766 -0.9364
  366MOL0     H49362   8.243   0.050   1.595  2.4613 -0.1804  0.1349
  366MOL0     H49363   8.214   0.102   1.761  0.8812  0.6962  1.1568
  366MOL0     H49364   8.443  -0.057   1.654 -1.6253 -1.0256  0.3438
  366MOL0     H49365   8.400  -0.068   1.827  2.3452  0.2064 -0.6953
  366MOL0     H49366   8.447   0.143   1.882 -2.9543  1.8928 -0.5965
  366MOL0     H49367   8.449   0.211   1.718 -0.0801 -0.4687 -1.7016
  366MOL0     H49368   8.653   0.109   1.662  2.6920 -1.4762  0.2227
  366MOL0     H49369   8.647   0.007   1.820  1.0057  0.3337  1.5011
  366MOL0     H49370   8.874   0.084   1.668  1.0333 -2.1368  0.4546
  366MOL0     H49371   9.073  -0.056   1.638  3.0860 -0.9346  0.3991
  366MOL0     H49372   9.199   0.071   1.625  1.6150  1.2716  2.0251
  366MOL0     H49373   9.196  -0.047   1.759  2.5578  0.8925 -0.9271
  366MOL0     H49374   9.439   0.018   2.178 -1.2154  0.6677  0.0835
  366MOL0     H49375   9.651   0.058   2.287 -2.6085  0.5439  0.9635
  366MOL0     H49376   9.891   0.129   2.335 -0.3337  1.6944 -0.1678
  366MOL0     H49377   9.888   0.072   2.172  1.2667 -0.8774 -0.0969
  366MOL0     H49378  10.072   0.310   2.192  1.0815 -1.3703 -1.1385
  366MOL0     H49379  10.122   0.168   2.278 -0.4166 -1.1963  1.9556
  366MOL0     H49380  10.007   0.162   1.987 -0.8107  1.0902  1.6382
  366MOL0     H49381  10.131   0.048   2.049  1.7412 -0.0720 -0.6623
  366MOL0     H49382  10.182   0.229   1.880 -2.1697  0.6326  0.4551
  366MOL0     H49383  10.203   0.336   1.997 -1.3428 -0.6948 -0.2333
  366MOL0     H49384  10.418   0.238   1.958  1.5060 -0.2312  2.4362
  366MOL0     H49385  10.359   0.076   1.973 -2.3810 -2.0742  3.4002
  366MOL0     H49386  10.400   0.280   2.186 -1.4933  0.0022  0.2535
  366MOL0     H49387  10.345   0.116   2.224  0.9501  0.6342  1.0093
  366MOL0     H49388  10.602   0.142   2.062  0.4315 -1.3420  0.5422
  366MOL0     H49389  10.532   0.016   2.168 -2.2969 -0.5754  0.3626
  366MOL0     H49390  10.583   0.164   2.365  0.8687  3.2813 -0.4448
  366MOL0     H49391  10.646   0.283   2.257  1.7324  0.4599  2.1757
  366MOL0     H49392   9.677   0.461   2.102  0.6623 -0.2373 -3.6473
  366MOL0     H49393   9.459   0.412   2.002 -1.6923 -0.3232 -0.4959
  366MOL0     H49394   9.082   0.273   2.069  3.5545 -1.8210 -2.0536
  366MOL0     H49395   8.834   0.295   2.037  0.5335  3.4441 -1.2934
  366MOL0     H49396   8.286  -0.388   2.745  2.4406 -0.2994  0.3914
  366MOL0     H49397   8.235  -0.230   2.950  1.7455 -2.8496 -0.6951
  366MOL0     H49398   8.251   0.413   3.077  2.3870  1.5323  3.2492
  366MOL0     H49399   8.253   0.477   3.311  0.1682  0.6080  0.9162
  366MOL0     H49400   8.394   0.334   3.645  0.8842  0.6063  0.5370
  366MOL0     H49401   8.435   0.356   3.464 -1.1296 -1.6140 -0.2167
  366MOL0     H49402   8.354   0.578   3.470 -1.9790 -2.1233 -0.1382
  366MOL0     H49403   8.483   0.551   3.579  0.6179 -3.5639 -1.3921
  366MOL0     H49404   8.333   0.685   3.709 -1.0668  0.9939 -0.4928
  366MOL0     H49405   8.288   0.520   3.758  1.4960 -0.4094 -0.1454
  366MOL0     H49406   8.093   0.515   3.618  2.5522 -0.9962  2.0175
  366MOL0     H49407   8.123   0.675   3.542  0.1794  0.3839  0.0696
  366MOL0     H49408   7.945   0.809   3.893  0.4930  0.3305  0.2932
  366MOL0     H49409   8.204   0.084   3.438  0.8628 -1.6943 -1.6027
  366MOL0     H49410   8.192  -0.001   3.194 -0.1384 -0.1945  0.2778
  367MOL0     O49411   1.281   1.530   4.500 -0.1668 -0.3800 -0.1466
  367MOL0     C49412   1.403   1.566   4.483  0.0175  0.5438 -0.0059
  367MOL0     O49413   1.486   1.495   4.402 -0.5140 -0.0704  0.4438
  367MOL0     C49414   1.437   1.393   4.331  0.5400  0.4806 -0.3160
  367MOL0     C49415   1.323   1.394   4.244 -0.1150 -0.5278 -0.2717
  367MOL0     C49416   1.282   1.281   4.168 -0.4826 -0.3300  0.4615
  367MOL0     C49417   1.358   1.163   4.188  0.8284 -0.2556  0.2310
  367MOL0     O49418   1.322   1.047   4.123  0.2205  0.3670 -0.6974
  367MOL0     C49419   1.188   1.002   4.126  0.2521 -0.0100  0.3074
  367MOL0     C49420   1.178   0.849   4.124 -0.3993 -0.5842  0.7454
  367MOL0     C49421   1.042   0.785   4.156  0.1007  1.1202 -0.7594
  367MOL0     C49422   0.968   0.858   4.271 -0.0837 -0.5574  0.4992
  367MOL0     C49423   0.849   0.771   4.320 -0.6487  0.6428 -0.6247
  367MOL0     C49424   0.713   0.778   4.238 -0.8477 -0.0760  0.6273
  367MOL0     C49425   0.606   0.708   4.308 -0.1872 -0.6192 -0.4923
  367MOL0     C49426   0.630   0.554   4.336  0.3836 -0.3455 -0.2082
  367MOL0     N49427   0.528   0.492   4.421  0.3482  0.1218 -0.7529
  367MOL0     C49428   0.515   0.528   4.550 -0.0945 -0.3570  0.1261
  367MOL0     C49429   0.422   0.441   4.594 -0.6487  0.7948 -0.1091
  367MOL0     C49430   0.363   0.431   4.725  0.0432  0.6325  1.0878
  367MOL0     C49431   0.445   0.358   4.828  0.4346  0.3214 -0.6639
  367MOL0     C49432   0.369   0.311   4.950  0.3636  1.0784 -0.6380
  367MOL0     C49433   0.403   0.169   5.000 -0.4486  0.4516  0.0034
  367MOL0     O49434   0.324   0.133   5.106 -0.4532 -0.5891  0.4518
  367MOL0     C49435   0.348   0.190   5.234  0.4173 -0.5235  0.4213
  367MOL0     C49436   0.448   0.288   5.265  0.4323  0.8261 -0.2128
  367MOL0     C49437   0.492   0.311   5.397 -1.3047 -0.0066 -0.8238
  367MOL0     C49438   0.604   0.420   5.414 -0.7528  0.3141 -0.0486
  367MOL0     C49439   0.410   0.261   5.502 -0.3136  0.3572  0.6716
  367MOL0     C49440   0.432   0.303   5.644  0.2314 -0.1787 -1.7010
  367MOL0     O49441   0.319   0.295   5.723  0.6904  1.1945  0.0074
  367MOL0     C49442   0.321   0.333   5.858  0.7581  0.2051 -0.0764
  367MOL0     C49443   0.200   0.376   5.916  0.4090  0.4849  0.2593
  367MOL0     C49444   0.194   0.416   6.052  0.6530  1.1647  0.0850
  367MOL0     C49445   0.306   0.426   6.135 -0.2285  0.2078  1.2334
  367MOL0     O49446   0.299   0.460   6.261 -0.4562  0.2702 -0.0880
  367MOL0     C49447   0.226   0.369   6.353  1.0120 -0.9947 -0.7636
  367MOL0     C49448   0.235   0.410   6.499 -0.3801 -1.0934  0.8708
  367MOL0     C49449   0.140   0.535   6.527 -0.7468 -0.4248 -0.4080
  367MOL0     C49450   0.165   0.592   6.661  0.3361 -0.3785 -0.5969
  367MOL0     C49451   0.074   0.702   6.713 -0.3675  0.6934  0.3933
  367MOL0     C49452   0.125   0.847   6.687 -0.0826  0.1034  0.5952
  367MOL0     C49453   0.014   0.948   6.679  0.1186 -0.3243  0.3228
  367MOL0     C49454   0.064   1.088   6.694 -0.2463  0.6439 -0.2982
  367MOL0    Cl49455  -0.012   1.222   6.617  0.0693  0.2693 -0.0342
  367MOL0     C49456   0.428   0.375   6.075 -1.2703 -0.1440 -0.5591
  367MOL0     C49457   0.428   0.325   5.946  0.5934 -0.4855  0.6802
  367MOL0     O49458   0.545   0.336   5.687 -0.1371  0.7247 -0.0642
  367MOL0     C49459   0.290   0.186   5.468 -0.1327  1.2568 -0.9841
  367MOL0     C49460   0.270   0.143   5.344 -0.8062 -0.0576  0.5154
  367MOL0     N49461   0.385   0.354   4.492 -0.0826  1.4084 -0.5644
  367MOL0     N49462   0.452   0.391   4.383  0.6105  0.0833  0.4169
  367MOL0     C49463   1.470   1.168   4.268  0.0044  0.0586  0.0800
  367MOL0     C49464   1.514   1.273   4.339 -0.6222  0.7416 -0.1605
  367MOL0     C49465   1.445   1.681   4.565  0.1948  0.1093 -0.5193
  367MOL0     C49466   1.377   1.717   4.677 -0.8929  0.8726 -0.3869
  367MOL0     C49467   1.432   1.829   4.747  1.1465 -0.9620  0.3879
  367MOL0     C49468   1.538   1.900   4.723 -0.4498 -0.0311 -0.1211
  367MOL0     O49469   1.586   2.000   4.804  0.7531  0.5560 -0.5699
  367MOL0     C49470   1.522   2.118   4.789 -0.0330 -0.5344 -0.1523
  367MOL0     C49471   1.441   2.173   4.906 -0.4475  0.1696 -0.4309
  367MOL0     C49472   1.527   2.269   5.001 -0.3499 -0.7321  0.1893
  367MOL0     C49473   1.448   2.349   5.108  0.1634 -0.2432 -0.6142
  367MOL0     C49474   1.361   2.243   5.184 -0.0462  0.0104  0.5825
  367MOL0     C49475   1.282   2.166   5.220 -0.3614 -0.2473 -0.3586
  367MOL0     C49476   1.612   1.852   4.612 -0.0200 -0.2905  1.3149
  367MOL0     C49477   1.565   1.746   4.529 -0.1870 -0.5327 -0.7844
  367MOL0     H49478   1.264   1.485   4.236  0.1624 -0.2312  0.8315
  367MOL0     H49479   1.204   1.298   4.095  1.8045  0.3920 -1.9836
  367MOL0     H49480   1.153   1.044   4.221  2.4638 -0.6883  1.4993
  367MOL0     H49481   1.132   1.045   4.043 -0.0889 -2.9435 -1.1236
  367MOL0     H49482   1.200   0.820   4.020 -3.7315 -0.0320 -0.2268
  367MOL0     H49483   1.257   0.813   4.190  3.1149  1.8011 -1.8011
  367MOL0     H49484   0.964   0.794   4.080 -0.7102  2.5938  0.2257
  367MOL0     H49485   1.057   0.678   4.173  0.6543  1.0419 -1.6561
  367MOL0     H49486   1.027   0.888   4.358 -1.1118  2.8810  0.1345
  367MOL0     H49487   0.923   0.952   4.240  1.3533 -0.3566 -1.1824
  367MOL0     H49488   0.896   0.673   4.330  3.3908  2.4818  0.6754
  367MOL0     H49489   0.819   0.797   4.422  1.6417  1.3875 -0.0923
  367MOL0     H49490   0.682   0.880   4.211 -0.0069 -0.1428 -0.6794
  367MOL0     H49491   0.722   0.730   4.140 -0.6408 -2.4758  1.7691
  367MOL0     H49492   0.585   0.758   4.403  0.9726 -0.4618 -0.2939
  367MOL0     H49493   0.519   0.712   4.242  1.3618  0.9464 -2.5768
  367MOL0     H49494   0.727   0.559   4.386 -0.6504 -0.7779  1.9554
  367MOL0     H49495   0.629   0.500   4.241 -1.0222  2.1320 -1.7304
  367MOL0     H49496   0.577   0.600   4.602  1.2762 -1.5871  0.2715
  367MOL0     H49497   0.350   0.537   4.750 -0.1517  0.7949  0.3358
  367MOL0     H49498   0.268   0.383   4.699 -0.4207  2.7517 -1.5777
  367MOL0     H49499   0.523   0.429   4.856  1.4100 -0.8882 -0.2450
  367MOL0     H49500   0.499   0.270   4.789  2.4049  0.8427  0.7371
  367MOL0     H49501   0.261   0.297   4.936  0.5235 -0.3179 -0.5319
  367MOL0     H49502   0.371   0.386   5.030  0.9340  0.1102  0.2860
  367MOL0     H49503   0.509   0.160   5.025 -0.2373  0.9186 -0.6950
  367MOL0     H49504   0.382   0.097   4.920 -0.7891  1.0997 -0.5014
  367MOL0     H49505   0.494   0.346   5.186 -1.1688  1.4188 -0.7618
  367MOL0     H49506   0.657   0.444   5.322 -0.1128  3.2658  0.9780
  367MOL0     H49507   0.570   0.515   5.456 -0.0785  0.5057  0.0836
  367MOL0     H49508   0.681   0.390   5.486  1.2435  4.1679 -0.3001
  367MOL0     H49509   0.110   0.374   5.855  2.0663 -0.7384 -2.3102
  367MOL0     H49510   0.096   0.445   6.089 -1.3973 -1.0204 -3.0332
  367MOL0     H49511   0.122   0.385   6.324  0.6347 -1.0936  0.4546
  367MOL0     H49512   0.246   0.263   6.338 -3.7821 -2.0962 -0.9547
  367MOL0     H49513   0.219   0.323   6.562 -1.5431 -0.5500  1.3654
  367MOL0     H49514   0.340   0.436   6.513  0.1825 -2.8732  0.2334
  367MOL0     H49515   0.037   0.500   6.515 -0.9020  0.3402 -1.3644
  367MOL0     H49516   0.145   0.620   6.459 -0.4117  0.9841  1.2976
  367MOL0     H49517   0.161   0.511   6.734  1.5069  0.8840  0.9605
  367MOL0     H49518   0.268   0.628   6.670  1.4052 -2.3079 -3.7996
  367MOL0     H49519   0.079   0.694   6.822 -1.1453  1.3854  0.4861
  367MOL0     H49520  -0.028   0.687   6.678 -0.7050  3.9194 -0.3328
  367MOL0     H49521   0.207   0.879   6.753 -1.6609  0.9673  2.2156
  367MOL0     H49522   0.168   0.845   6.587 -0.6882  2.0171  0.2528
  367MOL0     H49523  -0.067   0.945   6.753 -1.0065  3.1490 -0.5569
  367MOL0     H49524  -0.029   0.937   6.579  1.1915 -0.8426 -0.0995
  367MOL0     H49525   0.167   1.096   6.659  0.2981 -1.0781  0.8118
  367MOL0     H49526   0.063   1.118   6.800  2.3062  2.3692 -0.6732
  367MOL0     H49527   0.524   0.373   6.126 -1.4376 -1.1419 -0.2724
  367MOL0     H49528   0.514   0.272   5.907  0.2651 -0.5007 -0.0179
  367MOL0     H49529   0.219   0.163   5.546 -1.1644 -1.3002 -2.5378
  367MOL0     H49530   0.189   0.073   5.325 -0.3862 -0.8490  1.5135
  367MOL0     H49531   1.537   1.084   4.285 -1.0960 -0.8435  0.1142
  367MOL0     H49532   1.605   1.269   4.399  1.1900  1.9495 -2.6369
  367MOL0     H49533   1.294   1.656   4.709  0.4572  0.0622  1.7850
  367MOL0     H49534   1.367   1.866   4.826  0.5110  1.8978 -1.3020
  367MOL0     H49535   1.600   2.191   4.763  0.4666  0.5550  3.7327
  367MOL0     H49536   1.456   2.111   4.703 -0.0751  0.1691 -0.1833
  367MOL0     H49537   1.399   2.093   4.969 -1.7000 -0.1608 -1.6288
  367MOL0     H49538   1.359   2.227   4.859 -0.7007  1.4947  1.4295
  367MOL0     H49539   1.570   2.344   4.935 -1.1763  0.8697  1.4086
  367MOL0     H49540   1.611   2.218   5.049 -1.8680 -0.0943  3.8741
  367MOL0     H49541   1.389   2.429   5.062 -0.0797 -0.2920 -0.3942
  367MOL0     H49542   1.532   2.374   5.173  1.3682 -1.0290 -1.8385
  367MOL0     H49543   1.215   2.097   5.268  0.1492 -0.5839 -0.1197
  367MOL0     H49544   1.707   1.899   4.587 -0.8496  0.4557 -0.7149
  367MOL0     H49545   1.620   1.719   4.439 -0.5298 -2.5723 -0.4347
  368MOL0     O49546   2.143   6.171   8.325 -0.2493 -0.7235 -0.4718
  368MOL0     C49547   2.156   6.096   8.228 -0.1905 -0.3194 -0.8726
  368MOL0     O49548   2.267   6.069   8.162  0.2669 -0.2274  0.6934
  368MOL0     C49549   2.388   6.105   8.211  0.6390  0.7153  0.6164
  368MOL0     C49550   2.494   6.128   8.115  0.7016  1.5804  0.0206
  368MOL0     C49551   2.622   6.151   8.155  0.3706  0.3114  0.0489
  368MOL0     C49552   2.643   6.172   8.292  0.0781  0.4178  0.3372
  368MOL0     O49553   2.766   6.216   8.334 -0.2059  0.3135 -0.9032
  368MOL0     C49554   2.888   6.182   8.264  0.2847  0.2223 -1.3543
  368MOL0     C49555   3.008   6.203   8.368  0.1233 -0.2217  0.5558
  368MOL0     C49556   3.021   6.081   8.453  0.7928 -0.4009 -1.0077
  368MOL0     C49557   3.094   6.090   8.590  0.6041  0.3701 -0.7491
  368MOL0     C49558   3.238   6.124   8.567 -0.3405  0.3055 -0.5293
  368MOL0     C49559   3.308   6.130   8.701  0.6859 -0.1725 -1.0464
  368MOL0     C49560   3.394   6.247   8.714 -0.3400  0.8845  0.2879
  368MOL0     C49561   3.519   6.250   8.626  0.4213 -1.9537  1.8107
  368MOL0     N49562   3.608   6.150   8.671 -0.5236 -0.2968  0.9725
  368MOL0     C49563   3.700   6.167   8.772  0.2755 -0.4931 -0.1331
  368MOL0     C49564   3.793   6.071   8.765  0.3899 -0.3406 -0.3312
  368MOL0     C49565   3.919   6.055   8.848  1.0837  0.4921 -0.8630
  368MOL0     C49566   3.901   6.035   9.003 -0.9034  0.0995  0.2063
  368MOL0     C49567   3.852   5.888   9.028 -0.0342 -0.7964 -0.5574
  368MOL0     C49568   3.864   5.839   9.165 -0.9482 -1.2882  0.4737
  368MOL0     O49569   3.787   5.931   9.252  0.8055  0.0312 -0.1395
  368MOL0     C49570   3.766   5.894   9.385 -0.1409  0.9889 -0.3364
  368MOL0     C49571   3.860   5.836   9.472 -0.1450  0.2823  1.1516
  368MOL0     C49572   3.834   5.826   9.611 -0.3760  0.3080 -0.2036
  368MOL0     C49573   3.941   5.755   9.692 -0.1639 -0.2394  0.7259
  368MOL0     C49574   3.713   5.884   9.662 -0.8319 -0.4250 -0.1638
  368MOL0     C49575   3.681   5.883   9.809  0.4283  0.4198  0.8284
  368MOL0     O49576   3.560   5.943   9.834 -0.0715  0.1579  0.0180
  368MOL0     C49577   3.541   6.025   9.938 -0.1055  0.1468 -1.2688
  368MOL0     C49578   3.639   6.091  10.014  0.4079  0.3289  0.3014
  368MOL0     C49579   3.605   6.166  10.124  0.6113  0.2431 -0.2298
  368MOL0     C49580   3.460   6.168  10.156  0.3668  0.4053  0.0006
  368MOL0     O49581   3.414   6.238  10.264  0.9918  0.7093 -0.6619
  368MOL0     C49582   3.493   6.321  10.349  0.1669  0.0851  0.1007
  368MOL0     C49583   3.415   6.399  10.454 -0.7776 -1.0019  0.1578
  368MOL0     C49584   3.341   6.303  10.547  0.6255  0.4666 -0.2444
  368MOL0     C49585   3.400   6.301  10.688 -0.1644  0.9119 -0.4790
  368MOL0     C49586   3.297   6.251  10.793  0.1254 -1.2676 -0.6187
  368MOL0     C49587   3.214   6.126  10.753 -0.4196 -0.4326  0.8568
  368MOL0     C49588   3.301   6.004  10.733  0.2317  0.5436 -0.9429
  368MOL0     C49589   3.216   5.887  10.687 -0.0453 -0.9536 -0.2430
  368MOL0    Cl49590   3.332   5.752  10.676 -0.9725 -0.1053 -0.1300
  368MOL0     C49591   3.366   6.107  10.071  0.0380  0.1271  0.0940
  368MOL0     C49592   3.409   6.027   9.973  0.3136  1.1510  0.0884
  368MOL0     O49593   3.762   5.855   9.902  0.0167  0.4515 -0.3991
  368MOL0     C49594   3.612   5.932   9.573 -0.2224  0.5846  0.3504
  368MOL0     C49595   3.648   5.939   9.432  0.1624  0.3319 -0.5244
  368MOL0     N49596   3.757   5.993   8.654 -0.0786  0.2266 -0.1222
  368MOL0     N49597   3.651   6.040   8.602  0.8402 -0.6165 -0.5551
  368MOL0     C49598   2.539   6.147   8.388 -0.0737  0.0700  0.5979
  368MOL0     C49599   2.413   6.109   8.351  0.1352  0.1016 -0.1991
  368MOL0     C49600   2.033   6.067   8.146 -0.0832  0.2549  0.5223
  368MOL0     C49601   2.048   6.011   8.017  0.1191  0.3697  0.5713
  368MOL0     C49602   1.939   6.005   7.933  0.2991  0.0924 -0.0710
  368MOL0     C49603   1.811   6.047   7.967  0.4017  0.2014 -1.0044
  368MOL0     O49604   1.718   6.063   7.870  0.1669  0.3546  0.4438
  368MOL0     C49605   1.579   6.044   7.899  0.4872 -0.2037 -0.1026
  368MOL0     C49606   1.509   6.101   7.776 -0.6445  0.0715  1.7434
  368MOL0     C49607   1.545   6.053   7.634 -0.4013  0.4026 -0.7400
  368MOL0     C49608   1.442   6.090   7.535  0.5338  0.8375 -0.0941
  368MOL0     C49609   1.406   6.236   7.524 -0.4184  0.5065  0.1335
  368MOL0     C49610   1.394   6.351   7.525  0.1280 -0.8267  0.0558
  368MOL0     C49611   1.794   6.081   8.101 -0.1120 -0.2543 -0.1963
  368MOL0     C49612   1.901   6.091   8.194 -0.0134 -0.2412 -0.3731
  368MOL0     H49613   2.485   6.112   8.008  1.0038  0.7993  0.1047
  368MOL0     H49614   2.708   6.149   8.089 -0.5735  1.1115 -1.2385
  368MOL0     H49615   2.887   6.081   8.223  1.9968 -2.0609  3.4475
  368MOL0     H49616   2.896   6.260   8.188  0.0174  1.7490  0.1164
  368MOL0     H49617   3.095   6.203   8.302  1.9308 -1.3860  2.7590
  368MOL0     H49618   3.003   6.297   8.423  1.0840  0.5461 -0.6382
  368MOL0     H49619   2.919   6.053   8.480  0.6689  2.2767  1.8583
  368MOL0     H49620   3.072   6.005   8.395 -0.5989 -2.1522 -0.0449
  368MOL0     H49621   3.044   6.153   8.665  0.6224 -0.5225  0.0342
  368MOL0     H49622   3.091   5.988   8.628  0.3896  0.6374 -0.0229
  368MOL0     H49623   3.294   6.063   8.495  0.7854 -0.8807  1.2887
  368MOL0     H49624   3.233   6.225   8.524 -1.3942  0.4612 -0.0807
  368MOL0     H49625   3.237   6.139   8.784  1.3704 -0.0485 -0.4662
  368MOL0     H49626   3.365   6.037   8.711  1.1652  0.2009 -0.2051
  368MOL0     H49627   3.339   6.336   8.682  0.9390  2.9948  3.4746
  368MOL0     H49628   3.433   6.257   8.815  0.2331  0.2722  0.1329
  368MOL0     H49629   3.567   6.348   8.624 -1.4470 -0.8118 -3.9126
  368MOL0     H49630   3.502   6.243   8.518  0.3848  4.5251  1.0321
  368MOL0     H49631   3.704   6.249   8.844 -1.6940  0.4595 -1.0173
  368MOL0     H49632   3.983   5.983   8.795  0.7354  2.2100 -3.8838
  368MOL0     H49633   3.967   6.153   8.837  1.6619  0.6879  2.4706
  368MOL0     H49634   3.821   6.094   9.049 -0.3028  0.1265  1.2556
  368MOL0     H49635   3.996   6.048   9.057 -1.0934  1.9364  0.1762
  368MOL0     H49636   3.920   5.829   8.966  2.7189  1.5910 -0.0003
  368MOL0     H49637   3.749   5.879   8.993 -0.0643 -1.1940 -0.3779
  368MOL0     H49638   3.972   5.839   9.181 -0.5754  1.0312 -1.4953
  368MOL0     H49639   3.831   5.736   9.180 -0.4291 -1.7282 -1.1472
  368MOL0     H49640   3.950   5.799   9.424 -0.3913  2.9117 -1.6387
  368MOL0     H49641   3.885   5.689   9.759 -0.9006  1.4294  1.8291
  368MOL0     H49642   3.997   5.682   9.633 -0.8079 -1.9701  2.1513
  368MOL0     H49643   4.008   5.822   9.748  3.0684 -1.1152 -1.7566
  368MOL0     H49644   3.744   6.080   9.987  0.1192  1.8747 -1.6574
  368MOL0     H49645   3.689   6.222  10.165 -0.5345  1.5273  0.4541
  368MOL0     H49646   3.572   6.257  10.389  2.1660  2.6356  0.4553
  368MOL0     H49647   3.543   6.392  10.283 -0.9518  1.8832  1.1081
  368MOL0     H49648   3.473   6.473  10.509 -1.5714 -0.8509  0.8088
  368MOL0     H49649   3.343   6.467  10.407  1.9472  2.0157  0.0239
  368MOL0     H49650   3.350   6.198  10.517  0.7944 -0.0809  1.5808
  368MOL0     H49651   3.236   6.333  10.556 -0.4617 -2.9800  0.5091
  368MOL0     H49652   3.495   6.247  10.690 -0.9804 -0.6098  2.1760
  368MOL0     H49653   3.422   6.404  10.717  0.5281  0.7452 -0.4125
  368MOL0     H49654   3.219   6.327  10.805  2.1530  0.6417  1.5342
  368MOL0     H49655   3.345   6.233  10.890 -1.2118 -0.8312  0.1427
  368MOL0     H49656   3.137   6.098  10.825 -0.0094 -0.1151  1.4298
  368MOL0     H49657   3.157   6.136  10.660  1.8432  1.9142 -0.4408
  368MOL0     H49658   3.337   5.967  10.829  0.7704 -2.1475 -2.0734
  368MOL0     H49659   3.392   6.024  10.676  0.0497  3.2084 -0.4035
  368MOL0     H49660   3.161   5.897  10.593 -1.4838 -0.5280  0.6263
  368MOL0     H49661   3.135   5.862  10.755 -0.7115  1.6326  0.0255
  368MOL0     H49662   3.261   6.108  10.099 -0.1064 -1.4600 -0.3042
  368MOL0     H49663   3.341   5.978   9.904 -0.3358  1.0181  0.8161
  368MOL0     H49664   3.514   5.968   9.604 -0.8190  2.0536 -2.8621
  368MOL0     H49665   3.578   5.985   9.362  1.4277  0.3481 -1.8178
  368MOL0     H49666   2.555   6.147   8.496 -2.6817 -3.1682  1.1247
  368MOL0     H49667   2.337   6.078   8.422 -0.0091  0.7070 -0.0858
  368MOL0     H49668   2.146   5.988   7.977  0.1474 -0.3383  1.0311
  368MOL0     H49669   1.954   5.982   7.828  1.2508 -1.8326  0.4497
  368MOL0     H49670   1.562   5.937   7.912  0.7842 -0.0496  1.9603
  368MOL0     H49671   1.544   6.095   7.989 -2.6463 -2.0543 -0.1318
  368MOL0     H49672   1.532   6.208   7.781  1.4610 -0.2533  0.3739
  368MOL0     H49673   1.405   6.078   7.799 -1.3906  1.2665 -0.2684
  368MOL0     H49674   1.545   5.944   7.641 -2.4535  0.4945  2.0422
  368MOL0     H49675   1.646   6.087   7.608  0.5638 -1.0322  0.8945
  368MOL0     H49676   1.352   6.035   7.564 -0.2210  1.0926 -1.8000
  368MOL0     H49677   1.473   6.056   7.436  0.9335 -2.9986  1.1881
  368MOL0     H49678   1.368   6.454   7.538  0.2833 -0.7934  0.1013
  368MOL0     H49679   1.695   6.109   8.135  1.1634  1.7975  2.1541
  368MOL0     H49680   1.875   6.123   8.294  2.5461  0.9487 -0.0009
  369MOL0     O49681   7.851   9.051   7.878  0.4365 -0.2263  0.1896
  369MOL0     C49682   7.839   8.942   7.930 -0.7536 -0.3130  0.5272
  369MOL0     O49683   7.760   8.848   7.887 -0.7880 -0.5831 -0.1078
  369MOL0     C49684   7.645   8.888   7.827 -1.4673 -0.0566 -0.7479
  369MOL0     C49685   7.547   8.961   7.909  0.1846 -0.1046  0.4723
  369MOL0     C49686   7.420   8.986   7.842 -0.6137 -1.2199 -0.0346
  369MOL0     C49687   7.406   8.955   7.699 -0.5596 -0.5610  0.4936
  369MOL0     O49688   7.304   8.986   7.611  0.2240 -0.1037  0.4054
  369MOL0     C49689   7.243   9.114   7.647  0.7153  0.2732 -0.1100
  369MOL0     C49690   7.320   9.230   7.568  0.1341  0.8239  0.8317
  369MOL0     C49691   7.314   9.193   7.406  0.7876  0.7442  0.5321
  369MOL0     C49692   7.325   9.315   7.313  0.3976 -0.1982 -1.2995
  369MOL0     C49693   7.282   9.284   7.172 -0.5421  0.2596  0.7543
  369MOL0     C49694   7.218   9.411   7.110  0.2536 -0.1624 -0.3728
  369MOL0     C49695   7.202   9.400   6.963  0.0594 -0.6739  0.5898
  369MOL0     C49696   7.148   9.536   6.900 -0.7574 -0.3882 -0.1692
  369MOL0     N49697   7.111   9.515   6.758 -0.0757 -0.2818  0.2278
  369MOL0     C49698   7.190   9.538   6.644  0.2838 -0.3279  0.7014
  369MOL0     C49699   7.114   9.514   6.542  0.9585  0.0146 -0.5499
  369MOL0     C49700   7.154   9.530   6.401 -1.0537  0.6281 -0.3674
  369MOL0     C49701   7.134   9.673   6.347  0.5242 -0.8571 -0.0245
  369MOL0     C49702   7.227   9.705   6.218 -0.6258  0.5710 -0.1850
  369MOL0     C49703   7.380   9.682   6.230  0.0739 -0.3800 -0.2241
  369MOL0     O49704   7.409   9.741   6.351  0.6589  0.0516 -0.4264
  369MOL0     C49705   7.531   9.799   6.375  0.2904  0.2990 -0.9911
  369MOL0     C49706   7.538   9.912   6.457 -0.2424  0.6524 -0.0373
  369MOL0     C49707   7.656   9.978   6.500  0.5815 -0.5142 -0.4397
  369MOL0     C49708   7.634  10.102   6.586  0.7973  0.2219  0.9592
  369MOL0     C49709   7.777   9.933   6.429 -0.7300  0.5499 -0.1479
  369MOL0     C49710   7.910  10.005   6.448 -0.1342  0.8382 -0.4477
  369MOL0     O49711   7.924  10.078   6.563 -0.0006 -0.1493 -0.7257
  369MOL0     C49712   8.029  10.161   6.582  0.4575 -0.5594 -0.3183
  369MOL0     C49713   8.159  10.153   6.524 -0.3776  0.6028  0.4171
  369MOL0     C49714   8.250  10.247   6.530  1.0652  0.2562  0.9006
  369MOL0     C49715   8.230  10.362   6.602  0.0625  0.5565  0.5770
  369MOL0     O49716   8.349  10.433   6.628  0.0120  0.7331  0.0292
  369MOL0     C49717   8.370  10.475   6.764  0.2617 -0.2508  0.2579
  369MOL0     C49718   8.513  10.497   6.797 -0.7736 -0.1865 -0.8146
  369MOL0     C49719   8.582  10.554   6.663 -0.0910 -0.8180 -0.6087
  369MOL0     C49720   8.731  10.543   6.680 -0.5950 -0.2685 -0.1090
  369MOL0     C49721   8.791  10.615   6.804 -0.8362  0.8522 -0.1073
  369MOL0     C49722   8.781  10.767   6.806  0.3630 -0.8316 -0.7641
  369MOL0     C49723   8.839  10.808   6.936  0.2111  0.4671 -0.3438
  369MOL0     C49724   8.808  10.958   6.961 -0.3151 -0.7068  0.2403
  369MOL0    Cl49725   8.627  10.980   6.998  0.6285  0.0511  0.2034
  369MOL0     C49726   8.107  10.378   6.663 -0.6232 -0.2043 -0.0611
  369MOL0     C49727   8.010  10.283   6.652  0.3135 -0.2183  0.3386
  369MOL0     O49728   7.985   9.992   6.352  0.8430  0.2026 -0.0817
  369MOL0     C49729   7.764   9.819   6.341 -0.7148 -1.0088 -0.2923
  369MOL0     C49730   7.646   9.750   6.319  0.0163  0.4766  0.5665
  369MOL0     N49731   6.982   9.476   6.593  0.3574  0.5307  0.8035
  369MOL0     N49732   6.988   9.466   6.724 -0.2259  0.2107  1.1936
  369MOL0     C49733   7.508   8.893   7.638  0.1438  1.0044 -0.5074
  369MOL0     C49734   7.631   8.864   7.695 -0.2683 -0.5634 -0.3182
  369MOL0     C49735   7.925   8.892   8.042  0.6670 -0.5911  0.1853
  369MOL0     C49736   7.919   8.762   8.091  0.3217 -0.5770  0.4199
  369MOL0     C49737   7.990   8.717   8.202  0.0448 -0.6613  0.9193
  369MOL0     C49738   8.087   8.798   8.261  0.1777 -0.5875 -0.2078
  369MOL0     O49739   8.168   8.768   8.368  0.6811 -0.2110 -0.4914
  369MOL0     C49740   8.177   8.625   8.408 -0.2327  0.5819 -0.1336
  369MOL0     C49741   8.322   8.596   8.421  0.0189  0.6391 -1.1070
  369MOL0     C49742   8.394   8.683   8.534  1.3576  0.0592  0.7087
  369MOL0     C49743   8.544   8.665   8.547  0.1781 -0.5884  0.2797
  369MOL0     C49744   8.629   8.739   8.451  0.0384  0.3912  0.6413
  369MOL0     C49745   8.690   8.800   8.370 -0.3688  0.9502  0.1125
  369MOL0     C49746   8.111   8.928   8.209  0.8740 -0.3149 -0.7215
  369MOL0     C49747   8.029   8.973   8.098 -0.6193 -0.1867  0.3352
  369MOL0     H49748   7.567   8.976   8.014  1.8524  1.5098 -0.0168
  369MOL0     H49749   7.352   9.041   7.906 -0.0829 -0.4174 -0.1489
  369MOL0     H49750   7.141   9.103   7.610  1.1749  0.4632 -1.5023
  369MOL0     H49751   7.233   9.138   7.753 -0.8617 -0.6927 -0.0058
  369MOL0     H49752   7.274   9.328   7.577  0.2329  1.3190 -2.5585
  369MOL0     H49753   7.423   9.243   7.601  0.1071  0.2644  1.1510
  369MOL0     H49754   7.390   9.119   7.379  0.5701  1.3267 -1.9323
  369MOL0     H49755   7.216   9.154   7.378  1.2289  2.0541 -3.3680
  369MOL0     H49756   7.259   9.394   7.351 -1.2965 -3.0671  2.4062
  369MOL0     H49757   7.426   9.357   7.305 -0.8015  2.7645 -2.5662
  369MOL0     H49758   7.377   9.265   7.121 -1.9025  0.1688 -1.8744
  369MOL0     H49759   7.219   9.197   7.153  3.2707 -2.4950 -0.5676
  369MOL0     H49760   7.127   9.423   7.171  0.7804 -3.8928  1.4233
  369MOL0     H49761   7.277   9.500   7.132 -0.5248  0.4671 -0.7813
  369MOL0     H49762   7.298   9.377   6.916 -0.0028 -1.3461  0.7778
  369MOL0     H49763   7.137   9.316   6.933  2.1347 -1.4555 -2.1187
  369MOL0     H49764   7.232   9.606   6.905 -1.9367  1.0189  1.1002
  369MOL0     H49765   7.064   9.584   6.952  1.1406  1.4905  1.3199
  369MOL0     H49766   7.289   9.580   6.634  1.2497 -2.2614  1.6943
  369MOL0     H49767   7.257   9.495   6.399 -1.6990 -1.3290 -1.4191
  369MOL0     H49768   7.084   9.476   6.337 -0.3331  1.4051 -1.8748
  369MOL0     H49769   7.162   9.744   6.425 -1.3628 -0.8546  0.6924
  369MOL0     H49770   7.030   9.699   6.325  1.4723  1.2059 -2.6697
  369MOL0     H49771   7.206   9.811   6.204  0.1329  1.1816  2.6770
  369MOL0     H49772   7.190   9.649   6.132 -0.4800 -1.8728  1.2632
  369MOL0     H49773   7.434   9.722   6.144 -0.2098  0.5384  0.0153
  369MOL0     H49774   7.408   9.576   6.223 -1.3750 -0.7110 -1.6003
  369MOL0     H49775   7.447   9.954   6.500  1.0029  2.2310  1.1728
  369MOL0     H49776   7.558  10.093   6.664 -2.6264  2.1660 -1.8162
  369MOL0     H49777   7.724  10.130   6.642  1.7025 -3.4473  1.6135
  369MOL0     H49778   7.593  10.177   6.517 -1.1071  0.7231  2.5583
  369MOL0     H49779   8.181  10.069   6.459 -2.5772 -0.3111  0.7768
  369MOL0     H49780   8.337  10.240   6.465 -0.0028 -0.6316 -0.4902
  369MOL0     H49781   8.319  10.571   6.774 -0.9374 -0.2346 -3.8701
  369MOL0     H49782   8.322  10.405   6.833  1.7880 -0.8105  0.7838
  369MOL0     H49783   8.526  10.561   6.884  0.9330  0.8146 -1.7383
  369MOL0     H49784   8.551  10.395   6.814  2.3593  1.0970  0.7124
  369MOL0     H49785   8.555  10.658   6.646  2.1710 -0.4259 -2.1575
  369MOL0     H49786   8.557  10.507   6.568 -0.5094  0.7206 -1.2818
  369MOL0     H49787   8.752  10.436   6.688  2.6916  0.3845  3.0358
  369MOL0     H49788   8.790  10.586   6.599  2.6050  1.3220  2.8141
  369MOL0     H49789   8.897  10.588   6.801 -0.9335  0.1223  1.6356
  369MOL0     H49790   8.751  10.563   6.891  1.6000 -3.7256 -1.4370
  369MOL0     H49791   8.823  10.818   6.718 -1.9494  0.3805 -1.2806
  369MOL0     H49792   8.674  10.789   6.804  0.5790  0.6911  1.1838
  369MOL0     H49793   8.946  10.787   6.945 -0.2424 -1.6110  0.8937
  369MOL0     H49794   8.797  10.752   7.020 -3.4304  4.4077  0.8041
  369MOL0     H49795   8.839  11.015   6.873 -1.3485 -1.3496 -0.5696
  369MOL0     H49796   8.872  11.001   7.038  1.1154 -2.4493  0.1018
  369MOL0     H49797   8.088  10.469   6.719 -0.2381  0.1018 -0.4208
  369MOL0     H49798   7.924  10.296   6.717  1.1090  0.1292  1.3501
  369MOL0     H49799   7.856   9.789   6.293 -0.6416 -1.5733  0.1935
  369MOL0     H49800   7.652   9.665   6.252  0.2766  1.1069 -0.2125
  369MOL0     H49801   7.481   8.873   7.535 -4.2014  2.8267  0.0163
  369MOL0     H49802   7.713   8.819   7.640  0.9754  0.7588  0.3827
  369MOL0     H49803   7.866   8.696   8.023  0.3938  0.9957 -1.2383
  369MOL0     H49804   7.994   8.613   8.234  3.4387 -0.3280  1.9398
  369MOL0     H49805   8.120   8.599   8.497 -0.9353  0.8535 -0.5015
  369MOL0     H49806   8.151   8.560   8.324  1.6704  2.8945 -2.7111
  369MOL0     H49807   8.366   8.604   8.321  2.8110 -1.7447 -0.2146
  369MOL0     H49808   8.340   8.495   8.458  0.9356  0.9133 -0.7945
  369MOL0     H49809   8.354   8.663   8.634  1.9771  0.0093  0.9486
  369MOL0     H49810   8.367   8.785   8.505 -1.0343 -0.5293  0.5972
  369MOL0     H49811   8.572   8.559   8.537  0.4145 -0.3491 -2.5472
  369MOL0     H49812   8.581   8.704   8.642  0.4888 -0.0268 -0.0685
  369MOL0     H49813   8.736   8.873   8.306  1.3359  1.3143  1.6785
  369MOL0     H49814   8.167   9.001   8.269  0.7400 -1.8546  1.4102
  369MOL0     H49815   8.041   9.076   8.066 -1.1492 -0.5284 -1.0360
  370MOL0     O49816   2.096   4.407   6.274 -0.2524  0.3935 -0.1940
  370MOL0     C49817   2.178   4.482   6.223 -0.3800  0.5033  0.0424
  370MOL0     O49818   2.186   4.612   6.253 -0.3526  0.1839 -0.2726
  370MOL0     C49819   2.109   4.667   6.343  0.1346  0.6315 -0.2668
  370MOL0     C49820   2.165   4.727   6.461  0.1120 -0.1272 -0.5156
  370MOL0     C49821   2.082   4.795   6.550 -0.4006 -0.9798 -0.5827
  370MOL0     C49822   1.945   4.805   6.531 -0.0507  0.1703  0.6573
  370MOL0     O49823   1.863   4.858   6.624  0.5256 -0.3627  0.3270
  370MOL0     C49824   1.752   4.774   6.659 -0.6390 -0.6188 -1.2403
  370MOL0     C49825   1.694   4.827   6.789  0.0084  0.2236 -0.2136
  370MOL0     C49826   1.632   4.970   6.781 -0.1548 -0.4180  0.0800
  370MOL0     C49827   1.502   4.963   6.710 -0.6085  1.0416 -0.8538
  370MOL0     C49828   1.428   5.101   6.703 -0.2941  0.4046 -0.9702
  370MOL0     C49829   1.304   5.103   6.621  0.1017 -0.3645 -0.3476
  370MOL0     C49830   1.230   5.225   6.653 -0.2618 -0.3781 -0.4981
  370MOL0     C49831   1.102   5.239   6.559  0.0509  0.1983 -0.5691
  370MOL0     N49832   1.075   5.375   6.552  0.1272 -0.6730  0.5701
  370MOL0     C49833   1.140   5.462   6.465 -0.0692 -0.9537  0.4053
  370MOL0     C49834   1.060   5.567   6.477 -0.5934  0.7038  0.3102
  370MOL0     C49835   1.070   5.690   6.389 -0.7728 -0.0330 -0.1228
  370MOL0     C49836   1.186   5.677   6.290 -0.2861  0.7271 -0.0097
  370MOL0     C49837   1.168   5.775   6.177  0.2638  0.4540  1.1575
  370MOL0     C49838   1.289   5.756   6.074  0.4510  0.8258  0.5248
  370MOL0     O49839   1.306   5.616   6.038 -0.5531 -0.1218 -0.6370
  370MOL0     C49840   1.390   5.586   5.933  0.6766 -0.4607  0.4332
  370MOL0     C49841   1.356   5.471   5.865 -0.4824 -0.1298 -0.0946
  370MOL0     C49842   1.443   5.421   5.769  0.1410  0.9094  0.0694
  370MOL0     C49843   1.401   5.296   5.692  0.0586 -0.5263 -0.0237
  370MOL0     C49844   1.562   5.492   5.734 -0.0989 -0.2777 -0.6303
  370MOL0     C49845   1.682   5.433   5.648  0.1666 -0.0411  0.7886
  370MOL0     O49846   1.696   5.292   5.645 -0.2356 -0.3120  0.0452
  370MOL0     C49847   1.806   5.235   5.575  0.1519  0.5430 -0.0699
  370MOL0     C49848   1.929   5.271   5.621 -0.4433  0.6115  0.4397
  370MOL0     C49849   2.046   5.214   5.559 -0.0374 -0.0242 -0.2643
  370MOL0     C49850   2.028   5.123   5.455 -0.4585  1.4214 -0.0829
  370MOL0     O49851   2.129   5.071   5.379 -0.0466 -0.7130  0.1752
  370MOL0     C49852   2.264   5.087   5.412 -0.5339 -0.8190 -0.1977
  370MOL0     C49853   2.319   5.225   5.353  0.6022 -0.0963 -0.3654
  370MOL0     C49854   2.468   5.219   5.327 -0.4287  1.1277 -1.2444
  370MOL0     C49855   2.510   5.328   5.224 -0.4517  0.7872  0.1914
  370MOL0     C49856   2.642   5.299   5.158 -1.4516 -0.2450 -0.4421
  370MOL0     C49857   2.679   5.423   5.069  0.1195 -0.0394  0.4169
  370MOL0     C49858   2.791   5.399   4.978  0.4464  0.5812  0.1064
  370MOL0     C49859   2.914   5.358   5.055 -0.4789  0.2395 -0.1074
  370MOL0    Cl49860   3.046   5.330   4.932  0.4411  0.1469 -0.2421
  370MOL0     C49861   1.897   5.089   5.415 -0.4504  0.2677 -0.9083
  370MOL0     C49862   1.792   5.144   5.474  0.4184  0.0707 -0.2841
  370MOL0     O49863   1.757   5.511   5.588 -0.0838  0.3589 -0.9432
  370MOL0     C49864   1.589   5.609   5.800 -1.0586  0.6751  0.3593
  370MOL0     C49865   1.505   5.660   5.901  0.6193 -0.5748  1.2478
  370MOL0     N49866   0.970   5.558   6.573 -0.1856  0.5402  0.3853
  370MOL0     N49867   0.980   5.447   6.625  0.8019  1.2836  0.0730
  370MOL0     C49868   1.891   4.741   6.416  0.6844 -0.0585 -0.0001
  370MOL0     C49869   1.968   4.676   6.322  0.7188  0.3868  0.5600
  370MOL0     C49870   2.277   4.438   6.116  0.5775 -1.3732  0.2468
  370MOL0     C49871   2.407   4.503   6.109  0.3699  0.5007  0.1667
  370MOL0     C49872   2.497   4.473   6.002 -0.4254  0.0881  1.1074
  370MOL0     C49873   2.472   4.371   5.906 -0.3819  0.7717  0.6313
  370MOL0     O49874   2.564   4.324   5.807  0.4258  0.1341  0.8188
  370MOL0     C49875   2.674   4.399   5.758  0.1977  0.5269  0.4866
  370MOL0     C49876   2.809   4.341   5.810 -0.3873 -0.0372 -0.2903
  370MOL0     C49877   2.837   4.196   5.753 -0.4861  0.4499 -0.0546
  370MOL0     C49878   2.826   4.167   5.591  0.3857  0.0667 -0.5935
  370MOL0     C49879   2.870   4.032   5.541 -1.0425 -0.0324 -0.3847
  370MOL0     C49880   2.915   3.926   5.491 -0.0230  0.2155  0.4133
  370MOL0     C49881   2.347   4.308   5.926  0.5801  0.6305 -0.0369
  370MOL0     C49882   2.252   4.343   6.027 -0.0574  0.4734  0.7691
  370MOL0     H49883   2.271   4.730   6.484 -0.2191  3.0215  1.0893
  370MOL0     H49884   2.137   4.833   6.636  1.6997 -1.6596 -1.5605
  370MOL0     H49885   1.677   4.769   6.580 -1.5540 -4.9028 -0.3506
  370MOL0     H49886   1.782   4.673   6.689 -3.0355 -0.8724  0.6354
  370MOL0     H49887   1.626   4.760   6.843  2.5474 -1.7360  0.7855
  370MOL0     H49888   1.784   4.838   6.850  1.0226  1.4865 -1.8590
  370MOL0     H49889   1.619   5.001   6.885  2.5205 -0.0624  0.3792
  370MOL0     H49890   1.697   5.051   6.745  0.5327 -0.3622  1.3739
  370MOL0     H49891   1.524   4.923   6.610  1.3417 -1.4176  0.4623
  370MOL0     H49892   1.438   4.887   6.755 -1.0495  2.0651  0.3030
  370MOL0     H49893   1.398   5.135   6.803 -1.5073  0.4861 -1.3568
  370MOL0     H49894   1.501   5.172   6.662 -1.9161  2.9718  0.3177
  370MOL0     H49895   1.331   5.107   6.515  0.2953 -0.4811 -0.3044
  370MOL0     H49896   1.247   5.010   6.633  1.2188 -1.2181 -1.3369
  370MOL0     H49897   1.202   5.217   6.759  2.2340 -1.7652  0.1250
  370MOL0     H49898   1.297   5.309   6.638 -0.5144 -0.3348 -1.5017
  370MOL0     H49899   1.012   5.194   6.601 -1.0311 -0.0992 -3.0266
  370MOL0     H49900   1.115   5.200   6.457  3.4330  1.0382 -0.5703
  370MOL0     H49901   1.226   5.439   6.403 -0.8634 -1.3617 -0.5751
  370MOL0     H49902   0.977   5.717   6.337 -0.7668  1.8511  0.7640
  370MOL0     H49903   1.094   5.775   6.453 -0.2982 -2.3593  2.9930
  370MOL0     H49904   1.173   5.589   6.227  2.9054 -1.0737  1.5962
  370MOL0     H49905   1.287   5.664   6.329 -1.0286 -0.8397  1.5380
  370MOL0     H49906   1.181   5.875   6.219  1.3384  0.9464 -0.2507
  370MOL0     H49907   1.077   5.766   6.117  0.5958 -0.7023  0.8006
  370MOL0     H49908   1.385   5.784   6.116  0.3446  3.7051 -0.8473
  370MOL0     H49909   1.262   5.818   5.987  2.1570  0.0584 -0.5946
  370MOL0     H49910   1.263   5.418   5.884 -0.4600 -0.0303  0.2966
  370MOL0     H49911   1.385   5.212   5.761  0.0543 -0.6461 -0.1678
  370MOL0     H49912   1.310   5.291   5.630  1.0853 -0.0825 -1.6401
  370MOL0     H49913   1.470   5.262   5.613 -1.3295 -4.8379  0.3228
  370MOL0     H49914   1.942   5.343   5.702  0.9889 -2.0286  2.7102
  370MOL0     H49915   2.145   5.234   5.599 -0.1113 -1.9898  1.0186
  370MOL0     H49916   2.282   5.090   5.520  3.1963  0.0303 -0.7238
  370MOL0     H49917   2.327   5.010   5.367  0.4927 -3.2121  4.6741
  370MOL0     H49918   2.272   5.235   5.255 -0.0156 -2.7850 -0.4114
  370MOL0     H49919   2.292   5.308   5.419  0.3745  0.2976 -0.9396
  370MOL0     H49920   2.495   5.119   5.291  1.2573  1.2987 -0.5367
  370MOL0     H49921   2.519   5.221   5.424 -0.1867 -3.7563 -1.0071
  370MOL0     H49922   2.423   5.331   5.158  0.5684  0.4771 -1.1942
  370MOL0     H49923   2.508   5.423   5.278 -1.2043  1.4084 -0.9068
  370MOL0     H49924   2.648   5.202   5.107  0.1249 -2.0939  2.9250
  370MOL0     H49925   2.716   5.288   5.237  0.9035 -0.2935 -2.5447
  370MOL0     H49926   2.594   5.457   5.008  0.2322 -2.1501 -1.0256
  370MOL0     H49927   2.696   5.514   5.127 -0.8313 -0.1853  0.9456
  370MOL0     H49928   2.800   5.489   4.917 -1.0455  1.8625  1.6510
  370MOL0     H49929   2.758   5.319   4.911 -1.5401  2.0461 -0.7644
  370MOL0     H49930   2.899   5.260   5.100  0.6138 -0.4134 -1.1231
  370MOL0     H49931   2.936   5.425   5.139 -0.2599 -0.7760  0.6559
  370MOL0     H49932   1.886   5.009   5.342 -0.4244  0.3040 -0.9527
  370MOL0     H49933   1.690   5.118   5.448  0.1270 -0.1535  0.9760
  370MOL0     H49934   1.678   5.666   5.778 -1.6696  1.7099  0.4794
  370MOL0     H49935   1.527   5.756   5.946 -0.6149  0.0914  0.4806
  370MOL0     H49936   1.785   4.757   6.395  0.5997 -1.2569 -0.5670
  370MOL0     H49937   1.927   4.638   6.228  1.6621  0.8565 -0.0583
  370MOL0     H49938   2.433   4.573   6.188  1.1305 -0.6299  0.9358
  370MOL0     H49939   2.601   4.505   6.010 -0.1230 -0.6179  0.2471
  370MOL0     H49940   2.673   4.416   5.650  2.7524 -2.8249 -0.2575
  370MOL0     H49941   2.676   4.494   5.811  1.4493 -0.2387  1.9110
  370MOL0     H49942   2.803   4.327   5.919  0.9778 -0.6568 -0.2646
  370MOL0     H49943   2.890   4.409   5.783 -0.3901 -0.4435 -1.3495
  370MOL0     H49944   2.772   4.124   5.804 -1.8768  0.1184 -2.1569
  370MOL0     H49945   2.937   4.167   5.788 -1.4167 -1.4705  1.1831
  370MOL0     H49946   2.888   4.248   5.552 -1.9520  3.1715  1.6849
  370MOL0     H49947   2.724   4.189   5.559 -1.0387  1.4074  4.1104
  370MOL0     H49948   2.933   3.826   5.456  1.1321  0.2766  0.8097
  370MOL0     H49949   2.329   4.230   5.853  0.4529  2.1095 -1.6629
  370MOL0     H49950   2.157   4.292   6.016 -0.4999  1.7504 -2.2636
  371MOL0     O49951   9.328   4.944  10.731 -0.0687 -0.1064  0.4965
  371MOL0     C49952   9.246   5.015  10.678 -0.1474 -0.5213  0.5783
  371MOL0     O49953   9.165   4.968  10.579 -0.5332 -0.3478  0.3514
  371MOL0     C49954   9.177   4.837  10.548  0.7839 -0.4381  0.5112
  371MOL0     C49955   9.256   4.785  10.443  0.4186  0.2317  0.0621
  371MOL0     C49956   9.249   4.649  10.414  0.2291  0.6649 -1.0119
  371MOL0     C49957   9.149   4.564  10.478 -0.1764 -0.1063  0.3334
  371MOL0     O49958   9.116   4.442  10.439 -0.7091  0.4748 -0.3430
  371MOL0     C49959   9.219   4.355  10.400 -0.3670 -0.4836  0.2967
  371MOL0     C49960   9.158   4.216  10.389  0.8016 -1.4921  0.3544
  371MOL0     C49961   9.136   4.153  10.523  0.3879 -1.2316  0.7614
  371MOL0     C49962   9.003   4.204  10.597  0.4653  0.0788 -0.8119
  371MOL0     C49963   8.938   4.085  10.676  0.5722 -0.0394 -0.2772
  371MOL0     C49964   8.821   4.138  10.768  0.3571 -0.1894 -0.3512
  371MOL0     C49965   8.699   4.182  10.688 -0.3229  0.4321 -1.1092
  371MOL0     C49966   8.595   4.257  10.776 -0.0062  0.8061 -0.1248
  371MOL0     N49967   8.491   4.325  10.699 -0.0428  0.9016 -0.5754
  371MOL0     C49968   8.380   4.259  10.647  0.0335 -0.2066 -0.2818
  371MOL0     C49969   8.303   4.357  10.594 -0.3636 -0.0183  0.3743
  371MOL0     C49970   8.181   4.357  10.507 -1.0744 -0.4471 -0.5848
  371MOL0     C49971   8.070   4.267  10.572 -0.1979  0.1895  0.7058
  371MOL0     C49972   8.097   4.119  10.530  0.9976 -0.4588  0.3273
  371MOL0     C49973   8.044   4.100  10.388  0.4397 -0.0219  1.3276
  371MOL0     O49974   8.080   3.984  10.310  1.0169  1.1322  0.4311
  371MOL0     C49975   7.992   3.920  10.225  0.1730  0.5038 -0.2383
  371MOL0     C49976   8.041   3.797  10.174 -0.6117  0.1167 -0.9453
  371MOL0     C49977   7.968   3.706  10.109  0.0071  0.2530  0.6790
  371MOL0     C49978   8.044   3.585  10.063  0.7855  0.3608 -0.2251
  371MOL0     C49979   7.832   3.739  10.084 -0.4212  1.0194 -0.0676
  371MOL0     C49980   7.745   3.646  10.006 -0.7433  0.8322 -0.3974
  371MOL0     O49981   7.756   3.506  10.032  0.2053  0.4024 -0.0370
  371MOL0     C49982   7.685   3.416   9.948  0.1322  0.3963 -0.0714
  371MOL0     C49983   7.573   3.345   9.989  0.5051 -0.5912 -0.1026
  371MOL0     C49984   7.511   3.243   9.914 -0.0813 -0.5004  0.4911
  371MOL0     C49985   7.568   3.226   9.785 -0.1233  0.5960 -0.1958
  371MOL0     O49986   7.505   3.141   9.703 -0.3129  0.5465 -0.3178
  371MOL0     C49987   7.401   3.201   9.629  0.0128  0.0755  0.3785
  371MOL0     C49988   7.325   3.089   9.553  0.1050 -0.4371  0.0611
  371MOL0     C49989   7.417   3.028   9.445 -0.0249 -0.2516  0.6251
  371MOL0     C49990   7.418   2.880   9.433 -0.2197 -1.0154  0.9970
  371MOL0     C49991   7.532   2.833   9.339  0.1857 -0.3632  0.7798
  371MOL0     C49992   7.498   2.860   9.189  0.5577  0.0894  0.2176
  371MOL0     C49993   7.528   2.759   9.085  0.0896 -1.0464 -0.1861
  371MOL0     C49994   7.675   2.748   9.081 -0.3084  0.1411  0.2896
  371MOL0    Cl49995   7.768   2.899   9.052  0.1266  0.0424 -0.0223
  371MOL0     C49996   7.694   3.289   9.739  0.8682  0.2347 -0.4811
  371MOL0     C49997   7.743   3.381   9.825 -0.7581 -0.5046 -0.7865
  371MOL0     O49998   7.655   3.691   9.935 -0.5530  0.4167 -0.5373
  371MOL0     C49999   7.784   3.867  10.124  0.7975 -0.2178  0.0616
  371MOL0     C50000   7.865   3.966  10.188  0.7649  0.5197  0.3988
  371MOL0     N50001   8.358   4.480  10.634 -0.2110  0.5358  0.5272
  371MOL0     N50002   8.474   4.461  10.680 -0.5260 -0.7631  0.4125
  371MOL0     C50003   9.080   4.621  10.577  0.5446  0.0390  0.5293
  371MOL0     C50004   9.099   4.754  10.619 -0.8084  0.1126 -0.4274
  371MOL0     C50005   9.243   5.164  10.711  0.1037  0.1895  0.1059
  371MOL0     C50006   9.152   5.250  10.650  0.6647 -0.8051  0.8962
  371MOL0     C50007   9.154   5.384  10.688 -0.5185  0.0866 -0.2429
  371MOL0     C50008   9.235   5.429  10.796  0.6154  0.3885 -0.6383
  371MOL0     O50009   9.233   5.554  10.829  0.6023 -0.9838  0.1869
  371MOL0     C50010   9.171   5.651  10.742  0.3715 -0.2986 -0.4942
  371MOL0     C50011   9.193   5.799  10.789 -0.4116  0.3312  0.6412
  371MOL0     C50012   9.106   5.864  10.877 -0.1728  0.5913 -0.0070
  371MOL0     C50013   8.959   5.881  10.834 -0.2301  0.6563 -0.8141
  371MOL0     C50014   8.947   5.946  10.700  0.5756  0.3759 -0.2620
  371MOL0     C50015   8.930   5.993  10.587 -0.2263 -0.4588  0.9231
  371MOL0     C50016   9.321   5.336  10.855 -0.7407  0.5385  0.0685
  371MOL0     C50017   9.323   5.209  10.821  0.1472 -0.8309 -0.0200
  371MOL0     H50018   9.307   4.850  10.373 -0.8080  0.9288 -0.2009
  371MOL0     H50019   9.316   4.610  10.338  0.2758  0.2264 -0.7497
  371MOL0     H50020   9.248   4.385  10.299  0.5956 -1.1961  0.3478
  371MOL0     H50021   9.305   4.358  10.468  1.4682  1.1175 -1.9652
  371MOL0     H50022   9.062   4.205  10.338 -0.3043  1.5306  1.5540
  371MOL0     H50023   9.226   4.152  10.332  2.6346  1.7646 -1.3774
  371MOL0     H50024   9.131   4.046  10.501 -2.5130 -0.5619 -2.7450
  371MOL0     H50025   9.214   4.191  10.590 -0.3881  5.3719 -1.3943
  371MOL0     H50026   9.040   4.281  10.665  0.3188 -0.5821  0.0214
  371MOL0     H50027   8.934   4.238  10.519 -2.8744 -1.9840  1.0428
  371MOL0     H50028   8.897   4.016  10.602 -0.5835 -1.2863  1.4621
  371MOL0     H50029   9.019   4.036  10.730  2.2361 -1.2375 -3.5730
  371MOL0     H50030   8.813   4.060  10.844 -2.8844 -0.6109 -0.9911
  371MOL0     H50031   8.858   4.220  10.831 -0.9973  1.5288 -1.6756
  371MOL0     H50032   8.741   4.258  10.621  2.8157 -2.3019 -2.5483
  371MOL0     H50033   8.656   4.094  10.638  0.7019 -0.3078 -0.7057
  371MOL0     H50034   8.650   4.325  10.842  1.1844  0.9988 -1.2650
  371MOL0     H50035   8.550   4.180  10.839  2.1784 -1.8126 -1.5682
  371MOL0     H50036   8.357   4.154  10.658  0.0367 -0.0031  2.2011
  371MOL0     H50037   8.144   4.458  10.485 -1.4155 -0.4439 -0.0354
  371MOL0     H50038   8.219   4.326  10.409  1.2663 -2.4207  0.8254
  371MOL0     H50039   7.975   4.309  10.538  0.2995  0.8003  0.0359
  371MOL0     H50040   8.082   4.278  10.680  0.0345  3.5935  0.4587
  371MOL0     H50041   8.049   4.052  10.603 -0.3079  0.8772  0.7363
  371MOL0     H50042   8.202   4.090  10.529  1.6604  1.8174 -0.3511
  371MOL0     H50043   8.094   4.176  10.329 -1.1712 -0.8390 -1.2478
  371MOL0     H50044   7.936   4.118  10.400  0.5697  1.2627  0.6822
  371MOL0     H50045   8.137   3.756  10.204 -0.8154 -0.1100 -0.5930
  371MOL0     H50046   8.150   3.602  10.040  0.4089  0.4583 -2.0554
  371MOL0     H50047   8.011   3.512  10.138  3.4761  1.5026  2.2736
  371MOL0     H50048   8.015   3.559   9.961  2.7385  2.5924 -1.4436
  371MOL0     H50049   7.532   3.369  10.087  0.5526  2.1858 -0.6707
  371MOL0     H50050   7.428   3.178   9.940 -1.7441  0.7514 -1.3289
  371MOL0     H50051   7.331   3.260   9.690  0.1504 -1.2575  1.8651
  371MOL0     H50052   7.443   3.273   9.557 -2.1288  0.3987 -0.6396
  371MOL0     H50053   7.290   3.024   9.633 -0.0743  0.1483  0.4603
  371MOL0     H50054   7.232   3.125   9.506  0.8434 -2.0939 -2.9398
  371MOL0     H50055   7.522   3.060   9.448  0.6315 -1.5091 -3.1073
  371MOL0     H50056   7.378   3.077   9.355 -2.6196 -3.2189 -0.0369
  371MOL0     H50057   7.442   2.845   9.534  1.0333 -0.3623  0.9418
  371MOL0     H50058   7.318   2.843   9.408 -0.8204  0.1260  1.6293
  371MOL0     H50059   7.540   2.727   9.364  2.6797 -0.1270  1.2635
  371MOL0     H50060   7.631   2.863   9.376  0.6204 -0.7257 -0.0665
  371MOL0     H50061   7.390   2.878   9.177  0.6670 -0.0613 -1.2008
  371MOL0     H50062   7.546   2.957   9.172  0.8490  0.0402  0.7547
  371MOL0     H50063   7.493   2.792   8.987  1.0910  1.4907  0.2451
  371MOL0     H50064   7.492   2.660   9.114 -4.6406  0.1978 -1.0725
  371MOL0     H50065   7.697   2.676   9.002  1.0728 -1.5522  2.1240
  371MOL0     H50066   7.713   2.699   9.171 -2.9597 -0.0494  1.3925
  371MOL0     H50067   7.724   3.269   9.637 -0.8278  1.2665 -1.2227
  371MOL0     H50068   7.823   3.450   9.802  1.0202 -1.4680  2.0413
  371MOL0     H50069   7.685   3.890  10.088  1.2747 -2.4671 -3.0998
  371MOL0     H50070   7.823   4.061  10.220 -1.7358 -0.1216 -0.7431
  371MOL0     H50071   9.006   4.572  10.640  1.9927 -0.3685  1.9714
  371MOL0     H50072   9.034   4.793  10.696  0.9670  0.5176  0.9435
  371MOL0     H50073   9.077   5.210  10.582  0.1699 -0.3992  1.1924
  371MOL0     H50074   9.074   5.439  10.640 -0.8027 -0.8822 -0.9094
  371MOL0     H50075   9.209   5.637  10.640 -3.6797 -1.3214 -2.0926
  371MOL0     H50076   9.064   5.625  10.738 -0.5038  2.0925  3.0785
  371MOL0     H50077   9.202   5.861  10.699  2.1091  0.0069  0.6076
  371MOL0     H50078   9.291   5.801  10.837  2.0029 -4.2313 -3.1840
  371MOL0     H50079   9.147   5.962  10.903  0.2722  0.1528  1.0191
  371MOL0     H50080   9.112   5.811  10.973 -0.5073  0.8133  0.1410
  371MOL0     H50081   8.902   5.934  10.910 -0.7059 -0.5899 -0.2728
  371MOL0     H50082   8.907   5.785  10.834  0.7190  0.1081  0.7536
  371MOL0     H50083   8.928   6.027  10.485  1.8304 -1.6193  0.4405
  371MOL0     H50084   9.374   5.374  10.942 -0.7504  0.3463  0.1607
  371MOL0     H50085   9.383   5.139  10.879  0.8088  1.9218  2.9004
  372MOL0     O50086   2.872   6.462   9.870  0.0768  0.1941  0.6768
  372MOL0     C50087   2.792   6.518   9.939 -0.2181 -0.4251  0.8256
  372MOL0     O50088   2.706   6.618   9.885 -0.3345  0.5584 -0.2154
  372MOL0     C50089   2.689   6.646   9.749 -0.8568 -0.1914 -0.5897
  372MOL0     C50090   2.563   6.648   9.696 -0.4166 -0.3112  0.5306
  372MOL0     C50091   2.554   6.671   9.557 -0.3744  0.1479 -0.6030
  372MOL0     C50092   2.668   6.690   9.475 -0.9485 -1.0856  0.1755
  372MOL0     O50093   2.629   6.718   9.344  0.2195  0.1649  0.6220
  372MOL0     C50094   2.736   6.723   9.252  0.6701  0.2259  0.0953
  372MOL0     C50095   2.680   6.802   9.140  0.8819  0.3859  0.8695
  372MOL0     C50096   2.787   6.847   9.038  0.5294 -0.8068  0.6426
  372MOL0     C50097   2.838   6.732   8.947  0.2689  0.6058  0.3534
  372MOL0     C50098   2.949   6.798   8.868 -0.3019 -0.5067  0.0468
  372MOL0     C50099   2.915   6.874   8.745 -0.1206 -0.4092  0.3763
  372MOL0     C50100   3.041   6.957   8.703 -0.4530  0.0026  0.1756
  372MOL0     C50101   3.156   6.872   8.635 -0.1534 -1.1511 -0.4414
  372MOL0     N50102   3.131   6.823   8.498  0.0408  0.3533  0.7174
  372MOL0     C50103   3.103   6.910   8.394  0.0277  0.7579 -0.2265
  372MOL0     C50104   3.051   6.839   8.292  0.0466 -0.8093 -0.1463
  372MOL0     C50105   2.973   6.881   8.172  0.1453  0.0106  0.4786
  372MOL0     C50106   2.978   7.020   8.125  0.5237  0.2930 -0.1910
  372MOL0     C50107   2.910   7.044   7.989  0.9886 -0.5687 -0.1124
  372MOL0     C50108   2.875   7.188   7.983  0.2568  0.6438  0.0216
  372MOL0     O50109   2.759   7.221   8.059 -0.5823  0.2219 -0.2383
  372MOL0     C50110   2.719   7.351   8.056  0.5434 -0.5100  0.1646
  372MOL0     C50111   2.793   7.468   8.078  0.1796 -0.2747  0.7449
  372MOL0     C50112   2.740   7.596   8.077 -0.2394 -0.5323  0.2537
  372MOL0     C50113   2.828   7.698   8.134 -0.1834 -0.6372 -0.1202
  372MOL0     C50114   2.604   7.614   8.042  0.3705  0.8125  0.4682
  372MOL0     C50115   2.540   7.748   8.026  0.2009 -0.2575 -0.2295
  372MOL0     O50116   2.614   7.863   8.031 -0.7379  0.3338  0.5147
  372MOL0     C50117   2.539   7.961   7.975 -0.8916  0.8489 -1.1550
  372MOL0     C50118   2.474   8.052   8.060 -0.1156 -0.1376  0.3371
  372MOL0     C50119   2.418   8.167   8.005  0.4826  0.6471 -0.3657
  372MOL0     C50120   2.429   8.191   7.872  0.8608 -0.3361  0.2642
  372MOL0     O50121   2.370   8.289   7.802  0.4418  0.3943  0.0494
  372MOL0     C50122   2.314   8.403   7.857 -0.0254  0.6471  0.0104
  372MOL0     C50123   2.226   8.494   7.764 -0.4552 -0.8183  0.4502
  372MOL0     C50124   2.315   8.600   7.695 -0.2508  0.3266 -0.0949
  372MOL0     C50125   2.253   8.659   7.570  1.0215  0.1943  0.1532
  372MOL0     C50126   2.364   8.715   7.472 -0.2617  0.9801 -0.6895
  372MOL0     C50127   2.288   8.794   7.374  0.2510 -0.4617 -0.2070
  372MOL0     C50128   2.376   8.829   7.257  0.4166  0.1756  0.9259
  372MOL0     C50129   2.323   8.829   7.116 -0.2053  0.0821 -0.5153
  372MOL0    Cl50130   2.437   8.892   6.992 -0.1863 -0.1550  0.1191
  372MOL0     C50131   2.492   8.097   7.793 -0.0675 -0.0473 -0.2323
  372MOL0     C50132   2.537   7.982   7.843 -0.1671 -0.0181 -0.6081
  372MOL0     O50133   2.420   7.738   8.012 -0.1888 -0.5221  0.3347
  372MOL0     C50134   2.536   7.496   7.991  0.1764  0.2238  0.5469
  372MOL0     C50135   2.590   7.365   8.010 -0.3705 -0.3910  0.6386
  372MOL0     N50136   3.029   6.709   8.340 -0.0004 -0.0593  0.0113
  372MOL0     N50137   3.085   6.707   8.458  0.4508 -0.0830 -0.1416
  372MOL0     C50138   2.789   6.689   9.531  0.1294 -0.1467  1.0262
  372MOL0     C50139   2.808   6.663   9.665  0.0315  0.1172 -0.4600
  372MOL0     C50140   2.791   6.508  10.084 -0.0016  1.8341  0.7168
  372MOL0     C50141   2.676   6.553  10.156 -0.1715  0.1584 -0.7911
  372MOL0     C50142   2.667   6.517  10.292  0.2537 -0.3493 -0.7880
  372MOL0     C50143   2.783   6.462  10.362  0.3813 -0.4809  0.1163
  372MOL0     O50144   2.758   6.448  10.496 -0.7666  0.1352 -0.0088
  372MOL0     C50145   2.870   6.406  10.584  0.5495  0.7187 -0.3096
  372MOL0     C50146   2.829   6.434  10.732 -0.0899 -0.6423 -0.5583
  372MOL0     C50147   2.734   6.326  10.791  0.5126 -0.1973 -0.7072
  372MOL0     C50148   2.739   6.313  10.947  0.1289  0.5880  1.3304
  372MOL0     C50149   2.720   6.433  11.015  0.9610 -0.8501  0.4831
  372MOL0     C50150   2.689   6.541  11.061 -0.5617  0.7803  0.6839
  372MOL0     C50151   2.892   6.424  10.286  0.7067 -0.0507  0.1292
  372MOL0     C50152   2.900   6.446  10.143  0.4296 -0.1308 -0.2343
  372MOL0     H50153   2.475   6.625   9.756  1.6423 -2.5230  2.9572
  372MOL0     H50154   2.458   6.650   9.511  0.9603 -0.5097 -3.2581
  372MOL0     H50155   2.815   6.792   9.283 -0.0836  2.7697 -3.1090
  372MOL0     H50156   2.766   6.625   9.212 -0.9024 -0.1178 -0.2853
  372MOL0     H50157   2.605   6.740   9.089  0.7448  2.0257 -1.0403
  372MOL0     H50158   2.632   6.892   9.179  2.6608  2.2515 -1.0246
  372MOL0     H50159   2.753   6.917   8.961 -0.2047 -1.9489 -0.1043
  372MOL0     H50160   2.861   6.905   9.094  1.7979 -1.5679 -0.2194
  372MOL0     H50161   2.868   6.656   9.021  0.4746  1.4726  1.1835
  372MOL0     H50162   2.757   6.687   8.890  1.4567  0.3844 -1.2250
  372MOL0     H50163   3.004   6.864   8.935 -0.4494 -2.6947  2.4958
  372MOL0     H50164   3.019   6.716   8.856  1.0291  0.4660  0.9095
  372MOL0     H50165   2.871   6.812   8.666 -2.4903 -0.3430  1.5773
  372MOL0     H50166   2.834   6.944   8.764 -0.5687 -1.3812  2.2408
  372MOL0     H50167   3.002   7.031   8.633 -1.4923 -0.1363  0.5835
  372MOL0     H50168   3.083   7.006   8.791 -1.8198  0.8131  0.3969
  372MOL0     H50169   3.188   6.790   8.700 -1.0013 -0.9802  0.2141
  372MOL0     H50170   3.249   6.929   8.627  0.5179 -2.1149  0.2970
  372MOL0     H50171   3.107   7.019   8.394  0.3391  0.7863  1.8728
  372MOL0     H50172   3.011   6.814   8.094 -0.7037 -2.4858  2.0748
  372MOL0     H50173   2.871   6.852   8.198  0.0561 -0.1816 -0.0704
  372MOL0     H50174   3.085   7.045   8.119  0.2696  1.0745 -2.0150
  372MOL0     H50175   2.916   7.064   8.204 -0.1793  0.3386 -0.7648
  372MOL0     H50176   2.827   6.976   7.966 -0.9306  0.8581  2.1551
  372MOL0     H50177   2.967   7.022   7.898  0.5195  0.3895 -0.6497
  372MOL0     H50178   2.842   7.213   7.881 -2.9783  2.0834  1.2933
  372MOL0     H50179   2.962   7.250   8.006  0.9056 -0.5322  0.7934
  372MOL0     H50180   2.895   7.451   8.108  1.0922  1.7018 -1.0121
  372MOL0     H50181   2.769   7.748   8.211  2.5386  3.7124 -0.5652
  372MOL0     H50182   2.928   7.670   8.169 -0.6165 -0.1886  1.5690
  372MOL0     H50183   2.847   7.766   8.051  0.7737 -0.1108  0.5088
  372MOL0     H50184   2.468   8.032   8.167 -0.2770 -2.4609 -0.0584
  372MOL0     H50185   2.363   8.244   8.058 -1.4005 -0.4066 -0.7287
  372MOL0     H50186   2.237   8.366   7.924  0.7598 -2.7700 -0.7608
  372MOL0     H50187   2.390   8.474   7.891  0.0676 -0.5397  2.4962
  372MOL0     H50188   2.172   8.430   7.694 -0.8915 -2.7632  2.4438
  372MOL0     H50189   2.155   8.543   7.831  0.6498 -2.8717  3.3637
  372MOL0     H50190   2.418   8.568   7.673  0.3253  2.5178 -0.9325
  372MOL0     H50191   2.313   8.679   7.770 -0.3054  0.0176  0.2309
  372MOL0     H50192   2.205   8.579   7.512  2.9348  1.2472 -3.1108
  372MOL0     H50193   2.178   8.734   7.598 -1.1938 -0.5337 -3.2244
  372MOL0     H50194   2.414   8.626   7.433 -1.0706 -0.6116  1.6554
  372MOL0     H50195   2.441   8.764   7.531  1.1331 -1.3463 -0.4203
  372MOL0     H50196   2.199   8.746   7.333 -0.8083  0.3321  1.0789
  372MOL0     H50197   2.265   8.891   7.418  1.3551 -0.3046  0.0731
  372MOL0     H50198   2.444   8.743   7.259  0.2191 -0.0658 -0.9478
  372MOL0     H50199   2.434   8.922   7.265 -0.5204  1.0463 -1.4178
  372MOL0     H50200   2.234   8.892   7.107  2.0422  3.4383 -0.9734
  372MOL0     H50201   2.305   8.723   7.093  2.2247 -0.8806  1.5884
  372MOL0     H50202   2.498   8.105   7.685  0.9348 -2.4736 -0.4161
  372MOL0     H50203   2.587   7.924   7.766  2.0913  0.2697  0.5653
  372MOL0     H50204   2.436   7.499   7.947 -0.0259 -0.0311  0.9803
  372MOL0     H50205   2.539   7.273   7.985  1.5379 -2.1384  2.7429
  372MOL0     H50206   2.877   6.698   9.469 -0.5569  0.0721  0.0722
  372MOL0     H50207   2.904   6.658   9.714  0.1600  1.0939 -0.5820
  372MOL0     H50208   2.587   6.605  10.123 -1.4173 -0.3455  1.5756
  372MOL0     H50209   2.581   6.561  10.341 -0.4512 -1.3356 -1.1169
  372MOL0     H50210   2.884   6.300  10.564  0.1572  0.5575  0.2539
  372MOL0     H50211   2.964   6.461  10.570  0.7183  0.4651 -0.1681
  372MOL0     H50212   2.786   6.535  10.734  1.0566 -0.1383 -0.8552
  372MOL0     H50213   2.921   6.435  10.792 -1.0042 -3.7682  1.1554
  372MOL0     H50214   2.763   6.234  10.739  0.7883 -0.3199 -0.3416
  372MOL0     H50215   2.630   6.348  10.768  0.0632 -3.8139 -2.9754
  372MOL0     H50216   2.838   6.270  10.964  0.5341 -0.8614 -3.2548
  372MOL0     H50217   2.658   6.245  10.975 -1.1261  0.1781 -2.6550
  372MOL0     H50218   2.665   6.642  11.086 -3.2251 -0.2787  2.8658
  372MOL0     H50219   2.977   6.383  10.340 -0.3235 -3.6962 -0.6940
  372MOL0     H50220   2.993   6.428  10.089  2.3099  1.8836  2.0444
  373MOL0     O50221   5.909   5.833   4.580  0.7347 -0.7271  0.2980
  373MOL0     C50222   6.023   5.860   4.525  0.3274 -0.5854  0.6536
  373MOL0     O50223   6.047   5.957   4.430 -1.1648  0.2750 -0.2070
  373MOL0     C50224   5.943   6.034   4.388  0.1344 -0.4816  0.2156
  373MOL0     C50225   5.917   6.159   4.438  0.1305 -0.7789  0.0235
  373MOL0     C50226   5.817   6.244   4.383  0.7270  0.0869  0.3755
  373MOL0     C50227   5.738   6.198   4.282  0.3989  0.3273  0.4718
  373MOL0     O50228   5.660   6.286   4.235  0.0868 -0.7897 -0.4858
  373MOL0     C50229   5.526   6.251   4.182 -0.2694 -0.3357 -0.3489
  373MOL0     C50230   5.423   6.345   4.239  0.2617  0.8998 -0.5796
  373MOL0     C50231   5.279   6.307   4.195 -0.3152  0.5302  0.3371
  373MOL0     C50232   5.169   6.399   4.258  0.0045  0.6378  0.7340
  373MOL0     C50233   5.044   6.397   4.170  0.5896 -0.5884  0.2586
  373MOL0     C50234   4.976   6.259   4.147  0.9545 -0.1320 -0.3822
  373MOL0     C50235   4.936   6.186   4.281  0.0420 -0.1591  0.5218
  373MOL0     C50236   4.837   6.262   4.371  0.2549 -0.9165  0.2036
  373MOL0     N50237   4.699   6.276   4.303  0.3539 -0.1365  0.0029
  373MOL0     C50238   4.610   6.171   4.278  1.0377 -0.3054  0.1216
  373MOL0     C50239   4.498   6.240   4.230  0.6676  0.2861  0.1197
  373MOL0     C50240   4.357   6.183   4.203  0.5483 -0.7677  0.0144
  373MOL0     C50241   4.345   6.107   4.073 -0.5358 -0.0287  0.4372
  373MOL0     C50242   4.367   6.204   3.949 -0.2669 -0.6968  0.2454
  373MOL0     C50243   4.256   6.299   3.915  0.4096 -0.7563 -0.1638
  373MOL0     O50244   4.124   6.249   3.959 -0.4715  0.5292  0.3060
  373MOL0     C50245   4.013   6.303   3.910 -0.0860 -0.2019  0.5078
  373MOL0     C50246   3.938   6.380   4.001 -0.7087 -1.2878 -0.3062
  373MOL0     C50247   3.829   6.455   3.958 -0.9796  0.4148  0.7472
  373MOL0     C50248   3.751   6.522   4.064 -0.5916 -0.1621 -0.2863
  373MOL0     C50249   3.783   6.440   3.818 -0.4237 -0.0400 -0.6959
  373MOL0     C50250   3.674   6.512   3.760 -0.1093 -0.7953 -0.3149
  373MOL0     O50251   3.569   6.538   3.848 -0.2136 -0.3819  0.4095
  373MOL0     C50252   3.480   6.623   3.809 -0.4626 -0.0720  0.1768
  373MOL0     C50253   3.412   6.609   3.692  0.1799  0.0218 -0.2684
  373MOL0     C50254   3.318   6.699   3.651  0.1075  0.1001  0.4866
  373MOL0     C50255   3.302   6.823   3.723  0.2077 -0.2568 -0.4980
  373MOL0     O50256   3.212   6.921   3.685  0.6127 -0.0819 -0.6498
  373MOL0     C50257   3.118   6.907   3.574 -0.0123  0.6244  0.0867
  373MOL0     C50258   3.021   7.028   3.584 -0.2949  0.0807 -0.1655
  373MOL0     C50259   3.093   7.162   3.558 -0.0869 -0.1021  0.0187
  373MOL0     C50260   2.993   7.284   3.555  0.3057  0.0497  0.2600
  373MOL0     C50261   3.050   7.412   3.501 -0.5154  0.5508 -0.2424
  373MOL0     C50262   2.950   7.524   3.483  0.8640  0.1490 -0.5854
  373MOL0     C50263   3.014   7.657   3.428  0.4678  0.3331  0.3050
  373MOL0     C50264   3.076   7.628   3.297  0.6112  0.4021 -0.6189
  373MOL0    Cl50265   3.124   7.796   3.252  0.2109  0.2172 -0.2527
  373MOL0     C50266   3.369   6.834   3.844  0.8582 -0.4915  0.9497
  373MOL0     C50267   3.454   6.734   3.883  0.0289 -0.0034  0.4866
  373MOL0     O50268   3.691   6.569   3.653  0.0827 -0.2096  0.2536
  373MOL0     C50269   3.861   6.357   3.734 -0.3269 -0.8597 -1.0236
  373MOL0     C50270   3.972   6.292   3.774 -0.5694  0.6276  0.5110
  373MOL0     N50271   4.530   6.374   4.201 -0.1357 -0.4231  0.2980
  373MOL0     N50272   4.655   6.392   4.248 -0.1324  0.7320 -0.4457
  373MOL0     C50273   5.760   6.067   4.229  0.2239 -0.7040 -0.4028
  373MOL0     C50274   5.860   5.983   4.283  0.7202 -0.4090 -0.2264
  373MOL0     C50275   6.133   5.775   4.562 -0.4636  0.1034  0.6227
  373MOL0     C50276   6.264   5.829   4.544  0.3164 -0.0688 -0.8287
  373MOL0     C50277   6.380   5.744   4.576 -0.1785 -0.0164 -1.0339
  373MOL0     C50278   6.367   5.605   4.607  0.0932 -0.5024 -0.0519
  373MOL0     O50279   6.476   5.529   4.617  0.2535 -0.7918 -0.6070
  373MOL0     C50280   6.466   5.399   4.663 -0.1130  0.4086 -0.5765
  373MOL0     C50281   6.609   5.364   4.707  0.3362  0.0853 -0.2046
  373MOL0     C50282   6.619   5.262   4.821  0.1994 -0.1737 -0.6776
  373MOL0     C50283   6.759   5.235   4.861 -0.9626 -0.2193 -0.3463
  373MOL0     C50284   6.843   5.337   4.906  1.1407  0.7495 -0.0605
  373MOL0     C50285   6.908   5.426   4.946  0.0531  0.3659 -1.1320
  373MOL0     C50286   6.236   5.554   4.618 -0.1907  0.3383  0.7536
  373MOL0     C50287   6.123   5.641   4.602  0.7096  0.3942 -0.5209
  373MOL0     H50288   5.992   6.198   4.506 -2.1781  1.1951  1.5867
  373MOL0     H50289   5.801   6.345   4.419 -5.5086  0.1133 -1.3648
  373MOL0     H50290   5.522   6.283   4.077  1.0496 -1.4423 -0.7621
  373MOL0     H50291   5.493   6.146   4.184  0.2208 -0.5117 -1.0703
  373MOL0     H50292   5.421   6.355   4.347  0.3244 -1.6943 -0.2746
  373MOL0     H50293   5.442   6.443   4.194 -4.0992  1.7950 -0.9618
  373MOL0     H50294   5.270   6.308   4.086  1.3221 -1.9141  0.0894
  373MOL0     H50295   5.274   6.204   4.231  2.9587  0.3712  0.7064
  373MOL0     H50296   5.145   6.371   4.361  1.3857 -0.0916  0.8720
  373MOL0     H50297   5.206   6.501   4.272  0.2729  1.3228 -3.7301
  373MOL0     H50298   4.976   6.466   4.221  1.2037 -0.2747  0.6643
  373MOL0     H50299   5.069   6.438   4.071  0.7846 -0.7112  0.2576
  373MOL0     H50300   4.879   6.269   4.097  1.0000  3.1282 -0.0221
  373MOL0     H50301   5.045   6.204   4.082  0.9425 -0.9343  0.2707
  373MOL0     H50302   4.881   6.093   4.264 -0.3910 -0.6706  3.9063
  373MOL0     H50303   5.026   6.166   4.340 -0.0667 -5.3092 -0.5841
  373MOL0     H50304   4.881   6.361   4.384 -0.0086 -0.9697  1.5550
  373MOL0     H50305   4.828   6.217   4.470 -6.1482  0.2380  0.5878
  373MOL0     H50306   4.621   6.066   4.304  0.8382  0.1886  2.4072
  373MOL0     H50307   4.334   6.135   4.298  1.4800 -0.2874  0.4949
  373MOL0     H50308   4.287   6.267   4.192  2.2752  0.8875  1.0360
  373MOL0     H50309   4.247   6.059   4.066 -1.2353  1.3028  0.7348
  373MOL0     H50310   4.416   6.024   4.072  0.9380  1.1680 -1.3070
  373MOL0     H50311   4.374   6.145   3.856 -1.5928  1.1651 -1.1156
  373MOL0     H50312   4.460   6.261   3.951 -0.8215  0.4275 -2.0695
  373MOL0     H50313   4.251   6.325   3.809  0.0231  4.3053  0.8627
  373MOL0     H50314   4.257   6.395   3.967  0.5588 -0.4525 -0.7158
  373MOL0     H50315   3.971   6.397   4.103 -1.3033  0.2716 -0.3368
  373MOL0     H50316   3.674   6.453   4.098 -0.7797 -1.0122 -2.2899
  373MOL0     H50317   3.811   6.553   4.149 -3.4847 -1.9789  2.6405
  373MOL0     H50318   3.703   6.604   4.010 -0.5397 -0.2439 -0.4574
  373MOL0     H50319   3.432   6.521   3.631  2.4686 -0.6838  1.3803
  373MOL0     H50320   3.255   6.687   3.563  0.3773  0.1515  0.2872
  373MOL0     H50321   3.166   6.895   3.476 -1.9336  3.1648 -1.2732
  373MOL0     H50322   3.064   6.814   3.594  2.9117 -0.8326  1.9231
  373MOL0     H50323   2.946   7.012   3.506  1.3069 -2.3644 -1.3489
  373MOL0     H50324   2.982   7.021   3.686  2.2753  3.2983  1.2057
  373MOL0     H50325   3.143   7.160   3.460  2.7083  0.8900  1.3389
  373MOL0     H50326   3.175   7.184   3.627 -0.8143  2.7547  0.1172
  373MOL0     H50327   2.903   7.257   3.498  0.1098 -4.6577  2.2944
  373MOL0     H50328   2.952   7.299   3.655  2.7073  2.0663  1.0346
  373MOL0     H50329   3.088   7.387   3.402  2.7830  0.0901  1.0029
  373MOL0     H50330   3.129   7.444   3.570  0.2053 -0.0482 -0.7762
  373MOL0     H50331   2.881   7.491   3.405  0.4488 -0.7868  0.1571
  373MOL0     H50332   2.896   7.548   3.575  0.8226  0.7611 -0.7625
  373MOL0     H50333   3.087   7.701   3.496 -0.0025 -0.2367  1.1851
  373MOL0     H50334   2.936   7.733   3.419  1.5845  1.8164  2.2880
  373MOL0     H50335   3.002   7.581   3.231 -0.7196  0.0430  1.0603
  373MOL0     H50336   3.165   7.566   3.295 -0.6349 -1.5780  1.1424
  373MOL0     H50337   3.352   6.917   3.912 -2.5569 -0.0485 -0.2605
  373MOL0     H50338   3.507   6.743   3.977  3.8433  2.4933 -1.6584
  373MOL0     H50339   3.838   6.356   3.628 -2.7407  2.0664 -0.6775
  373MOL0     H50340   4.013   6.229   3.697  1.2360  2.6240 -0.2443
  373MOL0     H50341   5.685   6.039   4.155  1.5239 -1.4773 -1.4736
  373MOL0     H50342   5.865   5.886   4.235  1.2248  0.8659 -2.9140
  373MOL0     H50343   6.276   5.936   4.526  2.0185  0.2448  1.6986
  373MOL0     H50344   6.480   5.787   4.572  0.2499 -0.2477  3.1392
  373MOL0     H50345   6.400   5.393   4.749  1.9025 -0.2132  1.0117
  373MOL0     H50346   6.429   5.329   4.587 -0.3715 -1.6255  1.3331
  373MOL0     H50347   6.640   5.457   4.755 -0.1768 -0.1387  0.5815
  373MOL0     H50348   6.659   5.325   4.618  0.4048 -2.1748  0.7665
  373MOL0     H50349   6.562   5.176   4.786 -1.1227  0.7346 -0.8486
  373MOL0     H50350   6.556   5.303   4.901 -3.9011  0.3656 -3.8493
  373MOL0     H50351   6.818   5.192   4.779 -1.7411  1.0751 -1.6301
  373MOL0     H50352   6.757   5.158   4.938  4.8283 -1.6390 -1.1042
  373MOL0     H50353   6.967   5.511   4.975 -1.1052  1.4164 -1.7115
  373MOL0     H50354   6.213   5.449   4.635 -1.0964  0.1950 -1.0462
  373MOL0     H50355   6.024   5.602   4.623  1.1319 -0.2608  0.3313
  374MOL0     O50356   3.428   4.783   7.349  1.4000  0.5244  0.5346
  374MOL0     C50357   3.405   4.816   7.225 -0.0856 -0.2609 -0.4507
  374MOL0     O50358   3.430   4.940   7.175  0.7140  0.3679  1.3934
  374MOL0     C50359   3.495   5.026   7.253 -0.4232  0.1647 -0.3550
  374MOL0     C50360   3.426   5.104   7.345  0.7480  0.9337  0.2872
  374MOL0     C50361   3.490   5.196   7.435 -0.3383 -0.2340 -1.0382
  374MOL0     C50362   3.625   5.184   7.449  0.3766 -0.7135  0.0511
  374MOL0     O50363   3.702   5.259   7.540  0.2180 -0.6705  0.8167
  374MOL0     C50364   3.662   5.385   7.598 -0.4774  0.2256  0.1025
  374MOL0     C50365   3.620   5.364   7.741  0.1580  0.2078 -0.7168
  374MOL0     C50366   3.552   5.487   7.806 -0.0872 -0.3663 -0.0679
  374MOL0     C50367   3.600   5.634   7.759  0.2794  0.3719  0.5847
  374MOL0     C50368   3.561   5.726   7.872  0.1806 -0.3874 -0.1486
  374MOL0     C50369   3.586   5.872   7.849 -0.2061 -0.0981  0.0293
  374MOL0     C50370   3.728   5.914   7.803 -0.1240  0.7988  0.1202
  374MOL0     C50371   3.736   6.063   7.814 -0.3723 -1.5668 -0.5795
  374MOL0     N50372   3.639   6.136   7.729 -0.1915 -0.0796 -0.2540
  374MOL0     C50373   3.536   6.211   7.769  1.8059 -0.0887  0.1711
  374MOL0     C50374   3.507   6.280   7.663  0.3917 -1.4821  0.7561
  374MOL0     C50375   3.391   6.375   7.666  0.1783  0.0134  0.5311
  374MOL0     C50376   3.289   6.357   7.551  0.3903  0.4455  0.2855
  374MOL0     C50377   3.203   6.235   7.574  0.7520  0.6198  0.2821
  374MOL0     C50378   3.069   6.224   7.485  0.2532 -0.8940  0.1848
  374MOL0     O50379   2.960   6.274   7.564 -0.2956  0.6099  0.1326
  374MOL0     C50380   2.851   6.332   7.508  0.1766 -0.1791 -0.2257
  374MOL0     C50381   2.848   6.385   7.380  0.2915 -0.4434 -0.2729
  374MOL0     C50382   2.742   6.463   7.337 -0.1649 -0.7798  0.1138
  374MOL0     C50383   2.751   6.532   7.198  0.2025  0.1400  0.4081
  374MOL0     C50384   2.620   6.476   7.407  0.4479  1.0132 -0.8772
  374MOL0     C50385   2.479   6.530   7.370 -0.8005  0.3029  0.0112
  374MOL0     O50386   2.384   6.525   7.457 -0.6668  0.2395 -0.3748
  374MOL0     C50387   2.259   6.576   7.434 -0.5191  0.0855 -0.0003
  374MOL0     C50388   2.179   6.606   7.552 -0.5988 -0.7061  0.8814
  374MOL0     C50389   2.047   6.641   7.550 -0.1402  0.0612  0.5034
  374MOL0     C50390   1.984   6.658   7.424 -1.0501  0.6470  0.3865
  374MOL0     O50391   1.856   6.704   7.415 -0.2188  0.7919 -0.6307
  374MOL0     C50392   1.772   6.733   7.530 -0.8004  0.2667  1.0680
  374MOL0     C50393   1.622   6.738   7.490 -0.2502  0.6310  0.3987
  374MOL0     C50394   1.590   6.865   7.411 -0.3853  0.3677 -0.9323
  374MOL0     C50395   1.436   6.869   7.390  0.0753 -0.5651  0.8123
  374MOL0     C50396   1.381   6.998   7.316  0.2556 -0.4694  0.4306
  374MOL0     C50397   1.442   7.017   7.176  1.0107 -0.2940 -0.0727
  374MOL0     C50398   1.386   7.144   7.109 -0.1824  0.0094 -0.0125
  374MOL0     C50399   1.479   7.180   6.998  0.4073 -0.8559  0.6799
  374MOL0    Cl50400   1.484   7.051   6.875 -0.6123  0.6150  0.1510
  374MOL0     C50401   2.058   6.633   7.311  0.8672 -0.9485  0.2750
  374MOL0     C50402   2.190   6.589   7.312  0.8426  0.1195 -0.4676
  374MOL0     O50403   2.477   6.595   7.264 -0.8464  0.0376  0.0771
  374MOL0     C50404   2.618   6.419   7.539  0.0000  0.5411  0.5631
  374MOL0     C50405   2.730   6.349   7.582 -0.2153  1.0888 -0.7950
  374MOL0     N50406   3.598   6.265   7.560 -0.1740  1.2019  0.3399
  374MOL0     N50407   3.672   6.163   7.598 -0.0273 -0.0871 -0.5358
  374MOL0     C50408   3.701   5.113   7.363 -0.0030 -0.3291  0.6011
  374MOL0     C50409   3.634   5.028   7.269 -0.7250  1.5733 -0.7554
  374MOL0     C50410   3.353   4.709   7.135  0.1269  0.5455 -0.4899
  374MOL0     C50411   3.360   4.718   6.999  0.6783 -1.2482 -0.5886
  374MOL0     C50412   3.311   4.621   6.926  0.9951 -0.3590 -0.0192
  374MOL0     C50413   3.245   4.509   6.978  0.0336 -0.2223 -1.2954
  374MOL0     O50414   3.184   4.406   6.910  0.0149  0.3121 -0.0899
  374MOL0     C50415   3.184   4.404   6.767 -0.7910 -1.2849  0.3307
  374MOL0     C50416   3.078   4.497   6.709 -0.6689 -0.3843 -0.2327
  374MOL0     C50417   3.017   4.436   6.584  0.6781 -0.5984 -0.8475
  374MOL0     C50418   3.102   4.419   6.472  0.9585 -0.3911 -0.2165
  374MOL0     C50419   3.152   4.549   6.437  0.3762  0.5302 -0.2494
  374MOL0     C50420   3.201   4.655   6.406 -0.1634  0.4044 -1.1159
  374MOL0     C50421   3.230   4.492   7.120  0.2815 -0.1346 -0.2521
  374MOL0     C50422   3.289   4.595   7.194 -0.1533 -0.2709  0.3139
  374MOL0     H50423   3.319   5.098   7.332  0.7599  2.0117 -0.4157
  374MOL0     H50424   3.432   5.264   7.497  0.1151 -1.4629  0.8234
  374MOL0     H50425   3.753   5.446   7.608 -0.0793 -0.3529  0.0382
  374MOL0     H50426   3.594   5.449   7.541 -0.2308  0.1086 -0.3287
  374MOL0     H50427   3.557   5.275   7.732  0.7139 -0.6206  2.4522
  374MOL0     H50428   3.703   5.333   7.806 -3.2314 -1.3763  3.3047
  374MOL0     H50429   3.444   5.483   7.787  0.1918 -1.9734 -1.5115
  374MOL0     H50430   3.567   5.485   7.915 -1.6918  1.0269  0.2245
  374MOL0     H50431   3.708   5.627   7.745  0.4093  1.7268  0.7971
  374MOL0     H50432   3.542   5.663   7.671  2.1597  0.4360 -0.7058
  374MOL0     H50433   3.454   5.709   7.887  0.4551 -0.4252  2.0923
  374MOL0     H50434   3.608   5.694   7.966 -3.0651 -0.1045  1.7332
  374MOL0     H50435   3.518   5.911   7.773 -0.2718 -1.7043 -0.7816
  374MOL0     H50436   3.548   5.923   7.938 -0.1208 -2.1430  1.3076
  374MOL0     H50437   3.797   5.873   7.877  1.0917 -0.8889 -1.8511
  374MOL0     H50438   3.764   5.872   7.709  1.8428  0.0893  1.1360
  374MOL0     H50439   3.834   6.105   7.789 -0.0125 -0.2697  2.4788
  374MOL0     H50440   3.715   6.077   7.921 -4.1110  2.2747 -1.5438
  374MOL0     H50441   3.476   6.214   7.859  0.7022  0.4645 -0.5604
  374MOL0     H50442   3.327   6.379   7.755 -1.3139  3.6372 -0.4912
  374MOL0     H50443   3.444   6.471   7.668  1.8252 -0.8818  1.3029
  374MOL0     H50444   3.343   6.325   7.462  0.8945 -0.9871  1.0675
  374MOL0     H50445   3.232   6.450   7.546 -0.7875 -0.0918  2.4465
  374MOL0     H50446   3.169   6.219   7.677 -3.1322 -2.0106 -1.1743
  374MOL0     H50447   3.267   6.152   7.542  2.1148  1.7823 -0.1368
  374MOL0     H50448   3.048   6.119   7.460  3.8326 -1.2574 -2.1163
  374MOL0     H50449   3.085   6.271   7.387 -3.2856  2.0289  0.7799
  374MOL0     H50450   2.943   6.395   7.328  1.1135 -0.6021  1.1452
  374MOL0     H50451   2.704   6.630   7.194  1.2342  0.5978 -1.3794
  374MOL0     H50452   2.850   6.537   7.152  1.5458  0.7361  3.1099
  374MOL0     H50453   2.689   6.477   7.127  0.5686 -2.1031  1.7185
  374MOL0     H50454   2.228   6.605   7.648  1.8412  1.7387 -0.2167
  374MOL0     H50455   1.997   6.653   7.646 -2.8672  1.6011 -0.9911
  374MOL0     H50456   1.789   6.654   7.604  3.9445 -0.4157 -0.3893
  374MOL0     H50457   1.804   6.823   7.582 -0.2365 -0.4221  1.9496
  374MOL0     H50458   1.604   6.646   7.434  0.0713  0.0047  1.2993
  374MOL0     H50459   1.553   6.732   7.574 -0.7792 -0.3211 -0.0961
  374MOL0     H50460   1.652   6.866   7.321  1.9474 -1.6909  0.4986
  374MOL0     H50461   1.623   6.951   7.471 -3.1702  1.7315 -1.2237
  374MOL0     H50462   1.404   6.783   7.330  0.2168  0.7018 -1.1975
  374MOL0     H50463   1.379   6.867   7.483  2.0012  2.1252  2.1804
  374MOL0     H50464   1.394   7.088   7.376  0.1960 -0.9975  1.2544
  374MOL0     H50465   1.276   6.974   7.301  0.6781 -3.4000  1.5248
  374MOL0     H50466   1.547   7.032   7.204  1.2983  0.9180 -1.6436
  374MOL0     H50467   1.438   6.927   7.114 -1.0481 -0.9468  0.9247
  374MOL0     H50468   1.368   7.226   7.179  1.5026 -0.0283  0.5033
  374MOL0     H50469   1.290   7.123   7.063  0.1175  0.6932 -0.9850
  374MOL0     H50470   1.579   7.202   7.037  0.2932  2.9077 -0.7165
  374MOL0     H50471   1.424   7.263   6.953 -0.9723 -1.6310  0.9138
  374MOL0     H50472   2.007   6.651   7.217  6.4584 -0.5474 -3.1131
  374MOL0     H50473   2.246   6.552   7.227 -0.7763 -2.0086 -0.6953
  374MOL0     H50474   2.528   6.415   7.600 -1.5774 -2.1995 -1.6826
  374MOL0     H50475   2.725   6.310   7.683  0.7351  5.1059  1.0330
  374MOL0     H50476   3.810   5.114   7.364  0.1690  0.0237 -3.3286
  374MOL0     H50477   3.696   4.969   7.202 -1.3470  1.9071 -1.6397
  374MOL0     H50478   3.416   4.801   6.957 -0.1607  0.1097  0.8752
  374MOL0     H50479   3.302   4.641   6.820  1.7546 -0.2546 -0.0734
  374MOL0     H50480   3.277   4.437   6.719  0.8107 -1.4709  3.0907
  374MOL0     H50481   3.152   4.301   6.748 -0.2875 -1.7453  1.8226
  374MOL0     H50482   3.128   4.594   6.696 -2.4570  0.5050 -0.8201
  374MOL0     H50483   3.002   4.526   6.782 -1.0885  0.5386 -1.0095
  374MOL0     H50484   2.936   4.501   6.552  0.4826 -1.1875 -1.5839
  374MOL0     H50485   2.971   4.341   6.613  2.5469 -1.1010  0.7111
  374MOL0     H50486   3.045   4.369   6.393 -0.9944 -1.2130  1.6248
  374MOL0     H50487   3.180   4.345   6.488 -0.1155 -2.6286 -4.0222
  374MOL0     H50488   3.256   4.743   6.379 -1.4400  1.5745 -0.1072
  374MOL0     H50489   3.181   4.404   7.160  2.1501 -1.8779 -1.5858
  374MOL0     H50490   3.292   4.582   7.302 -1.2101  0.9950  0.5260
  375MOL0     O50491  11.223   8.905   9.040  0.5867 -0.1048 -0.1455
  375MOL0     C50492  11.178   9.015   9.067 -0.0876 -1.2131  0.4286
  375MOL0     O50493  11.225   9.134   9.004  0.9732 -0.8741 -0.3036
  375MOL0     C50494  11.329   9.126   8.918 -0.3404  0.3046 -0.1154
  375MOL0     C50495  11.457   9.056   8.947 -0.2023 -0.4561  0.5746
  375MOL0     C50496  11.563   9.079   8.863  0.5039  0.0973 -0.1971
  375MOL0     C50497  11.545   9.168   8.751 -0.6056  1.3307  0.4066
  375MOL0     O50498  11.650   9.194   8.668  0.6325 -0.1772 -0.1951
  375MOL0     C50499  11.714   9.089   8.578  0.4788 -0.2003 -0.0349
  375MOL0     C50500  11.836   9.148   8.511  0.3440  0.1885 -0.0021
  375MOL0     C50501  11.814   9.286   8.455  0.3208  0.6640  0.8029
  375MOL0     C50502  11.895   9.318   8.328 -0.5170  0.3637  0.5924
  375MOL0     C50503  11.918   9.469   8.304  0.2879 -0.4449  0.2041
  375MOL0     C50504  12.016   9.543   8.393  0.3291 -0.2535 -1.0518
  375MOL0     C50505  12.031   9.691   8.372  0.8587 -1.1378  0.1784
  375MOL0     C50506  11.895   9.758   8.421 -0.4804 -0.0393  0.8002
  375MOL0     N50507  11.922   9.902   8.436 -0.8573  0.1212 -0.0743
  375MOL0     C50508  11.973   9.960   8.548 -0.3605  0.4990 -0.5305
  375MOL0     C50509  11.949  10.089   8.541 -1.6603 -0.0945  0.6314
  375MOL0     C50510  11.956  10.205   8.639  0.4818  1.5973  0.4511
  375MOL0     C50511  12.081  10.262   8.689 -0.3937  0.8583  1.1439
  375MOL0     C50512  12.194  10.157   8.714  0.4532  0.2474  0.1270
  375MOL0     C50513  12.285  10.121   8.596 -0.0389 -0.5919 -0.4470
  375MOL0     O50514  12.332  10.242   8.537 -0.1143 -0.4122 -0.0605
  375MOL0     C50515  12.428  10.308   8.604 -0.8705 -0.0607  0.0607
  375MOL0     C50516  12.400  10.424   8.683  0.3811  0.7462 -0.8155
  375MOL0     C50517  12.486  10.487   8.773  0.7332  0.6074  0.2006
  375MOL0     C50518  12.421  10.603   8.848  0.9841  0.8651  0.3254
  375MOL0     C50519  12.611  10.447   8.776 -0.1496  0.4466  0.1664
  375MOL0     C50520  12.718  10.516   8.851 -1.0896  0.4287  0.1258
  375MOL0     O50521  12.840  10.449   8.848 -0.0626  0.0796  0.1629
  375MOL0     C50522  12.945  10.502   8.920  0.2647  0.1061  0.6770
  375MOL0     C50523  13.047  10.571   8.857 -0.5049  0.8491 -0.0005
  375MOL0     C50524  13.164  10.606   8.922 -0.0823  0.3157 -0.4209
  375MOL0     C50525  13.186  10.544   9.055  0.1606  0.2733  0.2863
  375MOL0     O50526  13.303  10.565   9.118  0.0346 -0.1968 -0.1568
  375MOL0     C50527  13.365  10.450   9.185 -0.0490  0.7822 -0.4575
  375MOL0     C50528  13.486  10.485   9.256  0.5817  0.0584 -0.1347
  375MOL0     C50529  13.480  10.616   9.341  0.3611 -0.4434  0.0158
  375MOL0     C50530  13.393  10.600   9.476  0.2907  0.8166  0.1278
  375MOL0     C50531  13.425  10.693   9.589 -0.9616  0.6539 -0.6197
  375MOL0     C50532  13.328  10.675   9.708 -0.9713  1.0596 -0.2585
  375MOL0     C50533  13.349  10.789   9.805 -0.1286  0.3641 -0.5507
  375MOL0     C50534  13.251  10.796   9.926 -0.0106  0.1645 -0.0292
  375MOL0    Cl50535  13.331  10.771  10.081 -0.3039  0.2851 -0.1761
  375MOL0     C50536  13.077  10.478   9.118  0.8879 -0.3227 -0.3749
  375MOL0     C50537  12.956  10.467   9.055 -0.8038  0.4656 -0.0561
  375MOL0     O50538  12.696  10.610   8.925 -1.1644 -0.0877 -0.2737
  375MOL0     C50539  12.650  10.336   8.701  0.2036  0.2348 -0.0575
  375MOL0     C50540  12.565  10.262   8.612  0.0457  0.5238 -0.0573
  375MOL0     N50541  11.904  10.110   8.411  0.1006 -0.4130  0.3993
  375MOL0     N50542  11.871   9.995   8.346  0.5843 -0.7514 -0.2873
  375MOL0     C50543  11.422   9.210   8.710 -0.2377  0.3780 -0.5330
  375MOL0     C50544  11.314   9.199   8.793  0.0130  0.5245 -1.0244
  375MOL0     C50545  11.062   9.025   9.151 -0.0323  0.1815 -0.7679
  375MOL0     C50546  11.017   9.133   9.231 -0.2070  0.0674  0.0618
  375MOL0     C50547  10.908   9.123   9.317 -0.7137 -0.1488  0.0273
  375MOL0     C50548  10.841   8.999   9.322 -0.7611  1.0825  0.3088
  375MOL0     O50549  10.724   8.990   9.394 -0.0470  0.2915  0.6608
  375MOL0     C50550  10.683   9.071   9.502  0.0031 -0.1317  0.1370
  375MOL0     C50551  10.606   9.197   9.454 -0.7862  0.6122  0.0290
  375MOL0     C50552  10.468   9.165   9.391  0.2936  0.1958 -0.5902
  375MOL0     C50553  10.389   9.284   9.364  0.3925  0.0046  0.4916
  375MOL0     C50554  10.378   9.374   9.475  0.2027  0.4431  0.1258
  375MOL0     C50555  10.366   9.464   9.561  0.0801  0.0166 -0.5770
  375MOL0     C50556  10.880   8.894   9.249 -0.0741 -0.0837  0.1406
  375MOL0     C50557  10.982   8.904   9.162  0.2205 -0.9382  0.6311
  375MOL0     H50558  11.468   9.004   9.041  1.5894  0.7648  1.0798
  375MOL0     H50559  11.659   9.038   8.894  0.1731  0.7604  1.9072
  375MOL0     H50560  11.733   8.992   8.625 -0.2613 -0.4291 -0.1944
  375MOL0     H50561  11.637   9.073   8.502 -2.8899  1.6255  2.6725
  375MOL0     H50562  11.923   9.155   8.577 -1.4046  0.5384  2.4210
  375MOL0     H50563  11.862   9.075   8.434 -0.9369 -1.7104  1.2585
  375MOL0     H50564  11.709   9.291   8.424  0.4859 -1.7839 -0.3696
  375MOL0     H50565  11.847   9.358   8.530  1.2789 -0.5626  1.5996
  375MOL0     H50566  11.980   9.249   8.320 -0.4147  0.5901 -0.3322
  375MOL0     H50567  11.835   9.280   8.246 -1.5773 -0.0371  1.5235
  375MOL0     H50568  11.963   9.475   8.204  1.4482  1.8168  0.8089
  375MOL0     H50569  11.819   9.515   8.300  1.6013  2.5601 -1.2012
  375MOL0     H50570  11.982   9.532   8.496  0.9183 -0.5771 -0.8876
  375MOL0     H50571  12.116   9.509   8.367  0.4104 -0.1970 -0.8147
  375MOL0     H50572  12.109   9.740   8.430 -0.1810  2.3967 -1.1653
  375MOL0     H50573  12.040   9.713   8.265 -0.6610 -1.4405 -0.0406
  375MOL0     H50574  11.859   9.725   8.519 -0.7036  0.0023  0.7315
  375MOL0     H50575  11.816   9.731   8.351  0.7500 -0.4004 -0.4764
  375MOL0     H50576  11.992   9.921   8.647  1.3405 -2.3014 -1.8569
  375MOL0     H50577  11.884  10.286   8.626  1.5122  2.2544 -1.6737
  375MOL0     H50578  11.925  10.155   8.731  3.1956  0.5473  0.9118
  375MOL0     H50579  12.071  10.319   8.782  2.1087 -0.6129  2.4190
  375MOL0     H50580  12.108  10.333   8.611  0.9220 -1.8535 -1.0407
  375MOL0     H50581  12.164  10.059   8.751  1.4885  0.4166  1.5214
  375MOL0     H50582  12.255  10.208   8.790 -1.4077  5.2607 -1.3149
  375MOL0     H50583  12.231  10.065   8.520  1.9352 -4.4795  0.7425
  375MOL0     H50584  12.360  10.044   8.618  0.0569 -0.8403 -1.6083
  375MOL0     H50585  12.298  10.461   8.675 -0.5209 -1.6389 -1.2389
  375MOL0     H50586  12.442  10.698   8.798 -3.0668  0.7639 -1.9665
  375MOL0     H50587  12.315  10.583   8.835  1.3622 -1.1619  0.0896
  375MOL0     H50588  12.441  10.609   8.956  0.4583  0.6972  0.4354
  375MOL0     H50589  13.040  10.605   8.755  0.1072 -0.4272 -0.4897
  375MOL0     H50590  13.235  10.683   8.893 -0.3909  3.0629  4.8369
  375MOL0     H50591  13.290  10.416   9.257 -1.4227  1.4981 -1.4994
  375MOL0     H50592  13.380  10.371   9.111 -0.6624  0.1922  0.0366
  375MOL0     H50593  13.516  10.399   9.317  3.2783  0.3477 -0.8891
  375MOL0     H50594  13.561  10.500   9.178  0.0873 -1.7596 -1.0012
  375MOL0     H50595  13.436  10.692   9.277 -2.7486 -2.8984 -1.0036
  375MOL0     H50596  13.580  10.658   9.357  0.5080 -0.7536 -0.0579
  375MOL0     H50597  13.286  10.610   9.454  0.3097 -0.5714 -0.7253
  375MOL0     H50598  13.406  10.499   9.516 -0.1951  1.2267  1.3871
  375MOL0     H50599  13.436  10.795   9.553 -2.2129  0.1171 -2.7488
  375MOL0     H50600  13.524  10.669   9.629 -2.9754 -3.8752  2.5497
  375MOL0     H50601  13.225  10.669   9.673 -0.9241 -1.2786 -0.1118
  375MOL0     H50602  13.365  10.584   9.756  2.8208  2.6253  0.1414
  375MOL0     H50603  13.344  10.888   9.759  3.0311  0.6938 -0.4013
  375MOL0     H50604  13.451  10.776   9.841  0.3742  0.9707 -1.6804
  375MOL0     H50605  13.180  10.713   9.920 -1.1423  0.7913  2.8420
  375MOL0     H50606  13.200  10.893   9.925 -2.6202 -0.8607  4.1113
  375MOL0     H50607  13.082  10.442   9.221  1.1162 -2.1440 -0.9807
  375MOL0     H50608  12.880  10.404   9.099 -0.0778  0.7342  1.6606
  375MOL0     H50609  12.747  10.291   8.722 -0.4144 -1.0267  0.1780
  375MOL0     H50610  12.578  10.160   8.575 -0.0403  0.7284 -0.6574
  375MOL0     H50611  11.411   9.258   8.614 -3.1472 -0.6247 -0.7829
  375MOL0     H50612  11.220   9.246   8.766 -1.4018 -2.0451 -0.8261
  375MOL0     H50613  11.064   9.230   9.222  0.8281 -0.4934 -0.7770
  375MOL0     H50614  10.873   9.209   9.372 -0.3540 -0.2343  0.3957
  375MOL0     H50615  10.607   9.018   9.561 -1.1434  2.3549  1.0141
  375MOL0     H50616  10.767   9.099   9.566  0.6258 -0.3808 -0.5621
  375MOL0     H50617  10.660   9.264   9.386 -1.3396  0.0197 -1.0181
  375MOL0     H50618  10.586   9.257   9.543  1.0990  1.8987 -0.3746
  375MOL0     H50619  10.401   9.094   9.439  0.7957  1.5336  2.2657
  375MOL0     H50620  10.499   9.114   9.299  0.5061  0.3480 -0.6040
  375MOL0     H50621  10.297   9.250   9.315 -0.8791  0.3406  2.5360
  375MOL0     H50622  10.444   9.322   9.278 -0.1020  1.3617  0.7526
  375MOL0     H50623  10.371   9.534   9.642  1.1282 -0.6428 -0.0496
  375MOL0     H50624  10.826   8.802   9.267 -1.3090  0.0265 -2.5192
  375MOL0     H50625  11.015   8.818   9.105 -2.4860 -2.1198  0.7179
  376MOL0     O50626   3.174   9.621   2.664 -0.1382  0.3120 -0.9857
  376MOL0     C50627   3.069   9.668   2.633  0.1715  0.0235  0.4780
  376MOL0     O50628   3.040   9.724   2.510 -0.3482  0.0045  0.4506
  376MOL0     C50629   3.146   9.759   2.432  0.6390  0.2350 -0.6724
  376MOL0     C50630   3.108   9.748   2.296  0.5996  1.0995  0.1568
  376MOL0     C50631   3.205   9.761   2.200 -0.5186 -0.3944  0.0781
  376MOL0     C50632   3.341   9.799   2.234  0.0181 -0.2034 -0.2710
  376MOL0     O50633   3.436   9.815   2.148 -0.0031  0.1092  0.8206
  376MOL0     C50634   3.522   9.928   2.137 -0.3057  0.2862 -0.3885
  376MOL0     C50635   3.454  10.065   2.175 -0.9076 -0.2890 -0.3858
  376MOL0     C50636   3.540  10.174   2.115  0.2914 -0.5372 -0.1131
  376MOL0     C50637   3.470  10.312   2.140  0.6086  0.8785 -0.1324
  376MOL0     C50638   3.512  10.411   2.037  0.2151 -0.1172 -0.4110
  376MOL0     C50639   3.413  10.402   1.932  0.0536 -0.1523  0.6426
  376MOL0     C50640   3.417  10.540   1.859  0.1865  0.7119  0.7589
  376MOL0     C50641   3.317  10.563   1.744  0.0431 -0.2753  0.1680
  376MOL0     N50642   3.337  10.701   1.681  0.1085  0.0319 -1.1676
  376MOL0     C50643   3.428  10.729   1.583 -0.4002  0.2186 -0.8900
  376MOL0     C50644   3.409  10.858   1.547  0.9610 -0.5637  0.0824
  376MOL0     C50645   3.488  10.922   1.425 -0.7967  0.6002  0.4422
  376MOL0     C50646   3.630  10.867   1.423 -0.6711  0.0044 -0.1947
  376MOL0     C50647   3.735  10.969   1.374  0.6468  0.7250 -0.7994
  376MOL0     C50648   3.727  11.000   1.223 -0.7131  0.0226  0.2362
  376MOL0     O50649   3.861  11.037   1.174  0.0669  0.5184 -0.2716
  376MOL0     C50650   3.913  10.956   1.072 -0.5028 -0.8599  1.0209
  376MOL0     C50651   3.988  11.036   0.984 -0.0726 -0.7053  0.2449
  376MOL0     C50652   4.036  10.975   0.869 -1.1388  1.1126 -0.2427
  376MOL0     C50653   4.116  11.049   0.783  0.3139 -1.6654 -0.5509
  376MOL0     C50654   4.027  10.833   0.845  0.7396  0.3019  0.1209
  376MOL0     C50655   4.086  10.769   0.736 -0.3213  0.0789  0.2387
  376MOL0     O50656   4.004  10.755   0.620 -0.5767  0.3681 -0.6810
  376MOL0     C50657   4.066  10.712   0.500  0.4576  0.2688  0.2364
  376MOL0     C50658   4.046  10.582   0.449  0.7736  0.3532  0.2397
  376MOL0     C50659   4.119  10.542   0.335  0.7706  0.1441 -0.1557
  376MOL0     C50660   4.197  10.629   0.260 -1.0193 -0.2994 -0.6578
  376MOL0     O50661   4.270  10.578   0.157  1.1040  0.2595  0.5662
  376MOL0     C50662   4.391  10.642   0.120  0.5409  0.4108  0.0808
  376MOL0     C50663   4.477  10.540   0.049 -0.2673  0.1785 -0.0109
  376MOL0     C50664   4.621  10.589   0.013  0.1347  0.2028 -0.0300
  376MOL0     C50665   4.715  10.470   0.008  0.7877  1.0680 -0.3355
  376MOL0     C50666   4.843  10.498  -0.081  0.3201 -0.0286 -0.0241
  376MOL0     C50667   4.919  10.371  -0.111 -0.4696  0.1988  0.4612
  376MOL0     C50668   5.049  10.387  -0.190 -0.2347 -0.1298 -0.0442
  376MOL0     C50669   5.145  10.480  -0.114 -0.1452  0.7413  0.7086
  376MOL0    Cl50670   5.097  10.652  -0.147 -0.1794  0.3884  0.1983
  376MOL0     C50671   4.195  10.762   0.304  0.9231  0.6811  0.1031
  376MOL0     C50672   4.137  10.811   0.430 -0.3057  0.7428 -0.1010
  376MOL0     O50673   4.197  10.729   0.750 -1.2177  1.4315 -0.2903
  376MOL0     C50674   3.958  10.762   0.943  0.6246 -0.4975  0.1895
  376MOL0     C50675   3.892  10.824   1.045 -0.8971 -0.1542  0.6615
  376MOL0     N50676   3.288  10.900   1.610 -0.0982  0.9707 -0.0618
  376MOL0     N50677   3.247  10.803   1.691 -0.1291 -0.8456  0.0630
  376MOL0     C50678   3.374   9.817   2.374  1.0412 -0.7905 -0.2539
  376MOL0     C50679   3.272   9.798   2.466  0.2058  0.5709 -0.8075
  376MOL0     C50680   2.956   9.672   2.727 -0.9789  0.6132  0.2597
  376MOL0     C50681   2.825   9.706   2.695 -0.6095 -0.0166 -0.1510
  376MOL0     C50682   2.719   9.715   2.792  0.0829  0.5492 -0.6676
  376MOL0     C50683   2.739   9.703   2.926 -0.5411  0.2418 -0.0989
  376MOL0     O50684   2.651   9.743   3.023  1.2742 -0.0761 -0.0969
  376MOL0     C50685   2.612   9.884   3.014 -0.1991  0.2199 -0.4704
  376MOL0     C50686   2.614   9.961   3.140  0.6057 -0.2813  0.5552
  376MOL0     C50687   2.750  10.016   3.164 -0.3542  0.7208  0.3590
  376MOL0     C50688   2.861   9.907   3.175  0.7985  0.2797  0.4961
  376MOL0     C50689   2.832   9.822   3.292  0.6527  0.0110 -0.2653
  376MOL0     C50690   2.785   9.752   3.382  0.7514 -0.7224 -0.0149
  376MOL0     C50691   2.864   9.652   2.955  0.1881  0.1693  0.3375
  376MOL0     C50692   2.973   9.648   2.862  0.1771  0.2619 -0.4003
  376MOL0     H50693   3.007   9.720   2.266  0.5714 -0.2925  1.4225
  376MOL0     H50694   3.188   9.735   2.096  3.3410  1.6461 -1.2509
  376MOL0     H50695   3.611   9.906   2.196  0.6282  0.9977 -1.4764
  376MOL0     H50696   3.555   9.938   2.033 -0.9875 -1.2551 -0.7829
  376MOL0     H50697   3.353  10.058   2.134 -0.7277 -0.9511 -0.7219
  376MOL0     H50698   3.441  10.064   2.284  0.0328 -0.6556 -0.2611
  376MOL0     H50699   3.647  10.182   2.139  1.2691  0.0039 -3.9620
  376MOL0     H50700   3.532  10.165   2.006  1.1061  1.2323 -0.3559
  376MOL0     H50701   3.362  10.301   2.156  0.4669  0.0712 -1.4617
  376MOL0     H50702   3.500  10.340   2.242 -0.8063  1.9234  0.0294
  376MOL0     H50703   3.508  10.509   2.086  0.2133 -1.1829  1.8636
  376MOL0     H50704   3.618  10.398   2.010  1.8054  3.2710  3.1687
  376MOL0     H50705   3.450  10.324   1.866 -0.6813  1.2825 -1.5698
  376MOL0     H50706   3.311  10.383   1.967 -0.4934  2.5184  0.7655
  376MOL0     H50707   3.395  10.625   1.924  2.8512 -0.6539  3.6561
  376MOL0     H50708   3.517  10.549   1.815 -0.9261 -0.9512 -2.5118
  376MOL0     H50709   3.217  10.557   1.788 -0.0560  0.8483  0.1148
  376MOL0     H50710   3.324  10.478   1.675 -0.0356 -1.2716  1.3686
  376MOL0     H50711   3.517  10.670   1.565 -1.3297 -1.6256  0.2939
  376MOL0     H50712   3.437  10.905   1.329 -0.9729 -0.7281  0.7590
  376MOL0     H50713   3.500  11.030   1.441 -0.5098  0.7723 -0.7909
  376MOL0     H50714   3.636  10.778   1.360  0.0521 -0.0486 -0.0639
  376MOL0     H50715   3.667  10.845   1.524 -2.6595 -0.3581  0.4826
  376MOL0     H50716   3.836  10.942   1.404 -0.5155 -0.3999  2.4861
  376MOL0     H50717   3.710  11.057   1.434 -3.5480 -1.1762  0.6402
  376MOL0     H50718   3.656  11.083   1.216  1.1260  1.9543  2.6542
  376MOL0     H50719   3.691  10.914   1.165  0.6435 -1.6972  1.8311
  376MOL0     H50720   3.981  11.144   0.990 -1.1923 -0.7626  0.1457
  376MOL0     H50721   4.101  11.157   0.797 -0.2951 -1.2094 -3.9797
  376MOL0     H50722   4.222  11.032   0.805  1.1847  1.3664 -1.8122
  376MOL0     H50723   4.111  11.040   0.674  1.2487  1.1506 -0.9205
  376MOL0     H50724   3.978  10.512   0.496 -0.1811  2.1302  1.5931
  376MOL0     H50725   4.086  10.444   0.303 -0.2287  0.0724  0.9899
  376MOL0     H50726   4.379  10.737   0.067 -0.5249 -0.5482 -1.4863
  376MOL0     H50727   4.453  10.679   0.203 -0.0845  0.7133  0.4198
  376MOL0     H50728   4.495  10.454   0.114 -0.9464 -0.2806 -0.4084
  376MOL0     H50729   4.424  10.498  -0.037 -0.6149 -0.3226  0.4381
  376MOL0     H50730   4.661  10.654   0.092  1.3733 -0.9294  0.3188
  376MOL0     H50731   4.624  10.650  -0.077  2.9520  3.6301  2.1208
  376MOL0     H50732   4.737  10.439   0.110  1.0142  0.7022 -0.4943
  376MOL0     H50733   4.645  10.399  -0.036 -2.0270  0.7388  4.0549
  376MOL0     H50734   4.909  10.571  -0.032  0.0901  1.3251 -1.6244
  376MOL0     H50735   4.809  10.551  -0.171  1.2460  3.7649  1.6386
  376MOL0     H50736   4.940  10.314  -0.020 -1.6895 -0.2641  0.4690
  376MOL0     H50737   4.852  10.310  -0.171 -2.3185  0.7785  1.8508
  376MOL0     H50738   5.022  10.419  -0.291  2.3090  3.4009  0.2011
  376MOL0     H50739   5.083  10.284  -0.184  0.1827  0.0394  4.7020
  376MOL0     H50740   5.245  10.458  -0.154 -0.6698  2.8375 -2.0347
  376MOL0     H50741   5.133  10.464  -0.007 -2.3705  2.2539  0.7431
  376MOL0     H50742   4.253  10.829   0.241  2.9047 -2.3759 -1.5387
  376MOL0     H50743   4.150  10.914   0.460 -2.7548  0.6019  1.7664
  376MOL0     H50744   3.932  10.659   0.921 -0.8275 -1.1582  4.1418
  376MOL0     H50745   3.828  10.784   1.123 -0.4747  2.5022  2.5241
  376MOL0     H50746   3.469   9.847   2.418  1.5736 -2.4649 -0.1896
  376MOL0     H50747   3.293   9.802   2.572 -2.0637 -0.5407 -0.2411
  376MOL0     H50748   2.802   9.741   2.595  2.4644 -0.4612 -1.1200
  376MOL0     H50749   2.616   9.738   2.767 -0.1366 -1.3930 -1.7671
  376MOL0     H50750   2.656   9.942   2.932 -3.3178  2.3997 -0.7849
  376MOL0     H50751   2.504   9.884   2.994  0.2494 -0.1168 -3.3676
  376MOL0     H50752   2.572   9.908   3.225  1.1945  1.4620  2.0027
  376MOL0     H50753   2.545  10.046   3.125  1.3709  0.9773  3.4219
  376MOL0     H50754   2.761  10.088   3.246  3.9437  0.1080  0.5776
  376MOL0     H50755   2.781  10.068   3.072 -0.0044 -1.6764 -0.9481
  376MOL0     H50756   2.961   9.945   3.199  1.2423 -0.3709 -0.2718
  376MOL0     H50757   2.870   9.858   3.078 -0.9889  3.5140 -1.4878
  376MOL0     H50758   2.743   9.697   3.462 -1.5096  1.3734  0.3537
  376MOL0     H50759   2.889   9.626   3.057 -2.4273  1.0756  1.3076
  376MOL0     H50760   3.067   9.600   2.885  0.3744  0.3484 -1.0176
  377MOL0     O50761   5.532   5.858   5.920  0.0616  0.7166  0.2885
  377MOL0     C50762   5.466   5.964   5.942 -0.2783  0.3463 -0.3247
  377MOL0     O50763   5.512   6.089   5.913 -0.0621  0.6345 -0.0634
  377MOL0     C50764   5.646   6.111   5.894 -0.8819  0.5642 -0.4578
  377MOL0     C50765   5.724   6.038   5.806  0.3085 -0.6538 -0.1655
  377MOL0     C50766   5.869   6.045   5.803  0.0237  0.4126 -0.3314
  377MOL0     C50767   5.927   6.147   5.880 -0.9983 -0.7552 -0.0799
  377MOL0     O50768   6.061   6.170   5.864 -0.5955 -0.3175 -0.0844
  377MOL0     C50769   6.155   6.172   5.974  0.0733 -0.1158  0.8107
  377MOL0     C50770   6.267   6.253   5.934 -0.0210 -0.6705  0.2131
  377MOL0     C50771   6.251   6.403   5.965 -0.7179  0.4763  0.1889
  377MOL0     C50772   6.391   6.468   5.954 -0.2945 -0.1343 -0.7055
  377MOL0     C50773   6.365   6.611   5.997 -0.3508 -0.7940  0.2164
  377MOL0     C50774   6.288   6.690   5.902  0.6868 -0.3832  0.0433
  377MOL0     C50775   6.156   6.723   5.974  1.6106 -0.0892  0.1453
  377MOL0     C50776   6.024   6.786   5.907  1.1528  1.3578  0.7287
  377MOL0     N50777   5.909   6.801   6.001 -0.1982 -0.3807  0.2330
  377MOL0     C50778   5.892   6.913   6.077  0.6359 -0.2259 -0.6006
  377MOL0     C50779   5.771   6.900   6.135  0.4408 -0.9770 -0.2925
  377MOL0     C50780   5.701   7.001   6.213  0.1509  0.5187  0.5530
  377MOL0     C50781   5.648   7.125   6.129 -0.3165 -0.3493 -0.0874
  377MOL0     C50782   5.578   7.221   6.220 -0.3163 -0.4527 -0.2603
  377MOL0     C50783   5.521   7.336   6.138  0.6589 -0.5217  0.1749
  377MOL0     O50784   5.611   7.431   6.092 -1.0199 -0.2443 -0.0518
  377MOL0     C50785   5.638   7.543   6.162  0.1462 -0.7465 -0.8375
  377MOL0     C50786   5.682   7.656   6.085  0.2875 -0.5721  0.4673
  377MOL0     C50787   5.694   7.781   6.135 -0.5644 -1.2541  0.7624
  377MOL0     C50788   5.730   7.900   6.036  0.2877 -0.4658 -1.5426
  377MOL0     C50789   5.663   7.805   6.269  0.7626  0.0225  0.2783
  377MOL0     C50790   5.646   7.937   6.333 -0.2672  0.3941 -0.5360
  377MOL0     O50791   5.522   7.966   6.371  0.2196 -1.4345 -0.0376
  377MOL0     C50792   5.500   8.058   6.478 -0.5522  0.2797 -0.7299
  377MOL0     C50793   5.584   8.084   6.589 -0.3488 -0.3165  0.5467
  377MOL0     C50794   5.544   8.172   6.691  0.3511  0.1971  0.0255
  377MOL0     C50795   5.424   8.239   6.677 -0.8823 -0.1365 -0.0533
  377MOL0     O50796   5.397   8.325   6.772  0.1012  0.8186  0.8914
  377MOL0     C50797   5.257   8.342   6.797  0.5229 -0.4824 -0.3752
  377MOL0     C50798   5.238   8.407   6.932 -0.1752 -0.2406 -0.5292
  377MOL0     C50799   5.087   8.436   6.963 -0.3583  0.4700  0.3750
  377MOL0     C50800   5.075   8.568   7.032  0.5773  0.1433 -0.0991
  377MOL0     C50801   4.935   8.621   7.057  0.2019 -0.6400  0.1919
  377MOL0     C50802   4.846   8.538   7.158  0.0585  0.4245 -0.0522
  377MOL0     C50803   4.705   8.598   7.199 -0.1212  1.4074  0.0950
  377MOL0     C50804   4.609   8.499   7.265 -0.0138 -0.2612  0.2442
  377MOL0    Cl50805   4.680   8.416   7.405 -0.0604  0.3712 -0.3853
  377MOL0     C50806   5.354   8.226   6.554  0.2758 -0.8859  0.3318
  377MOL0     C50807   5.392   8.138   6.462  0.4438 -0.2053 -0.4201
  377MOL0     O50808   5.745   8.005   6.348  0.5158 -0.1077 -0.4261
  377MOL0     C50809   5.627   7.685   6.351 -0.1653  0.1870 -0.4352
  377MOL0     C50810   5.610   7.554   6.296  0.6682  0.0711  0.4253
  377MOL0     N50811   5.719   6.780   6.097 -0.3729  0.4267 -0.1978
  377MOL0     N50812   5.799   6.726   6.014 -1.1202 -0.4720  0.3055
  377MOL0     C50813   5.848   6.220   5.968 -0.5263 -0.3125  1.0532
  377MOL0     C50814   5.716   6.206   5.967 -0.3005 -0.2338 -0.3493
  377MOL0     C50815   5.324   5.940   5.982 -0.5500  0.1812  0.2927
  377MOL0     C50816   5.293   5.815   6.044 -0.4058 -0.3457 -0.9864
  377MOL0     C50817   5.157   5.784   6.075 -0.5702  1.0453  1.0362
  377MOL0     C50818   5.059   5.888   6.070 -0.3865 -0.2269 -0.6904
  377MOL0     O50819   4.929   5.868   6.106  0.6363  0.1101  0.8203
  377MOL0     C50820   4.897   5.769   6.206  0.2345 -0.7296 -0.4261
  377MOL0     C50821   4.753   5.795   6.251 -0.3914  0.3220  0.3508
  377MOL0     C50822   4.714   5.945   6.275 -0.1341  0.4016  0.3046
  377MOL0     C50823   4.583   5.966   6.334 -0.6243 -0.1790 -0.3964
  377MOL0     C50824   4.549   6.109   6.326 -0.3440 -0.0752  0.0765
  377MOL0     C50825   4.509   6.225   6.315  0.3691  0.1951  0.5098
  377MOL0     C50826   5.098   6.009   6.020  0.4496 -0.3250  0.2909
  377MOL0     C50827   5.224   6.032   5.972  0.8153  0.0594  0.5039
  377MOL0     H50828   5.668   5.967   5.745 -2.4336 -1.2709  2.8211
  377MOL0     H50829   5.947   5.982   5.762 -0.2648 -0.5062  0.5055
  377MOL0     H50830   6.114   6.211   6.068  2.0754  3.6978  0.2986
  377MOL0     H50831   6.187   6.069   5.991  2.6529 -0.9003 -5.7737
  377MOL0     H50832   6.365   6.224   5.974 -0.0126  2.5032  2.9913
  377MOL0     H50833   6.271   6.242   5.825 -2.2336  0.8665 -0.0804
  377MOL0     H50834   6.176   6.441   5.895 -1.8943  0.8101  1.5767
  377MOL0     H50835   6.219   6.409   6.069 -2.6267  0.0620 -0.3218
  377MOL0     H50836   6.468   6.423   6.018  0.8139  1.7925 -0.5952
  377MOL0     H50837   6.437   6.451   5.856  1.5590 -0.8940  0.2385
  377MOL0     H50838   6.341   6.641   6.099 -2.1814  0.4160 -0.5155
  377MOL0     H50839   6.469   6.642   6.006 -0.8776  0.5076  3.1883
  377MOL0     H50840   6.337   6.781   5.866  0.2723 -0.4424 -0.7032
  377MOL0     H50841   6.275   6.630   5.811 -0.0817 -0.9848  0.5343
  377MOL0     H50842   6.111   6.635   6.020 -1.6571  1.6412  0.4791
  377MOL0     H50843   6.181   6.780   6.064  0.5741 -0.4210  0.6533
  377MOL0     H50844   5.987   6.717   5.830 -1.6958 -1.0233  3.9489
  377MOL0     H50845   6.044   6.886   5.868  1.9728  0.0481 -2.5558
  377MOL0     H50846   5.961   6.996   6.093  0.7022 -0.5704  1.2091
  377MOL0     H50847   5.621   6.951   6.269 -1.2838 -1.4097 -2.8982
  377MOL0     H50848   5.776   7.033   6.285  2.9101 -3.7425 -0.0620
  377MOL0     H50849   5.592   7.088   6.042  1.4508  1.0399 -1.9209
  377MOL0     H50850   5.739   7.167   6.085  0.0090 -1.0574 -0.0936
  377MOL0     H50851   5.652   7.253   6.294 -0.2918  0.0516 -0.5033
  377MOL0     H50852   5.497   7.174   6.278 -1.8463  1.5098 -0.6832
  377MOL0     H50853   5.442   7.389   6.192  0.9447  0.0348  0.0581
  377MOL0     H50854   5.460   7.309   6.051  0.1608  2.2527 -0.4405
  377MOL0     H50855   5.698   7.655   5.978 -2.6483  0.5565 -0.0774
  377MOL0     H50856   5.835   7.929   6.047  0.6522 -2.6041  3.8921
  377MOL0     H50857   5.705   7.864   5.936  1.9724 -2.2417 -1.3708
  377MOL0     H50858   5.669   7.988   6.060 -2.4901 -1.1054 -5.3489
  377MOL0     H50859   5.670   8.023   6.617 -0.8448 -1.3898 -0.1925
  377MOL0     H50860   5.609   8.184   6.777  0.7226  0.1045 -0.2419
  377MOL0     H50861   5.228   8.414   6.721 -0.9650  0.2692  0.8367
  377MOL0     H50862   5.191   8.255   6.790  0.3166 -0.2828 -0.9543
  377MOL0     H50863   5.282   8.355   7.017  0.8143 -1.6914 -1.8855
  377MOL0     H50864   5.291   8.503   6.925  0.1863 -0.0400  2.9280
  377MOL0     H50865   5.056   8.360   7.035 -3.2935  3.0095  2.0014
  377MOL0     H50866   5.026   8.433   6.872 -0.3608 -0.7261  0.4012
  377MOL0     H50867   5.128   8.570   7.128 -0.5871 -0.5144  0.5840
  377MOL0     H50868   5.109   8.638   6.955 -0.7825 -0.6744 -1.5101
  377MOL0     H50869   4.885   8.638   6.962 -0.4974  1.3679  0.8640
  377MOL0     H50870   4.940   8.722   7.099 -0.4256 -0.0176 -1.1738
  377MOL0     H50871   4.823   8.442   7.111 -0.0678 -0.0359  0.9448
  377MOL0     H50872   4.904   8.520   7.249  0.5939 -1.5361 -0.7328
  377MOL0     H50873   4.654   8.640   7.112  0.2118  1.8244  0.0992
  377MOL0     H50874   4.710   8.686   7.263 -2.2531  3.1413 -1.9429
  377MOL0     H50875   4.579   8.427   7.188 -3.4018  0.2397  0.9381
  377MOL0     H50876   4.523   8.552   7.306  1.8980  2.2621  1.2848
  377MOL0     H50877   5.261   8.282   6.544 -1.9668 -4.5414 -0.9708
  377MOL0     H50878   5.335   8.146   6.370 -0.5071  1.0684  0.2462
  377MOL0     H50879   5.602   7.702   6.455  1.9687 -0.3843  0.2337
  377MOL0     H50880   5.574   7.471   6.356  2.2055  0.6664  2.3149
  377MOL0     H50881   5.893   6.285   6.041 -0.0131 -1.1142  1.4596
  377MOL0     H50882   5.654   6.256   6.041  0.1565  0.1505 -0.2225
  377MOL0     H50883   5.358   5.731   6.067 -2.5659 -1.6244  0.8996
  377MOL0     H50884   5.139   5.682   6.108  2.4752  0.6483  1.6971
  377MOL0     H50885   4.895   5.672   6.157 -1.2717  0.4236 -2.8502
  377MOL0     H50886   4.970   5.779   6.287 -0.3462  2.0750 -0.1316
  377MOL0     H50887   4.745   5.744   6.347  0.6617  1.5396  1.1268
  377MOL0     H50888   4.685   5.750   6.178 -1.8772  0.5494  1.5359
  377MOL0     H50889   4.729   6.010   6.188 -0.1030  2.2105  1.6050
  377MOL0     H50890   4.789   5.975   6.348  0.6426  1.6722 -0.9559
  377MOL0     H50891   4.592   5.923   6.434  0.5036 -0.8534 -0.7613
  377MOL0     H50892   4.506   5.914   6.277  0.2404  0.0980 -1.8692
  377MOL0     H50893   4.483   6.329   6.317  2.1737  0.6831  1.4855
  377MOL0     H50894   5.020   6.085   6.014 -0.1309 -0.9262 -4.6050
  377MOL0     H50895   5.251   6.126   5.926  0.4226 -0.7824 -1.5901
  378MOL0     O50896  11.122   2.379   7.274 -0.2593 -0.1912 -0.9078
  378MOL0     C50897  11.115   2.503   7.293  1.0503  1.0414 -0.0164
  378MOL0     O50898  11.186   2.607   7.236 -0.6317 -0.0187  0.0676
  378MOL0     C50899  11.289   2.593   7.139  0.4841 -0.4519 -0.1286
  378MOL0     C50900  11.356   2.478   7.091  0.2650 -0.8797 -0.2288
  378MOL0     C50901  11.474   2.478   7.011 -0.0165 -0.2168 -0.9338
  378MOL0     C50902  11.520   2.605   6.970  0.3535 -0.5996 -0.9420
  378MOL0     O50903  11.636   2.619   6.890  0.4386 -0.0837 -0.0113
  378MOL0     C50904  11.721   2.499   6.883  1.1299  1.3998  0.2155
  378MOL0     C50905  11.670   2.409   6.763 -0.0031  1.3871  0.4570
  378MOL0     C50906  11.755   2.283   6.760 -0.0938  0.3357  0.1365
  378MOL0     C50907  11.694   2.184   6.870  0.1316  0.1242 -0.5770
  378MOL0     C50908  11.730   2.041   6.879  0.2414 -0.0491 -0.0403
  378MOL0     C50909  11.881   2.006   6.878 -0.0413 -0.6856 -1.4103
  378MOL0     C50910  11.944   2.025   7.019  0.2313 -0.2846  0.6371
  378MOL0     C50911  11.897   1.919   7.120 -1.0148  0.5587 -0.0432
  378MOL0     N50912  11.970   1.795   7.108  0.1668  0.9147 -0.2015
  378MOL0     C50913  12.092   1.756   7.156 -0.8873 -0.3117 -0.1098
  378MOL0     C50914  12.098   1.624   7.143 -0.0067 -0.3803  0.8345
  378MOL0     C50915  12.204   1.553   7.217 -0.0912  0.4664 -0.4556
  378MOL0     C50916  12.154   1.531   7.362  0.4207  0.0142 -0.8441
  378MOL0     C50917  12.257   1.454   7.444  0.0756  0.2006 -1.4315
  378MOL0     C50918  12.389   1.523   7.460 -0.0508 -0.2375 -0.1000
  378MOL0     O50919  12.487   1.460   7.536  0.5966  0.4504  0.0735
  378MOL0     C50920  12.473   1.458   7.671 -0.1537  0.0792 -0.0432
  378MOL0     C50921  12.368   1.505   7.752  0.9820 -0.6297  0.1168
  378MOL0     C50922  12.366   1.512   7.893  0.1702  0.6165  0.1707
  378MOL0     C50923  12.243   1.579   7.953  0.2597 -0.0561 -0.4388
  378MOL0     C50924  12.468   1.449   7.963 -0.9838  0.3864 -0.4674
  378MOL0     C50925  12.482   1.456   8.120 -0.8261 -0.0910  0.4348
  378MOL0     O50926  12.407   1.539   8.196  0.4406  0.3405 -0.2273
  378MOL0     C50927  12.460   1.585   8.317  0.0870  0.2291  0.3029
  378MOL0     C50928  12.379   1.600   8.429  0.5888  0.8088  0.2011
  378MOL0     C50929  12.439   1.634   8.551 -0.2132  0.5507  0.3518
  378MOL0     C50930  12.577   1.657   8.564 -0.8255 -0.6157  0.8909
  378MOL0     O50931  12.637   1.672   8.679 -0.1343 -0.1359 -0.4205
  378MOL0     C50932  12.568   1.669   8.804 -0.0921 -0.7561 -0.5824
  378MOL0     C50933  12.665   1.690   8.917  0.4500 -0.3286  0.2170
  378MOL0     C50934  12.620   1.668   9.058  0.0417  0.5674  0.4376
  378MOL0     C50935  12.738   1.668   9.150  0.2533 -0.4746 -0.2009
  378MOL0     C50936  12.702   1.672   9.301  0.4587 -0.0645  0.4522
  378MOL0     C50937  12.612   1.561   9.347 -0.1440 -0.4455  0.6760
  378MOL0     C50938  12.613   1.570   9.505 -0.1848 -0.2975 -0.1043
  378MOL0     C50939  12.560   1.697   9.570  0.2600  0.7730 -0.1098
  378MOL0    Cl50940  12.384   1.722   9.532 -0.0831 -0.3123 -0.0334
  378MOL0     C50941  12.659   1.637   8.447  0.0955  0.1611  0.7678
  378MOL0     C50942  12.599   1.604   8.331  0.7335  0.2435 -0.1931
  378MOL0     O50943  12.574   1.380   8.158 -0.2586 -0.0477  0.1089
  378MOL0     C50944  12.555   1.377   7.882 -0.9632  0.1334 -1.0395
  378MOL0     C50945  12.570   1.385   7.750 -0.6075  0.0227  0.1598
  378MOL0     N50946  11.983   1.579   7.087  0.2667 -0.2048 -0.8805
  378MOL0     N50947  11.912   1.681   7.065  0.1045 -0.1600 -0.1471
  378MOL0     C50948  11.450   2.720   7.011 -0.3171 -0.3895 -0.2200
  378MOL0     C50949  11.340   2.716   7.094  0.3066 -0.7036 -0.3665
  378MOL0     C50950  11.003   2.543   7.389 -0.2196  0.2470 -0.4808
  378MOL0     C50951  10.986   2.673   7.420  0.3377 -0.0290  1.2381
  378MOL0     C50952  10.885   2.713   7.508 -0.2520  0.7901 -0.3275
  378MOL0     C50953  10.811   2.619   7.572 -0.1521 -0.7836 -0.2050
  378MOL0     O50954  10.718   2.657   7.660 -0.2407 -0.4706  0.6342
  378MOL0     C50955  10.691   2.584   7.779 -1.2378  0.4691  0.2306
  378MOL0     C50956  10.616   2.660   7.875 -0.2975 -0.0755 -0.2206
  378MOL0     C50957  10.556   2.578   7.978 -0.5238  0.1645 -0.3412
  378MOL0     C50958  10.470   2.662   8.077 -0.8544  0.9870 -1.1906
  378MOL0     C50959  10.327   2.625   8.080  0.3724  0.2802 -0.5778
  378MOL0     C50960  10.211   2.588   8.096  0.0049  0.1734 -0.3613
  378MOL0     C50961  10.831   2.482   7.549  0.8324 -0.8281 -0.5432
  378MOL0     C50962  10.923   2.444   7.453 -0.0585 -0.6159  1.0755
  378MOL0     H50963  11.326   2.377   7.116  1.4098 -0.1423  5.5435
  378MOL0     H50964  11.516   2.386   6.972  1.0768 -0.5989  1.0298
  378MOL0     H50965  11.820   2.530   6.850  1.4751 -1.0799 -1.3930
  378MOL0     H50966  11.735   2.455   6.982  2.6477  1.2504 -0.0371
  378MOL0     H50967  11.562   2.391   6.764 -0.1040  1.5114 -1.8998
  378MOL0     H50968  11.694   2.461   6.670  2.9288 -1.7198 -0.7239
  378MOL0     H50969  11.734   2.227   6.668 -2.2430  0.7239  0.3465
  378MOL0     H50970  11.861   2.299   6.781 -0.8766  1.6209  3.7311
  378MOL0     H50971  11.708   2.227   6.969  0.2275 -0.8291 -0.1653
  378MOL0     H50972  11.585   2.183   6.856 -0.5871  2.5793  3.3400
  378MOL0     H50973  11.666   1.990   6.952 -1.2423  0.1123 -1.1684
  378MOL0     H50974  11.695   2.009   6.780 -1.1974  1.4849 -0.0700
  378MOL0     H50975  11.908   1.904   6.849  0.1014 -1.4707  1.2310
  378MOL0     H50976  11.936   2.071   6.808  0.5991  0.3539  0.0122
  378MOL0     H50977  12.053   2.028   7.011  0.0933  0.5219 -1.7326
  378MOL0     H50978  11.908   2.118   7.062 -1.7833 -2.0145  2.9755
  378MOL0     H50979  11.788   1.912   7.122 -1.0674  1.4232  0.7881
  378MOL0     H50980  11.921   1.963   7.217  1.6897 -0.4541 -0.1648
  378MOL0     H50981  12.170   1.820   7.195 -0.2040 -1.4452  0.4356
  378MOL0     H50982  12.213   1.453   7.174  0.9275  0.3807 -0.0508
  378MOL0     H50983  12.303   1.597   7.209  0.2488 -0.0987  0.4192
  378MOL0     H50984  12.058   1.479   7.352 -2.1283  4.6511 -4.0845
  378MOL0     H50985  12.128   1.622   7.416  2.2264  0.5525 -0.8407
  378MOL0     H50986  12.263   1.349   7.414  1.6950 -0.4189  0.7358
  378MOL0     H50987  12.211   1.453   7.544 -0.5288 -2.5354 -1.6630
  378MOL0     H50988  12.366   1.622   7.499  0.7993  0.9377 -2.4070
  378MOL0     H50989  12.436   1.545   7.363  0.9846 -2.1195 -0.0829
  378MOL0     H50990  12.291   1.556   7.694  0.5325 -0.4783  0.8334
  378MOL0     H50991  12.265   1.669   8.012 -2.4801 -0.2345  1.0135
  378MOL0     H50992  12.170   1.614   7.880  0.8161  2.3633  0.0570
  378MOL0     H50993  12.187   1.507   8.013  2.0618  0.1277  1.5996
  378MOL0     H50994  12.274   1.575   8.418  1.6019 -4.8627  0.4006
  378MOL0     H50995  12.383   1.639   8.643  3.8153  1.8120  3.0179
  378MOL0     H50996  12.490   1.746   8.808 -0.4045 -1.1108  2.6019
  378MOL0     H50997  12.521   1.571   8.817 -0.2043 -0.5887  0.3564
  378MOL0     H50998  12.749   1.620   8.904  1.8739  1.4580 -0.5611
  378MOL0     H50999  12.709   1.790   8.908 -2.7273  1.1461 -0.2378
  378MOL0     H51000  12.568   1.572   9.064  1.3663 -0.1371  0.9910
  378MOL0     H51001  12.552   1.748   9.090 -0.0015  0.5633  0.3584
  378MOL0     H51002  12.806   1.583   9.134  2.0338  1.0487 -1.0853
  378MOL0     H51003  12.809   1.745   9.120 -0.4010  0.4296  0.5259
  378MOL0     H51004  12.669   1.773   9.324 -2.3566 -1.1785  1.8879
  378MOL0     H51005  12.793   1.660   9.359  0.4998 -1.8918  0.0912
  378MOL0     H51006  12.513   1.566   9.301  0.0082 -0.9009  0.2954
  378MOL0     H51007  12.660   1.467   9.319  0.1762 -0.1252  0.1524
  378MOL0     H51008  12.718   1.554   9.529 -0.1091  0.1626 -0.1118
  378MOL0     H51009  12.564   1.481   9.546  0.4255  0.7307  3.1886
  378MOL0     H51010  12.620   1.783   9.539  2.2914 -0.3088  0.5800
  378MOL0     H51011  12.578   1.688   9.678 -0.4676  1.1190  0.0412
  378MOL0     H51012  12.765   1.657   8.438  0.2963 -1.7910 -3.4040
  378MOL0     H51013  12.668   1.610   8.247  3.4255  0.1742  1.8606
  378MOL0     H51014  12.629   1.315   7.930 -1.8415 -0.3635 -0.2911
  378MOL0     H51015  12.660   1.343   7.708  0.9306  4.2386 -1.2475
  378MOL0     H51016  11.484   2.820   6.982 -1.5015  0.2006  0.3860
  378MOL0     H51017  11.303   2.816   7.113  4.0343  0.6768  0.4188
  378MOL0     H51018  11.043   2.751   7.370 -3.3545  2.9595  1.2653
  378MOL0     H51019  10.861   2.819   7.513  2.5507  1.5018 -0.5429
  378MOL0     H51020  10.636   2.495   7.746  2.9265 -2.1577 -0.4005
  378MOL0     H51021  10.787   2.555   7.822 -1.4949  1.5927  1.6191
  378MOL0     H51022  10.539   2.716   7.821 -1.8408 -0.2071  1.7784
  378MOL0     H51023  10.685   2.729   7.924  0.9157 -1.3250 -0.1062
  378MOL0     H51024  10.635   2.526   8.034 -0.6781  1.0594  0.7474
  378MOL0     H51025  10.490   2.503   7.935 -0.6730 -1.6705  2.8221
  378MOL0     H51026  10.484   2.770   8.067  1.4094  0.9581  0.6421
  378MOL0     H51027  10.499   2.631   8.178 -1.9491 -0.8618 -1.3950
  378MOL0     H51028  10.117   2.538   8.107 -0.0374  0.3135 -0.0670
  378MOL0     H51029  10.778   2.408   7.609  0.2022  2.4956  3.4161
  378MOL0     H51030  10.937   2.340   7.424 -1.9135  0.1262 -3.3315
  379MOL0     O51031   2.933  11.417   4.991 -0.0873  0.1274  0.1938
  379MOL0     C51032   3.012  11.518   4.985  0.4072  0.7281 -0.0116
  379MOL0     O51033   3.027  11.603   4.873 -0.0462 -0.1517 -0.5851
  379MOL0     C51034   2.949  11.604   4.766 -1.3065 -0.4643 -0.5612
  379MOL0     C51035   2.828  11.525   4.741 -0.7696 -0.3340 -0.0855
  379MOL0     C51036   2.769  11.509   4.614  0.7169  0.3343 -0.4459
  379MOL0     C51037   2.828  11.569   4.500  0.8395  0.2965  0.1364
  379MOL0     O51038   2.780  11.560   4.370  0.0666  0.4837 -0.3901
  379MOL0     C51039   2.641  11.527   4.336  0.1389 -0.1490  0.3472
  379MOL0     C51040   2.609  11.599   4.205 -0.0531  0.3540  0.4404
  379MOL0     C51041   2.614  11.748   4.212 -0.0866  0.4999  0.0494
  379MOL0     C51042   2.520  11.799   4.312  0.6784 -0.0078 -0.0154
  379MOL0     C51043   2.463  11.935   4.286  0.4795  0.3467 -0.9917
  379MOL0     C51044   2.342  11.963   4.373 -0.1839 -0.3373  1.5076
  379MOL0     C51045   2.231  12.038   4.287 -1.1542  0.2444  0.9622
  379MOL0     C51046   2.152  11.948   4.189 -0.0222 -0.1658  0.1565
  379MOL0     N51047   2.094  11.831   4.264 -0.6404  0.8385  0.2908
  379MOL0     C51048   2.015  11.843   4.377 -0.1901  0.3618  0.0724
  379MOL0     C51049   1.990  11.712   4.407 -0.0516  0.7993  0.7413
  379MOL0     C51050   1.913  11.665   4.522  0.6534 -0.1238  0.1607
  379MOL0     C51051   1.964  11.540   4.597 -0.6023 -0.0466 -0.5428
  379MOL0     C51052   1.932  11.410   4.533 -0.9326 -0.0626 -0.6662
  379MOL0     C51053   1.993  11.285   4.598  0.2133 -0.0748 -0.4267
  379MOL0     O51054   2.014  11.177   4.509 -0.1860 -0.1966  0.4481
  379MOL0     C51055   2.064  11.062   4.555  1.0779 -0.0062 -0.0023
  379MOL0     C51056   2.081  11.035   4.691  1.0692 -0.2844  0.7588
  379MOL0     C51057   2.113  10.910   4.730 -0.3898  1.0179 -0.1048
  379MOL0     C51058   2.137  10.885   4.873  0.0470 -0.0230 -0.5067
  379MOL0     C51059   2.116  10.797   4.640 -0.6947 -1.2333 -0.6382
  379MOL0     C51060   2.175  10.662   4.667  0.2765  0.2343 -1.0379
  379MOL0     O51061   2.178  10.622   4.797 -0.4597 -0.0152  0.7239
  379MOL0     C51062   2.179  10.483   4.805 -0.8502  0.0024 -1.0883
  379MOL0     C51063   2.294  10.415   4.831  0.7086 -0.4574 -0.3965
  379MOL0     C51064   2.292  10.277   4.850 -0.4438  0.9919  0.1388
  379MOL0     C51065   2.170  10.209   4.874 -0.2634 -0.0477 -0.1460
  379MOL0     O51066   2.180  10.087   4.930  0.3813 -0.4578 -0.0360
  379MOL0     C51067   2.068  10.006   4.950  0.3949 -2.2970  0.8547
  379MOL0     C51068   2.093   9.911   5.054 -0.2191  0.0109  0.0656
  379MOL0     C51069   2.239   9.909   5.095 -0.5923 -1.5600 -0.4192
  379MOL0     C51070   2.269   9.815   5.201 -0.0847 -0.3641 -0.3059
  379MOL0     C51071   2.289   9.674   5.145 -0.0055  0.4635 -0.2788
  379MOL0     C51072   2.251   9.564   5.247  0.5106 -0.0590 -0.5683
  379MOL0     C51073   2.298   9.429   5.196  0.1606  0.1226  0.0352
  379MOL0     C51074   2.170   9.343   5.161 -0.3257  0.1853 -0.0662
  379MOL0    Cl51075   2.214   9.179   5.107  0.2005  0.2573  0.1430
  379MOL0     C51076   2.055  10.280   4.840  0.4092 -0.4851  0.7203
  379MOL0     C51077   2.057  10.411   4.790 -0.6886 -0.2374  0.5041
  379MOL0     O51078   2.193  10.588   4.571 -0.0927  0.0426  0.8457
  379MOL0     C51079   2.080  10.831   4.505 -0.8306  0.5507  0.2790
  379MOL0     C51080   2.069  10.963   4.464  0.8695 -0.6799  0.7398
  379MOL0     N51081   2.050  11.624   4.313  1.3143 -0.4115 -0.5261
  379MOL0     N51082   2.114  11.697   4.232  0.5233  0.4448 -1.1020
  379MOL0     C51083   2.943  11.639   4.527 -0.3416 -1.1628 -0.5477
  379MOL0     C51084   3.006  11.654   4.654 -0.5055 -0.0175  0.6608
  379MOL0     C51085   3.082  11.543   5.115  0.1331  0.2187  0.1639
  379MOL0     C51086   3.188  11.631   5.114 -0.3359 -0.2550 -0.1673
  379MOL0     C51087   3.265  11.664   5.224 -0.6647  0.4598  0.0351
  379MOL0     C51088   3.226  11.613   5.353 -0.5851  0.8232  0.5841
  379MOL0     O51089   3.287  11.631   5.470 -0.1817 -0.8414 -0.5894
  379MOL0     C51090   3.409  11.704   5.500  0.1147  1.2270  0.0839
  379MOL0     C51091   3.376  11.793   5.619 -0.4528 -0.0218 -0.1484
  379MOL0     C51092   3.355  11.696   5.750  0.8486 -0.5756  0.9945
  379MOL0     C51093   3.298  11.792   5.857 -0.8172  0.6052  0.2169
  379MOL0     C51094   3.286  11.726   5.996  0.0532 -0.1436 -0.2163
  379MOL0     C51095   3.300  11.664   6.106  1.4633  0.2160 -0.2901
  379MOL0     C51096   3.123  11.515   5.357 -0.3737  0.1260  1.1313
  379MOL0     C51097   3.042  11.484   5.237 -0.1692 -0.2381  0.3422
  379MOL0     H51098   2.780  11.467   4.819 -2.2536 -0.7575 -1.2646
  379MOL0     H51099   2.684  11.441   4.609 -0.5982  1.9275 -0.8301
  379MOL0     H51100   2.613  11.423   4.317  0.6533  0.0824 -2.0974
  379MOL0     H51101   2.565  11.566   4.404 -0.7333  0.8230 -1.1139
  379MOL0     H51102   2.677  11.566   4.126 -0.5556  0.2777  0.0318
  379MOL0     H51103   2.509  11.578   4.166 -0.2494  0.3964  0.9197
  379MOL0     H51104   2.716  11.781   4.232  1.3212 -3.2241 -0.1864
  379MOL0     H51105   2.573  11.791   4.120 -0.9461 -0.0398  0.1692
  379MOL0     H51106   2.435  11.732   4.328  0.4679  1.0123  4.1220
  379MOL0     H51107   2.560  11.800   4.413 -1.6479  2.5864  1.0309
  379MOL0     H51108   2.541  12.008   4.308  0.3340 -0.5169  3.1853
  379MOL0     H51109   2.448  11.948   4.178  0.5578  3.0882 -0.7459
  379MOL0     H51110   2.307  11.877   4.431  0.6135  0.6951  3.6413
  379MOL0     H51111   2.381  12.039   4.441  2.8391  2.2744 -2.6366
  379MOL0     H51112   2.172  12.087   4.365  0.7560 -0.6508  3.0985
  379MOL0     H51113   2.281  12.114   4.226 -3.2121  3.6729  3.2194
  379MOL0     H51114   2.204  11.923   4.096 -0.2532 -0.1405  0.0177
  379MOL0     H51115   2.069  12.017   4.167 -0.5585 -0.8151  0.1164
  379MOL0     H51116   1.988  11.936   4.424  0.2612  0.8759 -0.6575
  379MOL0     H51117   1.898  11.749   4.590  1.0983  1.2549 -1.3800
  379MOL0     H51118   1.816  11.631   4.485  2.2343 -2.3935 -2.3327
  379MOL0     H51119   1.950  11.541   4.705  1.3917 -2.0586 -0.1931
  379MOL0     H51120   2.072  11.536   4.583 -0.3534  1.6682  0.5639
  379MOL0     H51121   1.980  11.403   4.435  2.5517 -0.1267  0.8980
  379MOL0     H51122   1.825  11.396   4.513 -0.3364 -2.1137 -2.9064
  379MOL0     H51123   1.944  11.236   4.682  2.9124 -1.0486  0.6919
  379MOL0     H51124   2.086  11.324   4.640  0.4495  1.2259 -2.0311
  379MOL0     H51125   2.078  11.118   4.761 -2.1045  0.3017  0.0860
  379MOL0     H51126   2.225  10.827   4.902 -0.4939  0.8915  3.6355
  379MOL0     H51127   2.146  10.981   4.923  1.3560 -0.5558  0.3325
  379MOL0     H51128   2.063  10.824   4.927 -1.6072  2.5709  0.3062
  379MOL0     H51129   2.387  10.466   4.854  0.9215 -1.4934  1.1742
  379MOL0     H51130   2.389  10.229   4.862 -0.8347  0.0664 -0.3468
  379MOL0     H51131   1.989  10.069   4.993  0.6218 -2.0516  0.9141
  379MOL0     H51132   2.014   9.974   4.860 -3.5697  1.1142  1.6812
  379MOL0     H51133   2.038   9.933   5.147  1.0742  1.6986  0.4737
  379MOL0     H51134   2.063   9.816   5.008  3.0972 -0.4925 -1.3348
  379MOL0     H51135   2.268  10.008   5.133 -4.3802  0.0301 -1.1699
  379MOL0     H51136   2.312   9.893   5.016 -0.6843 -1.5301 -0.5109
  379MOL0     H51137   2.370   9.832   5.239 -0.2409  0.1943 -0.1198
  379MOL0     H51138   2.204   9.806   5.288  0.1223 -0.8551 -0.2011
  379MOL0     H51139   2.398   9.677   5.137  0.0568  2.7647  0.5180
  379MOL0     H51140   2.237   9.654   5.051 -0.3537 -1.5864  0.2965
  379MOL0     H51141   2.289   9.584   5.348  0.0396  2.0667 -0.7631
  379MOL0     H51142   2.142   9.568   5.248  0.4295  1.1770  3.5597
  379MOL0     H51143   2.362   9.372   5.264  1.6312 -1.9091 -2.8317
  379MOL0     H51144   2.348   9.423   5.099 -0.5219 -1.0914 -0.2595
  379MOL0     H51145   2.113   9.396   5.084 -2.1265 -1.0597  0.3299
  379MOL0     H51146   2.110   9.335   5.252 -0.1730  3.6635  0.4533
  379MOL0     H51147   1.953  10.246   4.854  0.2353 -0.1772  0.2335
  379MOL0     H51148   1.968  10.463   4.757 -0.3337  1.2982  1.8471
  379MOL0     H51149   2.091  10.753   4.430 -2.1231  2.6051 -2.2426
  379MOL0     H51150   2.042  10.982   4.361 -3.0193  3.2734  2.1911
  379MOL0     H51151   2.989  11.678   4.437 -0.5359 -1.0176 -0.5858
  379MOL0     H51152   3.104  11.702   4.655 -1.4003  1.9757 -0.3954
  379MOL0     H51153   3.238  11.678   5.030  1.4045  0.6693  1.3083
  379MOL0     H51154   3.343  11.738   5.236  0.0437 -0.2613 -0.0913
  379MOL0     H51155   3.499  11.648   5.526 -0.4892 -0.2236 -0.8208
  379MOL0     H51156   3.443  11.768   5.418 -1.1377  2.0627  0.1727
  379MOL0     H51157   3.293  11.860   5.596  0.3888  2.1196  2.5017
  379MOL0     H51158   3.461  11.858   5.642 -1.2450 -0.4320  5.4992
  379MOL0     H51159   3.451  11.662   5.790  0.6101 -2.3432  0.1916
  379MOL0     H51160   3.290  11.611   5.729 -1.7985  1.0884  1.9520
  379MOL0     H51161   3.196  11.824   5.833 -1.7502 -2.0238  0.3714
  379MOL0     H51162   3.373  11.871   5.866  1.7003 -1.6031 -0.0858
  379MOL0     H51163   3.307  11.620   6.203 -0.3107  1.8299  0.6221
  379MOL0     H51164   3.101  11.463   5.449  0.5552  0.3322  1.4845
  379MOL0     H51165   2.959  11.415   5.245  0.7909 -1.5991 -0.7717
  380MOL0     O51166   7.633   5.425   2.323  0.6701  0.4139  0.0162
  380MOL0     C51167   7.752   5.416   2.297  0.3701 -0.8147  0.6139
  380MOL0     O51168   7.815   5.481   2.200  0.8041 -0.6723 -0.3298
  380MOL0     C51169   7.752   5.593   2.150 -0.3735  0.4427 -0.0456
  380MOL0     C51170   7.714   5.707   2.231 -0.4051  1.2449  0.2093
  380MOL0     C51171   7.637   5.811   2.196  0.1969  0.2224  0.2436
  380MOL0     C51172   7.597   5.823   2.062 -1.6687  0.1315  0.4078
  380MOL0     O51173   7.506   5.923   2.032  0.0559 -0.0049  0.4318
  380MOL0     C51174   7.455   5.955   1.902  0.0154 -0.5192 -0.4684
  380MOL0     C51175   7.409   6.095   1.889 -0.0549  0.1614  0.9804
  380MOL0     C51176   7.365   6.098   1.741  0.7891 -0.3025  0.2621
  380MOL0     C51177   7.273   6.213   1.705  0.8842  0.0718  1.1623
  380MOL0     C51178   7.271   6.244   1.558  0.0462 -0.5484 -0.0014
  380MOL0     C51179   7.183   6.139   1.489  0.9843  0.4568  0.4039
  380MOL0     C51180   7.166   6.164   1.340  0.5555  0.4398  0.0943
  380MOL0     C51181   7.029   6.228   1.318  0.5322  0.2458  0.8543
  380MOL0     N51182   7.016   6.275   1.182  0.5332 -0.2067  0.1081
  380MOL0     C51183   7.082   6.380   1.117  0.3795  0.5235  0.2843
  380MOL0     C51184   7.041   6.380   0.984 -0.6902  0.8101  0.4917
  380MOL0     C51185   7.069   6.467   0.874  0.0743 -0.1906 -0.2563
  380MOL0     C51186   7.214   6.461   0.829 -0.4715 -0.0977  0.0923
  380MOL0     C51187   7.262   6.389   0.707 -0.2021 -0.3305  0.4425
  380MOL0     C51188   7.287   6.239   0.711 -0.4470 -1.0532 -0.0680
  380MOL0     O51189   7.378   6.217   0.817  0.4607 -0.1981  0.2564
  380MOL0     C51190   7.450   6.104   0.818  1.1391  0.5188  0.6913
  380MOL0     C51191   7.411   5.984   0.748  0.1258 -1.0004  0.5915
  380MOL0     C51192   7.483   5.868   0.756 -0.3150 -0.6405 -0.3468
  380MOL0     C51193   7.431   5.747   0.692  0.4949 -0.2943 -0.8856
  380MOL0     C51194   7.601   5.863   0.841  0.4385 -0.3987 -0.7368
  380MOL0     C51195   7.677   5.751   0.855  0.5375  0.0024 -1.2509
  380MOL0     O51196   7.710   5.714   0.991  0.7120  0.5319  0.1193
  380MOL0     C51197   7.709   5.580   1.020 -0.1865 -0.1293 -0.4197
  380MOL0     C51198   7.819   5.527   1.093  0.3325 -0.0396  0.4358
  380MOL0     C51199   7.817   5.392   1.131 -0.3715 -0.1123 -0.0553
  380MOL0     C51200   7.713   5.303   1.094 -0.2288 -0.2208  0.2402
  380MOL0     O51201   7.694   5.170   1.110 -0.6692 -0.4597 -0.4481
  380MOL0     C51202   7.815   5.104   1.151 -0.7277  0.0074  0.4988
  380MOL0     C51203   7.798   4.951   1.136 -1.0016 -0.0596  0.3243
  380MOL0     C51204   7.926   4.889   1.185  1.0635  0.3906  0.0089
  380MOL0     C51205   7.905   4.736   1.181 -0.4521  0.0350  0.3792
  380MOL0     C51206   8.037   4.656   1.224  0.8468 -0.0530  0.3846
  380MOL0     C51207   8.113   4.648   1.097 -0.2564  0.7531  0.2339
  380MOL0     C51208   8.237   4.552   1.105  0.2736 -0.3936 -0.4231
  380MOL0     C51209   8.216   4.396   1.115  0.5695 -0.2032  0.1682
  380MOL0    Cl51210   8.110   4.350   0.975  0.4554  0.1664 -0.0184
  380MOL0     C51211   7.610   5.361   1.025  0.2894  0.1948 -0.4183
  380MOL0     C51212   7.608   5.495   0.980  0.3903  0.4348 -0.6680
  380MOL0     O51213   7.719   5.700   0.758  0.0175 -0.4086  0.2926
  380MOL0     C51214   7.637   5.985   0.922 -0.1206  0.3108  0.2555
  380MOL0     C51215   7.560   6.101   0.903 -1.2821 -0.8257  0.0791
  380MOL0     N51216   6.962   6.270   0.969  0.4178 -0.5030 -0.0220
  380MOL0     N51217   6.940   6.211   1.084  0.3994  0.0969  0.0376
  380MOL0     C51218   7.658   5.725   1.967  0.5197 -0.7715 -0.0193
  380MOL0     C51219   7.722   5.615   2.017 -0.8413  0.3816  0.9237
  380MOL0     C51220   7.825   5.293   2.338  0.1495  0.5960  0.4135
  380MOL0     C51221   7.862   5.196   2.246  0.5950 -0.5200 -0.1245
  380MOL0     C51222   7.920   5.077   2.278 -0.1904  0.4040  0.0877
  380MOL0     C51223   7.935   5.058   2.414 -0.1768 -0.1515  0.0125
  380MOL0     O51224   7.962   4.932   2.447 -0.2439  0.6919 -0.6059
  380MOL0     C51225   8.101   4.917   2.496 -0.1594 -0.4686 -0.0078
  380MOL0     C51226   8.138   4.775   2.492 -0.6817 -0.4534 -0.8103
  380MOL0     C51227   8.221   4.723   2.370  0.0365  0.0968 -1.2899
  380MOL0     C51228   8.160   4.746   2.235  0.4021 -0.0964  0.3966
  380MOL0     C51229   8.038   4.666   2.213  0.5581  0.2424 -0.5346
  380MOL0     C51230   7.943   4.601   2.227  0.6352  0.2842 -0.3698
  380MOL0     C51231   7.879   5.141   2.514  0.5646 -0.7997  0.0565
  380MOL0     C51232   7.829   5.268   2.473 -0.3256 -0.0112 -0.4605
  380MOL0     H51233   7.736   5.681   2.334 -0.7174 -1.5865 -0.3450
  380MOL0     H51234   7.601   5.873   2.278  0.8516  0.4953  0.3281
  380MOL0     H51235   7.548   5.934   1.847 -1.0459 -4.2710 -1.0983
  380MOL0     H51236   7.376   5.885   1.873 -0.0123 -0.1264 -1.3815
  380MOL0     H51237   7.319   6.100   1.952 -1.9422 -0.7126 -1.4587
  380MOL0     H51238   7.480   6.170   1.924  0.7982  2.5206 -4.7615
  380MOL0     H51239   7.456   6.104   1.681  0.8945 -2.1485  0.1816
  380MOL0     H51240   7.315   6.010   1.699 -1.0653  0.9870 -0.3555
  380MOL0     H51241   7.167   6.197   1.724  0.6826 -0.6865 -0.4567
  380MOL0     H51242   7.313   6.303   1.753  2.7877  0.4292 -0.9150
  380MOL0     H51243   7.227   6.343   1.542  3.9856  1.2497 -0.8964
  380MOL0     H51244   7.369   6.257   1.511  0.0919 -4.5438 -1.3946
  380MOL0     H51245   7.228   6.043   1.514 -0.5338  0.0029  1.5022
  380MOL0     H51246   7.080   6.144   1.524  0.3653 -4.7271  0.0078
  380MOL0     H51247   7.249   6.230   1.312  0.7694 -0.7004 -2.1740
  380MOL0     H51248   7.177   6.067   1.291  1.4086  1.6287 -2.2322
  380MOL0     H51249   7.022   6.318   1.379  0.3323  1.2333 -0.5754
  380MOL0     H51250   6.947   6.161   1.344  0.9155  0.6806  3.4394
  380MOL0     H51251   7.152   6.454   1.156  0.3967  1.5182 -1.4880
  380MOL0     H51252   6.997   6.447   0.794 -2.3952  4.6366  0.3752
  380MOL0     H51253   7.052   6.572   0.899 -1.4778 -0.6067  0.5632
  380MOL0     H51254   7.280   6.427   0.909 -1.9226  2.0385  2.3141
  380MOL0     H51255   7.232   6.569   0.824  2.4014 -0.3415  2.8409
  380MOL0     H51256   7.360   6.431   0.683 -0.2339  0.2907  1.3315
  380MOL0     H51257   7.191   6.410   0.626  0.1785  1.3089  0.4925
  380MOL0     H51258   7.342   6.220   0.619  0.0495  5.6453 -1.6941
  380MOL0     H51259   7.192   6.187   0.727  0.5440 -2.2745  2.2192
  380MOL0     H51260   7.314   5.984   0.699  1.0444  1.7178 -1.5812
  380MOL0     H51261   7.449   5.660   0.755  0.9161 -0.9026 -1.8096
  380MOL0     H51262   7.326   5.755   0.663  1.3204  4.2126 -3.6638
  380MOL0     H51263   7.487   5.733   0.598 -0.4963  0.1287 -1.5580
  380MOL0     H51264   7.908   5.588   1.108 -0.9357  3.6806 -4.5219
  380MOL0     H51265   7.912   5.361   1.175  0.8631  0.4566 -2.1855
  380MOL0     H51266   7.891   5.129   1.078 -1.3561 -0.0871 -0.1988
  380MOL0     H51267   7.849   5.131   1.252 -2.2912  0.1822  1.0164
  380MOL0     H51268   7.711   4.916   1.194 -2.1664 -0.3638 -1.5285
  380MOL0     H51269   7.772   4.921   1.034 -1.2114 -1.0887  0.6654
  380MOL0     H51270   7.948   4.930   1.283  0.1973  1.2969 -0.1535
  380MOL0     H51271   8.010   4.918   1.122  2.3796 -1.5753  0.7699
  380MOL0     H51272   7.831   4.707   1.257  0.2688 -1.2942  0.6019
  380MOL0     H51273   7.856   4.699   1.091  0.0432  0.9640 -0.2826
  380MOL0     H51274   7.999   4.556   1.247 -0.3795 -0.0137 -1.2978
  380MOL0     H51275   8.084   4.703   1.312  0.3941 -0.1587  0.6893
  380MOL0     H51276   8.057   4.620   1.007  2.4620 -0.0880 -1.2932
  380MOL0     H51277   8.151   4.749   1.080 -1.0403  1.0904  0.4363
  380MOL0     H51278   8.303   4.593   1.182 -0.4367  4.4803 -2.0253
  380MOL0     H51279   8.287   4.564   1.009  3.0670  4.9517  1.2808
  380MOL0     H51280   8.156   4.361   1.199 -2.0717 -1.2884 -2.0337
  380MOL0     H51281   8.309   4.338   1.118  2.0340  2.0035  0.0751
  380MOL0     H51282   7.532   5.295   0.989  0.0030  0.0646  0.4167
  380MOL0     H51283   7.518   5.512   0.922 -2.4268 -3.1037  2.1613
  380MOL0     H51284   7.711   5.996   1.001 -0.2140  0.8108  0.2802
  380MOL0     H51285   7.595   6.188   0.957  0.2428 -0.7887 -0.9092
  380MOL0     H51286   7.649   5.733   1.859  1.6218  0.3988 -0.0558
  380MOL0     H51287   7.734   5.535   1.944 -3.5654  1.0282 -0.3847
  380MOL0     H51288   7.835   5.216   2.142  2.0516  1.5132 -0.1750
  380MOL0     H51289   7.947   5.006   2.201 -2.7071 -0.8121  0.2413
  380MOL0     H51290   8.168   4.976   2.433  1.1380 -3.4313 -1.5978
  380MOL0     H51291   8.095   4.958   2.597 -1.4262  3.7924 -1.5788
  380MOL0     H51292   8.054   4.711   2.520 -2.2806  2.7415  2.5847
  380MOL0     H51293   8.198   4.773   2.583 -1.7079 -1.6185 -0.1350
  380MOL0     H51294   8.237   4.615   2.382  0.2846  0.2616  0.0683
  380MOL0     H51295   8.326   4.753   2.375  0.8229 -2.1580 -2.6206
  380MOL0     H51296   8.239   4.712   2.167  0.2092  0.8685 -0.3372
  380MOL0     H51297   8.137   4.852   2.221  0.1865  0.1438  2.3818
  380MOL0     H51298   7.873   4.521   2.242  1.8386 -0.5335  1.1729
  380MOL0     H51299   7.878   5.106   2.616  0.9796  2.2858  1.2283
  380MOL0     H51300   7.793   5.342   2.544  0.4401  0.2502 -0.3333
  381MOL0     O51301   6.933   6.178   7.236 -0.5208  0.6234 -0.8648
  381MOL0     C51302   6.972   6.292   7.259 -0.4293  0.6717 -0.1432
  381MOL0     O51303   7.067   6.339   7.356 -0.7504  0.1141 -0.0067
  381MOL0     C51304   7.178   6.273   7.389  0.1267 -0.4153  0.4592
  381MOL0     C51305   7.218   6.158   7.329 -1.6984 -0.4056 -0.3580
  381MOL0     C51306   7.343   6.107   7.348  1.0260 -0.2912 -0.3391
  381MOL0     C51307   7.431   6.183   7.425 -0.3576 -0.0773 -0.1501
  381MOL0     O51308   7.551   6.130   7.448 -0.3516 -0.0226 -0.1383
  381MOL0     C51309   7.661   6.200   7.503  0.0761  0.3798 -0.4480
  381MOL0     C51310   7.792   6.122   7.522  0.1106  0.6693 -0.3520
  381MOL0     C51311   7.785   6.039   7.648  0.2381  0.0596  0.0634
  381MOL0     C51312   7.916   5.950   7.661  0.1003 -0.2657 -0.7098
  381MOL0     C51313   7.928   5.875   7.793  0.3226 -0.2647 -0.1750
  381MOL0     C51314   7.985   5.962   7.909  0.5130 -0.4415  0.7379
  381MOL0     C51315   7.978   5.880   8.029 -0.3563 -0.5486 -0.4708
  381MOL0     C51316   8.084   5.926   8.134  0.2572  0.1005  0.0499
  381MOL0     N51317   8.045   6.058   8.184 -0.4561  0.2865  0.2068
  381MOL0     C51318   8.093   6.181   8.158 -0.3531 -0.2706  0.9653
  381MOL0     C51319   8.034   6.266   8.250  0.0730  0.2904 -0.0902
  381MOL0     C51320   8.066   6.409   8.239 -0.2088 -0.4256 -0.7266
  381MOL0     C51321   8.017   6.486   8.107 -0.0338  0.6587  0.0262
  381MOL0     C51322   7.868   6.488   8.094 -0.1891  0.0319  0.1953
  381MOL0     C51323   7.807   6.356   8.038  0.4115 -0.4566  0.6352
  381MOL0     O51324   7.859   6.324   7.906 -0.3714 -0.3765  0.2705
  381MOL0     C51325   7.821   6.416   7.808 -0.6668  0.0496 -0.4862
  381MOL0     C51326   7.699   6.474   7.795 -1.1841 -0.0554  0.4296
  381MOL0     C51327   7.673   6.564   7.695  0.0220 -0.5960 -0.0507
  381MOL0     C51328   7.544   6.648   7.699  0.2480 -0.7048 -0.1188
  381MOL0     C51329   7.767   6.577   7.593 -0.3690 -1.2232  1.2284
  381MOL0     C51330   7.731   6.633   7.464 -0.1290 -1.0762 -0.2625
  381MOL0     O51331   7.787   6.753   7.434 -0.5518 -0.5843  0.1791
  381MOL0     C51332   7.716   6.841   7.348  0.4659 -0.9106 -0.1442
  381MOL0     C51333   7.614   6.926   7.402 -0.6150  0.9425 -0.1839
  381MOL0     C51334   7.533   7.010   7.322 -0.4351  0.9154  0.8796
  381MOL0     C51335   7.556   7.017   7.191 -0.4032 -0.3135 -0.5692
  381MOL0     O51336   7.476   7.115   7.126  0.3688  0.1147  0.4440
  381MOL0     C51337   7.499   7.125   6.985 -0.9199  0.5407 -0.7147
  381MOL0     C51338   7.373   7.200   6.919  0.1145  0.9796 -0.5678
  381MOL0     C51339   7.404   7.248   6.778  0.5954  0.2402  0.3006
  381MOL0     C51340   7.286   7.317   6.706  0.8769 -0.0583 -0.4487
  381MOL0     C51341   7.317   7.337   6.559  0.3132 -0.8335 -0.7211
  381MOL0     C51342   7.216   7.428   6.495 -0.6236  0.1867  0.0103
  381MOL0     C51343   7.078   7.362   6.485 -0.1546 -0.9040  0.2750
  381MOL0     C51344   6.985   7.428   6.378  0.1107  0.1824 -0.1102
  381MOL0    Cl51345   6.837   7.326   6.349  0.2269 -0.3940 -0.3963
  381MOL0     C51346   7.662   6.943   7.140 -0.4842  0.5440  0.0722
  381MOL0     C51347   7.749   6.861   7.219  0.6748  0.4091 -0.1263
  381MOL0     O51348   7.641   6.579   7.401  0.1756  0.2884  0.5354
  381MOL0     C51349   7.889   6.526   7.607 -0.1995  0.2505 -0.0284
  381MOL0     C51350   7.921   6.449   7.715  0.3123 -0.5444  0.0380
  381MOL0     N51351   7.965   6.197   8.341  0.5338  0.3285  0.1369
  381MOL0     N51352   7.980   6.069   8.308 -0.7703  0.0646  0.5702
  381MOL0     C51353   7.390   6.316   7.474  0.6484 -0.0110 -0.7905
  381MOL0     C51354   7.262   6.354   7.467  0.2993  0.7123 -0.3880
  381MOL0     C51355   6.891   6.393   7.174  0.1107  0.2868 -0.4600
  381MOL0     C51356   6.938   6.528   7.182 -0.3721  0.0723 -0.3357
  381MOL0     C51357   6.881   6.617   7.093 -0.4781  0.0887  0.2847
  381MOL0     C51358   6.783   6.581   7.002 -0.9398 -0.4558 -1.2394
  381MOL0     O51359   6.725   6.657   6.910  0.1978 -0.3349  0.3281
  381MOL0     C51360   6.778   6.779   6.877  0.5244 -0.7653 -0.4907
  381MOL0     C51361   6.676   6.845   6.775  0.4559  0.7328  0.7917
  381MOL0     C51362   6.714   6.991   6.754 -0.9524 -1.0342  0.1918
  381MOL0     C51363   6.630   7.063   6.658 -0.3313  0.3835 -0.8332
  381MOL0     C51364   6.493   7.090   6.705 -0.4422  0.0513  0.5915
  381MOL0     C51365   6.384   7.093   6.748  0.3263  0.2705  1.0004
  381MOL0     C51366   6.727   6.456   7.017 -0.4364 -0.1056 -0.1659
  381MOL0     C51367   6.777   6.360   7.100 -0.0368  0.3661 -1.3685
  381MOL0     H51368   7.153   6.118   7.252 -1.3920 -2.5902  0.4534
  381MOL0     H51369   7.360   6.013   7.296  1.4915 -0.6795  0.4851
  381MOL0     H51370   7.678   6.287   7.439  0.8463 -1.0423 -2.2589
  381MOL0     H51371   7.634   6.239   7.601  0.8705 -2.3410  0.9551
  381MOL0     H51372   7.837   6.069   7.437  0.6149  2.4745 -1.2657
  381MOL0     H51373   7.861   6.207   7.532  0.1201  1.0636 -3.0184
  381MOL0     H51374   7.764   6.099   7.737 -0.5805 -1.6398  1.0650
  381MOL0     H51375   7.709   5.963   7.628  2.7945 -1.9202 -3.3172
  381MOL0     H51376   7.921   5.872   7.585 -1.9857 -0.8326 -0.3207
  381MOL0     H51377   8.003   6.015   7.647  0.0950  0.3042  1.4647
  381MOL0     H51378   7.829   5.845   7.827  1.7607 -4.8597  0.5627
  381MOL0     H51379   7.978   5.781   7.769 -2.3106 -2.2491  1.5735
  381MOL0     H51380   8.087   5.988   7.880  1.3171 -0.3961  3.3761
  381MOL0     H51381   7.934   6.057   7.927 -1.7508 -1.8148  1.9838
  381MOL0     H51382   7.875   5.871   8.064 -0.9363 -0.9780 -2.1868
  381MOL0     H51383   8.002   5.775   8.008 -3.8409 -1.6181  0.1104
  381MOL0     H51384   8.186   5.919   8.097  0.1091 -3.7928  0.0424
  381MOL0     H51385   8.081   5.853   8.215  0.7967  1.6538  1.5491
  381MOL0     H51386   8.155   6.218   8.077 -0.2792 -0.9431  0.7093
  381MOL0     H51387   8.021   6.452   8.329  1.2122  0.6300 -0.4902
  381MOL0     H51388   8.175   6.416   8.236 -0.0949 -0.8482  1.2257
  381MOL0     H51389   8.057   6.450   8.011 -1.8054  1.1257 -0.9285
  381MOL0     H51390   8.051   6.590   8.109 -2.6740  1.5874  1.8956
  381MOL0     H51391   7.848   6.565   8.018  3.7567  0.1108 -0.9933
  381MOL0     H51392   7.823   6.531   8.184 -0.5667  2.8748 -1.2243
  381MOL0     H51393   7.700   6.379   8.040  1.0971  3.5479  2.5585
  381MOL0     H51394   7.811   6.263   8.096  0.9906 -1.6441 -1.2322
  381MOL0     H51395   7.623   6.466   7.871 -3.1436  0.3256 -1.3735
  381MOL0     H51396   7.519   6.683   7.800  3.8006  0.3619  0.5188
  381MOL0     H51397   7.547   6.735   7.634 -2.6732  0.5375  1.2217
  381MOL0     H51398   7.456   6.592   7.665  0.8177 -0.2556 -2.4747
  381MOL0     H51399   7.593   6.950   7.505  1.5387  0.9536  0.3049
  381MOL0     H51400   7.458   7.073   7.370 -5.6352 -2.4781 -1.8630
  381MOL0     H51401   7.588   7.183   6.962 -1.6365  2.1060  0.3001
  381MOL0     H51402   7.504   7.029   6.933 -1.3299  0.4615 -0.6122
  381MOL0     H51403   7.281   7.144   6.933  0.7959  0.0859  0.4789
  381MOL0     H51404   7.354   7.288   6.983  1.3566 -0.1963  1.5619
  381MOL0     H51405   7.428   7.169   6.706 -2.4877 -1.0904  0.5653
  381MOL0     H51406   7.489   7.315   6.791  1.4640 -0.4208 -1.6128
  381MOL0     H51407   7.194   7.260   6.717  0.1789  1.2690  0.8365
  381MOL0     H51408   7.280   7.421   6.740  0.6752  0.0749 -0.8903
  381MOL0     H51409   7.325   7.241   6.507 -0.7830 -3.1092  2.9664
  381MOL0     H51410   7.417   7.381   6.554  0.6423 -1.6178 -1.3119
  381MOL0     H51411   7.197   7.523   6.547  0.4115  1.0280 -1.0813
  381MOL0     H51412   7.245   7.457   6.394  0.3085  1.0960  0.5132
  381MOL0     H51413   7.032   7.374   6.584  1.4315  0.3833  0.8933
  381MOL0     H51414   7.093   7.256   6.462  2.1805 -1.2620  2.8991
  381MOL0     H51415   7.031   7.437   6.279  1.2705  2.1626  0.5325
  381MOL0     H51416   6.977   7.533   6.411 -1.7030  0.8915 -2.5555
  381MOL0     H51417   7.691   6.953   7.036  0.3320  0.7935  0.3138
  381MOL0     H51418   7.822   6.790   7.180  2.3462 -0.1268  3.5402
  381MOL0     H51419   7.959   6.531   7.524 -0.9127  0.3420 -0.6420
  381MOL0     H51420   8.022   6.408   7.720 -0.0015 -1.2188  0.9597
  381MOL0     H51421   7.472   6.365   7.526  1.7102  0.3350 -2.6919
  381MOL0     H51422   7.224   6.448   7.506  3.7031  1.8648  0.5160
  381MOL0     H51423   7.028   6.556   7.236 -0.7145  2.6136 -0.9840
  381MOL0     H51424   6.938   6.706   7.067 -0.7820  1.0367  2.5765
  381MOL0     H51425   6.777   6.833   6.972  0.9213  0.7806 -1.3147
  381MOL0     H51426   6.880   6.775   6.837 -0.1654  0.1162 -2.4425
  381MOL0     H51427   6.576   6.840   6.819 -1.2264  0.1700 -2.7358
  381MOL0     H51428   6.670   6.795   6.678 -1.9075 -0.2753  1.3837
  381MOL0     H51429   6.815   6.999   6.713  0.2368  2.2501  3.2014
  381MOL0     H51430   6.710   7.035   6.854 -3.2844  0.4469 -0.4593
  381MOL0     H51431   6.610   7.001   6.570 -1.3000  0.7825 -0.9042
  381MOL0     H51432   6.672   7.161   6.635 -3.0105  1.5507 -1.1042
  381MOL0     H51433   6.289   7.107   6.796  1.5779  4.3247  2.7748
  381MOL0     H51434   6.641   6.433   6.955  0.4349  0.3975 -1.6018
  381MOL0     H51435   6.741   6.258   7.092  0.5293  0.2870 -3.4720
  382MOL0     O51436   4.501   4.313   0.739 -0.4472 -0.0429 -0.1991
  382MOL0     C51437   4.530   4.336   0.626 -0.3740  0.0439 -0.5270
  382MOL0     O51438   4.650   4.383   0.577  0.5234 -0.4982  0.0449
  382MOL0     C51439   4.739   4.457   0.649  0.1781  0.7799 -0.4448
  382MOL0     C51440   4.878   4.462   0.607  0.0111 -0.0853  0.4619
  382MOL0     C51441   4.971   4.538   0.678  0.4718  0.8941 -0.0066
  382MOL0     C51442   4.938   4.610   0.792 -0.3517 -0.0969 -0.0051
  382MOL0     O51443   5.039   4.688   0.842 -0.0964  0.0471  0.6317
  382MOL0     C51444   5.038   4.718   0.983  0.3443  0.4625 -0.3246
  382MOL0     C51445   5.170   4.796   1.008 -0.7865 -0.2240  0.1325
  382MOL0     C51446   5.170   4.858   1.143 -0.6952 -0.1683 -0.2697
  382MOL0     C51447   5.319   4.889   1.183 -0.3586  1.0075 -0.1639
  382MOL0     C51448   5.332   4.980   1.305  0.2959  0.3981 -0.2755
  382MOL0     C51449   5.480   5.006   1.338  0.6827  0.0143  0.3854
  382MOL0     C51450   5.496   5.093   1.470 -0.5234  0.2436 -0.0919
  382MOL0     C51451   5.650   5.074   1.496  0.5369  0.9123  0.4325
  382MOL0     N51452   5.675   5.106   1.637 -0.4174  0.5528  0.0910
  382MOL0     C51453   5.676   5.229   1.690  0.3054  0.0691 -0.6317
  382MOL0     C51454   5.694   5.208   1.820 -0.7718 -1.2074  0.5082
  382MOL0     C51455   5.699   5.315   1.928 -0.3640 -0.6142  0.6077
  382MOL0     C51456   5.816   5.422   1.911 -0.3364  0.1761 -0.0478
  382MOL0     C51457   5.926   5.359   1.987  0.5733 -0.0054 -0.1174
  382MOL0     C51458   6.070   5.407   1.942  0.3882 -0.2889 -0.4731
  382MOL0     O51459   6.103   5.548   1.968 -0.1878  0.4173  0.4741
  382MOL0     C51460   6.090   5.627   2.077 -0.3362  0.2651 -0.7710
  382MOL0     C51461   6.178   5.598   2.187  0.4309 -0.0060  0.0700
  382MOL0     C51462   6.170   5.669   2.306  0.6826  0.6253 -0.2384
  382MOL0     C51463   6.254   5.626   2.422  0.0025 -0.7884 -0.1985
  382MOL0     C51464   6.069   5.776   2.315 -0.2951  0.5118 -0.1251
  382MOL0     C51465   6.046   5.851   2.439 -0.0643 -0.1266  0.2168
  382MOL0     O51466   6.051   5.989   2.420 -0.1679 -0.3315  0.4247
  382MOL0     C51467   6.009   6.067   2.526  0.1132 -0.0821  0.2788
  382MOL0     C51468   5.875   6.097   2.559 -0.1601  0.3797  0.2357
  382MOL0     C51469   5.830   6.156   2.682  0.8692 -0.3368  0.4272
  382MOL0     C51470   5.933   6.191   2.763 -0.3714  0.0418 -0.7075
  382MOL0     O51471   5.915   6.239   2.889  0.4999 -0.0310  0.2093
  382MOL0     C51472   5.784   6.216   2.948 -1.0285  0.6170  0.5504
  382MOL0     C51473   5.808   6.241   3.093  1.0678  0.4104  0.7909
  382MOL0     C51474   5.668   6.246   3.156 -0.7345 -0.1090  0.2141
  382MOL0     C51475   5.602   6.106   3.167  0.0011 -0.3772 -1.0467
  382MOL0     C51476   5.449   6.124   3.147  0.2648 -0.2832  1.0767
  382MOL0     C51477   5.371   6.157   3.273 -0.3497  0.2671  0.2234
  382MOL0     C51478   5.224   6.137   3.251 -0.7362  1.1146 -0.2430
  382MOL0     C51479   5.149   6.209   3.357  0.1672 -0.0390  0.4574
  382MOL0    Cl51480   5.188   6.116   3.515 -0.0560  0.0937 -0.3095
  382MOL0     C51481   6.070   6.162   2.733  1.1946 -0.0234 -0.3525
  382MOL0     C51482   6.106   6.111   2.613 -0.6570 -0.5881 -0.3896
  382MOL0     O51483   6.008   5.796   2.546 -0.1654  0.1912  0.0014
  382MOL0     C51484   5.993   5.819   2.204  0.8329 -0.4101 -0.2905
  382MOL0     C51485   5.998   5.739   2.090  0.6547 -0.0877 -0.3356
  382MOL0     N51486   5.689   5.068   1.843  0.5336  0.2424 -0.4343
  382MOL0     N51487   5.682   5.005   1.726 -0.2115  0.4003 -0.5661
  382MOL0     C51488   4.805   4.619   0.829 -0.5378  0.3869 -0.3918
  382MOL0     C51489   4.715   4.546   0.754  0.6115 -0.0010  0.4194
  382MOL0     C51490   4.439   4.291   0.515  0.5917  0.0861 -0.4427
  382MOL0     C51491   4.338   4.208   0.540  0.6365  0.1595 -0.4554
  382MOL0     C51492   4.249   4.174   0.437  0.2067 -0.6939 -1.2584
  382MOL0     C51493   4.274   4.206   0.311 -0.3629 -0.7862  0.5224
  382MOL0     O51494   4.201   4.169   0.198 -0.4374  0.6068  0.4604
  382MOL0     C51495   4.097   4.071   0.220 -0.1797 -0.6751 -0.2717
  382MOL0     C51496   4.046   4.042   0.078  0.3863  0.3008  0.1642
  382MOL0     C51497   3.919   3.958   0.065  0.2603 -0.0506 -0.6812
  382MOL0     C51498   3.882   3.917  -0.064 -0.2601 -0.5001  1.0539
  382MOL0     C51499   3.769   3.833  -0.043 -0.1420  0.6725 -0.3289
  382MOL0     C51500   3.664   3.773  -0.020 -0.1618 -1.3592  0.8400
  382MOL0     C51501   4.385   4.282   0.281 -0.7910 -0.0544  0.2773
  382MOL0     C51502   4.465   4.330   0.384  0.2392 -0.4675 -0.3879
  382MOL0     H51503   4.886   4.407   0.514 -0.3996 -3.8864  2.4972
  382MOL0     H51504   5.074   4.527   0.648  1.9530 -2.2651  5.0289
  382MOL0     H51505   4.953   4.771   1.025  0.2902 -0.8197  1.2697
  382MOL0     H51506   5.051   4.621   1.032  1.1440  0.9681  0.5006
  382MOL0     H51507   5.250   4.723   0.996 -1.0163 -0.1682 -2.1662
  382MOL0     H51508   5.176   4.870   0.927 -1.5924  1.3288  1.4176
  382MOL0     H51509   5.112   4.950   1.153  0.6078  0.8851 -1.8194
  382MOL0     H51510   5.147   4.781   1.218 -2.0937 -2.5536 -2.9537
  382MOL0     H51511   5.368   4.795   1.208  0.2066  2.1677  3.6577
  382MOL0     H51512   5.373   4.940   1.103 -0.2727 -0.4572 -1.0849
  382MOL0     H51513   5.277   5.073   1.294 -2.3993 -1.1379 -0.5189
  382MOL0     H51514   5.284   4.923   1.385 -3.4306  2.7861 -0.5718
  382MOL0     H51515   5.542   4.916   1.350 -0.5533 -0.5489  3.4139
  382MOL0     H51516   5.527   5.078   1.271  0.6362  2.2610  2.6487
  382MOL0     H51517   5.460   5.194   1.449  1.3008  0.6433 -1.5534
  382MOL0     H51518   5.433   5.051   1.549 -1.8902 -0.1756 -1.3587
  382MOL0     H51519   5.716   5.147   1.448  1.5915  0.7401  1.5671
  382MOL0     H51520   5.703   4.981   1.473 -0.2275  1.2127 -3.1047
  382MOL0     H51521   5.653   5.324   1.642  1.1075 -0.0332 -1.2554
  382MOL0     H51522   5.606   5.372   1.922  1.5403  2.6537 -1.7247
  382MOL0     H51523   5.691   5.252   2.017 -1.6090 -0.7627  0.3968
  382MOL0     H51524   5.786   5.517   1.955  0.1943  1.4366 -2.2654
  382MOL0     H51525   5.831   5.431   1.803 -1.5027 -1.4440 -0.3831
  382MOL0     H51526   5.924   5.250   1.973  1.2038 -0.1276  0.6802
  382MOL0     H51527   5.902   5.375   2.093  1.1610 -1.1694  0.2085
  382MOL0     H51528   6.094   5.391   1.837  1.7022 -1.8458  0.0301
  382MOL0     H51529   6.141   5.347   1.999  0.7465 -1.2874 -1.9307
  382MOL0     H51530   6.238   5.508   2.190  0.5060  0.0677  0.8218
  382MOL0     H51531   6.316   5.714   2.443 -1.6763  0.0961  1.3557
  382MOL0     H51532   6.193   5.624   2.513 -1.4380  4.2919 -0.7823
  382MOL0     H51533   6.324   5.546   2.396  2.7669  1.5968 -0.6148
  382MOL0     H51534   5.796   6.053   2.501 -2.0765 -0.2460  3.0958
  382MOL0     H51535   5.722   6.160   2.699  0.9405  0.9297  0.7299
  382MOL0     H51536   5.712   6.290   2.910 -1.1334  0.2039 -0.0549
  382MOL0     H51537   5.754   6.116   2.917  0.7431  0.0079  0.6797
  382MOL0     H51538   5.879   6.171   3.139  0.6146  0.1473  1.0945
  382MOL0     H51539   5.863   6.335   3.103  0.6549  0.6746  0.6064
  382MOL0     H51540   5.608   6.313   3.094  0.7611  2.1239  1.0477
  382MOL0     H51541   5.667   6.281   3.260  1.9551  4.9439 -1.1852
  382MOL0     H51542   5.641   6.036   3.092  0.2762  2.4940 -3.7884
  382MOL0     H51543   5.616   6.066   3.268  1.5337  1.4603 -0.4624
  382MOL0     H51544   5.417   6.032   3.098 -0.3565  0.6261 -0.2911
  382MOL0     H51545   5.414   6.197   3.073 -0.5400 -1.6076  0.0935
  382MOL0     H51546   5.416   6.103   3.358  0.5101 -2.3265 -1.7412
  382MOL0     H51547   5.382   6.265   3.279 -0.3202  0.6655 -4.0434
  382MOL0     H51548   5.194   6.032   3.241 -1.7118  1.5199 -1.9660
  382MOL0     H51549   5.197   6.162   3.148 -1.5093 -2.1670 -0.9634
  382MOL0     H51550   5.043   6.198   3.329  0.5807 -2.9151 -0.3085
  382MOL0     H51551   5.177   6.314   3.371 -0.1218 -0.0007  0.7715
  382MOL0     H51552   6.145   6.175   2.810  0.8223  1.0843 -0.1608
  382MOL0     H51553   6.210   6.100   2.585 -0.7122 -1.2514 -0.3399
  382MOL0     H51554   5.943   5.914   2.218 -0.5859 -1.1030 -0.4691
  382MOL0     H51555   5.939   5.776   2.007  1.0764  1.4034 -0.0004
  382MOL0     H51556   4.769   4.689   0.904 -1.4419  0.2829 -0.7221
  382MOL0     H51557   4.612   4.563   0.782  0.4420  1.0239 -0.7456
  382MOL0     H51558   4.313   4.174   0.640 -0.5170  2.4611  0.0941
  382MOL0     H51559   4.159   4.115   0.454 -0.7566  0.4933 -2.0105
  382MOL0     H51560   4.135   3.984   0.275 -0.0115  1.1868  2.7779
  382MOL0     H51561   4.023   4.107   0.292  2.6117  1.2857  1.8252
  382MOL0     H51562   4.130   3.985   0.036  1.2265  2.0539 -0.6610
  382MOL0     H51563   4.049   4.132   0.016 -0.6890 -0.6511 -1.3279
  382MOL0     H51564   3.833   4.017   0.101  0.2437 -0.5259  0.0937
  382MOL0     H51565   3.926   3.869   0.128 -1.9467 -1.0089 -1.6754
  382MOL0     H51566   3.963   3.870  -0.121  1.9886  3.7623  0.2896
  382MOL0     H51567   3.849   4.001  -0.124 -0.3196  0.2412  2.0953
  382MOL0     H51568   3.569   3.725  -0.013  0.4186 -2.6937 -0.0876
  382MOL0     H51569   4.392   4.325   0.181 -4.6220  0.4896  0.0704
  382MOL0     H51570   4.544   4.402   0.365  0.6478 -0.7803  0.0846
  383MOL0     O51571   6.846   2.459   9.510  0.3958  0.4172  0.1529
  383MOL0     C51572   6.924   2.553   9.504 -1.3509 -0.3987 -0.6260
  383MOL0     O51573   7.024   2.579   9.411  0.6659 -0.7326  0.4529
  383MOL0     C51574   7.063   2.499   9.310  0.0174  1.0026  0.3950
  383MOL0     C51575   7.081   2.367   9.331  0.3376 -0.0779 -0.4813
  383MOL0     C51576   7.133   2.284   9.236 -1.1871  0.3439  0.0681
  383MOL0     C51577   7.162   2.329   9.104  0.1719 -0.0055  0.9835
  383MOL0     O51578   7.192   2.242   8.998  0.1727  0.6450  0.0345
  383MOL0     C51579   7.115   2.259   8.881  0.3226 -0.8303 -0.1868
  383MOL0     C51580   7.127   2.134   8.792 -0.3230 -0.1455  0.9173
  383MOL0     C51581   7.070   2.176   8.649  0.0054  0.3877  0.7175
  383MOL0     C51582   7.166   2.101   8.559 -0.4291  0.3821  0.7154
  383MOL0     C51583   7.100   2.077   8.425  0.2399  0.4466  0.4785
  383MOL0     C51584   7.197   1.995   8.338  0.3243 -0.2921  0.6353
  383MOL0     C51585   7.129   1.923   8.217  0.1345 -0.7872  0.0489
  383MOL0     C51586   7.051   1.792   8.256 -1.2334  0.0381 -0.1541
  383MOL0     N51587   7.138   1.689   8.311 -0.2391  0.8167 -0.2994
  383MOL0     C51588   7.134   1.628   8.439 -0.1154 -0.4567 -0.1661
  383MOL0     C51589   7.213   1.527   8.429  0.1656  0.2749  0.2975
  383MOL0     C51590   7.227   1.420   8.534  0.5462 -0.0739  0.8304
  383MOL0     C51591   7.140   1.302   8.496 -0.8752  0.5130 -0.0465
  383MOL0     C51592   7.082   1.215   8.615  0.2037 -0.4275  0.0177
  383MOL0     C51593   7.184   1.157   8.712 -0.4586  0.7925  0.1437
  383MOL0     O51594   7.161   1.016   8.728  0.0847 -0.8900 -0.2531
  383MOL0     C51595   7.167   0.976   8.865  0.7028  0.8676  0.1421
  383MOL0     C51596   7.270   0.995   8.951  0.3505  0.8189  0.6277
  383MOL0     C51597   7.270   0.951   9.086 -0.3211 -0.7602  0.1557
  383MOL0     C51598   7.404   0.976   9.168  0.4898 -1.1907  0.4124
  383MOL0     C51599   7.144   0.898   9.130  0.1791 -0.0746 -0.1503
  383MOL0     C51600   7.126   0.862   9.276 -0.7155  0.6544 -0.2076
  383MOL0     O51601   6.995   0.834   9.304  0.5909  0.1047 -0.7568
  383MOL0     C51602   6.962   0.813   9.443  0.3598 -0.1860  0.9634
  383MOL0     C51603   6.986   0.901   9.546 -0.9077 -0.1303 -0.2859
  383MOL0     C51604   6.980   0.869   9.684 -1.1114  0.1139 -0.6376
  383MOL0     C51605   6.953   0.737   9.713  0.2437  0.5944  0.6786
  383MOL0     O51606   6.935   0.679   9.836  0.0564  0.4323 -1.0231
  383MOL0     C51607   7.046   0.679   9.931  0.4387 -0.6951 -0.7658
  383MOL0     C51608   7.003   0.585  10.049  0.3904  1.1610  0.7601
  383MOL0     C51609   7.062   0.614  10.186 -0.0014 -0.4349 -0.3612
  383MOL0     C51610   7.012   0.746  10.255 -0.2017  0.5311  0.3558
  383MOL0     C51611   7.065   0.753  10.405  1.8830 -0.2862  0.2293
  383MOL0     C51612   7.016   0.886  10.466  0.0292 -0.9230  0.4401
  383MOL0     C51613   7.098   0.920  10.593  0.0081  0.0949 -0.3462
  383MOL0     C51614   7.104   0.811  10.698  0.1043  0.1085 -0.2674
  383MOL0    Cl51615   6.939   0.766  10.774  0.2560 -0.1280  0.3485
  383MOL0     C51616   6.938   0.644   9.610 -0.1928  0.4771  0.3097
  383MOL0     C51617   6.946   0.681   9.478 -0.5201 -1.5193 -0.6340
  383MOL0     O51618   7.222   0.848   9.360  0.1894  0.5467  0.4067
  383MOL0     C51619   7.027   0.896   9.046 -0.2974  0.9363 -0.1168
  383MOL0     C51620   7.045   0.918   8.909 -0.7205 -0.4708  0.0418
  383MOL0     N51621   7.278   1.527   8.302 -1.0226  0.5720  0.2107
  383MOL0     N51622   7.230   1.624   8.233  0.3426 -0.0750 -0.3155
  383MOL0     C51623   7.154   2.472   9.085  0.0876  0.0155 -0.3230
  383MOL0     C51624   7.112   2.548   9.191 -0.5031  0.4787 -0.2553
  383MOL0     C51625   6.914   2.664   9.609  0.0341 -0.2513 -0.7387
  383MOL0     C51626   6.991   2.772   9.615  0.7560 -0.6564 -0.1634
  383MOL0     C51627   6.980   2.869   9.724 -0.7746  0.2067  0.3998
  383MOL0     C51628   6.904   2.843   9.836  0.4834  1.1994 -0.6639
  383MOL0     O51629   6.872   2.935   9.938  0.0375  0.0902 -0.0570
  383MOL0     C51630   6.745   3.002   9.932  0.5952  1.0871  0.0233
  383MOL0     C51631   6.659   2.965  10.058  0.3310 -0.2336  0.4984
  383MOL0     C51632   6.728   2.999  10.198 -0.0196  0.0492 -0.6782
  383MOL0     C51633   6.716   3.136  10.245 -0.5863 -0.6184  0.2052
  383MOL0     C51634   6.580   3.176  10.280 -0.7636 -0.0059 -0.7736
  383MOL0     C51635   6.465   3.212  10.297 -0.3075  0.4039  0.1834
  383MOL0     C51636   6.835   2.719   9.836 -0.5555 -0.0923  0.1175
  383MOL0     C51637   6.840   2.633   9.730 -0.2089  0.9429  0.4632
  383MOL0     H51638   7.068   2.318   9.427  0.6024 -0.2223 -0.5153
  383MOL0     H51639   7.155   2.182   9.266  1.8250  0.7837 -0.3100
  383MOL0     H51640   7.012   2.265   8.916 -0.3827 -2.8563 -1.7226
  383MOL0     H51641   7.133   2.354   8.831  0.8306 -0.3283  0.8987
  383MOL0     H51642   7.232   2.103   8.782 -0.6634 -1.0518  0.0188
  383MOL0     H51643   7.073   2.044   8.822 -0.9529 -1.0867 -2.5961
  383MOL0     H51644   6.966   2.142   8.648 -0.2276  0.6070  4.0631
  383MOL0     H51645   7.074   2.284   8.633  0.5548  0.1722 -0.7884
  383MOL0     H51646   7.250   2.171   8.545  0.4591 -0.1415  2.9933
  383MOL0     H51647   7.208   2.014   8.610  2.6372  1.4222  0.2160
  383MOL0     H51648   7.011   2.016   8.442  0.3860  0.3815  1.0137
  383MOL0     H51649   7.072   2.173   8.379 -0.6934  0.6484  1.4510
  383MOL0     H51650   7.281   2.058   8.308 -0.7474  1.1079  0.4911
  383MOL0     H51651   7.236   1.917   8.404 -0.3680  0.3308  1.8171
  383MOL0     H51652   7.058   1.990   8.169  0.6266 -2.5176 -3.4350
  383MOL0     H51653   7.197   1.896   8.135  1.2826 -2.8560  1.5813
  383MOL0     H51654   7.009   1.736   8.171  0.3197  0.1425 -1.0433
  383MOL0     H51655   6.971   1.824   8.323 -0.4196  0.1806  0.7680
  383MOL0     H51656   7.064   1.661   8.515 -2.5381 -1.3620 -1.8816
  383MOL0     H51657   7.334   1.397   8.536  0.7268  0.4443 -0.9384
  383MOL0     H51658   7.189   1.477   8.619  0.5936  3.2415 -1.1717
  383MOL0     H51659   7.197   1.230   8.436 -1.9992 -0.2203 -0.2642
  383MOL0     H51660   7.061   1.340   8.432 -0.3146 -1.4372 -2.0279
  383MOL0     H51661   7.028   1.130   8.572  0.3286 -0.8966  0.7631
  383MOL0     H51662   7.014   1.279   8.673 -0.6581 -0.2308 -1.1708
  383MOL0     H51663   7.188   1.219   8.801  1.5565  3.6370 -1.7528
  383MOL0     H51664   7.284   1.175   8.672 -0.3377 -0.7326 -0.3040
  383MOL0     H51665   7.359   1.049   8.922 -0.8104  0.8732 -3.2807
  383MOL0     H51666   7.494   0.981   9.107  1.6510 -0.6823  2.0881
  383MOL0     H51667   7.408   1.075   9.215  0.9114 -0.8356 -0.3420
  383MOL0     H51668   7.423   0.895   9.238  0.2505 -0.5900  1.1938
  383MOL0     H51669   7.016   1.003   9.521 -2.7009  1.0892  2.0882
  383MOL0     H51670   7.006   0.932   9.769  0.1312 -1.3133  0.0992
  383MOL0     H51671   7.138   0.636   9.891  0.7725  0.1125 -0.8911
  383MOL0     H51672   7.063   0.785   9.954  0.0607 -0.9841  0.9725
  383MOL0     H51673   6.894   0.594  10.050  0.3813  1.0323  1.0267
  383MOL0     H51674   7.030   0.483  10.021 -0.8774  0.7684  0.8928
  383MOL0     H51675   7.170   0.616  10.167  0.0767 -3.8322 -0.7970
  383MOL0     H51676   7.040   0.540  10.264  2.1020  0.7196  1.4661
  383MOL0     H51677   7.029   0.827  10.183 -0.6034 -2.2696 -3.2196
  383MOL0     H51678   6.907   0.716  10.257  0.5209 -2.3475 -0.5907
  383MOL0     H51679   7.174   0.753  10.402  1.9527  0.9843  1.6041
  383MOL0     H51680   7.027   0.669  10.465  0.6320  1.2458  1.6706
  383MOL0     H51681   7.036   0.962  10.390  1.7362 -0.9650  0.8055
  383MOL0     H51682   6.908   0.886  10.481  0.1371 -1.3651  1.2794
  383MOL0     H51683   7.054   1.002  10.652 -0.8690 -0.1062 -0.7122
  383MOL0     H51684   7.196   0.960  10.567 -0.1796  0.3512 -0.6764
  383MOL0     H51685   7.156   0.852  10.785 -3.1610 -0.5522  2.2183
  383MOL0     H51686   7.150   0.718  10.662 -0.9567 -0.6357  0.2161
  383MOL0     H51687   6.914   0.541   9.637 -0.1482  0.7672  1.4949
  383MOL0     H51688   6.941   0.597   9.410 -2.3925 -2.1068  0.1593
  383MOL0     H51689   6.932   0.857   9.082  1.8021 -3.3726  1.5300
  383MOL0     H51690   6.968   0.911   8.834  0.8143  2.4024 -2.0141
  383MOL0     H51691   7.186   2.522   8.995  1.3237  2.9727  1.5940
  383MOL0     H51692   7.124   2.656   9.189 -0.0619  0.4727  1.0211
  383MOL0     H51693   7.060   2.807   9.539 -0.1401  0.7963 -0.3500
  383MOL0     H51694   7.040   2.958   9.704  1.4879 -1.9107 -3.5555
  383MOL0     H51695   6.768   3.106   9.908  0.0115  0.8389 -1.6787
  383MOL0     H51696   6.691   2.972   9.842  4.0332 -1.9629 -1.2837
  383MOL0     H51697   6.628   2.861  10.046 -1.7082  0.3918  0.1434
  383MOL0     H51698   6.567   3.023  10.063 -0.7407 -1.9748  2.9746
  383MOL0     H51699   6.836   2.982  10.198  0.2037  1.0758 -2.5504
  383MOL0     H51700   6.697   2.930  10.276  0.1308 -1.6565 -2.0601
  383MOL0     H51701   6.730   3.199  10.157  1.3922  0.1286  0.9894
  383MOL0     H51702   6.792   3.151  10.322  1.0382 -0.5604 -1.3254
  383MOL0     H51703   6.368   3.255  10.313 -1.3954 -2.1682  1.0430
  383MOL0     H51704   6.798   2.678   9.930 -0.3778  0.8379  0.6037
  383MOL0     H51705   6.786   2.540   9.741  1.9715 -0.4223  0.3708
  384MOL0     O51706   8.471   8.856   4.150 -0.4853  0.2385  0.7173
  384MOL0     C51707   8.439   8.878   4.268  0.3732 -0.0580 -0.0000
  384MOL0     O51708   8.427   8.790   4.370  0.4913  0.4001  0.0796
  384MOL0     C51709   8.475   8.670   4.351  0.5672  0.0763 -0.5445
  384MOL0     C51710   8.602   8.635   4.313 -0.0738  0.0690  0.3114
  384MOL0     C51711   8.651   8.511   4.288 -0.3559 -0.4547 -1.0563
  384MOL0     C51712   8.563   8.405   4.284 -0.4233  0.0196  0.4882
  384MOL0     O51713   8.610   8.274   4.264  0.3180  0.1061 -0.2789
  384MOL0     C51714   8.594   8.182   4.374 -0.0598 -0.3954 -0.2637
  384MOL0     C51715   8.671   8.050   4.341 -0.3129  0.4620  0.2523
  384MOL0     C51716   8.814   8.066   4.283 -0.2401  0.8816  0.7371
  384MOL0     C51717   8.899   8.132   4.389 -0.3950  0.0258 -0.8316
  384MOL0     C51718   9.056   8.116   4.374 -0.0245 -0.2160 -1.0106
  384MOL0     C51719   9.137   8.210   4.471  0.0218  0.3062 -0.3634
  384MOL0     C51720   9.131   8.364   4.446  0.6665  0.7697 -0.0268
  384MOL0     C51721   9.221   8.448   4.534  0.8058  0.8504  0.1483
  384MOL0     N51722   9.206   8.417   4.673 -0.2935 -0.9308 -0.1078
  384MOL0     C51723   9.092   8.435   4.745 -0.1705 -0.9681 -0.7769
  384MOL0     C51724   9.138   8.403   4.873  1.0099 -0.0533 -0.7116
  384MOL0     C51725   9.051   8.383   4.986 -0.2912 -0.8735 -1.1312
  384MOL0     C51726   8.963   8.252   4.991  0.3104 -0.4206  0.0497
  384MOL0     C51727   8.833   8.250   4.892 -0.3622 -0.0605 -0.1354
  384MOL0     C51728   8.761   8.118   4.904 -0.0672  0.0765 -0.0866
  384MOL0     O51729   8.700   8.122   5.034  0.1454  0.6584 -0.1204
  384MOL0     C51730   8.682   8.001   5.104 -0.7545 -0.5780  0.1649
  384MOL0     C51731   8.695   7.872   5.056  0.2319  0.9297  0.2003
  384MOL0     C51732   8.670   7.757   5.136 -0.1274  0.8812 -0.0435
  384MOL0     C51733   8.671   7.616   5.077  0.6679 -0.2494  0.3775
  384MOL0     C51734   8.635   7.785   5.272  0.0392 -0.0019  0.0553
  384MOL0     C51735   8.624   7.685   5.376  0.2901 -0.0956  0.4584
  384MOL0     O51736   8.524   7.698   5.467 -0.5558  0.4530  0.7826
  384MOL0     C51737   8.520   7.624   5.587 -0.1473  0.0158 -0.9177
  384MOL0     C51738   8.597   7.500   5.611  0.0441 -0.6050 -0.0325
  384MOL0     C51739   8.568   7.418   5.723  0.6082  0.3233 -0.1535
  384MOL0     C51740   8.469   7.467   5.820 -0.2912 -0.3420  0.2406
  384MOL0     O51741   8.445   7.392   5.931 -0.0718  0.1150  0.8535
  384MOL0     C51742   8.407   7.261   5.924  0.2997  0.2591  0.5377
  384MOL0     C51743   8.314   7.216   5.809 -0.0055 -0.1296 -0.0603
  384MOL0     C51744   8.206   7.128   5.857 -1.6036 -0.3158 -0.3575
  384MOL0     C51745   8.260   6.997   5.930 -0.8389 -0.0953 -0.0519
  384MOL0     C51746   8.145   6.908   5.973 -0.4889 -0.6018  0.9926
  384MOL0     C51747   8.087   6.847   5.851 -0.9687  0.0791  0.3856
  384MOL0     C51748   7.994   6.725   5.879 -0.0443  0.1429  0.0163
  384MOL0     C51749   7.886   6.742   5.990 -0.2117  0.2294  0.1195
  384MOL0    Cl51750   7.765   6.873   5.940  0.1584 -0.1579  0.0890
  384MOL0     C51751   8.396   7.591   5.791  0.6336  0.0744  0.6534
  384MOL0     C51752   8.416   7.654   5.673  0.7105 -0.8777  0.4549
  384MOL0     O51753   8.706   7.593   5.371  0.7610 -0.7081  0.0226
  384MOL0     C51754   8.623   7.919   5.318  0.3079 -0.1860 -0.4098
  384MOL0     C51755   8.645   8.026   5.231 -0.0877 -0.5190 -0.2469
  384MOL0     N51756   9.268   8.351   4.866  0.6201  0.5067 -0.0518
  384MOL0     N51757   9.310   8.357   4.743 -0.3436 -0.6529 -0.1026
  384MOL0     C51758   8.435   8.426   4.319 -0.0677  0.5960  0.5903
  384MOL0     C51759   8.392   8.559   4.352  0.4166  0.3255  0.1127
  384MOL0     C51760   8.427   9.022   4.303 -0.1086  0.1547  0.3718
  384MOL0     C51761   8.467   9.088   4.425  0.0638  0.3918  0.2116
  384MOL0     C51762   8.451   9.224   4.430 -0.4792  0.2297 -0.2805
  384MOL0     C51763   8.410   9.306   4.326 -1.0403  0.3059 -0.1038
  384MOL0     O51764   8.395   9.441   4.321  0.1735 -0.4542 -0.2544
  384MOL0     C51765   8.469   9.513   4.412  0.1654 -0.2460 -0.4543
  384MOL0     C51766   8.415   9.652   4.417  0.5989 -0.5715  0.1090
  384MOL0     C51767   8.495   9.760   4.493 -0.0446 -0.6033 -0.4649
  384MOL0     C51768   8.471   9.906   4.434  0.1634 -0.1026 -0.2949
  384MOL0     C51769   8.330   9.951   4.461  0.0207 -0.4495  0.5129
  384MOL0     C51770   8.211   9.969   4.492  0.9903 -1.2224  0.3422
  384MOL0     C51771   8.367   9.233   4.211  0.3255  1.0620  0.0870
  384MOL0     C51772   8.372   9.095   4.198  0.3681 -0.0848 -0.1082
  384MOL0     H51773   8.677   8.713   4.323  0.9115 -0.7848 -0.2514
  384MOL0     H51774   8.757   8.496   4.267  0.1856  1.5134  0.0075
  384MOL0     H51775   8.639   8.224   4.463  0.2160  0.5946 -0.8599
  384MOL0     H51776   8.490   8.155   4.397 -0.2264 -1.8354 -2.3586
  384MOL0     H51777   8.662   7.990   4.432 -0.0427 -0.5952 -0.4045
  384MOL0     H51778   8.597   7.992   4.285  1.1252 -2.8679  1.5414
  384MOL0     H51779   8.856   7.969   4.254 -0.3248  0.9096  0.5121
  384MOL0     H51780   8.815   8.142   4.204 -0.7517  0.0533 -0.1058
  384MOL0     H51781   8.863   8.236   4.392  0.6978  0.3964  1.5681
  384MOL0     H51782   8.870   8.097   4.489 -0.4930  2.2157 -0.0293
  384MOL0     H51783   9.089   8.012   4.386 -2.6737 -1.2759 -2.0709
  384MOL0     H51784   9.081   8.142   4.272 -1.2317  0.6017 -1.1194
  384MOL0     H51785   9.116   8.184   4.575  1.1867  1.8849  0.2954
  384MOL0     H51786   9.240   8.178   4.454  0.1398 -0.0653  0.9606
  384MOL0     H51787   9.141   8.395   4.342 -1.3711  1.0833 -0.1586
  384MOL0     H51788   9.026   8.381   4.472  0.4162  2.6757 -1.9827
  384MOL0     H51789   9.185   8.549   4.516  0.5245  0.5927 -0.7411
  384MOL0     H51790   9.319   8.405   4.509  0.2355 -2.5998  2.9029
  384MOL0     H51791   8.989   8.454   4.718 -0.4927  1.6292  1.7448
  384MOL0     H51792   9.118   8.395   5.072 -1.5365 -1.6484  0.0074
  384MOL0     H51793   8.980   8.466   4.991 -1.2841 -1.7608  1.0313
  384MOL0     H51794   8.939   8.233   5.096  1.1185  0.6246  0.4449
  384MOL0     H51795   9.038   8.180   4.955  1.2495  0.9747 -0.8662
  384MOL0     H51796   8.866   8.250   4.788  0.5446 -4.1259 -0.0054
  384MOL0     H51797   8.774   8.338   4.921  0.8107  0.6136  0.2318
  384MOL0     H51798   8.831   8.035   4.892  0.9347  1.1538 -2.2315
  384MOL0     H51799   8.686   8.120   4.824 -1.5456 -1.9239  1.1441
  384MOL0     H51800   8.716   7.848   4.953 -3.3469 -8.2163  0.7342
  384MOL0     H51801   8.748   7.555   5.125 -0.4572 -0.7650  1.6130
  384MOL0     H51802   8.569   7.574   5.076  0.3028  0.6273 -0.3646
  384MOL0     H51803   8.705   7.607   4.974 -1.9569 -0.7371 -0.5413
  384MOL0     H51804   8.682   7.477   5.548  1.8188 -1.1144  2.3838
  384MOL0     H51805   8.615   7.320   5.733 -1.4045 -0.8129 -1.2404
  384MOL0     H51806   8.493   7.194   5.915 -0.4788 -1.1472  2.8873
  384MOL0     H51807   8.360   7.240   6.020 -1.6791  1.2144 -0.1719
  384MOL0     H51808   8.267   7.306   5.767 -0.7887 -0.3602  0.3025
  384MOL0     H51809   8.364   7.179   5.719  0.4149 -0.7404  0.4118
  384MOL0     H51810   8.150   7.104   5.766 -0.0958 -0.6908 -1.2145
  384MOL0     H51811   8.132   7.191   5.908  0.0334  1.6746 -0.3241
  384MOL0     H51812   8.326   6.940   5.864  0.8298  0.1371  1.3548
  384MOL0     H51813   8.326   7.026   6.012 -0.8747  1.0136 -0.4008
  384MOL0     H51814   8.059   6.958   6.018 -0.7606 -0.6023  0.4720
  384MOL0     H51815   8.180   6.825   6.036  0.6832 -0.8950 -0.0060
  384MOL0     H51816   8.026   6.920   5.796 -1.2598  2.1191  3.1977
  384MOL0     H51817   8.165   6.812   5.782  1.4570 -3.9415  4.5829
  384MOL0     H51818   8.045   6.632   5.905 -0.6540 -0.0007  0.7370
  384MOL0     H51819   7.936   6.705   5.788  0.7288  0.5811 -0.5904
  384MOL0     H51820   7.930   6.777   6.084 -1.2042  3.4619 -0.4713
  384MOL0     H51821   7.842   6.642   5.994  0.8052 -0.2182  3.6819
  384MOL0     H51822   8.320   7.615   5.865  0.2858 -0.7765  0.5939
  384MOL0     H51823   8.354   7.738   5.646  0.1254 -2.0085 -2.0272
  384MOL0     H51824   8.601   7.947   5.421  1.5217  1.3884 -0.5457
  384MOL0     H51825   8.624   8.123   5.273 -1.3314 -1.8866  2.5375
  384MOL0     H51826   8.358   8.350   4.313  1.5048 -0.9510 -1.0658
  384MOL0     H51827   8.291   8.586   4.384  1.9713  4.4834  2.3104
  384MOL0     H51828   8.513   9.028   4.503  2.3822 -0.1093 -1.4006
  384MOL0     H51829   8.488   9.264   4.525  0.8097  0.1638 -0.7335
  384MOL0     H51830   8.456   9.470   4.512 -1.1711  0.0227 -0.4970
  384MOL0     H51831   8.575   9.512   4.384  0.9032  0.2046  2.0511
  384MOL0     H51832   8.314   9.646   4.459  0.0731 -1.2769 -1.2265
  384MOL0     H51833   8.410   9.675   4.311  2.1153 -0.0001  0.1319
  384MOL0     H51834   8.602   9.747   4.475  1.2167  3.0692  2.8384
  384MOL0     H51835   8.474   9.751   4.600  5.8678  3.5100  1.5772
  384MOL0     H51836   8.498   9.910   4.329  0.1745 -0.8048 -0.3234
  384MOL0     H51837   8.547   9.971   4.476  1.7711 -3.0662  1.8021
  384MOL0     H51838   8.104   9.974   4.501  0.7874  1.3994 -1.9370
  384MOL0     H51839   8.326   9.284   4.124 -3.2367 -2.1461 -0.3735
  384MOL0     H51840   8.353   9.049   4.101 -2.5203  1.5923 -0.4561
  385MOL0     O51841   5.057   2.735   9.864 -0.8759 -0.1768  1.1045
  385MOL0     C51842   5.047   2.765   9.744 -0.5733  0.4344  0.1299
  385MOL0     O51843   4.930   2.781   9.672  0.0055 -0.4848 -0.2791
  385MOL0     C51844   4.804   2.764   9.725 -0.7085 -0.0185  0.4984
  385MOL0     C51845   4.762   2.838   9.837 -1.0817  0.5294 -0.5679
  385MOL0     C51846   4.638   2.811   9.890 -0.5945  0.0031 -0.4617
  385MOL0     C51847   4.548   2.721   9.826 -0.2260 -0.5295 -0.4354
  385MOL0     O51848   4.428   2.690   9.877  0.0704  0.3270  0.0022
  385MOL0     C51849   4.415   2.694  10.016 -0.6524  0.1770 -0.2460
  385MOL0     C51850   4.478   2.564  10.079 -0.2066 -0.3765  0.1871
  385MOL0     C51851   4.477   2.568  10.230  0.3402  0.3643 -0.3214
  385MOL0     C51852   4.536   2.436  10.282  0.5963 -0.9356  1.1094
  385MOL0     C51853   4.540   2.410  10.423 -1.4958 -0.6897  0.3374
  385MOL0     C51854   4.404   2.381  10.504 -1.0636  0.2244  0.1271
  385MOL0     C51855   4.357   2.497  10.589 -0.2614  0.0132 -0.2121
  385MOL0     C51856   4.223   2.440  10.651 -0.3708 -0.3772  1.0483
  385MOL0     N51857   4.159   2.545  10.728  0.0062  0.0187 -0.0920
  385MOL0     C51858   4.211   2.662  10.780 -0.8426  0.1185  0.6695
  385MOL0     C51859   4.091   2.736  10.810 -0.1084  0.0594  0.8056
  385MOL0     C51860   4.095   2.882  10.843 -0.3321 -0.8513  0.0623
  385MOL0     C51861   4.227   2.916  10.914  0.7070 -0.1656  0.5691
  385MOL0     C51862   4.217   3.055  10.980  0.0543  0.1675 -1.0562
  385MOL0     C51863   4.236   3.180  10.894 -0.8152 -0.3527 -0.4632
  385MOL0     O51864   4.333   3.173  10.790  0.3560  0.0530 -0.1967
  385MOL0     C51865   4.387   3.294  10.754 -0.2905  0.4110  0.3868
  385MOL0     C51866   4.486   3.359  10.819 -0.7324 -0.4689  0.6322
  385MOL0     C51867   4.551   3.463  10.755  1.1694 -0.2193  0.8753
  385MOL0     C51868   4.654   3.538  10.846  0.5552  0.2985  1.1685
  385MOL0     C51869   4.510   3.522  10.635  0.1748  0.5980 -0.1520
  385MOL0     C51870   4.581   3.622  10.561  1.1217  0.5564  1.2666
  385MOL0     O51871   4.610   3.607  10.425  0.0671 -0.3362  0.0751
  385MOL0     C51872   4.655   3.710  10.340  0.7061 -0.1848 -0.6988
  385MOL0     C51873   4.596   3.841  10.333 -0.6070  0.4946 -0.2205
  385MOL0     C51874   4.665   3.935  10.251  0.5091  0.2420  0.0159
  385MOL0     C51875   4.785   3.899  10.179  0.2984 -0.3549  0.5839
  385MOL0     O51876   4.849   3.982  10.098 -0.5060 -0.0725 -0.8505
  385MOL0     C51877   4.800   4.122  10.086  0.3816  0.6194  0.0311
  385MOL0     C51878   4.904   4.207  10.014  0.4143  0.2570  0.8432
  385MOL0     C51879   4.935   4.136   9.880 -0.0427  0.5844  0.0753
  385MOL0     C51880   5.010   4.236   9.784  0.3074 -0.0604  0.0009
  385MOL0     C51881   5.066   4.171   9.662  0.2402 -0.2044 -1.1207
  385MOL0     C51882   5.116   4.277   9.552 -0.4906  0.0462  0.3118
  385MOL0     C51883   5.144   4.213   9.418  0.3207  0.2837  0.7527
  385MOL0     C51884   5.251   4.103   9.437 -1.0120  0.3033  0.0680
  385MOL0    Cl51885   5.178   3.942   9.477 -0.2352  0.2721 -0.1225
  385MOL0     C51886   4.830   3.764  10.196 -0.1046  0.3798  0.6023
  385MOL0     C51887   4.763   3.668  10.268  0.2436  0.3956  0.6646
  385MOL0     O51888   4.598   3.733  10.619 -0.0119  0.6703 -0.6648
  385MOL0     C51889   4.395   3.471  10.587  0.2120 -0.1695  0.3477
  385MOL0     C51890   4.349   3.352  10.634  0.8560 -0.8691 -0.3120
  385MOL0     N51891   3.977   2.674  10.765 -0.5003 -0.6008 -0.5233
  385MOL0     N51892   4.021   2.560  10.724 -0.1688  0.3939 -0.6674
  385MOL0     C51893   4.585   2.657   9.707  0.3720 -0.9497  0.0993
  385MOL0     C51894   4.714   2.681   9.653  0.6802 -0.1810  0.1597
  385MOL0     C51895   5.172   2.772   9.658 -0.4163  0.2493 -0.4330
  385MOL0     C51896   5.294   2.770   9.713  1.1788 -0.8625 -0.3410
  385MOL0     C51897   5.409   2.778   9.638 -0.0353 -0.6256  0.3353
  385MOL0     C51898   5.403   2.786   9.499  0.7275  0.5305 -0.1275
  385MOL0     O51899   5.516   2.779   9.423  0.5611 -0.0795 -0.3643
  385MOL0     C51900   5.569   2.902   9.358  0.2757  0.0055  0.1319
  385MOL0     C51901   5.680   2.845   9.273 -0.2020  0.9835 -0.8418
  385MOL0     C51902   5.621   2.729   9.185  0.6243 -0.4681 -0.7326
  385MOL0     C51903   5.716   2.687   9.070  0.7909 -0.2350 -0.4532
  385MOL0     C51904   5.704   2.760   8.951 -0.3860  0.3789  0.2459
  385MOL0     C51905   5.714   2.796   8.834 -0.2580  0.0489 -0.0159
  385MOL0     C51906   5.281   2.781   9.438  0.5921 -0.0284  0.5972
  385MOL0     C51907   5.161   2.775   9.515 -0.0337  0.0588 -0.4881
  385MOL0     H51908   4.836   2.903   9.884 -2.2206  1.3016  0.2017
  385MOL0     H51909   4.637   2.846   9.993  1.6458 -2.9210  0.7028
  385MOL0     H51910   4.447   2.792  10.053 -0.2083  0.9959 -2.5888
  385MOL0     H51911   4.308   2.700  10.038 -0.9205  1.3640 -1.6405
  385MOL0     H51912   4.429   2.483  10.024  2.4293 -0.4788 -2.2252
  385MOL0     H51913   4.584   2.564  10.053 -0.8071 -1.5482 -2.6492
  385MOL0     H51914   4.543   2.654  10.249  0.3259  0.9182 -2.5611
  385MOL0     H51915   4.380   2.591  10.275 -0.3505 -0.3053 -1.4256
  385MOL0     H51916   4.482   2.352  10.239  0.1794 -0.3725  0.5116
  385MOL0     H51917   4.639   2.435  10.244  0.3382 -0.0856  0.3386
  385MOL0     H51918   4.606   2.323  10.428  1.6641  1.5732  1.5096
  385MOL0     H51919   4.614   2.483  10.459  0.4547 -0.9297 -2.8116
  385MOL0     H51920   4.337   2.351  10.423 -0.7471  1.4347 -0.6273
  385MOL0     H51921   4.426   2.296  10.569 -2.3283 -0.4483 -0.2986
  385MOL0     H51922   4.430   2.527  10.664 -0.0071  2.7608 -1.4259
  385MOL0     H51923   4.334   2.583  10.524 -1.4338 -0.4078 -0.3863
  385MOL0     H51924   4.257   2.358  10.715  3.2662 -0.3696 -0.6303
  385MOL0     H51925   4.164   2.401  10.568  2.0070 -3.0678  0.4451
  385MOL0     H51926   4.316   2.686  10.782  0.4280 -4.1084 -2.1284
  385MOL0     H51927   4.108   2.939  10.751 -1.8583  1.8030  1.3624
  385MOL0     H51928   3.999   2.907  10.889  0.8727 -0.5818  2.6037
  385MOL0     H51929   4.318   2.912  10.854  1.8336 -3.1340  2.2665
  385MOL0     H51930   4.230   2.840  10.993  2.5725 -1.2184 -0.4549
  385MOL0     H51931   4.302   3.072  11.046 -1.5559  3.1700  0.4523
  385MOL0     H51932   4.125   3.063  11.040 -0.0320 -0.0361 -1.1625
  385MOL0     H51933   4.261   3.256  10.968  0.3451 -1.5544  0.4326
  385MOL0     H51934   4.140   3.207  10.849 -1.6344 -0.3810  1.2104
  385MOL0     H51935   4.530   3.307  10.903 -0.1018  0.3876  0.8477
  385MOL0     H51936   4.704   3.461  10.906  0.6822 -0.0425  0.6272
  385MOL0     H51937   4.724   3.589  10.779 -0.2925  2.3033  1.7252
  385MOL0     H51938   4.602   3.609  10.911  0.1956  1.8997 -0.7592
  385MOL0     H51939   4.508   3.865  10.392 -0.5603 -2.1720  1.0595
  385MOL0     H51940   4.624   4.033  10.232  2.1592  0.8826 -0.4303
  385MOL0     H51941   4.707   4.111  10.029  0.0574  1.5873  0.3552
  385MOL0     H51942   4.788   4.161  10.187  0.4548 -0.0323  0.2952
  385MOL0     H51943   4.867   4.307   9.992 -3.5032 -1.6925 -3.0229
  385MOL0     H51944   4.995   4.208  10.075 -0.2429  2.1476  1.8691
  385MOL0     H51945   4.847   4.115   9.818  0.1531  1.8981 -0.6874
  385MOL0     H51946   4.991   4.047   9.907 -3.4331 -1.6209  0.4698
  385MOL0     H51947   4.942   4.317   9.755 -2.0143 -2.9976 -3.6824
  385MOL0     H51948   5.093   4.280   9.840  0.7229  1.5778 -1.8018
  385MOL0     H51949   4.977   4.112   9.637  0.4044 -0.0493 -2.1534
  385MOL0     H51950   5.147   4.105   9.694  0.1419  0.4675  0.5734
  385MOL0     H51951   5.032   4.345   9.534 -0.8673 -0.7576 -1.1135
  385MOL0     H51952   5.207   4.328   9.585  0.2099  0.4293 -2.0029
  385MOL0     H51953   5.176   4.291   9.347 -0.5800  0.9602  1.0671
  385MOL0     H51954   5.056   4.167   9.373  1.7519 -0.5266 -1.4130
  385MOL0     H51955   5.331   4.125   9.508  0.9475 -1.5140 -1.4331
  385MOL0     H51956   5.313   4.091   9.347 -0.2117  0.8246  0.5327
  385MOL0     H51957   4.917   3.730  10.140 -0.7437  0.2981 -0.3591
  385MOL0     H51958   4.803   3.568  10.271  1.8754  0.8889 -1.7998
  385MOL0     H51959   4.340   3.514  10.504 -1.7776 -3.2284 -0.0558
  385MOL0     H51960   4.262   3.315  10.580 -0.2523 -1.3105  1.6898
  385MOL0     H51961   4.505   2.605   9.657  1.6417  1.2966 -4.8796
  385MOL0     H51962   4.750   2.625   9.567  3.3014  2.6479 -0.7643
  385MOL0     H51963   5.315   2.770   9.820 -2.2188 -3.4718  0.4938
  385MOL0     H51964   5.510   2.796   9.675  0.5642  1.3351 -1.9767
  385MOL0     H51965   5.499   2.956   9.294 -1.1206 -1.6569  0.2042
  385MOL0     H51966   5.616   2.975   9.426  1.2325  1.2236 -1.7320
  385MOL0     H51967   5.741   2.801   9.352 -0.0679  3.1761  0.3526
  385MOL0     H51968   5.739   2.915   9.212  1.0678  0.2660 -0.4681
  385MOL0     H51969   5.533   2.771   9.136  1.3524  2.1889  0.0585
  385MOL0     H51970   5.607   2.644   9.251 -2.6355  0.6442  0.1823
  385MOL0     H51971   5.701   2.580   9.048 -2.8991 -0.3167  1.7286
  385MOL0     H51972   5.816   2.704   9.111  0.2458  0.7520  0.5101
  385MOL0     H51973   5.746   2.818   8.733 -1.5147  0.5749 -0.3186
  385MOL0     H51974   5.271   2.797   9.331  1.1565  2.1890  0.8345
  385MOL0     H51975   5.061   2.777   9.473 -0.4195 -4.0276 -0.1338
  386MOL0     O51976   3.286   5.738   1.211 -0.5767 -0.2998 -0.3202
  386MOL0     C51977   3.176   5.781   1.164 -0.5124  0.5730  0.4835
  386MOL0     O51978   3.101   5.877   1.221  0.5398  0.0659  1.0005
  386MOL0     C51979   3.147   5.939   1.328  0.0718 -0.1087  0.1046
  386MOL0     C51980   3.177   6.073   1.321 -0.4708 -0.3212  0.4570
  386MOL0     C51981   3.207   6.148   1.433 -0.6890 -0.5035 -0.1267
  386MOL0     C51982   3.216   6.083   1.561  0.2982  0.8484 -0.0652
  386MOL0     O51983   3.253   6.149   1.679  0.7463  0.3907 -0.0472
  386MOL0     C51984   3.269   6.292   1.659 -0.3683  0.5598 -0.3702
  386MOL0     C51985   3.296   6.359   1.798 -0.1201 -0.4392 -0.2099
  386MOL0     C51986   3.351   6.503   1.783  0.1427 -0.4402  0.9957
  386MOL0     C51987   3.491   6.532   1.729  0.2241  0.0107  0.2561
  386MOL0     C51988   3.520   6.684   1.741 -0.3188 -0.1247  0.0140
  386MOL0     C51989   3.454   6.782   1.651  0.6255 -0.7227 -0.4280
  386MOL0     C51990   3.455   6.746   1.497  0.5870 -0.0067 -0.9187
  386MOL0     C51991   3.593   6.741   1.436  0.7641  0.5213 -0.4398
  386MOL0     N51992   3.577   6.660   1.315 -0.9611 -0.4541  0.2642
  386MOL0     C51993   3.589   6.520   1.307  0.2567  0.0076 -0.2487
  386MOL0     C51994   3.562   6.485   1.174  0.7271  0.9828 -0.1710
  386MOL0     C51995   3.561   6.339   1.125 -0.3651  0.1973 -0.4014
  386MOL0     C51996   3.643   6.335   0.999 -0.1266 -0.2528 -0.5227
  386MOL0     C51997   3.791   6.326   1.027  0.2326  0.2659 -0.0555
  386MOL0     C51998   3.828   6.188   1.087  0.2232  0.1382  0.3822
  386MOL0     O51999   3.922   6.119   1.000  0.3747 -0.0864 -0.3557
  386MOL0     C52000   4.052   6.168   1.005 -0.1244  0.2060  0.3668
  386MOL0     C52001   4.127   6.132   0.896 -0.7579  0.5817 -0.2826
  386MOL0     C52002   4.267   6.154   0.886  0.1060  0.3964  0.3524
  386MOL0     C52003   4.334   6.082   0.765  0.4259  0.4037  0.2743
  386MOL0     C52004   4.328   6.231   0.997 -0.5542  0.0326  0.2761
  386MOL0     C52005   4.472   6.246   1.007 -0.1550 -0.2020  0.0045
  386MOL0     O52006   4.525   6.303   1.124  0.1159  0.5056 -0.3118
  386MOL0     C52007   4.657   6.288   1.166 -0.3659 -0.0517  0.3897
  386MOL0     C52008   4.688   6.382   1.271 -0.3691  1.2371  0.0791
  386MOL0     C52009   4.816   6.386   1.329 -0.2947  0.8465 -0.5596
  386MOL0     C52010   4.906   6.293   1.291  0.4977 -0.1762  0.2090
  386MOL0     O52011   5.024   6.270   1.359  0.1107  0.5484  0.4921
  386MOL0     C52012   5.025   6.327   1.490 -0.0945  0.4162  0.8958
  386MOL0     C52013   5.169   6.302   1.530 -0.0481 -0.7422 -0.4529
  386MOL0     C52014   5.208   6.151   1.553  0.4258  0.4514  0.3910
  386MOL0     C52015   5.355   6.136   1.551 -0.4394 -0.6741  0.4364
  386MOL0     C52016   5.397   5.996   1.605 -0.0349 -0.1324  0.6184
  386MOL0     C52017   5.553   5.987   1.617  0.2154  0.0568  0.5415
  386MOL0     C52018   5.610   6.077   1.724 -0.5840  0.1819  0.5862
  386MOL0     C52019   5.740   6.012   1.778 -0.9365  0.6224 -0.5980
  386MOL0    Cl52020   5.814   6.103   1.913 -0.6868  0.7015  0.1334
  386MOL0     C52021   4.878   6.200   1.186 -0.4642  0.2278  0.3035
  386MOL0     C52022   4.754   6.202   1.120  0.8094  0.3752  0.5266
  386MOL0     O52023   4.542   6.206   0.915  0.6081 -0.2926 -0.0521
  386MOL0     C52024   4.252   6.276   1.094  0.2258  0.3972  0.2230
  386MOL0     C52025   4.111   6.243   1.108 -0.0226  0.1631 -0.8186
  386MOL0     N52026   3.512   6.599   1.116 -0.7608  0.3123 -0.0205
  386MOL0     N52027   3.539   6.699   1.190 -0.4371 -0.4753  0.9343
  386MOL0     C52028   3.190   5.947   1.571 -0.1756  0.9758  0.7841
  386MOL0     C52029   3.163   5.867   1.450  0.1631 -0.8457  0.2201
  386MOL0     C52030   3.128   5.718   1.051  0.6768 -0.2093  0.2278
  386MOL0     C52031   3.009   5.767   0.970  0.2321  0.2435  0.5579
  386MOL0     C52032   2.970   5.706   0.852  0.4815 -0.3821 -0.0854
  386MOL0     C52033   3.022   5.578   0.822 -0.5270 -0.4777 -0.0290
  386MOL0     O52034   2.977   5.514   0.712 -0.0897 -0.6649 -0.4808
  386MOL0     C52035   2.866   5.430   0.720 -0.1994  0.1886 -0.0440
  386MOL0     C52036   2.900   5.293   0.676 -0.4839  0.5627  0.3107
  386MOL0     C52037   3.045   5.228   0.710  0.3773 -0.7009 -0.2639
  386MOL0     C52038   3.030   5.078   0.706  0.8542 -0.3433 -0.1037
  386MOL0     C52039   3.029   5.029   0.565 -0.1405 -0.1117 -0.9178
  386MOL0     C52040   3.002   4.989   0.453 -0.1869  0.1768  0.5987
  386MOL0     C52041   3.123   5.520   0.906  0.1541  0.3305 -0.4656
  386MOL0     C52042   3.174   5.586   1.022 -0.0850 -0.2703 -1.4745
  386MOL0     H52043   3.176   6.113   1.220 -0.1018 -1.8186 -0.1583
  386MOL0     H52044   3.228   6.252   1.413 -0.8248 -0.5028 -0.2706
  386MOL0     H52045   3.352   6.317   1.593 -0.0586  0.7438  0.0798
  386MOL0     H52046   3.170   6.328   1.629 -1.5584 -0.9357  1.5166
  386MOL0     H52047   3.200   6.356   1.851 -0.6744 -0.0872 -1.1782
  386MOL0     H52048   3.379   6.301   1.839 -0.1995 -2.5368 -2.7459
  386MOL0     H52049   3.283   6.559   1.718  0.5245  0.7991  1.6366
  386MOL0     H52050   3.335   6.543   1.884 -0.2442 -0.8444  1.1011
  386MOL0     H52051   3.561   6.489   1.801 -0.4820  1.6022  1.9710
  386MOL0     H52052   3.499   6.496   1.626  1.4676  1.1945 -0.0840
  386MOL0     H52053   3.482   6.714   1.839 -4.7672 -1.9168 -0.9530
  386MOL0     H52054   3.627   6.700   1.727 -0.2413 -0.5517  0.1060
  386MOL0     H52055   3.355   6.805   1.693  1.7905  6.2570 -0.3334
  386MOL0     H52056   3.506   6.878   1.654 -0.0909 -0.1783 -2.9353
  386MOL0     H52057   3.409   6.648   1.483  1.9553 -1.4335  3.0819
  386MOL0     H52058   3.394   6.814   1.436 -1.2435  0.2247  1.0232
  386MOL0     H52059   3.659   6.693   1.509 -0.1752  1.4003  1.0410
  386MOL0     H52060   3.636   6.837   1.408  0.5561  0.8551  0.3451
  386MOL0     H52061   3.610   6.457   1.392 -1.9680  0.0283  0.3599
  386MOL0     H52062   3.605   6.274   1.202 -0.7896 -0.0005 -0.3259
  386MOL0     H52063   3.454   6.321   1.113 -1.1239  0.5524  4.1370
  386MOL0     H52064   3.633   6.427   0.940 -2.0976 -0.4759 -0.6076
  386MOL0     H52065   3.594   6.257   0.939 -1.4444  0.2423 -0.1249
  386MOL0     H52066   3.826   6.415   1.081  1.2007  0.0861 -0.3490
  386MOL0     H52067   3.832   6.330   0.926 -0.4146  2.1031 -0.2894
  386MOL0     H52068   3.740   6.123   1.082  1.1687 -1.2172  0.8059
  386MOL0     H52069   3.853   6.197   1.193 -0.1550 -2.2121  0.7259
  386MOL0     H52070   4.082   6.082   0.811 -0.2080 -1.2107  0.4285
  386MOL0     H52071   4.414   6.020   0.807  1.4177  0.5642 -1.3047
  386MOL0     H52072   4.261   6.022   0.709  0.2118  0.6194  0.3211
  386MOL0     H52073   4.369   6.147   0.684  1.8303 -0.1679  0.3903
  386MOL0     H52074   4.619   6.463   1.291 -0.2761  1.6830 -1.2988
  386MOL0     H52075   4.841   6.467   1.397  1.0728 -0.9669  1.2147
  386MOL0     H52076   5.015   6.435   1.485  1.1773  0.4878 -2.1505
  386MOL0     H52077   4.960   6.266   1.554  1.4237 -1.8779  0.3992
  386MOL0     H52078   5.238   6.347   1.458 -0.4501 -0.1875 -0.5013
  386MOL0     H52079   5.160   6.354   1.626 -2.1439  0.8240 -1.4168
  386MOL0     H52080   5.159   6.093   1.474 -2.1774  1.7506  0.9618
  386MOL0     H52081   5.172   6.107   1.646  1.7446  1.0210  1.1987
  386MOL0     H52082   5.388   6.143   1.447 -6.1306  1.0625 -1.6491
  386MOL0     H52083   5.397   6.216   1.613 -1.0548  0.4351 -0.5311
  386MOL0     H52084   5.361   5.918   1.537 -0.9050 -0.1993  1.1340
  386MOL0     H52085   5.367   5.995   1.710  0.6740 -0.7473  0.8151
  386MOL0     H52086   5.573   5.882   1.644 -0.3042  0.5328  3.0786
  386MOL0     H52087   5.591   6.015   1.519 -0.0576  0.5326  0.5679
  386MOL0     H52088   5.549   6.086   1.815  1.1859  2.7425  1.6355
  386MOL0     H52089   5.639   6.176   1.687  1.3550 -0.4838  0.1812
  386MOL0     H52090   5.817   6.002   1.701 -1.1187  1.2762 -0.8740
  386MOL0     H52091   5.716   5.915   1.821 -1.8232  0.3742 -1.6132
  386MOL0     H52092   4.952   6.135   1.139 -0.6394  2.1231 -2.9261
  386MOL0     H52093   4.740   6.150   1.026 -0.3818  0.4307  0.6643
  386MOL0     H52094   4.280   6.338   1.179 -1.2778  3.4420 -1.3508
  386MOL0     H52095   4.060   6.270   1.200  0.6377 -2.4353  0.4146
  386MOL0     H52096   3.209   5.884   1.658  1.5503 -3.5520 -2.4596
  386MOL0     H52097   3.132   5.765   1.433 -1.5922 -0.0342 -2.0082
  386MOL0     H52098   2.946   5.851   1.001 -0.0225  0.1380  0.3260
  386MOL0     H52099   2.896   5.743   0.782 -0.1133 -0.1763  0.6255
  386MOL0     H52100   2.832   5.414   0.823  1.2635 -3.8919 -0.0011
  386MOL0     H52101   2.787   5.472   0.657 -1.3620 -0.2985  1.0403
  386MOL0     H52102   2.894   5.279   0.567  0.2621 -3.0613  0.6410
  386MOL0     H52103   2.818   5.232   0.714  0.0215 -0.8288 -0.7745
  386MOL0     H52104   3.074   5.251   0.813  4.1471  1.2852 -1.5916
  386MOL0     H52105   3.118   5.277   0.645 -3.1381  0.6430 -3.5650
  386MOL0     H52106   2.938   5.051   0.759  0.7498 -0.5191 -0.3740
  386MOL0     H52107   3.113   5.030   0.760 -1.6246 -3.0327  1.6734
  386MOL0     H52108   2.981   4.943   0.359 -1.6623  2.0037 -0.0320
  386MOL0     H52109   3.175   5.426   0.887 -0.2441 -0.3076  1.3825
  386MOL0     H52110   3.259   5.542   1.074  1.1469  1.6081 -1.8081
  387MOL0     O52111   8.880  11.220   4.895 -0.2274 -0.2502 -0.7650
  387MOL0     C52112   8.973  11.252   4.819 -0.5417  1.0719  0.3637
  387MOL0     O52113   9.100  11.278   4.858 -0.2368 -0.2402 -0.5177
  387MOL0     C52114   9.130  11.252   4.994  0.1328  0.2478  0.2564
  387MOL0     C52115   9.220  11.160   5.035 -0.6735  0.0386  0.5803
  387MOL0     C52116   9.241  11.122   5.171 -0.5149  0.5021  0.3005
  387MOL0     C52117   9.200  11.211   5.275  0.1255  0.3092  0.1604
  387MOL0     O52118   9.231  11.182   5.408  0.5262  0.7292  0.3688
  387MOL0     C52119   9.243  11.046   5.448 -0.2509 -0.2920  0.5584
  387MOL0     C52120   9.396  11.017   5.456  0.4168  1.4490 -0.0973
  387MOL0     C52121   9.427  10.896   5.536 -0.5026 -0.5431 -0.0899
  387MOL0     C52122   9.459  10.773   5.456  0.2064  0.6189 -0.1222
  387MOL0     C52123   9.338  10.706   5.389  0.3284 -0.5515 -0.2524
  387MOL0     C52124   9.384  10.573   5.336  0.4732  0.1719 -0.4199
  387MOL0     C52125   9.324  10.536   5.198 -0.4182  0.4332  0.5446
  387MOL0     C52126   9.172  10.525   5.216  0.0496 -0.5201  0.5975
  387MOL0     N52127   9.092  10.619   5.131 -0.1631 -0.0751 -0.2602
  387MOL0     C52128   9.059  10.746   5.179 -0.2297  0.2861 -0.4850
  387MOL0     C52129   8.956  10.786   5.087 -0.7546 -0.0546  0.2786
  387MOL0     C52130   8.870  10.905   5.109 -0.4982  0.5453  1.4197
  387MOL0     C52131   8.873  10.966   5.256 -0.3008 -1.1802  0.4689
  387MOL0     C52132   8.782  11.089   5.255 -0.9427  0.3596 -0.1569
  387MOL0     C52133   8.811  11.192   5.366 -0.1740  0.6239  0.3281
  387MOL0     O52134   8.779  11.141   5.495 -0.0713 -0.2100 -0.4607
  387MOL0     C52135   8.647  11.138   5.539 -0.6679  0.1261 -0.0497
  387MOL0     C52136   8.623  11.067   5.650  0.5860 -0.1568 -0.6056
  387MOL0     C52137   8.500  11.069   5.716  0.3202  0.1597  1.0581
  387MOL0     C52138   8.497  11.005   5.845 -0.0173  0.1615  0.7752
  387MOL0     C52139   8.395  11.127   5.649  1.3807 -0.0714  0.0735
  387MOL0     C52140   8.252  11.136   5.698 -0.4715  1.0516 -0.6859
  387MOL0     O52141   8.216  11.071   5.817  0.2502  0.0097 -0.6889
  387MOL0     C52142   8.097  11.089   5.884  0.5942 -0.7695 -0.1444
  387MOL0     C52143   8.015  10.984   5.918  0.0190 -0.1924 -0.0591
  387MOL0     C52144   7.903  10.992   5.991 -0.5697 -0.0830 -0.5564
  387MOL0     C52145   7.881  11.117   6.058 -0.4779  0.2963  0.1201
  387MOL0     O52146   7.768  11.117   6.143  0.8329  0.0123 -0.9398
  387MOL0     C52147   7.696  11.230   6.158 -0.4039  0.8178  0.8650
  387MOL0     C52148   7.592  11.224   6.055  0.1853 -0.7283  0.0379
  387MOL0     C52149   7.466  11.302   6.073 -0.1083  0.2801 -0.1583
  387MOL0     C52150   7.509  11.426   6.143 -0.4423 -0.1346  0.2911
  387MOL0     C52151   7.401  11.536   6.157  0.3979  0.3772  0.4389
  387MOL0     C52152   7.302  11.513   6.281  0.4788  0.4570 -0.1333
  387MOL0     C52153   7.208  11.627   6.292  0.3748 -0.4867 -0.2625
  387MOL0     C52154   7.186  11.673   6.436  0.7326  0.0952 -0.1691
  387MOL0    Cl52155   7.085  11.541   6.518 -0.3146  0.2406 -0.3044
  387MOL0     C52156   7.964  11.229   6.017 -0.5344  0.0766  0.4649
  387MOL0     C52157   8.066  11.222   5.923 -0.6042 -0.7022  0.4351
  387MOL0     O52158   8.179  11.219   5.649 -0.1091  0.0566 -0.0229
  387MOL0     C52159   8.416  11.190   5.527  0.6709  0.4924 -0.4966
  387MOL0     C52160   8.543  11.198   5.475 -0.2043 -0.1487  0.0972
  387MOL0     N52161   8.960  10.691   4.981 -0.3437 -0.6149  0.7212
  387MOL0     N52162   9.039  10.593   5.007  0.0572  0.4143  0.2865
  387MOL0     C52163   9.126  11.326   5.241  0.9736  0.9434  0.3037
  387MOL0     C52164   9.085  11.334   5.104 -1.0594 -0.4838  0.9096
  387MOL0     C52165   8.945  11.244   4.676  0.0404 -0.2409  0.3875
  387MOL0     C52166   9.045  11.292   4.580  0.3979 -0.3738 -0.1863
  387MOL0     C52167   9.022  11.282   4.439  0.2359  0.4876  0.0691
  387MOL0     C52168   8.912  11.228   4.397 -0.0270 -0.1699 -0.4337
  387MOL0     O52169   8.886  11.226   4.261  0.3033 -0.6627  0.2540
  387MOL0     C52170   8.913  11.337   4.178 -0.0105 -0.6982 -0.6649
  387MOL0     C52171   9.034  11.311   4.084 -0.6176 -0.4247 -1.2430
  387MOL0     C52172   8.996  11.188   4.009 -0.2589 -0.5604 -0.1869
  387MOL0     C52173   9.086  11.150   3.888  0.2523  0.4774 -0.7094
  387MOL0     C52174   9.015  11.070   3.791  0.3215  0.6170 -0.1005
  387MOL0     C52175   8.970  10.986   3.710  0.3519 -0.6278 -0.7646
  387MOL0     C52176   8.810  11.183   4.487  0.3471 -0.4210  0.3521
  387MOL0     C52177   8.829  11.185   4.627 -0.7596  0.5462 -0.4833
  387MOL0     H52178   9.273  11.101   4.961  1.0696  3.6666 -1.3467
  387MOL0     H52179   9.291  11.026   5.178 -2.0526 -0.4155 -0.8030
  387MOL0     H52180   9.216  11.041   5.554  1.9551  3.3560  1.4620
  387MOL0     H52181   9.185  10.972   5.391  1.3937 -0.4091 -1.0376
  387MOL0     H52182   9.435  11.010   5.354 -2.3275 -0.9423 -1.1302
  387MOL0     H52183   9.450  11.095   5.510  1.5963 -0.7016  2.0240
  387MOL0     H52184   9.509  10.931   5.600 -3.2997  1.2526  2.8048
  387MOL0     H52185   9.348  10.868   5.606  1.0295 -0.0499  1.9326
  387MOL0     H52186   9.529  10.782   5.373 -1.0226  0.1602 -1.2396
  387MOL0     H52187   9.501  10.696   5.522  2.1822  0.4639 -1.4621
  387MOL0     H52188   9.250  10.701   5.454  0.5355 -1.1372 -0.0096
  387MOL0     H52189   9.317  10.762   5.297 -0.7963 -0.6329 -0.0541
  387MOL0     H52190   9.493  10.574   5.324  0.3932  1.3938 -1.2960
  387MOL0     H52191   9.364  10.493   5.407 -2.3334  2.3307  1.4521
  387MOL0     H52192   9.361  10.598   5.116  1.2177  1.4889  1.9979
  387MOL0     H52193   9.360  10.434   5.180 -0.4506  0.3444  0.9768
  387MOL0     H52194   9.143  10.538   5.320 -0.3687 -4.2156  1.0585
  387MOL0     H52195   9.127  10.432   5.180 -3.4172  1.2837 -0.1724
  387MOL0     H52196   9.090  10.794   5.271 -1.9223 -2.3492  1.6155
  387MOL0     H52197   8.895  10.983   5.036  0.6310  0.9270  2.1872
  387MOL0     H52198   8.769  10.867   5.089 -0.2156  2.0511 -5.6792
  387MOL0     H52199   8.970  11.002   5.289 -0.2097 -0.0415 -0.9427
  387MOL0     H52200   8.834  10.889   5.324  1.1033 -3.1969 -0.8929
  387MOL0     H52201   8.682  11.048   5.271 -0.4267 -0.9439 -0.1182
  387MOL0     H52202   8.786  11.141   5.159  0.8808 -2.5947 -1.8419
  387MOL0     H52203   8.761  11.283   5.332 -1.5762 -1.0238 -2.4108
  387MOL0     H52204   8.915  11.226   5.371  0.0432 -0.0111  0.2329
  387MOL0     H52205   8.710  11.027   5.701 -0.0024  0.8428  1.3084
  387MOL0     H52206   8.581  10.945   5.882  0.0779 -0.3371 -0.2097
  387MOL0     H52207   8.463  11.076   5.921  1.8277  1.7845  0.1841
  387MOL0     H52208   8.422  10.926   5.836  0.9834 -1.1462  3.1047
  387MOL0     H52209   8.046  10.889   5.878  1.3706  0.4046 -0.4868
  387MOL0     H52210   7.834  10.910   6.006 -2.1430  0.7252 -2.7432
  387MOL0     H52211   7.646  11.212   6.254 -3.7147  0.2878 -0.8182
  387MOL0     H52212   7.755  11.322   6.163  0.1811  0.4324  1.1405
  387MOL0     H52213   7.642  11.260   5.965 -2.7892 -1.6414 -2.1562
  387MOL0     H52214   7.561  11.122   6.029  2.4909 -0.5890 -4.3184
  387MOL0     H52215   7.396  11.247   6.136 -0.5184  0.0544 -0.8071
  387MOL0     H52216   7.422  11.334   5.979 -2.0341  1.9866  1.2292
  387MOL0     H52217   7.552  11.414   6.243 -0.9874  2.0534  0.8511
  387MOL0     H52218   7.582  11.467   6.073 -2.9098  2.1831 -1.0918
  387MOL0     H52219   7.345  11.530   6.063  3.4988 -1.0909 -1.4715
  387MOL0     H52220   7.454  11.631   6.169 -0.9566  1.0923  1.0455
  387MOL0     H52221   7.239  11.428   6.255  1.0833 -0.0633  0.0786
  387MOL0     H52222   7.356  11.498   6.374  0.7252 -0.4710 -0.4225
  387MOL0     H52223   7.109  11.591   6.260  0.1804 -1.6603  1.5319
  387MOL0     H52224   7.238  11.714   6.232 -0.9167  1.4410  1.7701
  387MOL0     H52225   7.133  11.768   6.426  1.4744  1.0012  3.3294
  387MOL0     H52226   7.282  11.675   6.488  1.7831  1.8646 -2.0208
  387MOL0     H52227   7.930  11.329   6.043 -0.5061  1.0294 -2.6947
  387MOL0     H52228   8.113  11.310   5.879 -0.0215 -0.3683  1.6817
  387MOL0     H52229   8.337  11.241   5.472  0.2944  0.4755  0.0205
  387MOL0     H52230   8.553  11.249   5.380 -1.2607  2.1702  1.1486
  387MOL0     H52231   9.100  11.400   5.317 -4.0506 -0.6698  0.5218
  387MOL0     H52232   9.032  11.418   5.060  0.9544 -0.4807 -1.7912
  387MOL0     H52233   9.131  11.339   4.626 -1.2660 -1.0335  4.0371
  387MOL0     H52234   9.088  11.324   4.364 -1.5994  0.4425 -1.6235
  387MOL0     H52235   8.823  11.358   4.120  1.2653  0.4035 -2.3738
  387MOL0     H52236   8.923  11.424   4.244 -1.4940 -0.1818 -1.0814
  387MOL0     H52237   9.131  11.303   4.135 -0.6924  0.6856 -0.9068
  387MOL0     H52238   9.037  11.397   4.017  0.4869  0.6008  0.0641
  387MOL0     H52239   8.898  11.205   3.966  0.0634 -1.1433 -1.1679
  387MOL0     H52240   8.986  11.099   4.072  0.1038 -0.9895 -0.7293
  387MOL0     H52241   9.169  11.090   3.927  1.8876  1.6747 -2.2117
  387MOL0     H52242   9.127  11.245   3.853  0.7371  1.6638  2.7266
  387MOL0     H52243   8.942  10.919   3.630  1.5147 -2.1800  0.0661
  387MOL0     H52244   8.714  11.157   4.444  0.5982 -1.7097  0.5307
  387MOL0     H52245   8.745  11.156   4.690  0.4710  2.1183  2.0600
  388MOL0     O52246   9.310  10.665   1.198 -0.4573 -0.7617  0.0246
  388MOL0     C52247   9.202  10.604   1.192 -0.3976  0.5444 -0.4340
  388MOL0     O52248   9.085  10.631   1.264  0.5978 -0.2093  0.5815
  388MOL0     C52249   9.086  10.740   1.346 -0.8404 -0.5177 -1.0017
  388MOL0     C52250   9.018  10.738   1.469  1.0702 -0.0824  0.3840
  388MOL0     C52251   9.017  10.841   1.564  0.5031 -0.0893 -0.1179
  388MOL0     C52252   9.065  10.965   1.533 -0.2601  0.2700 -1.6169
  388MOL0     O52253   9.051  11.078   1.615 -0.2198  0.4657 -1.0158
  388MOL0     C52254   8.949  11.092   1.717 -0.7794 -0.2493  0.0649
  388MOL0     C52255   8.844  11.187   1.666 -0.0890  0.6483  0.1755
  388MOL0     C52256   8.749  11.115   1.564 -0.6002  1.3929 -0.2811
  388MOL0     C52257   8.621  11.192   1.536 -0.2580 -0.4610  0.4577
  388MOL0     C52258   8.522  11.113   1.451 -0.3555 -0.2487  0.5285
  388MOL0     C52259   8.398  11.193   1.423 -0.5575  0.5451 -0.2840
  388MOL0     C52260   8.284  11.090   1.390  0.6295 -0.8598 -0.5048
  388MOL0     C52261   8.147  11.167   1.380 -0.6389  0.0192  0.1441
  388MOL0     N52262   8.142  11.275   1.270  0.0279  0.6836 -0.0156
  388MOL0     C52263   8.128  11.254   1.132 -0.5984 -0.5413  1.4994
  388MOL0     C52264   8.139  11.375   1.079  0.2864 -0.1631 -0.1361
  388MOL0     C52265   8.134  11.413   0.935 -0.1153  0.1386 -0.4481
  388MOL0     C52266   8.256  11.372   0.858  1.2747  0.6318 -0.9143
  388MOL0     C52267   8.364  11.466   0.903  0.9887  0.1290  0.5246
  388MOL0     C52268   8.492  11.452   0.827 -1.1414  0.4526 -0.0893
  388MOL0     O52269   8.580  11.562   0.850  0.7053 -0.0744 -0.5007
  388MOL0     C52270   8.710  11.550   0.824  0.0345  0.7308  0.1903
  388MOL0     C52271   8.770  11.438   0.764 -0.5414  0.6463  0.3190
  388MOL0     C52272   8.910  11.418   0.735 -0.7064  0.0233  0.2025
  388MOL0     C52273   8.952  11.293   0.655  0.9374 -0.1281 -0.7186
  388MOL0     C52274   8.997  11.524   0.789 -0.1420 -0.4713  0.9603
  388MOL0     C52275   9.143  11.508   0.765  0.2991 -0.7421  0.3514
  388MOL0     O52276   9.219  11.578   0.864 -0.6471  0.8031  0.3526
  388MOL0     C52277   9.352  11.562   0.842 -0.8545  0.2863 -0.8982
  388MOL0     C52278   9.411  11.452   0.919 -0.9334 -0.6631  1.2778
  388MOL0     C52279   9.544  11.418   0.892 -0.4803 -0.3444 -0.4767
  388MOL0     C52280   9.617  11.504   0.801 -0.3855  0.8875  0.1129
  388MOL0     O52281   9.753  11.474   0.778 -0.6171 -0.2100  0.6793
  388MOL0     C52282   9.801  11.339   0.820  0.2126  0.7409  0.3580
  388MOL0     C52283   9.945  11.324   0.785  0.3506 -0.6531  1.1185
  388MOL0     C52284   9.985  11.182   0.754  0.3876  0.3954  0.1890
  388MOL0     C52285  10.005  11.112   0.888  0.2139  0.0266 -0.6909
  388MOL0     C52286  10.081  10.976   0.861  0.2243 -0.7188  0.1958
  388MOL0     C52287  10.228  11.007   0.808 -0.0871  0.2117 -0.6537
  388MOL0     C52288  10.321  11.045   0.928 -0.5813  0.3418 -1.0836
  388MOL0     C52289  10.465  11.044   0.895  0.1393 -1.0104 -0.3748
  388MOL0    Cl52290  10.552  11.139   1.019 -0.2882  0.1710 -0.2004
  388MOL0     C52291   9.566  11.619   0.745  0.5598  0.1420  0.1123
  388MOL0     C52292   9.433  11.650   0.767  0.1182 -0.1211 -0.0379
  388MOL0     O52293   9.182  11.463   0.654  0.9211  0.4408  0.3300
  388MOL0     C52294   8.941  11.636   0.849  0.9517 -0.3238  0.0849
  388MOL0     C52295   8.798  11.650   0.863  1.1520 -0.1872  0.8952
  388MOL0     N52296   8.160  11.470   1.179 -0.0251 -0.0063  0.0565
  388MOL0     N52297   8.169  11.402   1.293 -0.3099  0.4410 -0.3443
  388MOL0     C52298   9.132  10.975   1.411  0.4718 -0.3331  0.1239
  388MOL0     C52299   9.148  10.865   1.323  0.0471 -1.0518 -0.1071
  388MOL0     C52300   9.205  10.475   1.119  1.0586  0.1951 -0.0643
  388MOL0     C52301   9.095  10.381   1.125  0.4411  0.4558 -0.1668
  388MOL0     C52302   9.112  10.257   1.064 -0.6899 -0.0863 -0.2939
  388MOL0     C52303   9.222  10.221   0.983  0.4586 -0.6381  0.2587
  388MOL0     O52304   9.222  10.097   0.931 -0.5632 -0.1980 -0.3059
  388MOL0     C52305   9.280  10.068   0.802  0.2962 -0.2866  0.9590
  388MOL0     C52306   9.240   9.927   0.748 -0.2681  0.1869  0.1096
  388MOL0     C52307   9.087   9.907   0.744  0.1546 -0.2780  0.2293
  388MOL0     C52308   9.029   9.786   0.679  0.3803  0.2833  0.1968
  388MOL0     C52309   9.058   9.660   0.758 -0.3528  0.5564 -1.0646
  388MOL0     C52310   9.080   9.548   0.814  0.4239 -0.2359  1.0994
  388MOL0     C52311   9.324  10.316   0.965  0.5297 -0.4455 -0.4681
  388MOL0     C52312   9.314  10.437   1.034  0.3333  0.8600 -0.5802
  388MOL0     H52313   8.954  10.654   1.494  2.2018 -0.8440  0.8168
  388MOL0     H52314   8.965  10.825   1.659  0.4758 -1.0298 -0.2817
  388MOL0     H52315   8.898  10.997   1.732 -2.2019  0.6213  1.1017
  388MOL0     H52316   8.998  11.128   1.808 -0.1523 -0.0973 -0.3326
  388MOL0     H52317   8.791  11.204   1.761  1.7426 -2.9969  2.0774
  388MOL0     H52318   8.880  11.282   1.625 -2.3793  1.1671 -0.8000
  388MOL0     H52319   8.803  11.100   1.470  0.7241 -0.5894  0.7144
  388MOL0     H52320   8.717  11.017   1.600  1.1659 -0.0490 -2.3917
  388MOL0     H52321   8.572  11.201   1.633  1.6357 -1.9790  1.6106
  388MOL0     H52322   8.639  11.293   1.495 -0.2270 -1.1706 -1.3872
  388MOL0     H52323   8.578  11.096   1.359  0.6767 -0.8416  1.2481
  388MOL0     H52324   8.506  11.018   1.505  2.0229 -1.2095 -0.3264
  388MOL0     H52325   8.372  11.245   1.516  0.4867  1.7231 -0.6243
  388MOL0     H52326   8.422  11.262   1.342  4.2542  0.4057  0.7537
  388MOL0     H52327   8.322  11.038   1.302  3.3471  4.0800 -2.6522
  388MOL0     H52328   8.260  11.020   1.471 -1.1455  0.7860  0.5018
  388MOL0     H52329   8.132  11.211   1.479 -0.4861 -2.2053  1.2237
  388MOL0     H52330   8.068  11.092   1.376 -0.2927 -0.7762  3.9143
  388MOL0     H52331   8.119  11.155   1.088  0.4949 -0.2030  0.4533
  388MOL0     H52332   8.043  11.379   0.884  0.6175 -0.6775 -1.2374
  388MOL0     H52333   8.112  11.520   0.923 -3.3677 -0.1077  1.7615
  388MOL0     H52334   8.222  11.388   0.756 -4.5397 -1.6602  0.2776
  388MOL0     H52335   8.272  11.264   0.869 -1.8430  0.3105  2.4428
  388MOL0     H52336   8.378  11.462   1.011 -0.1429 -0.2568  0.6653
  388MOL0     H52337   8.339  11.570   0.879  3.3999  0.2011 -2.2390
  388MOL0     H52338   8.488  11.444   0.718 -1.6741 -3.0619  0.0926
  388MOL0     H52339   8.542  11.364   0.868 -0.5592  0.9873  0.3717
  388MOL0     H52340   8.719  11.343   0.755 -1.5408  1.1848  0.0501
  388MOL0     H52341   8.889  11.205   0.673  2.1612 -0.7990  0.5370
  388MOL0     H52342   8.938  11.313   0.549 -0.2431 -2.7951 -1.1595
  388MOL0     H52343   9.050  11.248   0.675  0.0995 -1.9562 -0.5243
  388MOL0     H52344   9.352  11.387   0.983  1.2842 -4.1357  0.1138
  388MOL0     H52345   9.586  11.339   0.953  1.8320  1.7587  0.8011
  388MOL0     H52346   9.792  11.314   0.926  1.7933  1.8158  0.7827
  388MOL0     H52347   9.745  11.271   0.755 -1.1692  0.2022  2.0366
  388MOL0     H52348   9.961  11.381   0.693  0.1162 -2.8772 -0.3800
  388MOL0     H52349  10.009  11.373   0.859 -0.3193  1.5084  0.3511
  388MOL0     H52350  10.084  11.199   0.709  1.3715  2.2466  2.8088
  388MOL0     H52351   9.907  11.137   0.691 -0.0350  1.0244  0.2489
  388MOL0     H52352  10.061  11.173   0.959 -1.3181  0.2574  0.3773
  388MOL0     H52353   9.911  11.087   0.938  0.2515  0.9743 -0.1233
  388MOL0     H52354  10.028  10.921   0.783  4.6097 -2.3710 -1.9754
  388MOL0     H52355  10.083  10.905   0.944  0.4339  0.8607  1.5992
  388MOL0     H52356  10.263  10.909   0.774  1.4886  0.1576  0.9689
  388MOL0     H52357  10.240  11.073   0.721  1.0066 -0.0813 -0.7439
  388MOL0     H52358  10.311  10.963   1.000  0.5057 -0.1758 -1.5122
  388MOL0     H52359  10.283  11.129   0.987 -2.1271 -0.1014 -1.3764
  388MOL0     H52360  10.485  11.104   0.805 -1.3961  2.8678  1.6369
  388MOL0     H52361  10.502  10.941   0.889  2.1137 -0.3720  0.0942
  388MOL0     H52362   9.623  11.685   0.681  3.4152 -0.1596  2.1607
  388MOL0     H52363   9.391  11.744   0.731 -0.3085  0.4066  1.7509
  388MOL0     H52364   9.001  11.725   0.869  0.1317  0.3119 -0.2378
  388MOL0     H52365   8.757  11.743   0.901 -4.4180 -1.6958 -0.5982
  388MOL0     H52366   9.176  11.073   1.399 -0.4010  0.7253  4.0120
  388MOL0     H52367   9.216  10.874   1.239  1.0825  0.5001  0.8562
  388MOL0     H52368   8.994  10.389   1.162  0.3407  1.9417 -0.6959
  388MOL0     H52369   9.035  10.181   1.076  2.8093 -3.9222  0.1461
  388MOL0     H52370   9.256  10.151   0.735  2.7684  0.2115  0.6013
  388MOL0     H52371   9.388  10.057   0.791 -0.0290 -4.1254  0.0476
  388MOL0     H52372   9.298   9.858   0.810 -1.5662 -0.9981  0.0684
  388MOL0     H52373   9.283   9.919   0.648  0.4413 -0.1867  0.4407
  388MOL0     H52374   9.045   9.997   0.698  0.0655  0.6619  2.0454
  388MOL0     H52375   9.065   9.895   0.850 -0.6006 -0.6191  0.0380
  388MOL0     H52376   9.066   9.770   0.578  0.2825 -0.2692  0.2472
  388MOL0     H52377   8.920   9.792   0.672  0.3705 -1.5499 -1.8964
  388MOL0     H52378   9.097   9.454   0.862 -1.6863 -0.9441  0.5507
  388MOL0     H52379   9.413  10.282   0.912  0.7286 -0.2012 -0.2946
  388MOL0     H52380   9.402  10.497   1.015  1.9184 -0.2453  2.4436
  389MOL0     O52381   7.320   0.221  10.478  0.7427 -0.4354 -0.3440
  389MOL0     C52382   7.332   0.133  10.401  0.9780  0.9356 -0.0807
  389MOL0     O52383   7.419   0.025  10.406  0.2046  0.2757  0.5117
  389MOL0     C52384   7.497  -0.003  10.513 -1.4152  0.8396  0.3050
  389MOL0     C52385   7.615  -0.072  10.480  0.3179  0.6596 -0.3334
  389MOL0     C52386   7.709  -0.109  10.586  0.2576  0.3402 -0.3680
  389MOL0     C52387   7.671  -0.086  10.724  0.2609 -0.0466 -0.1288
  389MOL0     O52388   7.761  -0.119  10.824  0.1685  0.2585 -0.0332
  389MOL0     C52389   7.810  -0.255  10.811 -0.0822  0.8144  0.2938
  389MOL0     C52390   7.837  -0.325  10.950 -1.7227 -1.3058 -0.1359
  389MOL0     C52391   7.709  -0.367  11.024 -0.5476  0.3449 -0.1684
  389MOL0     C52392   7.689  -0.519  11.026 -0.0367  0.0497  0.9543
  389MOL0     C52393   7.553  -0.541  11.089 -0.1765 -0.7302 -0.5255
  389MOL0     C52394   7.512  -0.689  11.090  0.0106 -0.3782  0.1700
  389MOL0     C52395   7.612  -0.784  11.148 -1.1033  1.0138  0.1984
  389MOL0     C52396   7.630  -0.771  11.301  0.1257  0.2136 -0.8225
  389MOL0     N52397   7.719  -0.875  11.359  1.1850 -0.1935  0.7458
  389MOL0     C52398   7.778  -0.976  11.293 -0.3496  0.7334  0.1455
  389MOL0     C52399   7.850  -1.041  11.386 -1.0426  1.0214 -0.4066
  389MOL0     C52400   7.944  -1.165  11.383  0.3580 -0.1684  0.7477
  389MOL0     C52401   8.099  -1.134  11.380  0.0943  0.0712 -0.7713
  389MOL0     C52402   8.168  -1.135  11.516 -0.2123 -0.2860 -0.8546
  389MOL0     C52403   8.239  -1.275  11.538 -0.0212  0.4485  0.7072
  389MOL0     O52404   8.345  -1.250  11.626  0.3629  0.1277  0.1478
  389MOL0     C52405   8.344  -1.302  11.752  1.4510  0.5712 -0.3942
  389MOL0     C52406   8.388  -1.211  11.850 -0.3468 -0.4547  0.3703
  389MOL0     C52407   8.373  -1.234  11.986  0.1272  1.7624 -0.7540
  389MOL0     C52408   8.417  -1.137  12.097  0.0158  0.0688  0.9748
  389MOL0     C52409   8.314  -1.362  12.030 -0.0632  0.1368  0.2295
  389MOL0     C52410   8.311  -1.399  12.172  0.8960  0.4206  0.6294
  389MOL0     O52411   8.298  -1.534  12.191 -0.2493 -0.1814  0.7138
  389MOL0     C52412   8.284  -1.590  12.314  0.2666  0.2112  0.2010
  389MOL0     C52413   8.388  -1.598  12.403 -0.3129 -0.1802 -0.0056
  389MOL0     C52414   8.376  -1.640  12.534 -1.0772 -0.0888 -0.7580
  389MOL0     C52415   8.245  -1.679  12.581  0.1191  0.5227  0.7335
  389MOL0     O52416   8.219  -1.731  12.704  0.2818 -0.2140  0.1055
  389MOL0     C52417   8.322  -1.728  12.805 -0.0004  0.1336 -0.7414
  389MOL0     C52418   8.258  -1.715  12.931 -0.7739 -0.2473  0.4695
  389MOL0     C52419   8.358  -1.723  13.060  0.6443  0.4215  0.5087
  389MOL0     C52420   8.309  -1.672  13.195 -0.1719  0.0580  0.0714
  389MOL0     C52421   8.384  -1.731  13.320 -1.0331 -0.3817  0.8531
  389MOL0     C52422   8.421  -1.643  13.435  0.8851  0.2377  0.3412
  389MOL0     C52423   8.312  -1.640  13.542  0.6070  0.0034 -0.4400
  389MOL0     C52424   8.356  -1.562  13.673  0.7122 -0.8012  0.1762
  389MOL0    Cl52425   8.381  -1.387  13.635 -0.2659 -0.4772 -0.1682
  389MOL0     C52426   8.133  -1.684  12.497 -0.0978  0.4706 -0.4791
  389MOL0     C52427   8.159  -1.626  12.364 -0.1271  0.4715 -0.8112
  389MOL0     O52428   8.295  -1.317  12.266 -0.6635  0.4323 -0.8398
  389MOL0     C52429   8.277  -1.456  11.931 -0.2160 -1.1301 -0.2972
  389MOL0     C52430   8.286  -1.424  11.793  0.3104 -0.1450 -0.4911
  389MOL0     N52431   7.829  -0.974  11.510  1.0888  1.1471 -0.2567
  389MOL0     N52432   7.750  -0.873  11.484 -0.2116  1.5286  0.3512
  389MOL0     C52433   7.554  -0.014  10.749  0.2062  0.3048 -1.4406
  389MOL0     C52434   7.475   0.032  10.641 -0.0115 -1.0449  0.5828
  389MOL0     C52435   7.245   0.138  10.275  0.2782 -1.0602 -0.2724
  389MOL0     C52436   7.139   0.237  10.262  1.0000 -0.7244  0.2593
  389MOL0     C52437   7.053   0.226  10.152 -0.2100 -0.5450  0.8459
  389MOL0     C52438   7.064   0.123  10.056  0.6183 -0.8222  0.3598
  389MOL0     O52439   6.999   0.123   9.935 -0.9286  0.4396 -0.1045
  389MOL0     C52440   6.899   0.211   9.898 -0.9786  0.2362  0.8863
  389MOL0     C52441   6.770   0.163   9.964 -0.3887  0.1592  0.4400
  389MOL0     C52442   6.650   0.225   9.911  0.4287  0.3210  0.4225
  389MOL0     C52443   6.624   0.193   9.763  0.0369  0.3460 -0.0840
  389MOL0     C52444   6.592   0.051   9.735  0.6430  0.3340  0.9598
  389MOL0     C52445   6.568  -0.060   9.693  0.1726 -0.4192  0.9560
  389MOL0     C52446   7.174   0.040  10.077  0.5724  0.4077  0.5098
  389MOL0     C52447   7.257   0.036  10.183 -1.1146  0.2134 -0.5971
  389MOL0     H52448   7.629  -0.092  10.374  1.5878  0.3897 -0.1328
  389MOL0     H52449   7.802  -0.157  10.559  0.2206 -0.0777  0.2307
  389MOL0     H52450   7.732  -0.312  10.760  0.5254  1.5021 -1.4873
  389MOL0     H52451   7.907  -0.254  10.760  0.3707  3.0828  1.1030
  389MOL0     H52452   7.917  -0.399  10.939  0.8014  0.8930  2.0339
  389MOL0     H52453   7.891  -0.251  11.011 -0.1627 -1.4682 -1.2474
  389MOL0     H52454   7.717  -0.331  11.127 -0.3985  0.1927 -0.1257
  389MOL0     H52455   7.626  -0.312  10.979  0.0323  0.8312 -0.6613
  389MOL0     H52456   7.693  -0.545  10.919  1.4198  3.3807  0.0419
  389MOL0     H52457   7.762  -0.580  11.079 -0.5351  0.2789  1.9265
  389MOL0     H52458   7.550  -0.497  11.189 -1.8728  1.6150 -1.5154
  389MOL0     H52459   7.491  -0.478  11.025  2.5681  2.6547 -0.1704
  389MOL0     H52460   7.416  -0.695  11.142  1.0491 -1.3289  2.1125
  389MOL0     H52461   7.482  -0.713  10.988 -0.7685  1.1417  0.0007
  389MOL0     H52462   7.576  -0.886  11.137  3.2636 -0.5454 -2.3426
  389MOL0     H52463   7.706  -0.781  11.092 -0.1444  1.1037  1.7394
  389MOL0     H52464   7.536  -0.764  11.357 -0.6651  3.8256 -2.3254
  389MOL0     H52465   7.677  -0.674  11.321  3.2383 -1.1446 -0.9471
  389MOL0     H52466   7.768  -0.991  11.186 -1.9103  5.5684 -0.6091
  389MOL0     H52467   7.938  -1.224  11.474  0.1736  0.6803  1.3036
  389MOL0     H52468   7.920  -1.228  11.297 -1.2297 -1.7156  2.2528
  389MOL0     H52469   8.093  -1.029  11.352 -1.2144  0.2243 -0.0289
  389MOL0     H52470   8.159  -1.184  11.303  1.3565  1.3001 -0.6239
  389MOL0     H52471   8.100  -1.114  11.599  2.3359  2.7692  0.6894
  389MOL0     H52472   8.240  -1.052  11.515  2.2890 -2.3073  0.2607
  389MOL0     H52473   8.283  -1.319  11.448  0.7814  1.8821  0.3732
  389MOL0     H52474   8.177  -1.359  11.571  1.9220 -1.8367 -1.0696
  389MOL0     H52475   8.431  -1.116  11.821  0.1448 -0.4381  1.1173
  389MOL0     H52476   8.485  -1.165  12.179  1.1011  0.4619  0.2333
  389MOL0     H52477   8.479  -1.064  12.044 -0.3710 -0.9420 -0.9279
  389MOL0     H52478   8.328  -1.092  12.142  0.0960  2.2534 -0.8611
  389MOL0     H52479   8.488  -1.567  12.376  2.1453 -0.1523  6.9898
  389MOL0     H52480   8.460  -1.651  12.602 -2.1835  2.6452  1.2464
  389MOL0     H52481   8.387  -1.815  12.801  2.3594  1.8245 -1.1747
  389MOL0     H52482   8.382  -1.637  12.796  0.9522  0.0012  2.8075
  389MOL0     H52483   8.207  -1.619  12.932  2.9865  1.9608  0.2328
  389MOL0     H52484   8.175  -1.786  12.943 -0.5593 -0.3253  1.6237
  389MOL0     H52485   8.449  -1.674  13.025  0.4513 -0.0493 -0.7360
  389MOL0     H52486   8.376  -1.831  13.061 -2.6224 -0.2622 -0.6966
  389MOL0     H52487   8.334  -1.566  13.188  2.3140 -0.5115 -0.9894
  389MOL0     H52488   8.202  -1.689  13.202 -0.0703 -1.3694 -1.2847
  389MOL0     H52489   8.482  -1.759  13.282 -2.0231 -3.6327  0.3731
  389MOL0     H52490   8.341  -1.825  13.355 -0.5369 -1.0568 -0.2765
  389MOL0     H52491   8.514  -1.690  13.466  2.3339  1.0569 -2.4305
  389MOL0     H52492   8.435  -1.539  13.404  0.2598 -0.4078 -2.2924
  389MOL0     H52493   8.286  -1.740  13.577  3.3707 -0.3189  1.0087
  389MOL0     H52494   8.224  -1.595  13.496 -0.1450  1.3816  2.1440
  389MOL0     H52495   8.438  -1.622  13.715  2.5384  0.1519 -1.8794
  389MOL0     H52496   8.273  -1.568  13.745  1.0851  2.0459  0.9344
  389MOL0     H52497   8.040  -1.724  12.536  1.6578 -2.0101  1.5018
  389MOL0     H52498   8.083  -1.623  12.287  0.6983 -1.5058 -1.7826
  389MOL0     H52499   8.239  -1.553  11.962  3.5296 -2.7351 -0.1246
  389MOL0     H52500   8.236  -1.491  11.725  1.9937 -0.6486 -1.2901
  389MOL0     H52501   7.526   0.012  10.851 -0.3461  0.6069 -1.6687
  389MOL0     H52502   7.394   0.103  10.652 -0.0631 -0.8400 -0.9456
  389MOL0     H52503   7.120   0.310  10.340  0.4288  1.5380 -1.8838
  389MOL0     H52504   6.967   0.290  10.137  0.9409  0.7596 -0.4929
  389MOL0     H52505   6.926   0.317   9.906  1.4819  0.2353 -3.6816
  389MOL0     H52506   6.884   0.194   9.791 -2.0618 -1.6939  1.3086
  389MOL0     H52507   6.777   0.177  10.072  0.2199 -1.1708  0.5966
  389MOL0     H52508   6.782   0.056   9.948  5.2515  0.8164 -2.3814
  389MOL0     H52509   6.651   0.333   9.932 -4.3364  0.9141 -1.2046
  389MOL0     H52510   6.559   0.186   9.958  1.2750 -0.3686  1.5458
  389MOL0     H52511   6.700   0.231   9.695 -0.6613 -0.6051 -1.4325
  389MOL0     H52512   6.536   0.254   9.741  0.1631  0.6789  0.3146
  389MOL0     H52513   6.560  -0.152   9.638  6.2633 -0.7219 -0.0981
  389MOL0     H52514   7.196  -0.034  10.001 -5.1388 -0.7938 -0.3959
  389MOL0     H52515   7.336  -0.038  10.186  2.3668  3.6016  2.7950
  390MOL0     O52516   3.501   6.242   5.676 -0.3412  0.3113  0.3782
  390MOL0     C52517   3.389   6.211   5.711  0.0005 -0.0784 -0.2166
  390MOL0     O52518   3.281   6.289   5.690 -0.4309  0.4550  0.0920
  390MOL0     C52519   3.275   6.405   5.627  0.4283 -0.9022  0.0261
  390MOL0     C52520   3.365   6.446   5.531  1.3581  0.2074  1.1976
  390MOL0     C52521   3.337   6.561   5.457 -0.0128  0.2472  0.3406
  390MOL0     C52522   3.230   6.644   5.483  0.2685  0.8950  0.2533
  390MOL0     O52523   3.193   6.763   5.430 -0.0303  0.3180 -0.1485
  390MOL0     C52524   3.179   6.764   5.285  0.2580 -0.4766 -0.0642
  390MOL0     C52525   3.062   6.864   5.254  0.4585 -0.3649 -0.1882
  390MOL0     C52526   3.021   6.869   5.106  0.1762  0.3032  0.4162
  390MOL0     C52527   2.903   6.759   5.073 -1.2864 -0.6088 -0.1978
  390MOL0     C52528   2.828   6.811   4.954  0.1251  0.6253 -0.0441
  390MOL0     C52529   2.722   6.704   4.921 -0.3428 -0.3879 -0.3906
  390MOL0     C52530   2.628   6.714   4.807 -0.5331 -0.3769  0.8067
  390MOL0     C52531   2.506   6.621   4.839  1.1379 -0.7376  0.4377
  390MOL0     N52532   2.423   6.619   4.716  0.4050  0.3611 -0.3622
  390MOL0     C52533   2.295   6.666   4.714  0.4604  0.6586 -0.2269
  390MOL0     C52534   2.235   6.601   4.616 -0.0643 -0.2691  0.4577
  390MOL0     C52535   2.099   6.632   4.548 -0.2234 -0.6082 -0.0784
  390MOL0     C52536   2.115   6.678   4.407  0.0069 -0.2857 -0.3394
  390MOL0     C52537   1.986   6.733   4.344 -0.4906 -0.3569 -0.4842
  390MOL0     C52538   1.987   6.720   4.191 -0.4026  0.3256  0.0400
  390MOL0     O52539   2.113   6.764   4.137 -0.0747 -1.3697  0.1059
  390MOL0     C52540   2.127   6.775   4.004 -0.8620 -0.3588 -0.5700
  390MOL0     C52541   2.242   6.845   3.956  0.7469  0.7701 -0.3963
  390MOL0     C52542   2.250   6.868   3.824 -0.7721  0.0449 -0.1945
  390MOL0     C52543   2.382   6.923   3.768  1.7675 -0.0914 -0.9129
  390MOL0     C52544   2.143   6.823   3.733  0.0576 -0.1889 -0.1755
  390MOL0     C52545   2.145   6.834   3.584 -0.1183  0.2864 -0.2888
  390MOL0     O52546   2.080   6.743   3.513 -0.2755 -0.2761  0.5436
  390MOL0     C52547   2.074   6.751   3.375  0.0663 -0.5393 -0.3514
  390MOL0     C52548   2.179   6.705   3.295 -0.8613  0.5646  0.2669
  390MOL0     C52549   2.171   6.698   3.154 -0.4164  0.0246 -1.1418
  390MOL0     C52550   2.053   6.745   3.097 -0.6213 -0.7516  0.6371
  390MOL0     O52551   2.052   6.725   2.961 -0.6996  0.2394 -0.8605
  390MOL0     C52552   1.928   6.694   2.894  0.3051 -0.2222 -0.9621
  390MOL0     C52553   1.950   6.629   2.757  0.3048  1.1557 -0.7166
  390MOL0     C52554   2.010   6.731   2.659  0.1707 -0.4879  0.2720
  390MOL0     C52555   2.040   6.667   2.520  0.3356  0.5046  0.1959
  390MOL0     C52556   2.167   6.722   2.457 -0.1146 -0.9712  0.2593
  390MOL0     C52557   2.181   6.652   2.318 -0.5503  0.2340  0.7980
  390MOL0     C52558   2.090   6.719   2.220  0.2620 -0.4196  0.5292
  390MOL0     C52559   2.115   6.688   2.075 -0.0075  0.0095 -0.4319
  390MOL0    Cl52560   2.084   6.516   2.040 -0.5748  0.3037 -0.5212
  390MOL0     C52561   1.948   6.807   3.175  0.2282  0.5921  0.3131
  390MOL0     C52562   1.952   6.806   3.315 -0.1916  0.4888 -0.1274
  390MOL0     O52563   2.196   6.941   3.547 -0.0928 -0.5183 -0.4410
  390MOL0     C52564   2.033   6.760   3.788 -0.2048 -0.5739 -0.5182
  390MOL0     C52565   2.027   6.731   3.917 -0.8825  0.2166 -0.1103
  390MOL0     N52566   2.332   6.513   4.564  0.8404  0.4080 -0.0205
  390MOL0     N52567   2.444   6.523   4.623 -0.1554  0.0678 -0.0734
  390MOL0     C52568   3.145   6.592   5.590  1.3166 -0.7870  0.0344
  390MOL0     C52569   3.160   6.475   5.657  0.4567 -0.0805 -0.4506
  390MOL0     C52570   3.372   6.083   5.773 -0.8137 -0.1681 -0.8193
  390MOL0     C52571   3.264   6.006   5.748 -0.1623  0.5328  0.1349
  390MOL0     C52572   3.265   5.878   5.804  0.5120 -0.0950  0.9804
  390MOL0     C52573   3.356   5.821   5.886  0.1696 -0.5476  0.1062
  390MOL0     O52574   3.344   5.696   5.936 -0.0779 -0.1487 -0.5819
  390MOL0     C52575   3.313   5.679   6.083  0.4131  0.8892 -0.0047
  390MOL0     C52576   3.171   5.731   6.107 -0.8684 -0.0622  0.8964
  390MOL0     C52577   3.115   5.655   6.230  0.2727 -0.3774  1.1177
  390MOL0     C52578   2.990   5.711   6.302 -0.9189 -0.8618 -0.0132
  390MOL0     C52579   2.876   5.719   6.223  0.2757  0.0713  0.2022
  390MOL0     C52580   2.780   5.711   6.150  0.2450 -1.2088  1.3505
  390MOL0     C52581   3.474   5.898   5.906 -0.7443 -0.8000  0.8578
  390MOL0     C52582   3.481   6.019   5.842  0.5445  0.7455 -0.7140
  390MOL0     H52583   3.447   6.380   5.503  0.8817  0.1752 -0.1854
  390MOL0     H52584   3.407   6.577   5.376 -0.6573 -1.5153 -0.6114
  390MOL0     H52585   3.267   6.809   5.237 -0.3646 -2.2701 -3.1266
  390MOL0     H52586   3.161   6.660   5.258 -0.3854 -0.5771  0.7017
  390MOL0     H52587   2.983   6.833   5.322 -0.2827 -2.0880 -1.7397
  390MOL0     H52588   3.095   6.961   5.290  0.1214  0.4517 -1.9578
  390MOL0     H52589   2.988   6.969   5.077 -2.0134 -0.8347 -1.3297
  390MOL0     H52590   3.116   6.858   5.054 -0.2458 -3.0358  0.1167
  390MOL0     H52591   2.953   6.664   5.057 -0.2099 -0.5678  2.4401
  390MOL0     H52592   2.834   6.737   5.155 -1.6218  2.6603  0.5423
  390MOL0     H52593   2.788   6.913   4.961 -0.0084  0.5082  1.0808
  390MOL0     H52594   2.905   6.817   4.876  1.4562 -1.4226  0.9986
  390MOL0     H52595   2.767   6.605   4.930 -3.4692 -1.8603  0.7335
  390MOL0     H52596   2.647   6.708   5.001 -2.6735  2.3200 -2.5113
  390MOL0     H52597   2.595   6.814   4.778 -0.0709  0.7859  3.9632
  390MOL0     H52598   2.683   6.665   4.725  1.1916  3.8502 -0.8535
  390MOL0     H52599   2.435   6.663   4.911  0.3757 -1.2558  0.0011
  390MOL0     H52600   2.528   6.517   4.863  0.9274 -1.9490 -3.8746
  390MOL0     H52601   2.238   6.733   4.778 -1.1776  0.1285 -1.0679
  390MOL0     H52602   2.038   6.541   4.545 -0.3451 -0.5721  1.0288
  390MOL0     H52603   2.052   6.713   4.604  0.0810 -1.0987  0.9080
  390MOL0     H52604   2.141   6.584   4.358  1.2598  1.0458 -2.3563
  390MOL0     H52605   2.199   6.744   4.383 -1.9859  0.9467 -5.0091
  390MOL0     H52606   1.994   6.842   4.351 -0.5810 -0.4370  1.5372
  390MOL0     H52607   1.897   6.706   4.400  0.0953  1.6071  1.5619
  390MOL0     H52608   1.906   6.789   4.165 -0.6820  1.7391  4.0023
  390MOL0     H52609   1.960   6.616   4.170  0.1160  0.4810 -1.5225
  390MOL0     H52610   2.302   6.875   4.042 -2.4893  1.9549  1.6499
  390MOL0     H52611   2.409   6.876   3.673  2.5865 -0.7731 -0.3649
  390MOL0     H52612   2.364   7.029   3.749 -2.1522 -0.6087 -0.9026
  390MOL0     H52613   2.454   6.913   3.850  2.1554  1.0154 -1.0938
  390MOL0     H52614   2.268   6.678   3.351 -0.4211  1.0747 -0.1723
  390MOL0     H52615   2.260   6.671   3.098  0.9133 -0.5990  1.1510
  390MOL0     H52616   1.884   6.614   2.954 -0.6320 -0.0187 -1.3571
  390MOL0     H52617   1.866   6.783   2.881  1.3475  0.2393 -3.3692
  390MOL0     H52618   2.033   6.560   2.771  1.7563  2.9711  0.0577
  390MOL0     H52619   1.859   6.578   2.724  1.6510 -1.6875 -0.2816
  390MOL0     H52620   2.087   6.789   2.712 -1.2004  1.9342 -0.2418
  390MOL0     H52621   1.925   6.796   2.637  0.3163 -0.3853  0.0155
  390MOL0     H52622   2.067   6.562   2.532  5.0014  1.5611  0.7602
  390MOL0     H52623   1.962   6.684   2.445  1.1391 -1.0018 -1.0218
  390MOL0     H52624   2.243   6.688   2.528  0.8829  2.2098  0.8482
  390MOL0     H52625   2.174   6.831   2.464  0.6323 -1.0976  2.8706
  390MOL0     H52626   2.287   6.650   2.289 -1.0923 -1.9228 -1.4506
  390MOL0     H52627   2.153   6.546   2.318 -3.1431  0.5444 -4.5724
  390MOL0     H52628   2.100   6.826   2.239 -0.6378 -0.7196  2.9810
  390MOL0     H52629   1.986   6.695   2.240  0.1843  0.5511  1.3523
  390MOL0     H52630   2.210   6.723   2.034  0.1733 -0.5239 -0.4744
  390MOL0     H52631   2.046   6.756   2.025 -2.0217 -0.8391  1.0264
  390MOL0     H52632   1.856   6.848   3.134  0.6878  4.3829  2.6157
  390MOL0     H52633   1.878   6.852   3.380 -0.2768  0.5837 -0.2903
  390MOL0     H52634   1.948   6.732   3.726 -0.1947 -3.5187  0.6540
  390MOL0     H52635   1.931   6.692   3.948  0.0190 -0.1493  2.5832
  390MOL0     H52636   3.060   6.654   5.615 -0.0755 -1.9447 -1.5281
  390MOL0     H52637   3.086   6.433   5.725 -0.7876  1.2716 -0.9151
  390MOL0     H52638   3.177   6.033   5.690  0.2044 -0.1563 -0.7611
  390MOL0     H52639   3.169   5.831   5.785 -0.5210  2.0543  0.4996
  390MOL0     H52640   3.313   5.572   6.105  0.2365  0.8781 -0.0514
  390MOL0     H52641   3.387   5.728   6.146  1.8579  2.5298 -2.7934
  390MOL0     H52642   3.109   5.707   6.020 -0.2969 -0.0666  0.4888
  390MOL0     H52643   3.182   5.839   6.116 -2.1382  0.0520  1.3150
  390MOL0     H52644   3.192   5.654   6.308 -0.3116  0.6922  1.7276
  390MOL0     H52645   3.081   5.560   6.189  1.0558  0.6996 -2.4603
  390MOL0     H52646   3.014   5.815   6.327  0.8062 -0.3476 -3.2039
  390MOL0     H52647   2.972   5.656   6.394  0.2816 -1.4529 -0.1124
  390MOL0     H52648   2.696   5.682   6.089 -0.0228  0.1519  1.0508
  390MOL0     H52649   3.558   5.860   5.963  0.6451  1.1128  0.2067
  390MOL0     H52650   3.580   6.063   5.852  2.0747 -2.2092 -1.5952
  391MOL0     O52651  10.647   8.064   1.309 -1.0179 -0.5566 -0.8394
  391MOL0     C52652  10.685   8.177   1.269  0.0500 -0.1070  0.1157
  391MOL0     O52653  10.759   8.270   1.337 -0.8737 -0.1852 -0.0558
  391MOL0     C52654  10.798   8.232   1.468 -0.1010 -0.8190  0.8118
  391MOL0     C52655  10.717   8.166   1.561  0.4351  0.2391 -0.4892
  391MOL0     C52656  10.764   8.133   1.688 -0.7791 -0.1541 -0.3714
  391MOL0     C52657  10.896   8.178   1.735 -0.7505  0.6858  0.2589
  391MOL0     O52658  10.951   8.163   1.859 -0.1873 -0.0239  0.3574
  391MOL0     C52659  10.861   8.151   1.969  0.0056  0.6065 -0.2970
  391MOL0     C52660  10.829   7.999   1.996 -0.9768  0.0937 -0.0541
  391MOL0     C52661  10.703   7.973   2.084  0.6432  0.7884  0.2594
  391MOL0     C52662  10.657   7.841   2.035  0.3845  1.3295 -0.0529
  391MOL0     C52663  10.527   7.788   2.111 -0.6287 -0.0691 -1.4440
  391MOL0     C52664  10.412   7.870   2.063  0.1580  0.4620  0.4124
  391MOL0     C52665  10.274   7.806   2.109  1.2080 -0.4962  0.5105
  391MOL0     C52666  10.151   7.899   2.092 -0.6111  0.0660 -1.2121
  391MOL0     N52667  10.094   7.922   1.959 -1.0036 -0.7455  0.7610
  391MOL0     C52668  10.031   7.829   1.875  1.2102 -0.9893 -0.2367
  391MOL0     C52669  10.013   7.906   1.766  0.3107 -0.0784 -0.4629
  391MOL0     C52670   9.959   7.864   1.631 -0.5904  0.1670  0.2842
  391MOL0     C52671   9.993   7.716   1.616  0.9562 -0.6180  0.3159
  391MOL0     C52672  10.139   7.673   1.626  1.1767 -0.7301 -0.6173
  391MOL0     C52673  10.173   7.578   1.512  1.2983 -0.6356  0.5820
  391MOL0     O52674  10.096   7.455   1.522 -0.1795  1.0149  0.4796
  391MOL0     C52675  10.108   7.358   1.422 -0.0935  0.0949 -0.5876
  391MOL0     C52676  10.181   7.379   1.302  0.8585 -1.0558 -0.3422
  391MOL0     C52677  10.195   7.271   1.217  0.1739 -0.0163 -0.5307
  391MOL0     C52678  10.276   7.295   1.096  0.1562 -0.2433 -0.2210
  391MOL0     C52679  10.147   7.144   1.253  0.0489  0.5166  0.7334
  391MOL0     C52680  10.161   7.022   1.162 -0.5853 -0.0134  0.5613
  391MOL0     O52681  10.059   6.940   1.196  0.6036  0.2343  0.0113
  391MOL0     C52682  10.061   6.804   1.162  0.0964  0.1999  0.6306
  391MOL0     C52683   9.944   6.744   1.107 -0.2910  0.4225  0.0149
  391MOL0     C52684   9.943   6.604   1.082  0.8940  0.3557 -0.6331
  391MOL0     C52685  10.059   6.530   1.109  0.1039 -0.2504  0.8546
  391MOL0     O52686  10.052   6.392   1.083  0.4273  0.5459  0.4250
  391MOL0     C52687  10.112   6.304   1.180 -0.6527  0.4146 -0.0198
  391MOL0     C52688  10.032   6.173   1.171 -0.0880 -0.8006  0.9369
  391MOL0     C52689  10.046   6.104   1.036  0.0186 -0.6917 -0.6970
  391MOL0     C52690   9.950   5.983   1.049 -1.0215 -0.5810 -0.4142
  391MOL0     C52691   9.991   5.883   0.934  0.9584 -0.5411  0.4528
  391MOL0     C52692   9.876   5.790   0.905 -0.1049  0.1460  0.0216
  391MOL0     C52693   9.839   5.710   1.031  0.3266 -0.0676 -0.5046
  391MOL0     C52694   9.758   5.590   0.999 -0.0070  0.5320  1.1247
  391MOL0    Cl52695   9.590   5.650   0.968 -0.6015  0.0566 -0.0461
  391MOL0     C52696  10.178   6.591   1.153 -0.0480 -0.3490  0.0294
  391MOL0     C52697  10.172   6.728   1.179 -0.3133  0.7791 -0.1832
  391MOL0     O52698  10.232   7.014   1.062  0.1985  0.1408  0.1528
  391MOL0     C52699  10.080   7.122   1.374  0.0985 -0.0793  0.3075
  391MOL0     C52700  10.063   7.234   1.449  0.5273  0.0764  0.4292
  391MOL0     N52701  10.056   8.042   1.775  0.1770  0.0934 -0.2499
  391MOL0     N52702  10.099   8.047   1.897  0.0627  0.5525 -0.1109
  391MOL0     C52703  10.974   8.239   1.640  0.1220 -0.3605 -0.5181
  391MOL0     C52704  10.927   8.273   1.508  0.4822 -0.9073 -0.3322
  391MOL0     C52705  10.643   8.220   1.134 -0.3074  0.3828  0.1995
  391MOL0     C52706  10.547   8.138   1.059  0.6622 -0.8371 -0.2120
  391MOL0     C52707  10.501   8.180   0.934  0.4420 -0.9974 -0.3970
  391MOL0     C52708  10.548   8.301   0.881  1.4075  0.0554 -0.1170
  391MOL0     O52709  10.520   8.337   0.754 -0.2717  0.2673  0.4702
  391MOL0     C52710  10.376   8.353   0.708 -0.8878  0.5412 -0.5057
  391MOL0     C52711  10.373   8.367   0.559 -0.6032 -0.5009  0.1501
  391MOL0     C52712  10.506   8.321   0.489  0.8719  1.0290  0.3446
  391MOL0     C52713  10.515   8.168   0.464  0.7315 -0.5641  0.2884
  391MOL0     C52714  10.419   8.114   0.368 -0.0434 -1.2226 -0.2894
  391MOL0     C52715  10.343   8.061   0.285 -0.1829 -0.1691  0.0855
  391MOL0     C52716  10.643   8.379   0.952  0.2045  0.5858 -0.2026
  391MOL0     C52717  10.687   8.349   1.077  0.4542  0.5511 -0.0736
  391MOL0     H52718  10.621   8.127   1.529  0.2067  0.3547  0.0425
  391MOL0     H52719  10.699   8.084   1.759  0.8495 -0.7108  0.8161
  391MOL0     H52720  10.898   8.195   2.062 -1.5515  2.8758 -0.6693
  391MOL0     H52721  10.772   8.212   1.949 -0.3254  1.8289  3.8458
  391MOL0     H52722  10.812   7.949   1.899 -0.9500  0.4509 -0.2431
  391MOL0     H52723  10.914   7.944   2.038 -1.6439 -3.4945 -2.8007
  391MOL0     H52724  10.732   7.971   2.190  1.1022  1.0621  0.1429
  391MOL0     H52725  10.627   8.047   2.056 -3.7655 -2.2633  2.8870
  391MOL0     H52726  10.622   7.843   1.932 -0.2624 -1.8919 -0.0055
  391MOL0     H52727  10.737   7.766   2.039  0.6147  1.4998 -1.1517
  391MOL0     H52728  10.516   7.683   2.083  1.9533 -0.5025 -1.0357
  391MOL0     H52729  10.540   7.786   2.219  0.9389 -1.8139 -1.6191
  391MOL0     H52730  10.422   7.971   2.104 -1.6674 -0.2286  2.8443
  391MOL0     H52731  10.404   7.872   1.954 -0.1613  0.6738  0.4399
  391MOL0     H52732  10.264   7.728   2.032  4.7846 -2.1729  1.5835
  391MOL0     H52733  10.277   7.744   2.199  0.1085  0.7434  1.4494
  391MOL0     H52734  10.177   7.993   2.141 -0.3176 -1.3236  1.5073
  391MOL0     H52735  10.069   7.859   2.152 -2.9467  0.9203 -3.6667
  391MOL0     H52736  10.002   7.728   1.902  0.3106 -0.8145 -0.5043
  391MOL0     H52737   9.851   7.879   1.627 -0.5167  0.5766 -4.1078
  391MOL0     H52738   9.994   7.937   1.558 -2.0169  0.9543  0.3525
  391MOL0     H52739   9.948   7.693   1.520  0.1498 -3.4524  1.2894
  391MOL0     H52740   9.931   7.660   1.687 -0.0768 -1.1724 -0.9820
  391MOL0     H52741  10.143   7.615   1.719 -2.4048 -0.6869 -0.3062
  391MOL0     H52742  10.204   7.760   1.634 -0.9280  0.8824 -0.0200
  391MOL0     H52743  10.281   7.561   1.517  1.2698 -1.2119 -0.3574
  391MOL0     H52744  10.140   7.621   1.417  0.6388  1.5032  1.7284
  391MOL0     H52745  10.217   7.474   1.263 -3.6479  0.2560 -2.0200
  391MOL0     H52746  10.323   7.394   1.087  1.1138 -0.6129  0.5537
  391MOL0     H52747  10.373   7.244   1.101  1.0060  1.2563 -0.7725
  391MOL0     H52748  10.224   7.261   1.006  1.5004 -2.1033 -0.3447
  391MOL0     H52749   9.853   6.799   1.085 -1.6215 -2.1380 -1.3597
  391MOL0     H52750   9.865   6.543   1.037  0.7386 -0.8873  1.1990
  391MOL0     H52751  10.215   6.287   1.148 -1.4307 -0.7948 -2.0286
  391MOL0     H52752  10.110   6.342   1.283 -0.2176  0.5564 -0.0587
  391MOL0     H52753  10.067   6.111   1.254  1.5093 -1.2941 -0.0535
  391MOL0     H52754   9.928   6.204   1.187  0.3797  1.2980  0.3082
  391MOL0     H52755  10.151   6.074   1.029  0.2580 -0.4472  1.4300
  391MOL0     H52756  10.026   6.170   0.950 -0.3926  0.2171  0.0754
  391MOL0     H52757   9.957   5.944   1.151  0.4948 -1.7447 -0.9219
  391MOL0     H52758   9.847   6.015   1.033 -0.0964  3.0108  0.0353
  391MOL0     H52759  10.077   5.823   0.965  2.0089 -0.0591 -1.3867
  391MOL0     H52760  10.020   5.936   0.843  2.1192 -2.0350 -0.0876
  391MOL0     H52761   9.789   5.852   0.881  1.7432  2.3681 -1.4511
  391MOL0     H52762   9.905   5.729   0.819  2.2475  1.3579 -0.1507
  391MOL0     H52763   9.785   5.782   1.092  2.0442 -0.2667  1.3700
  391MOL0     H52764   9.926   5.678   1.090 -0.0429  2.3100  1.5090
  391MOL0     H52765   9.760   5.515   1.079 -5.5974 -1.3888 -0.0864
  391MOL0     H52766   9.792   5.542   0.906  1.4802  2.6000  0.5247
  391MOL0     H52767  10.272   6.543   1.179 -0.6802 -1.6578 -0.0691
  391MOL0     H52768  10.261   6.778   1.216  0.8529 -0.5218 -1.1460
  391MOL0     H52769  10.023   7.033   1.403  1.2099 -0.4322  1.4986
  391MOL0     H52770  10.009   7.220   1.542  1.8684 -3.4070  0.8081
  391MOL0     H52771  11.063   8.295   1.669 -0.4834  0.2233  0.2477
  391MOL0     H52772  10.995   8.321   1.438  0.9869  0.6561  1.1538
  391MOL0     H52773  10.515   8.040   1.093 -0.4053  0.4104  2.7735
  391MOL0     H52774  10.427   8.125   0.876 -1.9939  1.9864 -0.3937
  391MOL0     H52775  10.320   8.262   0.732  1.3013 -1.0930 -1.2754
  391MOL0     H52776  10.337   8.442   0.759 -0.8835 -0.9866  2.3745
  391MOL0     H52777  10.353   8.468   0.521 -1.9984 -0.0988  1.8405
  391MOL0     H52778  10.284   8.312   0.527 -1.7525  1.2880  0.1160
  391MOL0     H52779  10.597   8.359   0.537  2.6769 -1.8771 -0.5294
  391MOL0     H52780  10.509   8.364   0.389 -0.7909 -1.6264 -0.9771
  391MOL0     H52781  10.526   8.117   0.561 -1.6729 -1.8592 -0.0330
  391MOL0     H52782  10.609   8.168   0.407  0.2098  2.4722 -0.7338
  391MOL0     H52783  10.258   8.037   0.224 -0.5740  1.3024  0.0076
  391MOL0     H52784  10.678   8.471   0.906 -1.3210  0.7603 -1.0710
  391MOL0     H52785  10.761   8.417   1.119  2.5102 -2.2080  1.0272
  392MOL0     O52786   5.472   6.835   5.786 -0.3712 -0.4544 -1.1364
  392MOL0     C52787   5.590   6.850   5.767 -0.0268 -0.2371  0.5653
  392MOL0     O52788   5.685   6.761   5.716 -0.1567  0.0970  0.6327
  392MOL0     C52789   5.634   6.647   5.666  0.5616 -0.2509  0.7459
  392MOL0     C52790   5.543   6.653   5.546 -0.1013  0.5327 -0.1455
  392MOL0     C52791   5.499   6.532   5.508  0.5463  0.6483  0.9275
  392MOL0     C52792   5.543   6.408   5.559  0.8533 -0.0801 -0.3335
  392MOL0     O52793   5.472   6.300   5.515 -0.0821  0.0203  0.4881
  392MOL0     C52794   5.476   6.173   5.588  1.2325 -0.1257 -1.1629
  392MOL0     C52795   5.424   6.055   5.510 -0.3282  0.4709  0.2363
  392MOL0     C52796   5.287   6.083   5.440  0.2101  0.2669 -0.2922
  392MOL0     C52797   5.227   5.963   5.366  0.2863  0.2311 -0.3377
  392MOL0     C52798   5.193   5.847   5.463 -0.9394 -0.5594 -0.4803
  392MOL0     C52799   5.063   5.874   5.539  0.2557  0.0526  0.3737
  392MOL0     C52800   5.037   5.754   5.639  0.1942  0.1592  0.2542
  392MOL0     C52801   4.904   5.765   5.719  1.1474  0.4249  0.0691
  392MOL0     N52802   4.798   5.704   5.635  0.1954 -0.0432  0.8160
  392MOL0     C52803   4.767   5.568   5.625  0.2159 -0.0993 -0.2996
  392MOL0     C52804   4.690   5.554   5.514  0.7852  0.0796  0.2670
  392MOL0     C52805   4.623   5.424   5.465  1.0246 -0.7910  0.1217
  392MOL0     C52806   4.488   5.407   5.559  0.2491 -0.0118  0.2462
  392MOL0     C52807   4.463   5.256   5.563  0.2725 -0.2024  0.6163
  392MOL0     C52808   4.342   5.214   5.632  0.4017 -0.2330 -0.2839
  392MOL0     O52809   4.330   5.070   5.653 -0.1972 -0.0256 -0.2279
  392MOL0     C52810   4.207   5.021   5.693 -0.5167  0.5391  0.5882
  392MOL0     C52811   4.093   5.094   5.715  0.6953  0.2001  0.1325
  392MOL0     C52812   3.969   5.030   5.750 -0.3658 -0.1493 -0.8545
  392MOL0     C52813   3.848   5.120   5.764 -0.1779  1.0259  0.3939
  392MOL0     C52814   3.966   4.886   5.765 -0.2084  0.3522  0.6402
  392MOL0     C52815   3.845   4.827   5.815 -0.2918 -0.1092 -1.0024
  392MOL0     O52816   3.854   4.765   5.933 -0.1980 -0.2689 -0.1937
  392MOL0     C52817   3.748   4.688   5.974  0.8137  1.5694  0.9876
  392MOL0     C52818   3.712   4.588   5.879 -0.9067 -0.3849 -1.0811
  392MOL0     C52819   3.607   4.502   5.908  0.5374 -0.3783  0.2612
  392MOL0     C52820   3.529   4.516   6.028 -0.6414 -0.0453  0.7636
  392MOL0     O52821   3.409   4.446   6.029  0.8992 -0.2395 -0.1722
  392MOL0     C52822   3.381   4.361   6.146 -0.7250 -0.1650  0.4435
  392MOL0     C52823   3.475   4.236   6.160 -0.2142 -0.7679  1.3536
  392MOL0     C52824   3.458   4.135   6.043 -0.8489 -1.0147  0.6781
  392MOL0     C52825   3.317   4.082   6.050 -0.2643  0.6435  0.4175
  392MOL0     C52826   3.313   3.954   5.966  0.1243 -0.5960 -0.2598
  392MOL0     C52827   3.171   3.896   5.983  0.0036  0.6504 -0.3659
  392MOL0     C52828   3.171   3.749   5.927  0.4010  0.6308  0.2175
  392MOL0     C52829   3.030   3.681   5.924 -0.7509 -0.8767 -1.4263
  392MOL0    Cl52830   2.947   3.701   6.071  0.0704 -0.1308  0.6121
  392MOL0     C52831   3.576   4.610   6.120  0.3406 -0.5325 -0.0143
  392MOL0     C52832   3.681   4.702   6.086 -0.2962 -0.7752 -0.3500
  392MOL0     O52833   3.751   4.824   5.736  0.2918 -0.2942  0.1907
  392MOL0     C52834   4.080   4.812   5.741 -0.6887 -0.9692  0.0578
  392MOL0     C52835   4.199   4.882   5.701 -1.8330  0.4442 -0.0575
  392MOL0     N52836   4.659   5.682   5.469 -1.0868 -0.4370 -0.4524
  392MOL0     N52837   4.732   5.768   5.535  0.1918 -0.1381  0.4815
  392MOL0     C52838   5.640   6.404   5.659 -0.5579  0.0555 -0.7205
  392MOL0     C52839   5.685   6.528   5.717  0.1284 -0.2350 -0.0000
  392MOL0     C52840   5.640   6.997   5.777 -0.0377  0.5509  0.2074
  392MOL0     C52841   5.772   7.015   5.793 -0.6003  0.1020  0.1522
  392MOL0     C52842   5.825   7.144   5.794 -0.2830  0.4782  0.2507
  392MOL0     C52843   5.749   7.258   5.792  0.4779 -0.0505  1.1531
  392MOL0     O52844   5.792   7.389   5.788 -0.0549  0.0857  0.4147
  392MOL0     C52845   5.789   7.453   5.661  0.3906  0.9657  0.3385
  392MOL0     C52846   5.809   7.596   5.696 -0.5941 -0.0368  1.2048
  392MOL0     C52847   5.952   7.615   5.753  0.3149 -0.6153  0.1453
  392MOL0     C52848   5.979   7.753   5.814  0.4282 -0.3269  0.5096
  392MOL0     C52849   5.983   7.857   5.708 -0.3369  0.7021  0.0538
  392MOL0     C52850   5.978   7.944   5.614  0.3873  0.1160 -0.5685
  392MOL0     C52851   5.610   7.236   5.775 -0.4011  0.2506 -0.0250
  392MOL0     C52852   5.553   7.110   5.767 -1.1328  0.4923 -0.5864
  392MOL0     H52853   5.518   6.749   5.503  1.5619  0.3424 -1.6628
  392MOL0     H52854   5.422   6.525   5.432  2.3935  1.0588 -1.0835
  392MOL0     H52855   5.580   6.153   5.616  0.8646 -0.0957  0.3131
  392MOL0     H52856   5.417   6.194   5.678  0.5404 -2.2656 -1.0587
  392MOL0     H52857   5.495   6.037   5.428  1.1128  1.4188  1.2292
  392MOL0     H52858   5.433   5.962   5.568  0.2166 -0.6849 -1.6007
  392MOL0     H52859   5.218   6.104   5.522  2.7190  3.5940  1.2443
  392MOL0     H52860   5.296   6.164   5.366 -1.0340 -0.1977 -0.9902
  392MOL0     H52861   5.144   6.001   5.306  0.6629  1.8792  0.1185
  392MOL0     H52862   5.302   5.921   5.300 -2.1296 -0.4798 -2.8174
  392MOL0     H52863   5.176   5.747   5.423 -1.9562 -0.8319  0.5771
  392MOL0     H52864   5.279   5.854   5.531 -2.4458 -1.3256  1.6079
  392MOL0     H52865   5.077   5.968   5.593  2.0858  1.0261 -1.6768
  392MOL0     H52866   4.985   5.886   5.463  0.6386 -1.4676 -0.2876
  392MOL0     H52867   5.050   5.657   5.590  0.3902  0.8779 -1.1609
  392MOL0     H52868   5.116   5.759   5.715  1.7447 -0.5658 -1.2259
  392MOL0     H52869   4.887   5.871   5.740  3.1745  1.0757 -1.3213
  392MOL0     H52870   4.910   5.719   5.818 -0.2060 -1.2351 -0.5717
  392MOL0     H52871   4.787   5.482   5.689  1.0869  1.7314  2.0370
  392MOL0     H52872   4.591   5.443   5.362 -0.5828 -1.0522  0.5449
  392MOL0     H52873   4.683   5.333   5.469 -0.7451 -2.0050  0.5251
  392MOL0     H52874   4.404   5.459   5.512  0.2441  0.7938  1.1039
  392MOL0     H52875   4.507   5.440   5.662  1.1336 -2.4378  0.9337
  392MOL0     H52876   4.550   5.202   5.602 -0.0574  0.3688  2.2147
  392MOL0     H52877   4.438   5.239   5.458  1.9995  0.7113  0.0139
  392MOL0     H52878   4.253   5.255   5.583  1.8059 -1.0129 -3.7459
  392MOL0     H52879   4.353   5.246   5.736  2.1260  0.2002 -0.5798
  392MOL0     H52880   4.092   5.203   5.710 -1.5221  0.2981  1.4337
  392MOL0     H52881   3.758   5.091   5.708 -0.4509  1.8955  0.3744
  392MOL0     H52882   3.816   5.131   5.868 -0.8896  2.0871  0.0748
  392MOL0     H52883   3.881   5.221   5.740  1.9439  0.7524  1.8432
  392MOL0     H52884   3.769   4.564   5.790 -3.2700 -1.4897 -2.3999
  392MOL0     H52885   3.593   4.429   5.829  1.8149 -1.8439  1.3174
  392MOL0     H52886   3.380   4.427   6.233 -1.6539  2.2702 -1.2861
  392MOL0     H52887   3.277   4.332   6.132 -1.4967  2.1212  1.0726
  392MOL0     H52888   3.576   4.278   6.150 -0.4436 -0.7798 -2.7503
  392MOL0     H52889   3.460   4.178   6.251  1.1085 -4.1310 -0.3611
  392MOL0     H52890   3.541   4.064   6.050  0.1949  0.2034  1.1468
  392MOL0     H52891   3.472   4.193   5.951  2.2164 -0.8062  1.1889
  392MOL0     H52892   3.280   4.054   6.149  0.4639 -2.4528 -0.0693
  392MOL0     H52893   3.247   4.152   6.004 -1.8947 -0.6667  0.8182
  392MOL0     H52894   3.393   3.884   5.994  1.7619  1.1112 -0.4973
  392MOL0     H52895   3.325   3.972   5.859 -2.3098 -1.8559 -0.8124
  392MOL0     H52896   3.152   3.906   6.090  0.3498  2.8910 -0.4498
  392MOL0     H52897   3.102   3.962   5.930 -3.9696 -2.1269  0.9311
  392MOL0     H52898   3.223   3.693   6.005  0.7570  0.6537 -0.0025
  392MOL0     H52899   3.226   3.730   5.835  1.8477 -0.7328  1.3058
  392MOL0     H52900   3.037   3.574   5.902 -1.0160 -2.2922  4.0996
  392MOL0     H52901   2.974   3.731   5.844 -2.8760  0.7825  0.9462
  392MOL0     H52902   3.521   4.634   6.211  1.9103 -1.7784  1.3199
  392MOL0     H52903   3.715   4.788   6.143  0.9648  0.0260 -2.2081
  392MOL0     H52904   4.063   4.707   5.762 -1.2153 -0.4672  2.5122
  392MOL0     H52905   4.284   4.815   5.693 -3.7667 -2.2621  0.6202
  392MOL0     H52906   5.687   6.315   5.701  1.0135  0.8130 -0.8241
  392MOL0     H52907   5.758   6.530   5.797 -0.7089  3.1257  0.8506
  392MOL0     H52908   5.835   6.929   5.808  2.0107  2.4536  4.6140
  392MOL0     H52909   5.928   7.160   5.826 -0.6049  0.5893  1.2992
  392MOL0     H52910   5.869   7.410   5.600 -0.4210 -1.4241  0.8264
  392MOL0     H52911   5.698   7.434   5.604 -2.2062 -2.6763  4.8706
  392MOL0     H52912   5.733   7.648   5.755  0.1286  1.9238  0.4852
  392MOL0     H52913   5.819   7.658   5.606 -2.5845 -1.8848 -0.4067
  392MOL0     H52914   6.030   7.586   5.683  1.9459 -1.1970  2.1119
  392MOL0     H52915   5.977   7.547   5.834  0.5668  0.0070  0.6017
  392MOL0     H52916   6.078   7.757   5.860 -0.5902  0.8084  2.7790
  392MOL0     H52917   5.909   7.776   5.895  1.5772 -3.4244  2.5530
  392MOL0     H52918   5.969   8.006   5.527 -2.9461 -0.3673 -0.6811
  392MOL0     H52919   5.535   7.313   5.764  0.3478  0.6767 -3.1322
  392MOL0     H52920   5.446   7.095   5.765 -1.2084 -0.1394  2.6216
  393MOL0     O52921  10.569  10.902   4.640  0.3278 -0.2773  0.3733
  393MOL0     C52922  10.602  10.959   4.748 -0.5154 -0.4779 -0.6059
  393MOL0     O52923  10.574  10.905   4.878  0.2367 -0.1927  0.1451
  393MOL0     C52924  10.576  10.771   4.917 -0.2319  0.0570  0.0674
  393MOL0     C52925  10.552  10.668   4.823 -0.4048  0.2008  0.1917
  393MOL0     C52926  10.525  10.540   4.869 -1.5094 -0.1110  0.6332
  393MOL0     C52927  10.528  10.509   5.002 -0.1591  0.1328  0.6961
  393MOL0     O52928  10.507  10.386   5.055  0.3513  0.5938 -0.5018
  393MOL0     C52929  10.619  10.311   5.093 -0.1167  0.2682 -0.4878
  393MOL0     C52930  10.656  10.212   4.989 -0.0206  0.6678 -0.0822
  393MOL0     C52931  10.560  10.092   4.986 -0.0713  0.5646  0.5685
  393MOL0     C52932  10.578   9.998   5.100 -0.9111  0.3357 -0.2171
  393MOL0     C52933  10.511   9.859   5.071 -0.1254  0.1228 -0.2588
  393MOL0     C52934  10.517   9.779   5.199  1.0855  0.0745 -0.4323
  393MOL0     C52935  10.555   9.636   5.177  0.9581  0.2312  0.0187
  393MOL0     C52936  10.476   9.550   5.079  0.6399 -0.3962 -0.2624
  393MOL0     N52937  10.543   9.426   5.033 -0.0150  0.2942 -0.3655
  393MOL0     C52938  10.634   9.418   4.926 -0.6635 -0.1804  0.8960
  393MOL0     C52939  10.716   9.316   4.943  0.4140  0.2332 -0.3841
  393MOL0     C52940  10.833   9.276   4.852 -0.0412  0.5082 -0.3775
  393MOL0     C52941  10.805   9.171   4.737  0.3904  0.0357 -0.5693
  393MOL0     C52942  10.719   9.234   4.625  0.1818  0.1959  0.6215
  393MOL0     C52943  10.778   9.355   4.552 -0.0152  0.7198  0.3384
  393MOL0     O52944  10.688   9.397   4.455 -0.6166 -0.3181 -0.3771
  393MOL0     C52945  10.762   9.451   4.349  0.0379  0.4275  0.2267
  393MOL0     C52946  10.869   9.548   4.355  0.2159  1.1334  0.3706
  393MOL0     C52947  10.929   9.597   4.235  0.7125 -0.2205 -0.5275
  393MOL0     C52948  11.048   9.695   4.247  0.2374 -0.8276 -0.1421
  393MOL0     C52949  10.896   9.531   4.111 -0.3404  0.5192  0.0652
  393MOL0     C52950  10.967   9.550   3.979 -0.7897 -0.2402 -0.0427
  393MOL0     O52951  10.918   9.468   3.877 -0.0316 -0.2726 -0.2409
  393MOL0     C52952  10.964   9.490   3.747 -0.7511 -0.7879  0.4417
  393MOL0     C52953  10.994   9.376   3.666 -0.4754 -0.2033 -0.3646
  393MOL0     C52954  11.040   9.382   3.537 -0.9492  0.6508 -0.0232
  393MOL0     C52955  11.075   9.503   3.487 -0.2467  0.1642  0.3132
  393MOL0     O52956  11.108   9.504   3.351  0.4064  0.3262 -0.1015
  393MOL0     C52957  11.222   9.588   3.314  0.3403 -0.7243  0.2019
  393MOL0     C52958  11.253   9.583   3.164  0.4330 -0.1371 -0.2920
  393MOL0     C52959  11.358   9.685   3.122  0.7274  1.2943  0.4677
  393MOL0     C52960  11.399   9.653   2.969  1.4875  0.1565  0.6815
  393MOL0     C52961  11.513   9.755   2.936  0.3896 -0.0278 -0.0240
  393MOL0     C52962  11.556   9.737   2.793  0.3808  0.5429 -1.9118
  393MOL0     C52963  11.692   9.809   2.775  0.7419 -0.5229  0.0226
  393MOL0     C52964  11.751   9.766   2.634  0.2700  0.1016 -0.4633
  393MOL0    Cl52965  11.792   9.587   2.642 -0.5338  0.2105 -0.2946
  393MOL0     C52966  11.036   9.614   3.557 -1.3135  0.3601  0.0792
  393MOL0     C52967  10.974   9.607   3.683  0.1672  0.0606 -0.3311
  393MOL0     O52968  11.064   9.627   3.969  0.1931 -0.0070 -0.8617
  393MOL0     C52969  10.798   9.440   4.112  0.5345  0.8003 -0.8562
  393MOL0     C52970  10.731   9.394   4.226  0.3297 -0.5340 -0.9382
  393MOL0     N52971  10.679   9.264   5.068 -0.4945 -0.1115 -1.0740
  393MOL0     N52972  10.564   9.317   5.112  0.0543  0.2932  0.0866
  393MOL0     C52973  10.548  10.617   5.090 -0.3092  0.1077  0.5740
  393MOL0     C52974  10.573  10.751   5.054 -0.3892 -0.1261 -0.1011
  393MOL0     C52975  10.657  11.105   4.746  0.7506 -0.1383 -0.3297
  393MOL0     C52976  10.641  11.193   4.634 -0.0148  0.2673 -0.1055
  393MOL0     C52977  10.700  11.320   4.646  1.0480 -0.9403  0.5656
  393MOL0     C52978  10.766  11.362   4.771 -0.3108 -0.4935 -0.3057
  393MOL0     O52979  10.819  11.487   4.787 -0.3848 -0.2810 -0.3494
  393MOL0     C52980  10.822  11.581   4.674 -0.1595  1.2908 -0.6677
  393MOL0     C52981  10.905  11.707   4.704 -0.4013  0.3855 -0.0134
  393MOL0     C52982  11.042  11.676   4.772 -1.0253 -0.9435  1.4825
  393MOL0     C52983  11.112  11.811   4.801 -0.2301 -0.6843 -0.1184
  393MOL0     C52984  11.224  11.845   4.716  0.5372 -0.4627 -0.1363
  393MOL0     C52985  11.335  11.866   4.674  0.5176 -1.1463  0.7251
  393MOL0     C52986  10.777  11.277   4.880 -0.6206  0.0333  1.4265
  393MOL0     C52987  10.722  11.150   4.860  0.2989  0.9335  0.3031
  393MOL0     H52988  10.571  10.684   4.718  2.4481  0.8671  0.7264
  393MOL0     H52989  10.491  10.467   4.797  0.1395  0.3873 -0.7129
  393MOL0     H52990  10.707  10.366   5.127 -0.8514 -0.7436  3.6183
  393MOL0     H52991  10.588  10.256   5.182 -2.0876  0.7971 -0.8000
  393MOL0     H52992  10.654  10.247   4.886 -0.1389 -1.8629 -1.0052
  393MOL0     H52993  10.756  10.174   5.011 -0.0163  0.6358 -0.1542
  393MOL0     H52994  10.458  10.131   4.985 -0.3370 -0.1474 -0.1174
  393MOL0     H52995  10.567  10.030   4.897 -2.6087 -1.1179  1.4169
  393MOL0     H52996  10.686   9.980   5.095 -0.8543  0.8778 -1.1339
  393MOL0     H52997  10.534  10.031   5.194 -2.6965  1.0037 -1.2527
  393MOL0     H52998  10.407   9.886   5.051 -0.0520 -0.1826 -1.0980
  393MOL0     H52999  10.553   9.801   4.988  4.7669 -1.0644  2.6156
  393MOL0     H53000  10.597   9.812   5.266  0.5806 -0.6033  0.5223
  393MOL0     H53001  10.422   9.792   5.251  1.1693  0.7932 -0.4442
  393MOL0     H53002  10.661   9.651   5.152  0.6420  2.7852 -0.1000
  393MOL0     H53003  10.539   9.585   5.272  1.2363  2.0645  1.0922
  393MOL0     H53004  10.457   9.609   4.989  1.2079 -1.2280 -0.9474
  393MOL0     H53005  10.383   9.525   5.130 -0.8014  2.1323 -1.4555
  393MOL0     H53006  10.656   9.494   4.851  1.1425 -0.5120  1.0374
  393MOL0     H53007  10.879   9.366   4.810 -0.6871  1.5708  1.1445
  393MOL0     H53008  10.900   9.230   4.925 -1.8259  0.5999  1.3825
  393MOL0     H53009  10.745   9.092   4.783 -1.8459  0.8388 -1.9340
  393MOL0     H53010  10.898   9.124   4.704  0.1537 -2.6331  2.1686
  393MOL0     H53011  10.620   9.256   4.666 -0.8562 -2.1027 -0.5172
  393MOL0     H53012  10.702   9.149   4.558 -0.0682  1.7964 -1.4353
  393MOL0     H53013  10.871   9.313   4.512 -0.3831  0.2723 -0.0544
  393MOL0     H53014  10.803   9.437   4.620  0.8389  4.1901 -3.7024
  393MOL0     H53015  10.893   9.595   4.450  1.3610  0.8158  0.2592
  393MOL0     H53016  11.139   9.641   4.220  1.6052  1.1442  0.2790
  393MOL0     H53017  11.038   9.787   4.189  2.8357  1.5224  2.7590
  393MOL0     H53018  11.057   9.724   4.352  2.4955 -0.5453 -0.3580
  393MOL0     H53019  10.953   9.285   3.710  0.0136  0.7363  2.2498
  393MOL0     H53020  11.049   9.287   3.487 -3.0062 -0.8214  2.1512
  393MOL0     H53021  11.188   9.688   3.343 -1.8407 -1.9087  2.0731
  393MOL0     H53022  11.309   9.587   3.382 -1.3397  2.0196  2.6269
  393MOL0     H53023  11.274   9.479   3.138 -0.8092 -0.8154  1.2723
  393MOL0     H53024  11.163   9.606   3.107 -0.2397 -1.7890  0.0481
  393MOL0     H53025  11.448   9.679   3.183  1.2863  2.2582 -0.2451
  393MOL0     H53026  11.325   9.790   3.127 -2.9606  0.4950 -2.3724
  393MOL0     H53027  11.429   9.549   2.954  5.6156  0.6645  3.6313
  393MOL0     H53028  11.309   9.666   2.909  0.6335 -0.3042  1.8126
  393MOL0     H53029  11.588   9.730   3.012 -0.4517  1.3030  1.2911
  393MOL0     H53030  11.498   9.861   2.956  2.8374  0.6139 -1.1984
  393MOL0     H53031  11.572   9.631   2.776 -0.5826 -0.2154  1.2831
  393MOL0     H53032  11.484   9.767   2.716  2.1064 -2.0317 -4.7669
  393MOL0     H53033  11.753   9.782   2.862  0.6069 -1.3722 -0.1353
  393MOL0     H53034  11.686   9.918   2.783 -0.2383 -0.6283  1.0780
  393MOL0     H53035  11.841   9.815   2.596  0.1165 -1.4995 -3.1772
  393MOL0     H53036  11.669   9.791   2.566 -0.8771 -1.1150  0.4156
  393MOL0     H53037  11.028   9.715   3.517 -2.2773  1.0388  1.8663
  393MOL0     H53038  10.939   9.696   3.734 -2.5161 -0.7739 -0.5644
  393MOL0     H53039  10.762   9.406   4.015  0.5779  1.8132 -1.2394
  393MOL0     H53040  10.675   9.302   4.212 -0.4164  0.1234 -2.5263
  393MOL0     H53041  10.547  10.599   5.197 -1.6701 -2.0725  0.2401
  393MOL0     H53042  10.585  10.825   5.132  0.6875 -1.2022  0.7928
  393MOL0     H53043  10.593  11.178   4.538 -3.5398 -0.1898  1.5585
  393MOL0     H53044  10.697  11.383   4.559 -1.7393  1.1931  2.0365
  393MOL0     H53045  10.875  11.535   4.590  1.6973 -0.2658  1.2271
  393MOL0     H53046  10.725  11.612   4.635 -0.0262  1.8565 -0.5623
  393MOL0     H53047  10.848  11.775   4.769 -0.4750  2.9778 -2.5306
  393MOL0     H53048  10.924  11.746   4.603  0.8239 -0.4264 -0.1069
  393MOL0     H53049  11.098  11.623   4.695  0.0703  2.0837  0.0205
  393MOL0     H53050  11.037  11.619   4.866 -1.1219 -0.6634  1.6495
  393MOL0     H53051  11.154  11.814   4.902  0.1302 -2.3019 -0.1963
  393MOL0     H53052  11.036  11.889   4.790  1.5042  1.2201  0.6907
  393MOL0     H53053  11.436  11.890   4.647 -0.1224  1.8197  0.5954
  393MOL0     H53054  10.824  11.322   4.967 -3.3095  3.1208  1.4894
  393MOL0     H53055  10.748  11.078   4.937  1.6116  0.6834 -0.3508
  394MOL0     O53056   9.992   1.834  11.491  0.9754 -0.2557  0.3936
  394MOL0     C53057   9.879   1.883  11.518  0.0213  0.8198  0.2905
  394MOL0     O53058   9.832   2.016  11.485 -0.2959 -0.1521 -0.2008
  394MOL0     C53059   9.920   2.097  11.415  0.0894  0.4379  0.6789
  394MOL0     C53060  10.058   2.096  11.434 -0.0856  1.5081  0.4777
  394MOL0     C53061  10.138   2.193  11.382  0.0219 -0.3276 -0.6895
  394MOL0     C53062  10.081   2.298  11.302 -0.1145 -0.3910 -0.2036
  394MOL0     O53063  10.154   2.412  11.268 -0.0445 -0.7487  0.1693
  394MOL0     C53064  10.274   2.395  11.196 -0.1223  0.0479  1.5210
  394MOL0     C53065  10.389   2.495  11.219  0.2860  0.0835  0.7193
  394MOL0     C53066  10.420   2.486  11.364  0.2071 -0.7232 -0.0987
  394MOL0     C53067  10.494   2.352  11.392  0.3491  0.5017  0.4419
  394MOL0     C53068  10.603   2.368  11.497  0.8473 -0.2177 -0.3591
  394MOL0     C53069  10.675   2.240  11.535 -0.2923 -0.1252  0.1406
  394MOL0     C53070  10.742   2.233  11.672 -0.9910  0.7630 -0.5027
  394MOL0     C53071  10.882   2.296  11.672 -0.5502  0.9628  0.1911
  394MOL0     N53072  10.887   2.441  11.648  0.4376  0.0835  0.0616
  394MOL0     C53073  10.803   2.526  11.719 -0.9270  0.4449 -0.8516
  394MOL0     C53074  10.796   2.642  11.646  0.1357  0.5220  0.0714
  394MOL0     C53075  10.727   2.774  11.678  0.2534 -0.4654 -0.1661
  394MOL0     C53076  10.577   2.764  11.649 -0.9568  0.0901 -0.1400
  394MOL0     C53077  10.508   2.901  11.638  0.2788  0.8544  0.4142
  394MOL0     C53078  10.481   2.962  11.775 -0.5663 -0.1292  0.0446
  394MOL0     O53079  10.594   3.038  11.826 -0.0979  0.2113  0.0048
  394MOL0     C53080  10.627   3.165  11.774  0.8987  0.1601 -0.0617
  394MOL0     C53081  10.762   3.208  11.796  0.5043  0.0644  0.1693
  394MOL0     C53082  10.805   3.329  11.767 -1.3629 -0.7192 -0.6815
  394MOL0     C53083  10.954   3.377  11.797 -0.2517  0.1637  0.7446
  394MOL0     C53084  10.715   3.425  11.704  0.0735  0.1432  0.2305
  394MOL0     C53085  10.743   3.567  11.655 -0.0676 -0.1813 -0.4181
  394MOL0     O53086  10.650   3.626  11.586  0.5542 -0.3500  0.2571
  394MOL0     C53087  10.666   3.745  11.509 -0.2709  0.8882 -0.6576
  394MOL0     C53088  10.573   3.846  11.520  0.3722 -0.0823 -0.2644
  394MOL0     C53089  10.601   3.971  11.463 -0.0296 -0.0144  0.5690
  394MOL0     C53090  10.714   3.990  11.376  0.5319 -0.1698 -0.9583
  394MOL0     O53091  10.728   4.106  11.300  0.1275 -0.0574 -0.8107
  394MOL0     C53092  10.634   4.118  11.200 -0.1603  0.1410  0.4246
  394MOL0     C53093  10.650   4.239  11.100 -0.0888  0.6561 -0.0138
  394MOL0     C53094  10.757   4.214  11.000  0.3737  0.4484 -0.4096
  394MOL0     C53095  10.749   4.313  10.888 -0.2877  1.3539 -0.4964
  394MOL0     C53096  10.861   4.293  10.786  0.1560  0.1134 -0.3032
  394MOL0     C53097  10.833   4.359  10.657  0.0695 -0.0487 -0.2696
  394MOL0     C53098  10.950   4.337  10.559  0.1215  0.0257 -0.2449
  394MOL0     C53099  10.908   4.378  10.425  0.1145  0.6072  0.0222
  394MOL0    Cl53100  10.782   4.267  10.346  0.0622  0.4453 -0.7288
  394MOL0     C53101  10.804   3.884  11.346 -0.7405 -0.2043 -0.9781
  394MOL0     C53102  10.774   3.767  11.416 -0.1431  0.3018 -0.2135
  394MOL0     O53103  10.849   3.623  11.682  0.7142 -0.1636  0.2729
  394MOL0     C53104  10.588   3.377  11.670  0.9861 -0.2392 -0.2149
  394MOL0     C53105  10.545   3.256  11.708 -0.0229  0.5995 -1.0538
  394MOL0     N53106  10.871   2.625  11.527 -0.3752  0.4193  0.4488
  394MOL0     N53107  10.923   2.506  11.530  0.6762 -0.6385  0.5632
  394MOL0     C53108   9.939   2.297  11.284  0.1538 -0.0877 -0.7297
  394MOL0     C53109   9.861   2.203  11.339  0.0343 -0.1452 -0.5193
  394MOL0     C53110   9.783   1.789  11.589 -0.4698 -0.3135 -0.0921
  394MOL0     C53111   9.666   1.844  11.650  0.2039  0.2788 -0.7256
  394MOL0     C53112   9.573   1.765  11.716 -1.1395  0.6114  0.7591
  394MOL0     C53113   9.607   1.624  11.727  0.5327  0.6973  0.8027
  394MOL0     O53114   9.544   1.528  11.798  0.3289 -0.4671 -0.2045
  394MOL0     C53115   9.418   1.566  11.857  0.0089 -0.3167  0.7019
  394MOL0     C53116   9.363   1.459  11.952  0.0667 -0.7650 -0.7900
  394MOL0     C53117   9.217   1.423  11.916  0.6888 -0.5610  0.7176
  394MOL0     C53118   9.189   1.278  11.957 -0.2465  0.7757 -0.2216
  394MOL0     C53119   9.063   1.222  11.913  0.8088 -0.2265  1.2831
  394MOL0     C53120   8.955   1.174  11.883 -0.2271  0.3023  0.5444
  394MOL0     C53121   9.717   1.566  11.671  0.0935 -0.6688  0.4544
  394MOL0     C53122   9.790   1.647  11.588  0.1516  0.1121  0.5166
  394MOL0     H53123  10.114   2.027  11.496  1.1715 -0.6921 -2.8048
  394MOL0     H53124  10.243   2.195  11.413  0.3300  1.1529 -1.7392
  394MOL0     H53125  10.314   2.294  11.206 -2.4934 -0.8120  3.1473
  394MOL0     H53126  10.241   2.392  11.092  3.6136 -0.1953  0.1729
  394MOL0     H53127  10.474   2.469  11.154  1.5920  2.7686  1.2270
  394MOL0     H53128  10.360   2.599  11.201  1.0233  0.7881  3.2340
  394MOL0     H53129  10.497   2.561  11.383 -0.2038  0.0450 -1.3484
  394MOL0     H53130  10.337   2.483  11.434  0.8350 -0.8135  0.6510
  394MOL0     H53131  10.428   2.279  11.441  3.4692 -2.6511  0.3862
  394MOL0     H53132  10.537   2.313  11.300  0.2044  4.4241 -1.4979
  394MOL0     H53133  10.672   2.434  11.444  1.7458 -0.1234  0.8864
  394MOL0     H53134  10.552   2.413  11.582  0.7873 -1.2719  0.1875
  394MOL0     H53135  10.596   2.165  11.539 -0.3769 -0.0733 -0.5312
  394MOL0     H53136  10.741   2.200  11.457  0.6941 -1.0205  1.3770
  394MOL0     H53137  10.672   2.277  11.744 -0.2058  0.9571  0.1547
  394MOL0     H53138  10.763   2.131  11.704 -0.2281  0.9508 -0.3995
  394MOL0     H53139  10.946   2.255  11.593  4.2574  1.7741  3.2321
  394MOL0     H53140  10.941   2.279  11.762  1.9436  2.1839 -1.1142
  394MOL0     H53141  10.739   2.510  11.805 -0.1082  3.8148  0.5368
  394MOL0     H53142  10.746   2.797  11.784  1.2127 -3.8252  0.5222
  394MOL0     H53143  10.788   2.845  11.623 -1.2426  2.0134  1.2045
  394MOL0     H53144  10.524   2.701  11.721  0.5171 -0.8153  0.1749
  394MOL0     H53145  10.568   2.714  11.552 -0.6668 -1.7211  0.7220
  394MOL0     H53146  10.413   2.872  11.593  0.2636 -0.3017  1.1444
  394MOL0     H53147  10.562   2.963  11.565  0.5349 -1.3557 -1.4136
  394MOL0     H53148  10.456   2.877  11.839 -1.9669 -1.7260 -2.4542
  394MOL0     H53149  10.393   3.027  11.774  0.5931  1.6979  2.5801
  394MOL0     H53150  10.831   3.133  11.834  2.3910  2.2754  1.3720
  394MOL0     H53151  10.953   3.446  11.882 -1.3498 -0.0735  0.9417
  394MOL0     H53152  11.019   3.299  11.838  2.7490  0.9034 -2.1305
  394MOL0     H53153  11.005   3.425  11.713 -0.9404 -2.5136 -1.3209
  394MOL0     H53154  10.483   3.828  11.578  0.7627 -0.9848  0.0832
  394MOL0     H53155  10.536   4.058  11.464  2.5611  2.0661  0.3903
  394MOL0     H53156  10.621   4.023  11.147  0.4223 -0.6514  1.6427
  394MOL0     H53157  10.542   4.146  11.251  0.6843  2.1624  0.9397
  394MOL0     H53158  10.553   4.243  11.050  0.9211  0.4247 -2.0913
  394MOL0     H53159  10.672   4.325  11.164  0.4960  0.2274  0.3659
  394MOL0     H53160  10.726   4.123  10.947 -3.1424  0.6745  0.9558
  394MOL0     H53161  10.859   4.210  11.039  0.2935 -1.2339 -0.3191
  394MOL0     H53162  10.656   4.288  10.836 -0.2522  1.0964 -0.4361
  394MOL0     H53163  10.735   4.417  10.921 -0.6753  1.3615 -0.6676
  394MOL0     H53164  10.868   4.184  10.780  0.7010  0.1293  0.0307
  394MOL0     H53165  10.954   4.334  10.827  0.2925 -1.7952  1.5118
  394MOL0     H53166  10.747   4.309  10.611 -0.4458 -0.9704  1.6167
  394MOL0     H53167  10.809   4.463  10.681 -1.3567 -0.6669  1.1904
  394MOL0     H53168  10.996   4.237  10.550 -0.6387 -0.4292  0.7995
  394MOL0     H53169  11.031   4.403  10.591  0.1133 -0.2997  0.4622
  394MOL0     H53170  10.999   4.381  10.365  0.6464  3.7755  0.8083
  394MOL0     H53171  10.863   4.474  10.451 -0.2822 -0.1236  2.2933
  394MOL0     H53172  10.891   3.892  11.282 -0.0971  4.8565  0.1301
  394MOL0     H53173  10.836   3.682  11.390 -1.8278 -0.1394 -3.2445
  394MOL0     H53174  10.510   3.435  11.621  1.2604  1.4899  1.3093
  394MOL0     H53175  10.441   3.225  11.702 -0.4989  0.9608  2.6449
  394MOL0     H53176   9.898   2.378  11.226 -0.8195 -0.4192 -0.5275
  394MOL0     H53177   9.754   2.191  11.323 -0.1172  0.0384  0.3046
  394MOL0     H53178   9.648   1.951  11.640 -0.0806  0.1432 -1.7825
  394MOL0     H53179   9.487   1.812  11.763 -0.3505  0.2558  2.6623
  394MOL0     H53180   9.429   1.663  11.906  0.7726  0.9363 -1.7815
  394MOL0     H53181   9.349   1.568  11.772  1.7407  0.3525 -0.7754
  394MOL0     H53182   9.369   1.485  12.058  0.9483 -1.4317 -0.6574
  394MOL0     H53183   9.428   1.371  11.942 -0.7511 -1.5489  0.4632
  394MOL0     H53184   9.197   1.426  11.808  2.9895 -0.6725  0.2336
  394MOL0     H53185   9.149   1.491  11.969 -1.9526 -1.8959 -0.7220
  394MOL0     H53186   9.174   1.283  12.065  0.1508  3.9909 -0.2288
  394MOL0     H53187   9.269   1.207  11.930  3.1554  3.6810  1.3902
  394MOL0     H53188   8.863   1.126  11.855  1.0157 -1.8367 -0.1603
  394MOL0     H53189   9.741   1.460  11.674  0.0354 -0.7776 -1.4526
  394MOL0     H53190   9.870   1.600  11.531  1.2593  0.4011  1.7757
  395MOL0     O53191   6.019   0.897   0.710  0.0823  0.4253 -0.2811
  395MOL0     C53192   5.961   0.992   0.664  0.0565 -0.3713 -0.3937
  395MOL0     O53193   6.016   1.125   0.672  0.4992  0.2614 -0.3038
  395MOL0     C53194   6.098   1.169   0.772 -1.1924  0.2684 -0.3209
  395MOL0     C53195   6.153   1.299   0.756  0.4078  0.3230  0.2726
  395MOL0     C53196   6.233   1.350   0.853  0.2359 -0.4928  0.2228
  395MOL0     C53197   6.272   1.273   0.967 -0.7768 -0.4679 -0.7728
  395MOL0     O53198   6.353   1.345   1.045 -0.1115  0.5521 -0.1232
  395MOL0     C53199   6.341   1.312   1.183 -0.6248  1.0356  0.4181
  395MOL0     C53200   6.436   1.393   1.263  0.5464 -0.4556  0.8374
  395MOL0     C53201   6.449   1.340   1.402 -1.2795 -0.2878 -1.0364
  395MOL0     C53202   6.514   1.442   1.498 -0.1720 -0.2867  0.2697
  395MOL0     C53203   6.502   1.420   1.655 -0.0857 -0.8227 -0.3085
  395MOL0     C53204   6.370   1.369   1.711  0.2716  0.0210 -0.3756
  395MOL0     C53205   6.355   1.368   1.862 -0.0338 -2.0778 -0.2192
  395MOL0     C53206   6.304   1.503   1.915 -0.2885  0.8039 -0.6256
  395MOL0     N53207   6.179   1.549   1.844  0.0426 -0.2581  0.0312
  395MOL0     C53208   6.047   1.534   1.890  0.7421  0.0145  0.4417
  395MOL0     C53209   5.976   1.613   1.812  0.2132  1.4767 -0.1849
  395MOL0     C53210   5.827   1.618   1.810 -0.3620 -0.2457  0.1698
  395MOL0     C53211   5.768   1.612   1.662  0.3198 -0.0742  1.0073
  395MOL0     C53212   5.632   1.693   1.650 -1.2917 -0.0342  0.1041
  395MOL0     C53213   5.520   1.625   1.726  0.5818  0.2161  0.1315
  395MOL0     O53214   5.543   1.631   1.872 -0.8530  0.4849  0.3252
  395MOL0     C53215   5.449   1.649   1.965  1.7554 -0.1911 -1.1172
  395MOL0     C53216   5.482   1.683   2.099 -0.8457  0.9140  1.0390
  395MOL0     C53217   5.392   1.711   2.196 -0.5936  1.3589 -0.5563
  395MOL0     C53218   5.440   1.791   2.315  0.4978 -0.4578  0.0189
  395MOL0     C53219   5.257   1.692   2.165  0.3899  0.3410  0.2558
  395MOL0     C53220   5.140   1.697   2.271  0.2547 -1.3668  0.3652
  395MOL0     O53221   5.017   1.697   2.210 -0.0703  0.1558  0.1996
  395MOL0     C53222   4.916   1.744   2.291 -0.0139 -0.7181 -0.9956
  395MOL0     C53223   4.873   1.877   2.275  1.2185 -0.7503  0.0057
  395MOL0     C53224   4.785   1.930   2.368  0.0248 -0.3093 -0.8075
  395MOL0     C53225   4.716   1.857   2.459  0.5094 -0.5937  0.5289
  395MOL0     O53226   4.618   1.906   2.557  0.2825  0.5844 -0.0816
  395MOL0     C53227   4.582   2.046   2.544 -0.5363 -0.6482  0.2361
  395MOL0     C53228   4.486   2.081   2.659 -0.3544 -0.5163 -0.2249
  395MOL0     C53229   4.521   2.019   2.798 -0.3316 -0.3154  0.4165
  395MOL0     C53230   4.499   2.122   2.911  0.1918 -0.5748  0.0547
  395MOL0     C53231   4.577   2.069   3.044 -0.2289  0.1438  0.1090
  395MOL0     C53232   4.584   2.180   3.142 -0.3698 -0.7487 -0.4974
  395MOL0     C53233   4.651   2.151   3.282 -0.7141  0.2660  0.4143
  395MOL0     C53234   4.551   2.095   3.384 -0.7024 -0.7148  0.5233
  395MOL0    Cl53235   4.525   1.915   3.345  0.1541  0.4311  0.0764
  395MOL0     C53236   4.746   1.721   2.463  0.0608  0.5763 -0.4553
  395MOL0     C53237   4.851   1.671   2.390  0.1490 -0.4137 -0.7602
  395MOL0     O53238   5.168   1.716   2.390  0.8713 -0.7381 -0.7821
  395MOL0     C53239   5.220   1.651   2.030 -0.0859  1.0363 -0.7348
  395MOL0     C53240   5.315   1.625   1.937  0.5678  1.0139 -0.1604
  395MOL0     N53241   6.062   1.687   1.731  0.2555 -0.3091 -0.0993
  395MOL0     N53242   6.187   1.651   1.758  0.2842  0.1469 -0.5598
  395MOL0     C53243   6.224   1.146   0.981  0.3714 -0.3104 -0.5018
  395MOL0     C53244   6.128   1.102   0.886 -0.0972  0.4753 -0.3945
  395MOL0     C53245   5.821   0.966   0.617  0.0945  0.2024 -1.0684
  395MOL0     C53246   5.745   0.850   0.663 -1.2183  0.3993 -0.6122
  395MOL0     C53247   5.606   0.840   0.626 -0.8956  0.5289 -0.0691
  395MOL0     C53248   5.540   0.951   0.564  0.0824 -0.0668 -0.5751
  395MOL0     O53249   5.405   0.935   0.535 -0.1323  0.3555 -0.0993
  395MOL0     C53250   5.310   1.046   0.500 -0.4182 -0.1957 -0.4086
  395MOL0     C53251   5.289   1.048   0.349  0.1418  0.5177  0.1186
  395MOL0     C53252   5.400   1.003   0.253  0.1547 -0.4338 -0.6282
  395MOL0     C53253   5.368   0.991   0.107 -0.3839  1.4595  0.3418
  395MOL0     C53254   5.245   0.916   0.076 -0.0605 -0.0784 -0.4236
  395MOL0     C53255   5.146   0.856   0.038  1.4193  1.0301  0.0887
  395MOL0     C53256   5.620   1.061   0.524 -0.7233 -0.4707  0.4822
  395MOL0     C53257   5.760   1.060   0.551  0.2303  0.8733  0.7175
  395MOL0     H53258   6.150   1.366   0.671  0.1493  1.1336  0.9120
  395MOL0     H53259   6.278   1.449   0.852  1.1653 -0.8536  2.4335
  395MOL0     H53260   6.238   1.332   1.215 -1.2535  1.6458 -1.8000
  395MOL0     H53261   6.354   1.205   1.201 -0.4199  0.8568 -0.7614
  395MOL0     H53262   6.529   1.396   1.204 -1.6543 -1.2141 -3.0332
  395MOL0     H53263   6.397   1.495   1.266  0.7479 -0.0941 -3.1659
  395MOL0     H53264   6.351   1.310   1.442 -1.5817 -1.3237 -2.4840
  395MOL0     H53265   6.503   1.246   1.393  0.4874  0.2443  2.1827
  395MOL0     H53266   6.618   1.462   1.474 -0.6107  1.8003 -0.0731
  395MOL0     H53267   6.469   1.541   1.486  2.3167  1.0163  1.0542
  395MOL0     H53268   6.579   1.346   1.680  0.7266 -0.0209 -0.3578
  395MOL0     H53269   6.517   1.517   1.703 -1.6982  0.2795 -1.9330
  395MOL0     H53270   6.279   1.416   1.672 -0.6703 -0.1805  1.4816
  395MOL0     H53271   6.365   1.261   1.690  1.1240 -0.3652  1.2448
  395MOL0     H53272   6.279   1.297   1.895 -0.5301 -1.7523 -0.6521
  395MOL0     H53273   6.451   1.354   1.912 -0.4134 -0.0189  1.2632
  395MOL0     H53274   6.378   1.580   1.893  1.1475 -0.9210 -2.1265
  395MOL0     H53275   6.284   1.491   2.022  2.0534  1.3980 -0.0627
  395MOL0     H53276   6.015   1.464   1.966  1.4603 -0.8853 -0.0652
  395MOL0     H53277   5.791   1.543   1.881  1.1097  1.1173  2.5159
  395MOL0     H53278   5.807   1.718   1.849 -2.1823 -1.2428  1.9630
  395MOL0     H53279   5.762   1.512   1.619  0.6160  1.9225 -4.3117
  395MOL0     H53280   5.828   1.677   1.598 -0.6373 -2.4660 -2.5833
  395MOL0     H53281   5.608   1.715   1.546 -1.6532 -1.3126 -0.1035
  395MOL0     H53282   5.646   1.789   1.699 -2.3614  0.1328  0.1168
  395MOL0     H53283   5.506   1.519   1.701  1.5001 -0.5142  2.4409
  395MOL0     H53284   5.428   1.680   1.704  1.4016  1.1838 -1.0489
  395MOL0     H53285   5.590   1.686   2.108 -0.6153  2.5697 -1.4913
  395MOL0     H53286   5.542   1.829   2.313  1.2171 -2.2623 -1.1928
  395MOL0     H53287   5.368   1.871   2.331  1.8513  1.4536 -2.6712
  395MOL0     H53288   5.443   1.720   2.398 -3.4460 -1.3565 -0.3969
  395MOL0     H53289   4.911   1.937   2.193 -0.7195 -0.5358 -0.8021
  395MOL0     H53290   4.769   2.034   2.342  2.7406 -0.1451 -2.1620
  395MOL0     H53291   4.680   2.094   2.548  0.1756 -1.5613 -3.0584
  395MOL0     H53292   4.535   2.068   2.448 -1.7406 -2.7306  0.2827
  395MOL0     H53293   4.475   2.190   2.670 -2.8551 -0.6661 -0.5991
  395MOL0     H53294   4.393   2.029   2.635  0.5446 -2.9294  1.1528
  395MOL0     H53295   4.626   1.987   2.794  0.3964  1.8858  0.6113
  395MOL0     H53296   4.466   1.929   2.826 -0.5258 -1.4752 -3.2696
  395MOL0     H53297   4.532   2.223   2.885 -1.1663  0.2672  1.4190
  395MOL0     H53298   4.393   2.138   2.930  0.8046  1.9957  1.7915
  395MOL0     H53299   4.676   2.032   3.016 -0.0593  2.2107 -2.3312
  395MOL0     H53300   4.534   1.977   3.085 -0.9293  0.1545 -0.5827
  395MOL0     H53301   4.630   2.266   3.093 -0.8061 -0.3409 -0.2067
  395MOL0     H53302   4.477   2.199   3.158 -0.3185  0.0364 -1.0300
  395MOL0     H53303   4.685   2.251   3.311  1.7717 -0.2053 -0.6110
  395MOL0     H53304   4.737   2.085   3.269  0.4490  2.1907 -2.8629
  395MOL0     H53305   4.451   2.139   3.374 -1.0603 -1.7669 -0.9296
  395MOL0     H53306   4.576   2.104   3.490 -3.5009  1.0308  1.1430
  395MOL0     H53307   4.697   1.650   2.529  2.7163 -1.1950 -0.2614
  395MOL0     H53308   4.876   1.566   2.403 -5.1016 -2.0737 -1.5312
  395MOL0     H53309   5.116   1.645   1.998  0.0712  1.2587 -1.2999
  395MOL0     H53310   5.276   1.581   1.845 -0.7568  1.0524  0.3608
  395MOL0     H53311   6.247   1.084   1.068 -1.6521  0.3714  0.5888
  395MOL0     H53312   6.083   1.005   0.905  1.6256 -0.0613  1.2194
  395MOL0     H53313   5.792   0.773   0.723 -1.4455  1.4616  0.9802
  395MOL0     H53314   5.530   0.768   0.653 -2.3375  0.1248 -4.3879
  395MOL0     H53315   5.213   1.027   0.547 -0.4053 -3.4980 -1.4574
  395MOL0     H53316   5.360   1.140   0.527 -0.9246  0.5713 -1.9831
  395MOL0     H53317   5.288   1.150   0.311  1.2410 -0.5610 -3.0954
  395MOL0     H53318   5.189   1.004   0.334 -0.0480  0.0804  2.2324
  395MOL0     H53319   5.429   0.906   0.296  2.2490  0.9221  1.2557
  395MOL0     H53320   5.488   1.066   0.270 -0.5372  0.3216  0.3026
  395MOL0     H53321   5.454   0.941   0.063 -1.0412 -0.4338  1.0926
  395MOL0     H53322   5.361   1.086   0.052 -1.0359 -0.3184 -2.9042
  395MOL0     H53323   5.068   0.800  -0.008 -0.1002  0.5939  2.9544
  395MOL0     H53324   5.579   1.134   0.454  2.8236  0.9577 -0.3164
  395MOL0     H53325   5.801   1.156   0.522 -2.0217  1.4170 -0.9653
  396MOL0     O53326   7.976   1.998   6.490 -0.2574  0.7917 -0.4306
  396MOL0     C53327   7.932   2.103   6.453 -0.6247 -0.4278  0.2801
  396MOL0     O53328   7.987   2.229   6.478  1.0060 -0.5385 -0.0821
  396MOL0     C53329   8.089   2.241   6.566  0.1606  0.3584 -0.3400
  396MOL0     C53330   8.071   2.343   6.664 -0.3956  0.6222  0.1185
  396MOL0     C53331   8.165   2.368   6.757  0.0956 -0.3408  0.1331
  396MOL0     C53332   8.291   2.307   6.745 -0.0826  0.3368 -0.6240
  396MOL0     O53333   8.390   2.358   6.826  0.4065 -0.6280  0.8238
  396MOL0     C53334   8.379   2.295   6.950 -0.0114 -0.0362  0.2765
  396MOL0     C53335   8.426   2.393   7.046 -0.0093  0.5670 -0.1350
  396MOL0     C53336   8.579   2.374   7.079 -0.8922  0.1586  0.7731
  396MOL0     C53337   8.642   2.477   7.180 -0.5746  0.7255  0.4758
  396MOL0     C53338   8.797   2.480   7.156 -0.9870  0.6284 -0.4630
  396MOL0     C53339   8.889   2.558   7.246  0.2316  0.0836 -0.5116
  396MOL0     C53340   8.860   2.706   7.247  0.0064  0.2909  0.2028
  396MOL0     C53341   8.987   2.793   7.265 -0.5555  0.1279  0.2662
  396MOL0     N53342   8.997   2.828   7.409  0.2413 -0.4506 -0.8132
  396MOL0     C53343   8.997   2.731   7.500  0.5503 -1.1447  0.4069
  396MOL0     C53344   8.996   2.804   7.618 -0.2265  0.3825 -0.8931
  396MOL0     C53345   9.009   2.760   7.767 -0.6257 -0.3928 -0.7695
  396MOL0     C53346   8.886   2.779   7.846 -0.3732 -0.7565  0.0249
  396MOL0     C53347   8.780   2.691   7.776 -0.4496 -0.1187 -0.6283
  396MOL0     C53348   8.632   2.734   7.808  0.1876  0.5734  0.3648
  396MOL0     O53349   8.533   2.672   7.716  0.2281  0.7134 -0.1210
  396MOL0     C53350   8.516   2.728   7.593 -0.1865 -0.2772  1.0238
  396MOL0     C53351   8.574   2.839   7.535  0.6452 -0.5739  1.1550
  396MOL0     C53352   8.548   2.869   7.399 -0.4233 -0.3814 -0.3256
  396MOL0     C53353   8.629   2.980   7.346 -0.1893  0.1816  1.2909
  396MOL0     C53354   8.459   2.792   7.317  0.2994 -0.9521  0.2461
  396MOL0     C53355   8.400   2.833   7.181  0.7243  0.5207 -0.9719
  396MOL0     O53356   8.288   2.754   7.144 -0.5880  0.6239  0.3081
  396MOL0     C53357   8.237   2.745   7.019  0.2282 -0.4975  0.1537
  396MOL0     C53358   8.314   2.729   6.894 -0.5044 -1.0557 -1.4569
  396MOL0     C53359   8.237   2.711   6.775  0.3522 -1.1585 -0.9184
  396MOL0     C53360   8.101   2.723   6.760  0.3787  0.0868  0.3035
  396MOL0     O53361   8.037   2.704   6.638  0.6185  0.3353 -0.1014
  396MOL0     C53362   7.893   2.723   6.621  0.4341  0.1329  0.9755
  396MOL0     C53363   7.851   2.675   6.487 -0.6238 -0.5037 -0.4115
  396MOL0     C53364   7.809   2.530   6.460  0.1729 -0.5297 -0.3396
  396MOL0     C53365   7.680   2.497   6.544 -0.8683  0.9227 -1.8783
  396MOL0     C53366   7.653   2.343   6.533 -0.0746  0.0560  0.1498
  396MOL0     C53367   7.542   2.295   6.628  0.4227  0.0368  0.2251
  396MOL0     C53368   7.532   2.141   6.648  0.4100  0.0233 -1.1988
  396MOL0     C53369   7.502   2.105   6.796  0.7870 -0.5272  0.2467
  396MOL0    Cl53370   7.485   1.928   6.805 -0.2042 -0.2849  0.3831
  396MOL0     C53371   8.029   2.740   6.879  0.7365 -0.6669  0.6220
  396MOL0     C53372   8.094   2.763   7.000 -0.0520  0.3705  0.0870
  396MOL0     O53373   8.459   2.914   7.112 -0.1416  0.5953 -0.0487
  396MOL0     C53374   8.398   2.687   7.385 -0.2242  0.4610 -0.2774
  396MOL0     C53375   8.436   2.646   7.507 -0.2178 -0.9066 -1.0383
  396MOL0     N53376   8.982   2.942   7.586 -0.3567 -0.2192  0.4579
  396MOL0     N53377   8.987   2.955   7.458 -0.4618  0.7837 -0.2498
  396MOL0     C53378   8.322   2.212   6.642  0.2654 -0.8137 -0.1835
  396MOL0     C53379   8.212   2.178   6.555 -0.4241  0.2987  0.2852
  396MOL0     C53380   7.815   2.093   6.358  0.8583 -0.5998 -0.4041
  396MOL0     C53381   7.778   2.194   6.262  0.0435  0.5449 -0.9293
  396MOL0     C53382   7.671   2.185   6.174 -0.1787  0.5596 -0.2535
  396MOL0     C53383   7.582   2.074   6.191  0.0069 -0.9654 -0.4255
  396MOL0     O53384   7.459   2.065   6.133 -0.2732 -0.8804 -0.2111
  396MOL0     C53385   7.410   2.165   6.044 -0.7905 -0.3989  0.1743
  396MOL0     C53386   7.371   2.305   6.111 -0.1271  0.2699 -0.5556
  396MOL0     C53387   7.325   2.289   6.256 -0.5948  0.9786 -1.0994
  396MOL0     C53388   7.236   2.405   6.300  0.2522 -0.3785 -0.7649
  396MOL0     C53389   7.109   2.435   6.229 -0.1620 -1.7462  1.2425
  396MOL0     C53390   7.010   2.475   6.174  0.3699  0.2770 -0.5876
  396MOL0     C53391   7.610   1.981   6.285  0.2306  0.0790  0.9583
  396MOL0     C53392   7.724   1.985   6.366  0.0672  0.4639 -0.3333
  396MOL0     H53393   7.985   2.409   6.669 -2.2899 -1.4729 -2.1047
  396MOL0     H53394   8.153   2.445   6.833 -2.3812 -2.0386  1.6208
  396MOL0     H53395   8.276   2.272   6.976 -0.6858 -3.1932 -4.0173
  396MOL0     H53396   8.431   2.199   6.959  0.7836  0.2102 -1.2253
  396MOL0     H53397   8.402   2.492   7.005  1.7786  0.9104 -0.4054
  396MOL0     H53398   8.385   2.367   7.144 -0.1460 -0.5505 -0.4723
  396MOL0     H53399   8.595   2.276   7.124 -1.3689 -0.6713 -0.7861
  396MOL0     H53400   8.633   2.361   6.985  1.4954 -0.2998  2.1435
  396MOL0     H53401   8.599   2.575   7.160 -2.4225 -0.4585 -1.7763
  396MOL0     H53402   8.625   2.444   7.283 -0.9813 -3.1672 -0.6582
  396MOL0     H53403   8.843   2.382   7.169  0.8911  1.8193  4.2981
  396MOL0     H53404   8.814   2.517   7.055 -2.3235  1.5666 -0.3718
  396MOL0     H53405   8.891   2.521   7.350 -1.7361  3.6225  0.9554
  396MOL0     H53406   8.988   2.533   7.208 -0.3619 -3.1405 -0.2197
  396MOL0     H53407   8.798   2.745   7.166  1.0550  3.8475  0.9579
  396MOL0     H53408   8.800   2.722   7.337  1.1979 -1.5823  1.3901
  396MOL0     H53409   8.980   2.882   7.201  0.7703  0.7431  0.9421
  396MOL0     H53410   9.082   2.745   7.241  0.5705  0.2661  3.9020
  396MOL0     H53411   9.017   2.627   7.474 -0.9535 -0.9626 -1.7023
  396MOL0     H53412   9.040   2.655   7.762  2.1930  0.2951  0.4380
  396MOL0     H53413   9.096   2.818   7.798 -1.1292  1.3996 -2.4960
  396MOL0     H53414   8.862   2.885   7.835  0.9967 -0.4396 -0.1532
  396MOL0     H53415   8.896   2.769   7.954  0.7821  0.2453  0.0484
  396MOL0     H53416   8.790   2.586   7.806 -1.6341  0.1323  0.7731
  396MOL0     H53417   8.785   2.696   7.667  0.5722 -1.5301 -0.6723
  396MOL0     H53418   8.617   2.841   7.823 -1.8254  0.3710  0.1190
  396MOL0     H53419   8.607   2.685   7.903  4.1429 -0.8177  0.8693
  396MOL0     H53420   8.645   2.902   7.588  1.5649 -0.3073 -0.3118
  396MOL0     H53421   8.575   3.058   7.292  0.7961  0.6908  1.0058
  396MOL0     H53422   8.708   3.020   7.411  0.4201 -1.1793  1.4346
  396MOL0     H53423   8.692   2.943   7.265  1.1392  0.5103  2.1416
  396MOL0     H53424   8.421   2.734   6.910 -0.5971 -3.4198  0.4820
  396MOL0     H53425   8.293   2.677   6.688  0.2659 -2.1303 -0.6032
  396MOL0     H53426   7.838   2.675   6.703  1.4730  1.5902  2.6197
  396MOL0     H53427   7.879   2.832   6.619  0.1611  0.0876 -0.1395
  396MOL0     H53428   7.762   2.731   6.458 -0.4466  2.6414  3.9838
  396MOL0     H53429   7.931   2.717   6.425  0.2286  2.4559  2.3761
  396MOL0     H53430   7.891   2.464   6.489  0.2807  0.3163  1.4246
  396MOL0     H53431   7.776   2.504   6.359  3.4587  1.7190 -2.1862
  396MOL0     H53432   7.700   2.525   6.647 -2.4578 -1.6007 -0.7903
  396MOL0     H53433   7.587   2.550   6.525 -1.4682 -0.8200 -4.4066
  396MOL0     H53434   7.747   2.289   6.549 -0.7532 -2.5875 -3.6522
  396MOL0     H53435   7.633   2.316   6.429  2.6265  0.1416 -0.4661
  396MOL0     H53436   7.569   2.331   6.727  3.4194  1.5698 -0.9884
  396MOL0     H53437   7.445   2.337   6.601  1.0268  0.0221 -2.2004
  396MOL0     H53438   7.618   2.084   6.612 -0.7883 -2.1501 -0.8142
  396MOL0     H53439   7.444   2.101   6.596  1.2608 -3.1801 -0.4458
  396MOL0     H53440   7.404   2.140   6.830  0.8921  0.5650 -0.5143
  396MOL0     H53441   7.577   2.151   6.862 -2.4737  2.1147  2.4512
  396MOL0     H53442   7.921   2.746   6.890  0.7432  0.9522 -0.0407
  396MOL0     H53443   8.030   2.800   7.079  0.9962  2.1199  0.1777
  396MOL0     H53444   8.331   2.623   7.327  1.1296 -0.3750 -0.9663
  396MOL0     H53445   8.408   2.549   7.546 -1.1500 -0.2381  0.0067
  396MOL0     H53446   8.418   2.162   6.627  0.9132  0.7776 -1.6554
  396MOL0     H53447   8.223   2.114   6.468 -0.2555  0.3358  0.2790
  396MOL0     H53448   7.844   2.280   6.265  0.9882 -0.1270  2.6311
  396MOL0     H53449   7.648   2.267   6.107 -0.8603 -0.4131 -1.2465
  396MOL0     H53450   7.488   2.181   5.968  0.6507  1.8123  1.9908
  396MOL0     H53451   7.319   2.122   6.001 -0.7052 -2.3970  1.9017
  396MOL0     H53452   7.289   2.351   6.055 -1.0403  0.8681  1.2003
  396MOL0     H53453   7.463   2.363   6.101  1.4430 -1.4004  2.6641
  396MOL0     H53454   7.404   2.296   6.331 -1.7907 -1.2153  0.4653
  396MOL0     H53455   7.283   2.193   6.287  0.8122  0.9728  0.9670
  396MOL0     H53456   7.304   2.490   6.314 -2.6893  2.4423 -2.3007
  396MOL0     H53457   7.200   2.386   6.402 -0.8339  0.8900 -0.8921
  396MOL0     H53458   6.921   2.518   6.134 -0.2874 -1.4262 -1.0499
  396MOL0     H53459   7.556   1.887   6.291 -0.0434  0.3083  2.9510
  396MOL0     H53460   7.746   1.900   6.430  4.4621  1.7776  0.1877
  397MOL0     O53461   4.667   1.120   8.757  0.0321 -0.3471  1.0923
  397MOL0     C53462   4.767   1.078   8.696  0.3595 -0.1428  0.4560
  397MOL0     O53463   4.817   0.948   8.696 -0.1085  0.1828 -0.2379
  397MOL0     C53464   4.792   0.855   8.785 -0.3840 -0.3664  0.1028
  397MOL0     C53465   4.663   0.839   8.845 -0.3656  0.2418 -0.3906
  397MOL0     C53466   4.637   0.737   8.927  0.0267  1.0857 -0.0487
  397MOL0     C53467   4.745   0.648   8.958 -0.0633  0.7632 -0.2214
  397MOL0     O53468   4.722   0.546   9.049  0.4390 -0.0936 -0.4549
  397MOL0     C53469   4.820   0.470   9.126  0.2498  0.3606  0.1398
  397MOL0     C53470   4.731   0.343   9.184 -0.5171  0.1099 -0.1878
  397MOL0     C53471   4.809   0.248   9.289 -0.2779  0.2935  1.9395
  397MOL0     C53472   4.746   0.256   9.425 -0.3121  0.5439  1.6895
  397MOL0     C53473   4.812   0.155   9.517 -0.3590  0.0010 -0.6503
  397MOL0     C53474   4.752   0.016   9.497 -0.0106  0.0679 -0.0841
  397MOL0     C53475   4.802  -0.082   9.596 -0.1909  0.0896  0.0432
  397MOL0     C53476   4.779  -0.226   9.545 -0.6605 -0.0618 -0.6543
  397MOL0     N53477   4.640  -0.264   9.531 -0.8267  0.4355 -0.0402
  397MOL0     C53478   4.537  -0.233   9.616 -0.0862  0.1733 -0.1523
  397MOL0     C53479   4.430  -0.310   9.582  0.9351 -0.7113 -0.3897
  397MOL0     C53480   4.289  -0.302   9.645 -0.2611  1.0823  0.6433
  397MOL0     C53481   4.184  -0.351   9.542 -0.6560 -0.0083  0.2895
  397MOL0     C53482   4.160  -0.240   9.436  0.4707  1.2630  0.2808
  397MOL0     C53483   4.041  -0.276   9.356  0.1791  0.1346  0.1307
  397MOL0     O53484   4.014  -0.168   9.265 -0.3505 -0.0788 -0.2558
  397MOL0     C53485   4.054  -0.186   9.134 -0.1386 -0.2966  0.9372
  397MOL0     C53486   4.010  -0.281   9.041 -1.0475  0.7978  0.4394
  397MOL0     C53487   4.078  -0.316   8.920 -0.0408 -0.1279  0.8538
  397MOL0     C53488   4.018  -0.429   8.833 -1.1537  0.3823 -1.7500
  397MOL0     C53489   4.188  -0.226   8.871 -0.3245  0.5822  0.1678
  397MOL0     C53490   4.266  -0.243   8.741 -0.4101  0.3622 -0.0997
  397MOL0     O53491   4.329  -0.141   8.689  0.1109  0.3308 -0.4477
  397MOL0     C53492   4.402  -0.163   8.576 -0.7012  0.5277  0.0942
  397MOL0     C53493   4.534  -0.204   8.595  0.0600 -0.0625 -0.9986
  397MOL0     C53494   4.611  -0.235   8.487  0.9757 -0.3839  0.3385
  397MOL0     C53495   4.562  -0.218   8.354  0.1662  0.3025  1.0748
  397MOL0     O53496   4.648  -0.243   8.241  0.6869 -0.3795 -0.3090
  397MOL0     C53497   4.776  -0.180   8.230 -0.1110 -0.4008 -0.2309
  397MOL0     C53498   4.807  -0.190   8.086  0.1781 -0.1279  0.5322
  397MOL0     C53499   4.819  -0.336   8.033  0.0586 -0.2046 -0.2672
  397MOL0     C53500   4.764  -0.347   7.889  0.3397 -0.4749 -0.0354
  397MOL0     C53501   4.858  -0.264   7.791 -0.0632 -0.2137 -0.1995
  397MOL0     C53502   4.825  -0.298   7.647  0.5798 -0.3962  0.2626
  397MOL0     C53503   4.675  -0.278   7.607  0.3661 -0.8038  1.0965
  397MOL0     C53504   4.662  -0.254   7.454 -0.5940  0.5188 -1.3585
  397MOL0    Cl53505   4.734  -0.101   7.379  0.4441  0.3068 -0.4011
  397MOL0     C53506   4.427  -0.181   8.329 -1.3962 -0.5564  1.0016
  397MOL0     C53507   4.355  -0.153   8.441  0.1901 -0.6246 -0.6543
  397MOL0     O53508   4.262  -0.361   8.687  0.4087 -0.2368 -0.7740
  397MOL0     C53509   4.229  -0.115   8.960 -0.4234  0.1251 -0.0693
  397MOL0     C53510   4.151  -0.102   9.081  0.4763  0.2363  0.0935
  397MOL0     N53511   4.465  -0.379   9.474 -0.5112  0.4957 -0.9257
  397MOL0     N53512   4.589  -0.356   9.444 -0.4446  0.0172 -0.5657
  397MOL0     C53513   4.868   0.663   8.894  0.0130 -1.0715 -0.4350
  397MOL0     C53514   4.894   0.760   8.802 -1.2728 -0.4288 -1.0140
  397MOL0     C53515   4.845   1.182   8.621  0.6550 -0.3168  0.5459
  397MOL0     C53516   4.803   1.319   8.617 -0.0395 -1.0736 -0.2508
  397MOL0     C53517   4.883   1.411   8.554  0.3464 -0.0008  0.7689
  397MOL0     C53518   5.002   1.384   8.486  0.2941  0.4830  0.4530
  397MOL0     O53519   5.070   1.491   8.428 -0.4274 -1.2579  0.7254
  397MOL0     C53520   5.215   1.487   8.443 -0.4407  0.0302  0.3511
  397MOL0     C53521   5.284   1.618   8.420  0.3063  0.3438 -0.2833
  397MOL0     C53522   5.209   1.733   8.503 -0.3844  0.2398  0.9932
  397MOL0     C53523   5.278   1.865   8.510 -0.3024  0.3809 -0.3826
  397MOL0     C53524   5.275   1.931   8.381 -0.1526 -0.5174  0.2677
  397MOL0     C53525   5.267   1.981   8.270  0.3571 -0.4010  0.6711
  397MOL0     C53526   5.041   1.252   8.487 -0.2239  0.4208 -0.3532
  397MOL0     C53527   4.965   1.148   8.553  0.4546 -0.0123  1.0069
  397MOL0     H53528   4.576   0.901   8.830 -0.0270  0.6628 -0.6550
  397MOL0     H53529   4.544   0.728   8.982  0.3807 -0.2143  0.3733
  397MOL0     H53530   4.896   0.437   9.054  1.9608  1.8561  1.1699
  397MOL0     H53531   4.854   0.534   9.208 -0.5959 -0.5930  1.2681
  397MOL0     H53532   4.639   0.379   9.232 -0.9157 -1.4945  0.3186
  397MOL0     H53533   4.706   0.290   9.092 -0.0875 -1.8930  0.8056
  397MOL0     H53534   4.800   0.148   9.246 -0.4397  1.8107 -1.9417
  397MOL0     H53535   4.913   0.279   9.299 -0.6640  0.9418  4.6433
  397MOL0     H53536   4.770   0.354   9.467  3.6205  0.7452 -0.5011
  397MOL0     H53537   4.642   0.227   9.413 -0.2180  0.7896  0.1450
  397MOL0     H53538   4.921   0.148   9.507 -0.1517  2.2979 -0.6285
  397MOL0     H53539   4.798   0.187   9.621 -1.1100 -0.7730 -0.5038
  397MOL0     H53540   4.643   0.023   9.500 -0.2321 -0.9458 -2.6522
  397MOL0     H53541   4.773  -0.028   9.399 -0.0577 -1.8343  0.7123
  397MOL0     H53542   4.910  -0.064   9.609 -0.4536  1.5885  0.3259
  397MOL0     H53543   4.758  -0.069   9.695  0.4250  1.1074  0.1963
  397MOL0     H53544   4.828  -0.291   9.618 -1.1615 -0.5815 -0.7678
  397MOL0     H53545   4.828  -0.245   9.449  0.0806 -0.7937 -0.1480
  397MOL0     H53546   4.533  -0.157   9.693  1.1853 -0.9350  1.0706
  397MOL0     H53547   4.293  -0.374   9.727 -2.1598  2.0242  1.6270
  397MOL0     H53548   4.260  -0.202   9.680 -1.5530 -0.3178  3.9175
  397MOL0     H53549   4.085  -0.375   9.582 -0.6723  0.7797  0.7440
  397MOL0     H53550   4.228  -0.433   9.484 -1.0295  1.3194 -2.0280
  397MOL0     H53551   4.244  -0.225   9.368  2.5317 -3.3655  1.4080
  397MOL0     H53552   4.143  -0.153   9.500 -0.3085  1.3587 -0.0523
  397MOL0     H53553   3.952  -0.280   9.420 -0.6743 -1.1348 -1.0766
  397MOL0     H53554   4.056  -0.367   9.297 -1.0972 -1.1935  1.7401
  397MOL0     H53555   3.918  -0.327   9.075 -0.6693  0.9704  1.7319
  397MOL0     H53556   4.088  -0.513   8.835 -2.5379 -0.7834 -0.0795
  397MOL0     H53557   3.924  -0.458   8.880 -0.4502  0.8789  0.0308
  397MOL0     H53558   4.010  -0.408   8.726  0.7169  0.1231 -1.9835
  397MOL0     H53559   4.561  -0.202   8.700 -3.7231  2.3665  0.1565
  397MOL0     H53560   4.711  -0.276   8.483  2.2126  2.4736 -1.9964
  397MOL0     H53561   4.789  -0.078   8.269 -4.6862  0.0101  0.7598
  397MOL0     H53562   4.844  -0.245   8.287  0.8582  0.8432  0.1023
  397MOL0     H53563   4.734  -0.133   8.027  0.6629  0.0159  0.0574
  397MOL0     H53564   4.905  -0.146   8.066  1.1302 -1.5496  1.8380
  397MOL0     H53565   4.773  -0.408   8.102  3.0472 -1.9412  0.1206
  397MOL0     H53566   4.925  -0.364   8.037  0.2305  0.2350 -1.3372
  397MOL0     H53567   4.740  -0.448   7.854 -0.5837  0.3530 -1.9642
  397MOL0     H53568   4.665  -0.301   7.893  0.5782  0.0012  0.6784
  397MOL0     H53569   4.961  -0.290   7.814 -0.9054 -3.3695  0.4642
  397MOL0     H53570   4.856  -0.155   7.807 -1.9828  0.2836 -2.9491
  397MOL0     H53571   4.878  -0.222   7.589 -1.7894  3.3208  2.4698
  397MOL0     H53572   4.864  -0.398   7.626  0.4390 -0.3427 -0.2577
  397MOL0     H53573   4.616  -0.203   7.661  0.1714 -0.5839  0.5886
  397MOL0     H53574   4.622  -0.371   7.633  1.1798 -1.3333  0.8871
  397MOL0     H53575   4.556  -0.264   7.427 -0.3544 -2.0398 -1.5665
  397MOL0     H53576   4.717  -0.334   7.403 -1.6199 -0.6351 -0.7106
  397MOL0     H53577   4.382  -0.170   8.231 -2.3656  2.7607  1.6664
  397MOL0     H53578   4.252  -0.119   8.434 -0.0565 -1.6141 -2.3166
  397MOL0     H53579   4.314  -0.050   8.945  0.4670 -0.5988  1.5996
  397MOL0     H53580   4.187  -0.013   9.132  1.6075 -0.0400 -0.1947
  397MOL0     H53581   4.950   0.597   8.921 -0.2160 -1.4417 -0.6381
  397MOL0     H53582   4.982   0.777   8.741 -2.0829  0.6593 -1.9302
  397MOL0     H53583   4.711   1.348   8.667 -0.6294  2.0028 -2.7847
  397MOL0     H53584   4.844   1.512   8.552 -1.7612 -0.7953 -0.0113
  397MOL0     H53585   5.238   1.465   8.547 -1.5215 -1.7816  0.2516
  397MOL0     H53586   5.260   1.414   8.375 -0.5700 -0.4572  0.7772
  397MOL0     H53587   5.263   1.637   8.314 -0.7687  1.1502  0.0573
  397MOL0     H53588   5.392   1.612   8.435  0.3511 -2.9877 -1.1256
  397MOL0     H53589   5.206   1.709   8.610 -4.8484 -1.0314  0.7718
  397MOL0     H53590   5.107   1.743   8.466 -0.4818 -2.6550  0.2295
  397MOL0     H53591   5.379   1.863   8.551  0.4887 -0.3627 -2.2553
  397MOL0     H53592   5.229   1.928   8.585  0.2375 -1.3892  1.5534
  397MOL0     H53593   5.265   2.016   8.169  1.6304 -0.2969  0.6710
  397MOL0     H53594   5.138   1.222   8.449  1.2528  2.5972  1.5272
  397MOL0     H53595   4.996   1.044   8.555  0.8100  0.0930  1.1488
  398MOL0     O53596   3.737  11.076   2.566 -0.8964  0.0861 -1.0313
  398MOL0     C53597   3.834  11.082   2.653 -0.1033  0.7224 -0.5265
  398MOL0     O53598   3.918  10.984   2.680  0.5458  0.1860  0.1753
  398MOL0     C53599   3.927  10.870   2.608  0.4583 -0.6542 -0.4538
  398MOL0     C53600   3.984  10.759   2.662 -0.2514  0.0644 -0.3066
  398MOL0     C53601   4.007  10.639   2.597 -0.0569 -0.1577  0.2267
  398MOL0     C53602   3.966  10.630   2.463  0.1847 -0.0312  0.3662
  398MOL0     O53603   3.980  10.518   2.391  0.2192 -0.2797  0.0131
  398MOL0     C53604   4.074  10.516   2.277  0.5730  0.5586  0.3566
  398MOL0     C53605   4.112  10.373   2.255 -0.0471  0.1808 -0.0710
  398MOL0     C53606   4.221  10.309   2.346  0.7670  0.0072  0.9974
  398MOL0     C53607   4.170  10.193   2.437  0.3155 -0.0716  0.4126
  398MOL0     C53608   4.282  10.115   2.504 -0.0734  0.7692  0.2605
  398MOL0     C53609   4.228   9.991   2.579  0.2746  0.8378  0.8892
  398MOL0     C53610   4.332   9.906   2.641  1.3325  0.1286  0.6189
  398MOL0     C53611   4.416   9.975   2.746  0.1001 -0.3026 -0.2120
  398MOL0     N53612   4.499   9.879   2.824  0.2307  0.9102  1.2812
  398MOL0     C53613   4.598   9.799   2.774  0.2069 -0.4079 -0.0120
  398MOL0     C53614   4.638   9.721   2.883 -0.1203 -0.2263 -0.3881
  398MOL0     C53615   4.763   9.629   2.885  0.6954 -0.5609  0.1540
  398MOL0     C53616   4.816   9.625   3.032  0.1513 -0.0175 -0.0225
  398MOL0     C53617   4.865   9.769   3.074 -0.9290 -0.6058  0.5155
  398MOL0     C53618   4.905   9.772   3.220  0.3440  0.6096  0.1517
  398MOL0     O53619   4.913   9.911   3.256 -0.5038  0.1971  0.3809
  398MOL0     C53620   5.025   9.979   3.209 -0.3737 -0.1498 -0.0214
  398MOL0     C53621   5.020  10.122   3.215  0.3158  0.4627 -0.9353
  398MOL0     C53622   5.123  10.207   3.180 -0.2214 -0.5309  0.8095
  398MOL0     C53623   5.099  10.355   3.207 -0.4059 -0.8488  0.3591
  398MOL0     C53624   5.243  10.161   3.115 -0.2969  0.7405  0.3311
  398MOL0     C53625   5.349  10.244   3.051 -0.4744 -0.4429  1.5089
  398MOL0     O53626   5.389  10.362   3.113  0.7602  0.6528  0.4362
  398MOL0     C53627   5.508  10.415   3.066 -0.3992 -0.4877 -1.1521
  398MOL0     C53628   5.501  10.543   3.025 -0.0641 -0.9641 -0.1879
  398MOL0     C53629   5.605  10.617   2.975  0.6074 -0.6155 -0.1289
  398MOL0     C53630   5.728  10.555   2.957  0.1369  0.6273  0.5280
  398MOL0     O53631   5.836  10.624   2.904 -0.1099  0.0674 -0.1688
  398MOL0     C53632   5.817  10.737   2.813 -1.0664 -0.7743  0.1389
  398MOL0     C53633   5.950  10.786   2.760  0.3138 -0.0393 -0.0371
  398MOL0     C53634   5.954  10.833   2.614  0.9925 -0.3078 -0.1284
  398MOL0     C53635   5.827  10.919   2.561 -0.7406  0.8124 -0.0067
  398MOL0     C53636   5.846  10.937   2.408 -0.3532 -0.2793  1.3210
  398MOL0     C53637   5.711  11.000   2.350 -0.1314  0.4958 -0.4149
  398MOL0     C53638   5.745  11.012   2.201 -0.1544 -0.6400  0.2701
  398MOL0     C53639   5.652  11.114   2.127 -0.0235  0.2938 -0.9547
  398MOL0    Cl53640   5.732  11.135   1.965  0.1771 -0.0180 -0.0311
  398MOL0     C53641   5.747  10.427   3.001  0.0177 -0.7166 -0.3870
  398MOL0     C53642   5.637  10.357   3.053 -0.1977  0.6999 -0.5585
  398MOL0     O53643   5.387  10.210   2.933  0.0226 -0.1926 -0.4721
  398MOL0     C53644   5.245  10.020   3.089  0.6862  1.1849 -0.6203
  398MOL0     C53645   5.145   9.937   3.146  0.6417 -0.1138 -0.4345
  398MOL0     N53646   4.560   9.760   2.990  0.4354 -0.2388 -0.2686
  398MOL0     N53647   4.469   9.849   2.953 -0.1940  0.1760  0.2195
  398MOL0     C53648   3.932  10.748   2.391 -0.1464  0.6798 -0.6331
  398MOL0     C53649   3.917  10.868   2.463  0.8268 -0.1762  0.8110
  398MOL0     C53650   3.865  11.210   2.726  0.2328  0.1716  0.1983
  398MOL0     C53651   3.798  11.324   2.695 -0.0093  1.1067  0.0453
  398MOL0     C53652   3.828  11.448   2.747  0.2457  0.7499  0.2192
  398MOL0     C53653   3.923  11.453   2.839  0.5592 -0.5029  0.4622
  398MOL0     O53654   3.981  11.582   2.855  0.3452 -0.3532 -0.2966
  398MOL0     C53655   4.051  11.611   2.969 -0.5628  0.2368 -0.4506
  398MOL0     C53656   4.065  11.765   2.966 -0.2901 -0.7925 -0.2461
  398MOL0     C53657   3.934  11.837   2.950  0.5373  0.2128 -0.0082
  398MOL0     C53658   3.951  11.988   2.961 -0.1352 -1.1529 -0.3019
  398MOL0     C53659   3.807  12.021   2.967 -0.3030  0.4321  0.0114
  398MOL0     C53660   3.689  12.035   2.976  0.6806  0.1302  0.8440
  398MOL0     C53661   3.983  11.338   2.889 -1.0720  0.0145  0.5022
  398MOL0     C53662   3.949  11.215   2.837  0.7925 -0.4389 -0.1041
  398MOL0     H53663   3.998  10.755   2.770  0.7610 -0.6495 -0.4511
  398MOL0     H53664   4.044  10.559   2.661  2.5740  2.4614  2.3067
  398MOL0     H53665   4.043  10.554   2.180  3.1950 -2.8247 -2.0519
  398MOL0     H53666   4.162  10.580   2.289  2.4213 -0.9692 -3.2948
  398MOL0     H53667   4.023  10.310   2.254 -1.1186  1.5911  1.2058
  398MOL0     H53668   4.147  10.354   2.152  1.3786 -0.2631  0.4703
  398MOL0     H53669   4.300  10.274   2.279  0.0325  1.2673 -0.6039
  398MOL0     H53670   4.265  10.387   2.409 -0.9127  0.2592  1.9157
  398MOL0     H53671   4.107  10.232   2.517 -1.9536 -0.7038 -0.9705
  398MOL0     H53672   4.110  10.127   2.373  2.8223 -2.5281  0.3980
  398MOL0     H53673   4.355  10.076   2.433  0.6906  0.1274  1.3647
  398MOL0     H53674   4.341  10.182   2.567  2.3674  2.4065 -3.4201
  398MOL0     H53675   4.156  10.021   2.656 -0.8890 -0.1558  0.2251
  398MOL0     H53676   4.190   9.915   2.510  2.6100 -0.0674  0.4830
  398MOL0     H53677   4.281   9.816   2.677 -1.7075  2.0251  1.3567
  398MOL0     H53678   4.396   9.873   2.558  1.0769  0.8908  0.1093
  398MOL0     H53679   4.346  10.017   2.819  1.0440 -0.2020  0.6533
  398MOL0     H53680   4.484  10.049   2.703 -0.7402  0.8159  0.3391
  398MOL0     H53681   4.645   9.797   2.676  1.8804  4.9961  0.3834
  398MOL0     H53682   4.746   9.529   2.844  0.2940 -1.2761  1.9739
  398MOL0     H53683   4.828   9.679   2.812  0.4165  1.1663  1.0325
  398MOL0     H53684   4.911   9.570   3.029  0.2806  0.1367  0.8331
  398MOL0     H53685   4.750   9.580   3.107 -1.0685  1.2107 -0.3225
  398MOL0     H53686   4.789   9.841   3.043 -2.8403 -2.2459  1.1399
  398MOL0     H53687   4.946   9.808   3.012 -3.4591  1.7240 -1.5756
  398MOL0     H53688   4.987   9.708   3.253 -1.3486 -1.6518  0.2404
  398MOL0     H53689   4.827   9.730   3.284  1.6275  4.4933  4.8534
  398MOL0     H53690   4.926  10.167   3.243  1.5843  1.2920  2.4462
  398MOL0     H53691   5.121  10.417   3.120 -1.0122 -1.4389 -0.2259
  398MOL0     H53692   4.993  10.377   3.215 -0.6363 -2.4784  2.6672
  398MOL0     H53693   5.159  10.381   3.295  0.8030 -1.2572 -0.3209
  398MOL0     H53694   5.402  10.586   3.042 -0.7609 -3.2236  2.2732
  398MOL0     H53695   5.604  10.723   2.951  4.1115  0.1379  2.2434
  398MOL0     H53696   5.756  10.696   2.733 -0.0959  0.0483 -1.0618
  398MOL0     H53697   5.773  10.827   2.856  4.2067  1.3235  1.9784
  398MOL0     H53698   5.991  10.868   2.819 -0.1855 -2.7579  4.5723
  398MOL0     H53699   6.020  10.702   2.764  0.8408  0.3744 -0.4884
  398MOL0     H53700   5.945  10.739   2.560 -0.6722  1.4543 -3.1619
  398MOL0     H53701   6.059  10.860   2.598  2.2520 -3.6374  1.7111
  398MOL0     H53702   5.732  10.866   2.576  0.4179 -3.1137 -4.2862
  398MOL0     H53703   5.824  11.013   2.617 -0.5153  0.3551  0.8019
  398MOL0     H53704   5.863  10.840   2.362 -2.1208 -0.5840  1.2641
  398MOL0     H53705   5.930  11.003   2.383 -0.0045 -0.7752  1.1685
  398MOL0     H53706   5.621  10.939   2.362 -0.1771  0.6085 -0.1673
  398MOL0     H53707   5.704  11.099   2.396  1.3987  0.2461  0.4323
  398MOL0     H53708   5.717  10.912   2.168 -3.7428 -0.2146  1.5683
  398MOL0     H53709   5.849  11.037   2.181 -0.8726  1.5558 -1.0722
  398MOL0     H53710   5.628  11.208   2.177 -2.0429  1.0694 -3.2071
  398MOL0     H53711   5.559  11.059   2.112  1.0743 -1.4965 -1.5768
  398MOL0     H53712   5.843  10.377   3.003 -0.0948 -1.0665 -2.0848
  398MOL0     H53713   5.647  10.252   3.079  0.7224  0.6893 -0.9065
  398MOL0     H53714   5.316   9.968   3.025 -1.2275 -0.2592 -1.7015
  398MOL0     H53715   5.160   9.830   3.142 -0.2611 -0.2181 -1.2842
  398MOL0     H53716   3.893  10.750   2.289 -1.8731 -0.1499 -0.0414
  398MOL0     H53717   3.885  10.960   2.415 -0.5444  0.0772  2.1378
  398MOL0     H53718   3.711  11.310   2.632 -1.0019  0.9523  1.4106
  398MOL0     H53719   3.770  11.535   2.719  0.9409  0.2545 -3.1054
  398MOL0     H53720   3.991  11.572   3.052  0.5446 -0.4201  0.0731
  398MOL0     H53721   4.151  11.566   2.961 -0.0689  1.1379  0.5240
  398MOL0     H53722   4.129  11.801   2.885 -2.3320  3.0628 -0.4234
  398MOL0     H53723   4.112  11.799   3.058  0.9683  1.5281 -1.6457
  398MOL0     H53724   3.871  11.793   3.027 -0.0956  1.5874  0.2877
  398MOL0     H53725   3.889  11.817   2.853 -1.3162  1.2433  0.5820
  398MOL0     H53726   4.000  12.030   2.873 -0.5210  1.3176  0.5847
  398MOL0     H53727   4.004  12.020   3.051 -2.0907 -2.1441  1.3096
  398MOL0     H53728   3.582  12.045   2.982  0.5650 -1.4038  1.6657
  398MOL0     H53729   4.060  11.343   2.966 -1.1872 -0.7338  0.6744
  398MOL0     H53730   4.005  11.129   2.873  2.3659  0.1915 -0.9793
  399MOL0     O53731   1.920   2.033   2.899  0.1555  0.5668 -1.0196
  399MOL0     C53732   1.837   2.047   2.984  0.5036  0.6369 -0.0531
  399MOL0     O53733   1.860   2.082   3.117  0.7846 -0.1569 -0.3180
  399MOL0     C53734   1.966   2.169   3.136 -0.3145 -0.4279 -0.3491
  399MOL0     C53735   1.951   2.299   3.170  0.7689 -0.8412  0.2547
  399MOL0     C53736   2.059   2.385   3.167 -0.1161  0.4186  0.6291
  399MOL0     C53737   2.195   2.332   3.144 -0.1670  1.4067  0.0055
  399MOL0     O53738   2.308   2.409   3.143  0.3292 -0.4957 -1.1901
  399MOL0     C53739   2.290   2.541   3.087 -0.8277 -0.3706 -0.0380
  399MOL0     C53740   2.422   2.571   3.007 -0.5990  0.5227  0.1216
  399MOL0     C53741   2.409   2.712   2.944  0.8637  0.2224 -0.4799
  399MOL0     C53742   2.305   2.726   2.833 -0.6850 -0.4140 -0.4340
  399MOL0     C53743   2.318   2.873   2.791  0.3210  0.3819  0.2756
  399MOL0     C53744   2.203   2.905   2.693 -0.7898  0.6184  0.1768
  399MOL0     C53745   2.067   2.951   2.757  0.1541 -0.0882 -0.2171
  399MOL0     C53746   2.076   3.064   2.865 -1.0208  0.0455 -0.6028
  399MOL0     N53747   1.946   3.119   2.875  0.3300 -0.7747 -0.1398
  399MOL0     C53748   1.887   3.192   2.774 -0.0151 -0.2420 -0.8817
  399MOL0     C53749   1.760   3.203   2.818  0.4404  0.3342 -1.0574
  399MOL0     C53750   1.668   3.284   2.737 -0.6631 -0.0636  0.6538
  399MOL0     C53751   1.590   3.210   2.626  0.3188  0.4901 -0.0899
  399MOL0     C53752   1.451   3.159   2.660  0.0329 -0.3034 -0.1541
  399MOL0     C53753   1.453   3.054   2.775  0.7228  0.5358  0.2311
  399MOL0     O53754   1.333   2.972   2.754 -0.1888 -0.2726 -0.8424
  399MOL0     C53755   1.334   2.870   2.667  0.2004  0.2994  0.0775
  399MOL0     C53756   1.234   2.778   2.667 -0.4195  0.4856  0.5211
  399MOL0     C53757   1.231   2.667   2.579 -0.5149 -0.0248 -0.5385
  399MOL0     C53758   1.112   2.573   2.584  0.7919  0.2266 -0.1681
  399MOL0     C53759   1.341   2.641   2.488  0.7282  0.3211 -0.6612
  399MOL0     C53760   1.352   2.520   2.392  0.2408  0.3566  0.3924
  399MOL0     O53761   1.291   2.395   2.425  0.6983 -0.1798  0.0279
  399MOL0     C53762   1.287   2.304   2.323  0.1885  0.2621  0.0524
  399MOL0     C53763   1.336   2.177   2.349 -0.0034 -0.3861 -0.3788
  399MOL0     C53764   1.345   2.075   2.252 -0.3304 -0.4469  0.2497
  399MOL0     C53765   1.307   2.102   2.114  0.2852 -0.0846 -1.4454
  399MOL0     O53766   1.327   2.004   2.024  1.0468  1.0282  0.2815
  399MOL0     C53767   1.449   1.934   2.036 -0.2599 -0.1317 -0.3011
  399MOL0     C53768   1.496   1.871   1.904  0.2609  0.2381  0.6545
  399MOL0     C53769   1.622   1.794   1.940 -1.5345  1.0919  0.0448
  399MOL0     C53770   1.680   1.763   1.806  0.9405 -0.2471  0.2143
  399MOL0     C53771   1.795   1.663   1.811  0.6678 -0.5802 -1.5525
  399MOL0     C53772   1.904   1.688   1.914 -0.8217 -0.0708 -0.2473
  399MOL0     C53773   1.984   1.825   1.880  0.1130  0.4044  0.1884
  399MOL0     C53774   2.085   1.865   1.989  0.0688 -0.0296  0.3034
  399MOL0    Cl53775   2.000   1.883   2.143  0.4022  0.0731  0.0210
  399MOL0     C53776   1.254   2.230   2.084  0.2999 -0.3264 -0.2824
  399MOL0     C53777   1.252   2.329   2.180 -0.5757 -0.3407 -0.5175
  399MOL0     O53778   1.417   2.549   2.295  0.5659  0.5799 -0.9368
  399MOL0     C53779   1.450   2.732   2.489 -0.0679 -0.5204 -0.2410
  399MOL0     C53780   1.437   2.848   2.575  0.1351  0.1842 -0.3969
  399MOL0     N53781   1.746   3.154   2.946 -0.0780  0.1522 -0.2990
  399MOL0     N53782   1.857   3.096   2.980 -0.3583 -0.5231  0.2606
  399MOL0     C53783   2.208   2.196   3.135  0.5361  0.3808 -0.0161
  399MOL0     C53784   2.090   2.114   3.124 -0.2576 -0.1837 -0.7409
  399MOL0     C53785   1.700   1.999   2.946 -0.3195  0.0489 -1.0674
  399MOL0     C53786   1.675   1.940   2.820 -0.1559 -0.8309  0.2829
  399MOL0     C53787   1.550   1.913   2.778  0.4221 -0.5797 -0.7541
  399MOL0     C53788   1.439   1.940   2.859 -0.8179 -0.3558  0.4607
  399MOL0     O53789   1.311   1.945   2.817  0.5566  0.1845 -0.1079
  399MOL0     C53790   1.294   2.068   2.745 -0.5752 -0.0282 -1.0413
  399MOL0     C53791   1.179   2.075   2.650 -0.3107  0.2255 -0.1064
  399MOL0     C53792   1.046   2.086   2.729  0.0644 -0.5423 -1.3671
  399MOL0     C53793   0.968   2.221   2.757 -0.6743  0.0063 -0.3027
  399MOL0     C53794   1.050   2.310   2.837 -0.1607 -0.4828 -0.3552
  399MOL0     C53795   1.097   2.397   2.912 -0.8341  0.4773 -0.0933
  399MOL0     C53796   1.462   2.006   2.980 -0.5264  0.4368  0.4910
  399MOL0     C53797   1.592   2.034   3.026 -0.6423  1.0080 -0.1142
  399MOL0     H53798   1.849   2.336   3.178 -0.0273 -2.9525  0.4098
  399MOL0     H53799   2.051   2.492   3.175  1.2779  0.4555  1.9462
  399MOL0     H53800   2.198   2.550   3.029 -1.2624 -0.7953  0.5802
  399MOL0     H53801   2.280   2.613   3.169  1.5503  2.1405 -1.7575
  399MOL0     H53802   2.506   2.566   3.076 -3.4091 -0.1792  3.7789
  399MOL0     H53803   2.429   2.498   2.926  1.6246  0.7354  0.0703
  399MOL0     H53804   2.371   2.780   3.021  1.5192 -0.1741  0.2053
  399MOL0     H53805   2.510   2.747   2.922  2.2273 -0.6243  3.5319
  399MOL0     H53806   2.322   2.647   2.759 -0.0548 -2.0124  1.3524
  399MOL0     H53807   2.205   2.708   2.875 -0.1011 -2.0462  0.3220
  399MOL0     H53808   2.305   2.940   2.876 -3.0335  1.3854 -0.8634
  399MOL0     H53809   2.417   2.879   2.745 -0.1045  0.3712 -0.6841
  399MOL0     H53810   2.232   2.986   2.626 -0.5958 -0.5983 -1.2664
  399MOL0     H53811   2.194   2.813   2.635  2.7215  0.2287  0.0543
  399MOL0     H53812   1.996   2.987   2.682  1.7146  3.2352 -0.2850
  399MOL0     H53813   2.014   2.871   2.808  1.9883 -1.0579  0.2744
  399MOL0     H53814   2.146   3.145   2.842 -3.7410  2.9311  0.6605
  399MOL0     H53815   2.116   3.023   2.959  1.7700  1.6274 -0.9761
  399MOL0     H53816   1.941   3.240   2.693  0.0043  0.7678 -0.2886
  399MOL0     H53817   1.597   3.318   2.813 -1.6571 -0.6438 -0.0059
  399MOL0     H53818   1.716   3.371   2.692  0.1787 -0.9921 -0.2860
  399MOL0     H53819   1.649   3.125   2.591 -2.5477 -2.2698  1.2514
  399MOL0     H53820   1.578   3.278   2.542 -1.3065 -1.5304 -1.5973
  399MOL0     H53821   1.411   3.112   2.570 -0.0270 -3.8244  1.5210
  399MOL0     H53822   1.383   3.235   2.700  1.5538  2.0973 -1.8612
  399MOL0     H53823   1.451   3.097   2.875 -1.3425  1.0615  0.0201
  399MOL0     H53824   1.543   2.994   2.763 -0.6560 -1.1718 -2.9721
  399MOL0     H53825   1.148   2.798   2.730 -3.6644 -1.9825 -2.7141
  399MOL0     H53826   1.147   2.477   2.623  0.4821  0.8499  1.7705
  399MOL0     H53827   1.028   2.613   2.641  1.3856  1.4334 -0.1093
  399MOL0     H53828   1.076   2.553   2.483  0.6915 -2.2712  0.2938
  399MOL0     H53829   1.389   2.148   2.439  2.3208  1.5982 -1.0123
  399MOL0     H53830   1.406   1.986   2.269  0.4115  0.3158  1.9028
  399MOL0     H53831   1.527   2.001   2.075 -0.2504  0.1858 -0.8548
  399MOL0     H53832   1.438   1.843   2.096 -0.2497 -1.0524 -1.6570
  399MOL0     H53833   1.417   1.800   1.877 -0.7634  0.2390  3.3313
  399MOL0     H53834   1.505   1.947   1.826 -1.9502 -0.1525 -0.0597
  399MOL0     H53835   1.608   1.704   2.001 -3.6160  0.2974 -1.4713
  399MOL0     H53836   1.694   1.858   1.991 -2.2135  4.4477 -2.8193
  399MOL0     H53837   1.608   1.732   1.729 -0.0378  1.6476  0.3014
  399MOL0     H53838   1.728   1.851   1.761 -0.4816  0.2980 -0.3022
  399MOL0     H53839   1.842   1.670   1.712 -2.3423  0.4520 -3.0162
  399MOL0     H53840   1.753   1.562   1.820 -1.0408  0.2686  1.3593
  399MOL0     H53841   1.852   1.701   2.010 -0.9440 -0.3671 -0.2718
  399MOL0     H53842   1.973   1.604   1.921  0.3864  0.8829 -0.2527
  399MOL0     H53843   1.905   1.898   1.900  0.7993  0.6991  2.0629
  399MOL0     H53844   2.025   1.829   1.779 -1.6288  2.5155 -0.5339
  399MOL0     H53845   2.140   1.958   1.973 -0.4582  0.2851  0.3152
  399MOL0     H53846   2.159   1.784   1.993  1.4455  1.0795 -1.1664
  399MOL0     H53847   1.244   2.256   1.979  1.3760  4.1238  0.5203
  399MOL0     H53848   1.212   2.423   2.143 -0.7944 -1.3911 -3.1862
  399MOL0     H53849   1.540   2.732   2.429 -0.8673 -0.2685 -1.4585
  399MOL0     H53850   1.523   2.913   2.560 -0.0742  0.5833  0.0604
  399MOL0     H53851   2.308   2.157   3.115  1.3779  1.6248  1.5450
  399MOL0     H53852   2.105   2.010   3.098 -1.3771 -1.2105  2.2415
  399MOL0     H53853   1.755   1.908   2.755 -1.4104 -0.5303 -1.4781
  399MOL0     H53854   1.534   1.868   2.681 -1.6749 -1.7381  0.0715
  399MOL0     H53855   1.280   2.144   2.822 -1.9264 -2.8535  1.6854
  399MOL0     H53856   1.382   2.089   2.682  1.9324  1.9659  2.7406
  399MOL0     H53857   1.188   1.980   2.596  2.8121  1.1480 -1.4401
  399MOL0     H53858   1.181   2.164   2.586 -1.1393  1.3252  1.3174
  399MOL0     H53859   1.045   2.027   2.821 -3.1786  3.0879  1.2261
  399MOL0     H53860   0.975   2.035   2.663 -2.7952  1.4643 -0.0966
  399MOL0     H53861   0.875   2.192   2.806 -0.8320 -0.8264 -1.0658
  399MOL0     H53862   0.938   2.252   2.656  1.2401 -0.8683 -1.1993
  399MOL0     H53863   1.150   2.472   2.968  0.5463  0.7835 -1.7477
  399MOL0     H53864   1.378   2.038   3.041 -0.1939  1.7835  0.2729
  399MOL0     H53865   1.610   2.078   3.124 -2.9356  0.4708  0.6128
  400MOL0     O53866   1.351   8.803   1.992 -0.2495  0.3629  0.3480
  400MOL0     C53867   1.317   8.751   1.882 -0.4607 -0.0206  0.3589
  400MOL0     O53868   1.214   8.662   1.868  0.1920  0.0446 -0.4994
  400MOL0     C53869   1.128   8.634   1.973  0.1770  0.5684  0.0570
  400MOL0     C53870   1.065   8.729   2.054  0.5404  0.1413  0.6785
  400MOL0     C53871   0.960   8.699   2.144  0.4082  0.2467  0.8878
  400MOL0     C53872   0.914   8.563   2.149 -0.1775  0.3571  0.7052
  400MOL0     O53873   0.808   8.531   2.231  0.4688  0.4783  0.2109
  400MOL0     C53874   0.817   8.409   2.308 -0.3847  0.2605  0.3288
  400MOL0     C53875   0.766   8.440   2.451 -0.4283 -0.1866  0.1802
  400MOL0     C53876   0.615   8.466   2.459 -0.3451 -0.3970 -0.3372
  400MOL0     C53877   0.584   8.593   2.551  0.4780 -0.4786  0.6315
  400MOL0     C53878   0.654   8.591   2.695  0.7508  0.0052 -0.3290
  400MOL0     C53879   0.600   8.702   2.785  0.6517 -0.7894  0.2843
  400MOL0     C53880   0.642   8.842   2.729  0.1508 -0.4914 -1.1293
  400MOL0     C53881   0.610   8.956   2.821 -0.2130  0.1233  0.0082
  400MOL0     N53882   0.707   8.956   2.935  0.5268  0.1340 -0.1230
  400MOL0     C53883   0.827   9.020   2.944  0.3316 -0.4231  0.1457
  400MOL0     C53884   0.857   9.009   3.070 -0.1297 -0.4582 -0.8411
  400MOL0     C53885   0.972   9.091   3.125  0.8860 -0.2193 -0.1300
  400MOL0     C53886   0.941   9.244   3.125 -1.1046 -0.0762 -0.2365
  400MOL0     C53887   0.807   9.303   3.182 -0.7756 -0.3308  0.6963
  400MOL0     C53888   0.781   9.257   3.321  0.4010  0.3169  1.0773
  400MOL0     O53889   0.872   9.291   3.425 -0.0098 -0.3130 -1.0480
  400MOL0     C53890   0.836   9.272   3.560  0.4823  0.2438  0.2716
  400MOL0     C53891   0.709   9.216   3.595 -0.2924 -0.0828 -0.4869
  400MOL0     C53892   0.669   9.191   3.727  0.4751  0.7475 -0.3576
  400MOL0     C53893   0.530   9.139   3.750 -0.0936  0.2402  0.0311
  400MOL0     C53894   0.772   9.204   3.829  0.1741  0.1696 -0.1107
  400MOL0     C53895   0.751   9.178   3.968 -0.3755  0.6319  0.3989
  400MOL0     O53896   0.634   9.107   4.007  0.3665  0.4872 -0.1532
  400MOL0     C53897   0.616   9.091   4.140  0.0235  0.1189  0.9614
  400MOL0     C53898   0.589   8.964   4.198  0.1638 -0.0022  0.3760
  400MOL0     C53899   0.567   8.947   4.339  0.3557  0.3118 -0.2584
  400MOL0     C53900   0.575   9.058   4.424 -0.0388  0.1262  0.0320
  400MOL0     O53901   0.525   9.048   4.552  0.1195  0.1372  0.0437
  400MOL0     C53902   0.409   9.125   4.565  0.5306 -0.9488 -0.4224
  400MOL0     C53903   0.349   9.094   4.701 -0.7166  0.1384  0.5285
  400MOL0     C53904   0.241   9.194   4.744  0.8227 -0.6179  0.0246
  400MOL0     C53905   0.135   9.126   4.840 -0.6147 -0.6086 -0.1925
  400MOL0     C53906   0.025   9.226   4.857  0.6233 -0.9436  0.1189
  400MOL0     C53907  -0.083   9.165   4.966  0.3294 -0.6888  0.1229
  400MOL0     C53908  -0.213   9.250   4.963  0.7702  0.0312 -0.0983
  400MOL0     C53909  -0.308   9.232   5.088  0.4563 -0.2706  0.3134
  400MOL0    Cl53910  -0.214   9.272   5.236  0.2166 -0.0354  0.3097
  400MOL0     C53911   0.608   9.185   4.364  0.8354 -0.0893 -0.3002
  400MOL0     C53912   0.630   9.199   4.229 -0.3818 -0.9359  0.1218
  400MOL0     O53913   0.837   9.215   4.041  0.2386 -0.7620  0.8122
  400MOL0     C53914   0.898   9.269   3.790  0.2472 -1.2177  0.4538
  400MOL0     C53915   0.924   9.299   3.659 -0.4758  0.4370  0.8068
  400MOL0     N53916   0.761   8.937   3.146  0.3902 -0.0030  0.2064
  400MOL0     N53917   0.661   8.931   3.068  0.3595  0.4644 -0.2461
  400MOL0     C53918   0.989   8.463   2.071 -0.4338 -0.0260  0.3432
  400MOL0     C53919   1.093   8.496   1.986  0.3109 -0.4329  0.0256
  400MOL0     C53920   1.393   8.776   1.760 -0.3138 -0.0327  0.2489
  400MOL0     C53921   1.347   8.732   1.635 -0.2952  0.1885  0.1672
  400MOL0     C53922   1.422   8.742   1.515 -0.9938 -1.0061 -0.0390
  400MOL0     C53923   1.544   8.813   1.519  0.4050  0.6106  0.2997
  400MOL0     O53924   1.607   8.831   1.402  0.1238  1.0269  0.4988
  400MOL0     C53925   1.684   8.948   1.393 -0.1439 -0.4275  1.4477
  400MOL0     C53926   1.758   8.958   1.259  0.2529 -0.5313 -0.3554
  400MOL0     C53927   1.661   8.924   1.146  0.2784  0.2744  0.0770
  400MOL0     C53928   1.692   8.990   1.011  0.3519  0.1895 -0.1295
  400MOL0     C53929   1.587   9.078   0.969  0.8714 -0.1357  0.5905
  400MOL0     C53930   1.489   9.144   0.940  0.7471 -0.5450 -0.9625
  400MOL0     C53931   1.593   8.859   1.643 -0.9770 -0.2109 -0.1845
  400MOL0     C53932   1.518   8.838   1.758 -0.2829 -0.7638 -0.0573
  400MOL0     H53933   1.084   8.834   2.032  1.4358 -0.5947 -2.4601
  400MOL0     H53934   0.908   8.781   2.194 -2.5182  1.2227 -3.1932
  400MOL0     H53935   0.747   8.332   2.275  0.1280  1.0430 -2.8595
  400MOL0     H53936   0.918   8.368   2.303  1.2219  4.0531 -1.3469
  400MOL0     H53937   0.798   8.372   2.530  0.9571  1.7055  1.3306
  400MOL0     H53938   0.816   8.534   2.475 -2.0433  0.5637  0.7270
  400MOL0     H53939   0.579   8.499   2.361 -0.1613  2.2389  0.3806
  400MOL0     H53940   0.566   8.375   2.496  2.2196 -0.9476  2.0346
  400MOL0     H53941   0.614   8.672   2.481 -0.0769 -0.9646 -0.1756
  400MOL0     H53942   0.477   8.611   2.555  0.4494 -0.3328 -0.4378
  400MOL0     H53943   0.622   8.501   2.748 -0.2570 -0.3142 -1.4269
  400MOL0     H53944   0.763   8.588   2.701  0.7814  2.4443  4.0167
  400MOL0     H53945   0.491   8.713   2.789  0.8100  2.0535 -1.1727
  400MOL0     H53946   0.641   8.680   2.884 -1.4089 -0.1001  1.3547
  400MOL0     H53947   0.749   8.852   2.709  0.4865  0.2814  0.8627
  400MOL0     H53948   0.583   8.856   2.637  1.9892  1.8210 -2.0617
  400MOL0     H53949   0.510   8.938   2.863 -0.6810 -0.8207 -1.4242
  400MOL0     H53950   0.610   9.043   2.755 -1.6681 -2.3445 -3.5680
  400MOL0     H53951   0.882   9.069   2.864 -1.3696  3.9497  1.3624
  400MOL0     H53952   1.000   9.054   3.224  0.4172 -1.2382 -0.3662
  400MOL0     H53953   1.065   9.089   3.068  1.5149  2.6986  0.6308
  400MOL0     H53954   0.953   9.285   3.025 -0.7241  0.0762 -0.1280
  400MOL0     H53955   1.025   9.284   3.183 -1.4304  0.0861  0.1295
  400MOL0     H53956   0.733   9.266   3.109  1.3459  0.9724 -2.3428
  400MOL0     H53957   0.804   9.411   3.169  0.1504 -0.3178  0.5112
  400MOL0     H53958   0.769   9.149   3.318 -1.0425  0.4858 -0.2049
  400MOL0     H53959   0.684   9.296   3.355 -1.4631 -0.4661 -2.7690
  400MOL0     H53960   0.629   9.185   3.528  1.2730 -2.2098 -1.4992
  400MOL0     H53961   0.469   9.141   3.660  0.7585 -1.7744 -0.6572
  400MOL0     H53962   0.526   9.033   3.779 -2.6493  0.7198  1.7776
  400MOL0     H53963   0.483   9.188   3.836  0.0173  0.9394 -0.3011
  400MOL0     H53964   0.569   8.887   4.124  0.6657  3.3534 -3.6609
  400MOL0     H53965   0.535   8.850   4.376  0.1481  0.9847  1.3943
  400MOL0     H53966   0.438   9.230   4.557  3.4483 -1.7738 -2.0707
  400MOL0     H53967   0.335   9.106   4.486 -1.1298  1.6956  0.3432
  400MOL0     H53968   0.310   8.992   4.707 -0.6268 -0.2812 -3.4832
  400MOL0     H53969   0.433   9.116   4.767  0.4739 -1.0321 -0.5485
  400MOL0     H53970   0.183   9.223   4.656  0.0466 -1.7409  0.1563
  400MOL0     H53971   0.273   9.283   4.799 -0.0197  1.4043 -2.5524
  400MOL0     H53972   0.099   9.027   4.807  0.1487 -0.9973  0.1343
  400MOL0     H53973   0.189   9.102   4.932  0.2936  1.5282 -0.1235
  400MOL0     H53974  -0.030   9.239   4.764  1.3713 -1.1958 -0.3641
  400MOL0     H53975   0.069   9.316   4.902  1.9287 -3.1074  3.5822
  400MOL0     H53976  -0.112   9.060   4.954 -3.2887  0.1244  0.6068
  400MOL0     H53977  -0.039   9.161   5.066 -0.4692 -2.6328  0.4431
  400MOL0     H53978  -0.271   9.232   4.872  2.8904  0.3501 -1.5805
  400MOL0     H53979  -0.189   9.357   4.966  1.1122 -0.0525  0.3510
  400MOL0     H53980  -0.347   9.130   5.091 -0.5083  0.0518 -0.5422
  400MOL0     H53981  -0.383   9.310   5.073  1.0487 -0.1805 -2.9719
  400MOL0     H53982   0.612   9.274   4.426 -0.4591  0.0915 -0.4544
  400MOL0     H53983   0.638   9.303   4.197  0.4011 -0.9527  0.2587
  400MOL0     H53984   0.971   9.299   3.864 -0.3714 -0.5808  0.8085
  400MOL0     H53985   1.017   9.347   3.630 -0.7273  0.9848  0.8948
  400MOL0     H53986   0.942   8.366   2.069 -1.2811  0.3747  0.4463
  400MOL0     H53987   1.128   8.426   1.911 -0.6700  0.1075 -0.9648
  400MOL0     H53988   1.263   8.665   1.619 -0.4596  0.0244  1.5975
  400MOL0     H53989   1.385   8.713   1.418 -3.3689 -0.7669  0.7218
  400MOL0     H53990   1.620   9.037   1.390  2.9086  1.9832 -2.3944
  400MOL0     H53991   1.756   8.951   1.476  1.4944 -2.5305  0.1899
  400MOL0     H53992   1.846   8.894   1.263  0.5235 -0.1729  3.2854
  400MOL0     H53993   1.793   9.061   1.252 -2.9093  0.7099  0.2746
  400MOL0     H53994   1.559   8.946   1.179  1.1607  0.8657  2.6522
  400MOL0     H53995   1.676   8.817   1.130  0.2513 -0.2332  2.8632
  400MOL0     H53996   1.695   8.910   0.937 -0.1836  0.5834 -0.5815
  400MOL0     H53997   1.781   9.051   1.026 -1.7000  3.6091 -0.7721
  400MOL0     H53998   1.395   9.194   0.928  0.7466  0.7632  2.8823
  400MOL0     H53999   1.689   8.911   1.643  0.2312 -1.9738 -4.6066
  400MOL0     H54000   1.542   8.875   1.857 -2.1464 -0.4091  0.3090
  401MOL0     O54001   6.721   2.176   6.255  0.5408 -0.7774  0.7099
  401MOL0     C54002   6.697   2.060   6.255 -0.0105  0.3798  0.8621
  401MOL0     O54003   6.599   1.997   6.323 -0.9370  0.1985  0.0885
  401MOL0     C54004   6.520   2.081   6.403  0.7685 -0.0964 -0.0701
  401MOL0     C54005   6.384   2.094   6.372  0.1239  0.6116 -0.1966
  401MOL0     C54006   6.297   2.198   6.408 -0.6349 -0.9161  0.8112
  401MOL0     C54007   6.349   2.289   6.505 -0.1461 -0.1768  0.3672
  401MOL0     O54008   6.274   2.389   6.565 -0.1874 -0.3257 -0.6888
  401MOL0     C54009   6.151   2.416   6.502 -0.2340 -0.3383 -0.3002
  401MOL0     C54010   6.077   2.533   6.564  0.4092  0.3582 -0.1126
  401MOL0     C54011   6.182   2.653   6.565 -0.6144 -0.0791  0.0501
  401MOL0     C54012   6.108   2.774   6.621  0.4568 -0.1606  0.3959
  401MOL0     C54013   6.204   2.891   6.623  0.4971 -0.5921 -0.4954
  401MOL0     C54014   6.136   3.024   6.653  0.6170 -0.6018  0.3389
  401MOL0     C54015   6.257   3.126   6.661 -0.3514 -0.1789 -0.2178
  401MOL0     C54016   6.282   3.164   6.803 -0.6522  0.3639 -0.1632
  401MOL0     N54017   6.377   3.275   6.804  0.5181 -0.1942  0.4103
  401MOL0     C54018   6.342   3.408   6.788 -0.1302 -0.1054 -1.1810
  401MOL0     C54019   6.466   3.478   6.783  0.6142  0.1526 -0.0831
  401MOL0     C54020   6.458   3.627   6.779 -0.2491  0.7228  0.8938
  401MOL0     C54021   6.457   3.691   6.927  0.0282 -0.4603  0.9825
  401MOL0     C54022   6.528   3.623   7.052  0.1931  0.0855 -0.6234
  401MOL0     C54023   6.430   3.551   7.141  0.4566 -0.6831 -0.0306
  401MOL0     O54024   6.311   3.635   7.168  0.0273 -1.0777  0.9633
  401MOL0     C54025   6.225   3.585   7.258  0.7447  0.8713  0.2078
  401MOL0     C54026   6.131   3.663   7.331 -0.4977 -0.3415 -0.1991
  401MOL0     C54027   6.032   3.610   7.408 -0.4236  0.0549  0.1899
  401MOL0     C54028   5.924   3.712   7.440  0.1592 -0.4745 -0.1518
  401MOL0     C54029   6.028   3.476   7.442  0.0251 -0.8619 -0.0796
  401MOL0     C54030   5.933   3.415   7.536 -0.0129  0.6971 -0.6447
  401MOL0     O54031   5.913   3.281   7.515  0.1094 -0.0989 -0.0594
  401MOL0     C54032   5.839   3.212   7.606  0.0154 -0.7002 -0.3613
  401MOL0     C54033   5.752   3.113   7.574  1.0440  0.0677 -0.7610
  401MOL0     C54034   5.688   3.021   7.669  1.0778  0.4233  0.4815
  401MOL0     C54035   5.709   3.042   7.803 -0.4631 -1.4880 -0.1621
  401MOL0     O54036   5.654   2.975   7.905  0.3615 -1.0194  0.7937
  401MOL0     C54037   5.729   2.912   7.994 -0.3026  1.3416 -0.6522
  401MOL0     C54038   5.651   2.849   8.102  0.4438 -0.3828 -1.1961
  401MOL0     C54039   5.562   2.734   8.056 -0.5988  0.0706 -0.4644
  401MOL0     C54040   5.506   2.675   8.183  0.0575  0.4839 -0.3791
  401MOL0     C54041   5.407   2.562   8.138  0.0381  0.6900  0.2171
  401MOL0     C54042   5.355   2.463   8.242  0.2036  0.1335  0.0963
  401MOL0     C54043   5.470   2.406   8.334 -0.1368  0.0439  0.5530
  401MOL0     C54044   5.411   2.290   8.424 -0.2797 -0.1027 -0.2110
  401MOL0    Cl54045   5.258   2.320   8.510  0.4101 -0.7358  0.2836
  401MOL0     C54046   5.789   3.152   7.837 -0.2568 -0.3999 -0.1750
  401MOL0     C54047   5.851   3.236   7.747 -0.0484 -0.3680 -0.9129
  401MOL0     O54048   5.877   3.488   7.622 -0.1034  0.1993 -0.0701
  401MOL0     C54049   6.120   3.400   7.380  0.7717  0.2351  0.8464
  401MOL0     C54050   6.213   3.448   7.286 -0.4135  0.7964 -0.5487
  401MOL0     N54051   6.566   3.384   6.794 -0.6195  0.7696 -0.2179
  401MOL0     N54052   6.519   3.270   6.800  0.1541  0.7275 -0.3200
  401MOL0     C54053   6.479   2.276   6.533 -0.3258 -1.7345 -1.1124
  401MOL0     C54054   6.568   2.177   6.494 -0.3694  0.3753  0.8462
  401MOL0     C54055   6.785   1.970   6.182 -0.9480 -0.4500  0.0357
  401MOL0     C54056   6.763   1.834   6.168 -0.4790 -0.5648 -0.9764
  401MOL0     C54057   6.866   1.763   6.105 -0.0407 -1.1645  0.5067
  401MOL0     C54058   6.984   1.814   6.062 -0.4655  0.1417  0.1725
  401MOL0     O54059   7.071   1.715   6.014 -0.5826  0.0312 -0.3152
  401MOL0     C54060   7.206   1.747   6.050 -0.1897  0.3249  0.3770
  401MOL0     C54061   7.268   1.665   6.157 -0.6111 -0.1201 -0.2640
  401MOL0     C54062   7.209   1.685   6.300  0.3587 -0.9208 -0.6543
  401MOL0     C54063   7.260   1.814   6.353  0.5389 -0.1004  0.4234
  401MOL0     C54064   7.160   1.899   6.429 -0.4913 -0.4122 -1.0149
  401MOL0     C54065   7.088   1.978   6.489  0.2987  0.8684 -0.1970
  401MOL0     C54066   7.004   1.954   6.070  0.0458 -0.5085 -0.2267
  401MOL0     C54067   6.900   2.035   6.123  0.9846 -0.0840  0.6806
  401MOL0     H54068   6.343   2.027   6.297 -0.4446  1.9240 -1.0979
  401MOL0     H54069   6.194   2.207   6.378 -0.7026  3.0094  1.5917
  401MOL0     H54070   6.167   2.438   6.396 -3.0880  2.6216 -0.2861
  401MOL0     H54071   6.083   2.332   6.516  0.0441 -0.0828  4.2524
  401MOL0     H54072   5.993   2.553   6.497 -1.3124 -2.5178  1.0296
  401MOL0     H54073   6.044   2.507   6.665 -2.7426  0.4282 -1.0378
  401MOL0     H54074   6.263   2.628   6.634  0.8213  1.1212 -1.1440
  401MOL0     H54075   6.221   2.679   6.466 -0.6400  0.3165  0.1420
  401MOL0     H54076   6.034   2.803   6.546 -0.5143 -0.9901  1.0085
  401MOL0     H54077   6.060   2.762   6.719  2.4509  0.2632  1.4830
  401MOL0     H54078   6.273   2.871   6.706  1.4747  0.7600 -0.9516
  401MOL0     H54079   6.249   2.907   6.525 -0.7783 -1.4688 -1.2568
  401MOL0     H54080   6.069   3.048   6.570  3.8639 -1.6832 -2.9387
  401MOL0     H54081   6.092   3.027   6.753  1.3313 -4.5337  0.9481
  401MOL0     H54082   6.351   3.090   6.619 -0.4181 -0.1746 -0.3725
  401MOL0     H54083   6.232   3.220   6.612  1.4659  2.1541  2.9608
  401MOL0     H54084   6.318   3.072   6.849 -0.0603  1.1313  0.9627
  401MOL0     H54085   6.192   3.205   6.849  0.2026  0.6767  1.2992
  401MOL0     H54086   6.243   3.451   6.802  0.2248  0.7322 -1.1694
  401MOL0     H54087   6.542   3.662   6.717  1.3003  0.3719  2.7028
  401MOL0     H54088   6.381   3.678   6.721  0.9341  1.2804 -0.2451
  401MOL0     H54089   6.350   3.710   6.942 -0.7108  1.4105 -4.5877
  401MOL0     H54090   6.494   3.794   6.926 -0.2547 -0.3423  1.6713
  401MOL0     H54091   6.572   3.708   7.104 -1.1090  0.0830  0.5356
  401MOL0     H54092   6.593   3.544   7.013 -3.5112 -4.4233  1.3207
  401MOL0     H54093   6.481   3.534   7.237 -1.4461 -0.4463  1.0778
  401MOL0     H54094   6.405   3.458   7.090  2.0640  1.2043 -4.7485
  401MOL0     H54095   6.134   3.771   7.316 -1.0623  0.5856  4.5553
  401MOL0     H54096   5.825   3.680   7.407 -0.7028 -0.1018  1.9622
  401MOL0     H54097   5.912   3.711   7.548  0.8376  1.8144 -0.0060
  401MOL0     H54098   5.945   3.812   7.400  1.0166 -1.4704 -2.3680
  401MOL0     H54099   5.729   3.091   7.470  2.7820 -2.9315 -0.6301
  401MOL0     H54100   5.647   2.925   7.638 -1.9373  1.0834  1.9593
  401MOL0     H54101   5.779   2.828   7.944 -0.7472 -0.1761  1.3229
  401MOL0     H54102   5.801   2.977   8.044  0.5257 -0.5990  0.8064
  401MOL0     H54103   5.725   2.812   8.174 -2.2613 -0.2120  1.9286
  401MOL0     H54104   5.585   2.925   8.145  1.2658  0.4920 -1.4445
  401MOL0     H54105   5.615   2.648   8.013 -0.6930 -1.6398  2.5444
  401MOL0     H54106   5.483   2.775   7.992  1.1244 -0.3771 -3.0083
  401MOL0     H54107   5.592   2.640   8.241  1.3106  4.2407  0.3404
  401MOL0     H54108   5.448   2.755   8.231  1.5061  1.1852  0.2439
  401MOL0     H54109   5.455   2.492   8.070 -0.5529  0.1874  0.3038
  401MOL0     H54110   5.322   2.596   8.077 -0.3645 -0.5665  0.0485
  401MOL0     H54111   5.281   2.517   8.302  0.7872  0.5733  0.4317
  401MOL0     H54112   5.309   2.376   8.195  3.5275 -1.9379  0.3149
  401MOL0     H54113   5.498   2.491   8.396 -0.6416  2.2819 -2.0689
  401MOL0     H54114   5.548   2.359   8.273  1.5313  0.6092  2.1598
  401MOL0     H54115   5.486   2.243   8.488 -1.2451 -1.1543  0.1950
  401MOL0     H54116   5.389   2.212   8.351  1.3470 -0.4856 -0.3270
  401MOL0     H54117   5.805   3.181   7.940  4.2894 -0.2788 -0.7142
  401MOL0     H54118   5.910   3.319   7.785  0.9217 -0.5408 -1.9876
  401MOL0     H54119   6.124   3.294   7.400 -0.1173  0.4862  2.6741
  401MOL0     H54120   6.264   3.369   7.233  0.8041 -1.3932  3.4961
  401MOL0     H54121   6.521   2.341   6.609 -0.5469 -0.2753 -2.1908
  401MOL0     H54122   6.672   2.164   6.521  1.4047  1.5367 -4.3187
  401MOL0     H54123   6.682   1.785   6.221  0.8571 -2.4336 -0.5696
  401MOL0     H54124   6.854   1.657   6.087 -0.2266 -1.9501  4.5380
  401MOL0     H54125   7.272   1.735   5.964 -0.3629  5.0429 -0.6753
  401MOL0     H54126   7.217   1.854   6.071 -2.4166  0.3418  1.8530
  401MOL0     H54127   7.376   1.671   6.174 -0.9312  0.4247  1.8003
  401MOL0     H54128   7.252   1.559   6.134 -2.2369  0.1956 -0.7308
  401MOL0     H54129   7.239   1.604   6.367 -0.3250 -1.7425 -1.3113
  401MOL0     H54130   7.101   1.703   6.302  0.7112  1.5377  0.3996
  401MOL0     H54131   7.287   1.879   6.269 -0.2117  2.4609  2.0515
  401MOL0     H54132   7.352   1.804   6.411  0.6515 -1.6738  0.0122
  401MOL0     H54133   7.033   2.060   6.531  2.7878  2.4527  0.1454
  401MOL0     H54134   7.092   2.007   6.035 -0.7939  0.4385 -0.9564
  401MOL0     H54135   6.927   2.140   6.130  0.3010  0.1837 -0.4916
  402MOL0     O54136   5.784   5.459  11.161 -0.3902 -0.2913  0.0964
  402MOL0     C54137   5.700   5.534  11.207  0.4560 -1.2566  0.5532
  402MOL0     O54138   5.579   5.567  11.158 -0.3767 -0.1070  0.3588
  402MOL0     C54139   5.550   5.526  11.024  0.0146  0.1833 -0.7360
  402MOL0     C54140   5.586   5.606  10.918 -0.1411 -0.1588 -0.7817
  402MOL0     C54141   5.547   5.563  10.787 -0.2376  0.7526  0.0248
  402MOL0     C54142   5.481   5.442  10.767 -0.5106  0.1178  0.6046
  402MOL0     O54143   5.446   5.400  10.637  0.1805 -0.2851  0.3197
  402MOL0     C54144   5.309   5.439  10.604  0.6671 -1.1899 -0.1104
  402MOL0     C54145   5.282   5.401  10.456  0.2197  0.7917 -1.3177
  402MOL0     C54146   5.140   5.428  10.443  0.6894 -0.7335 -0.3606
  402MOL0     C54147   5.078   5.373  10.308 -1.1406  0.3634 -0.2093
  402MOL0     C54148   5.100   5.468  10.182  0.3332  0.1936  0.6367
  402MOL0     C54149   5.131   5.404  10.044 -0.3864  0.3853 -0.5719
  402MOL0     C54150   5.038   5.292   9.999  0.0615  0.3459  1.5282
  402MOL0     C54151   5.112   5.180   9.923 -0.3981 -1.4127 -0.1189
  402MOL0     N54152   5.210   5.111  10.000 -0.4367 -0.6913 -0.2249
  402MOL0     C54153   5.193   5.029  10.111 -0.3318 -0.5564  0.1056
  402MOL0     C54154   5.323   4.992  10.133 -0.5485  0.2169  0.0528
  402MOL0     C54155   5.379   4.911  10.248 -1.0473 -0.3506 -0.7733
  402MOL0     C54156   5.408   5.019  10.366 -0.2377  0.1661  0.0547
  402MOL0     C54157   5.446   4.960  10.500  0.2356  0.3866  0.2552
  402MOL0     C54158   5.339   4.878  10.570 -0.0904  1.2002  0.4205
  402MOL0     O54159   5.385   4.820  10.695  0.4091  0.0238 -0.9149
  402MOL0     C54160   5.386   4.918  10.796 -1.0946  1.3807 -0.0500
  402MOL0     C54161   5.269   4.938  10.876 -0.3829 -0.1584  0.6542
  402MOL0     C54162   5.274   4.997  10.999  0.2506 -0.0999  0.2135
  402MOL0     C54163   5.147   5.000  11.073  1.1462 -0.2566  0.1239
  402MOL0     C54164   5.402   5.041  11.049 -0.8184 -0.5707  0.2515
  402MOL0     C54165   5.438   5.079  11.196 -0.2010  0.0697 -0.0215
  402MOL0     O54166   5.575   5.082  11.228 -0.1171 -0.6934 -0.2759
  402MOL0     C54167   5.627   5.109  11.355  0.3030 -0.3620 -0.1998
  402MOL0     C54168   5.565   5.055  11.477  0.4109 -0.6935  0.5289
  402MOL0     C54169   5.634   5.064  11.600  0.2355  0.0878 -0.7138
  402MOL0     C54170   5.752   5.138  11.614  0.2261  0.3523  1.1922
  402MOL0     O54171   5.825   5.143  11.730  0.3486  0.0781 -0.5748
  402MOL0     C54172   5.928   5.249  11.744 -0.5414  0.4317 -0.0487
  402MOL0     C54173   5.987   5.261  11.887 -0.4270 -0.0194  0.2817
  402MOL0     C54174   6.020   5.121  11.952  0.1510 -0.8030  0.5853
  402MOL0     C54175   6.075   5.121  12.096  0.6833  0.0836 -0.0305
  402MOL0     C54176   5.965   5.122  12.208  0.1061 -0.6755 -0.3336
  402MOL0     C54177   6.004   5.123  12.363 -0.7995 -0.3818 -0.0210
  402MOL0     C54178   6.107   5.019  12.392  0.5265  0.5786  0.0532
  402MOL0     C54179   6.127   5.006  12.543  0.9921  0.0862 -0.8945
  402MOL0    Cl54180   6.185   5.181  12.602 -0.2186  0.3296 -0.0478
  402MOL0     C54181   5.802   5.200  11.494  0.2024  0.2362 -0.6783
  402MOL0     C54182   5.742   5.186  11.369 -0.6578 -0.3906  0.8706
  402MOL0     O54183   5.348   5.124  11.266  0.0049 -0.3201 -0.4221
  402MOL0     C54184   5.515   5.030  10.963 -0.1580  0.0324 -0.0988
  402MOL0     C54185   5.510   4.966  10.840 -0.3889 -0.1364  0.8679
  402MOL0     N54186   5.414   5.049  10.047  0.6376 -0.2223 -0.1132
  402MOL0     N54187   5.337   5.107   9.958 -0.8982  0.6463 -0.2588
  402MOL0     C54188   5.454   5.360  10.873 -0.4565 -0.2327  0.3632
  402MOL0     C54189   5.482   5.407  11.006 -0.3575  0.3968 -0.1167
  402MOL0     C54190   5.735   5.590  11.340  0.6899 -0.1361  0.2651
  402MOL0     C54191   5.863   5.595  11.392  0.6202 -0.8305 -0.0886
  402MOL0     C54192   5.889   5.644  11.521 -0.0252 -0.3029 -0.6183
  402MOL0     C54193   5.784   5.675  11.610 -0.6193 -0.1408  0.4760
  402MOL0     O54194   5.808   5.725  11.732 -0.5238  0.7973  0.0370
  402MOL0     C54195   5.880   5.637  11.827 -0.6561 -0.5029 -0.0014
  402MOL0     C54196   5.915   5.722  11.952 -0.1455 -0.7691  0.4884
  402MOL0     C54197   5.975   5.641  12.061 -0.3956  0.0244 -0.8601
  402MOL0     C54198   6.119   5.609  12.025  0.5842 -0.2952  1.0351
  402MOL0     C54199   6.173   5.556  12.149 -0.0575 -0.3924  0.0241
  402MOL0     C54200   6.215   5.520  12.257 -0.4406 -0.2917 -1.1917
  402MOL0     C54201   5.659   5.676  11.556  0.3809 -0.5135 -0.6171
  402MOL0     C54202   5.638   5.627  11.427  0.5464 -0.3002  0.5544
  402MOL0     H54203   5.650   5.693  10.927  1.1450 -1.1581  0.2006
  402MOL0     H54204   5.568   5.627  10.702 -3.7243  0.8238 -0.9272
  402MOL0     H54205   5.243   5.387  10.674 -0.1048  1.0289  0.8896
  402MOL0     H54206   5.306   5.547  10.615 -0.8195 -1.0684 -1.3961
  402MOL0     H54207   5.353   5.461  10.400  2.0751  0.2312  0.3332
  402MOL0     H54208   5.310   5.295  10.450  2.9349  1.4456 -1.2120
  402MOL0     H54209   5.097   5.366  10.522  0.1270 -0.8368 -0.7454
  402MOL0     H54210   5.122   5.533  10.469  1.2226 -1.0341  1.3848
  402MOL0     H54211   5.122   5.276  10.284 -3.1216 -0.4941 -0.5985
  402MOL0     H54212   4.971   5.348  10.304 -0.5848 -2.3317 -0.5058
  402MOL0     H54213   5.014   5.534  10.173  0.8438  0.7996  0.0253
  402MOL0     H54214   5.179   5.541  10.203 -1.4332  2.4867 -0.3046
  402MOL0     H54215   5.142   5.492   9.981 -0.0931  1.1047  0.4539
  402MOL0     H54216   5.230   5.359  10.053 -1.8329 -3.3262 -1.3708
  402MOL0     H54217   4.977   5.248  10.079  1.9959 -2.7302  1.4990
  402MOL0     H54218   4.957   5.333   9.938  0.0003 -1.2463  0.4647
  402MOL0     H54219   5.143   5.238   9.836 -0.1246 -1.0068  0.2473
  402MOL0     H54220   5.040   5.100   9.902 -0.2779 -1.6472  0.3631
  402MOL0     H54221   5.098   5.004  10.155  0.9105 -0.0592  3.3164
  402MOL0     H54222   5.306   4.839  10.288  0.8984 -0.8275  2.2915
  402MOL0     H54223   5.469   4.855  10.221 -1.0991  0.3887 -2.6470
  402MOL0     H54224   5.317   5.078  10.383  0.3363  0.4023  2.5824
  402MOL0     H54225   5.482   5.086  10.321  1.0926 -0.9997  0.4313
  402MOL0     H54226   5.467   5.050  10.558  1.7046  1.4161 -1.7686
  402MOL0     H54227   5.537   4.899  10.501  0.3312  0.4079  3.4082
  402MOL0     H54228   5.310   4.796  10.504  0.8388  0.8589  0.4179
  402MOL0     H54229   5.250   4.938  10.589 -1.1684 -0.0899 -0.4131
  402MOL0     H54230   5.179   4.892  10.837 -1.0575 -0.9615  3.0460
  402MOL0     H54231   5.155   4.959  11.174 -2.0533 -0.3012  0.4825
  402MOL0     H54232   5.125   5.106  11.088  1.2718 -0.0944 -0.7533
  402MOL0     H54233   5.054   4.978  11.019  0.8101 -1.1361  1.0288
  402MOL0     H54234   5.473   4.997  11.475 -0.1249  0.0579  2.2205
  402MOL0     H54235   5.599   5.024  11.694  0.4287  3.3354  0.8871
  402MOL0     H54236   6.018   5.222  11.688 -1.3775 -1.2551 -0.6494
  402MOL0     H54237   5.900   5.348  11.705 -0.1110  0.4365 -0.3447
  402MOL0     H54238   6.084   5.312  11.882  0.7613 -2.1955  0.1206
  402MOL0     H54239   5.921   5.315  11.956 -0.1593 -0.7253  1.1031
  402MOL0     H54240   6.091   5.087  11.876 -0.9626  1.2305 -1.4999
  402MOL0     H54241   5.933   5.054  11.941 -0.4256  0.2611 -2.2655
  402MOL0     H54242   6.121   5.022  12.107 -0.4204 -0.6263 -1.4326
  402MOL0     H54243   6.151   5.197  12.119  4.7242 -3.8027  0.9474
  402MOL0     H54244   5.897   5.038  12.188 -2.5239  0.5549  2.6559
  402MOL0     H54245   5.904   5.209  12.182  0.6197  0.2327  1.3882
  402MOL0     H54246   6.048   5.219  12.393  2.3368 -1.9647  0.8615
  402MOL0     H54247   5.914   5.095  12.419 -0.8966 -0.9142 -0.4266
  402MOL0     H54248   6.208   5.038  12.355  1.8198 -1.2050  2.3867
  402MOL0     H54249   6.078   4.922  12.351  2.2538 -0.7420  1.7806
  402MOL0     H54250   6.202   4.929  12.564  2.9834  1.9381 -0.8585
  402MOL0     H54251   6.031   4.987  12.591  0.6409  2.1759 -0.7002
  402MOL0     H54252   5.888   5.266  11.501  0.2289  0.0362  2.0704
  402MOL0     H54253   5.762   5.247  11.281 -1.9394  1.6188  1.8850
  402MOL0     H54254   5.612   5.065  10.998 -0.0378 -1.5557  1.2845
  402MOL0     H54255   5.594   4.947  10.774 -0.8642  1.0923 -0.1371
  402MOL0     H54256   5.402   5.266  10.861  0.5470 -0.8495  0.8149
  402MOL0     H54257   5.461   5.350  11.096  1.4829 -0.3709 -0.1316
  402MOL0     H54258   5.946   5.578  11.325 -2.7752  1.2432 -5.4588
  402MOL0     H54259   5.991   5.644  11.556 -0.7425 -2.2148  1.7386
  402MOL0     H54260   5.834   5.542  11.854  2.0082 -1.5855  1.0205
  402MOL0     H54261   5.973   5.609  11.779  0.4126  3.2546 -0.4685
  402MOL0     H54262   5.819   5.757  11.992  1.6567  2.7746  2.1476
  402MOL0     H54263   5.982   5.805  11.929  3.5926 -3.6890 -0.3012
  402MOL0     H54264   5.915   5.551  12.074 -0.8502  0.7888  4.0911
  402MOL0     H54265   5.961   5.693  12.156  1.2051  0.7018 -0.9623
  402MOL0     H54266   6.168   5.705  12.005  2.2745 -1.3727 -0.2476
  402MOL0     H54267   6.119   5.539  11.942 -3.0715 -0.9065  1.3491
  402MOL0     H54268   6.235   5.481  12.354  3.1196  0.2271 -1.5555
  402MOL0     H54269   5.580   5.701  11.626  2.1908 -0.5088  1.5303
  402MOL0     H54270   5.535   5.610  11.397  0.2803 -1.4867  2.0436
  403MOL0     O54271   1.408   7.345   7.938  0.3596 -0.0340  0.4817
  403MOL0     C54272   1.335   7.295   8.022  1.0048  0.4151  0.0166
  403MOL0     O54273   1.217   7.340   8.057  0.9739 -0.5728  0.4510
  403MOL0     C54274   1.198   7.478   8.047  0.3624  0.8677 -0.9217
  403MOL0     C54275   1.183   7.548   8.165  0.1041 -0.1167 -0.2867
  403MOL0     C54276   1.132   7.682   8.161 -0.4071  0.4344  1.1947
  403MOL0     C54277   1.110   7.746   8.037 -1.3777 -0.4827  0.3800
  403MOL0     O54278   1.042   7.865   8.013 -0.8850 -0.0695  0.0555
  403MOL0     C54279   0.943   7.913   8.099 -1.1582 -0.5105 -0.5605
  403MOL0     C54280   0.893   8.053   8.059 -1.2236 -0.4777 -0.1306
  403MOL0     C54281   0.839   8.126   8.182 -0.2898 -0.0248  0.1374
  403MOL0     C54282   0.707   8.073   8.237 -0.3701  0.1851  0.8348
  403MOL0     C54283   0.670   8.160   8.361 -0.4744 -0.6670  0.3501
  403MOL0     C54284   0.648   8.308   8.328  0.0265 -0.3198  0.4126
  403MOL0     C54285   0.572   8.384   8.431 -0.1163 -0.2474  0.1715
  403MOL0     C54286   0.536   8.519   8.376  0.1137 -0.3493 -0.7453
  403MOL0     N54287   0.478   8.615   8.465  0.1931  0.0180 -0.0323
  403MOL0     C54288   0.552   8.698   8.539 -0.0029 -1.3582 -0.1863
  403MOL0     C54289   0.472   8.776   8.614 -0.3134  1.0950 -0.3725
  403MOL0     C54290   0.507   8.885   8.712  0.2824 -0.3296 -0.4979
  403MOL0     C54291   0.403   8.886   8.834  0.1975 -1.4561  0.2148
  403MOL0     C54292   0.459   8.982   8.934  0.2478 -0.9748 -0.3561
  403MOL0     C54293   0.459   9.124   8.879 -0.1180 -0.7381 -0.2935
  403MOL0     O54294   0.376   9.189   8.970  0.0745 -0.5033  0.7737
  403MOL0     C54295   0.356   9.327   8.944 -0.0622 -0.8108 -0.3459
  403MOL0     C54296   0.449   9.405   8.879 -0.5624 -1.1529 -0.0637
  403MOL0     C54297   0.429   9.548   8.868 -0.3744  0.0668 -0.0631
  403MOL0     C54298   0.541   9.610   8.800 -0.2641 -1.4538  0.7034
  403MOL0     C54299   0.316   9.611   8.930 -0.6385 -0.1297 -0.3800
  403MOL0     C54300   0.287   9.764   8.919 -0.3070  1.1930 -0.7657
  403MOL0     O54301   0.203   9.807   9.015 -0.7471  0.3573 -0.5766
  403MOL0     C54302   0.175   9.938   9.001  0.1701  0.3478  0.8692
  403MOL0     C54303   0.075   9.993   8.920  0.1712 -0.7782  0.3426
  403MOL0     C54304   0.076  10.138   8.900  1.1207  0.6901 -0.4073
  403MOL0     C54305   0.172  10.217   8.968 -0.1817  0.5652 -0.0479
  403MOL0     O54306   0.152  10.355   8.965  0.2443  0.3031  0.0455
  403MOL0     C54307   0.232  10.429   8.864 -0.1984  0.5112 -0.2101
  403MOL0     C54308   0.192  10.578   8.868 -0.3512  0.5382  0.2187
  403MOL0     C54309   0.275  10.671   8.785 -0.9041 -0.5797  0.7087
  403MOL0     C54310   0.430  10.671   8.826 -0.5152  0.7680 -0.4341
  403MOL0     C54311   0.519  10.769   8.756  1.3397 -0.9371  0.8137
  403MOL0     C54312   0.531  10.734   8.605 -0.4378 -0.2140  0.3830
  403MOL0     C54313   0.616  10.844   8.529  0.2774 -0.7874  0.7666
  403MOL0     C54314   0.537  10.953   8.461 -0.1627 -0.2756 -0.4524
  403MOL0    Cl54315   0.663  11.066   8.394  0.0571  0.2153  0.3292
  403MOL0     C54316   0.266  10.159   9.043 -0.2414  0.2271 -0.6179
  403MOL0     C54317   0.272  10.022   9.059  0.1522 -0.4197 -0.4839
  403MOL0     O54318   0.339   9.831   8.833  0.0689 -0.4521  0.4730
  403MOL0     C54319   0.224   9.523   8.991 -0.9768 -0.8794 -0.1282
  403MOL0     C54320   0.236   9.387   8.993 -1.2742  0.5661 -0.3551
  403MOL0     N54321   0.340   8.725   8.589 -0.0322  0.5543 -0.3954
  403MOL0     N54322   0.341   8.629   8.500 -0.6045 -0.1880 -0.0540
  403MOL0     C54323   1.134   7.676   7.916  0.3661 -0.6640 -0.3358
  403MOL0     C54324   1.168   7.540   7.926 -0.0322 -1.2759 -0.0115
  403MOL0     C54325   1.385   7.163   8.068 -0.3101 -0.2848  0.2609
  403MOL0     C54326   1.516   7.110   8.053  0.2653  0.2380 -0.2906
  403MOL0     C54327   1.532   6.975   8.078 -0.0110  0.0829 -0.4645
  403MOL0     C54328   1.434   6.897   8.152 -0.1703  0.6344 -0.1509
  403MOL0     O54329   1.451   6.764   8.189  0.0238 -0.7422  0.5562
  403MOL0     C54330   1.583   6.718   8.173  0.4942 -0.0719 -0.9678
  403MOL0     C54331   1.590   6.576   8.236  0.2259  0.1208  0.2889
  403MOL0     C54332   1.741   6.525   8.235  0.6027  0.4026 -0.5652
  403MOL0     C54333   1.827   6.531   8.105  0.7695 -0.7204 -0.1122
  403MOL0     C54334   1.768   6.466   7.986  0.5210  1.1619 -0.6448
  403MOL0     C54335   1.746   6.396   7.890 -0.5634 -0.5988 -0.9311
  403MOL0     C54336   1.314   6.963   8.186  0.0887  0.8300 -0.3965
  403MOL0     C54337   1.295   7.095   8.150 -0.2296 -0.5609 -0.2553
  403MOL0     H54338   1.192   7.494   8.259 -0.5207  0.5787  0.1855
  403MOL0     H54339   1.114   7.732   8.256  0.8877 -0.4319  1.9361
  403MOL0     H54340   0.866   7.838   8.121  1.4913 -3.1241  0.4465
  403MOL0     H54341   0.986   7.926   8.199 -2.0873  0.2288 -0.2395
  403MOL0     H54342   0.976   8.110   8.018  0.9837 -0.9083  3.2900
  403MOL0     H54343   0.826   8.041   7.974 -1.3206 -1.1454  0.0315
  403MOL0     H54344   0.909   8.134   8.266 -1.5753 -1.0033  1.3510
  403MOL0     H54345   0.823   8.230   8.153 -2.3889  0.4984  2.7698
  403MOL0     H54346   0.639   8.072   8.151  1.7348  2.1627 -0.9775
  403MOL0     H54347   0.738   7.969   8.251  2.7803  0.6567 -1.5525
  403MOL0     H54348   0.577   8.114   8.398 -3.5709  0.9042 -4.5226
  403MOL0     H54349   0.738   8.149   8.446 -4.1164 -0.3886  3.5764
  403MOL0     H54350   0.742   8.361   8.314 -0.4131  1.0489  2.3502
  403MOL0     H54351   0.590   8.312   8.235 -0.8035 -1.2979  0.8655
  403MOL0     H54352   0.481   8.338   8.469 -0.2657  1.8150  2.5362
  403MOL0     H54353   0.643   8.386   8.514  0.8749  1.4477 -0.6600
  403MOL0     H54354   0.461   8.498   8.300 -0.0044 -2.3228 -0.1342
  403MOL0     H54355   0.615   8.572   8.321 -1.4709  2.9733 -0.0730
  403MOL0     H54356   0.659   8.717   8.545  0.2321 -1.6170 -2.5445
  403MOL0     H54357   0.609   8.872   8.749 -0.0778 -1.6318  0.1125
  403MOL0     H54358   0.502   8.984   8.667 -1.5427 -0.0728  0.1542
  403MOL0     H54359   0.396   8.785   8.876 -0.7217 -1.3846  0.2379
  403MOL0     H54360   0.300   8.914   8.812  0.7024 -0.5591 -1.1426
  403MOL0     H54361   0.564   8.959   8.952  0.2840 -0.6399 -0.1401
  403MOL0     H54362   0.405   8.971   9.028  1.4079  0.6168  0.5374
  403MOL0     H54363   0.428   9.137   8.775  0.8360  1.8065 -0.3112
  403MOL0     H54364   0.563   9.158   8.882 -0.6159  1.7309 -4.0147
  403MOL0     H54365   0.540   9.359   8.843 -1.2747 -3.4465  0.9251
  403MOL0     H54366   0.569   9.705   8.847  1.6663 -0.8713 -1.3860
  403MOL0     H54367   0.634   9.552   8.795  0.3516 -0.5497  1.2881
  403MOL0     H54368   0.515   9.636   8.697 -0.4830  0.7240  1.2620
  403MOL0     H54369   0.004   9.933   8.865  0.1658 -3.2479  2.8235
  403MOL0     H54370  -0.010  10.166   8.840 -0.0068  0.1624  0.9026
  403MOL0     H54371   0.339  10.410   8.875 -0.7063 -1.6558  1.6020
  403MOL0     H54372   0.213  10.391   8.763  0.2204  1.3617 -0.6165
  403MOL0     H54373   0.084  10.577   8.852 -0.5534  1.1940  1.4222
  403MOL0     H54374   0.205  10.613   8.971 -2.3362  0.7623  0.4357
  403MOL0     H54375   0.246  10.775   8.804 -0.9588 -0.6351  0.9330
  403MOL0     H54376   0.257  10.643   8.681 -1.1161  1.6188  0.0977
  403MOL0     H54377   0.446  10.676   8.934 -1.1105 -1.0112 -0.2272
  403MOL0     H54378   0.476  10.575   8.799 -1.6037  0.0584  0.1463
  403MOL0     H54379   0.622  10.779   8.793  0.8811  2.1881  1.5903
  403MOL0     H54380   0.469  10.865   8.775 -0.4738 -1.8385  0.8191
  403MOL0     H54381   0.573  10.635   8.588  0.3883  0.0911  0.6085
  403MOL0     H54382   0.433  10.736   8.557  0.3696 -1.8847 -1.4880
  403MOL0     H54383   0.658  10.798   8.439 -1.3586  0.5927 -0.7680
  403MOL0     H54384   0.697  10.861   8.602 -0.6841 -1.9751  2.1828
  403MOL0     H54385   0.481  11.011   8.535 -2.3579 -3.0210  0.1861
  403MOL0     H54386   0.464  10.909   8.392  0.1067  0.7585 -1.4378
  403MOL0     H54387   0.332  10.208   9.115  0.6601 -2.9833  0.9261
  403MOL0     H54388   0.346   9.975   9.124 -0.6106  1.6601  2.0796
  403MOL0     H54389   0.137   9.566   9.038 -0.9515 -0.1513 -0.7273
  403MOL0     H54390   0.159   9.329   9.043 -0.0041 -0.9716 -0.1285
  403MOL0     H54391   1.097   7.719   7.823 -0.5088 -1.8594 -0.5640
  403MOL0     H54392   1.144   7.479   7.839 -0.9024  0.7672 -1.2567
  403MOL0     H54393   1.583   7.184   8.010 -1.6713 -0.1841 -4.5842
  403MOL0     H54394   1.616   6.931   8.025  2.2210  2.1278  1.1900
  403MOL0     H54395   1.612   6.703   8.069  0.2098  0.3285 -1.1045
  403MOL0     H54396   1.648   6.784   8.231 -1.2003 -1.4585  2.9334
  403MOL0     H54397   1.516   6.513   8.186 -2.7616  2.9458  0.8092
  403MOL0     H54398   1.561   6.590   8.340 -1.4118  1.0555 -0.2479
  403MOL0     H54399   1.730   6.420   8.265 -1.0876 -0.1596 -2.8701
  403MOL0     H54400   1.793   6.586   8.310 -0.5576  2.4262 -1.3130
  403MOL0     H54401   1.925   6.486   8.124  0.7579 -0.0775  1.6016
  403MOL0     H54402   1.844   6.635   8.077  1.2383 -1.4022 -2.6054
  403MOL0     H54403   1.730   6.332   7.805  0.4106  1.9241 -3.1817
  403MOL0     H54404   1.243   6.907   8.247  1.2639  3.5682  3.9808
  403MOL0     H54405   1.194   7.124   8.178  0.5779  0.7393  1.5097
  404MOL0     O54406   4.894   5.970   9.912 -0.5345 -0.0581  0.1888
  404MOL0     C54407   4.819   5.999   9.820 -0.8909 -1.3000 -0.2028
  404MOL0     O54408   4.693   5.950   9.796  0.2491 -0.3559 -0.3864
  404MOL0     C54409   4.607   5.901   9.894 -0.3412  0.2502  0.4555
  404MOL0     C54410   4.613   5.930  10.031 -0.3908 -0.3760 -0.0672
  404MOL0     C54411   4.502   5.896  10.114  0.4943  0.1049 -0.4457
  404MOL0     C54412   4.387   5.839  10.060 -0.4234  0.5740  0.0413
  404MOL0     O54413   4.265   5.821  10.113 -0.4276 -0.5585  0.3025
  404MOL0     C54414   4.226   5.851  10.251 -0.0408 -0.0716 -0.6384
  404MOL0     C54415   4.145   5.971  10.258  0.8455  0.3118 -0.1480
  404MOL0     C54416   4.090   6.020  10.390  0.4346 -0.5940 -0.3899
  404MOL0     C54417   4.039   6.165  10.393  0.9603  0.0588 -0.9214
  404MOL0     C54418   3.945   6.187  10.514  0.4359 -0.2552  0.7260
  404MOL0     C54419   3.912   6.327  10.542  0.4725 -0.6350  0.2189
  404MOL0     C54420   3.809   6.346  10.653  0.0018 -0.2916 -0.8101
  404MOL0     C54421   3.777   6.488  10.694 -0.0290 -0.3269  0.2710
  404MOL0     N54422   3.893   6.552  10.764  0.3983  0.1111  0.0859
  404MOL0     C54423   3.983   6.502  10.851  0.2409 -0.3924 -0.3723
  404MOL0     C54424   4.088   6.597  10.857 -0.3985  0.4967  0.1735
  404MOL0     C54425   4.198   6.586  10.954 -0.4102  0.7214  0.7505
  404MOL0     C54426   4.338   6.580  10.896  0.2276 -0.7927 -0.1591
  404MOL0     C54427   4.353   6.454  10.796  0.1901  0.1638  0.0510
  404MOL0     C54428   4.374   6.320  10.856 -0.4719  0.1446 -0.4465
  404MOL0     O54429   4.453   6.336  10.981 -0.2502 -0.5622 -0.0715
  404MOL0     C54430   4.492   6.221  11.048  0.2058  0.2290 -0.1150
  404MOL0     C54431   4.554   6.253  11.172  0.3396  0.9603  0.2078
  404MOL0     C54432   4.615   6.149  11.243 -0.2475  0.2731 -0.2694
  404MOL0     C54433   4.714   6.202  11.352 -0.2231  0.8350  0.3136
  404MOL0     C54434   4.607   6.013  11.197  0.5349 -0.9665  0.4460
  404MOL0     C54435   4.670   5.915  11.282  0.6841 -0.7367 -0.1375
  404MOL0     O54436   4.712   5.813  11.215  0.2252 -0.5290 -0.3428
  404MOL0     C54437   4.751   5.704  11.296  0.2252  0.6928 -0.8698
  404MOL0     C54438   4.878   5.646  11.295 -0.1366  0.2454 -0.8807
  404MOL0     C54439   4.904   5.525  11.365 -0.0772 -0.2022  0.2304
  404MOL0     C54440   4.798   5.462  11.442  0.7923  0.2160  0.8239
  404MOL0     O54441   4.807   5.337  11.493  0.7364 -0.0703 -0.0557
  404MOL0     C54442   4.893   5.242  11.456 -0.0708 -0.3960  0.3193
  404MOL0     C54443   4.855   5.196  11.317  1.0196 -0.3578  0.5084
  404MOL0     C54444   4.711   5.133  11.307  0.1654  0.5028  0.1484
  404MOL0     C54445   4.677   5.107  11.166  0.0408  0.7575  0.7054
  404MOL0     C54446   4.670   5.221  11.067 -0.7603  0.2920  0.5190
  404MOL0     C54447   4.567   5.329  11.099  0.8120 -0.2805  0.0165
  404MOL0     C54448   4.530   5.412  10.971  0.4440 -0.6158  0.2421
  404MOL0     C54449   4.405   5.514  10.999 -0.4758  0.0172 -0.3114
  404MOL0    Cl54450   4.253   5.427  11.005 -0.2012  0.1897 -0.2926
  404MOL0     C54451   4.678   5.525  11.443 -0.8920 -0.5692  0.5265
  404MOL0     C54452   4.648   5.640  11.366  0.3090 -0.1953 -0.6020
  404MOL0     O54453   4.673   5.920  11.405  0.3801 -0.9912  0.0231
  404MOL0     C54454   4.560   5.983  11.074  0.4546  0.3093 -0.1190
  404MOL0     C54455   4.499   6.085  10.999 -0.0056  0.2631  0.6296
  404MOL0     N54456   4.049   6.703  10.781  0.4294  0.1644  0.7898
  404MOL0     N54457   3.941   6.673  10.726 -0.2082 -0.3774  0.0207
  404MOL0     C54458   4.378   5.807   9.921  0.1444  0.4272 -0.0299
  404MOL0     C54459   4.490   5.843   9.843  0.2720  0.1397  1.0023
  404MOL0     C54460   4.882   6.074   9.715 -0.6636 -0.5882  0.4696
  404MOL0     C54461   4.808   6.147   9.618  0.5001  0.0881 -0.7180
  404MOL0     C54462   4.875   6.230   9.523 -0.2593  0.1404  0.1406
  404MOL0     C54463   5.011   6.216   9.500  0.1281 -0.5571  0.2698
  404MOL0     O54464   5.082   6.256   9.386 -0.3971  0.4747 -0.3488
  404MOL0     C54465   5.141   6.146   9.311  0.3964  0.2049 -0.4727
  404MOL0     C54466   5.218   6.207   9.204 -0.6543 -0.8922  0.7628
  404MOL0     C54467   5.261   6.105   9.091 -0.2974 -0.2054 -0.1335
  404MOL0     C54468   5.234   5.952   9.105  0.3516  0.3344  0.9590
  404MOL0     C54469   5.309   5.887   9.218  0.4244  0.2374 -0.1805
  404MOL0     C54470   5.366   5.843   9.314 -0.5255  0.3094 -0.7643
  404MOL0     C54471   5.088   6.145   9.593  0.7539 -0.2539 -0.5326
  404MOL0     C54472   5.027   6.089   9.706  0.0047 -0.6842  0.6208
  404MOL0     H54473   4.697   5.971  10.086  1.6490 -3.7256 -0.4144
  404MOL0     H54474   4.489   5.909  10.221 -2.0675 -3.0616 -0.1780
  404MOL0     H54475   4.172   5.764  10.290  2.2229 -1.5380 -0.5424
  404MOL0     H54476   4.310   5.860  10.321  0.3315  1.3128 -1.2412
  404MOL0     H54477   4.209   6.045  10.208  1.0260  1.5301  1.7632
  404MOL0     H54478   4.051   5.953  10.205 -0.6027  1.3973  1.8952
  404MOL0     H54479   4.020   5.940  10.415  0.9498 -0.9365 -0.0203
  404MOL0     H54480   4.175   6.015  10.460 -0.2104 -0.5845  0.4052
  404MOL0     H54481   4.129   6.226  10.404  1.3651 -0.3159 -1.9414
  404MOL0     H54482   3.989   6.184  10.297 -1.0784  0.7484  0.2315
  404MOL0     H54483   3.851   6.135  10.491 -0.0327  1.0263 -0.3801
  404MOL0     H54484   4.004   6.134  10.590  0.0466 -1.1990  0.3943
  404MOL0     H54485   4.008   6.372  10.568  0.5684  0.6638 -2.1363
  404MOL0     H54486   3.862   6.368  10.453 -0.8386  0.0864  1.2409
  404MOL0     H54487   3.724   6.294  10.607 -0.6543  0.2982 -0.2946
  404MOL0     H54488   3.829   6.292  10.746  2.0984  3.4082  1.1319
  404MOL0     H54489   3.702   6.472  10.772 -1.7353  2.3063 -0.6938
  404MOL0     H54490   3.749   6.551  10.609  1.5553 -2.2507 -1.7836
  404MOL0     H54491   3.977   6.419  10.921  2.7818 -0.1871  0.1959
  404MOL0     H54492   4.172   6.657  11.032 -0.3633  0.1777  1.2711
  404MOL0     H54493   4.183   6.504  11.024 -0.7359  1.6550  1.7958
  404MOL0     H54494   4.407   6.583  10.980  0.6714 -1.9449 -0.4675
  404MOL0     H54495   4.357   6.672  10.841  2.4587  0.0445  1.8588
  404MOL0     H54496   4.441   6.482  10.738  0.9426  1.1096  1.5922
  404MOL0     H54497   4.267   6.449  10.728 -0.3948  1.6188  0.6297
  404MOL0     H54498   4.432   6.262  10.783 -1.6698  0.3734 -1.6135
  404MOL0     H54499   4.280   6.268  10.878 -0.9481  1.5760  1.0584
  404MOL0     H54500   4.564   6.353  11.212  2.9588  1.3098 -1.0935
  404MOL0     H54501   4.818   6.169  11.349 -0.9762 -1.6365 -0.8995
  404MOL0     H54502   4.727   6.310  11.338 -0.4225  0.5881 -2.0569
  404MOL0     H54503   4.686   6.179  11.456  1.6007 -0.4661  0.5574
  404MOL0     H54504   4.954   5.680  11.225  1.0869 -2.5359 -1.0357
  404MOL0     H54505   4.997   5.469  11.355 -0.0991 -0.1317 -0.4155
  404MOL0     H54506   4.997   5.269  11.475 -0.7652  2.6636  0.2063
  404MOL0     H54507   4.864   5.167  11.531 -1.5045 -1.3476 -1.1017
  404MOL0     H54508   4.851   5.286  11.255 -4.8851 -1.5913 -1.5466
  404MOL0     H54509   4.927   5.122  11.280  2.4735  0.6054  1.2745
  404MOL0     H54510   4.639   5.200  11.356 -1.3302  1.5443 -3.1674
  404MOL0     H54511   4.717   5.040  11.364 -2.4985  2.3111  3.7631
  404MOL0     H54512   4.746   5.027  11.135 -1.8369 -0.0719 -1.5725
  404MOL0     H54513   4.574   5.072  11.177  0.6737 -1.5071  0.0016
  404MOL0     H54514   4.641   5.184  10.968  0.0469  0.8092  0.0823
  404MOL0     H54515   4.769   5.267  11.063 -1.6641  2.3381 -0.0174
  404MOL0     H54516   4.473   5.288  11.137  0.1116  3.0747  2.2591
  404MOL0     H54517   4.615   5.382  11.181  2.4358 -0.0217 -1.0450
  404MOL0     H54518   4.496   5.341  10.894  0.6377 -0.7678  0.2946
  404MOL0     H54519   4.618   5.456  10.923  1.1536 -1.1438  1.0268
  404MOL0     H54520   4.411   5.584  10.914 -2.3905  0.7897  0.1331
  404MOL0     H54521   4.418   5.574  11.089  1.9623 -1.7237  0.5887
  404MOL0     H54522   4.602   5.475  11.503 -0.7619 -0.5932  0.6708
  404MOL0     H54523   4.549   5.685  11.364  0.3704  0.1228  1.4553
  404MOL0     H54524   4.560   5.891  11.015  1.5824  1.4058 -1.9223
  404MOL0     H54525   4.456   6.069  10.901  1.0345 -0.8106  0.3297
  404MOL0     H54526   4.292   5.748   9.892 -0.2689 -1.9058  4.9643
  404MOL0     H54527   4.475   5.820   9.738  1.1237 -2.9806  1.4521
  404MOL0     H54528   4.701   6.132   9.630  0.0434  0.5306 -3.5044
  404MOL0     H54529   4.821   6.301   9.460  1.7775  0.4994 -1.2826
  404MOL0     H54530   5.208   6.086   9.374 -0.1377 -0.3775 -0.4554
  404MOL0     H54531   5.057   6.087   9.274 -0.2876 -0.7096  2.2558
  404MOL0     H54532   5.306   6.256   9.246 -0.8345  0.0276  0.0971
  404MOL0     H54533   5.158   6.290   9.165 -0.4115 -1.3247 -0.5742
  404MOL0     H54534   5.368   6.113   9.068 -0.2907 -0.9802 -0.4084
  404MOL0     H54535   5.205   6.146   9.007 -0.2428  0.7523  0.2849
  404MOL0     H54536   5.256   5.905   9.009  1.0950 -2.7289  2.5028
  404MOL0     H54537   5.127   5.930   9.110 -0.1195  1.4077 -2.3451
  404MOL0     H54538   5.439   5.805   9.383 -0.1981  1.9063 -0.1920
  404MOL0     H54539   5.191   6.164   9.567  0.5700  1.8637  0.1030
  404MOL0     H54540   5.083   6.043   9.787 -0.1175  0.2596  1.2563
  405MOL0     O54541  10.995   4.387   5.584  0.6822  0.1958 -0.5739
  405MOL0     C54542  11.004   4.499   5.635 -0.9014 -0.5028  0.5730
  405MOL0     O54543  11.101   4.598   5.612 -0.5098  0.0788  0.0532
  405MOL0     C54544  11.220   4.579   5.549  0.2585 -0.4648  0.3392
  405MOL0     C54545  11.275   4.695   5.497 -0.6999  0.8713  0.4512
  405MOL0     C54546  11.389   4.684   5.428 -0.6200 -0.1620  0.4643
  405MOL0     C54547  11.465   4.562   5.432 -0.4989 -0.2374 -0.0154
  405MOL0     O54548  11.595   4.574   5.375 -0.5909 -0.7274 -0.6762
  405MOL0     C54549  11.699   4.518   5.456 -0.2230 -0.1782 -0.3668
  405MOL0     C54550  11.834   4.589   5.420 -0.0999 -0.5359 -0.3360
  405MOL0     C54551  11.935   4.518   5.494 -0.0231  0.4092  0.1410
  405MOL0     C54552  12.064   4.599   5.505  0.1736  0.0994 -0.8916
  405MOL0     C54553  12.127   4.619   5.365  0.4814 -0.9430  1.0991
  405MOL0     C54554  12.254   4.694   5.364  0.0524  0.0080 -0.5710
  405MOL0     C54555  12.312   4.712   5.225 -0.4247 -0.0727  0.5762
  405MOL0     C54556  12.441   4.797   5.240  0.0888 -0.3939 -0.5504
  405MOL0     N54557  12.510   4.825   5.110 -0.2744 -0.3384 -0.3816
  405MOL0     C54558  12.459   4.898   5.011  0.3333  0.6116 -0.5986
  405MOL0     C54559  12.556   4.915   4.929  0.4331 -0.1551  0.1344
  405MOL0     C54560  12.574   5.013   4.820  0.0518 -0.9826  1.2107
  405MOL0     C54561  12.548   4.946   4.687 -0.0192 -0.4800  0.9925
  405MOL0     C54562  12.603   5.013   4.563 -0.2474  0.0070  0.6580
  405MOL0     C54563  12.518   5.129   4.510  0.0100 -0.5786  1.1591
  405MOL0     O54564  12.529   5.238   4.602  0.0834  0.4551 -0.3990
  405MOL0     C54565  12.450   5.343   4.558  0.1757  0.3104 -0.3357
  405MOL0     C54566  12.329   5.354   4.624  0.7035  0.6153 -0.3237
  405MOL0     C54567  12.234   5.460   4.597  0.6706 -0.7127  0.1108
  405MOL0     C54568  12.095   5.477   4.657 -0.4539  0.6958 -0.3367
  405MOL0     C54569  12.274   5.559   4.501 -0.4209  0.5774  0.2909
  405MOL0     C54570  12.188   5.678   4.463  0.4631 -0.0044 -0.6531
  405MOL0     O54571  12.250   5.791   4.501 -0.0957 -0.5795 -0.2403
  405MOL0     C54572  12.189   5.915   4.488 -0.7489  0.0834 -0.2039
  405MOL0     C54573  12.072   5.955   4.546  0.6434  0.3753 -0.0590
  405MOL0     C54574  12.045   6.092   4.546  0.1284  0.2517 -0.2130
  405MOL0     C54575  12.125   6.191   4.489  0.0134  0.3973  0.0727
  405MOL0     O54576  12.092   6.321   4.506 -0.7985  0.1585  0.5673
  405MOL0     C54577  12.101   6.372   4.640 -0.5756  0.2169 -0.1901
  405MOL0     C54578  12.016   6.498   4.651 -0.1653 -0.1136 -0.0288
  405MOL0     C54579  12.075   6.613   4.560 -0.1054 -0.6730 -0.8530
  405MOL0     C54580  12.004   6.744   4.560 -0.3015  0.2643  0.2452
  405MOL0     C54581  11.881   6.769   4.469  0.7632 -0.1193  0.2099
  405MOL0     C54582  11.768   6.848   4.546  0.2706  0.4872  0.8445
  405MOL0     C54583  11.672   6.917   4.459  0.0195 -0.1245 -0.8585
  405MOL0     C54584  11.534   6.855   4.447 -0.9827  0.0262  0.5293
  405MOL0    Cl54585  11.446   6.839   4.618  0.0304 -0.2739  0.1338
  405MOL0     C54586  12.237   6.146   4.422  0.3997  0.2217  0.3248
  405MOL0     C54587  12.269   6.008   4.418  1.3465 -0.1347  0.3885
  405MOL0     O54588  12.079   5.655   4.396 -1.0095 -0.3928  0.4506
  405MOL0     C54589  12.399   5.543   4.430  0.8116 -0.5415  0.0494
  405MOL0     C54590  12.490   5.442   4.464  0.7107 -0.1776  0.3065
  405MOL0     N54591  12.671   4.857   4.983 -0.0875  0.0298 -0.2678
  405MOL0     N54592  12.638   4.794   5.091 -1.0036  0.0561 -0.2795
  405MOL0     C54593  11.409   4.441   5.480 -0.3943  0.0192 -0.3297
  405MOL0     C54594  11.283   4.451   5.543 -0.0522  1.1563 -0.8269
  405MOL0     C54595  10.881   4.546   5.712 -0.2926  0.9705  0.0032
  405MOL0     C54596  10.762   4.459   5.706  0.2686  0.7746  0.1835
  405MOL0     C54597  10.652   4.496   5.785 -0.3548 -0.0931  0.0325
  405MOL0     C54598  10.637   4.623   5.842 -0.5897  0.0956  0.4836
  405MOL0     O54599  10.519   4.665   5.898  0.0107  0.6809 -0.2102
  405MOL0     C54600  10.430   4.553   5.940 -1.0040 -0.2299 -0.5718
  405MOL0     C54601  10.314   4.621   6.017 -0.2230  0.6056 -0.7498
  405MOL0     C54602  10.290   4.518   6.127  0.1167 -0.6555 -0.9862
  405MOL0     C54603  10.361   4.551   6.261  0.5347 -0.8145 -0.7898
  405MOL0     C54604  10.508   4.534   6.267 -0.7772  0.8911 -0.0693
  405MOL0     C54605  10.632   4.511   6.267  1.1984 -0.0969  0.3642
  405MOL0     C54606  10.758   4.700   5.842  0.1463  0.8409  1.3441
  405MOL0     C54607  10.882   4.659   5.793 -0.9013 -0.0517 -0.3986
  405MOL0     H54608  11.221   4.790   5.501  0.1481  1.3400  1.1533
  405MOL0     H54609  11.429   4.772   5.378  0.7525 -3.2983 -4.6789
  405MOL0     H54610  11.676   4.533   5.562 -0.2670  0.3024 -0.4439
  405MOL0     H54611  11.711   4.410   5.441  0.9779 -0.4384  1.9660
  405MOL0     H54612  11.870   4.574   5.318  3.0590  1.5284  0.3477
  405MOL0     H54613  11.838   4.696   5.443 -0.0826 -0.2882 -1.4340
  405MOL0     H54614  11.893   4.508   5.594 -2.1449  2.1963 -0.4907
  405MOL0     H54615  11.952   4.419   5.451  1.0535  0.8101 -0.4153
  405MOL0     H54616  12.040   4.699   5.540  1.6062  1.1455 -2.7290
  405MOL0     H54617  12.133   4.556   5.580 -1.4635  2.2317  2.0311
  405MOL0     H54618  12.146   4.515   5.339  1.3590 -1.3631  3.2455
  405MOL0     H54619  12.073   4.684   5.296  3.9087  1.9655  0.8547
  405MOL0     H54620  12.240   4.791   5.413 -2.7572 -1.0115  0.8571
  405MOL0     H54621  12.320   4.630   5.423  0.5734  2.1906  1.3374
  405MOL0     H54622  12.330   4.613   5.183 -1.7467  1.4820 -4.2973
  405MOL0     H54623  12.237   4.769   5.168 -0.2183 -1.5801 -1.3000
  405MOL0     H54624  12.497   4.756   5.325 -0.4983 -1.0126 -0.4517
  405MOL0     H54625  12.403   4.888   5.288 -0.4273 -0.4967 -0.7618
  405MOL0     H54626  12.370   4.961   5.014  0.5157  0.9495 -1.8389
  405MOL0     H54627  12.502   5.096   4.823  3.2244  2.1973 -1.3482
  405MOL0     H54628  12.677   5.050   4.827 -0.3775  0.7990 -0.6956
  405MOL0     H54629  12.442   4.925   4.672 -0.4673  1.6264  0.8714
  405MOL0     H54630  12.593   4.847   4.696  0.3544 -0.4263 -0.1064
  405MOL0     H54631  12.612   4.943   4.479 -2.7869  1.1564 -0.6630
  405MOL0     H54632  12.706   5.044   4.583 -0.5521  0.1542  2.0907
  405MOL0     H54633  12.414   5.094   4.499 -0.4674  1.4784 -2.3487
  405MOL0     H54634  12.562   5.160   4.415  0.0489  6.6037  2.9856
  405MOL0     H54635  12.310   5.277   4.698  1.1836  0.0963 -0.7393
  405MOL0     H54636  12.101   5.469   4.766  0.5321  1.0231 -0.3609
  405MOL0     H54637  12.055   5.578   4.649  0.4741  1.3433  2.2940
  405MOL0     H54638  12.022   5.403   4.622 -1.6619  2.5584 -1.9663
  405MOL0     H54639  11.999   5.903   4.607  2.1431  0.9708  2.3374
  405MOL0     H54640  11.954   6.113   4.601 -0.8972 -0.0850 -1.6967
  405MOL0     H54641  12.074   6.293   4.711  0.5818 -1.1967 -1.2681
  405MOL0     H54642  12.204   6.397   4.667  0.1396 -2.5798  0.0120
  405MOL0     H54643  11.910   6.476   4.635 -0.0734 -0.4267 -0.2350
  405MOL0     H54644  12.024   6.535   4.753 -2.8897 -1.7712  0.9037
  405MOL0     H54645  12.072   6.583   4.455  1.2645 -0.3372 -1.0179
  405MOL0     H54646  12.179   6.627   4.591 -0.1230 -0.5373 -0.8576
  405MOL0     H54647  11.977   6.774   4.661  2.6733 -0.3049  1.3048
  405MOL0     H54648  12.070   6.823   4.524 -2.3769  2.9560  2.0061
  405MOL0     H54649  11.846   6.670   4.441  0.3777 -0.3968  1.5722
  405MOL0     H54650  11.910   6.829   4.383 -0.4616  0.1867 -0.0091
  405MOL0     H54651  11.718   6.779   4.615 -0.9170 -0.8162 -1.2446
  405MOL0     H54652  11.813   6.933   4.600  1.9847  0.3908 -0.3682
  405MOL0     H54653  11.720   6.931   4.362 -1.0032  4.9395 -0.8861
  405MOL0     H54654  11.652   7.021   4.485  0.8655 -0.2994  0.6092
  405MOL0     H54655  11.541   6.764   4.387 -1.2512  1.2437 -1.4431
  405MOL0     H54656  11.488   6.928   4.379  0.1276  0.3997  0.1577
  405MOL0     H54657  12.296   6.221   4.369  2.4586 -0.9531  0.8378
  405MOL0     H54658  12.352   5.967   4.361  1.3364  1.1349 -0.5944
  405MOL0     H54659  12.424   5.627   4.367 -0.5948 -1.1042 -1.3282
  405MOL0     H54660  12.577   5.448   4.399 -0.1258  1.9919 -0.7238
  405MOL0     H54661  11.450   4.341   5.468 -0.8214 -0.1196 -0.6572
  405MOL0     H54662  11.244   4.359   5.587  2.5643 -0.0249 -0.7802
  405MOL0     H54663  10.756   4.366   5.650 -2.8195  0.8549  0.2028
  405MOL0     H54664  10.569   4.426   5.787 -0.1176 -0.3637  0.9509
  405MOL0     H54665  10.392   4.486   5.862  1.0277  2.2116 -3.9665
  405MOL0     H54666  10.492   4.494   6.009 -3.1462 -0.7732  0.9781
  405MOL0     H54667  10.228   4.623   5.950 -0.9594 -0.7745  0.0969
  405MOL0     H54668  10.345   4.720   6.050  1.8244 -0.2285  0.0112
  405MOL0     H54669  10.316   4.419   6.089  1.1236 -0.7346 -0.1494
  405MOL0     H54670  10.182   4.515   6.146 -0.4437  1.9199 -3.0684
  405MOL0     H54671  10.314   4.485   6.335  0.1873 -0.9595 -1.1362
  405MOL0     H54672  10.334   4.652   6.294 -4.0661 -2.0855  0.1012
  405MOL0     H54673  10.739   4.508   6.266  1.1857 -0.8934 -0.6105
  405MOL0     H54674  10.774   4.792   5.897  0.8384  0.0712  2.4461
  405MOL0     H54675  10.980   4.706   5.798 -1.1496  0.7767 -2.3756
  406MOL0     O54676   3.229   2.133   7.539  0.1978  0.2000  0.4843
  406MOL0     C54677   3.281   2.017   7.540 -1.3101 -0.1613  0.4467
  406MOL0     O54678   3.415   1.988   7.524  0.1360 -0.0802  0.0786
  406MOL0     C54679   3.516   2.089   7.500  0.0228  0.9670 -0.6021
  406MOL0     C54680   3.493   2.201   7.436 -0.0680 -0.0456  0.5077
  406MOL0     C54681   3.584   2.308   7.429  0.4636  0.7662 -0.9001
  406MOL0     C54682   3.710   2.292   7.496  0.2953  0.5261  0.7706
  406MOL0     O54683   3.780   2.407   7.494 -0.3602  0.3771  0.7432
  406MOL0     C54684   3.905   2.398   7.568  1.1023  0.4547  0.5412
  406MOL0     C54685   3.974   2.536   7.567 -0.7279 -0.4463 -0.6770
  406MOL0     C54686   3.895   2.644   7.643 -0.8689 -0.1495 -0.2300
  406MOL0     C54687   3.959   2.784   7.638 -0.3474  0.2551  0.0527
  406MOL0     C54688   3.880   2.893   7.712 -0.1990  0.2947 -0.5391
  406MOL0     C54689   3.925   2.911   7.849  0.4584 -0.2712 -0.8580
  406MOL0     C54690   3.830   3.012   7.925  0.6070 -1.6004 -0.7660
  406MOL0     C54691   3.853   3.027   8.077 -1.0914  0.1691 -0.3123
  406MOL0     N54692   3.811   2.912   8.155  0.5493 -1.1759 -0.1532
  406MOL0     C54693   3.903   2.835   8.220 -0.1680  0.8931 -0.0614
  406MOL0     C54694   3.831   2.764   8.310 -0.5039  0.2408 -0.4606
  406MOL0     C54695   3.886   2.683   8.422  0.2039 -0.2038  0.2017
  406MOL0     C54696   3.949   2.772   8.524  1.0360  0.6966 -1.6554
  406MOL0     C54697   4.099   2.824   8.497 -0.1051 -1.3223 -0.1050
  406MOL0     C54698   4.153   2.894   8.624  0.3727  0.5520 -0.8795
  406MOL0     O54699   4.281   2.945   8.583 -1.0192 -0.1850 -0.0332
  406MOL0     C54700   4.354   3.009   8.678 -0.3725 -0.6526  0.3106
  406MOL0     C54701   4.471   3.075   8.629  0.6857  0.6566  0.2712
  406MOL0     C54702   4.575   3.130   8.706 -0.2107 -0.6039 -0.0865
  406MOL0     C54703   4.701   3.177   8.625 -0.3785 -0.3100 -0.2735
  406MOL0     C54704   4.555   3.125   8.851  0.0067  0.4365 -0.2414
  406MOL0     C54705   4.654   3.173   8.953  0.9776  0.4001  0.2414
  406MOL0     O54706   4.596   3.220   9.073  0.4021  0.2501  0.7290
  406MOL0     C54707   4.659   3.230   9.195  0.0193  0.9878 -0.4416
  406MOL0     C54708   4.593   3.306   9.291 -0.4232 -0.1314  0.4581
  406MOL0     C54709   4.649   3.327   9.420 -0.3485 -0.2534 -0.2991
  406MOL0     C54710   4.771   3.277   9.456 -0.6131 -0.2745 -0.2962
  406MOL0     O54711   4.836   3.300   9.572 -0.2844  0.1121 -0.0564
  406MOL0     C54712   4.827   3.188   9.662 -0.3246 -0.1967  0.1320
  406MOL0     C54713   4.912   3.202   9.781  0.9903  0.0280 -0.8446
  406MOL0     C54714   4.918   3.337   9.858 -0.5727  0.0619 -0.9354
  406MOL0     C54715   5.009   3.329   9.987 -0.5001 -0.5757 -0.1432
  406MOL0     C54716   5.021   3.466  10.065  0.3814 -0.0662  0.2999
  406MOL0     C54717   5.134   3.441  10.172  0.7524 -0.7241  0.3354
  406MOL0     C54718   5.156   3.570  10.266 -0.7427  0.1456  0.1319
  406MOL0     C54719   5.272   3.542  10.359  0.2834  0.2227  0.3010
  406MOL0    Cl54720   5.269   3.382  10.450 -0.0040  0.1306  0.3090
  406MOL0     C54721   4.836   3.193   9.361  0.1302  0.1633  0.4458
  406MOL0     C54722   4.777   3.170   9.227 -0.2522  1.0577  0.2509
  406MOL0     O54723   4.767   3.188   8.915  0.2773 -0.7946  0.3836
  406MOL0     C54724   4.432   3.079   8.904  0.4398 -0.6195 -0.0588
  406MOL0     C54725   4.334   3.022   8.815 -0.0276 -0.5824  0.2954
  406MOL0     N54726   3.700   2.796   8.285  0.6934  0.2179 -1.1110
  406MOL0     N54727   3.687   2.894   8.207  0.2581  0.7952  0.2254
  406MOL0     C54728   3.735   2.169   7.565  0.2497  0.1404  0.1005
  406MOL0     C54729   3.638   2.068   7.569  0.0949  0.4102 -0.0716
  406MOL0     C54730   3.198   1.911   7.598 -0.2535  0.4480  0.0869
  406MOL0     C54731   3.094   1.941   7.684  1.0776  0.4098 -0.1163
  406MOL0     C54732   3.020   1.842   7.754 -0.2428  0.4343  1.2329
  406MOL0     C54733   3.064   1.708   7.744 -0.1217 -1.1147  0.9358
  406MOL0     O54734   3.014   1.610   7.811  0.6159  0.3174 -0.3457
  406MOL0     C54735   2.876   1.578   7.796  0.1213  0.7008  0.0481
  406MOL0     C54736   2.791   1.606   7.917 -0.5118 -0.0822 -0.0898
  406MOL0     C54737   2.861   1.557   8.034 -0.6223  0.5476  0.0739
  406MOL0     C54738   2.768   1.539   8.154  0.2919 -0.3896 -1.3980
  406MOL0     C54739   2.699   1.665   8.192 -0.1276  0.3118  1.2847
  406MOL0     C54740   2.654   1.772   8.232 -0.0210  0.5152  0.3121
  406MOL0     C54741   3.175   1.679   7.664 -0.8689 -1.5225  0.4334
  406MOL0     C54742   3.238   1.778   7.587  0.3679  1.4873  0.6289
  406MOL0     H54743   3.397   2.214   7.387 -0.1018 -1.1649  0.2399
  406MOL0     H54744   3.576   2.396   7.367  4.7260  1.3675 -0.9472
  406MOL0     H54745   3.869   2.368   7.667 -0.2845 -0.8989 -0.3400
  406MOL0     H54746   3.953   2.314   7.518  0.2756  1.9709 -3.0708
  406MOL0     H54747   4.072   2.531   7.615  0.4980  0.2473 -2.9383
  406MOL0     H54748   3.979   2.567   7.462 -0.0336  3.6400  0.4146
  406MOL0     H54749   3.789   2.646   7.613 -0.6905  1.5553 -0.8486
  406MOL0     H54750   3.898   2.600   7.743  1.8438  0.2907 -0.0526
  406MOL0     H54751   4.063   2.774   7.670 -0.1992  0.6747 -0.2945
  406MOL0     H54752   3.962   2.807   7.531  2.3249  1.6032  0.3474
  406MOL0     H54753   3.892   2.980   7.647 -0.4284  0.9884  0.3387
  406MOL0     H54754   3.777   2.858   7.721  0.0441  0.0746  2.2069
  406MOL0     H54755   3.930   2.814   7.900  1.7170  0.2690  0.1134
  406MOL0     H54756   4.026   2.954   7.854  0.5280 -0.5462  1.4733
  406MOL0     H54757   3.849   3.109   7.879  0.0959  1.1889  4.2250
  406MOL0     H54758   3.725   2.995   7.900  0.1801  1.7302 -1.6987
  406MOL0     H54759   3.797   3.111   8.118 -0.4039 -0.8392  3.0702
  406MOL0     H54760   3.958   3.049   8.096 -1.3987  0.8319  0.7005
  406MOL0     H54761   4.011   2.827   8.218 -0.0643 -7.8364  1.4518
  406MOL0     H54762   3.792   2.650   8.466 -2.0129  2.6817 -1.9310
  406MOL0     H54763   3.952   2.600   8.396  0.2630 -0.4339  1.0373
  406MOL0     H54764   3.948   2.715   8.617 -3.0487 -0.7356 -2.3342
  406MOL0     H54765   3.882   2.857   8.542  0.0225  0.0770 -2.3528
  406MOL0     H54766   4.084   2.900   8.419 -3.7788 -2.3282 -0.5796
  406MOL0     H54767   4.155   2.740   8.456  2.4705  0.7400 -1.1248
  406MOL0     H54768   4.167   2.815   8.699  1.0007  0.5982 -0.9413
  406MOL0     H54769   4.095   2.977   8.664 -1.6665 -1.7012  1.1055
  406MOL0     H54770   4.462   3.085   8.521 -2.5277  4.9935  0.6232
  406MOL0     H54771   4.679   3.181   8.518 -0.5698 -0.1000 -0.2274
  406MOL0     H54772   4.718   3.281   8.655 -1.7913 -0.4791  1.2351
  406MOL0     H54773   4.791   3.119   8.646 -1.8631 -2.4208  0.6727
  406MOL0     H54774   4.499   3.353   9.266 -0.1873  0.5601  0.8447
  406MOL0     H54775   4.592   3.394   9.482 -0.5776 -1.3488  0.7218
  406MOL0     H54776   4.728   3.168   9.706 -0.0084 -2.1837  0.0211
  406MOL0     H54777   4.869   3.099   9.615 -0.1006  0.0903 -0.2189
  406MOL0     H54778   4.889   3.128   9.858 -1.9946  1.5903 -0.0797
  406MOL0     H54779   5.014   3.186   9.743  0.5141 -1.2052 -1.6397
  406MOL0     H54780   4.820   3.370   9.892 -0.4144  0.2796 -0.6820
  406MOL0     H54781   4.951   3.408   9.781  0.2380  0.1714 -0.5024
  406MOL0     H54782   4.970   3.244  10.044  0.7840 -1.5437 -0.6573
  406MOL0     H54783   5.105   3.291   9.953 -0.1183 -1.3927  1.7202
  406MOL0     H54784   4.926   3.497  10.110  2.0903  1.1625  3.3387
  406MOL0     H54785   5.045   3.549   9.998  1.6388 -1.0916 -0.5751
  406MOL0     H54786   5.112   3.359  10.241 -2.2044  0.5530  1.0562
  406MOL0     H54787   5.232   3.419  10.128  1.1599 -0.7974  1.2655
  406MOL0     H54788   5.063   3.581  10.321  0.9702 -0.1632  3.3437
  406MOL0     H54789   5.170   3.652  10.195 -2.2777  0.0980 -0.2627
  406MOL0     H54790   5.291   3.614  10.439 -2.6361 -0.2234  1.5162
  406MOL0     H54791   5.356   3.517  10.293 -1.0269  0.0116 -1.3467
  406MOL0     H54792   4.929   3.148   9.393  0.9401  1.6905  0.2948
  406MOL0     H54793   4.830   3.099   9.165 -0.7942  0.9107 -0.0468
  406MOL0     H54794   4.423   3.078   9.012  2.4854 -3.7276  0.2301
  406MOL0     H54795   4.245   2.979   8.859 -0.3925  0.9630  1.1726
  406MOL0     H54796   3.828   2.157   7.618 -0.4396  0.3431  1.3909
  406MOL0     H54797   3.661   1.975   7.620  0.4269  0.2854 -0.4444
  406MOL0     H54798   3.063   2.045   7.694 -1.9139 -0.3648 -0.5347
  406MOL0     H54799   2.937   1.861   7.822 -0.3032 -0.1842  1.3338
  406MOL0     H54800   2.831   1.615   7.703 -0.0762 -2.6423 -1.3123
  406MOL0     H54801   2.881   1.470   7.779  2.4011  0.6161  0.8829
  406MOL0     H54802   2.697   1.554   7.896 -1.5636  2.1725 -1.3404
  406MOL0     H54803   2.771   1.713   7.925 -2.2026 -0.2733 -1.2524
  406MOL0     H54804   2.945   1.621   8.065 -1.5495 -0.0364  4.4813
  406MOL0     H54805   2.912   1.465   8.003 -1.2352  0.7721 -1.6942
  406MOL0     H54806   2.827   1.532   8.246  2.1172 -0.3632 -2.5052
  406MOL0     H54807   2.697   1.457   8.148 -1.0099  0.4404  1.0373
  406MOL0     H54808   2.599   1.857   8.267 -3.1590 -1.2841  0.1812
  406MOL0     H54809   3.228   1.586   7.651 -1.0228 -1.3205 -1.9690
  406MOL0     H54810   3.322   1.745   7.526  0.4367  1.9937  0.4457
  407MOL0     O54811  11.148   9.458   0.811 -0.0325  1.4892  0.3695
  407MOL0     C54812  11.179   9.337   0.795 -0.3762  0.7960 -0.4450
  407MOL0     O54813  11.168   9.234   0.888 -0.2469  0.0492  0.5203
  407MOL0     C54814  11.121   9.265   1.009 -0.0510  0.1340  0.5852
  407MOL0     C54815  11.038   9.170   1.072 -0.0324  0.2583 -0.4840
  407MOL0     C54816  11.014   9.176   1.216  0.6666 -0.6151 -0.0718
  407MOL0     C54817  11.068   9.287   1.281  0.5359  0.0234  0.1641
  407MOL0     O54818  11.055   9.308   1.415 -0.2866  0.1102 -0.0529
  407MOL0     C54819  10.998   9.211   1.506 -0.2671  0.1727 -0.5136
  407MOL0     C54820  11.024   9.266   1.646 -0.0011  0.8401 -0.2941
  407MOL0     C54821  10.982   9.156   1.750 -0.5133  0.9679 -0.0709
  407MOL0     C54822  10.891   9.188   1.865 -0.6900 -0.2200 -0.4087
  407MOL0     C54823  10.910   9.084   1.988  0.3350  0.2431  0.3340
  407MOL0     C54824  10.831   9.132   2.109  0.2488 -0.2952  0.2796
  407MOL0     C54825  10.795   9.022   2.207  0.1356  0.4250 -0.0498
  407MOL0     C54826  10.734   9.090   2.323 -0.3336  0.2544 -0.9772
  407MOL0     N54827  10.728   9.014   2.449 -0.9769  0.0458 -0.7369
  407MOL0     C54828  10.700   8.879   2.456 -0.6941 -0.6557 -0.1184
  407MOL0     C54829  10.710   8.859   2.589 -0.8160 -0.3933  0.2045
  407MOL0     C54830  10.656   8.740   2.656 -0.1794  0.6953 -0.3000
  407MOL0     C54831  10.515   8.755   2.720  0.2990  2.2217  0.4680
  407MOL0     C54832  10.523   8.740   2.885 -1.0434  0.4103  0.7610
  407MOL0     C54833  10.586   8.849   2.971 -0.6734 -0.0238 -0.2563
  407MOL0     O54834  10.498   8.959   2.995 -0.4915 -0.9811  0.1995
  407MOL0     C54835  10.553   9.082   3.032  0.5904 -0.9985  0.8012
  407MOL0     C54836  10.658   9.158   2.975  0.6147 -0.4176  0.2339
  407MOL0     C54837  10.711   9.281   3.023 -0.0606 -0.0518  0.0714
  407MOL0     C54838  10.822   9.348   2.948 -0.5777 -1.0873 -0.2233
  407MOL0     C54839  10.654   9.338   3.138  0.6179 -0.9567 -0.4449
  407MOL0     C54840  10.699   9.462   3.204 -0.7134 -0.1023  0.5175
  407MOL0     O54841  10.624   9.489   3.306 -0.6055 -0.7465  0.2720
  407MOL0     C54842  10.620   9.618   3.344 -0.2121  0.2853 -0.7247
  407MOL0     C54843  10.534   9.701   3.279 -0.4206  0.4289 -0.2723
  407MOL0     C54844  10.520   9.832   3.318 -0.2464  0.1892 -0.2745
  407MOL0     C54845  10.608   9.885   3.418 -0.0103  0.0896 -0.6858
  407MOL0     O54846  10.599  10.015   3.452 -0.2878  0.0051 -0.2650
  407MOL0     C54847  10.632  10.051   3.585 -0.7062  0.2292  0.3298
  407MOL0     C54848  10.566  10.189   3.604 -0.5969  0.5392 -0.4627
  407MOL0     C54849  10.409  10.183   3.618 -0.3832  0.2122  0.0689
  407MOL0     C54850  10.354  10.318   3.660 -0.7250  0.8710 -0.1332
  407MOL0     C54851  10.339  10.405   3.537 -0.1221 -1.1282  0.5257
  407MOL0     C54852  10.237  10.361   3.434 -0.3250 -0.0204 -0.0581
  407MOL0     C54853  10.250  10.459   3.319  0.2600 -0.7782  0.8507
  407MOL0     C54854  10.136  10.434   3.219 -1.3786 -1.4376  0.2462
  407MOL0    Cl54855   9.979  10.491   3.278  0.3140  0.1370 -0.1586
  407MOL0     C54856  10.694   9.796   3.485  0.1616  0.0254  0.5461
  407MOL0     C54857  10.696   9.666   3.447 -0.1307 -0.0707 -0.0813
  407MOL0     O54858  10.775   9.542   3.140  0.3466  0.2770 -0.6382
  407MOL0     C54859  10.546   9.263   3.200  0.0204 -0.6086 -0.3533
  407MOL0     C54860  10.500   9.141   3.142 -0.9628 -0.6021 -1.0808
  407MOL0     N54861  10.765   8.974   2.648 -0.9119  0.7647  0.0390
  407MOL0     N54862  10.782   9.063   2.566 -0.1465  0.1143  0.5464
  407MOL0     C54863  11.144   9.388   1.219  0.6101  0.7240  0.3853
  407MOL0     C54864  11.178   9.371   1.082  0.6292  0.7869  0.0774
  407MOL0     C54865  11.251   9.296   0.670 -0.2975 -0.3017  0.1186
  407MOL0     C54866  11.258   9.161   0.628  0.7634 -0.3959 -0.7170
  407MOL0     C54867  11.310   9.136   0.497 -1.1751 -1.0139  0.2947
  407MOL0     C54868  11.354   9.242   0.413  0.8559  0.3368 -0.0968
  407MOL0     O54869  11.402   9.190   0.297 -0.0576 -1.0016  0.3263
  407MOL0     C54870  11.434   9.289   0.195 -0.0725  0.1669  0.4486
  407MOL0     C54871  11.464   9.214   0.058  0.4347 -0.1794 -0.1621
  407MOL0     C54872  11.324   9.172   0.003  0.5137  0.6984 -0.5953
  407MOL0     C54873  11.319   9.175  -0.150 -0.7116 -0.3825 -0.5987
  407MOL0     C54874  11.326   9.315  -0.205 -0.0786 -0.0263  0.4778
  407MOL0     C54875  11.311   9.420  -0.273  0.3318 -0.1400  0.3519
  407MOL0     C54876  11.322   9.380   0.448 -0.5512  0.6197 -0.4101
  407MOL0     C54877  11.275   9.405   0.576 -0.5246 -0.1366 -0.5908
  407MOL0     H54878  10.983   9.098   1.012 -0.4876 -0.6543  0.9552
  407MOL0     H54879  10.954   9.104   1.270  1.7576 -1.3003  0.2707
  407MOL0     H54880  10.896   9.196   1.469  0.3691 -0.6796 -2.0049
  407MOL0     H54881  11.049   9.115   1.495 -0.6796 -0.0761 -0.3052
  407MOL0     H54882  11.129   9.296   1.643  0.6092 -0.8206 -5.0925
  407MOL0     H54883  10.967   9.354   1.677  2.6574  1.3901  3.7017
  407MOL0     H54884  10.939   9.064   1.709  2.0661 -0.8608  1.0520
  407MOL0     H54885  11.077   9.122   1.790 -1.8535 -2.8650  0.2535
  407MOL0     H54886  10.907   9.287   1.909 -1.6993  0.9890 -2.6276
  407MOL0     H54887  10.785   9.178   1.841 -0.1795 -0.8683 -2.5793
  407MOL0     H54888  10.875   8.988   1.949 -1.1309 -0.1989  2.5429
  407MOL0     H54889  11.017   9.082   2.011  0.5182  1.5854 -0.3152
  407MOL0     H54890  10.882   9.221   2.146 -0.7834  0.7046 -0.6055
  407MOL0     H54891  10.732   9.157   2.068 -0.6478 -1.8108  1.3791
  407MOL0     H54892  10.728   8.948   2.162 -0.2869 -0.9027  2.5855
  407MOL0     H54893  10.888   8.971   2.235 -2.6191 -4.5367  1.3447
  407MOL0     H54894  10.631   9.116   2.297 -1.8697 -2.0409  2.2195
  407MOL0     H54895  10.789   9.180   2.353 -2.5417  1.8676 -1.5063
  407MOL0     H54896  10.666   8.814   2.376  1.2383 -4.3769  1.8364
  407MOL0     H54897  10.659   8.660   2.582  1.7558  1.7340 -1.3987
  407MOL0     H54898  10.729   8.720   2.735  1.0315  4.1155 -0.3906
  407MOL0     H54899  10.452   8.674   2.682  1.3430  1.5840  0.0547
  407MOL0     H54900  10.475   8.853   2.693 -1.0406  1.1781 -1.5318
  407MOL0     H54901  10.554   8.639   2.912 -1.6842  0.4029  1.5172
  407MOL0     H54902  10.416   8.739   2.910 -1.2302  0.2717 -0.0346
  407MOL0     H54903  10.688   8.875   2.940 -1.1767  1.8396 -0.5168
  407MOL0     H54904  10.594   8.799   3.068 -3.0903  3.1779  1.8220
  407MOL0     H54905  10.704   9.120   2.884  2.3830  1.0457  0.4574
  407MOL0     H54906  10.777   9.443   2.915  0.0476 -0.2044  1.3779
  407MOL0     H54907  10.908   9.372   3.010 -1.6853  0.4780  0.7958
  407MOL0     H54908  10.851   9.292   2.859  3.8803 -0.2544  0.4902
  407MOL0     H54909  10.473   9.665   3.197 -0.3066  0.6719 -0.4646
  407MOL0     H54910  10.449   9.899   3.271 -2.9579 -2.2803  0.0424
  407MOL0     H54911  10.592   9.981   3.658 -2.2914 -1.2791 -1.8539
  407MOL0     H54912  10.739  10.076   3.584 -0.5235 -0.3252 -2.3722
  407MOL0     H54913  10.608  10.223   3.700 -2.8696  2.2084  0.0275
  407MOL0     H54914  10.597  10.259   3.526 -2.8078  0.0484 -1.8728
  407MOL0     H54915  10.413  10.123   3.710  2.5815 -1.6224 -1.1091
  407MOL0     H54916  10.349  10.138   3.538 -2.2745  3.0042 -0.2063
  407MOL0     H54917  10.256  10.296   3.704 -0.7380 -0.0936 -0.6232
  407MOL0     H54918  10.406  10.371   3.740 -1.9436  1.3141  0.3853
  407MOL0     H54919  10.435  10.422   3.489 -0.6012  1.5589  0.3483
  407MOL0     H54920  10.301  10.504   3.563  2.2185  0.0161 -0.1939
  407MOL0     H54921  10.256  10.260   3.397  1.5238  0.6010 -0.9704
  407MOL0     H54922  10.134  10.369   3.471 -0.7088  1.6921 -1.3880
  407MOL0     H54923  10.335  10.442   3.252 -0.7992 -0.0274 -0.7585
  407MOL0     H54924  10.257  10.568   3.322  0.3581 -0.1936 -5.5156
  407MOL0     H54925  10.131  10.334   3.175 -3.4973 -0.9187 -0.8665
  407MOL0     H54926  10.173  10.499   3.139  1.9972 -0.8012  2.1554
  407MOL0     H54927  10.757   9.822   3.569  2.9959  1.7545 -1.8863
  407MOL0     H54928  10.766   9.596   3.493  0.6634  1.3371  0.9056
  407MOL0     H54929  10.491   9.297   3.287 -0.0975 -3.5008  0.8259
  407MOL0     H54930  10.404   9.106   3.178 -1.1914  0.1675 -0.9074
  407MOL0     H54931  11.188   9.469   1.276  0.6257  2.9485 -2.5386
  407MOL0     H54932  11.261   9.427   1.041  2.1417 -0.2421  1.5702
  407MOL0     H54933  11.251   9.078   0.698  3.2196 -0.6817 -0.6992
  407MOL0     H54934  11.322   9.039   0.451  1.6544 -1.4258  1.6730
  407MOL0     H54935  11.356   9.364   0.179 -2.3936 -2.5320 -1.9909
  407MOL0     H54936  11.527   9.335   0.228  0.5043 -0.0365 -0.8364
  407MOL0     H54937  11.530   9.132   0.088  1.3972  1.0021  1.1045
  407MOL0     H54938  11.512   9.285  -0.009 -2.9820 -0.4753 -3.1882
  407MOL0     H54939  11.246   9.241   0.037 -0.3391 -0.0214 -1.0855
  407MOL0     H54940  11.303   9.069   0.033  1.4277  0.7671  0.3312
  407MOL0     H54941  11.226   9.137  -0.193 -1.0031 -2.1771  1.4135
  407MOL0     H54942  11.400   9.110  -0.182  1.1497 -1.1503  4.6534
  407MOL0     H54943  11.284   9.507  -0.331 -0.3129 -1.6469 -1.7673
  407MOL0     H54944  11.354   9.459   0.381  1.3641 -1.7954 -2.5396
  407MOL0     H54945  11.271   9.503   0.622 -3.1992 -1.7990  3.3293
  408MOL0     O54946   8.359   0.766   5.854 -0.2115 -0.5399  0.2389
  408MOL0     C54947   8.325   0.867   5.916 -0.1814  0.8786  1.0129
  408MOL0     O54948   8.375   0.997   5.901 -0.1984 -0.1182 -0.5085
  408MOL0     C54949   8.440   1.046   5.793 -0.4031 -0.5147  0.1194
  408MOL0     C54950   8.541   1.142   5.803 -0.8397 -0.7533  0.6337
  408MOL0     C54951   8.613   1.181   5.690  0.7785  0.0466 -0.0434
  408MOL0     C54952   8.576   1.132   5.558  0.7033  0.1532 -0.0627
  408MOL0     O54953   8.657   1.185   5.458  0.5943  0.2497 -0.5717
  408MOL0     C54954   8.606   1.228   5.331 -1.2964 -0.3424  0.0954
  408MOL0     C54955   8.731   1.218   5.237  0.1499 -0.0656 -0.0844
  408MOL0     C54956   8.697   1.287   5.094 -0.9826 -0.9220 -0.3766
  408MOL0     C54957   8.809   1.348   5.021 -0.3595  0.0710 -0.4218
  408MOL0     C54958   8.765   1.466   4.938  0.3914 -1.0379 -0.3353
  408MOL0     C54959   8.732   1.426   4.794  1.0722 -0.3132  0.2916
  408MOL0     C54960   8.720   1.545   4.700  0.4258 -0.5104  0.0794
  408MOL0     C54961   8.695   1.492   4.561  0.4542 -0.5330  0.1069
  408MOL0     N54962   8.815   1.415   4.513 -1.0991 -0.3449  0.3137
  408MOL0     C54963   8.828   1.281   4.496  0.4655 -0.6416 -0.2618
  408MOL0     C54964   8.960   1.267   4.452  1.0231 -0.4599 -0.4609
  408MOL0     C54965   9.023   1.133   4.422  0.7866  0.2502 -0.3322
  408MOL0     C54966   9.077   1.073   4.558 -0.9023  0.3588  0.3695
  408MOL0     C54967   8.981   1.008   4.655 -0.4985  0.1733  0.8508
  408MOL0     C54968   9.040   1.008   4.798  0.3447 -0.1231 -0.8756
  408MOL0     O54969   8.956   0.925   4.876 -0.0568  0.2061  0.4782
  408MOL0     C54970   8.998   0.883   4.997  0.7039  0.2679  0.5547
  408MOL0     C54971   9.097   0.950   5.068 -0.2716  0.8747  0.4432
  408MOL0     C54972   9.159   0.906   5.183 -0.5962 -0.1416  0.9190
  408MOL0     C54973   9.286   0.978   5.239  0.4228  0.6542  0.0524
  408MOL0     C54974   9.112   0.781   5.233  0.1677 -0.5268  0.2183
  408MOL0     C54975   9.179   0.710   5.350 -0.5145  0.4122 -0.4349
  408MOL0     O54976   9.165   0.569   5.354 -0.5088 -0.4645  0.6919
  408MOL0     C54977   9.202   0.515   5.472 -0.6621  0.8264  0.4955
  408MOL0     C54978   9.128   0.504   5.586  0.5371  0.4688  0.3866
  408MOL0     C54979   9.161   0.424   5.694  0.1936 -0.5248  0.4367
  408MOL0     C54980   9.279   0.355   5.702  0.0147 -0.4349  0.7709
  408MOL0     O54981   9.305   0.273   5.811 -0.3981  0.2132 -0.4519
  408MOL0     C54982   9.433   0.218   5.824  0.5132 -0.2798  0.3668
  408MOL0     C54983   9.442   0.130   5.944  0.0135  0.1927  0.2735
  408MOL0     C54984   9.468   0.224   6.072 -0.0308  0.4250 -0.8509
  408MOL0     C54985   9.439   0.128   6.193 -0.4939  0.0979  0.0777
  408MOL0     C54986   9.434   0.203   6.326  0.2494  0.2710  0.2824
  408MOL0     C54987   9.555   0.277   6.365  0.0461  0.0863 -0.7720
  408MOL0     C54988   9.546   0.344   6.509  0.5182 -1.1455  0.7412
  408MOL0     C54989   9.679   0.395   6.553 -0.3510  0.0471 -0.1764
  408MOL0    Cl54990   9.777   0.255   6.591 -0.0329  0.1892  0.3794
  408MOL0     C54991   9.366   0.369   5.586 -0.2663 -0.4231 -1.5930
  408MOL0     C54992   9.326   0.447   5.481 -0.4690  0.7018  0.7163
  408MOL0     O54993   9.228   0.778   5.443  0.3440 -0.2974 -0.4309
  408MOL0     C54994   9.006   0.714   5.171  0.3895 -0.4306  0.4530
  408MOL0     C54995   8.956   0.760   5.048 -0.0394  0.6682 -0.5141
  408MOL0     N54996   9.021   1.393   4.445 -1.1697  0.3960 -0.4030
  408MOL0     N54997   8.932   1.476   4.481 -0.6625 -1.1858  0.4407
  408MOL0     C54998   8.482   1.037   5.549  0.2963 -0.0381  0.8727
  408MOL0     C54999   8.408   1.004   5.659  0.6210 -0.4132  0.6151
  408MOL0     C55000   8.230   0.842   6.033  0.1853  0.0321  0.3129
  408MOL0     C55001   8.174   0.941   6.111  0.6013  0.2237 -0.2106
  408MOL0     C55002   8.098   0.910   6.221  0.2595 -0.6270  0.0525
  408MOL0     C55003   8.094   0.781   6.264  0.1300 -0.0422  0.1834
  408MOL0     O55004   8.008   0.742   6.369 -0.0749 -0.4558 -0.3596
  408MOL0     C55005   8.045   0.626   6.454 -0.3134 -0.5655 -1.0881
  408MOL0     C55006   7.929   0.599   6.554  0.5921  0.0442  0.9340
  408MOL0     C55007   7.962   0.505   6.675 -0.6071 -0.4881  1.2150
  408MOL0     C55008   7.828   0.486   6.749  0.1238 -0.8103 -1.2129
  408MOL0     C55009   7.736   0.405   6.672  0.3573 -0.0794 -0.1723
  408MOL0     C55010   7.637   0.357   6.621 -0.0445  0.5922 -0.2298
  408MOL0     C55011   8.146   0.674   6.183  0.8354  0.1211  0.4420
  408MOL0     C55012   8.210   0.706   6.068  0.5101 -0.9700 -0.2721
  408MOL0     H55013   8.581   1.177   5.898  1.3808 -0.7148 -0.2408
  408MOL0     H55014   8.692   1.255   5.690 -2.4938  3.8894 -0.6286
  408MOL0     H55015   8.524   1.166   5.293 -0.5655 -3.8227  3.5220
  408MOL0     H55016   8.566   1.330   5.333 -0.5999  0.0226 -2.0216
  408MOL0     H55017   8.818   1.262   5.287  0.6597  1.4212 -2.1618
  408MOL0     H55018   8.744   1.113   5.211 -1.0372 -0.0496 -0.7875
  408MOL0     H55019   8.662   1.202   5.035 -1.3410 -0.9508 -0.1243
  408MOL0     H55020   8.615   1.355   5.117 -2.0141 -3.0320  2.9032
  408MOL0     H55021   8.873   1.380   5.103 -2.0082 -3.8336  2.7696
  408MOL0     H55022   8.855   1.268   4.964 -0.1600 -0.5154  0.5299
  408MOL0     H55023   8.672   1.506   4.979 -0.8037 -5.1717  1.5535
  408MOL0     H55024   8.840   1.545   4.937 -3.0287  2.8917  4.3534
  408MOL0     H55025   8.802   1.357   4.745 -0.4435 -0.8402 -1.2126
  408MOL0     H55026   8.634   1.380   4.807  1.9753 -2.3680  0.2293
  408MOL0     H55027   8.630   1.597   4.734  0.7120 -0.4218  0.7157
  408MOL0     H55028   8.806   1.612   4.697 -0.1909  0.2577 -1.2834
  408MOL0     H55029   8.672   1.576   4.494  0.0086  1.0303  2.1225
  408MOL0     H55030   8.604   1.435   4.544  0.9059 -0.6317 -2.3991
  408MOL0     H55031   8.755   1.201   4.501 -0.7228  0.4378  0.4827
  408MOL0     H55032   8.952   1.058   4.387 -1.5849  0.7505  2.9523
  408MOL0     H55033   9.094   1.155   4.342  0.8981  6.2657  0.9223
  408MOL0     H55034   9.129   1.159   4.601 -2.7955  1.0121  1.4778
  408MOL0     H55035   9.162   1.009   4.530 -0.3786  1.0893  0.2539
  408MOL0     H55036   8.966   0.903   4.628 -1.1847 -0.2913  2.9016
  408MOL0     H55037   8.881   1.054   4.654 -0.6048 -0.0386 -0.3915
  408MOL0     H55038   9.039   1.106   4.846  2.7528 -1.1160  1.4085
  408MOL0     H55039   9.137   0.958   4.798 -0.4436 -1.7849  0.9850
  408MOL0     H55040   9.152   1.029   5.018 -0.2240  1.0662  0.7936
  408MOL0     H55041   9.286   1.076   5.190 -4.4502  1.8004  1.7501
  408MOL0     H55042   9.280   0.997   5.347  0.7606 -2.0998  0.6214
  408MOL0     H55043   9.374   0.918   5.214  0.3003  0.4131  0.1925
  408MOL0     H55044   9.035   0.562   5.585 -1.4036 -2.4250  0.5328
  408MOL0     H55045   9.086   0.434   5.772 -1.5685  1.5536 -1.3820
  408MOL0     H55046   9.452   0.155   5.736  0.8728 -1.1769  1.0679
  408MOL0     H55047   9.511   0.293   5.841 -0.5110  0.6422  1.0769
  408MOL0     H55048   9.348   0.075   5.958  0.0519  0.1819  0.4905
  408MOL0     H55049   9.531   0.067   5.935  1.1619  0.9500  4.3428
  408MOL0     H55050   9.399   0.308   6.071  0.2064  0.7525  2.1501
  408MOL0     H55051   9.572   0.257   6.086  1.1567 -2.8460 -0.9903
  408MOL0     H55052   9.340   0.085   6.173  1.0667 -2.6113 -2.6307
  408MOL0     H55053   9.512   0.047   6.206  0.7852  0.7413 -2.5067
  408MOL0     H55054   9.399   0.138   6.407  0.5505  3.5414  3.2925
  408MOL0     H55055   9.343   0.265   6.321 -3.1403 -3.7137  4.0223
  408MOL0     H55056   9.632   0.201   6.377  0.1155  0.3132  0.4371
  408MOL0     H55057   9.566   0.352   6.286  1.9649  0.4294 -0.2239
  408MOL0     H55058   9.498   0.274   6.578 -0.9398 -0.6848  0.2149
  408MOL0     H55059   9.475   0.420   6.478  1.9439 -1.1160 -2.9030
  408MOL0     H55060   9.658   0.456   6.641 -3.7674  0.7148 -1.2722
  408MOL0     H55061   9.738   0.449   6.478 -2.7468  1.0938 -1.4498
  408MOL0     H55062   9.461   0.316   5.587 -0.6749 -1.2525  1.0434
  408MOL0     H55063   9.381   0.447   5.387 -0.6431  0.3691  0.6139
  408MOL0     H55064   8.974   0.623   5.221 -1.0155  1.6537  3.6701
  408MOL0     H55065   8.888   0.704   4.985  0.6826  0.6335 -1.2707
  408MOL0     H55066   8.448   0.999   5.453 -1.2236 -1.8680  2.0524
  408MOL0     H55067   8.327   0.933   5.643  0.5085 -0.2872  0.6154
  408MOL0     H55068   8.178   1.046   6.084  2.9483  1.0119  2.6251
  408MOL0     H55069   8.036   0.987   6.266  0.8864  1.4840 -2.4951
  408MOL0     H55070   8.069   0.530   6.408  1.3176 -0.5105 -0.4364
  408MOL0     H55071   8.136   0.651   6.511 -2.4667  1.8157  1.5859
  408MOL0     H55072   7.861   0.551   6.484  1.3672 -0.7213  0.6930
  408MOL0     H55073   7.872   0.689   6.580 -1.8065 -0.8337 -0.8911
  408MOL0     H55074   8.046   0.540   6.736  0.8096 -1.5424 -0.0727
  408MOL0     H55075   7.992   0.411   6.628  2.7124  1.7049 -1.4950
  408MOL0     H55076   7.780   0.575   6.790  4.6821  0.6796  1.6246
  408MOL0     H55077   7.840   0.423   6.838  4.1736  0.6441 -0.5460
  408MOL0     H55078   7.561   0.304   6.568 -0.8455  1.2309  0.2444
  408MOL0     H55079   8.139   0.570   6.213 -0.9815  0.7156  2.2674
  408MOL0     H55080   8.258   0.627   6.011  1.2456  1.8060 -3.8611
  409MOL0     O55081   4.176   5.482   0.256  0.5965 -0.0304 -0.1494
  409MOL0     C55082   4.250   5.458   0.164  0.6111 -0.2204 -0.2293
  409MOL0     O55083   4.369   5.519   0.141 -0.4388 -0.3451  0.9556
  409MOL0     C55084   4.409   5.627   0.227 -0.0794  0.0823  0.2423
  409MOL0     C55085   4.415   5.749   0.164 -1.1593  0.3293 -0.0540
  409MOL0     C55086   4.461   5.856   0.241 -0.3747  0.5456 -0.0379
  409MOL0     C55087   4.503   5.853   0.375  0.6222 -0.5069  0.1110
  409MOL0     O55088   4.550   5.967   0.430 -0.6400 -0.2338 -0.2628
  409MOL0     C55089   4.614   5.956   0.566 -0.0971 -0.0862 -0.1524
  409MOL0     C55090   4.675   6.085   0.616  1.2924  0.3994  0.9649
  409MOL0     C55091   4.812   6.115   0.562 -0.0052 -0.3842  0.9180
  409MOL0     C55092   4.881   6.225   0.646  0.7391 -0.8897  0.0152
  409MOL0     C55093   5.011   6.275   0.569  0.0353  0.5006 -0.1009
  409MOL0     C55094   5.130   6.178   0.581 -0.0354  0.0012  0.5292
  409MOL0     C55095   5.258   6.236   0.526 -0.1581 -1.0143  0.0962
  409MOL0     C55096   5.387   6.168   0.569 -0.4805  0.2776  0.0645
  409MOL0     N55097   5.380   6.024   0.516 -0.3699 -0.5748  0.4901
  409MOL0     C55098   5.342   5.921   0.587  0.0714  0.9444 -1.4046
  409MOL0     C55099   5.326   5.822   0.495  1.3175  0.4414  0.3553
  409MOL0     C55100   5.262   5.686   0.513 -0.1245 -0.5770 -0.5269
  409MOL0     C55101   5.368   5.588   0.571  0.4963 -0.1061 -0.1271
  409MOL0     C55102   5.483   5.557   0.469 -0.7712 -0.1462  0.0873
  409MOL0     C55103   5.565   5.431   0.526  0.5104  0.3334 -0.6153
  409MOL0     O55104   5.662   5.487   0.616  0.3397 -0.6061  0.4296
  409MOL0     C55105   5.703   5.433   0.737 -0.0476  0.2051 -0.2857
  409MOL0     C55106   5.799   5.506   0.815  0.8387 -0.7361 -0.2245
  409MOL0     C55107   5.832   5.466   0.948 -0.5320  0.2060  0.2745
  409MOL0     C55108   5.927   5.574   1.008  0.8230  0.6738  0.2278
  409MOL0     C55109   5.777   5.349   0.998 -0.1864  0.0958 -1.4325
  409MOL0     C55110   5.806   5.293   1.132 -0.5619  0.2340  0.0822
  409MOL0     O55111   5.919   5.339   1.198 -0.3497 -0.7604  0.2041
  409MOL0     C55112   5.961   5.288   1.320 -0.2083  0.1978  0.2467
  409MOL0     C55113   5.975   5.157   1.358 -0.0717 -0.5320  0.0480
  409MOL0     C55114   6.016   5.120   1.486  0.4678  0.7575  0.1754
  409MOL0     C55115   6.040   5.225   1.575 -0.6381  0.1943 -0.2312
  409MOL0     O55116   6.074   5.193   1.704 -0.5335  0.0465  0.1509
  409MOL0     C55117   6.212   5.162   1.735  0.7132  0.3291  0.4671
  409MOL0     C55118   6.200   5.054   1.830 -0.2471 -0.1726 -0.2680
  409MOL0     C55119   6.319   5.049   1.920  0.9413  0.3514 -0.1880
  409MOL0     C55120   6.301   4.937   2.020 -0.4543 -0.5556 -0.6719
  409MOL0     C55121   6.399   4.944   2.138 -0.4512 -0.6274  0.3689
  409MOL0     C55122   6.373   4.830   2.245 -0.9790  0.8017 -0.7400
  409MOL0     C55123   6.461   4.846   2.370 -1.3790 -0.4790  0.8383
  409MOL0     C55124   6.478   4.711   2.442  0.0703  0.5713  0.2626
  409MOL0    Cl55125   6.596   4.747   2.570 -0.3119 -0.4997 -0.3744
  409MOL0     C55126   6.021   5.353   1.530 -0.6640  0.2736 -0.1894
  409MOL0     C55127   5.982   5.388   1.409 -0.9646 -0.3174 -0.8408
  409MOL0     O55128   5.729   5.206   1.179  0.6277  0.3707 -0.1273
  409MOL0     C55129   5.697   5.258   0.914 -1.0877 -0.2054  0.2479
  409MOL0     C55130   5.665   5.308   0.789 -0.1038 -0.3687 -0.0069
  409MOL0     N55131   5.364   5.880   0.373 -0.0144 -1.1959 -0.0643
  409MOL0     N55132   5.388   6.005   0.387 -0.0037 -0.2187  0.9718
  409MOL0     C55133   4.491   5.724   0.431 -0.2035 -0.1312  0.4106
  409MOL0     C55134   4.439   5.609   0.361  0.5438  0.1159 -0.5468
  409MOL0     C55135   4.192   5.357   0.069 -0.3464 -0.4061 -0.4052
  409MOL0     C55136   4.232   5.353  -0.057  0.2106  0.5217  0.0709
  409MOL0     C55137   4.172   5.273  -0.160  0.7795  0.0642 -0.2558
  409MOL0     C55138   4.076   5.174  -0.119 -1.7155  0.1325  0.0750
  409MOL0     O55139   4.030   5.090  -0.211  0.2279  0.4912  0.0676
  409MOL0     C55140   3.961   5.146  -0.330 -0.4982  0.7899  0.7720
  409MOL0     C55141   3.946   5.043  -0.446 -0.9708  0.1167  0.1017
  409MOL0     C55142   3.882   5.101  -0.564  0.5923 -0.3995  0.0081
  409MOL0     C55143   3.851   5.007  -0.682  0.4788  0.1472 -0.1758
  409MOL0     C55144   3.952   5.028  -0.789 -0.8097 -0.1450 -1.3584
  409MOL0     C55145   4.037   5.047  -0.869  0.4540 -0.5618  0.1428
  409MOL0     C55146   4.025   5.187   0.007 -0.3764  0.4104 -0.0746
  409MOL0     C55147   4.080   5.274   0.109  0.1930 -0.8488 -0.1957
  409MOL0     H55148   4.391   5.752   0.058 -0.7945 -3.8804 -0.4294
  409MOL0     H55149   4.462   5.956   0.199  0.2581  1.0977  1.2512
  409MOL0     H55150   4.534   5.918   0.630 -0.7150  0.0281 -0.8371
  409MOL0     H55151   4.686   5.873   0.559  1.3836  1.1202  0.2289
  409MOL0     H55152   4.592   6.156   0.603 -1.1542 -1.7979  3.2985
  409MOL0     H55153   4.691   6.083   0.724  0.5319  1.5008  1.1213
  409MOL0     H55154   4.871   6.024   0.546 -0.1651 -0.7192  2.1546
  409MOL0     H55155   4.799   6.176   0.472 -0.6153  1.3793  2.1317
  409MOL0     H55156   4.804   6.303   0.655 -1.9404 -2.7498 -3.9384
  409MOL0     H55157   4.901   6.189   0.748  1.8967  0.3955  0.2813
  409MOL0     H55158   4.978   6.300   0.467 -1.0552 -0.2865  0.0414
  409MOL0     H55159   5.038   6.375   0.605  1.0060  1.7385 -3.7869
  409MOL0     H55160   5.136   6.131   0.680 -1.6928 -2.2258 -0.3469
  409MOL0     H55161   5.102   6.099   0.511 -3.0750  1.0668  0.3849
  409MOL0     H55162   5.234   6.232   0.419 -2.4118 -1.6863  0.5686
  409MOL0     H55163   5.267   6.341   0.555  1.8571 -0.8023 -1.1253
  409MOL0     H55164   5.392   6.165   0.678 -1.9143 -1.2685  0.1377
  409MOL0     H55165   5.471   6.221   0.523 -1.0988  1.8898  0.7375
  409MOL0     H55166   5.323   5.914   0.694 -0.7158  0.3823 -1.5691
  409MOL0     H55167   5.185   5.694   0.590  2.9095  1.1436  2.6263
  409MOL0     H55168   5.231   5.654   0.413 -0.0299  0.5654 -0.9371
  409MOL0     H55169   5.315   5.497   0.598  1.7848 -2.2288 -3.9038
  409MOL0     H55170   5.415   5.640   0.655  0.1352  0.3944 -0.2321
  409MOL0     H55171   5.548   5.643   0.453  1.2548 -1.3773  1.2603
  409MOL0     H55172   5.430   5.528   0.377 -2.4705  0.1007  0.9507
  409MOL0     H55173   5.601   5.364   0.448  1.1950 -0.5126  0.4006
  409MOL0     H55174   5.502   5.364   0.587  1.9062  1.8186  2.7253
  409MOL0     H55175   5.833   5.595   0.763 -0.1582 -2.0469 -3.3412
  409MOL0     H55176   5.896   5.592   1.111  1.4075  0.4760  0.4383
  409MOL0     H55177   6.030   5.536   1.005  1.7452  3.0334 -0.2816
  409MOL0     H55178   5.934   5.670   0.957  1.0105 -0.0453 -1.1490
  409MOL0     H55179   5.961   5.074   1.288  0.5197 -1.6636  1.2329
  409MOL0     H55180   6.010   5.016   1.515 -0.5686  0.5829 -0.5910
  409MOL0     H55181   6.285   5.129   1.662  1.7679 -5.8697  3.6887
  409MOL0     H55182   6.249   5.248   1.792  0.5108  0.7182  0.0254
  409MOL0     H55183   6.108   5.066   1.888  0.8092  1.5007  1.1761
  409MOL0     H55184   6.194   4.958   1.778  0.2790 -0.0705 -0.5328
  409MOL0     H55185   6.314   5.142   1.978 -0.3342  0.6104 -0.6670
  409MOL0     H55186   6.408   5.050   1.857 -0.1603  1.5712 -1.8239
  409MOL0     H55187   6.200   4.922   2.057  0.0712  0.5193  1.3380
  409MOL0     H55188   6.332   4.845   1.970 -0.8623 -1.0418 -0.0433
  409MOL0     H55189   6.391   5.042   2.186  1.4978 -0.1163 -0.2559
  409MOL0     H55190   6.503   4.933   2.107 -1.1775 -2.7820 -1.6770
  409MOL0     H55191   6.271   4.823   2.283 -0.0167 -1.4134  1.7092
  409MOL0     H55192   6.385   4.739   2.186 -1.8344  1.1245 -1.4291
  409MOL0     H55193   6.427   4.926   2.436  0.6940  0.4140  0.8828
  409MOL0     H55194   6.558   4.884   2.338 -1.8712  0.2946  0.2014
  409MOL0     H55195   6.520   4.635   2.377 -0.3942  1.9466 -1.7425
  409MOL0     H55196   6.394   4.667   2.497 -1.1799  0.2522 -1.8187
  409MOL0     H55197   6.034   5.439   1.595  1.5099 -0.6503  0.6919
  409MOL0     H55198   5.968   5.494   1.394  1.5920  0.4814  1.5489
  409MOL0     H55199   5.682   5.152   0.935  1.1138 -0.5554  0.2397
  409MOL0     H55200   5.603   5.244   0.727  0.7632 -1.8970  0.6564
  409MOL0     H55201   4.534   5.699   0.528 -2.4841 -2.5006  0.9113
  409MOL0     H55202   4.437   5.509   0.402  0.2688 -0.2651 -1.4547
  409MOL0     H55203   4.324   5.401  -0.090  1.1332 -0.1031  1.6361
  409MOL0     H55204   4.197   5.266  -0.265  0.9364  1.4974 -0.3371
  409MOL0     H55205   3.863   5.177  -0.292 -0.6759 -2.5004  3.4662
  409MOL0     H55206   4.016   5.236  -0.361  1.6136 -0.3687  1.0380
  409MOL0     H55207   3.903   4.946  -0.419 -1.8094  0.7914  1.2781
  409MOL0     H55208   4.052   5.023  -0.463 -1.4945 -1.4092 -1.8557
  409MOL0     H55209   3.914   5.200  -0.598 -2.2555  0.7255  0.2760
  409MOL0     H55210   3.784   5.106  -0.517 -0.2217  0.0364 -1.6421
  409MOL0     H55211   3.754   5.024  -0.728 -0.7610  1.7470  2.7959
  409MOL0     H55212   3.842   4.906  -0.642 -1.8039  1.2147  2.2684
  409MOL0     H55213   4.105   5.068  -0.949  1.3202  0.9237  1.2166
  409MOL0     H55214   3.936   5.127   0.022 -0.0153 -0.3876 -1.0566
  409MOL0     H55215   4.025   5.274   0.203  1.3105 -2.4881  0.4911
  410MOL0     O55216  10.931   3.343   4.598 -0.7725 -0.4968 -0.6010
  410MOL0     C55217  10.911   3.418   4.693  0.4901  0.7065  0.0205
  410MOL0     O55218  10.999   3.453   4.797 -0.3517 -0.6704 -0.3336
  410MOL0     C55219  11.138   3.434   4.783  0.5110  0.8483  0.4861
  410MOL0     C55220  11.212   3.468   4.669  0.2385 -0.1362  0.5038
  410MOL0     C55221  11.344   3.430   4.658 -0.3099  0.5376  0.4922
  410MOL0     C55222  11.415   3.395   4.773 -1.9596  1.5593 -0.7363
  410MOL0     O55223  11.556   3.387   4.774  0.5660  0.2305  0.5079
  410MOL0     C55224  11.635   3.448   4.664 -0.1258 -0.1282 -0.8846
  410MOL0     C55225  11.790   3.442   4.681 -0.2165 -0.4263  0.1994
  410MOL0     C55226  11.881   3.473   4.562  0.8802 -0.9937  0.3592
  410MOL0     C55227  12.028   3.461   4.592 -0.2016 -0.4062  0.1067
  410MOL0     C55228  12.100   3.449   4.454 -0.0446  0.3524  0.3140
  410MOL0     C55229  12.250   3.454   4.464  1.0573  0.3566  0.2204
  410MOL0     C55230  12.299   3.575   4.532 -0.3262  0.4329 -0.0009
  410MOL0     C55231  12.429   3.629   4.472 -0.2255 -0.5375 -0.2136
  410MOL0     N55232  12.474   3.749   4.544 -0.4207 -0.6742 -1.0264
  410MOL0     C55233  12.536   3.741   4.676  1.1056  1.3333  0.4056
  410MOL0     C55234  12.616   3.856   4.682 -0.1235  0.6775 -0.3589
  410MOL0     C55235  12.699   3.893   4.806  0.5191 -0.4919  0.7025
  410MOL0     C55236  12.789   4.026   4.799  0.0302 -0.4249  1.2531
  410MOL0     C55237  12.900   4.016   4.690  0.1523  0.0521  0.0798
  410MOL0     C55238  13.039   3.965   4.724  0.1311  0.0012 -0.2911
  410MOL0     O55239  13.048   3.827   4.763  0.0064 -0.6678 -0.4923
  410MOL0     C55240  13.003   3.737   4.673 -0.2304 -0.3688  0.2670
  410MOL0     C55241  13.035   3.749   4.538 -0.1375  0.2852 -1.1952
  410MOL0     C55242  12.996   3.651   4.440 -0.4281 -0.4347  0.6264
  410MOL0     C55243  13.032   3.673   4.295  0.1927 -0.4450  0.2621
  410MOL0     C55244  12.918   3.543   4.494  1.0155 -0.1901  0.0731
  410MOL0     C55245  12.859   3.444   4.410  0.0952  0.2965 -0.5822
  410MOL0     O55246  12.939   3.386   4.317 -0.2299 -0.9712 -0.3711
  410MOL0     C55247  12.908   3.281   4.235  0.8005  0.7057  0.8318
  410MOL0     C55248  12.830   3.173   4.279  0.5469 -0.4279  0.2828
  410MOL0     C55249  12.800   3.068   4.184 -0.6863 -0.4632  0.2890
  410MOL0     C55250  12.860   3.065   4.058 -0.2885 -0.2609 -0.2019
  410MOL0     O55251  12.859   2.954   3.976  0.4999  0.0874 -0.3072
  410MOL0     C55252  12.740   2.947   3.903  0.2945  0.2561 -0.0165
  410MOL0     C55253  12.743   2.843   3.790 -0.8502  0.9464  0.4125
  410MOL0     C55254  12.624   2.762   3.771  0.1795  0.3670 -0.2343
  410MOL0     C55255  12.673   2.639   3.692 -1.3167  0.0187  0.9177
  410MOL0     C55256  12.549   2.560   3.649  0.2941  0.2589 -0.5146
  410MOL0     C55257  12.577   2.414   3.614 -0.1284  0.4628  0.2441
  410MOL0     C55258  12.575   2.333   3.746 -0.2153 -0.4176 -0.3633
  410MOL0     C55259  12.602   2.174   3.724  0.8806  1.2406  0.4758
  410MOL0    Cl55260  12.560   2.078   3.860  0.8760  0.1186  0.2369
  410MOL0     C55261  12.936   3.168   4.014 -0.9265  0.3654 -0.1824
  410MOL0     C55262  12.956   3.278   4.106  0.3401  0.6632  0.0174
  410MOL0     O55263  12.741   3.400   4.436  0.3258 -0.2113  0.4670
  410MOL0     C55264  12.890   3.526   4.628  1.1592 -0.1191  0.6836
  410MOL0     C55265  12.941   3.621   4.721 -0.2826 -0.0119  0.5620
  410MOL0     N55266  12.586   3.932   4.573 -1.0190 -1.0461  0.0263
  410MOL0     N55267  12.503   3.876   4.492  0.5371 -0.1399 -0.2759
  410MOL0     C55268  11.345   3.363   4.886  0.3128  0.1021  0.4646
  410MOL0     C55269  11.210   3.374   4.890  0.4208 -0.5084 -0.5069
  410MOL0     C55270  10.772   3.471   4.696  0.5394 -0.4483 -0.2197
  410MOL0     C55271  10.741   3.581   4.771 -0.2866  0.2815  0.3189
  410MOL0     C55272  10.613   3.630   4.768 -0.3157  0.5539  0.1547
  410MOL0     C55273  10.507   3.580   4.704  0.4694  0.8666 -0.4042
  410MOL0     O55274  10.388   3.645   4.710 -0.7852  0.1646  0.1699
  410MOL0     C55275  10.284   3.591   4.631  0.2897 -0.1935  0.1064
  410MOL0     C55276  10.192   3.702   4.593  0.3067  0.4000 -0.5178
  410MOL0     C55277  10.079   3.746   4.692  0.0895  0.2409 -0.1246
  410MOL0     C55278   9.991   3.862   4.640 -0.3409  0.3028 -0.3563
  410MOL0     C55279   9.900   3.810   4.545  0.7487  0.2516  0.0266
  410MOL0     C55280   9.808   3.769   4.467 -1.3484 -0.4259  0.5992
  410MOL0     C55281  10.535   3.458   4.628  0.8203 -0.1140 -0.5548
  410MOL0     C55282  10.663   3.404   4.622 -0.5258  0.2341 -0.0633
  410MOL0     H55283  11.158   3.509   4.583  0.2715 -1.4258 -0.1474
  410MOL0     H55284  11.404   3.444   4.569  2.5963  0.5614  2.3166
  410MOL0     H55285  11.621   3.405   4.564  0.7633  3.1363 -2.5573
  410MOL0     H55286  11.598   3.551   4.655  1.4962  0.4334 -1.4766
  410MOL0     H55287  11.812   3.509   4.765  1.2139 -2.3468  1.4469
  410MOL0     H55288  11.824   3.343   4.713  3.2854  1.2774  2.3791
  410MOL0     H55289  11.861   3.402   4.481  0.0781  0.3881 -0.7078
  410MOL0     H55290  11.867   3.574   4.522 -2.5966 -1.3710  0.3024
  410MOL0     H55291  12.058   3.545   4.655 -4.0778  3.0585 -2.1652
  410MOL0     H55292  12.055   3.374   4.652  2.2231 -0.0235 -0.3013
  410MOL0     H55293  12.068   3.350   4.419 -1.0870 -1.0383  4.5932
  410MOL0     H55294  12.080   3.533   4.387  2.0371  2.0058  1.6179
  410MOL0     H55295  12.294   3.372   4.521 -0.2091  0.6567  1.6847
  410MOL0     H55296  12.283   3.447   4.360  2.3820 -1.6143  0.7137
  410MOL0     H55297  12.222   3.653   4.521  1.8063  2.7041  0.3509
  410MOL0     H55298  12.324   3.555   4.636  1.9422 -1.8144 -0.8776
  410MOL0     H55299  12.399   3.669   4.375 -3.4172  1.1661  1.3406
  410MOL0     H55300  12.516   3.566   4.450  0.9089  0.8015  0.2645
  410MOL0     H55301  12.537   3.660   4.748  4.4837  0.6389 -0.2626
  410MOL0     H55302  12.634   3.901   4.893  0.6744 -2.3304  1.0114
  410MOL0     H55303  12.761   3.804   4.821  1.8336 -0.2387 -2.4012
  410MOL0     H55304  12.837   4.036   4.897  0.8518 -2.1141  1.0668
  410MOL0     H55305  12.721   4.111   4.788  0.6929  0.0386  0.6887
  410MOL0     H55306  12.905   4.119   4.654 -2.0957 -0.1212 -0.9085
  410MOL0     H55307  12.857   3.956   4.609 -0.8064 -2.1508  2.1057
  410MOL0     H55308  13.069   4.012   4.818 -1.1043  0.6578 -0.1908
  410MOL0     H55309  13.119   3.983   4.652  0.5963 -0.3657  0.1370
  410MOL0     H55310  13.084   3.842   4.509 -3.7686  3.1772  0.9134
  410MOL0     H55311  13.118   3.738   4.278 -0.1408 -0.6739 -2.8818
  410MOL0     H55312  13.043   3.577   4.243 -0.2229 -1.2458  1.6075
  410MOL0     H55313  12.957   3.725   4.235  1.6654  1.1483 -0.2788
  410MOL0     H55314  12.797   3.175   4.383 -1.6015  0.8727 -0.3701
  410MOL0     H55315  12.731   2.986   4.203 -0.9625 -0.0747  0.9930
  410MOL0     H55316  12.663   2.937   3.979  0.2707  1.9533  0.2229
  410MOL0     H55317  12.720   3.043   3.854  0.4316  1.6821  2.5978
  410MOL0     H55318  12.784   2.879   3.695  4.5522 -0.3837  1.8846
  410MOL0     H55319  12.823   2.778   3.827  1.3878  0.1316 -4.8758
  410MOL0     H55320  12.553   2.817   3.709 -2.5107  0.6839  2.8644
  410MOL0     H55321  12.586   2.737   3.871  0.3426  4.4477  1.0571
  410MOL0     H55322  12.734   2.663   3.604 -1.7620  1.4510  0.9796
  410MOL0     H55323  12.739   2.574   3.750  2.1778  0.6469 -1.9645
  410MOL0     H55324  12.514   2.609   3.558  0.0205 -0.6797 -0.9193
  410MOL0     H55325  12.471   2.575   3.724  0.7002  0.1821 -0.0652
  410MOL0     H55326  12.500   2.377   3.545 -2.0488 -0.0778  2.5340
  410MOL0     H55327  12.673   2.412   3.562  0.4795 -0.4604  1.3652
  410MOL0     H55328  12.481   2.349   3.800 -1.1164 -0.5395 -1.8425
  410MOL0     H55329  12.645   2.384   3.813  1.0944 -0.8215 -1.3763
  410MOL0     H55330  12.705   2.158   3.689 -0.0798  1.1794 -2.5197
  410MOL0     H55331  12.543   2.138   3.640 -0.4536  2.1499  0.9847
  410MOL0     H55332  12.975   3.159   3.913  1.8116 -1.5217  0.9268
  410MOL0     H55333  13.031   3.350   4.077  0.9991  0.3479  0.8917
  410MOL0     H55334  12.833   3.448   4.676 -2.6647  1.4082 -0.9449
  410MOL0     H55335  12.896   3.602   4.818 -0.4334 -1.1607  0.2770
  410MOL0     H55336  11.397   3.339   4.978 -1.6458  1.5378  2.0314
  410MOL0     H55337  11.142   3.342   4.968 -1.0715  0.5026 -1.3337
  410MOL0     H55338  10.817   3.629   4.832 -1.2414  2.1542  0.0990
  410MOL0     H55339  10.598   3.728   4.812  0.2483  1.9977 -2.6213
  410MOL0     H55340  10.314   3.547   4.536 -0.9039 -1.2073  0.1626
  410MOL0     H55341  10.229   3.515   4.687 -1.0737  0.9881  0.4419
  410MOL0     H55342  10.133   3.675   4.505 -1.2945  2.5335 -0.1748
  410MOL0     H55343  10.261   3.786   4.580  2.5832 -1.6199 -2.1987
  410MOL0     H55344  10.125   3.772   4.788  0.6825  1.9710 -0.8416
  410MOL0     H55345  10.016   3.662   4.723  0.4196  0.9555  2.7897
  410MOL0     H55346  10.061   3.940   4.607  0.3771  0.2882  1.0667
  410MOL0     H55347   9.933   3.901   4.724 -0.3890 -0.2418 -0.1314
  410MOL0     H55348   9.739   3.741   4.389 -2.5055  3.1665  0.1290
  410MOL0     H55349  10.466   3.391   4.579  1.4973 -3.1094  2.2137
  410MOL0     H55350  10.692   3.323   4.556 -2.4655  2.9163 -4.6415
  411MOL0     O55351   0.206   4.440   8.264  0.1949  0.0674 -0.3383
  411MOL0     C55352   0.166   4.553   8.281  0.3528 -0.6308 -0.3319
  411MOL0     O55353   0.057   4.613   8.217 -0.3979  0.0509  0.5225
  411MOL0     C55354  -0.014   4.539   8.130  0.0767 -0.4606 -0.0517
  411MOL0     C55355   0.004   4.562   7.988 -0.5010 -0.2141  0.1807
  411MOL0     C55356  -0.058   4.484   7.889 -0.4514  0.3681 -0.7030
  411MOL0     C55357  -0.136   4.372   7.924 -0.3093  0.2330  0.2954
  411MOL0     O55358  -0.188   4.302   7.822 -0.3298  0.2400 -0.2515
  411MOL0     C55359  -0.324   4.260   7.846  0.0835  0.6691 -0.3776
  411MOL0     C55360  -0.386   4.207   7.712  0.8237  1.2082 -0.2733
  411MOL0     C55361  -0.536   4.148   7.724 -0.5162 -0.1941  0.7814
  411MOL0     C55362  -0.641   4.268   7.736  0.9713 -0.3512  0.5803
  411MOL0     C55363  -0.785   4.207   7.723  0.2065 -0.8386 -0.9262
  411MOL0     C55364  -0.887   4.313   7.736  0.7248 -0.0557  0.4859
  411MOL0     C55365  -0.883   4.413   7.623  0.0517  0.0396  0.6629
  411MOL0     C55366  -1.012   4.483   7.606  0.6114  0.4574  0.7362
  411MOL0     N55367  -1.044   4.557   7.729 -0.1092 -0.0908 -0.1164
  411MOL0     C55368  -0.986   4.680   7.773  0.2175  0.2753  0.0490
  411MOL0     C55369  -1.058   4.707   7.884 -0.4898 -0.0599 -0.8177
  411MOL0     C55370  -1.034   4.833   7.971 -0.6888  1.3528  0.2626
  411MOL0     C55371  -1.115   4.946   7.924 -0.1397 -0.0905 -0.1515
  411MOL0     C55372  -1.251   4.956   8.004 -1.1177  0.0660 -0.4509
  411MOL0     C55373  -1.369   4.896   7.925 -0.2110  0.5466  0.8337
  411MOL0     O55374  -1.489   4.898   8.009 -0.5036  0.1209  1.3875
  411MOL0     C55375  -1.514   4.792   8.092  0.2217 -1.0112  0.0553
  411MOL0     C55376  -1.458   4.661   8.088  0.3550 -0.4284 -0.0954
  411MOL0     C55377  -1.507   4.562   8.177  0.5107 -0.4895  0.3522
  411MOL0     C55378  -1.442   4.428   8.154 -0.3986  0.3376  0.2632
  411MOL0     C55379  -1.611   4.592   8.273 -0.1607 -0.7103 -0.3846
  411MOL0     C55380  -1.667   4.489   8.361  0.1196 -1.0097 -0.2170
  411MOL0     O55381  -1.783   4.518   8.420  0.1139 -0.9057  0.5987
  411MOL0     C55382  -1.804   4.459   8.538 -0.6880 -0.1835  0.7061
  411MOL0     C55383  -1.942   4.429   8.559 -0.3529  0.4508 -0.9361
  411MOL0     C55384  -1.987   4.385   8.692 -0.7860  0.8394 -0.0463
  411MOL0     C55385  -1.899   4.372   8.806 -0.1845 -0.6690  0.4458
  411MOL0     O55386  -1.929   4.358   8.937 -0.1318  0.4453 -0.7785
  411MOL0     C55387  -2.067   4.365   8.972  0.0891  0.4407  0.5195
  411MOL0     C55388  -2.110   4.513   8.967 -0.2603  0.5208 -1.0697
  411MOL0     C55389  -2.024   4.613   9.048 -0.3825  0.0251 -0.3941
  411MOL0     C55390  -2.101   4.754   9.052 -0.7307 -0.6719 -1.0224
  411MOL0     C55391  -2.075   4.841   8.934  0.4663 -0.6796  0.4729
  411MOL0     C55392  -2.117   4.982   8.957  0.2553 -0.6999 -0.1997
  411MOL0     C55393  -2.107   5.052   8.822  0.2612 -0.1616  0.4353
  411MOL0     C55394  -2.088   5.207   8.837  0.2605  0.0197  0.3653
  411MOL0    Cl55395  -2.148   5.297   8.694  0.3456  0.0166  0.2037
  411MOL0     C55396  -1.771   4.392   8.770  0.1524 -0.2416 -0.8204
  411MOL0     C55397  -1.719   4.450   8.652  0.2385 -0.0967  0.3525
  411MOL0     O55398  -1.599   4.386   8.381 -0.2782 -0.4173 -0.3721
  411MOL0     C55399  -1.667   4.724   8.266 -0.3705  0.1635 -0.3401
  411MOL0     C55400  -1.611   4.820   8.190 -0.2900  0.4450  0.2079
  411MOL0     N55401  -1.151   4.610   7.911  0.3772  0.8967 -0.0277
  411MOL0     N55402  -1.143   4.522   7.816  0.0466  0.2201 -0.4915
  411MOL0     C55403  -0.143   4.341   8.061 -1.1969  0.2425  0.0466
  411MOL0     C55404  -0.079   4.418   8.163 -0.0584  0.4036  0.2606
  411MOL0     C55405   0.235   4.630   8.392 -0.0592 -0.3656 -0.4878
  411MOL0     C55406   0.321   4.582   8.482 -0.0612  0.1880 -1.3768
  411MOL0     C55407   0.379   4.657   8.584 -0.4338  0.6456 -0.7046
  411MOL0     C55408   0.360   4.797   8.594 -0.9925  1.2887 -0.8419
  411MOL0     O55409   0.404   4.848   8.712 -0.2165 -0.4303  0.1419
  411MOL0     C55410   0.358   4.972   8.756 -0.1567 -0.3029  0.2545
  411MOL0     C55411   0.382   4.999   8.905  0.0819  0.0726 -0.8174
  411MOL0     C55412   0.287   4.912   8.994  0.9699 -0.1492 -0.5184
  411MOL0     C55413   0.227   4.981   9.123 -0.0695  0.2941  1.0532
  411MOL0     C55414   0.152   5.092   9.069 -0.1188 -0.5570 -0.9362
  411MOL0     C55415   0.075   5.191   9.053 -0.1287  0.5387 -0.1845
  411MOL0     C55416   0.283   4.851   8.500  0.2744 -0.3325  1.1507
  411MOL0     C55417   0.225   4.770   8.404  1.5450  0.0164  0.2571
  411MOL0     H55418   0.068   4.644   7.957 -0.4872 -0.3828 -0.2404
  411MOL0     H55419  -0.048   4.501   7.782 -1.3184 -2.3397 -1.3207
  411MOL0     H55420  -0.331   4.185   7.925  1.0567  0.6146 -0.3279
  411MOL0     H55421  -0.388   4.344   7.874  0.1888 -0.0774  2.3504
  411MOL0     H55422  -0.392   4.293   7.646  2.5819  1.4946 -0.1131
  411MOL0     H55423  -0.323   4.129   7.668 -1.6485  0.6875 -3.2403
  411MOL0     H55424  -0.553   4.109   7.623  0.5779  1.1237  0.0519
  411MOL0     H55425  -0.535   4.061   7.790  1.3136 -1.3508 -0.6572
  411MOL0     H55426  -0.633   4.323   7.830 -3.1191  2.8278 -0.6168
  411MOL0     H55427  -0.619   4.339   7.656  1.4986  0.4590  1.4293
  411MOL0     H55428  -0.809   4.164   7.625  0.3043  1.0687 -1.8323
  411MOL0     H55429  -0.802   4.125   7.794 -2.1757 -0.0083 -0.4528
  411MOL0     H55430  -0.983   4.262   7.722  1.3170 -0.7644 -1.2485
  411MOL0     H55431  -0.885   4.363   7.833  0.2597  4.3095 -1.5462
  411MOL0     H55432  -0.799   4.482   7.623 -1.2068  1.7511 -2.4786
  411MOL0     H55433  -0.879   4.365   7.524 -1.4053  1.0354  0.0971
  411MOL0     H55434  -1.081   4.399   7.590  2.3300 -1.1753  1.4256
  411MOL0     H55435  -1.004   4.543   7.516  0.6828  0.0787  0.4870
  411MOL0     H55436  -0.915   4.742   7.720  0.6632 -1.6012 -1.6637
  411MOL0     H55437  -1.049   4.804   8.076 -2.1503 -2.5839 -0.8319
  411MOL0     H55438  -0.931   4.864   7.956 -0.0527 -0.3655  0.8459
  411MOL0     H55439  -1.131   4.932   7.817  0.5276  1.3115 -0.4546
  411MOL0     H55440  -1.059   5.035   7.955 -1.8084  0.6257  0.9520
  411MOL0     H55441  -1.277   5.063   8.006  0.7168  0.5452  0.4631
  411MOL0     H55442  -1.239   4.913   8.104  2.5249  0.5755 -0.5589
  411MOL0     H55443  -1.358   4.797   7.880 -2.7044  0.4203  0.4081
  411MOL0     H55444  -1.380   4.955   7.834  2.1943  2.4770  1.6709
  411MOL0     H55445  -1.380   4.642   8.015  0.8951  1.2038  0.0368
  411MOL0     H55446  -1.524   4.363   8.123 -1.9215  1.1952  2.2455
  411MOL0     H55447  -1.361   4.421   8.081 -2.2323  1.1958 -2.0033
  411MOL0     H55448  -1.411   4.387   8.251  1.7120 -4.0811 -1.9624
  411MOL0     H55449  -2.019   4.436   8.483 -2.7777 -1.4834  1.1449
  411MOL0     H55450  -2.092   4.365   8.712 -0.8871 -0.2423 -1.4597
  411MOL0     H55451  -2.128   4.289   8.921  0.9535  0.0115  0.1075
  411MOL0     H55452  -2.057   4.317   9.070  0.1831 -0.3361  0.1451
  411MOL0     H55453  -2.106   4.557   8.867  1.0080  2.0699 -0.3749
  411MOL0     H55454  -2.212   4.520   9.007  0.3527  0.2935  0.6264
  411MOL0     H55455  -1.934   4.626   8.988 -1.3319  0.4795 -1.7760
  411MOL0     H55456  -1.998   4.578   9.148  0.8391 -2.0137 -1.3434
  411MOL0     H55457  -2.207   4.751   9.078 -0.2992  0.6505  1.1416
  411MOL0     H55458  -2.053   4.796   9.140 -1.7223  1.2175 -1.3321
  411MOL0     H55459  -2.109   4.797   8.840  0.3852 -2.3481  1.2560
  411MOL0     H55460  -1.966   4.843   8.919  0.1333 -1.0630 -2.4877
  411MOL0     H55461  -2.217   4.998   8.997  1.2631  1.7903  1.5050
  411MOL0     H55462  -2.036   5.028   9.013  1.1272 -2.1767 -0.2036
  411MOL0     H55463  -2.208   5.043   8.783  0.2084 -0.1373  0.5659
  411MOL0     H55464  -2.030   5.017   8.752  1.8503 -1.8428  2.8461
  411MOL0     H55465  -1.979   5.216   8.847  0.4070 -1.6546  0.5103
  411MOL0     H55466  -2.148   5.240   8.922 -0.7329  1.3674 -0.8178
  411MOL0     H55467  -1.691   4.397   8.843 -1.0639 -1.1413  0.6329
  411MOL0     H55468  -1.618   4.489   8.652 -0.1331  0.9256 -0.1443
  411MOL0     H55469  -1.743   4.749   8.339 -1.2908 -1.3236 -0.7518
  411MOL0     H55470  -1.655   4.919   8.196 -0.9144  0.1996 -0.2052
  411MOL0     H55471  -0.207   4.257   8.086  0.3814 -2.1013 -3.0961
  411MOL0     H55472  -0.068   4.398   8.269 -1.2556  1.3373  0.5867
  411MOL0     H55473   0.341   4.476   8.491  0.0758  0.4190  3.8187
  411MOL0     H55474   0.432   4.595   8.655 -1.9164 -2.1113 -1.8446
  411MOL0     H55475   0.388   5.056   8.693  2.7639 -0.3413  1.4333
  411MOL0     H55476   0.249   4.967   8.750 -0.2071  0.5383  0.3140
  411MOL0     H55477   0.368   5.107   8.918 -0.2732 -0.0365 -0.2079
  411MOL0     H55478   0.485   4.982   8.936 -0.5601 -1.2896  0.7766
  411MOL0     H55479   0.345   4.826   9.028  0.5944  1.0291  3.6095
  411MOL0     H55480   0.204   4.879   8.931  0.8476 -0.1788 -0.3398
  411MOL0     H55481   0.301   5.017   9.195 -0.0278  0.8024  0.7528
  411MOL0     H55482   0.158   4.901   9.154 -1.4384  0.5714 -1.0758
  411MOL0     H55483   0.021   5.280   9.029 -1.5255 -1.1024 -3.8889
  411MOL0     H55484   0.278   4.959   8.511  0.5989 -0.0912 -0.6885
  411MOL0     H55485   0.159   4.815   8.330  2.3047  1.2487  0.3092
  412MOL0     O55486   0.464  11.436   9.220 -0.2149 -0.4275  0.2614
  412MOL0     C55487   0.435  11.463   9.336  0.5305  0.0424  0.6940
  412MOL0     O55488   0.344  11.557   9.382 -0.3764 -0.0528 -0.2519
  412MOL0     C55489   0.273  11.628   9.293 -0.7933  0.2476 -0.2301
  412MOL0     C55490   0.142  11.597   9.259  0.2933  0.6586 -0.0551
  412MOL0     C55491   0.075  11.669   9.161  0.1465  0.0458  1.2159
  412MOL0     C55492   0.126  11.791   9.109  0.4751 -0.2643  0.2942
  412MOL0     O55493   0.053  11.867   9.022 -0.1333 -0.8408 -0.4979
  412MOL0     C55494   0.067  12.015   9.044 -0.3179  0.0424 -0.9894
  412MOL0     C55495  -0.064  12.079   8.987 -0.2285  0.2543 -0.3537
  412MOL0     C55496  -0.114  12.192   9.077 -0.3034  0.2019 -0.4786
  412MOL0     C55497  -0.179  12.305   9.018 -1.2353 -0.1830  0.8435
  412MOL0     C55498  -0.080  12.386   8.941 -0.6350 -0.3367 -0.1240
  412MOL0     C55499  -0.111  12.532   8.918  0.1958  0.4524  0.7622
  412MOL0     C55500  -0.181  12.566   8.790 -0.3202  2.3902 -0.0088
  412MOL0     C55501  -0.335  12.555   8.814  0.0430 -0.1103 -0.0579
  412MOL0     N55502  -0.403  12.591   8.688 -0.1186 -0.0822 -0.6866
  412MOL0     C55503  -0.408  12.728   8.650  0.5271 -0.5422  0.2004
  412MOL0     C55504  -0.468  12.714   8.529  0.0721 -1.1993  0.1273
  412MOL0     C55505  -0.503  12.832   8.433  0.4704  0.2808 -0.7080
  412MOL0     C55506  -0.595  12.935   8.516  0.1935 -0.0271  0.1669
  412MOL0     C55507  -0.696  13.024   8.428 -0.5715 -0.1385  0.6079
  412MOL0     C55508  -0.835  12.976   8.377 -0.5873 -0.3143  0.9785
  412MOL0     O55509  -0.887  13.063   8.277  0.1428 -0.3370 -0.2276
  412MOL0     C55510  -1.001  13.021   8.213 -0.1225  0.3669  0.5791
  412MOL0     C55511  -1.068  12.891   8.214  0.6762 -0.5522  1.1708
  412MOL0     C55512  -1.186  12.869   8.131  0.7042 -0.0345  0.7765
  412MOL0     C55513  -1.263  12.739   8.124 -0.3850  0.6730  0.2928
  412MOL0     C55514  -1.232  12.985   8.055 -0.3138  0.7535  0.4148
  412MOL0     C55515  -1.368  13.002   7.993 -0.2448 -0.2249  0.5203
  412MOL0     O55516  -1.389  13.088   7.889  1.1595  0.2067 -0.3552
  412MOL0     C55517  -1.510  13.074   7.824  0.4716  0.8869 -0.3233
  412MOL0     C55518  -1.620  13.138   7.880  0.3013 -0.1866 -0.1048
  412MOL0     C55519  -1.749  13.108   7.832 -0.5084  0.2131  0.4090
  412MOL0     C55520  -1.763  13.027   7.715  0.7619  0.2281 -0.2006
  412MOL0     O55521  -1.885  13.018   7.649  0.0093 -0.4321 -0.4470
  412MOL0     C55522  -1.985  12.963   7.725  0.3803  0.6184 -0.0761
  412MOL0     C55523  -2.127  12.993   7.675 -0.9344  0.3138  0.1297
  412MOL0     C55524  -2.146  13.143   7.677  0.4847  0.3574  0.2674
  412MOL0     C55525  -2.286  13.177   7.617 -0.8526 -0.4499  0.0093
  412MOL0     C55526  -2.343  13.317   7.646  0.5541  0.5503  0.5254
  412MOL0     C55527  -2.378  13.337   7.801 -0.4745 -0.0568 -1.5495
  412MOL0     C55528  -2.468  13.461   7.836  0.0489  0.2227  0.2322
  412MOL0     C55529  -2.422  13.589   7.765 -0.8748 -1.0169  0.1126
  412MOL0    Cl55530  -2.522  13.715   7.847  0.2485  0.4999 -0.4832
  412MOL0     C55531  -1.643  12.969   7.660 -0.4544  0.2445  1.1477
  412MOL0     C55532  -1.519  12.993   7.721 -0.2881 -0.2734 -0.0707
  412MOL0     O55533  -1.457  12.956   8.063  0.4877 -0.4416 -0.8538
  412MOL0     C55534  -1.152  13.110   8.054 -0.1885  1.0926 -1.0986
  412MOL0     C55535  -1.043  13.117   8.132 -0.5826 -0.1706 -0.1315
  412MOL0     N55536  -0.505  12.577   8.509 -0.2684 -0.4469  0.5640
  412MOL0     N55537  -0.475  12.505   8.604 -0.1514 -0.5549  0.5520
  412MOL0     C55538   0.252  11.826   9.145  0.3686 -0.9940 -1.2219
  412MOL0     C55539   0.332  11.740   9.227 -0.2082  0.1026 -0.4257
  412MOL0     C55540   0.525  11.401   9.433  0.5685  0.1844  0.4873
  412MOL0     C55541   0.636  11.316   9.394 -0.8312 -0.0115 -0.0903
  412MOL0     C55542   0.711  11.247   9.488 -0.3198 -0.4587  0.4085
  412MOL0     C55543   0.685  11.280   9.626 -0.2418  0.2015 -0.1520
  412MOL0     O55544   0.747  11.212   9.730  0.0860 -1.0547 -0.1201
  412MOL0     C55545   0.865  11.139   9.714  0.0203  0.5333  0.4250
  412MOL0     C55546   0.993  11.221   9.674 -0.6695  0.0855 -0.3626
  412MOL0     C55547   1.119  11.135   9.663  0.1198  0.0850 -0.5121
  412MOL0     C55548   1.131  11.067   9.517 -0.2789 -1.1248 -0.3052
  412MOL0     C55549   1.229  10.965   9.526 -0.3071  0.1389 -0.3788
  412MOL0     C55550   1.311  10.872   9.531 -0.4596  0.2105 -0.1920
  412MOL0     C55551   0.571  11.349   9.665  0.3655  0.2094 -0.2686
  412MOL0     C55552   0.499  11.420   9.572  0.2872 -0.5838  0.3708
  412MOL0     H55553   0.089  11.512   9.301  0.3459 -0.1254 -1.4961
  412MOL0     H55554  -0.022  11.629   9.134  2.4458 -2.7709 -4.5121
  412MOL0     H55555   0.068  12.028   9.153  1.1560  1.2429 -1.1211
  412MOL0     H55556   0.161  12.052   9.004 -1.5581  0.9980 -3.1804
  412MOL0     H55557  -0.035  12.122   8.890  1.8454  0.6915  0.4060
  412MOL0     H55558  -0.151  12.014   8.980 -1.9986  2.2654  1.5388
  412MOL0     H55559  -0.193  12.153   9.142  2.5795 -1.1503  2.5657
  412MOL0     H55560  -0.040  12.233   9.147 -2.9670  1.9084  1.5227
  412MOL0     H55561  -0.253  12.258   8.953  2.0039 -0.8938 -2.6948
  412MOL0     H55562  -0.231  12.366   9.093 -1.2756  0.2478  0.4639
  412MOL0     H55563   0.015  12.388   8.995 -2.7084  1.9172  3.9963
  412MOL0     H55564  -0.071  12.334   8.846 -0.3237 -0.1252 -0.2104
  412MOL0     H55565  -0.163  12.583   9.000 -1.8211  0.3402 -0.3718
  412MOL0     H55566  -0.018  12.589   8.907  2.7083 -3.5907 -1.7246
  412MOL0     H55567  -0.155  12.670   8.771 -0.1360  1.8913 -3.0674
  412MOL0     H55568  -0.155  12.504   8.704  2.5836 -1.1834  3.0925
  412MOL0     H55569  -0.373  12.623   8.891  0.0990 -1.0273  0.7940
  412MOL0     H55570  -0.351  12.450   8.840  1.4868 -0.4793 -0.5739
  412MOL0     H55571  -0.395  12.819   8.707  2.0568 -0.5608 -0.0741
  412MOL0     H55572  -0.409  12.885   8.415  2.4523 -2.3024  1.3200
  412MOL0     H55573  -0.550  12.796   8.341  0.0293 -0.6403 -0.1353
  412MOL0     H55574  -0.541  13.008   8.577  0.7117 -2.5185  2.9289
  412MOL0     H55575  -0.650  12.878   8.591 -1.9694 -0.9738 -2.0193
  412MOL0     H55576  -0.634  13.042   8.340  1.0069 -1.3445  1.4185
  412MOL0     H55577  -0.707  13.121   8.478 -1.4781  2.0993 -3.5386
  412MOL0     H55578  -0.893  12.986   8.470 -1.1417 -2.7304  0.9599
  412MOL0     H55579  -0.813  12.872   8.353  1.4337  0.0310  1.1481
  412MOL0     H55580  -1.026  12.802   8.259  4.3172  0.5109  0.2750
  412MOL0     H55581  -1.316  12.741   8.028 -0.1535 -0.2397  0.1417
  412MOL0     H55582  -1.202  12.648   8.128 -1.6353 -0.1923  0.3744
  412MOL0     H55583  -1.336  12.722   8.203 -1.4994 -0.6400 -0.9660
  412MOL0     H55584  -1.615  13.195   7.972 -0.6307 -0.4469  0.1207
  412MOL0     H55585  -1.841  13.140   7.879 -0.8222  1.5422 -1.0483
  412MOL0     H55586  -1.987  12.855   7.707 -2.8971  0.7367 -1.1017
  412MOL0     H55587  -1.966  12.979   7.831  0.5934  0.3568 -0.0715
  412MOL0     H55588  -2.123  12.959   7.572  1.9001 -2.3387  0.9586
  412MOL0     H55589  -2.201  12.940   7.736  1.1500  0.0658  2.6587
  412MOL0     H55590  -2.068  13.192   7.618  0.9385  1.2486  1.5447
  412MOL0     H55591  -2.129  13.172   7.781  0.5029 -2.6825  1.2258
  412MOL0     H55592  -2.270  13.160   7.510  2.0821  2.8152 -0.2491
  412MOL0     H55593  -2.367  13.118   7.661 -1.5767  2.9193  3.8066
  412MOL0     H55594  -2.428  13.329   7.578  1.5172 -3.1190 -1.6136
  412MOL0     H55595  -2.264  13.386   7.616 -1.4931  1.9750 -1.9170
  412MOL0     H55596  -2.431  13.247   7.834 -2.3703  0.5916 -2.6663
  412MOL0     H55597  -2.284  13.345   7.856  0.1806  0.7047 -2.7429
  412MOL0     H55598  -2.486  13.469   7.944  3.2951 -1.3746  1.0168
  412MOL0     H55599  -2.562  13.440   7.784  0.8365  0.3213 -1.2905
  412MOL0     H55600  -2.442  13.589   7.657  0.0638  0.9185 -0.1051
  412MOL0     H55601  -2.314  13.602   7.770 -1.0581  0.7267  0.3276
  412MOL0     H55602  -1.641  12.919   7.564  2.1556  2.1603  0.0676
  412MOL0     H55603  -1.434  12.931   7.693 -1.1755  0.0614 -3.9440
  412MOL0     H55604  -1.188  13.202   8.009 -2.3965  1.0080  0.3455
  412MOL0     H55605  -0.978  13.203   8.126 -2.4075  1.2239 -1.0188
  412MOL0     H55606   0.289  11.920   9.105  2.3424 -0.2915  1.8713
  412MOL0     H55607   0.435  11.771   9.239 -0.0636 -0.5274  0.0335
  412MOL0     H55608   0.664  11.279   9.296 -1.8251  0.1819 -0.4673
  412MOL0     H55609   0.804  11.200   9.456 -0.3236 -1.2992  1.5815
  412MOL0     H55610   0.869  11.091   9.812 -1.6467 -2.2697 -0.7535
  412MOL0     H55611   0.845  11.057   9.645 -0.3174  1.8669 -1.1424
  412MOL0     H55612   1.017  11.282   9.762 -0.0634 -2.9814  1.7429
  412MOL0     H55613   0.988  11.276   9.579  0.9248  0.2300 -0.3876
  412MOL0     H55614   1.119  11.050   9.731 -2.8822 -0.1455 -0.6658
  412MOL0     H55615   1.208  11.198   9.678  1.0641 -1.0165 -1.2643
  412MOL0     H55616   1.180  11.132   9.444  3.1302 -1.9098  1.0879
  412MOL0     H55617   1.037  11.027   9.480 -0.4483 -0.4851 -0.5742
  412MOL0     H55618   1.367  10.782   9.538 -0.4002  0.1139 -1.7463
  412MOL0     H55619   0.551  11.364   9.770 -2.7103  1.6294 -0.9520
  412MOL0     H55620   0.418  11.482   9.608  0.8652  1.1112 -1.1001
  413MOL0     O55621   3.171   8.335   2.124  0.4824  0.5206  0.3554
  413MOL0     C55622   3.299   8.332   2.133 -0.1549 -0.9203  0.6480
  413MOL0     O55623   3.368   8.329   2.248 -0.3052 -0.4659 -0.4920
  413MOL0     C55624   3.307   8.326   2.379  0.1311 -0.1983  0.8476
  413MOL0     C55625   3.180   8.363   2.414  0.5689 -0.1039  0.1677
  413MOL0     C55626   3.136   8.372   2.552 -0.0330  0.0398  0.4889
  413MOL0     C55627   3.224   8.335   2.655 -1.0763  0.8794  1.2313
  413MOL0     O55628   3.199   8.331   2.791  0.2492  0.1413  0.0020
  413MOL0     C55629   3.072   8.384   2.846 -0.3953 -0.4996 -0.7129
  413MOL0     C55630   3.043   8.344   2.993  0.5991  0.4069 -0.0262
  413MOL0     C55631   2.916   8.404   3.043 -0.2066 -0.5976  0.0331
  413MOL0     C55632   2.911   8.385   3.196  1.1898  0.0288  0.8069
  413MOL0     C55633   2.840   8.254   3.241  0.7453  0.4273 -0.4484
  413MOL0     C55634   2.770   8.256   3.378  0.0013 -0.5969  0.0809
  413MOL0     C55635   2.677   8.128   3.409 -0.1765  0.2481 -0.5562
  413MOL0     C55636   2.750   7.990   3.416  0.4944  0.1271  0.0354
  413MOL0     N55637   2.728   7.915   3.536 -0.1428  0.7819 -0.4052
  413MOL0     C55638   2.801   7.917   3.653  0.3465 -0.7756 -0.2350
  413MOL0     C55639   2.765   7.814   3.733  0.0915 -0.2046 -0.4258
  413MOL0     C55640   2.787   7.811   3.879  1.4907 -0.3253  0.0279
  413MOL0     C55641   2.855   7.682   3.928 -0.8322  0.4755  0.2698
  413MOL0     C55642   3.009   7.680   3.906  0.4655  0.0959 -0.5749
  413MOL0     C55643   3.078   7.605   4.016 -0.0463  1.7211 -0.0637
  413MOL0     O55644   3.190   7.534   3.953  0.0817  0.2153  0.4044
  413MOL0     C55645   3.251   7.431   4.023  0.1974  0.5272  0.1015
  413MOL0     C55646   3.300   7.451   4.150 -0.0131  0.4249  0.0255
  413MOL0     C55647   3.365   7.350   4.221  0.0980 -0.1239  0.4550
  413MOL0     C55648   3.418   7.391   4.359 -0.2817 -0.3964 -0.5229
  413MOL0     C55649   3.375   7.225   4.172  0.7071  1.8597  0.3271
  413MOL0     C55650   3.448   7.109   4.239 -0.1029 -0.0535 -0.4281
  413MOL0     O55651   3.492   7.009   4.167  0.1706  0.2983  0.4380
  413MOL0     C55652   3.544   6.898   4.228  0.2060 -0.6007  0.6955
  413MOL0     C55653   3.680   6.873   4.231  0.0996  0.4661 -0.8798
  413MOL0     C55654   3.727   6.769   4.313 -0.0277 -0.3654 -0.8452
  413MOL0     C55655   3.642   6.675   4.373  1.0146 -0.5072  0.6520
  413MOL0     O55656   3.680   6.587   4.469  0.3363 -0.9947  1.0065
  413MOL0     C55657   3.822   6.580   4.500 -0.5423  0.3489  0.5479
  413MOL0     C55658   3.839   6.480   4.606  0.2740 -0.0005 -0.4528
  413MOL0     C55659   3.786   6.347   4.565 -0.9630 -0.3884  0.5452
  413MOL0     C55660   3.772   6.256   4.686  0.4933  0.1829 -0.3737
  413MOL0     C55661   3.678   6.140   4.648 -0.6424  0.7138 -0.1016
  413MOL0     C55662   3.670   6.027   4.753 -0.0896  0.2178 -0.8862
  413MOL0     C55663   3.542   5.936   4.735  0.0387  0.2017  0.1674
  413MOL0     C55664   3.412   6.004   4.790  0.3649 -0.3338 -0.4342
  413MOL0    Cl55665   3.427   6.052   4.955 -0.2438 -0.2909  0.2080
  413MOL0     C55666   3.500   6.703   4.367  0.5407  0.9241  0.4326
  413MOL0     C55667   3.458   6.808   4.291  0.6488  0.0570  1.2327
  413MOL0     O55668   3.447   7.103   4.358 -1.0060  0.2792  0.6115
  413MOL0     C55669   3.311   7.196   4.046 -0.9491  0.3456 -0.5371
  413MOL0     C55670   3.249   7.297   3.974  0.6103  0.6462 -1.1586
  413MOL0     N55671   2.685   7.735   3.662 -0.3695 -0.2136 -0.6600
  413MOL0     N55672   2.669   7.786   3.547 -1.2313  0.7506 -0.4313
  413MOL0     C55673   3.356   8.316   2.622  0.4134 -0.4838  0.5380
  413MOL0     C55674   3.395   8.303   2.484 -0.6390 -0.2793 -0.0357
  413MOL0     C55675   3.378   8.309   2.015  0.4659 -0.4014  0.8334
  413MOL0     C55676   3.516   8.255   2.018  0.1496 -2.1045 -0.0550
  413MOL0     C55677   3.580   8.229   1.899  0.0383 -0.1069  0.5891
  413MOL0     C55678   3.537   8.282   1.777 -1.2256  0.0748 -0.9719
  413MOL0     O55679   3.607   8.274   1.652  0.7543 -0.0843  0.4590
  413MOL0     C55680   3.720   8.187   1.644  0.2751 -0.0765 -1.1941
  413MOL0     C55681   3.756   8.170   1.501  1.0283  0.3847 -0.5836
  413MOL0     C55682   3.747   8.289   1.399 -0.1170 -0.7208  0.2130
  413MOL0     C55683   3.823   8.255   1.269  0.1919  0.3927  0.1518
  413MOL0     C55684   3.962   8.289   1.301 -0.6864 -0.2579 -0.3227
  413MOL0     C55685   4.082   8.319   1.314  0.1220 -0.2935 -0.1610
  413MOL0     C55686   3.416   8.342   1.777  0.1860 -0.6170 -0.0885
  413MOL0     C55687   3.329   8.343   1.883  1.1135 -0.1382 -1.0877
  413MOL0     H55688   3.111   8.401   2.339 -3.2292 -0.0950  3.3322
  413MOL0     H55689   3.037   8.407   2.579  0.1056 -0.1395  1.2533
  413MOL0     H55690   3.070   8.493   2.853 -2.1730 -0.6244  4.3448
  413MOL0     H55691   2.991   8.351   2.779 -0.0703 -1.5618 -0.5974
  413MOL0     H55692   3.043   8.235   2.985 -1.4158  0.3850 -0.0922
  413MOL0     H55693   3.125   8.392   3.048  1.8950  2.8975 -3.7157
  413MOL0     H55694   2.915   8.510   3.016 -0.6018 -0.4136  0.7551
  413MOL0     H55695   2.829   8.357   2.998  0.3467  1.1625 -3.2363
  413MOL0     H55696   3.008   8.391   3.244  0.5165  1.1621  2.0829
  413MOL0     H55697   2.851   8.472   3.227  1.8971  0.6535  0.4574
  413MOL0     H55698   2.765   8.224   3.166  0.6887 -3.3813  0.9469
  413MOL0     H55699   2.917   8.177   3.243  2.5150  2.1031 -0.5131
  413MOL0     H55700   2.850   8.271   3.451  1.5863  2.6758 -2.0939
  413MOL0     H55701   2.707   8.346   3.381  0.7757 -0.0675  1.1798
  413MOL0     H55702   2.613   8.144   3.496  0.4914 -0.6273  0.1144
  413MOL0     H55703   2.603   8.123   3.329 -0.6761  0.3447 -0.1098
  413MOL0     H55704   2.856   7.988   3.391  0.2563  0.6251 -1.0654
  413MOL0     H55705   2.695   7.925   3.347  0.2835 -0.4764  0.7514
  413MOL0     H55706   2.866   7.996   3.690  1.5402 -1.6789 -0.3417
  413MOL0     H55707   2.827   7.909   3.909  0.6846  1.1555 -3.3352
  413MOL0     H55708   2.686   7.801   3.919  1.7010 -1.3558  0.3383
  413MOL0     H55709   2.824   7.595   3.871  0.1869 -1.8653  3.0453
  413MOL0     H55710   2.829   7.655   4.031  1.9324 -1.5839  0.5399
  413MOL0     H55711   3.040   7.785   3.904 -0.7204  0.5081  0.9310
  413MOL0     H55712   3.030   7.643   3.805  0.1804  1.1457 -1.0335
  413MOL0     H55713   3.004   7.535   4.055 -1.3725  1.7489 -2.3737
  413MOL0     H55714   3.090   7.670   4.103 -0.1567  3.7270 -1.4801
  413MOL0     H55715   3.284   7.542   4.207 -0.7140  0.6523 -0.5271
  413MOL0     H55716   3.411   7.498   4.376  1.1833 -0.2345 -0.7564
  413MOL0     H55717   3.350   7.348   4.433  1.2230 -0.7838  0.6943
  413MOL0     H55718   3.521   7.357   4.379 -0.4533  0.6715  2.6706
  413MOL0     H55719   3.765   6.933   4.198  2.3082 -2.1660 -0.3448
  413MOL0     H55720   3.834   6.755   4.325 -0.3852 -1.8651  1.1820
  413MOL0     H55721   3.891   6.566   4.416  2.2370  2.7693  2.1866
  413MOL0     H55722   3.852   6.678   4.539  1.8657 -1.1408  2.7547
  413MOL0     H55723   3.945   6.481   4.632  0.6964  0.3833 -2.0867
  413MOL0     H55724   3.785   6.516   4.694  0.7772 -1.8950  0.6797
  413MOL0     H55725   3.849   6.304   4.487 -0.5672 -0.8559  1.1086
  413MOL0     H55726   3.682   6.361   4.535 -0.7416  2.5496  0.8279
  413MOL0     H55727   3.868   6.225   4.727  0.3232  1.9421  1.5001
  413MOL0     H55728   3.718   6.312   4.763 -1.4283 -0.9193 -0.8490
  413MOL0     H55729   3.735   6.093   4.566  2.3117  0.5897  1.8733
  413MOL0     H55730   3.578   6.169   4.617 -0.9452 -2.0749 -2.1710
  413MOL0     H55731   3.755   5.958   4.758  0.1754  0.5079 -1.3464
  413MOL0     H55732   3.648   6.071   4.850 -0.2595 -3.2717  0.8062
  413MOL0     H55733   3.559   5.838   4.782  2.9153 -0.5632 -2.1445
  413MOL0     H55734   3.526   5.904   4.631  0.4954 -1.2605  0.5220
  413MOL0     H55735   3.337   5.925   4.778  1.5199 -1.5903  0.3571
  413MOL0     H55736   3.376   6.080   4.719 -1.3628  1.5587  2.2804
  413MOL0     H55737   3.426   6.651   4.426  1.5507  2.2073  2.9819
  413MOL0     H55738   3.353   6.836   4.281 -0.3937 -3.5271  0.5986
  413MOL0     H55739   3.321   7.096   4.004 -0.5911 -1.1076  2.6793
  413MOL0     H55740   3.197   7.272   3.883 -2.7017  1.5030  0.3694
  413MOL0     H55741   3.432   8.294   2.696  0.5088  2.0301  1.3141
  413MOL0     H55742   3.501   8.298   2.466 -0.7988  1.3503 -1.7031
  413MOL0     H55743   3.570   8.233   2.110  1.9398 -0.7670 -0.7198
  413MOL0     H55744   3.684   8.198   1.899  0.6006  1.7044  0.9084
  413MOL0     H55745   3.806   8.234   1.692  0.3235  0.0110 -1.3684
  413MOL0     H55746   3.697   8.089   1.687  0.6580 -0.2452 -1.3723
  413MOL0     H55747   3.692   8.095   1.453 -1.1510  2.4464 -1.1084
  413MOL0     H55748   3.859   8.134   1.506  1.1513  0.7289  4.0303
  413MOL0     H55749   3.796   8.379   1.438 -0.5273 -0.0417 -0.7873
  413MOL0     H55750   3.647   8.328   1.377  1.7110  2.5469 -3.6994
  413MOL0     H55751   3.791   8.325   1.193  1.6830  1.4401  0.4433
  413MOL0     H55752   3.805   8.154   1.230 -1.5919  0.9760 -0.6061
  413MOL0     H55753   4.185   8.324   1.343  0.0929  2.9619 -0.1990
  413MOL0     H55754   3.390   8.377   1.678  3.9985  1.7618 -0.4295
  413MOL0     H55755   3.230   8.387   1.873  0.8783 -1.0254 -3.1306
  414MOL0     O55756   0.705  11.031   1.687 -0.2592  0.1478  0.7045
  414MOL0     C55757   0.661  10.921   1.696  1.1818  0.2368  0.3107
  414MOL0     O55758   0.731  10.808   1.729 -0.2298 -0.0035 -0.0552
  414MOL0     C55759   0.869  10.831   1.741 -0.6718 -0.8532 -0.4031
  414MOL0     C55760   0.952  10.744   1.668 -0.4671  0.1637  0.1740
  414MOL0     C55761   1.087  10.748   1.702 -0.5477 -0.4958 -0.1005
  414MOL0     C55762   1.130  10.827   1.806 -0.9225  0.4952  0.1310
  414MOL0     O55763   1.258  10.847   1.859  1.4028  0.0010  0.3234
  414MOL0     C55764   1.362  10.776   1.803 -0.2389  0.9010 -0.4993
  414MOL0     C55765   1.422  10.845   1.681 -0.2364 -0.2851  0.3541
  414MOL0     C55766   1.387  11.001   1.670 -1.1386 -0.2408  0.3724
  414MOL0     C55767   1.497  11.064   1.570 -0.8457  0.2044  0.1373
  414MOL0     C55768   1.532  11.006   1.424 -0.1718 -0.6465 -0.1620
  414MOL0     C55769   1.568  11.119   1.338 -0.4403  0.3409  0.0256
  414MOL0     C55770   1.689  11.205   1.386  0.0960 -0.9185 -0.2794
  414MOL0     C55771   1.752  11.289   1.274  0.5530 -0.2881  0.0499
  414MOL0     N55772   1.862  11.226   1.196 -0.0930 -0.5487 -1.4259
  414MOL0     C55773   1.859  11.215   1.061 -1.0739  0.2024  0.4548
  414MOL0     C55774   1.990  11.197   1.020  0.5011 -0.7469 -0.0647
  414MOL0     C55775   2.034  11.162   0.892  0.8485  0.9469  0.8602
  414MOL0     C55776   1.946  11.206   0.778 -0.4432  0.4288  0.2927
  414MOL0     C55777   1.938  11.356   0.740 -0.5360 -0.0370  0.5462
  414MOL0     C55778   2.043  11.407   0.648 -0.6812 -0.9133 -1.0351
  414MOL0     O55779   2.038  11.341   0.525  0.3407  0.4254  0.6010
  414MOL0     C55780   1.993  11.419   0.418  0.8558  0.0325 -0.6166
  414MOL0     C55781   1.875  11.395   0.361  0.1187  0.1953  1.1535
  414MOL0     C55782   1.813  11.486   0.262  0.6643  0.4964 -0.6431
  414MOL0     C55783   1.687  11.451   0.169  0.1644  1.0296  0.0154
  414MOL0     C55784   1.885  11.603   0.231  0.4946  0.8587 -0.4252
  414MOL0     C55785   1.833  11.719   0.162  0.2926  0.2535  1.3394
  414MOL0     O55786   1.701  11.741   0.173 -0.1795  0.0698 -0.8855
  414MOL0     C55787   1.651  11.864   0.154  0.2290 -1.0674 -0.8169
  414MOL0     C55788   1.531  11.870   0.082 -0.2500  0.4799  0.6156
  414MOL0     C55789   1.477  11.997   0.060  1.2870  0.7205 -0.2858
  414MOL0     C55790   1.528  12.112   0.113  0.7378  1.2583  0.2178
  414MOL0     O55791   1.479  12.237   0.086 -0.3915 -0.1921  0.3939
  414MOL0     C55792   1.461  12.277  -0.052  0.1774 -0.6270  0.3966
  414MOL0     C55793   1.524  12.420  -0.031  0.9976  0.0226 -0.2002
  414MOL0     C55794   1.677  12.429   0.004 -0.0256 -0.1403  0.0197
  414MOL0     C55795   1.771  12.383  -0.107  0.2702  1.2408 -0.8303
  414MOL0     C55796   1.919  12.394  -0.046  0.3303 -0.1751 -0.2703
  414MOL0     C55797   1.953  12.535  -0.004  0.0955 -0.2697  1.2658
  414MOL0     C55798   1.936  12.642  -0.116  0.1177  0.1653  0.3413
  414MOL0     C55799   2.018  12.771  -0.089 -0.4334  0.4105  0.5474
  414MOL0    Cl55800   2.185  12.734  -0.101 -0.5050 -0.5301 -0.1324
  414MOL0     C55801   1.651  12.101   0.174  0.4322  1.3081  0.7230
  414MOL0     C55802   1.710  11.984   0.207 -0.8430 -0.2801 -0.0628
  414MOL0     O55803   1.903  11.796   0.097 -0.0661  0.1340 -0.2046
  414MOL0     C55804   2.016  11.613   0.280  1.6302  0.2659  1.0958
  414MOL0     C55805   2.072  11.527   0.377  0.3378 -0.0518 -0.9281
  414MOL0     N55806   2.070  11.216   1.130  0.8201  0.4094 -0.0272
  414MOL0     N55807   1.991  11.233   1.235  0.1450 -1.1520 -0.4207
  414MOL0     C55808   1.044  10.911   1.870 -0.5882  0.5985  0.2046
  414MOL0     C55809   0.915  10.909   1.847  0.1491 -0.3705 -0.2668
  414MOL0     C55810   0.521  10.887   1.673  0.6412  0.0884  0.4669
  414MOL0     C55811   0.426  10.981   1.637  0.3715  0.1521  0.1645
  414MOL0     C55812   0.293  10.937   1.603  0.6955 -0.5708  0.1210
  414MOL0     C55813   0.263  10.797   1.594  0.2072  0.4680  0.2056
  414MOL0     O55814   0.144  10.736   1.550  0.2030 -0.0615 -0.9994
  414MOL0     C55815   0.057  10.794   1.449  0.8687  0.0092  0.8568
  414MOL0     C55816   0.089  10.724   1.324  0.4953 -0.5222 -0.1731
  414MOL0     C55817   0.053  10.573   1.326  0.5369 -0.0178  0.0612
  414MOL0     C55818   0.112  10.486   1.434 -0.4641 -0.4834  0.0833
  414MOL0     C55819   0.064  10.349   1.400 -0.1103 -0.9117  0.6655
  414MOL0     C55820   0.014  10.238   1.387  0.2752 -0.7250 -0.6908
  414MOL0     C55821   0.368  10.711   1.631  0.3200 -0.1804  0.0987
  414MOL0     C55822   0.487  10.751   1.682 -0.1033  0.1719  0.1206
  414MOL0     H55823   0.917  10.677   1.590  4.7612 -1.2830 -1.3488
  414MOL0     H55824   1.149  10.692   1.633 -3.1296 -0.7800 -2.3876
  414MOL0     H55825   1.436  10.778   1.884  1.7237 -1.9190 -2.0525
  414MOL0     H55826   1.337  10.672   1.778 -1.1528  0.9247  0.2861
  414MOL0     H55827   1.531  10.845   1.681  0.0829  4.6163 -2.8314
  414MOL0     H55828   1.391  10.800   1.586  2.0730  3.5112 -2.5186
  414MOL0     H55829   1.294  11.020   1.615 -0.8249 -2.5078 -1.0640
  414MOL0     H55830   1.400  11.039   1.772  1.4608  0.9511 -0.3375
  414MOL0     H55831   1.475  11.171   1.566  2.2213  1.0933  3.0095
  414MOL0     H55832   1.590  11.048   1.626 -0.4465  3.9891  0.8022
  414MOL0     H55833   1.615  10.934   1.420  0.9339  0.4173  1.8858
  414MOL0     H55834   1.452  10.947   1.377 -0.1611  0.4823 -1.6819
  414MOL0     H55835   1.585  11.074   1.240 -0.7263  3.2052 -1.4181
  414MOL0     H55836   1.489  11.190   1.315 -0.9056 -0.4198 -0.7652
  414MOL0     H55837   1.659  11.286   1.453 -0.9172 -0.5355 -1.1607
  414MOL0     H55838   1.767  11.144   1.433 -1.0984 -0.2006  2.8614
  414MOL0     H55839   1.777  11.383   1.325 -2.7384  0.3443  0.7205
  414MOL0     H55840   1.662  11.310   1.216  1.1742 -2.2712 -1.7664
  414MOL0     H55841   1.766  11.202   1.006 -1.4220 -2.7563  1.5501
  414MOL0     H55842   2.126  11.219   0.873  2.1381 -0.9694  1.1393
  414MOL0     H55843   2.058  11.056   0.888  0.1626  0.7937  0.7830
  414MOL0     H55844   1.843  11.168   0.785  0.2991 -1.8975 -0.6058
  414MOL0     H55845   1.993  11.161   0.691 -0.4270  0.0746  0.4846
  414MOL0     H55846   1.935  11.413   0.833 -1.9696  1.8098 -0.5530
  414MOL0     H55847   1.839  11.381   0.701  0.1288  1.2919 -0.3753
  414MOL0     H55848   2.142  11.387   0.690 -0.8814 -0.0559 -0.1330
  414MOL0     H55849   2.028  11.515   0.646 -2.8756 -1.1556 -0.8982
  414MOL0     H55850   1.829  11.300   0.385 -0.2646 -0.8432 -2.9354
  414MOL0     H55851   1.603  11.520   0.179  0.0117  0.8160  0.2109
  414MOL0     H55852   1.713  11.447   0.062  1.9590 -1.9586  0.4407
  414MOL0     H55853   1.648  11.351   0.193 -4.7117  3.0501  1.7176
  414MOL0     H55854   1.485  11.788   0.028 -3.8612  2.2258  0.7631
  414MOL0     H55855   1.393  11.990  -0.008  1.6519 -0.0298 -0.6612
  414MOL0     H55856   1.505  12.212  -0.128 -0.3872 -1.4605  0.7775
  414MOL0     H55857   1.356  12.291  -0.080  0.4876 -1.4476 -1.2359
  414MOL0     H55858   1.495  12.485  -0.114 -0.3661 -2.6160 -1.9309
  414MOL0     H55859   1.479  12.460   0.060  1.8540  0.3071  0.1129
  414MOL0     H55860   1.695  12.368   0.093  0.9225  0.6150  0.3574
  414MOL0     H55861   1.695  12.537   0.016 -1.8922  0.0804  1.4671
  414MOL0     H55862   1.741  12.283  -0.141  0.7810 -0.2016  2.4924
  414MOL0     H55863   1.775  12.442  -0.198  1.4230 -2.2400 -3.2747
  414MOL0     H55864   1.990  12.361  -0.122  0.4249 -0.0118 -0.2528
  414MOL0     H55865   1.926  12.331   0.044  0.2488  2.4968  1.7431
  414MOL0     H55866   1.900  12.557   0.090 -0.8168 -2.3222  1.2955
  414MOL0     H55867   2.056  12.536   0.033 -0.4248  1.3889  2.8344
  414MOL0     H55868   1.836  12.685  -0.128  0.0954  0.3619  1.1785
  414MOL0     H55869   1.958  12.599  -0.214 -0.3080 -1.2900  0.8585
  414MOL0     H55870   1.996  12.814   0.009  3.3353 -1.7478  2.6066
  414MOL0     H55871   1.993  12.846  -0.164 -1.7232 -0.4454  0.0905
  414MOL0     H55872   1.708  12.188   0.205  0.0984  2.1746 -0.9780
  414MOL0     H55873   1.811  11.980   0.247 -0.4883  0.9935 -0.7754
  414MOL0     H55874   2.079  11.691   0.239 -0.8880  2.5350  1.2843
  414MOL0     H55875   2.168  11.549   0.424 -0.0310  1.1281 -0.6884
  414MOL0     H55876   1.070  10.974   1.955 -4.9038  2.4258  0.4279
  414MOL0     H55877   0.844  10.965   1.906 -1.5758 -0.1519 -2.4315
  414MOL0     H55878   0.459  11.085   1.634  1.6518 -0.0376  3.4033
  414MOL0     H55879   0.229  11.025   1.600  1.4706  0.1820  2.6221
  414MOL0     H55880  -0.048  10.778   1.476  0.9503 -2.0175  0.1344
  414MOL0     H55881   0.075  10.901   1.433  0.0464  0.3243  1.9179
  414MOL0     H55882   0.195  10.740   1.302  0.8977  2.7421  3.1191
  414MOL0     H55883   0.024  10.759   1.242 -0.6015  2.6456  1.8718
  414MOL0     H55884   0.087  10.525   1.233  1.2493 -3.2266  1.8318
  414MOL0     H55885  -0.055  10.561   1.341  0.2938 -2.2427 -2.6614
  414MOL0     H55886   0.073  10.509   1.534 -1.7277 -1.4107 -0.1687
  414MOL0     H55887   0.219  10.494   1.455 -0.6704  1.1248  0.6401
  414MOL0     H55888  -0.038  10.145   1.377 -0.4585 -1.1561  4.2546
  414MOL0     H55889   0.339  10.607   1.642  1.0124 -0.2347  1.7242
  414MOL0     H55890   0.554  10.667   1.695  0.7167  0.9053  0.7128
  415MOL0     O55891   7.548   9.254   4.690 -0.5067 -0.2715 -0.5837
  415MOL0     C55892   7.455   9.193   4.735 -0.3833 -0.3736 -0.1748
  415MOL0     O55893   7.326   9.235   4.745 -0.2022 -0.1917 -0.5907
  415MOL0     C55894   7.303   9.363   4.771  0.0380  0.1952  0.5265
  415MOL0     C55895   7.187   9.400   4.714  0.0545 -0.3516  0.2710
  415MOL0     C55896   7.140   9.526   4.718  0.1938 -0.1671  0.2530
  415MOL0     C55897   7.217   9.625   4.782 -0.3720  0.9775  0.5185
  415MOL0     O55898   7.177   9.749   4.804 -0.7404 -0.3091 -0.2820
  415MOL0     C55899   7.037   9.780   4.789  0.4992  0.4555 -0.0753
  415MOL0     C55900   6.939   9.717   4.892 -0.0438  0.4318  1.1185
  415MOL0     C55901   6.980   9.727   5.029  0.6625 -0.0948 -1.3643
  415MOL0     C55902   6.874   9.672   5.121 -0.5352 -0.7827  0.2691
  415MOL0     C55903   6.919   9.669   5.265 -1.4548  0.7405  0.8935
  415MOL0     C55904   6.812   9.613   5.355  0.0909 -0.5084 -0.0240
  415MOL0     C55905   6.870   9.608   5.496 -0.1271  0.2337  0.5909
  415MOL0     C55906   6.960   9.487   5.516 -0.1848  0.0043 -0.2204
  415MOL0     N55907   7.011   9.486   5.659 -0.7497  0.8281 -0.2646
  415MOL0     C55908   7.047   9.377   5.734 -0.6755 -0.2036  0.5377
  415MOL0     C55909   7.092   9.437   5.850  0.0026  0.4009 -0.8112
  415MOL0     C55910   7.128   9.369   5.982  0.0408  0.5247  0.0200
  415MOL0     C55911   7.280   9.374   6.026  0.2127 -0.7029 -0.4316
  415MOL0     C55912   7.358   9.291   5.924 -0.1679  0.3170 -0.6043
  415MOL0     C55913   7.499   9.231   5.965 -0.6876 -1.4087 -0.4097
  415MOL0     O55914   7.493   9.092   6.005  0.6349 -0.7705  0.5555
  415MOL0     C55915   7.601   9.013   6.028  0.3101  0.4617 -0.1243
  415MOL0     C55916   7.592   8.873   6.065  0.6007  0.2254 -0.6528
  415MOL0     C55917   7.697   8.795   6.112 -0.1242  0.4514  0.4346
  415MOL0     C55918   7.652   8.658   6.156  0.2855  0.8168 -0.1105
  415MOL0     C55919   7.828   8.856   6.108  0.6102 -0.1407  0.4999
  415MOL0     C55920   7.952   8.809   6.165  1.0155 -1.1241 -1.0220
  415MOL0     O55921   8.057   8.815   6.075  0.2953  0.5193 -0.2229
  415MOL0     C55922   8.190   8.781   6.090  0.2443  0.5322  0.5377
  415MOL0     C55923   8.266   8.755   6.207 -0.0571 -0.2951 -0.0906
  415MOL0     C55924   8.406   8.749   6.209  1.0909 -0.4217 -0.6294
  415MOL0     C55925   8.478   8.769   6.084  0.1703 -0.5380  0.2105
  415MOL0     O55926   8.610   8.792   6.087 -0.1777 -0.2435 -0.3670
  415MOL0     C55927   8.641   8.920   6.137 -0.7400  0.6439 -0.2933
  415MOL0     C55928   8.791   8.933   6.153  0.5276  0.6981 -0.6855
  415MOL0     C55929   8.872   8.932   6.016  0.2260  1.7935 -0.1841
  415MOL0     C55930   9.011   8.961   6.060 -0.0267 -0.1365 -0.4168
  415MOL0     C55931   9.089   8.997   5.935 -0.1610  0.6235 -0.9642
  415MOL0     C55932   9.238   9.007   5.955 -0.1637  0.4082 -0.1828
  415MOL0     C55933   9.278   9.118   6.046  0.3570 -0.4653 -0.6159
  415MOL0     C55934   9.300   9.066   6.191 -0.4663  0.6668 -1.0804
  415MOL0    Cl55935   9.300   9.193   6.324 -0.3070  0.3241 -0.3572
  415MOL0     C55936   8.404   8.781   5.962 -0.7355 -0.2721  0.0703
  415MOL0     C55937   8.266   8.778   5.971  0.8576  0.0043 -0.7321
  415MOL0     O55938   7.957   8.793   6.290 -0.3153  0.0404  0.5255
  415MOL0     C55939   7.841   8.992   6.068 -1.3247 -0.3935  1.1589
  415MOL0     C55940   7.731   9.065   6.034  0.3287 -0.2156  0.2223
  415MOL0     N55941   7.093   9.573   5.847 -0.4569 -0.0283 -0.2165
  415MOL0     N55942   7.033   9.598   5.733  0.2868 -0.0112 -0.6480
  415MOL0     C55943   7.351   9.593   4.830  1.0121 -0.2674  0.2342
  415MOL0     C55944   7.387   9.460   4.828  0.2227 -0.4399  0.1539
  415MOL0     C55945   7.485   9.050   4.785 -1.0977  0.3325  1.0059
  415MOL0     C55946   7.383   8.948   4.809 -0.5034 -0.3498  0.6274
  415MOL0     C55947   7.432   8.830   4.868  0.0305  0.0248  0.0365
  415MOL0     C55948   7.573   8.814   4.893 -0.0009 -0.0866  0.6690
  415MOL0     O55949   7.632   8.696   4.926  0.6373  0.1072 -0.7706
  415MOL0     C55950   7.553   8.579   4.907  0.2678 -0.1582 -0.2142
  415MOL0     C55951   7.635   8.459   4.951  0.1661  0.3167 -0.4720
  415MOL0     C55952   7.556   8.331   4.948  0.8771  0.6876 -0.1283
  415MOL0     C55953   7.575   8.230   4.839 -0.4078  0.3364 -0.9013
  415MOL0     C55954   7.471   8.255   4.740 -0.3148 -0.8252 -0.4538
  415MOL0     C55955   7.375   8.265   4.663 -0.7999  0.6363  0.7337
  415MOL0     C55956   7.665   8.914   4.875  0.6504  0.4926  0.0538
  415MOL0     C55957   7.625   9.025   4.817  0.7069 -0.4308 -0.0817
  415MOL0     H55958   7.135   9.334   4.645 -2.7727 -0.3852  2.2663
  415MOL0     H55959   7.045   9.548   4.671  1.2473 -1.0750 -2.4968
  415MOL0     H55960   7.033   9.888   4.804 -0.6100  0.3905  0.2226
  415MOL0     H55961   7.002   9.766   4.686 -3.3358  0.3925  1.0888
  415MOL0     H55962   6.837   9.750   4.872 -0.4129 -0.8434  0.8029
  415MOL0     H55963   6.945   9.609   4.874 -1.4567  0.3665  0.9506
  415MOL0     H55964   7.073   9.669   5.031  3.1515  3.5978  1.4391
  415MOL0     H55965   7.005   9.829   5.057  0.3026  0.0765 -1.6560
  415MOL0     H55966   6.778   9.721   5.106 -1.3270 -2.7815 -1.8939
  415MOL0     H55967   6.855   9.570   5.084  5.4844 -0.8696 -4.1061
  415MOL0     H55968   7.000   9.595   5.266 -1.7939  0.3156 -0.4802
  415MOL0     H55969   6.947   9.768   5.300  1.7290 -0.2584  1.5273
  415MOL0     H55970   6.721   9.673   5.347 -0.4526 -1.1508  1.1255
  415MOL0     H55971   6.790   9.512   5.319 -0.7971 -0.9244  1.5977
  415MOL0     H55972   6.934   9.696   5.510  2.4783 -1.0693 -2.0721
  415MOL0     H55973   6.794   9.601   5.574 -0.6269  0.9076  0.1754
  415MOL0     H55974   7.040   9.471   5.444  2.1214 -1.4805  2.4790
  415MOL0     H55975   6.898   9.397   5.512 -0.8897  0.2239  3.0038
  415MOL0     H55976   7.043   9.271   5.711  0.7207 -0.2784  0.5710
  415MOL0     H55977   7.061   9.410   6.059 -4.6414  0.9150 -3.8077
  415MOL0     H55978   7.102   9.263   5.974  2.8871 -0.4119  1.4231
  415MOL0     H55979   7.272   9.339   6.129  2.6761 -2.6637 -0.8014
  415MOL0     H55980   7.309   9.479   6.029  0.2166 -0.7141 -0.0592
  415MOL0     H55981   7.371   9.349   5.832  1.8150 -0.4241 -0.8426
  415MOL0     H55982   7.302   9.203   5.890  0.9913 -0.8423  0.3830
  415MOL0     H55983   7.559   9.282   6.040 -1.4309  0.8816 -1.2864
  415MOL0     H55984   7.561   9.238   5.875  0.4901 -3.7602  0.1411
  415MOL0     H55985   7.493   8.838   6.038  0.6009  0.3173 -0.7755
  415MOL0     H55986   7.703   8.638   6.250  2.2862 -1.5972 -1.6089
  415MOL0     H55987   7.546   8.632   6.160  0.7618 -1.8848 -2.3232
  415MOL0     H55988   7.692   8.584   6.087 -2.2001  1.4127 -2.3883
  415MOL0     H55989   8.213   8.735   6.300 -1.4776  1.4292 -0.4558
  415MOL0     H55990   8.466   8.735   6.298 -2.0823  0.3160  1.8016
  415MOL0     H55991   8.601   8.997   6.070  0.1290 -0.1408 -1.7810
  415MOL0     H55992   8.599   8.935   6.237  2.4613  0.2967  1.2299
  415MOL0     H55993   8.814   9.024   6.210  0.9514  0.6939 -0.8418
  415MOL0     H55994   8.838   8.855   6.213 -0.2368  1.6181  1.1966
  415MOL0     H55995   8.828   9.006   5.948  1.6496  0.6542 -2.4762
  415MOL0     H55996   8.878   8.834   5.969 -0.8779  1.6799 -0.1084
  415MOL0     H55997   9.006   9.042   6.133 -0.0390 -0.4732 -0.0395
  415MOL0     H55998   9.057   8.873   6.106 -0.1260 -1.6394 -2.9819
  415MOL0     H55999   9.060   9.100   5.911 -1.1620  1.2346  2.3703
  415MOL0     H56000   9.059   8.929   5.855  1.9303  0.0199 -1.2992
  415MOL0     H56001   9.286   8.911   5.980 -1.9918 -0.4923  0.0630
  415MOL0     H56002   9.279   9.021   5.855  1.6166 -1.2202  0.2625
  415MOL0     H56003   9.195   9.189   6.054 -1.0943 -1.7569 -2.9937
  415MOL0     H56004   9.363   9.173   6.004 -1.0419  2.4772  0.1798
  415MOL0     H56005   9.392   9.006   6.190 -0.7581  0.2166 -2.0330
  415MOL0     H56006   9.229   8.988   6.221  2.5220 -1.8312  0.0468
  415MOL0     H56007   8.460   8.792   5.870 -1.1882  2.5135  0.0311
  415MOL0     H56008   8.211   8.791   5.878  2.0370  0.8461 -1.3490
  415MOL0     H56009   7.938   9.037   6.054 -1.6463  0.5938  2.0027
  415MOL0     H56010   7.745   9.167   6.000 -5.0647  1.3271  1.6512
  415MOL0     H56011   7.414   9.669   4.875  2.0477 -0.6404 -0.5554
  415MOL0     H56012   7.489   9.434   4.854  2.0028  0.9143 -4.4604
  415MOL0     H56013   7.278   8.970   4.793 -1.1902  0.0713  4.5856
  415MOL0     H56014   7.352   8.758   4.886 -1.4990  1.6351 -0.0020
  415MOL0     H56015   7.456   8.582   4.958 -0.3076  0.9435 -1.3254
  415MOL0     H56016   7.537   8.577   4.799 -2.5797 -0.4261  0.1415
  415MOL0     H56017   7.660   8.490   5.053 -0.8634  3.5220 -1.0870
  415MOL0     H56018   7.730   8.448   4.898  0.0051 -1.9280 -0.4057
  415MOL0     H56019   7.452   8.355   4.971  1.3471  0.7730  2.0912
  415MOL0     H56020   7.582   8.267   5.032 -1.6389 -0.2569  0.0041
  415MOL0     H56021   7.567   8.125   4.871  1.8454  0.5381  0.5812
  415MOL0     H56022   7.678   8.231   4.802 -1.4612 -3.3131 -4.6974
  415MOL0     H56023   7.286   8.256   4.604 -0.3501  0.0097  0.1308
  415MOL0     H56024   7.768   8.894   4.902  1.9735  1.2283 -3.7940
  415MOL0     H56025   7.701   9.093   4.780 -0.7561  1.5883  0.4170
  416MOL0     O56026   3.837   3.548   9.846 -0.0112 -0.2466 -0.4051
  416MOL0     C56027   3.727   3.599   9.824  0.5104 -0.6459 -0.0343
  416MOL0     O56028   3.700   3.730   9.835 -0.1166 -0.3731 -0.7101
  416MOL0     C56029   3.808   3.821   9.817  0.1949  0.2161  1.0732
  416MOL0     C56030   3.787   3.946   9.859 -0.1303 -0.1823 -0.4626
  416MOL0     C56031   3.887   4.050   9.851  0.5524 -0.2042 -0.6409
  416MOL0     C56032   4.010   4.030   9.793  0.1349  0.1465 -0.3970
  416MOL0     O56033   4.106   4.128   9.776  0.2926  0.6193  0.3876
  416MOL0     C56034   4.133   4.217   9.885 -0.3052 -0.5642  0.0404
  416MOL0     C56035   4.187   4.362   9.834  0.4813  0.5409 -0.4276
  416MOL0     C56036   4.087   4.419   9.727 -0.7674 -0.4582  0.3951
  416MOL0     C56037   4.107   4.568   9.700  0.6159  0.2316 -0.6673
  416MOL0     C56038   4.025   4.615   9.586  0.2267 -0.3995 -0.4896
  416MOL0     C56039   4.034   4.530   9.456  1.0396  0.2062  0.1208
  416MOL0     C56040   3.992   4.622   9.345  0.1778  1.0569 -0.1130
  416MOL0     C56041   4.121   4.696   9.289  0.2912  0.2029 -0.0787
  416MOL0     N56042   4.101   4.758   9.153  0.0343  0.8142 -0.0394
  416MOL0     C56043   4.033   4.690   9.053 -0.5121  0.7317  0.3858
  416MOL0     C56044   4.026   4.784   8.954 -0.2621  0.1700 -0.6767
  416MOL0     C56045   3.944   4.756   8.831  0.0523 -0.2016  0.3816
  416MOL0     C56046   3.938   4.877   8.743 -0.3841  0.0493 -0.6318
  416MOL0     C56047   3.858   4.827   8.621  0.3098 -0.7486 -0.4315
  416MOL0     C56048   3.895   4.905   8.490  0.0013  0.1045  0.8515
  416MOL0     O56049   3.783   4.872   8.400 -0.3918  0.7689  0.1324
  416MOL0     C56050   3.787   4.763   8.308 -0.1609 -0.0415 -0.0391
  416MOL0     C56051   3.862   4.654   8.327  0.1326  0.0771  0.3029
  416MOL0     C56052   3.856   4.534   8.254  0.2006  0.3801  0.1825
  416MOL0     C56053   3.937   4.419   8.302 -0.0643  0.9798 -0.5788
  416MOL0     C56054   3.786   4.538   8.130 -0.3967  0.1133 -0.4163
  416MOL0     C56055   3.787   4.420   8.031 -1.0743  0.7335  0.2118
  416MOL0     O56056   3.699   4.443   7.926  0.0406 -0.4731 -0.4575
  416MOL0     C56057   3.737   4.388   7.805 -0.8517  0.6670 -0.5137
  416MOL0     C56058   3.864   4.402   7.757  0.0080  0.0643  0.3391
  416MOL0     C56059   3.895   4.345   7.632  0.0679 -0.3617 -0.1201
  416MOL0     C56060   3.803   4.260   7.564  0.2272  0.2886 -0.0314
  416MOL0     O56061   3.817   4.199   7.437 -0.2554  0.4412  0.4029
  416MOL0     C56062   3.957   4.186   7.389  0.2178  0.2390 -0.9679
  416MOL0     C56063   3.951   4.147   7.245 -0.2693  0.2156 -0.4847
  416MOL0     C56064   3.941   4.006   7.198 -0.2671 -0.5272  0.6486
  416MOL0     C56065   3.805   3.940   7.241 -0.0342 -0.0045 -0.1693
  416MOL0     C56066   3.772   3.810   7.163 -0.4127  0.5427 -1.3932
  416MOL0     C56067   3.730   3.834   7.024  0.0629 -0.3093 -0.1783
  416MOL0     C56068   3.707   3.700   6.949 -0.5032 -0.5922  1.2241
  416MOL0     C56069   3.670   3.742   6.809 -0.1303  0.2995 -0.4866
  416MOL0    Cl56070   3.624   3.597   6.707  0.0989 -0.0547  0.0183
  416MOL0     C56071   3.676   4.234   7.614 -0.3307 -0.0517  0.3648
  416MOL0     C56072   3.648   4.306   7.738 -0.4117 -0.4022 -0.2050
  416MOL0     O56073   3.846   4.311   8.056  0.3885 -0.4140 -0.2592
  416MOL0     C56074   3.710   4.656   8.108  0.6923  0.1850 -0.0355
  416MOL0     C56075   3.719   4.773   8.194  0.4140  0.9081  0.6407
  416MOL0     N56076   4.079   4.904   9.004 -0.2097 -0.2008  0.0054
  416MOL0     N56077   4.121   4.891   9.125 -0.0310  0.6771 -0.2504
  416MOL0     C56078   4.030   3.908   9.740  0.6054 -1.1765 -0.0202
  416MOL0     C56079   3.937   3.804   9.761 -0.4004  0.4838  0.9421
  416MOL0     C56080   3.608   3.512   9.808  0.4727 -1.2359  1.1274
  416MOL0     C56081   3.504   3.561   9.726  1.0913 -0.6708 -0.3079
  416MOL0     C56082   3.391   3.484   9.698  0.3254  0.5517  0.2094
  416MOL0     C56083   3.385   3.355   9.755 -0.1382 -0.0647 -0.9768
  416MOL0     O56084   3.270   3.293   9.731  0.3373  0.3413 -0.1113
  416MOL0     C56085   3.240   3.167   9.795 -0.4874 -1.0598  0.2946
  416MOL0     C56086   3.108   3.104   9.750  0.0382 -0.8124  0.4333
  416MOL0     C56087   3.089   2.956   9.770 -0.1937 -0.1279  0.0652
  416MOL0     C56088   3.121   2.863   9.650 -0.5591  0.3490  0.2102
  416MOL0     C56089   3.262   2.890   9.613  0.0978  0.3289 -0.1949
  416MOL0     C56090   3.374   2.903   9.589 -0.5497  0.4350  0.2898
  416MOL0     C56091   3.485   3.309   9.839 -0.1410  0.1553  0.3743
  416MOL0     C56092   3.597   3.385   9.867 -1.2899 -0.5050  0.4556
  416MOL0     H56093   3.687   3.972   9.894  0.5749  1.2827  0.5615
  416MOL0     H56094   3.859   4.151   9.881  1.9196  0.1090 -0.3633
  416MOL0     H56095   4.040   4.242   9.938 -1.2656 -0.6323 -1.5202
  416MOL0     H56096   4.204   4.159   9.944  2.6298 -0.5492 -3.1498
  416MOL0     H56097   4.190   4.430   9.920 -0.4481  2.0050 -1.5133
  416MOL0     H56098   4.291   4.344   9.806  0.3546  1.7644 -1.8234
  416MOL0     H56099   4.087   4.366   9.632  0.4257  0.3078 -0.0580
  416MOL0     H56100   3.985   4.410   9.766 -0.8331 -1.4498  0.0227
  416MOL0     H56101   4.083   4.625   9.790  0.1993  0.0464 -0.6557
  416MOL0     H56102   4.213   4.585   9.680  0.6270 -0.8206 -1.6048
  416MOL0     H56103   3.920   4.606   9.616  0.3623 -3.2806 -0.6501
  416MOL0     H56104   4.048   4.721   9.570  1.9398 -0.8906 -1.5599
  416MOL0     H56105   4.138   4.495   9.457  1.3249  1.0244  1.1662
  416MOL0     H56106   3.957   4.454   9.470  1.2209 -0.0439 -0.2335
  416MOL0     H56107   3.932   4.568   9.271  1.1979 -0.7382  0.2929
  416MOL0     H56108   3.925   4.699   9.383  1.6190  0.7006  3.5336
  416MOL0     H56109   4.200   4.622   9.272  0.5109  0.2286  0.8044
  416MOL0     H56110   4.156   4.774   9.357  2.4964 -0.8268  0.0550
  416MOL0     H56111   3.997   4.589   9.034  2.2491 -0.0596 -1.2690
  416MOL0     H56112   3.990   4.682   8.766  0.7906  3.4111 -3.6949
  416MOL0     H56113   3.847   4.726   8.872  0.4769  1.6770  3.0796
  416MOL0     H56114   4.035   4.916   8.709 -0.1335 -0.3563 -0.3894
  416MOL0     H56115   3.882   4.956   8.792  0.8913 -0.3846  1.6417
  416MOL0     H56116   3.752   4.855   8.624  0.6355  0.7939 -1.7797
  416MOL0     H56117   3.864   4.719   8.609 -0.3120 -1.1541  2.1849
  416MOL0     H56118   3.989   4.876   8.443 -1.8266 -3.9659 -0.6795
  416MOL0     H56119   3.899   5.014   8.503  2.2076  0.5146 -2.2436
  416MOL0     H56120   3.914   4.631   8.420 -1.0673 -1.9448  0.5459
  416MOL0     H56121   3.870   4.332   8.311 -0.4793  1.5161  2.4901
  416MOL0     H56122   4.018   4.397   8.232  2.9511  0.4697  2.7899
  416MOL0     H56123   3.985   4.433   8.399  0.3460 -1.1666 -0.4192
  416MOL0     H56124   3.942   4.456   7.809  2.0536 -0.4029 -2.0859
  416MOL0     H56125   3.992   4.378   7.596 -0.4092  1.0807 -0.1523
  416MOL0     H56126   4.011   4.281   7.384 -1.9909  1.6775  0.8225
  416MOL0     H56127   4.010   4.107   7.443  1.0645 -0.5574 -2.8798
  416MOL0     H56128   3.860   4.192   7.204 -1.4272 -0.6126  1.0792
  416MOL0     H56129   4.039   4.198   7.203 -0.9792  3.3875  1.5537
  416MOL0     H56130   4.014   3.943   7.250  1.8171  1.5256  0.3797
  416MOL0     H56131   3.948   4.014   7.089  0.6237  0.0291  0.7396
  416MOL0     H56132   3.815   3.916   7.348 -1.6299 -1.2745 -0.2654
  416MOL0     H56133   3.722   4.010   7.232  1.7441  2.0379 -1.4344
  416MOL0     H56134   3.692   3.756   7.214  0.2968  1.7189  1.1051
  416MOL0     H56135   3.860   3.745   7.154 -0.8159  0.1863 -3.1061
  416MOL0     H56136   3.639   3.894   7.026  0.2434  0.0190 -1.0434
  416MOL0     H56137   3.813   3.891   6.982 -0.4770  2.5805  2.3886
  416MOL0     H56138   3.621   3.646   6.991 -1.1600  0.7973  1.7384
  416MOL0     H56139   3.802   3.645   6.954  0.3062  0.8734  3.7473
  416MOL0     H56140   3.767   3.767   6.765  0.0165 -2.1828 -1.6956
  416MOL0     H56141   3.605   3.829   6.800 -2.6741 -1.6854 -3.2269
  416MOL0     H56142   3.608   4.168   7.561 -0.0715 -0.5637  0.6621
  416MOL0     H56143   3.558   4.279   7.792 -0.6681 -1.5197 -1.1509
  416MOL0     H56144   3.640   4.660   8.026 -1.2910 -4.6667  1.0959
  416MOL0     H56145   3.661   4.860   8.166  1.3577  0.9739 -1.2379
  416MOL0     H56146   4.130   3.890   9.701  0.6462 -2.4974  0.6482
  416MOL0     H56147   3.960   3.703   9.728 -1.7232  0.7939 -1.0637
  416MOL0     H56148   3.521   3.659   9.681 -2.4084  0.4708  0.6131
  416MOL0     H56149   3.319   3.510   9.621  2.4119  1.1440 -1.6326
  416MOL0     H56150   3.330   3.110   9.770  0.3991  1.0209 -1.4826
  416MOL0     H56151   3.227   3.180   9.903 -3.6271  1.8661 -0.2552
  416MOL0     H56152   3.099   3.124   9.643 -0.9054  1.3760  0.8602
  416MOL0     H56153   3.027   3.150   9.808  0.7118 -1.7007  2.1624
  416MOL0     H56154   2.985   2.932   9.794 -1.1978  0.4714 -3.1639
  416MOL0     H56155   3.143   2.936   9.863 -1.5731  2.4941  1.5641
  416MOL0     H56156   3.058   2.874   9.561 -0.3961  0.3602  0.0955
  416MOL0     H56157   3.108   2.757   9.673 -3.6718  0.3014 -1.2379
  416MOL0     H56158   3.472   2.909   9.547 -0.2188 -0.9481  0.8197
  416MOL0     H56159   3.477   3.213   9.888  1.1408 -0.7308 -1.0826
  416MOL0     H56160   3.667   3.339   9.936 -1.5594  0.6722  1.5494
  417MOL0     O56161   4.777  10.012   9.200  0.0671 -0.0943 -0.4851
  417MOL0     C56162   4.780  10.010   9.079  0.0840 -0.0993  0.3963
  417MOL0     O56163   4.887  10.040   9.000 -0.8490  0.3230  0.0018
  417MOL0     C56164   5.015  10.006   9.047 -0.2158 -0.2650 -0.5478
  417MOL0     C56165   5.073   9.880   9.015 -1.1498  0.1557  0.3767
  417MOL0     C56166   5.187   9.832   9.086 -0.2228 -0.7282 -0.1857
  417MOL0     C56167   5.240   9.907   9.191 -0.0476 -1.0009  0.6055
  417MOL0     O56168   5.343   9.857   9.265 -0.2121 -0.1357 -0.3378
  417MOL0     C56169   5.429   9.758   9.210 -0.2175  0.5925  0.1772
  417MOL0     C56170   5.553   9.740   9.308 -0.2885  0.5024  0.4210
  417MOL0     C56171   5.526   9.679   9.449  0.4963 -0.6467  0.1884
  417MOL0     C56172   5.480   9.535   9.434 -0.0956  0.3759  0.6822
  417MOL0     C56173   5.495   9.455   9.574  0.0730 -0.6184  0.7285
  417MOL0     C56174   5.638   9.419   9.604  0.0577 -0.3279 -0.1521
  417MOL0     C56175   5.646   9.321   9.728  0.5264 -0.1601  0.7646
  417MOL0     C56176   5.789   9.299   9.757 -0.3255  1.0715  0.3726
  417MOL0     N56177   5.792   9.189   9.853 -0.7872 -0.1890 -0.2393
  417MOL0     C56178   5.820   9.197   9.986  0.1391  0.4528 -0.2937
  417MOL0     C56179   5.808   9.069  10.038 -0.1214 -0.3588 -0.6528
  417MOL0     C56180   5.845   9.044  10.184 -0.2901  0.1241  0.5572
  417MOL0     C56181   5.753   8.931  10.260  0.7649 -0.3136  0.4859
  417MOL0     C56182   5.612   8.981  10.275 -0.1473  0.0365  0.8554
  417MOL0     C56183   5.598   9.106  10.354 -0.6753 -0.6331 -0.5508
  417MOL0     O56184   5.677   9.124  10.476  0.0258  0.2486  0.6629
  417MOL0     C56185   5.603   9.126  10.595 -0.5999  0.6944 -0.2195
  417MOL0     C56186   5.625   9.223  10.695 -0.3785 -0.1402 -1.1073
  417MOL0     C56187   5.553   9.230  10.822  0.8755 -0.1523 -0.1126
  417MOL0     C56188   5.606   9.329  10.927 -0.0236  0.4903 -0.6965
  417MOL0     C56189   5.453   9.129  10.844  0.0659  0.0534 -0.2247
  417MOL0     C56190   5.371   9.114  10.973 -0.6467 -0.2043  0.2161
  417MOL0     O56191   5.401   9.198  11.076 -0.0341 -0.0314  0.8058
  417MOL0     C56192   5.341   9.174  11.190  1.2116 -0.3506 -0.1864
  417MOL0     C56193   5.424   9.124  11.293 -0.4055 -0.6458 -0.3137
  417MOL0     C56194   5.370   9.083  11.415  0.0524 -0.4506  0.4928
  417MOL0     C56195   5.239   9.081  11.445  0.2113 -0.8983  1.4787
  417MOL0     O56196   5.203   9.021  11.563  0.7247 -0.0943 -0.3327
  417MOL0     C56197   5.063   9.030  11.595 -0.5367  0.2820  0.3448
  417MOL0     C56198   5.056   9.004  11.748 -0.3188  0.1543  0.5998
  417MOL0     C56199   5.156   9.084  11.828 -0.0698  0.0730  0.6061
  417MOL0     C56200   5.127   9.058  11.981  0.0842  0.5058 -0.5246
  417MOL0     C56201   5.205   9.166  12.054  0.2659 -0.8773  0.0802
  417MOL0     C56202   5.221   9.127  12.200 -0.9942 -0.8951  0.6520
  417MOL0     C56203   5.327   9.015  12.215  0.4669 -0.4174 -0.0105
  417MOL0     C56204   5.323   8.960  12.358 -0.7487 -0.2886  0.1774
  417MOL0    Cl56205   5.467   8.860  12.390  0.3017  0.0234  0.0649
  417MOL0     C56206   5.158   9.145  11.343  0.2677 -0.1622  0.0427
  417MOL0     C56207   5.199   9.202  11.221 -0.1450  0.7161 -0.4519
  417MOL0     O56208   5.280   9.036  10.979 -0.0294  0.6767 -0.1395
  417MOL0     C56209   5.420   9.047  10.737  0.0473 -0.1425 -1.0256
  417MOL0     C56210   5.497   9.039  10.617  0.7609 -0.5623 -1.1501
  417MOL0     N56211   5.780   8.981   9.933  0.1446 -0.5019  0.3426
  417MOL0     N56212   5.763   9.056   9.824  0.2002 -0.4311  0.5292
  417MOL0     C56213   5.185  10.029   9.217 -0.0540 -0.5871 -0.0363
  417MOL0     C56214   5.077  10.086   9.142  0.1375 -0.5846  0.4549
  417MOL0     C56215   4.656   9.982   9.009 -0.3442  0.3137  0.0053
  417MOL0     C56216   4.646   9.988   8.869  0.3063  0.5986 -0.0593
  417MOL0     C56217   4.526   9.970   8.796 -0.7920 -0.8525 -0.1385
  417MOL0     C56218   4.405   9.951   8.870  0.3324 -0.6510 -1.1012
  417MOL0     O56219   4.284   9.955   8.813  0.0358  0.2879 -0.0949
  417MOL0     C56220   4.256   9.851   8.715 -0.5486 -1.0787 -0.7787
  417MOL0     C56221   4.110   9.803   8.716  0.3383 -1.0980 -0.3191
  417MOL0     C56222   4.070   9.776   8.865 -0.1900  0.1816 -0.2449
  417MOL0     C56223   3.932   9.723   8.890 -0.9329 -0.3086  0.5096
  417MOL0     C56224   3.897   9.741   9.030  0.8917  1.4402  0.0328
  417MOL0     C56225   3.872   9.735   9.145  0.1565  0.4932 -1.0171
  417MOL0     C56226   4.420   9.951   9.012  0.5327  0.6651  0.3455
  417MOL0     C56227   4.545   9.954   9.083  0.4198  0.0680  0.4480
  417MOL0     H56228   5.026   9.819   8.939 -2.1296  0.5383  0.6627
  417MOL0     H56229   5.213   9.732   9.053 -0.7548 -1.0290  0.2882
  417MOL0     H56230   5.373   9.664   9.201 -2.0075  1.2811  2.7961
  417MOL0     H56231   5.465   9.793   9.113  1.5329 -1.6508 -0.0796
  417MOL0     H56232   5.629   9.682   9.256 -0.2258 -1.8345  2.8984
  417MOL0     H56233   5.595   9.839   9.329 -1.0437  0.9360 -0.0596
  417MOL0     H56234   5.609   9.682   9.520 -0.0074 -1.4166  0.8344
  417MOL0     H56235   5.453   9.743   9.500 -0.4199  0.8847 -2.8288
  417MOL0     H56236   5.379   9.548   9.394  1.2519  2.0408 -2.6541
  417MOL0     H56237   5.537   9.482   9.357 -2.9428 -1.3754 -0.3638
  417MOL0     H56238   5.444   9.512   9.652  0.3022 -0.7717  0.9905
  417MOL0     H56239   5.438   9.362   9.575 -0.3516 -0.3663  2.5841
  417MOL0     H56240   5.686   9.369   9.519  1.3246 -1.3044  1.1022
  417MOL0     H56241   5.702   9.504   9.630  2.4596 -1.8532 -0.8207
  417MOL0     H56242   5.593   9.371   9.810 -5.3976 -1.3318 -1.8681
  417MOL0     H56243   5.598   9.224   9.714 -0.8426  0.1088  3.1263
  417MOL0     H56244   5.834   9.385   9.808 -2.6612  2.7268 -0.2117
  417MOL0     H56245   5.837   9.279   9.661  0.7154  1.8677  0.7009
  417MOL0     H56246   5.859   9.288  10.030 -0.0377  0.1658  0.4670
  417MOL0     H56247   5.951   9.016  10.187  0.1059  1.1158 -2.0799
  417MOL0     H56248   5.853   9.144  10.228  0.3869  1.7095 -2.8450
  417MOL0     H56249   5.795   8.918  10.361 -0.9399 -2.0016  1.0436
  417MOL0     H56250   5.743   8.837  10.204  1.1735 -0.1857  0.1949
  417MOL0     H56251   5.553   8.902  10.323 -1.0294  0.2203  0.1012
  417MOL0     H56252   5.557   9.004  10.183 -3.5586  3.3867  3.4161
  417MOL0     H56253   5.492   9.123  10.374 -1.1570 -1.9063 -1.8477
  417MOL0     H56254   5.622   9.193  10.291  2.0738  0.0824  1.3025
  417MOL0     H56255   5.700   9.292  10.657  1.1974 -0.4026  1.3351
  417MOL0     H56256   5.529   9.401  10.955  1.1919  0.9058  1.8558
  417MOL0     H56257   5.631   9.283  11.023  0.2049 -0.3316 -1.1421
  417MOL0     H56258   5.692   9.382  10.886 -0.1377  1.4096  0.1974
  417MOL0     H56259   5.529   9.109  11.271  0.2833  0.0114  2.2674
  417MOL0     H56260   5.437   9.044  11.492 -0.2120 -0.7005  0.5974
  417MOL0     H56261   4.999   9.115  11.570 -3.2869 -0.9283  2.7542
  417MOL0     H56262   5.019   8.950  11.535  2.5070 -1.7544  0.5685
  417MOL0     H56263   4.958   9.023  11.791 -0.8705 -1.6393  0.2318
  417MOL0     H56264   5.091   8.903  11.772  1.4864  0.5177 -0.2848
  417MOL0     H56265   5.147   9.190  11.803  0.9704  0.4422  1.6523
  417MOL0     H56266   5.258   9.049  11.808 -1.4871 -2.9772 -2.2485
  417MOL0     H56267   5.021   9.065  12.005  0.2214  1.1592 -0.0915
  417MOL0     H56268   5.155   8.959  12.019 -1.7079  0.5759  1.1044
  417MOL0     H56269   5.159   9.264  12.039 -0.6202 -1.3145 -0.1209
  417MOL0     H56270   5.307   9.181  12.019 -0.1953  0.6354 -0.6940
  417MOL0     H56271   5.256   9.212  12.258 -1.3596  0.4564 -1.0264
  417MOL0     H56272   5.124   9.095  12.239 -2.4095  3.8003  1.5702
  417MOL0     H56273   5.421   9.067  12.197 -0.1445  0.9985  0.6883
  417MOL0     H56274   5.298   8.943  12.138 -5.0072 -0.3632  1.5646
  417MOL0     H56275   5.236   8.898  12.381 -1.5694  0.0515 -1.7860
  417MOL0     H56276   5.331   9.049  12.421  0.8437 -0.2229 -0.0648
  417MOL0     H56277   5.053   9.142  11.369  0.7287  3.4495  3.2190
  417MOL0     H56278   5.142   9.247  11.141 -0.6223 -3.4232 -2.7410
  417MOL0     H56279   5.350   8.965  10.750  1.5174 -1.1742  1.0840
  417MOL0     H56280   5.471   8.960  10.547 -1.2773 -0.5289 -0.4840
  417MOL0     H56281   5.235  10.089   9.292  1.2832 -1.4842 -0.1897
  417MOL0     H56282   5.040  10.184   9.170 -2.6925 -1.4751  0.1537
  417MOL0     H56283   4.734  10.003   8.806 -0.2497  1.1029 -0.7310
  417MOL0     H56284   4.522   9.987   8.689 -1.2689 -4.3587 -0.8265
  417MOL0     H56285   4.271   9.890   8.613 -1.9429  1.3755 -0.1513
  417MOL0     H56286   4.324   9.767   8.724  1.2632  0.4290  0.3072
  417MOL0     H56287   4.103   9.714   8.654 -1.7387 -0.7797 -0.6236
  417MOL0     H56288   4.042   9.879   8.676 -2.0535 -2.4811  0.8939
  417MOL0     H56289   4.069   9.860   8.935  0.6912  0.5919 -0.7068
  417MOL0     H56290   4.141   9.704   8.905  0.8699  1.7080  0.6917
  417MOL0     H56291   3.938   9.618   8.861  0.5463  0.3019 -1.6255
  417MOL0     H56292   3.860   9.774   8.824 -1.8514 -0.8468  1.0794
  417MOL0     H56293   3.834   9.736   9.245 -3.3084 -4.9399 -1.8767
  417MOL0     H56294   4.328   9.931   9.068  2.9411 -2.0058  3.8561
  417MOL0     H56295   4.545   9.950   9.191 -2.5801 -2.6446  0.5144
  418MOL0     O56296   6.414   1.191   9.412 -0.0778  0.7333  0.6935
  418MOL0     C56297   6.487   1.093   9.422 -0.2482  0.3932 -0.0216
  418MOL0     O56298   6.560   1.037   9.321  0.2530  0.5865 -0.3405
  418MOL0     C56299   6.550   1.083   9.191  0.5736  0.3763 -0.1546
  418MOL0     C56300   6.435   1.137   9.115  0.2105  0.1337 -0.9931
  418MOL0     C56301   6.445   1.172   8.979  1.3489  0.0212  0.4189
  418MOL0     C56302   6.554   1.152   8.902  0.0331 -0.5036  0.7227
  418MOL0     O56303   6.541   1.205   8.775  0.5567  0.5671  0.2852
  418MOL0     C56304   6.654   1.215   8.693 -0.8404  0.1625 -0.3947
  418MOL0     C56305   6.629   1.311   8.581 -0.6160  0.9996  0.0692
  418MOL0     C56306   6.754   1.332   8.486 -0.5805 -0.2210 -0.3124
  418MOL0     C56307   6.712   1.372   8.343 -0.8068 -0.1557  0.0987
  418MOL0     C56308   6.653   1.505   8.321  0.6073  0.0486 -0.3098
  418MOL0     C56309   6.727   1.628   8.387  0.8500  0.5322  0.4057
  418MOL0     C56310   6.637   1.745   8.426 -0.2902  0.9875 -0.6279
  418MOL0     C56311   6.548   1.788   8.313  0.7580 -0.3375 -0.6948
  418MOL0     N56312   6.454   1.903   8.356  0.3591  0.8905 -0.5445
  418MOL0     C56313   6.476   2.036   8.375  1.2737 -0.1478  0.1094
  418MOL0     C56314   6.353   2.079   8.389 -0.0368 -1.1694 -0.2184
  418MOL0     C56315   6.315   2.214   8.454 -0.6124  0.1923 -0.1237
  418MOL0     C56316   6.388   2.333   8.411 -0.5890  0.0060  1.1118
  418MOL0     C56317   6.348   2.450   8.500 -0.0827  0.6264 -0.2348
  418MOL0     C56318   6.423   2.575   8.487  0.6006  0.2238  0.5721
  418MOL0     O56319   6.502   2.607   8.598 -1.1216  0.4095  0.3479
  418MOL0     C56320   6.445   2.673   8.709 -0.5660  0.3038 -0.4765
  418MOL0     C56321   6.310   2.689   8.714  0.3770 -0.5973 -0.2173
  418MOL0     C56322   6.247   2.775   8.810  0.0510  0.4049 -0.2087
  418MOL0     C56323   6.099   2.787   8.805 -0.0497 -0.2895  0.0510
  418MOL0     C56324   6.331   2.833   8.914  0.7623  0.1420 -0.2596
  418MOL0     C56325   6.274   2.903   9.030  0.3944 -0.1694  0.5448
  418MOL0     O56326   6.158   2.877   9.062  0.6310  0.3841  0.4507
  418MOL0     C56327   6.122   2.895   9.195 -0.6519 -0.1479  0.3893
  418MOL0     C56328   6.049   3.005   9.237 -0.2033 -0.2207 -0.6965
  418MOL0     C56329   6.025   3.032   9.376  0.2804  0.1899  0.1834
  418MOL0     C56330   6.069   2.933   9.467 -0.0496 -0.6951 -0.3133
  418MOL0     O56331   6.043   2.957   9.598  0.3277 -0.2537  0.8661
  418MOL0     C56332   5.923   2.888   9.645  0.5372 -0.2081  0.0292
  418MOL0     C56333   5.888   2.942   9.784 -0.7483 -0.0034  0.2469
  418MOL0     C56334   5.994   2.895   9.896 -0.0497 -0.3970  0.1585
  418MOL0     C56335   5.962   2.939  10.035 -0.5388 -0.1010  0.0747
  418MOL0     C56336   5.956   3.093  10.065 -0.0363 -0.2800  0.5754
  418MOL0     C56337   5.928   3.114  10.219 -0.0001 -0.1693 -0.1413
  418MOL0     C56338   5.959   3.260  10.252 -0.9539  0.3184  0.0115
  418MOL0     C56339   5.855   3.372  10.263  0.4023  0.3312 -0.2716
  418MOL0    Cl56340   5.951   3.517  10.296  0.0192 -0.3734  0.4644
  418MOL0     C56341   6.123   2.807   9.422  0.0560  0.4280 -0.0045
  418MOL0     C56342   6.150   2.790   9.282 -0.0199 -0.1090 -0.3441
  418MOL0     O56343   6.355   2.974   9.092  0.0758 -0.4397 -0.9813
  418MOL0     C56344   6.471   2.808   8.907 -0.5507 -1.0838  0.2118
  418MOL0     C56345   6.529   2.728   8.807  0.5700 -0.0051 -0.5927
  418MOL0     N56346   6.266   1.972   8.385 -0.1053 -0.5673  0.4631
  418MOL0     N56347   6.324   1.862   8.384  0.1650 -0.2163 -0.5448
  418MOL0     C56348   6.669   1.102   8.970 -0.0125  0.0766  0.6501
  418MOL0     C56349   6.662   1.064   9.111 -0.0381  0.9024 -0.6748
  418MOL0     C56350   6.493   1.036   9.560  0.1044 -0.1004 -0.1630
  418MOL0     C56351   6.405   1.066   9.666  0.3225 -0.1422  0.1505
  418MOL0     C56352   6.431   1.016   9.794  0.0688 -0.1375  0.6433
  418MOL0     C56353   6.541   0.941   9.823  0.1755  0.3648  0.5343
  418MOL0     O56354   6.547   0.899   9.953  0.3975  0.0045  0.0537
  418MOL0     C56355   6.613   0.768   9.964 -0.8519  0.1882 -0.9381
  418MOL0     C56356   6.579   0.714  10.098 -0.7779  0.3593  0.0286
  418MOL0     C56357   6.621   0.789  10.215 -0.0524 -0.1018  0.2894
  418MOL0     C56358   6.624   0.707  10.344 -0.1517  0.2376 -0.7865
  418MOL0     C56359   6.502   0.738  10.418 -0.3107  0.3876 -0.4519
  418MOL0     C56360   6.391   0.770  10.469 -0.0488 -0.0904 -0.7129
  418MOL0     C56361   6.635   0.918   9.722  0.3107  0.0042 -0.0653
  418MOL0     C56362   6.619   0.967   9.599  1.2732 -0.5557 -0.0171
  418MOL0     H56363   6.345   1.162   9.169  0.8439  4.9726 -1.7742
  418MOL0     H56364   6.355   1.219   8.943  0.1480 -0.3637  2.7244
  418MOL0     H56365   6.741   1.252   8.747 -0.4153 -0.4803 -0.6263
  418MOL0     H56366   6.682   1.113   8.664 -1.0860 -1.4405  4.2166
  418MOL0     H56367   6.535   1.296   8.527 -0.6730 -1.5619  0.7305
  418MOL0     H56368   6.613   1.409   8.628 -2.6514  1.4380 -1.4380
  418MOL0     H56369   6.825   1.403   8.529  0.0539 -2.5542  2.8526
  418MOL0     H56370   6.817   1.242   8.485  0.9654  0.8193  0.2722
  418MOL0     H56371   6.800   1.358   8.279 -0.8541 -0.8817  0.1950
  418MOL0     H56372   6.640   1.297   8.311 -2.8683  1.9551 -0.5381
  418MOL0     H56373   6.654   1.518   8.212  1.1203 -1.0165 -0.4397
  418MOL0     H56374   6.547   1.499   8.349  0.3108 -1.3780 -1.6005
  418MOL0     H56375   6.776   1.579   8.472  1.3481 -1.3204 -0.8667
  418MOL0     H56376   6.807   1.666   8.322  1.5860  0.7466  1.4164
  418MOL0     H56377   6.573   1.710   8.507  1.5057 -0.9429  0.0405
  418MOL0     H56378   6.703   1.826   8.458  1.0312  0.0068 -0.7914
  418MOL0     H56379   6.491   1.708   8.265 -0.1153 -0.0510 -0.1524
  418MOL0     H56380   6.616   1.835   8.241  1.7615  1.0474  1.0674
  418MOL0     H56381   6.573   2.085   8.381  1.5179 -0.7427  1.2356
  418MOL0     H56382   6.211   2.231   8.424  0.2430 -0.0224 -3.5901
  418MOL0     H56383   6.321   2.201   8.563 -4.4584 -2.2413 -0.0016
  418MOL0     H56384   6.353   2.354   8.309 -0.9791 -1.7271  0.8475
  418MOL0     H56385   6.496   2.324   8.415 -0.3328  0.0721 -2.2255
  418MOL0     H56386   6.371   2.424   8.604 -3.5086  1.9952  0.9778
  418MOL0     H56387   6.239   2.459   8.502 -0.4628 -2.7004  0.0073
  418MOL0     H56388   6.365   2.665   8.461  1.9140  1.1300  0.6701
  418MOL0     H56389   6.480   2.563   8.394 -0.7170  1.2220 -0.4172
  418MOL0     H56390   6.239   2.635   8.652  0.0761 -0.4908  0.0324
  418MOL0     H56391   6.068   2.891   8.796 -1.8455 -0.7111  0.8336
  418MOL0     H56392   6.060   2.719   8.728 -1.0824 -0.4986  0.7384
  418MOL0     H56393   6.068   2.739   8.898  3.7726 -2.5628  0.3282
  418MOL0     H56394   6.031   3.081   9.162 -0.6831 -0.0337 -0.4000
  418MOL0     H56395   5.978   3.123   9.412 -0.4694 -0.1674  0.1190
  418MOL0     H56396   5.835   2.901   9.582  0.7271  0.7425 -0.0481
  418MOL0     H56397   5.951   2.782   9.650 -3.9364 -1.9448 -3.9427
  418MOL0     H56398   5.874   3.049   9.767  1.8196  0.1594 -1.3578
  418MOL0     H56399   5.786   2.915   9.812 -0.3432 -1.0568  0.7548
  418MOL0     H56400   6.086   2.948   9.871 -0.9314  1.1958  0.1837
  418MOL0     H56401   6.012   2.787   9.899  1.3422 -0.2098 -0.7172
  418MOL0     H56402   5.863   2.897  10.052 -0.1525 -2.5783 -2.7991
  418MOL0     H56403   6.034   2.906  10.110  0.7328  0.9438 -0.6378
  418MOL0     H56404   5.874   3.145  10.013  2.4572  0.9742 -2.4568
  418MOL0     H56405   6.046   3.149  10.036 -0.6448 -0.6044 -2.2166
  418MOL0     H56406   5.832   3.074  10.251  0.5238 -0.4022  1.2314
  418MOL0     H56407   5.997   3.059  10.285 -1.8049 -1.0844  1.0576
  418MOL0     H56408   6.045   3.296  10.196 -1.0359  0.6946  0.1247
  418MOL0     H56409   6.008   3.268  10.349  2.1801 -0.3731 -1.3893
  418MOL0     H56410   5.790   3.359  10.350  2.1598 -0.6100  0.9889
  418MOL0     H56411   5.802   3.371  10.168 -1.7868  1.4751  0.8656
  418MOL0     H56412   6.151   2.731   9.495 -3.2537 -2.0937 -1.1030
  418MOL0     H56413   6.194   2.696   9.248 -2.6644 -1.9678  0.9866
  418MOL0     H56414   6.524   2.850   8.992 -1.3089 -0.9810  0.6469
  418MOL0     H56415   6.635   2.703   8.806 -0.2160 -3.8989 -2.2223
  418MOL0     H56416   6.759   1.081   8.912 -0.7585  0.4094 -0.6596
  418MOL0     H56417   6.738   1.004   9.161  3.2230  3.7985 -1.7817
  418MOL0     H56418   6.313   1.121   9.647  1.0240  0.7255 -0.8615
  418MOL0     H56419   6.361   1.028   9.875  0.5621 -0.9789  1.2049
  418MOL0     H56420   6.573   0.697   9.891  1.0676  0.4188 -2.2921
  418MOL0     H56421   6.721   0.784   9.958 -0.4018 -1.6859  1.0078
  418MOL0     H56422   6.631   0.618  10.108  1.7022  1.5004 -0.9987
  418MOL0     H56423   6.472   0.689  10.101 -0.3177 -1.7029  1.0813
  418MOL0     H56424   6.546   0.867  10.227 -1.7076 -1.9568  3.1488
  418MOL0     H56425   6.722   0.827  10.195 -1.0035  3.1276  1.0980
  418MOL0     H56426   6.710   0.726  10.409 -1.1068 -3.4989  1.9114
  418MOL0     H56427   6.633   0.598  10.334  1.6833  0.0684  1.6681
  418MOL0     H56428   6.303   0.819  10.506  1.9685  1.4590  2.4214
  418MOL0     H56429   6.724   0.857   9.737 -1.2270 -2.1384  0.9142
  418MOL0     H56430   6.693   0.939   9.525  1.7657  1.8020 -0.5070
  419MOL0     O56431  11.199   7.691   6.587 -0.5138 -0.2575 -0.7632
  419MOL0     C56432  11.234   7.577   6.603  0.2534  0.4287 -0.5020
  419MOL0     O56433  11.365   7.531   6.583  1.4119 -0.2872 -0.7480
  419MOL0     C56434  11.458   7.625   6.574 -0.7920 -0.6373 -0.1077
  419MOL0     C56435  11.494   7.710   6.682  0.8561 -0.1916 -0.4850
  419MOL0     C56436  11.602   7.800   6.682  0.8458  0.6266 -0.1492
  419MOL0     C56437  11.682   7.801   6.566  0.0527 -0.5643  1.0544
  419MOL0     O56438  11.777   7.906   6.563 -0.0528 -0.3461 -0.8382
  419MOL0     C56439  11.910   7.857   6.522  0.2257  0.8830 -0.6927
  419MOL0     C56440  12.010   7.970   6.539  0.4531  0.3447  0.3692
  419MOL0     C56441  12.139   7.943   6.466  0.1700  1.4678 -0.3209
  419MOL0     C56442  12.260   8.034   6.496  0.1452 -0.5177 -1.2560
  419MOL0     C56443  12.367   7.993   6.395 -0.8626  0.3156 -0.5612
  419MOL0     C56444  12.509   8.041   6.424 -0.2792  0.4020  0.1388
  419MOL0     C56445  12.586   8.048   6.290  0.1633  1.0476  0.5073
  419MOL0     C56446  12.732   8.098   6.301 -0.1519 -0.4194  0.5913
  419MOL0     N56447  12.740   8.233   6.360 -1.2403 -0.1503  0.7564
  419MOL0     C56448  12.747   8.343   6.275  0.5110 -0.4671 -0.2844
  419MOL0     C56449  12.784   8.441   6.365  0.7462  0.1661 -0.3347
  419MOL0     C56450  12.798   8.582   6.326 -0.1401  0.2150 -0.3789
  419MOL0     C56451  12.712   8.676   6.403 -0.6012  0.4791 -0.0700
  419MOL0     C56452  12.727   8.820   6.363  0.3865 -0.1517 -0.4228
  419MOL0     C56453  12.652   8.918   6.456 -0.6136  1.4137  0.6120
  419MOL0     O56454  12.585   9.003   6.360 -0.3373  0.3564  0.6356
  419MOL0     C56455  12.646   9.120   6.329  0.4773  0.5519  0.1135
  419MOL0     C56456  12.627   9.226   6.411  0.1475  0.0371  0.8282
  419MOL0     C56457  12.677   9.350   6.371 -0.4170  0.2441  0.2760
  419MOL0     C56458  12.645   9.466   6.459  0.1327 -1.0284 -0.7865
  419MOL0     C56459  12.763   9.370   6.258  0.4063 -0.0265  0.4426
  419MOL0     C56460  12.793   9.507   6.198 -0.5601  0.0243 -0.1660
  419MOL0     O56461  12.694   9.598   6.203  0.1892 -0.2625 -0.4071
  419MOL0     C56462  12.700   9.711   6.132 -0.2013  0.1329 -0.1161
  419MOL0     C56463  12.714   9.836   6.188 -0.5997  0.5960 -0.2427
  419MOL0     C56464  12.710   9.953   6.110 -0.2038  0.3089  0.4995
  419MOL0     C56465  12.701   9.941   5.972 -0.2020  0.6484  0.3307
  419MOL0     O56466  12.684  10.046   5.868  0.5379 -0.0216 -0.5846
  419MOL0     C56467  12.720  10.184   5.900 -1.0177  0.0557  0.8140
  419MOL0     C56468  12.737  10.255   5.766  0.3318 -0.5093  0.6593
  419MOL0     C56469  12.747  10.402   5.769  0.0153  0.7487 -0.7230
  419MOL0     C56470  12.873  10.446   5.842 -0.9255  0.0512 -0.3245
  419MOL0     C56471  13.005  10.410   5.770  0.7204 -0.0951 -0.1636
  419MOL0     C56472  13.131  10.441   5.853  0.0129  0.3438  0.4281
  419MOL0     C56473  13.191  10.575   5.815  0.7735 -0.6771  0.2124
  419MOL0     C56474  13.294  10.611   5.930 -0.4839  0.1979 -0.1053
  419MOL0    Cl56475  13.199  10.628   6.086 -0.1371 -0.2698  0.1780
  419MOL0     C56476  12.689   9.816   5.920 -0.3379 -0.1377  0.4448
  419MOL0     C56477  12.694   9.705   5.993  1.0209  0.0265 -0.5549
  419MOL0     O56478  12.899   9.525   6.147 -0.8463  0.1319  0.0612
  419MOL0     C56479  12.792   9.256   6.192 -0.3508 -0.5350  0.3412
  419MOL0     C56480  12.723   9.138   6.214  0.0302  0.0905 -0.0791
  419MOL0     N56481  12.820   8.381   6.480  0.2050  0.1296  0.0307
  419MOL0     N56482  12.794   8.260   6.483 -0.1410  1.0899  0.2061
  419MOL0     C56483  11.653   7.709   6.462 -0.4905 -0.9823 -0.6160
  419MOL0     C56484  11.548   7.629   6.459  0.9436  1.0893 -0.8365
  419MOL0     C56485  11.130   7.470   6.619  0.1219  0.0128  0.4810
  419MOL0     C56486  10.994   7.494   6.654  0.3577 -0.6269  0.5115
  419MOL0     C56487  10.904   7.391   6.637  0.0607 -0.8528 -0.1642
  419MOL0     C56488  10.942   7.262   6.608  0.1154 -0.4316  0.0577
  419MOL0     O56489  10.830   7.182   6.609  0.1103  0.3617  0.2567
  419MOL0     C56490  10.824   7.076   6.532 -0.3536  1.8061 -0.2404
  419MOL0     C56491  10.778   7.109   6.393 -0.7220  0.0148  0.5525
  419MOL0     C56492  10.758   6.970   6.329 -0.6066 -0.0520 -1.0867
  419MOL0     C56493  10.628   6.957   6.255  0.6889 -0.2472 -0.3444
  419MOL0     C56494  10.524   6.969   6.362 -0.5394 -0.4294  0.2794
  419MOL0     C56495  10.446   6.970   6.462  1.2028 -1.1769  0.2867
  419MOL0     C56496  11.070   7.230   6.578 -0.4224 -1.1197  0.2866
  419MOL0     C56497  11.162   7.333   6.579 -0.8834 -0.4358 -0.6464
  419MOL0     H56498  11.433   7.716   6.771  2.4485  2.0130  0.5441
  419MOL0     H56499  11.616   7.872   6.763 -2.3869  3.4112 -1.8015
  419MOL0     H56500  11.927   7.773   6.591 -0.8465  1.5750  0.4536
  419MOL0     H56501  11.891   7.820   6.421 -1.9603  1.5650 -0.5628
  419MOL0     H56502  11.965   8.063   6.503 -0.4260 -0.2166 -0.0146
  419MOL0     H56503  12.024   7.979   6.647  0.8761 -0.6480  0.4075
  419MOL0     H56504  12.184   7.849   6.499  2.3937  2.0761 -1.4309
  419MOL0     H56505  12.119   7.937   6.358 -1.1606  0.3100 -0.0336
  419MOL0     H56506  12.239   8.140   6.479 -1.0700 -1.2676 -5.7769
  419MOL0     H56507  12.302   8.012   6.594  0.1142 -0.6484 -1.2716
  419MOL0     H56508  12.367   7.884   6.385 -0.1515  0.1433  1.0926
  419MOL0     H56509  12.331   8.049   6.308 -1.4406 -0.4727 -0.8423
  419MOL0     H56510  12.499   8.146   6.454 -2.6488  0.2305  0.1445
  419MOL0     H56511  12.571   7.985   6.494  2.2352  0.5433 -1.8105
  419MOL0     H56512  12.596   7.950   6.241  0.2741  1.4347 -0.2510
  419MOL0     H56513  12.533   8.110   6.219  0.7409 -2.8652 -3.8153
  419MOL0     H56514  12.774   8.107   6.200  0.6499  1.9800  1.0678
  419MOL0     H56515  12.787   8.027   6.364 -0.3307 -0.7549  0.3674
  419MOL0     H56516  12.709   8.348   6.173  1.9212 -0.3838 -0.8318
  419MOL0     H56517  12.902   8.615   6.327  0.0560 -0.3823 -0.5222
  419MOL0     H56518  12.766   8.585   6.221 -0.0363 -1.4232 -0.4844
  419MOL0     H56519  12.739   8.669   6.509 -1.2974 -1.5077  0.0059
  419MOL0     H56520  12.609   8.644   6.384 -0.7964  0.0234  1.6348
  419MOL0     H56521  12.683   8.836   6.264 -1.2791 -0.9620  0.1571
  419MOL0     H56522  12.828   8.859   6.348  0.1227  0.6524 -0.1581
  419MOL0     H56523  12.730   8.969   6.512  0.0418  0.4280  0.6203
  419MOL0     H56524  12.597   8.871   6.538  1.1606  0.6163  1.4054
  419MOL0     H56525  12.577   9.202   6.504 -0.1986  1.8158  1.1493
  419MOL0     H56526  12.565   9.522   6.411  0.1934 -0.3349 -0.0992
  419MOL0     H56527  12.614   9.431   6.558  2.9079 -2.4104 -0.2823
  419MOL0     H56528  12.733   9.531   6.472 -1.5982  1.2636  0.0879
  419MOL0     H56529  12.727   9.839   6.295 -0.1574 -0.0167 -0.2766
  419MOL0     H56530  12.705  10.052   6.155  0.8181  0.9594 -0.7473
  419MOL0     H56531  12.638  10.233   5.954 -0.5814  1.2545  0.4215
  419MOL0     H56532  12.811  10.183   5.961 -0.7342 -0.2471  0.3879
  419MOL0     H56533  12.822  10.208   5.715 -0.2457  0.6679 -1.5014
  419MOL0     H56534  12.655  10.233   5.697  1.3362 -4.0251  0.4010
  419MOL0     H56535  12.659  10.439   5.824 -0.4136 -0.9427 -0.2240
  419MOL0     H56536  12.740  10.443   5.668 -1.9200  0.2469 -0.8256
  419MOL0     H56537  12.873  10.553   5.862  1.7682  0.4715 -1.9687
  419MOL0     H56538  12.890  10.395   5.937  0.0261 -0.0893 -0.5527
  419MOL0     H56539  13.003  10.461   5.672  0.0150 -0.1965 -0.2046
  419MOL0     H56540  13.004  10.301   5.769  0.6318 -0.1421  1.7938
  419MOL0     H56541  13.097  10.451   5.956 -3.0800 -0.1010 -0.4366
  419MOL0     H56542  13.207  10.363   5.847 -0.4337 -0.3044  2.4325
  419MOL0     H56543  13.128  10.663   5.800 -0.2092 -1.3860  0.1365
  419MOL0     H56544  13.251  10.561   5.725 -0.0532 -2.3309 -0.1256
  419MOL0     H56545  13.362  10.695   5.915 -0.4645 -0.1429 -2.4489
  419MOL0     H56546  13.360  10.525   5.940  0.4122  1.1285  2.6773
  419MOL0     H56547  12.690   9.808   5.812 -0.8897  0.2936  0.4064
  419MOL0     H56548  12.701   9.607   5.945 -1.0591 -0.0994 -0.6976
  419MOL0     H56549  12.861   9.256   6.108  1.2646  0.8822  1.5821
  419MOL0     H56550  12.730   9.058   6.141  1.3178  1.2621 -1.2925
  419MOL0     H56551  11.708   7.711   6.369 -0.2693 -0.7507 -0.4834
  419MOL0     H56552  11.520   7.548   6.393  0.1025 -2.6369  3.5707
  419MOL0     H56553  10.961   7.590   6.693  0.7023 -1.1649  2.1961
  419MOL0     H56554  10.803   7.423   6.659  0.1710 -1.0794  0.7346
  419MOL0     H56555  10.915   7.016   6.527 -1.7363 -0.3925 -0.5912
  419MOL0     H56556  10.754   7.001   6.571  1.0562  0.1157 -0.8247
  419MOL0     H56557  10.863   7.159   6.344 -1.6823  1.3605  0.2072
  419MOL0     H56558  10.696   7.180   6.404  1.6355  3.0971 -0.1825
  419MOL0     H56559  10.767   6.885   6.397  0.4796 -0.2511 -1.4727
  419MOL0     H56560  10.840   6.954   6.259 -0.3728 -3.3401 -0.2105
  419MOL0     H56561  10.619   6.869   6.190 -3.3089  1.2615 -2.1683
  419MOL0     H56562  10.601   7.043   6.193 -1.3874  0.1986  1.0526
  419MOL0     H56563  10.374   6.982   6.541 -3.2651  0.9365 -3.6497
  419MOL0     H56564  11.105   7.132   6.548  3.9156  0.3324 -0.2328
  419MOL0     H56565  11.262   7.315   6.541 -0.5937  2.7847 -1.7407
  420MOL0     O56566   2.754   2.780   7.320 -1.1783  0.4644  0.3679
  420MOL0     C56567   2.754   2.662   7.352 -0.0293  0.9538  0.3635
  420MOL0     O56568   2.645   2.575   7.322  0.1855 -0.0388 -0.5696
  420MOL0     C56569   2.681   2.495   7.215 -0.1973 -0.5713  0.3195
  420MOL0     C56570   2.750   2.537   7.097 -0.3700  0.8979  0.5301
  420MOL0     C56571   2.765   2.439   6.998 -0.4371 -1.0122 -0.6859
  420MOL0     C56572   2.727   2.305   7.000  0.5054 -0.3116  0.4830
  420MOL0     O56573   2.721   2.229   6.889  0.4480  0.4097 -0.1954
  420MOL0     C56574   2.772   2.096   6.903  0.2754 -0.2144 -0.0258
  420MOL0     C56575   2.753   1.998   6.775  0.0022  1.0811  0.4601
  420MOL0     C56576   2.863   1.898   6.747 -0.9221  0.0355 -1.2749
  420MOL0     C56577   2.877   1.784   6.846 -0.7396 -0.5328  0.3193
  420MOL0     C56578   3.018   1.712   6.848 -0.3704 -0.3608  0.3903
  420MOL0     C56579   3.006   1.572   6.902 -0.3975 -0.4616 -0.2997
  420MOL0     C56580   3.120   1.482   6.846 -0.2750 -0.4295 -0.5175
  420MOL0     C56581   3.264   1.517   6.894 -0.9533  0.1180  0.3661
  420MOL0     N56582   3.371   1.434   6.830  0.0024 -1.1962 -0.2352
  420MOL0     C56583   3.374   1.408   6.697 -0.4237 -0.4142  0.2803
  420MOL0     C56584   3.483   1.314   6.696  0.6750  0.1840 -1.0990
  420MOL0     C56585   3.531   1.270   6.562 -1.6242  1.0642  0.2695
  420MOL0     C56586   3.682   1.277   6.565 -0.5366 -0.0605  0.3120
  420MOL0     C56587   3.740   1.406   6.513  0.1149  0.2369 -0.3014
  420MOL0     C56588   3.732   1.429   6.362  0.1575 -0.2827 -0.7008
  420MOL0     O56589   3.800   1.550   6.344 -0.6065  0.2313 -0.0394
  420MOL0     C56590   3.929   1.553   6.294 -0.9371 -0.6496  0.8142
  420MOL0     C56591   4.009   1.440   6.282 -0.4799  0.1623  1.3439
  420MOL0     C56592   4.140   1.447   6.241 -0.0873 -0.7503  0.3383
  420MOL0     C56593   4.219   1.319   6.243 -0.0698 -0.4267  0.3784
  420MOL0     C56594   4.191   1.578   6.208 -0.7732  0.8817  0.6796
  420MOL0     C56595   4.335   1.610   6.173 -0.1440 -0.7989  0.3213
  420MOL0     O56596   4.437   1.557   6.260  0.2449  0.8454  0.3155
  420MOL0     C56597   4.567   1.591   6.242 -0.3062  0.6179  0.5803
  420MOL0     C56598   4.634   1.545   6.132 -0.5424  0.3121  0.2403
  420MOL0     C56599   4.774   1.570   6.120  0.3920  0.1777 -0.2213
  420MOL0     C56600   4.844   1.656   6.208 -0.1271  0.5281  0.8370
  420MOL0     O56601   4.976   1.699   6.197  0.1099  1.0348  0.5892
  420MOL0     C56602   5.059   1.639   6.092  0.9781 -0.7111  0.2499
  420MOL0     C56603   5.030   1.688   5.954 -0.1585 -0.0197  0.1447
  420MOL0     C56604   5.132   1.636   5.846  0.0818 -1.1600 -0.8210
  420MOL0     C56605   5.089   1.681   5.709  0.4686 -0.3961 -0.3204
  420MOL0     C56606   5.142   1.595   5.592 -0.6195 -0.4443 -0.0646
  420MOL0     C56607   5.055   1.618   5.464  0.1172 -0.4619  0.3174
  420MOL0     C56608   5.089   1.750   5.394 -0.0324  0.0598 -0.4437
  420MOL0     C56609   5.009   1.767   5.272 -0.2445 -0.3229  0.1112
  420MOL0    Cl56610   4.839   1.794   5.317  0.0083 -0.1726  0.1040
  420MOL0     C56611   4.772   1.702   6.319 -0.7366 -0.4835 -0.0111
  420MOL0     C56612   4.634   1.681   6.324 -0.0171 -0.5516  0.6882
  420MOL0     O56613   4.350   1.687   6.078  0.8696  0.3673  0.6681
  420MOL0     C56614   4.103   1.684   6.220  0.5010 -0.9164  0.9962
  420MOL0     C56615   3.972   1.680   6.254 -0.3499  1.1198 -0.6603
  420MOL0     N56616   3.527   1.293   6.831 -0.1651 -0.2114  0.1809
  420MOL0     N56617   3.455   1.362   6.909 -0.3200 -0.5648  0.3777
  420MOL0     C56618   2.666   2.269   7.119  0.1235  0.2981  0.1940
  420MOL0     C56619   2.639   2.360   7.224  0.6217  0.3955  1.0575
  420MOL0     C56620   2.876   2.620   7.424  0.2095  0.4824  0.4860
  420MOL0     C56621   2.873   2.485   7.474 -0.1116 -0.1364 -0.9596
  420MOL0     C56622   2.982   2.434   7.543 -0.0753  0.5146  0.7648
  420MOL0     C56623   3.096   2.519   7.560 -0.1345  0.5051  0.5691
  420MOL0     O56624   3.217   2.474   7.612  0.4382 -0.4312 -0.6809
  420MOL0     C56625   3.212   2.412   7.742  0.6082  0.7892  0.3772
  420MOL0     C56626   3.352   2.360   7.784  0.4796 -0.5198  0.5126
  420MOL0     C56627   3.457   2.465   7.749 -0.4549  0.0187  0.6886
  420MOL0     C56628   3.596   2.438   7.806  0.2996  0.1664 -1.1310
  420MOL0     C56629   3.607   2.481   7.945  0.3368 -0.0345  0.9459
  420MOL0     C56630   3.604   2.548   8.046  0.2045  0.3914 -0.7814
  420MOL0     C56631   3.104   2.645   7.499 -0.9638  0.8874 -0.2591
  420MOL0     C56632   2.993   2.702   7.440  0.3918  0.7629 -0.6014
  420MOL0     H56633   2.794   2.633   7.074  1.6533 -0.2791 -0.8170
  420MOL0     H56634   2.816   2.481   6.912 -3.5303 -1.7175 -3.0608
  420MOL0     H56635   2.877   2.108   6.931  0.5954 -2.6768  0.0936
  420MOL0     H56636   2.722   2.042   6.984 -3.3587 -0.8206 -2.4401
  420MOL0     H56637   2.661   1.940   6.790 -1.0202  2.2766 -0.8392
  420MOL0     H56638   2.739   2.052   6.681  1.8846 -0.4275 -0.7740
  420MOL0     H56639   2.852   1.856   6.646  0.5103 -0.7324 -1.1303
  420MOL0     H56640   2.960   1.948   6.753 -1.7655  1.5783  0.9440
  420MOL0     H56641   2.852   1.830   6.942 -2.4026 -0.8945  0.0856
  420MOL0     H56642   2.801   1.709   6.825 -0.7569 -0.7172  1.0179
  420MOL0     H56643   3.056   1.719   6.746 -0.7672 -1.5045  0.1473
  420MOL0     H56644   3.090   1.765   6.911 -0.2631 -0.6072  0.4786
  420MOL0     H56645   2.992   1.576   7.010 -2.3844 -0.3092 -0.5239
  420MOL0     H56646   2.923   1.529   6.845  1.2054  2.6847 -5.7468
  420MOL0     H56647   3.113   1.376   6.873  2.4150 -1.3998 -3.1070
  420MOL0     H56648   3.110   1.493   6.738 -2.6357 -1.8562 -0.5114
  420MOL0     H56649   3.274   1.494   7.001 -0.4252  0.1443  0.3249
  420MOL0     H56650   3.285   1.623   6.879  1.3749 -0.5373 -1.5443
  420MOL0     H56651   3.314   1.444   6.614 -0.2608  1.2091  0.8432
  420MOL0     H56652   3.494   1.168   6.544  1.3435  0.2315 -1.9866
  420MOL0     H56653   3.492   1.331   6.480 -0.7487  0.0201 -0.9546
  420MOL0     H56654   3.729   1.196   6.508  0.4345 -1.1505  2.5134
  420MOL0     H56655   3.722   1.271   6.667 -0.3616 -3.7586  0.1538
  420MOL0     H56656   3.848   1.415   6.531  0.2871  1.6483 -1.7653
  420MOL0     H56657   3.682   1.486   6.560  0.4925  1.0240 -1.1376
  420MOL0     H56658   3.633   1.432   6.317 -0.4619 -0.1669  0.6345
  420MOL0     H56659   3.786   1.356   6.302 -1.3054 -1.2793 -0.8460
  420MOL0     H56660   3.969   1.344   6.316  0.4081 -0.9135 -0.4688
  420MOL0     H56661   4.152   1.232   6.234 -0.7593  0.2563 -1.4331
  420MOL0     H56662   4.277   1.318   6.150  0.7608  1.0406  0.8564
  420MOL0     H56663   4.279   1.300   6.332 -0.9541 -0.3609  1.0027
  420MOL0     H56664   4.585   1.494   6.050  0.3078  2.2054 -1.5416
  420MOL0     H56665   4.814   1.508   6.040  0.7179 -0.4983  0.4572
  420MOL0     H56666   5.162   1.673   6.110  1.5604  0.0741 -3.6293
  420MOL0     H56667   5.051   1.532   6.108 -1.3260 -0.3906  1.6202
  420MOL0     H56668   4.926   1.676   5.921 -0.2034  1.7731 -0.4844
  420MOL0     H56669   5.040   1.795   5.935  1.8454  0.2943  2.5220
  420MOL0     H56670   5.123   1.527   5.847  0.2346 -1.2298 -3.0652
  420MOL0     H56671   5.230   1.683   5.861 -0.3724  0.0321 -1.4259
  420MOL0     H56672   4.980   1.680   5.705  0.4404 -2.7955 -0.4558
  420MOL0     H56673   5.126   1.784   5.708 -0.0571 -0.0623  2.9358
  420MOL0     H56674   5.128   1.490   5.617 -1.7347 -0.5916 -1.2770
  420MOL0     H56675   5.251   1.606   5.589 -0.6280 -0.4072 -0.2280
  420MOL0     H56676   5.089   1.540   5.395  1.2158 -2.3625  2.8421
  420MOL0     H56677   4.949   1.602   5.485  0.4172 -3.4572 -0.0303
  420MOL0     H56678   5.196   1.751   5.369  0.0084 -1.8349 -0.4693
  420MOL0     H56679   5.064   1.834   5.458  0.5602  0.4786 -0.7492
  420MOL0     H56680   5.034   1.680   5.211  3.0376 -0.4567  1.4573
  420MOL0     H56681   5.057   1.857   5.232  1.6307 -1.1099  0.4965
  420MOL0     H56682   4.817   1.752   6.404 -1.3973  1.9201 -1.0007
  420MOL0     H56683   4.578   1.725   6.406 -1.3418  1.0897 -1.0176
  420MOL0     H56684   4.146   1.776   6.182  1.3702 -1.8900 -0.4972
  420MOL0     H56685   3.898   1.759   6.248 -3.7756 -1.5185  2.0032
  420MOL0     H56686   2.618   2.172   7.131 -2.6181  1.4304 -0.8444
  420MOL0     H56687   2.567   2.339   7.303 -0.2324 -2.9039 -0.4250
  420MOL0     H56688   2.797   2.409   7.455 -0.5699  0.1701 -0.3567
  420MOL0     H56689   2.964   2.333   7.580 -1.1540  1.6129  3.5465
  420MOL0     H56690   3.164   2.484   7.809  0.9744  2.5041 -1.1128
  420MOL0     H56691   3.146   2.325   7.738  1.0964  0.4685 -1.0231
  420MOL0     H56692   3.389   2.275   7.727  2.7990  0.8740 -0.1960
  420MOL0     H56693   3.356   2.341   7.892  1.6200  2.7993  1.1659
  420MOL0     H56694   3.432   2.569   7.769 -0.7038 -0.1216  1.1182
  420MOL0     H56695   3.469   2.456   7.641 -0.9052  1.4254  0.5116
  420MOL0     H56696   3.666   2.485   7.736 -2.5280 -0.4117 -4.6186
  420MOL0     H56697   3.620   2.332   7.812  3.6311  0.8522  0.1994
  420MOL0     H56698   3.580   2.597   8.138 -4.3572 -1.4969 -0.6914
  420MOL0     H56699   3.204   2.688   7.501  0.2986 -1.5832 -3.3021
  420MOL0     H56700   3.001   2.797   7.389  1.5772 -0.4041 -2.7061
  421MOL0     O56701   8.950  10.732   5.584 -0.0801 -0.6838  0.0412
  421MOL0     C56702   9.028  10.696   5.675 -1.6701  0.1415 -0.2403
  421MOL0     O56703   9.070  10.559   5.697 -0.4361 -0.3793  0.3458
  421MOL0     C56704   9.017  10.457   5.610 -0.5629  0.8412  0.4082
  421MOL0     C56705   9.116  10.368   5.570 -0.3846  0.0021 -0.3200
  421MOL0     C56706   9.090  10.268   5.480 -0.0530  0.5082  0.6223
  421MOL0     C56707   8.966  10.265   5.418  0.3618  0.6212  0.5150
  421MOL0     O56708   8.919  10.181   5.314 -0.2760 -0.2295 -0.0019
  421MOL0     C56709   9.013  10.098   5.252  0.4084  0.9900 -0.2309
  421MOL0     C56710   8.933  10.013   5.142 -0.4204 -0.4769  0.3114
  421MOL0     C56711   8.833   9.926   5.208  0.3870  0.4456  0.1433
  421MOL0     C56712   8.766   9.830   5.099  0.6819 -0.8754  0.0243
  421MOL0     C56713   8.672   9.731   5.168 -0.4285  0.6957 -0.9332
  421MOL0     C56714   8.615   9.624   5.071  0.2637 -0.3523  0.0745
  421MOL0     C56715   8.487   9.561   5.131 -0.2538  0.0193  0.7495
  421MOL0     C56716   8.398   9.507   5.012  0.4431 -0.3933 -0.7555
  421MOL0     N56717   8.468   9.400   4.930 -0.9083 -0.5480 -0.3351
  421MOL0     C56718   8.509   9.276   4.979 -0.3117 -0.5708 -1.4832
  421MOL0     C56719   8.592   9.227   4.877 -0.3793  0.5041  0.3977
  421MOL0     C56720   8.669   9.097   4.885 -0.2839 -0.0697  0.5803
  421MOL0     C56721   8.776   9.108   4.999  1.8120  0.3094 -0.3094
  421MOL0     C56722   8.715   9.063   5.132  0.1556 -0.0735  1.1010
  421MOL0     C56723   8.714   8.916   5.162  0.0669  0.3827 -0.3873
  421MOL0     O56724   8.847   8.865   5.176  0.0797  0.1694 -0.2535
  421MOL0     C56725   8.873   8.743   5.225 -0.6340 -1.0320  0.0147
  421MOL0     C56726   8.774   8.646   5.241  0.3174  0.7226  0.6592
  421MOL0     C56727   8.815   8.511   5.269 -0.6698 -1.1362 -0.2499
  421MOL0     C56728   8.722   8.393   5.264 -1.3758  0.3971  0.3234
  421MOL0     C56729   8.950   8.481   5.309 -0.5850 -0.5391 -0.4354
  421MOL0     C56730   8.999   8.362   5.358 -0.2121 -0.1593 -0.4803
  421MOL0     O56731   9.135   8.340   5.358 -0.0335  0.6046  0.8229
  421MOL0     C56732   9.185   8.248   5.437 -0.4956  0.8037 -0.4145
  421MOL0     C56733   9.263   8.141   5.393 -0.2724 -0.1787  0.1269
  421MOL0     C56734   9.306   8.036   5.478 -0.1094  0.2977 -0.0379
  421MOL0     C56735   9.281   8.046   5.611  0.6321  0.6667  0.1563
  421MOL0     O56736   9.334   7.954   5.700 -0.6525  0.0381 -0.4632
  421MOL0     C56737   9.240   7.842   5.721 -0.0302 -0.2964 -0.6723
  421MOL0     C56738   9.268   7.795   5.860  0.0959 -0.0482 -0.0693
  421MOL0     C56739   9.178   7.681   5.899  0.4554 -0.2693  0.9976
  421MOL0     C56740   9.217   7.613   6.032  0.0898 -0.2771 -0.1190
  421MOL0     C56741   9.094   7.518   6.066  0.1710  0.1804 -0.4209
  421MOL0     C56742   9.058   7.406   5.962  0.0922 -0.0189  0.4513
  421MOL0     C56743   8.932   7.316   6.010  0.1653  0.2802  0.7823
  421MOL0     C56744   8.894   7.223   5.894  0.0299 -0.9199  0.9498
  421MOL0    Cl56745   9.025   7.117   5.838  0.0500 -0.0386  0.1873
  421MOL0     C56746   9.222   8.163   5.663  0.2168  0.0144  0.3743
  421MOL0     C56747   9.168   8.256   5.578  0.4853 -0.0349  0.8676
  421MOL0     O56748   8.922   8.289   5.421 -0.1222 -0.0904  0.6828
  421MOL0     C56749   9.049   8.578   5.280  0.0323  0.0059  0.1052
  421MOL0     C56750   9.010   8.705   5.230 -0.1714 -0.3613  0.2519
  421MOL0     N56751   8.591   9.316   4.773  0.3395  0.4102 -0.2945
  421MOL0     N56752   8.520   9.415   4.805  0.2513 -0.3870  0.5263
  421MOL0     C56753   8.863  10.344   5.459  0.1128  0.0780  0.4058
  421MOL0     C56754   8.892  10.440   5.554 -1.1890 -0.5463 -0.0295
  421MOL0     C56755   9.066  10.798   5.782  0.4845  0.7617 -0.1579
  421MOL0     C56756   9.142  10.756   5.897 -0.6328 -0.7672  0.5339
  421MOL0     C56757   9.156  10.852   6.005  0.2037 -0.0762 -0.0673
  421MOL0     C56758   9.083  10.973   6.006 -0.0550 -1.1327  1.2250
  421MOL0     O56759   9.083  11.060   6.110  0.4566 -0.1188 -0.6765
  421MOL0     C56760   9.119  11.018   6.245  0.5039 -0.1254  0.8193
  421MOL0     C56761   9.026  10.906   6.305  0.2994  0.5962 -0.2333
  421MOL0     C56762   8.887  10.964   6.338 -0.6307  0.0974  0.2242
  421MOL0     C56763   8.779  10.861   6.350 -0.2334 -0.0168 -0.5918
  421MOL0     C56764   8.671  10.934   6.421  0.1791 -0.3447  0.4011
  421MOL0     C56765   8.583  10.976   6.484  0.4737 -0.1089  0.9337
  421MOL0     C56766   9.011  11.013   5.894 -0.2076 -0.5567 -0.2835
  421MOL0     C56767   9.006  10.927   5.784 -0.2101 -0.0716  0.8273
  421MOL0     H56768   9.219  10.393   5.597  0.1720 -1.0986 -1.3414
  421MOL0     H56769   9.178  10.210   5.455 -1.6243 -2.1428  0.8752
  421MOL0     H56770   9.086  10.161   5.200 -0.7983  1.3390 -1.5641
  421MOL0     H56771   9.070  10.039   5.324  0.1823 -0.5799 -1.2955
  421MOL0     H56772   8.885  10.077   5.068  0.1358 -1.5491 -1.0233
  421MOL0     H56773   9.013   9.951   5.100  1.4948  0.8871  1.7520
  421MOL0     H56774   8.892   9.866   5.278  0.5601  0.7207  0.2343
  421MOL0     H56775   8.754   9.976   5.265  0.4547 -1.4342  2.0131
  421MOL0     H56776   8.717   9.888   5.020  0.4926 -1.9081 -0.6282
  421MOL0     H56777   8.849   9.786   5.043 -0.0683 -1.0749 -0.9545
  421MOL0     H56778   8.736   9.694   5.248  0.1119  2.3974 -0.5540
  421MOL0     H56779   8.588   9.783   5.214 -2.8197 -2.1300 -1.7581
  421MOL0     H56780   8.589   9.675   4.977 -1.9820  3.1476  2.3889
  421MOL0     H56781   8.691   9.548   5.048 -1.4458 -2.0126 -0.3164
  421MOL0     H56782   8.518   9.496   5.213 -3.3720 -0.1685  1.8852
  421MOL0     H56783   8.424   9.638   5.176 -2.1533  0.4007 -2.2845
  421MOL0     H56784   8.387   9.591   4.944 -0.1487  1.1521  1.1506
  421MOL0     H56785   8.304   9.470   5.052  1.0685  0.1779  1.4062
  421MOL0     H56786   8.487   9.242   5.080  0.1886 -0.0344 -1.1856
  421MOL0     H56787   8.603   9.011   4.902 -0.3208 -0.7890 -2.5604
  421MOL0     H56788   8.718   9.076   4.789 -2.4396 -1.2420 -0.3478
  421MOL0     H56789   8.813   9.211   5.005 -2.1279  1.8705  0.3135
  421MOL0     H56790   8.860   9.040   4.977  1.4618 -0.4032  0.4785
  421MOL0     H56791   8.609   9.092   5.140  0.6720  2.0390  0.8964
  421MOL0     H56792   8.770   9.119   5.209 -0.2855  2.5635 -0.3630
  421MOL0     H56793   8.666   8.860   5.081  1.6959 -1.9899  0.1865
  421MOL0     H56794   8.668   8.897   5.259  0.5650 -1.1707 -0.4287
  421MOL0     H56795   8.668   8.668   5.227  0.0698  1.4297  3.1172
  421MOL0     H56796   8.767   8.326   5.190 -0.4072  0.5688  0.7548
  421MOL0     H56797   8.705   8.341   5.359 -2.4600  0.9662  0.4599
  421MOL0     H56798   8.625   8.427   5.226 -3.0799 -1.5659  2.5728
  421MOL0     H56799   9.292   8.157   5.290 -2.9670  0.6187 -0.5947
  421MOL0     H56800   9.374   7.958   5.445  0.4404  1.1050 -0.8721
  421MOL0     H56801   9.139   7.881   5.707 -0.1718 -0.2706  0.3233
  421MOL0     H56802   9.265   7.754   5.662 -1.3214 -0.9872 -0.2474
  421MOL0     H56803   9.373   7.764   5.862 -0.2331 -1.4421 -1.9196
  421MOL0     H56804   9.244   7.873   5.932 -1.3085 -1.6948  1.3435
  421MOL0     H56805   9.178   7.608   5.817 -1.0460  2.2166 -1.3963
  421MOL0     H56806   9.074   7.705   5.924  0.5346  2.1091 -0.6468
  421MOL0     H56807   9.309   7.558   6.014  0.4149  0.4809 -0.8479
  421MOL0     H56808   9.250   7.693   6.100  4.1741 -2.9433  1.3876
  421MOL0     H56809   9.007   7.583   6.079  1.8238  2.5042 -0.3728
  421MOL0     H56810   9.114   7.464   6.160 -2.0474  1.0963  0.6397
  421MOL0     H56811   9.021   7.456   5.872  3.0971 -0.7015 -1.2926
  421MOL0     H56812   9.151   7.353   5.940 -0.7890 -0.9847 -1.1348
  421MOL0     H56813   8.847   7.376   6.041 -0.3553  0.0109 -0.0722
  421MOL0     H56814   8.973   7.260   6.094  2.4115  1.9747  0.9162
  421MOL0     H56815   8.858   7.276   5.805  2.6197 -4.8074 -2.8066
  421MOL0     H56816   8.814   7.158   5.930 -0.0614 -0.8085  0.9509
  421MOL0     H56817   9.227   8.177   5.770  2.2529  2.7931  0.0330
  421MOL0     H56818   9.104   8.333   5.622 -2.3512 -1.0622 -1.1431
  421MOL0     H56819   9.156   8.563   5.287 -0.0074  0.1943  1.2284
  421MOL0     H56820   9.091   8.775   5.212  0.9903 -1.6931  0.1274
  421MOL0     H56821   8.765  10.329   5.414 -0.2668 -1.2467  1.5802
  421MOL0     H56822   8.810  10.499   5.594  0.8454  3.0858 -0.7681
  421MOL0     H56823   9.174  10.656   5.923 -2.2464 -0.8999  2.3051
  421MOL0     H56824   9.220  10.830   6.090 -0.0806  0.2658  0.2331
  421MOL0     H56825   9.218  10.972   6.250 -0.9209 -3.4781  0.6351
  421MOL0     H56826   9.130  11.103   6.313  0.2379 -0.9614  1.9290
  421MOL0     H56827   9.076  10.856   6.388  1.0526 -1.2882 -1.7460
  421MOL0     H56828   9.016  10.826   6.232 -1.5621 -0.1258  0.7486
  421MOL0     H56829   8.847  11.032   6.262  0.2780  0.1830 -0.1894
  421MOL0     H56830   8.904  11.019   6.431 -0.0308  0.9360 -0.3660
  421MOL0     H56831   8.813  10.787   6.423  1.1454  1.4395  0.2802
  421MOL0     H56832   8.757  10.824   6.249 -0.3773  1.4247 -1.1106
  421MOL0     H56833   8.505  11.011   6.549  0.1124 -4.0898  2.9813
  421MOL0     H56834   8.954  11.105   5.887 -0.9949 -0.8426  1.6617
  421MOL0     H56835   8.940  10.956   5.703  0.4351  0.6558  0.5481
  422MOL0     O56836   2.697   6.447   5.860  0.3732 -0.3271  0.2024
  422MOL0     C56837   2.596   6.519   5.827  0.2055  0.7129  0.2787
  422MOL0     O56838   2.568   6.563   5.694  0.4655  0.2647 -0.0945
  422MOL0     C56839   2.656   6.519   5.594 -0.4521 -0.8194  0.7533
  422MOL0     C56840   2.655   6.388   5.556  0.1552  0.2465 -0.8752
  422MOL0     C56841   2.732   6.346   5.443 -0.2586 -0.5877 -0.0717
  422MOL0     C56842   2.820   6.442   5.384  1.2023 -0.2036 -0.7012
  422MOL0     O56843   2.906   6.413   5.282 -0.1393  0.9819  0.2125
  422MOL0     C56844   2.907   6.287   5.221 -0.6283 -0.3159  0.5781
  422MOL0     C56845   3.025   6.271   5.132  0.4447 -0.1681  0.0954
  422MOL0     C56846   3.146   6.234   5.214  0.3054 -0.2164 -0.1264
  422MOL0     C56847   3.132   6.091   5.290 -0.2198 -0.4097 -0.2747
  422MOL0     C56848   3.256   6.064   5.380  0.0693 -0.9795  0.4358
  422MOL0     C56849   3.374   6.019   5.299 -0.2773 -0.7844  1.4375
  422MOL0     C56850   3.491   6.008   5.398  0.7168  0.4777 -1.1089
  422MOL0     C56851   3.507   5.867   5.463 -0.0642 -0.6879 -1.1612
  422MOL0     N56852   3.539   5.766   5.363 -0.3398  0.3020 -0.3986
  422MOL0     C56853   3.453   5.676   5.302  0.8064  0.1488  0.5962
  422MOL0     C56854   3.527   5.595   5.224  0.0270  0.3106  0.8107
  422MOL0     C56855   3.476   5.501   5.120  0.0940  0.1476  0.3119
  422MOL0     C56856   3.478   5.593   4.996  0.0717 -0.0610  0.8531
  422MOL0     C56857   3.441   5.502   4.876  0.5847 -0.3103 -0.6441
  422MOL0     C56858   3.397   5.586   4.757 -0.6018  0.2486  0.8155
  422MOL0     O56859   3.397   5.496   4.640 -0.0175 -0.0016 -0.2646
  422MOL0     C56860   3.493   5.494   4.541 -0.2998 -0.1902  0.7740
  422MOL0     C56861   3.593   5.587   4.509  0.1235 -0.8836 -1.5550
  422MOL0     C56862   3.696   5.563   4.418  0.4346  0.0734 -0.5466
  422MOL0     C56863   3.799   5.676   4.403 -0.0814  0.7408  0.2141
  422MOL0     C56864   3.690   5.445   4.339 -0.9975 -0.0642  0.2247
  422MOL0     C56865   3.797   5.410   4.239 -0.1259 -1.0368  0.8180
  422MOL0     O56866   3.778   5.290   4.167 -0.1099 -0.7386  0.0581
  422MOL0     C56867   3.825   5.290   4.033  0.7514  0.0455 -0.4874
  422MOL0     C56868   3.872   5.399   3.954  0.4260 -0.7237  0.3987
  422MOL0     C56869   3.916   5.380   3.817 -0.7844 -0.1555 -0.3385
  422MOL0     C56870   3.912   5.250   3.754  0.3304 -0.0782 -0.7337
  422MOL0     O56871   3.921   5.226   3.623  0.3594 -0.9753  1.0326
  422MOL0     C56872   3.955   5.342   3.537  0.1758 -0.7596 -0.2535
  422MOL0     C56873   3.841   5.431   3.490  0.6117  0.4004 -0.0233
  422MOL0     C56874   3.897   5.549   3.398 -0.3570 -0.7904  1.0161
  422MOL0     C56875   3.787   5.663   3.400 -0.5868  0.1757 -1.1585
  422MOL0     C56876   3.658   5.629   3.321  0.6268 -0.0526  0.9384
  422MOL0     C56877   3.623   5.747   3.230 -0.5975  0.8149  0.7208
  422MOL0     C56878   3.482   5.721   3.161 -0.1752 -0.9376  1.0751
  422MOL0     C56879   3.477   5.596   3.075 -0.0934  0.2335  1.2207
  422MOL0    Cl56880   3.634   5.542   2.991  0.3225 -0.3703 -0.4517
  422MOL0     C56881   3.867   5.146   3.835 -0.1691 -0.6776  0.7126
  422MOL0     C56882   3.839   5.167   3.970  0.4761  0.9480  0.5341
  422MOL0     O56883   3.899   5.478   4.235  0.6946 -0.6340 -0.2373
  422MOL0     C56884   3.586   5.352   4.363  0.6727  0.1806 -0.8428
  422MOL0     C56885   3.485   5.379   4.454  0.0352  0.1683  0.1551
  422MOL0     N56886   3.657   5.629   5.243 -0.0548 -0.1519 -0.2225
  422MOL0     N56887   3.663   5.730   5.327 -0.3208  0.1648  0.3665
  422MOL0     C56888   2.834   6.566   5.441 -0.4714  0.1717 -0.5921
  422MOL0     C56889   2.749   6.606   5.549  0.3891  1.0738 -1.1493
  422MOL0     C56890   2.498   6.553   5.930  0.0411 -0.4456 -0.1539
  422MOL0     C56891   2.385   6.646   5.903  0.1181 -0.2014 -0.8639
  422MOL0     C56892   2.308   6.695   6.005 -0.0294 -0.0052  0.5273
  422MOL0     C56893   2.326   6.647   6.133  0.1258  1.5315  0.2502
  422MOL0     O56894   2.239   6.692   6.228  0.2841  0.4220 -0.3646
  422MOL0     C56895   2.311   6.755   6.344  0.3539  0.5212  0.2580
  422MOL0     C56896   2.239   6.887   6.394  0.0756  0.5283 -0.1072
  422MOL0     C56897   2.215   6.986   6.283 -1.1015 -0.1940 -0.0237
  422MOL0     C56898   2.078   6.979   6.214 -0.4200 -0.2124 -0.2872
  422MOL0     C56899   2.088   7.054   6.095  0.4779 -0.4754 -0.6875
  422MOL0     C56900   2.088   7.125   5.999  0.0431 -0.1609  0.2086
  422MOL0     C56901   2.419   6.542   6.157 -0.7216 -0.3413 -0.0823
  422MOL0     C56902   2.514   6.504   6.059  0.6805  0.4920 -1.1398
  422MOL0     H56903   2.585   6.312   5.591 -0.8393  0.5609 -2.0872
  422MOL0     H56904   2.732   6.244   5.405 -0.1305 -0.4649 -0.4103
  422MOL0     H56905   2.904   6.208   5.297  1.1554 -0.8793  0.1065
  422MOL0     H56906   2.822   6.259   5.158 -1.5902 -1.4193  2.2707
  422MOL0     H56907   3.010   6.191   5.060 -2.6767 -1.1703  1.7002
  422MOL0     H56908   3.042   6.367   5.081 -2.2091  0.5135  0.3400
  422MOL0     H56909   3.228   6.231   5.141  0.8787  0.1082  0.4892
  422MOL0     H56910   3.159   6.319   5.282 -2.7020  1.7992 -1.8538
  422MOL0     H56911   3.046   6.098   5.357 -2.0019  3.7878 -2.5886
  422MOL0     H56912   3.110   6.011   5.218  1.4597 -1.2206  0.0741
  422MOL0     H56913   3.274   6.152   5.443 -3.5135 -0.3511  0.8065
  422MOL0     H56914   3.225   5.983   5.448  0.2783 -0.4918  1.1272
  422MOL0     H56915   3.366   5.932   5.234  1.1271  1.5542 -2.1677
  422MOL0     H56916   3.398   6.104   5.234 -2.1132 -1.2663  0.0611
  422MOL0     H56917   3.583   6.039   5.347  2.9038 -0.1410  2.1626
  422MOL0     H56918   3.489   6.077   5.483  3.0928 -1.2419  0.4985
  422MOL0     H56919   3.422   5.833   5.523  0.0325 -3.5788 -2.4644
  422MOL0     H56920   3.580   5.865   5.544  0.7984  1.9959 -1.7850
  422MOL0     H56921   3.345   5.668   5.312  0.4281 -0.4668 -2.7941
  422MOL0     H56922   3.538   5.412   5.108 -1.8673 -1.1966 -0.5538
  422MOL0     H56923   3.374   5.464   5.135 -0.5436  0.5055 -2.5524
  422MOL0     H56924   3.576   5.639   4.980 -0.1085 -0.0937 -0.4604
  422MOL0     H56925   3.408   5.676   5.007  3.7718  3.5719 -0.2614
  422MOL0     H56926   3.359   5.434   4.897 -0.9391  1.1579 -1.5660
  422MOL0     H56927   3.529   5.440   4.857 -1.1500 -2.3392 -2.4691
  422MOL0     H56928   3.464   5.672   4.750  1.1104 -0.8598  2.6106
  422MOL0     H56929   3.296   5.624   4.774 -2.0743 -2.0149 -1.9295
  422MOL0     H56930   3.594   5.673   4.575  0.4544  0.6696 -3.4802
  422MOL0     H56931   3.896   5.634   4.433  0.2264  0.2919 -1.3547
  422MOL0     H56932   3.785   5.706   4.299 -1.4691 -0.5533  0.0016
  422MOL0     H56933   3.775   5.761   4.468 -0.8044 -1.2564  2.7219
  422MOL0     H56934   3.898   5.497   3.992  0.4929  0.5409 -2.6211
  422MOL0     H56935   3.932   5.469   3.757 -0.1411 -1.4516 -2.1872
  422MOL0     H56936   4.026   5.411   3.585 -1.2913  0.6564 -0.0336
  422MOL0     H56937   4.007   5.302   3.450 -1.0804  1.4682 -2.1308
  422MOL0     H56938   3.777   5.368   3.428  3.0987 -2.7310  0.3165
  422MOL0     H56939   3.784   5.473   3.573  0.3985  1.3856 -0.6484
  422MOL0     H56940   3.904   5.507   3.298 -1.7996 -1.2080  1.0636
  422MOL0     H56941   3.993   5.590   3.429  0.4474 -1.8058 -0.0426
  422MOL0     H56942   3.780   5.699   3.503  1.6111 -2.0778 -0.1192
  422MOL0     H56943   3.841   5.745   3.351 -0.9270  1.7188  0.8840
  422MOL0     H56944   3.579   5.581   3.379 -0.2598  0.5775  0.2913
  422MOL0     H56945   3.696   5.546   3.261 -0.1091 -1.5777  2.4909
  422MOL0     H56946   3.604   5.834   3.293 -1.2907 -0.0050  1.6875
  422MOL0     H56947   3.706   5.754   3.158  1.7272 -0.8745  3.0386
  422MOL0     H56948   3.467   5.808   3.097 -0.9576 -0.3599  2.0179
  422MOL0     H56949   3.406   5.727   3.239 -0.8700 -0.5492  0.3771
  422MOL0     H56950   3.393   5.601   3.005  0.3313  0.9457  0.7635
  422MOL0     H56951   3.446   5.510   3.136 -0.8613  0.1304  0.7071
  422MOL0     H56952   3.854   5.049   3.788  5.0355 -0.2582 -2.3896
  422MOL0     H56953   3.793   5.089   4.029  1.0526  1.8015  2.1877
  422MOL0     H56954   3.565   5.265   4.302 -1.8978  0.4234 -0.3933
  422MOL0     H56955   3.410   5.300   4.460  1.0883 -0.8848 -0.1341
  422MOL0     H56956   2.916   6.624   5.399  1.0021  0.2690  2.1589
  422MOL0     H56957   2.758   6.706   5.589 -3.1554  1.8395 -1.9936
  422MOL0     H56958   2.384   6.687   5.803 -0.3584  1.6096 -0.1597
  422MOL0     H56959   2.233   6.772   5.994  0.1746  0.0957 -0.1920
  422MOL0     H56960   2.303   6.676   6.418  1.9209 -0.6819 -0.8076
  422MOL0     H56961   2.412   6.791   6.325  0.2466  2.1573  2.3721
  422MOL0     H56962   2.298   6.942   6.467  1.9393 -0.2307 -0.9870
  422MOL0     H56963   2.143   6.861   6.442  0.5504 -0.0961  0.5281
  422MOL0     H56964   2.305   6.969   6.224  0.8221 -2.2000  3.2040
  422MOL0     H56965   2.222   7.088   6.322 -2.1807 -1.0213  2.5000
  422MOL0     H56966   1.997   7.016   6.278 -0.9013  0.9864 -1.5242
  422MOL0     H56967   2.054   6.878   6.179 -0.2515 -0.5524  0.5557
  422MOL0     H56968   2.109   7.184   5.912 -0.9282 -0.7040 -0.4012
  422MOL0     H56969   2.448   6.507   6.256  0.0503 -3.3015 -1.2295
  422MOL0     H56970   2.602   6.441   6.067  2.2542  2.5972 -0.9548
  423MOL0     O56971   3.638   9.443   4.160  0.6300  0.8468  0.2069
  423MOL0     C56972   3.651   9.550   4.220 -0.3008 -0.4214  0.1131
  423MOL0     O56973   3.676   9.671   4.160  0.7762  0.1870  0.0909
  423MOL0     C56974   3.717   9.669   4.035  0.9575 -0.4857  0.0780
  423MOL0     C56975   3.818   9.593   3.981  0.2784 -0.1550  0.5519
  423MOL0     C56976   3.857   9.615   3.845  0.0934 -0.0852 -0.5304
  423MOL0     C56977   3.783   9.701   3.768  0.5706  0.9183  0.0952
  423MOL0     O56978   3.813   9.712   3.635 -0.7478 -0.2844 -0.3215
  423MOL0     C56979   3.706   9.742   3.541 -0.1824  0.0206 -1.2373
  423MOL0     C56980   3.740   9.686   3.410 -0.5290  0.2457  0.2996
  423MOL0     C56981   3.681   9.786   3.313 -0.5318  0.3253 -0.0809
  423MOL0     C56982   3.728   9.773   3.169 -0.0805  0.3218 -0.5454
  423MOL0     C56983   3.651   9.863   3.075 -1.0329  0.6798 -0.5777
  423MOL0     C56984   3.693  10.005   3.089 -1.0477 -0.4373 -0.7845
  423MOL0     C56985   3.659  10.091   2.970  0.0735 -0.2288 -1.2559
  423MOL0     C56986   3.717  10.233   2.987  0.1369  0.6700 -0.0264
  423MOL0     N56987   3.655  10.318   2.882  0.4059  0.8189 -0.6025
  423MOL0     C56988   3.711  10.347   2.763  0.2171 -0.1022 -0.3301
  423MOL0     C56989   3.625  10.433   2.714 -0.5020 -0.9638  0.0004
  423MOL0     C56990   3.633  10.488   2.571  0.3153 -0.4652  0.3757
  423MOL0     C56991   3.601  10.634   2.561  0.3081  0.1215  0.9704
  423MOL0     C56992   3.596  10.672   2.419  0.8902 -0.7237  0.6370
  423MOL0     C56993   3.565  10.818   2.405 -0.2924  0.0460 -0.4359
  423MOL0     O56994   3.556  10.841   2.259 -0.9431  0.4934 -0.5945
  423MOL0     C56995   3.526  10.970   2.218  0.2095  0.4252 -0.7270
  423MOL0     C56996   3.508  10.979   2.077  0.0074 -0.0363 -0.2624
  423MOL0     C56997   3.477  11.100   2.015  0.1506 -0.8249 -0.6233
  423MOL0     C56998   3.450  11.092   1.863  0.5166  0.5320 -0.5140
  423MOL0     C56999   3.490  11.220   2.096 -0.2454 -0.3950 -0.3537
  423MOL0     C57000   3.475  11.358   2.048  1.1994 -1.0501 -0.1133
  423MOL0     O57001   3.546  11.456   2.103  0.1250 -0.0814 -0.5428
  423MOL0     C57002   3.594  11.567   2.027 -0.9213  0.9601 -0.5523
  423MOL0     C57003   3.595  11.563   1.887  0.0052  0.1426 -0.8406
  423MOL0     C57004   3.661  11.669   1.822  0.1522 -0.8646  0.7675
  423MOL0     C57005   3.724  11.777   1.890  0.1545  1.1121 -0.5180
  423MOL0     O57006   3.802  11.870   1.820 -0.1475  0.4624  0.3245
  423MOL0     C57007   3.896  11.820   1.719 -0.0529  0.1208 -0.0972
  423MOL0     C57008   4.012  11.908   1.680  0.5349 -0.5516  0.1662
  423MOL0     C57009   3.975  12.051   1.632 -0.1570 -0.3843  0.8844
  423MOL0     C57010   4.084  12.118   1.561 -1.0483  0.4774 -0.2563
  423MOL0     C57011   4.039  12.247   1.495 -1.7007  0.4974  0.6863
  423MOL0     C57012   4.169  12.323   1.465 -0.3188 -0.0109  0.9681
  423MOL0     C57013   4.154  12.427   1.361  0.0572  0.0805  0.2458
  423MOL0     C57014   4.275  12.522   1.322  0.4201 -0.4408  0.4247
  423MOL0    Cl57015   4.332  12.619   1.468  0.3898 -0.1291  0.2750
  423MOL0     C57016   3.722  11.776   2.030 -0.7994  0.3295  0.3039
  423MOL0     C57017   3.654  11.676   2.097 -0.3088  0.3626  0.3849
  423MOL0     O57018   3.381  11.378   1.968 -0.4902  0.5573 -0.1246
  423MOL0     C57019   3.498  11.211   2.240 -0.7893 -0.7613  0.3491
  423MOL0     C57020   3.509  11.087   2.304  0.7075 -0.7638  0.7437
  423MOL0     N57021   3.518  10.445   2.799 -0.0963  0.2260  0.4564
  423MOL0     N57022   3.540  10.387   2.907 -0.5709 -0.0119 -0.0524
  423MOL0     C57023   3.672   9.769   3.819 -1.1087 -0.2704 -0.9530
  423MOL0     C57024   3.646   9.757   3.956  0.1733  0.4627 -0.5262
  423MOL0     C57025   3.613   9.556   4.361 -0.0310 -0.7267 -0.7401
  423MOL0     C57026   3.601   9.441   4.436 -0.5036 -0.2030 -0.7420
  423MOL0     C57027   3.569   9.449   4.571 -0.0929  0.0905 -0.5665
  423MOL0     C57028   3.566   9.578   4.634  0.4980  0.1929  0.3094
  423MOL0     O57029   3.538   9.580   4.772 -0.2066 -0.0965 -0.3758
  423MOL0     C57030   3.633   9.635   4.861 -0.9017  0.6353 -0.1562
  423MOL0     C57031   3.684   9.525   4.958 -0.7080  0.1189  0.6875
  423MOL0     C57032   3.758   9.573   5.085  0.1182 -1.4286  0.7536
  423MOL0     C57033   3.840   9.469   5.164 -0.7414 -0.0695 -0.1676
  423MOL0     C57034   3.883   9.528   5.297  1.0252  0.9971 -0.1438
  423MOL0     C57035   3.879   9.599   5.394 -1.0126 -0.0830 -0.3451
  423MOL0     C57036   3.582   9.698   4.562  0.3232 -0.2660 -0.1355
  423MOL0     C57037   3.603   9.685   4.424 -0.1895  0.8121  0.1041
  423MOL0     H57038   3.878   9.524   4.039 -0.0502 -1.1686 -0.2981
  423MOL0     H57039   3.938   9.565   3.794  0.0497  0.8779 -1.5672
  423MOL0     H57040   3.613   9.699   3.579 -0.0980 -0.8454 -1.9611
  423MOL0     H57041   3.695   9.851   3.535 -0.7726  0.0211 -0.2489
  423MOL0     H57042   3.848   9.691   3.392 -0.9464  1.1979 -2.2892
  423MOL0     H57043   3.695   9.588   3.388  0.6869 -0.5053  1.0020
  423MOL0     H57044   3.574   9.779   3.332 -0.6768  0.8945 -0.6942
  423MOL0     H57045   3.725   9.883   3.338  0.2845  0.0390 -0.3547
  423MOL0     H57046   3.837   9.786   3.175  0.6391 -4.4302  2.4458
  423MOL0     H57047   3.709   9.666   3.151  1.5445 -0.4092  1.6542
  423MOL0     H57048   3.683   9.842   2.972 -0.6411  2.3271 -0.8179
  423MOL0     H57049   3.542   9.859   3.078 -1.0904  1.4806 -1.0561
  423MOL0     H57050   3.636  10.038   3.176  1.8503 -2.7252  2.2310
  423MOL0     H57051   3.796  10.025   3.117 -1.4280 -0.5985  0.8209
  423MOL0     H57052   3.700  10.045   2.880  3.2903 -0.4294  0.1906
  423MOL0     H57053   3.550  10.099   2.967  0.1995  1.3819 -2.0283
  423MOL0     H57054   3.826  10.235   2.981  0.3663  1.6656  2.7240
  423MOL0     H57055   3.706  10.283   3.084 -0.7944  4.4221 -1.8519
  423MOL0     H57056   3.807  10.310   2.730 -0.4071 -1.1873 -1.0020
  423MOL0     H57057   3.732  10.465   2.529 -1.1382 -3.2072 -1.9348
  423MOL0     H57058   3.578  10.425   2.500  1.6813 -0.3474 -0.8361
  423MOL0     H57059   3.688  10.679   2.610  1.5031 -1.9861  0.9353
  423MOL0     H57060   3.504  10.643   2.610 -0.8802  0.1416 -1.2658
  423MOL0     H57061   3.511  10.616   2.380 -0.6783  1.1417  1.2168
  423MOL0     H57062   3.688  10.641   2.368  0.7915 -0.2328  0.1454
  423MOL0     H57063   3.644  10.885   2.441 -0.7084  0.9991 -1.2505
  423MOL0     H57064   3.467  10.844   2.447  0.7795  2.2249  0.8928
  423MOL0     H57065   3.531  10.892   2.017 -0.0618  0.1810 -0.6072
  423MOL0     H57066   3.370  11.162   1.838 -0.8540 -1.4517 -1.9609
  423MOL0     H57067   3.536  11.119   1.800 -0.2678 -0.4616 -2.0578
  423MOL0     H57068   3.427  10.992   1.825 -1.7904  0.2088  1.5671
  423MOL0     H57069   3.545  11.482   1.835 -2.8768 -1.4671  3.8364
  423MOL0     H57070   3.674  11.657   1.715 -2.7441  2.4618 -0.1409
  423MOL0     H57071   3.928  11.721   1.755  0.0225  0.9509  2.3302
  423MOL0     H57072   3.841  11.794   1.628 -0.9606 -3.1064  1.2194
  423MOL0     H57073   4.080  11.932   1.763 -0.9481  2.3067  0.6996
  423MOL0     H57074   4.080  11.868   1.604  2.7300  3.7086 -0.4376
  423MOL0     H57075   3.940  12.115   1.714  0.7336 -1.0762  1.8300
  423MOL0     H57076   3.901  12.051   1.552 -0.2939  4.2974  0.7184
  423MOL0     H57077   4.159  12.126   1.640 -2.1002  1.3390  0.6811
  423MOL0     H57078   4.130  12.059   1.481 -0.4198  1.2328 -0.4623
  423MOL0     H57079   3.985  12.302   1.573  0.6803 -0.0115  2.8250
  423MOL0     H57080   3.973  12.232   1.408 -1.2023 -0.8370  0.5137
  423MOL0     H57081   4.204  12.369   1.558  2.8558 -2.0578  0.9481
  423MOL0     H57082   4.256  12.264   1.433 -0.5772 -0.6629  1.4472
  423MOL0     H57083   4.061  12.477   1.390 -0.5643 -2.1662  2.4847
  423MOL0     H57084   4.122  12.390   1.263  0.1576  2.4420 -0.7409
  423MOL0     H57085   4.233  12.603   1.261 -0.0207  1.9577  3.6743
  423MOL0     H57086   4.358  12.477   1.267 -0.8060 -1.1849 -0.9009
  423MOL0     H57087   3.764  11.856   2.090 -3.7895  2.5442 -0.3020
  423MOL0     H57088   3.666  11.662   2.204  3.0180  1.0290  0.2026
  423MOL0     H57089   3.509  11.297   2.306 -0.1014 -0.8543  0.3587
  423MOL0     H57090   3.508  11.080   2.412  0.2296  0.2453  0.8125
  423MOL0     H57091   3.618   9.842   3.759  2.0567  1.1047 -2.3803
  423MOL0     H57092   3.572   9.819   4.007  2.2263  0.3307  2.9529
  423MOL0     H57093   3.625   9.358   4.371  0.0457  1.8670 -3.3297
  423MOL0     H57094   3.547   9.359   4.628 -1.0557 -0.0072 -1.0651
  423MOL0     H57095   3.711   9.695   4.813  0.0200  2.4579  3.2295
  423MOL0     H57096   3.573   9.703   4.923  0.2780  2.8807 -1.3415
  423MOL0     H57097   3.756   9.464   4.904 -0.1945  0.2230  1.2493
  423MOL0     H57098   3.603   9.453   4.975 -0.1279 -1.0224 -1.0422
  423MOL0     H57099   3.676   9.615   5.142 -0.7124  0.4861 -1.6731
  423MOL0     H57100   3.830   9.646   5.047 -0.6981 -1.0330 -0.0749
  423MOL0     H57101   3.931   9.436   5.111  0.5124  1.8965  0.6433
  423MOL0     H57102   3.786   9.374   5.175 -0.4644 -0.4610 -1.8669
  423MOL0     H57103   3.869   9.658   5.483 -0.1958 -1.5809  0.7822
  423MOL0     H57104   3.585   9.800   4.599  0.4681  0.3570 -1.7642
  423MOL0     H57105   3.612   9.769   4.356  0.9830  0.4198 -0.2355
  424MOL0     O57106   2.189   0.850   0.412  0.1448 -0.5285 -0.1591
  424MOL0     C57107   2.102   0.826   0.333  0.8841  0.4596 -0.0428
  424MOL0     O57108   1.969   0.865   0.342 -0.0395 -0.5856  0.0288
  424MOL0     C57109   1.914   0.936   0.446 -0.2848  0.1563  1.7101
  424MOL0     C57110   1.945   0.914   0.577  0.7660  0.3467  0.3012
  424MOL0     C57111   1.896   0.996   0.676  0.2403 -0.5394 -0.4669
  424MOL0     C57112   1.799   1.092   0.644  0.6003 -0.2539 -0.0598
  424MOL0     O57113   1.748   1.171   0.743 -0.7361  0.3577 -0.1504
  424MOL0     C57114   1.678   1.112   0.855  0.7854 -0.1874  0.7650
  424MOL0     C57115   1.612   1.222   0.938 -0.4481  0.6307  0.0692
  424MOL0     C57116   1.515   1.287   0.851 -1.6557 -0.1537  0.0481
  424MOL0     C57117   1.417   1.378   0.925  0.3108 -0.2862  1.7738
  424MOL0     C57118   1.297   1.415   0.829 -0.1536  0.2662 -0.6379
  424MOL0     C57119   1.200   1.529   0.893 -0.1494  0.0410 -0.8676
  424MOL0     C57120   1.074   1.565   0.813  0.8592  1.1246 -0.1558
  424MOL0     C57121   1.000   1.686   0.877 -0.7045 -0.1416  0.2065
  424MOL0     N57122   0.938   1.644   0.997  0.3429 -0.2510 -0.7128
  424MOL0     C57123   0.981   1.655   1.128 -0.4377  0.0920 -0.0699
  424MOL0     C57124   0.885   1.589   1.206 -1.5321 -0.5451 -0.2877
  424MOL0     C57125   0.909   1.542   1.346 -0.2259  0.1563 -0.0722
  424MOL0     C57126   0.855   1.391   1.353 -0.9842 -0.4560 -0.0977
  424MOL0     C57127   0.849   1.348   1.499 -1.0521 -0.4053  0.8106
  424MOL0     C57128   0.807   1.204   1.522 -0.2625  0.1549  0.8001
  424MOL0     O57129   0.890   1.106   1.448 -0.2618  0.2685 -0.4493
  424MOL0     C57130   0.836   0.981   1.469 -1.0602 -0.7101 -0.7674
  424MOL0     C57131   0.900   0.899   1.556 -0.3548 -0.4502  0.0493
  424MOL0     C57132   0.842   0.775   1.603 -0.6316 -0.6098  1.2372
  424MOL0     C57133   0.917   0.691   1.697  0.1569  0.7032 -0.0016
  424MOL0     C57134   0.717   0.738   1.550 -0.8852 -0.6116 -0.6178
  424MOL0     C57135   0.655   0.606   1.570 -0.2958 -0.3793  0.5550
  424MOL0     O57136   0.523   0.597   1.549 -0.1915  1.0683 -0.3698
  424MOL0     C57137   0.446   0.495   1.616  0.0327 -0.2381 -0.0680
  424MOL0     C57138   0.328   0.449   1.559 -0.3731  0.4532 -0.0324
  424MOL0     C57139   0.253   0.367   1.630 -0.1709  0.4941 -1.1461
  424MOL0     C57140   0.287   0.317   1.761  0.5816 -0.7568 -0.1917
  424MOL0     O57141   0.190   0.237   1.815 -0.5139 -0.3351  0.0271
  424MOL0     C57142   0.224   0.167   1.934 -0.5245 -0.1285  0.1891
  424MOL0     C57143   0.123   0.057   1.963 -0.5907  0.5049 -0.2556
  424MOL0     C57144  -0.019   0.118   1.979  0.5393 -0.7612 -0.6460
  424MOL0     C57145  -0.121   0.006   2.010  0.1895 -0.1545  0.2956
  424MOL0     C57146  -0.262   0.060   2.027  0.6781 -0.5907 -0.2238
  424MOL0     C57147  -0.355  -0.053   2.056  0.0496  0.6865  0.1523
  424MOL0     C57148  -0.347  -0.106   2.199 -0.1630 -0.6694 -0.3266
  424MOL0     C57149  -0.449  -0.218   2.222  0.3292 -0.0351  0.0828
  424MOL0    Cl57150  -0.425  -0.297   2.379  0.1360  0.2871  0.5330
  424MOL0     C57151   0.399   0.365   1.811  0.0835  0.3730  0.0963
  424MOL0     C57152   0.481   0.450   1.744  0.5319  0.3330 -1.2744
  424MOL0     O57153   0.725   0.510   1.607  0.0766  0.2400  0.2119
  424MOL0     C57154   0.648   0.825   1.468 -0.6625  0.0686  0.2781
  424MOL0     C57155   0.707   0.948   1.430 -1.0348 -0.3415  0.2758
  424MOL0     N57156   0.783   1.559   1.121  1.1639  0.5393  0.4558
  424MOL0     N57157   0.802   1.603   0.999 -0.5653  0.1984 -0.1747
  424MOL0     C57158   1.751   1.112   0.513  0.1183  1.2842 -0.2373
  424MOL0     C57159   1.817   1.029   0.420 -1.0673 -0.7115 -0.0783
  424MOL0     C57160   2.144   0.750   0.212  0.4278  0.7646 -0.6110
  424MOL0     C57161   2.070   0.633   0.175 -0.1215 -0.4463 -0.3675
  424MOL0     C57162   2.102   0.561   0.060 -0.2962  0.4044 -0.1799
  424MOL0     C57163   2.212   0.595  -0.013 -1.1650 -0.3027 -0.5381
  424MOL0     O57164   2.224   0.526  -0.134 -0.1764 -0.0535 -0.3606
  424MOL0     C57165   2.314   0.579  -0.240 -0.0120  0.0347  0.1758
  424MOL0     C57166   2.327   0.473  -0.346 -0.0820  0.2464  0.5284
  424MOL0     C57167   2.406   0.520  -0.471  0.0243 -1.2683 -0.8744
  424MOL0     C57168   2.460   0.402  -0.551  0.4917  0.0755  0.5446
  424MOL0     C57169   2.352   0.320  -0.608 -0.3690  0.0904  0.0780
  424MOL0     C57170   2.260   0.246  -0.644 -1.0188 -0.0683 -0.3510
  424MOL0     C57171   2.275   0.715   0.023 -0.4877 -0.1217  0.4654
  424MOL0     C57172   2.254   0.793   0.137  0.0223  0.3931 -0.4354
  424MOL0     H57173   2.010   0.832   0.606  0.5991 -0.5149 -1.6141
  424MOL0     H57174   1.932   0.978   0.777  0.6107  2.3147 -0.0055
  424MOL0     H57175   1.614   1.033   0.816  1.7956 -0.9239  0.5480
  424MOL0     H57176   1.750   1.069   0.925  2.5404 -0.5915 -1.1692
  424MOL0     H57177   1.576   1.160   1.021 -0.6193  0.0794 -0.4070
  424MOL0     H57178   1.697   1.283   0.970  1.2674 -1.2411 -0.6731
  424MOL0     H57179   1.568   1.350   0.778 -0.9713 -0.0816  0.5973
  424MOL0     H57180   1.452   1.207   0.811  0.1126 -1.5156 -0.1278
  424MOL0     H57181   1.374   1.320   1.008  1.6187  0.6587  3.1704
  424MOL0     H57182   1.473   1.460   0.971  0.6252  1.2984 -1.2190
  424MOL0     H57183   1.333   1.459   0.735  3.7854 -0.6196  0.2813
  424MOL0     H57184   1.241   1.325   0.804 -2.3332  0.4049  3.0226
  424MOL0     H57185   1.168   1.495   0.992  0.9015 -1.8864 -1.1358
  424MOL0     H57186   1.255   1.622   0.906 -1.5209  0.6267  1.2381
  424MOL0     H57187   1.116   1.577   0.713  0.0463  2.9680 -0.3091
  424MOL0     H57188   1.018   1.471   0.808  3.2036 -0.3835  0.2333
  424MOL0     H57189   0.920   1.725   0.815  1.0704  0.7566 -1.6137
  424MOL0     H57190   1.070   1.770   0.877 -2.8190  1.7105  0.1203
  424MOL0     H57191   1.079   1.693   1.157 -0.9281  0.5525  1.0238
  424MOL0     H57192   1.014   1.537   1.373  0.2305  0.8787 -1.5871
  424MOL0     H57193   0.851   1.605   1.414 -3.1045 -0.7919 -1.4610
  424MOL0     H57194   0.919   1.331   1.287 -0.7497  1.0040 -1.2662
  424MOL0     H57195   0.750   1.385   1.324 -1.2756  0.7352  0.6226
  424MOL0     H57196   0.783   1.422   1.546 -1.6827  0.1623 -0.8829
  424MOL0     H57197   0.945   1.367   1.549 -0.7621 -1.2494  0.5916
  424MOL0     H57198   0.701   1.183   1.503 -0.1883 -1.3073  1.7944
  424MOL0     H57199   0.818   1.178   1.628 -1.9759  0.3561  1.0637
  424MOL0     H57200   0.993   0.926   1.604 -0.7694 -0.6259  0.9696
  424MOL0     H57201   0.858   0.646   1.778 -0.0862  2.3678  0.7859
  424MOL0     H57202   0.959   0.617   1.628 -0.7287  0.3925 -0.2249
  424MOL0     H57203   1.006   0.736   1.741 -0.9635  2.4075  0.6322
  424MOL0     H57204   0.303   0.495   1.463 -0.4165 -2.5953 -1.5882
  424MOL0     H57205   0.154   0.343   1.594 -0.8819  0.5091  0.6909
  424MOL0     H57206   0.328   0.134   1.921  0.0077  1.1663  0.8783
  424MOL0     H57207   0.241   0.229   2.023 -0.8546  0.8865 -0.4339
  424MOL0     H57208   0.134  -0.018   1.883  0.9994  0.7840 -0.3455
  424MOL0     H57209   0.144  -0.002   2.052  0.7496 -0.3113 -1.0725
  424MOL0     H57210  -0.047   0.180   1.893 -3.7944 -1.9109 -0.2938
  424MOL0     H57211  -0.016   0.192   2.059 -0.8017 -1.9627  0.5731
  424MOL0     H57212  -0.117  -0.068   1.931 -2.1260 -3.5745  3.0592
  424MOL0     H57213  -0.078  -0.039   2.100 -0.5129 -0.8988  0.2686
  424MOL0     H57214  -0.301   0.106   1.936 -2.9115 -1.5553  0.6306
  424MOL0     H57215  -0.264   0.131   2.111  1.2621 -1.3851  0.4750
  424MOL0     H57216  -0.461  -0.029   2.039 -0.5523 -2.7524 -2.0085
  424MOL0     H57217  -0.324  -0.135   1.991 -0.9503  0.8103 -0.5134
  424MOL0     H57218  -0.352  -0.024   2.271  0.0793 -0.5486 -0.4436
  424MOL0     H57219  -0.252  -0.155   2.225 -1.2582 -1.5362  2.3654
  424MOL0     H57220  -0.448  -0.296   2.144  2.5975  0.9716 -0.9912
  424MOL0     H57221  -0.545  -0.167   2.223  1.1264  1.5085  1.3881
  424MOL0     H57222   0.421   0.342   1.915 -1.9279  1.3781  0.7892
  424MOL0     H57223   0.570   0.490   1.793  1.4249 -1.6058 -1.2158
  424MOL0     H57224   0.550   0.801   1.429  0.7198 -3.0499 -1.6861
  424MOL0     H57225   0.665   1.012   1.354  0.1778  2.2419  1.6349
  424MOL0     H57226   1.670   1.180   0.486 -0.0946  1.1967  0.1731
  424MOL0     H57227   1.801   1.040   0.314  1.3660  0.9232 -0.3627
  424MOL0     H57228   1.982   0.601   0.229 -0.1035 -0.6380 -0.4498
  424MOL0     H57229   2.040   0.477   0.031  0.3693 -0.3038  0.4240
  424MOL0     H57230   2.267   0.673  -0.272 -0.2702 -0.0866  0.1955
  424MOL0     H57231   2.418   0.598  -0.216 -0.0186  4.6794 -2.2701
  424MOL0     H57232   2.228   0.443  -0.381  0.4111  0.8431 -1.5325
  424MOL0     H57233   2.360   0.380  -0.300 -1.7200 -0.2899  0.6735
  424MOL0     H57234   2.477   0.596  -0.437 -0.2379  0.1793 -3.3130
  424MOL0     H57235   2.327   0.568  -0.529 -0.1556  1.4314  1.3909
  424MOL0     H57236   2.526   0.340  -0.489 -2.2287 -3.4188  0.2708
  424MOL0     H57237   2.516   0.439  -0.637  2.3082  1.0377  2.0692
  424MOL0     H57238   2.171   0.197  -0.680  0.8253 -2.4038 -2.0732
  424MOL0     H57239   2.351   0.756  -0.043 -0.4747 -0.3546  0.3345
  424MOL0     H57240   2.306   0.886   0.156  0.2863 -0.2114  2.1716
  425MOL0     O57241   0.514   5.960  11.339 -0.0870  0.1314  0.7351
  425MOL0     C57242   0.463   5.865  11.400  0.1058 -0.9531 -0.2139
  425MOL0     O57243   0.507   5.821  11.523 -0.0517  0.5086 -0.0921
  425MOL0     C57244   0.611   5.890  11.582 -0.2174 -0.2275  0.8646
  425MOL0     C57245   0.604   6.019  11.614  0.3971 -0.8917  0.3152
  425MOL0     C57246   0.706   6.094  11.680 -0.1859 -0.0778 -0.1465
  425MOL0     C57247   0.821   6.022  11.720 -0.6941 -0.4458 -0.5088
  425MOL0     O57248   0.937   6.085  11.758 -0.2936 -0.5491 -0.1541
  425MOL0     C57249   0.925   6.165  11.881  0.2322 -0.3045 -0.6323
  425MOL0     C57250   1.056   6.243  11.890  0.3181 -0.2928 -0.0409
  425MOL0     C57251   1.103   6.307  12.024 -0.3964 -0.4461  0.4876
  425MOL0     C57252   1.262   6.331  12.017 -0.4071  0.9569 -0.3875
  425MOL0     C57253   1.319   6.397  12.140 -0.0065  0.2449  0.2604
  425MOL0     C57254   1.272   6.536  12.156  0.6937 -0.3687  0.3337
  425MOL0     C57255   1.344   6.631  12.065 -0.5682  0.1029 -0.5303
  425MOL0     C57256   1.334   6.774  12.114 -0.3264  0.8245  0.0997
  425MOL0     N57257   1.218   6.843  12.049  0.5490  0.3612  0.4900
  425MOL0     C57258   1.112   6.915  12.106 -0.3010 -0.3109  0.5713
  425MOL0     C57259   1.069   7.007  12.008 -0.4062  0.9284  0.0205
  425MOL0     C57260   0.948   7.105  12.003  0.2736 -0.8094  0.2404
  425MOL0     C57261   0.826   7.030  11.943 -0.6892  0.5161 -0.3471
  425MOL0     C57262   0.708   7.121  11.900 -0.0804  0.8576 -0.4673
  425MOL0     C57263   0.714   7.198  11.768 -0.3945 -0.0447 -0.3915
  425MOL0     O57264   0.588   7.250  11.733  0.0735 -0.3064 -0.0071
  425MOL0     C57265   0.583   7.349  11.636 -1.0992  0.3620  0.0059
  425MOL0     C57266   0.665   7.344  11.520  0.3699  0.3984  0.7315
  425MOL0     C57267   0.646   7.445  11.421  1.0274 -0.1976 -0.6228
  425MOL0     C57268   0.732   7.435  11.294 -0.4810  0.4517 -0.3053
  425MOL0     C57269   0.567   7.558  11.454  0.9745 -1.2143  0.5951
  425MOL0     C57270   0.534   7.675  11.371  0.5322  0.5750  0.1358
  425MOL0     O57271   0.457   7.773  11.418  0.1727  0.6822 -1.0982
  425MOL0     C57272   0.389   7.858  11.330 -0.7501  0.1365  0.2322
  425MOL0     C57273   0.322   7.818  11.207  0.5784  0.9705  0.0499
  425MOL0     C57274   0.236   7.906  11.135 -0.4661  0.5257  0.3809
  425MOL0     C57275   0.233   8.045  11.183  1.0453  0.8017  0.0336
  425MOL0     O57276   0.163   8.139  11.116 -0.6960  0.0416 -0.6949
  425MOL0     C57277   0.132   8.100  10.979  0.8112 -1.1840 -0.5961
  425MOL0     C57278   0.120   8.211  10.888 -0.3122  0.1093 -0.0625
  425MOL0     C57279   0.136   8.159  10.743 -0.8496 -0.2639 -0.5421
  425MOL0     C57280   0.192   8.260  10.646  0.0326 -0.0285 -0.4442
  425MOL0     C57281   0.224   8.214  10.499 -0.2094  0.3242 -0.1160
  425MOL0     C57282   0.247   8.327  10.403 -0.4413  0.0759 -0.3494
  425MOL0     C57283   0.269   8.283  10.263 -0.1631  0.2904  0.1104
  425MOL0     C57284   0.277   8.396  10.168  0.5931 -0.5354  0.2662
  425MOL0    Cl57285   0.417   8.492  10.162  0.0038  0.0865 -0.3552
  425MOL0     C57286   0.302   8.082  11.298 -0.8585 -0.8104 -0.7770
  425MOL0     C57287   0.380   7.993  11.374  1.4518 -1.1782 -0.9369
  425MOL0     O57288   0.589   7.673  11.266  0.2086 -0.0765 -0.3243
  425MOL0     C57289   0.492   7.559  11.574 -0.4280  1.0866 -0.0957
  425MOL0     C57290   0.505   7.459  11.664 -0.5556 -0.1246  0.8001
  425MOL0     N57291   1.148   6.982  11.897  0.3042 -0.0380  0.5536
  425MOL0     N57292   1.223   6.879  11.918  0.2791 -0.0586 -0.2462
  425MOL0     C57293   0.834   5.888  11.684  0.1652  0.9488 -0.8168
  425MOL0     C57294   0.730   5.819  11.612  0.1462  0.2797 -0.2344
  425MOL0     C57295   0.337   5.819  11.345  0.1446  0.3037 -0.8324
  425MOL0     C57296   0.247   5.769  11.440  0.7921 -0.3301 -0.4028
  425MOL0     C57297   0.125   5.710  11.418  0.3328 -0.3713  0.8903
  425MOL0     C57298   0.081   5.706  11.290  0.5649  0.7160 -0.2225
  425MOL0     O57299  -0.052   5.655  11.270 -0.3413 -0.6734  0.1329
  425MOL0     C57300  -0.086   5.592  11.145  0.0098  0.5194  0.7962
  425MOL0     C57301  -0.235   5.559  11.151 -0.0007  0.3579  0.2267
  425MOL0     C57302  -0.272   5.486  11.020  0.0366 -0.4135  0.0736
  425MOL0     C57303  -0.413   5.449  11.025  0.0462  0.8848 -0.8036
  425MOL0     C57304  -0.490   5.573  10.975 -0.4967  0.0833  0.6944
  425MOL0     C57305  -0.539   5.688  10.945 -0.3271  1.2673  0.0173
  425MOL0     C57306   0.172   5.745  11.183 -0.4696 -0.5237 -0.2134
  425MOL0     C57307   0.290   5.812  11.216  1.1307  1.6002 -0.2867
  425MOL0     H57308   0.510   6.072  11.604  1.1812  0.1352 -2.5272
  425MOL0     H57309   0.694   6.199  11.706 -1.0727 -0.4465  1.0136
  425MOL0     H57310   0.835   6.226  11.887  0.9624  0.8180 -0.8060
  425MOL0     H57311   0.928   6.102  11.971 -2.6865  0.6381  0.2051
  425MOL0     H57312   1.132   6.173  11.855  0.0002 -0.4874 -0.3422
  425MOL0     H57313   1.056   6.315  11.808  0.8207 -0.2036  0.0324
  425MOL0     H57314   1.055   6.401  12.052 -2.3799 -0.5933 -2.0093
  425MOL0     H57315   1.101   6.227  12.099  0.0635 -0.8327  0.1022
  425MOL0     H57316   1.311   6.236  11.996 -1.1045  0.2945  0.8699
  425MOL0     H57317   1.288   6.382  11.924  3.5610 -0.7345 -0.4103
  425MOL0     H57318   1.285   6.342  12.228  3.3551  0.4523  1.8603
  425MOL0     H57319   1.428   6.386  12.137  0.1998  2.0950  0.1749
  425MOL0     H57320   1.166   6.560  12.137  0.2603 -0.6796  2.1874
  425MOL0     H57321   1.298   6.554  12.260 -3.8014 -0.7050  1.7428
  425MOL0     H57322   1.447   6.598  12.050 -1.7302 -2.5532 -3.7727
  425MOL0     H57323   1.305   6.627  11.963 -0.9378  1.2027 -0.4465
  425MOL0     H57324   1.416   6.838  12.083 -0.0628  0.7658  0.6774
  425MOL0     H57325   1.326   6.777  12.223 -1.3712  0.2552  0.0583
  425MOL0     H57326   1.074   6.900  12.207 -2.4074  2.3706  0.2820
  425MOL0     H57327   0.922   7.157  12.096  1.0611  0.5341 -0.2682
  425MOL0     H57328   0.988   7.186  11.941 -0.2735 -1.1541 -0.5797
  425MOL0     H57329   0.795   6.957  12.019 -0.2500 -0.2595 -0.8921
  425MOL0     H57330   0.854   6.961  11.862  0.3680 -0.5423  0.8759
  425MOL0     H57331   0.677   7.197  11.973  0.0146  0.6308 -0.1905
  425MOL0     H57332   0.627   7.050  11.878  0.5375  0.7711 -2.6640
  425MOL0     H57333   0.727   7.129  11.684 -0.0401  0.1362 -0.4887
  425MOL0     H57334   0.794   7.273  11.763 -2.2513  1.9643 -2.4900
  425MOL0     H57335   0.730   7.260  11.501  0.0510  0.5547 -1.2820
  425MOL0     H57336   0.791   7.526  11.285  2.9043 -0.5162  5.8071
  425MOL0     H57337   0.808   7.356  11.300 -0.0605  0.8656 -0.1720
  425MOL0     H57338   0.655   7.422  11.218 -2.1335  0.0510  1.3631
  425MOL0     H57339   0.320   7.713  11.183  1.9532  0.7658  0.7474
  425MOL0     H57340   0.184   7.870  11.047 -3.7578  3.9095  0.6887
  425MOL0     H57341   0.221   8.045  10.950  1.9926 -1.8135  3.5504
  425MOL0     H57342   0.042   8.038  10.977  2.0865 -3.3662  2.4953
  425MOL0     H57343   0.019   8.253  10.891 -1.6416 -2.5812 -2.3807
  425MOL0     H57344   0.181   8.298  10.914 -0.2238  1.0169 -2.8734
  425MOL0     H57345   0.034   8.127  10.720 -1.3139  1.5742 -1.2230
  425MOL0     H57346   0.199   8.070  10.736  1.6443  1.4800 -1.1534
  425MOL0     H57347   0.116   8.338  10.634  1.4211  1.2387 -1.6601
  425MOL0     H57348   0.280   8.309  10.690 -0.7761  0.2418  0.9198
  425MOL0     H57349   0.142   8.155  10.456 -0.2410 -1.5675  2.3594
  425MOL0     H57350   0.306   8.141  10.500  0.5234  1.1252 -0.6020
  425MOL0     H57351   0.152   8.381  10.409 -1.1937 -1.2716  0.3482
  425MOL0     H57352   0.331   8.389  10.436  0.6740 -1.6764  0.2503
  425MOL0     H57353   0.187   8.222  10.223  1.3493  0.3817 -3.5956
  425MOL0     H57354   0.365   8.230  10.267 -1.9201 -3.1845  4.5658
  425MOL0     H57355   0.209   8.476  10.199  4.9475  4.0895 -0.5672
  425MOL0     H57356   0.249   8.372  10.066  0.4607 -3.2927  0.8846
  425MOL0     H57357   0.295   8.187  11.323  1.7990 -1.1633  2.0293
  425MOL0     H57358   0.428   8.031  11.464 -0.0071 -1.8461  0.1612
  425MOL0     H57359   0.420   7.640  11.587 -0.4595  1.1650 -0.7450
  425MOL0     H57360   0.445   7.447  11.754 -1.8911 -4.1067 -0.4181
  425MOL0     H57361   0.920   5.836  11.725 -0.5251 -0.3486 -0.9686
  425MOL0     H57362   0.732   5.715  11.579 -0.2149 -0.3078  1.4773
  425MOL0     H57363   0.271   5.769  11.546 -2.1504  0.7782  0.3621
  425MOL0     H57364   0.054   5.684  11.497 -0.0517 -5.1275 -0.7034
  425MOL0     H57365  -0.062   5.662  11.064  2.0765  0.3456  1.2037
  425MOL0     H57366  -0.021   5.507  11.122  0.1751  1.9016 -5.6143
  425MOL0     H57367  -0.288   5.654  11.147 -0.3733  0.2648  2.0690
  425MOL0     H57368  -0.268   5.498  11.236 -3.0995 -2.2621 -2.5751
  425MOL0     H57369  -0.221   5.391  10.998 -0.7293 -0.7538 -0.2709
  425MOL0     H57370  -0.256   5.558  10.939 -0.1045 -0.4432  0.0190
  425MOL0     H57371  -0.446   5.428  11.127 -0.2532  2.0755 -0.6380
  425MOL0     H57372  -0.423   5.362  10.959 -3.0315  1.7339 -1.6105
  425MOL0     H57373  -0.589   5.782  10.949  0.0612  1.4896 -0.2528
  425MOL0     H57374   0.151   5.720  11.080  0.1250 -0.5594 -0.3299
  425MOL0     H57375   0.361   5.841  11.139  1.3143  0.2385 -0.6512
  426MOL0     O57376   6.668   4.562  10.404  0.2339 -0.3691  0.4582
  426MOL0     C57377   6.649   4.502  10.516  0.5567 -0.0904 -0.1644
  426MOL0     O57378   6.744   4.488  10.617 -0.1060 -0.2582 -0.7993
  426MOL0     C57379   6.859   4.558  10.613 -0.2643 -0.4554  0.2835
  426MOL0     C57380   6.958   4.555  10.505  0.1420  0.6584 -0.1652
  426MOL0     C57381   7.067   4.633  10.496 -0.2712  0.0711  0.1122
  426MOL0     C57382   7.097   4.712  10.605 -0.0819 -0.3437  0.4077
  426MOL0     O57383   7.226   4.763  10.601  0.3115 -0.2904 -0.4294
  426MOL0     C57384   7.258   4.901  10.647 -0.0404  0.4630  0.6533
  426MOL0     C57385   7.412   4.920  10.686 -0.4003 -1.1192  0.5982
  426MOL0     C57386   7.506   4.934  10.568  0.2185  0.3627 -0.1655
  426MOL0     C57387   7.659   4.945  10.588 -0.1188 -0.7993  0.0925
  426MOL0     C57388   7.708   5.080  10.652 -0.9431 -0.3787 -0.3839
  426MOL0     C57389   7.700   5.207  10.568  0.1950  0.6741  0.1743
  426MOL0     C57390   7.699   5.337  10.645  0.0347 -0.6926  0.0428
  426MOL0     C57391   7.564   5.407  10.605 -0.1968 -0.3393 -0.0674
  426MOL0     N57392   7.563   5.526  10.685  0.3902 -0.5768  0.0761
  426MOL0     C57393   7.626   5.648  10.656 -0.5771 -0.5376  1.0176
  426MOL0     C57394   7.585   5.735  10.750  0.2162  0.1806 -0.0197
  426MOL0     C57395   7.614   5.882  10.753  0.5717 -0.4660  0.4212
  426MOL0     C57396   7.509   5.965  10.670 -0.9717  0.0364 -0.3187
  426MOL0     C57397   7.550   6.118  10.677 -0.2266  0.2471  0.0710
  426MOL0     C57398   7.680   6.162  10.598 -0.2903  1.0623 -0.4105
  426MOL0     O57399   7.737   6.290  10.631 -0.2743  0.2312 -0.1124
  426MOL0     C57400   7.673   6.399  10.575  0.6154 -0.3216  0.0190
  426MOL0     C57401   7.701   6.518  10.639  0.2164  1.0920 -0.5467
  426MOL0     C57402   7.660   6.633  10.581  0.4297 -0.2444 -0.9919
  426MOL0     C57403   7.719   6.748  10.660 -0.5571 -0.4422 -0.0798
  426MOL0     C57404   7.574   6.648  10.474 -0.6389 -0.6979  0.7448
  426MOL0     C57405   7.526   6.776  10.417 -0.5333  0.1914  0.0890
  426MOL0     O57406   7.523   6.875  10.504 -0.4220  0.1972 -0.0729
  426MOL0     C57407   7.448   6.981  10.479 -0.0764  0.4422  0.8965
  426MOL0     C57408   7.479   7.078  10.392  0.5594 -0.8334 -0.1938
  426MOL0     C57409   7.401   7.190  10.380  0.6673 -0.0583  0.2928
  426MOL0     C57410   7.275   7.196  10.449 -0.9853 -1.0343 -0.1235
  426MOL0     O57411   7.194   7.304  10.450 -0.1008  0.3202 -0.1580
  426MOL0     C57412   7.222   7.408  10.358 -1.0276 -0.0835  0.5956
  426MOL0     C57413   7.324   7.509  10.414 -0.6893 -0.7461  0.8216
  426MOL0     C57414   7.358   7.616  10.301 -0.2503 -0.1880 -0.4588
  426MOL0     C57415   7.455   7.734  10.346 -0.3909 -0.0920  0.8905
  426MOL0     C57416   7.505   7.809  10.219  0.0438 -0.4828  0.3761
  426MOL0     C57417   7.612   7.913  10.255 -0.6933  0.0155 -0.8921
  426MOL0     C57418   7.554   8.054  10.289  0.1528 -0.2071  0.9082
  426MOL0     C57419   7.651   8.125  10.385 -0.3319 -0.2816  0.9285
  426MOL0    Cl57420   7.655   8.051  10.545  0.0285  0.4549  0.0911
  426MOL0     C57421   7.243   7.095  10.533 -0.0233  0.4661  0.5281
  426MOL0     C57422   7.333   6.985  10.553  0.0667 -0.0594  0.8732
  426MOL0     O57423   7.488   6.776  10.298  0.8053 -0.3044  0.7823
  426MOL0     C57424   7.539   6.523  10.419  0.8359  0.0711 -0.0273
  426MOL0     C57425   7.595   6.402  10.463 -0.5234 -0.1837  1.3735
  426MOL0     N57426   7.495   5.668  10.833  0.8780  0.8762 -0.5355
  426MOL0     N57427   7.476   5.552  10.783 -0.8622  0.0017  0.3975
  426MOL0     C57428   7.014   4.721  10.716 -1.1084 -1.2887  0.2130
  426MOL0     C57429   6.895   4.642  10.717  0.0835 -0.6563  0.0525
  426MOL0     C57430   6.526   4.427  10.527  0.1057 -0.7159  0.3132
  426MOL0     C57431   6.425   4.444  10.434 -0.4876 -0.1757  0.8285
  426MOL0     C57432   6.300   4.390  10.449  0.0513 -0.4846 -0.4038
  426MOL0     C57433   6.258   4.339  10.568 -1.1841  0.1769  0.0911
  426MOL0     O57434   6.138   4.297  10.585  0.8919  0.0846  0.5282
  426MOL0     C57435   6.038   4.303  10.477  0.0978  0.1829 -0.0536
  426MOL0     C57436   5.966   4.439  10.474  0.5115  0.8404  0.1109
  426MOL0     C57437   5.827   4.432  10.401 -0.6522  0.2396 -0.1426
  426MOL0     C57438   5.760   4.559  10.422 -0.2972 -0.4004 -0.6790
  426MOL0     C57439   5.644   4.566  10.323  1.0540 -1.2559  0.8610
  426MOL0     C57440   5.546   4.575  10.244  0.1476  0.7377  0.4442
  426MOL0     C57441   6.351   4.325  10.672 -0.5129  0.2214 -1.3815
  426MOL0     C57442   6.489   4.364  10.653  0.2492  0.4394 -0.3096
  426MOL0     H57443   6.943   4.488  10.421 -1.0818  4.3287 -3.2055
  426MOL0     H57444   7.132   4.603  10.415 -0.0552  1.7447 -0.3766
  426MOL0     H57445   7.227   4.975  10.573 -0.3042  0.1147  0.4154
  426MOL0     H57446   7.196   4.921  10.735 -0.6603  1.8378 -0.0805
  426MOL0     H57447   7.421   4.993  10.767 -1.2847  1.9748 -1.9216
  426MOL0     H57448   7.438   4.823  10.729  1.5147 -0.4380  1.0558
  426MOL0     H57449   7.481   4.850  10.502  0.7309 -0.1183  0.2409
  426MOL0     H57450   7.484   5.020  10.505  0.4269 -1.0588 -2.2835
  426MOL0     H57451   7.699   4.863  10.648  2.0169  0.4943  0.5435
  426MOL0     H57452   7.714   4.937  10.494  1.5079  3.1853  0.5078
  426MOL0     H57453   7.659   5.109  10.745  2.4332  0.2065  1.3942
  426MOL0     H57454   7.810   5.064  10.690 -1.1513  0.6700  0.6728
  426MOL0     H57455   7.788   5.210  10.502 -0.3786  4.1334 -0.6214
  426MOL0     H57456   7.616   5.184  10.502  0.0234  2.3652 -0.2366
  426MOL0     H57457   7.730   5.335  10.750  2.1390 -0.1882 -0.5133
  426MOL0     H57458   7.788   5.392  10.613  1.0902 -0.3502  3.2124
  426MOL0     H57459   7.471   5.354  10.627 -1.4638  1.6521 -0.3568
  426MOL0     H57460   7.561   5.434  10.499 -1.0776  1.3624  0.3638
  426MOL0     H57461   7.693   5.671  10.574 -0.3638 -1.7978  0.8228
  426MOL0     H57462   7.638   5.920  10.852 -0.2040  0.9414  0.0948
  426MOL0     H57463   7.708   5.901  10.699  0.6927 -1.2280  0.3559
  426MOL0     H57464   7.411   5.958  10.718 -0.0932  0.0596  1.5422
  426MOL0     H57465   7.504   5.934  10.565 -0.7087  0.4626 -0.4600
  426MOL0     H57466   7.567   6.146  10.782 -2.5917 -1.2019  0.8993
  426MOL0     H57467   7.474   6.188  10.642  2.1446  2.1260 -1.6968
  426MOL0     H57468   7.665   6.147  10.491 -1.0694  0.3589 -0.2127
  426MOL0     H57469   7.765   6.099  10.626  2.1379  3.8436 -0.9221
  426MOL0     H57470   7.755   6.514  10.733 -2.8628 -2.9122  1.3472
  426MOL0     H57471   7.739   6.826  10.586 -4.7185 -1.2887 -2.4327
  426MOL0     H57472   7.651   6.786  10.737  0.1983  1.2732 -0.2068
  426MOL0     H57473   7.807   6.717  10.718 -0.0976  3.2594  1.5176
  426MOL0     H57474   7.571   7.075  10.335 -0.1186 -0.1872 -1.3643
  426MOL0     H57475   7.434   7.275  10.320  1.7686 -0.5857  0.1231
  426MOL0     H57476   7.255   7.365  10.263  0.4049 -0.6113  1.2986
  426MOL0     H57477   7.128   7.462  10.340 -1.5197 -1.6228 -1.9817
  426MOL0     H57478   7.285   7.558  10.503  1.9869 -0.6405  2.0536
  426MOL0     H57479   7.409   7.450  10.451 -1.7477 -1.5140  2.1072
  426MOL0     H57480   7.267   7.649  10.250  0.8439  1.8292 -1.2607
  426MOL0     H57481   7.415   7.556  10.229  1.3618  1.5014 -0.6815
  426MOL0     H57482   7.411   7.803  10.419 -0.4605 -1.0438  1.7734
  426MOL0     H57483   7.535   7.684  10.402 -0.5987 -1.1573  0.2683
  426MOL0     H57484   7.421   7.862  10.173 -2.4488  0.1986  5.0610
  426MOL0     H57485   7.548   7.737  10.150  0.0219  0.1660 -0.3272
  426MOL0     H57486   7.677   7.871  10.331 -1.5226 -0.3242 -0.3623
  426MOL0     H57487   7.678   7.912  10.167 -2.1012 -2.0033 -2.0025
  426MOL0     H57488   7.462   8.036  10.345  0.4849  0.5127  1.7111
  426MOL0     H57489   7.532   8.112  10.199  1.6281 -0.8041  0.1524
  426MOL0     H57490   7.613   8.228  10.391  1.7014  0.7120 -1.5018
  426MOL0     H57491   7.754   8.132  10.349 -0.6731  1.4278  0.2018
  426MOL0     H57492   7.150   7.107  10.588 -1.2001  2.9493 -1.7704
  426MOL0     H57493   7.314   6.899  10.616  1.5905 -0.4020  0.8832
  426MOL0     H57494   7.471   6.512  10.335  0.5699 -0.1182  0.2082
  426MOL0     H57495   7.539   6.320  10.419 -3.1791  1.0318  2.2614
  426MOL0     H57496   7.032   4.777  10.807  0.9575  0.6989 -1.3161
  426MOL0     H57497   6.828   4.653  10.803 -1.7747 -0.8234 -1.3080
  426MOL0     H57498   6.455   4.475  10.334 -0.8492 -1.3094  0.3496
  426MOL0     H57499   6.235   4.413  10.365  0.4053 -1.6204 -1.0041
  426MOL0     H57500   6.079   4.271  10.381  0.2878  1.4487 -0.4164
  426MOL0     H57501   5.963   4.224  10.491 -4.3880  3.7806 -0.9949
  426MOL0     H57502   6.022   4.510  10.412  1.1595  0.0306 -0.2532
  426MOL0     H57503   5.962   4.470  10.579  1.5853 -1.8335  1.0315
  426MOL0     H57504   5.766   4.365  10.462  0.3619 -0.3310  0.2692
  426MOL0     H57505   5.842   4.402  10.297 -1.3450 -1.7937  0.3085
  426MOL0     H57506   5.819   4.649  10.404 -1.6785  0.4551 -1.1488
  426MOL0     H57507   5.718   4.588  10.519  1.9252  0.9830 -0.0485
  426MOL0     H57508   5.475   4.572  10.164 -1.4804  1.0335  1.8164
  426MOL0     H57509   6.327   4.290  10.772  0.7650 -1.1965 -1.5293
  426MOL0     H57510   6.562   4.379  10.732  0.3500  1.4590 -0.5787
  427MOL0     O57511   2.236   2.224   8.951  0.0194  0.0578  0.3475
  427MOL0     C57512   2.136   2.293   8.959  0.2206  0.3560  0.3870
  427MOL0     O57513   2.115   2.406   9.039  0.0404 -0.1097  0.2629
  427MOL0     C57514   2.192   2.446   9.138 -0.6208  0.7464 -1.3371
  427MOL0     C57515   2.301   2.373   9.189 -0.3680  0.1597  0.2204
  427MOL0     C57516   2.374   2.427   9.289  0.8492 -0.4130 -0.5982
  427MOL0     C57517   2.334   2.555   9.353 -0.4974  0.5045  0.4048
  427MOL0     O57518   2.399   2.592   9.467  0.1286 -1.4537  0.5589
  427MOL0     C57519   2.334   2.689   9.557 -1.1571  0.8998 -1.0373
  427MOL0     C57520   2.402   2.683   9.697  0.8028 -0.2345  0.2675
  427MOL0     C57521   2.341   2.566   9.774 -0.9784  1.0364  0.7519
  427MOL0     C57522   2.364   2.571   9.927  0.5600 -0.1653 -0.3006
  427MOL0     C57523   2.286   2.464  10.005  0.6237 -1.6270  1.3323
  427MOL0     C57524   2.341   2.437  10.142 -0.7515 -0.7274  0.5702
  427MOL0     C57525   2.384   2.566  10.215 -0.8114  0.2006  0.1215
  427MOL0     C57526   2.264   2.632  10.285 -0.5864 -0.4742 -0.7204
  427MOL0     N57527   2.179   2.713  10.196  0.2138 -0.3382  0.1404
  427MOL0     C57528   2.198   2.844  10.167  0.7699  0.3960  0.8054
  427MOL0     C57529   2.095   2.874  10.082  0.3015  0.3845 -0.7954
  427MOL0     C57530   2.071   3.005  10.032  0.4581 -0.0052  0.3258
  427MOL0     C57531   2.006   2.984   9.893  0.2211  0.0787 -0.0323
  427MOL0     C57532   2.102   2.948   9.777  0.6008  2.0673 -0.7605
  427MOL0     C57533   2.033   2.952   9.634 -0.0528  0.3969  0.0255
  427MOL0     O57534   2.129   2.959   9.526 -0.0488 -0.5095 -0.1449
  427MOL0     C57535   2.150   3.092   9.480  0.5819  0.8212  0.5308
  427MOL0     C57536   2.236   3.093   9.369  0.2176 -0.6781 -0.2213
  427MOL0     C57537   2.259   3.214   9.307 -0.4449  0.0641 -0.3750
  427MOL0     C57538   2.353   3.200   9.186 -0.2175 -0.0433  0.1679
  427MOL0     C57539   2.208   3.340   9.355  0.6105  0.3328 -0.0448
  427MOL0     C57540   2.228   3.465   9.297 -0.7003 -0.1201  0.0720
  427MOL0     O57541   2.345   3.492   9.238  0.1241  1.0643 -0.4456
  427MOL0     C57542   2.351   3.610   9.176 -1.0989 -0.4634  0.7446
  427MOL0     C57543   2.321   3.610   9.048  0.2520 -0.5309 -0.6704
  427MOL0     C57544   2.335   3.725   8.978  0.5709  0.7181  0.3485
  427MOL0     C57545   2.379   3.847   9.035  0.6690  0.8180  0.0854
  427MOL0     O57546   2.403   3.955   8.961 -0.0141  0.1440  0.1722
  427MOL0     C57547   2.330   3.972   8.829 -0.0696 -0.4816 -0.2866
  427MOL0     C57548   2.343   4.107   8.773 -0.3131 -0.0489 -0.1142
  427MOL0     C57549   2.246   4.211   8.847  0.7722  0.2110 -0.2932
  427MOL0     C57550   2.312   4.286   8.963 -0.1212  0.1492 -0.7289
  427MOL0     C57551   2.253   4.426   8.977  0.4979  0.7792  0.4229
  427MOL0     C57552   2.097   4.423   9.009 -0.2565 -0.2093  0.5846
  427MOL0     C57553   2.040   4.559   9.041 -0.0845 -0.6467  0.7018
  427MOL0     C57554   1.890   4.553   9.017  0.2813  0.2759  0.6184
  427MOL0    Cl57555   1.796   4.465   9.129 -0.0654  0.2132  0.0124
  427MOL0     C57556   2.402   3.846   9.176  0.0208 -0.2140 -0.6512
  427MOL0     C57557   2.389   3.727   9.242  0.8676 -0.3519  0.8216
  427MOL0     O57558   2.127   3.531   9.282 -0.1437 -0.3617 -0.6150
  427MOL0     C57559   2.119   3.338   9.468  0.3281  0.3233  0.1602
  427MOL0     C57560   2.098   3.216   9.531 -0.0518 -0.3633 -0.8740
  427MOL0     N57561   2.004   2.769  10.088  0.0074 -0.7164  0.8234
  427MOL0     N57562   2.056   2.669  10.153  0.4007 -0.2746 -0.1272
  427MOL0     C57563   2.232   2.627   9.293 -0.1915 -0.5504 -0.4668
  427MOL0     C57564   2.160   2.573   9.187  0.0150 -0.2412  0.0999
  427MOL0     C57565   2.018   2.259   8.872 -0.5916 -0.2580 -0.4545
  427MOL0     C57566   1.888   2.307   8.911 -0.0114 -0.4154  0.5198
  427MOL0     C57567   1.778   2.273   8.836  0.1817 -0.3914  1.1417
  427MOL0     C57568   1.788   2.178   8.732  0.2557  0.9632 -0.0919
  427MOL0     O57569   1.673   2.152   8.660  0.2233  0.4880  0.7257
  427MOL0     C57570   1.666   2.028   8.583  0.7949  1.0545  0.1687
  427MOL0     C57571   1.684   2.045   8.438  0.0096 -0.3837 -0.2155
  427MOL0     C57572   1.575   2.129   8.375  0.8916  0.0153 -0.9352
  427MOL0     C57573   1.432   2.066   8.364  0.0784  0.9235  0.0182
  427MOL0     C57574   1.432   1.933   8.310 -0.2999  0.2173  0.2456
  427MOL0     C57575   1.434   1.816   8.278 -0.3256  0.1078  0.8967
  427MOL0     C57576   1.916   2.122   8.698  0.2417  0.8541 -0.4225
  427MOL0     C57577   2.028   2.159   8.768 -0.8450  0.0305 -0.1090
  427MOL0     H57578   2.322   2.277   9.143 -4.1404 -0.7279  0.0159
  427MOL0     H57579   2.451   2.363   9.332  2.4496  1.2152 -0.8659
  427MOL0     H57580   2.345   2.791   9.519  0.6736  2.3656  2.8568
  427MOL0     H57581   2.228   2.665   9.565 -1.5170  2.8516  0.7489
  427MOL0     H57582   2.511   2.681   9.704  0.7927  0.0301  0.5074
  427MOL0     H57583   2.373   2.768   9.759  0.6841  0.3771 -0.6072
  427MOL0     H57584   2.232   2.571   9.760 -1.1645 -1.6395  0.6369
  427MOL0     H57585   2.380   2.472   9.735 -0.5227  1.9999 -1.2645
  427MOL0     H57586   2.469   2.575   9.958 -0.1024  4.1220  2.2021
  427MOL0     H57587   2.326   2.666   9.964  0.2924  0.4312 -2.0400
  427MOL0     H57588   2.179   2.489  10.012  1.0791  0.3715  1.9377
  427MOL0     H57589   2.295   2.371   9.948 -0.5187 -0.0874 -1.5678
  427MOL0     H57590   2.273   2.382  10.207 -2.8154  0.9010 -0.1220
  427MOL0     H57591   2.436   2.383  10.127  1.6399  3.8441 -3.4260
  427MOL0     H57592   2.460   2.541  10.290  2.5371  2.9752 -1.9824
  427MOL0     H57593   2.433   2.645  10.156 -2.0994  2.0324  1.3993
  427MOL0     H57594   2.293   2.690  10.373 -2.3585  0.3157 -0.6148
  427MOL0     H57595   2.190   2.569  10.335  0.6321  0.6756  2.8326
  427MOL0     H57596   2.282   2.907  10.194 -1.7097  3.6721  1.5311
  427MOL0     H57597   2.006   3.059  10.102 -0.2194  1.3503 -1.2679
  427MOL0     H57598   2.155   3.074  10.021 -1.3869  2.3760  0.1624
  427MOL0     H57599   1.973   3.082   9.858  0.9200  0.3548  0.0603
  427MOL0     H57600   1.912   2.928   9.896  0.4793 -0.4271  3.8356
  427MOL0     H57601   2.156   2.854   9.789  0.9051  2.1972 -1.0894
  427MOL0     H57602   2.177   3.027   9.774  2.3148  0.4908 -1.7904
  427MOL0     H57603   1.960   3.033   9.628 -1.9871 -0.9959  2.8131
  427MOL0     H57604   1.988   2.854   9.618 -0.6964  0.8622 -1.1089
  427MOL0     H57605   2.280   3.003   9.327  2.2329 -1.2210  2.7532
  427MOL0     H57606   2.323   3.105   9.141  0.7311 -0.0001 -0.5887
  427MOL0     H57607   2.340   3.280   9.112  0.3982  1.1629  1.3296
  427MOL0     H57608   2.458   3.210   9.214 -0.1331  0.7381 -0.3855
  427MOL0     H57609   2.277   3.521   9.004 -1.2045 -0.2871  0.2189
  427MOL0     H57610   2.309   3.731   8.873  4.2871  1.8809 -0.6321
  427MOL0     H57611   2.362   3.899   8.755 -0.3830 -0.0568 -0.8480
  427MOL0     H57612   2.222   3.956   8.841  0.0451 -0.0762  1.7307
  427MOL0     H57613   2.447   4.140   8.785 -0.3166 -0.3711  0.8821
  427MOL0     H57614   2.329   4.103   8.665  2.5095 -2.8032 -0.5185
  427MOL0     H57615   2.149   4.166   8.873  0.9573 -0.0424 -0.0369
  427MOL0     H57616   2.226   4.278   8.763 -1.0139  0.2591  0.1227
  427MOL0     H57617   2.298   4.221   9.050  1.1731 -0.5513 -1.0144
  427MOL0     H57618   2.420   4.301   8.953  0.1416 -1.5530 -0.8821
  427MOL0     H57619   2.263   4.485   8.885 -1.5862 -0.5738 -0.7517
  427MOL0     H57620   2.293   4.485   9.060  0.5061  0.7453  0.4429
  427MOL0     H57621   2.048   4.383   8.920 -0.1952  0.2266  0.3531
  427MOL0     H57622   2.085   4.348   9.088  2.6220  0.4183  1.7808
  427MOL0     H57623   2.068   4.630   8.964 -0.4464 -0.9546  0.2776
  427MOL0     H57624   2.072   4.603   9.136  1.5136  1.2829 -0.6651
  427MOL0     H57625   1.851   4.530   8.917 -2.8361 -1.6935  2.1471
  427MOL0     H57626   1.836   4.645   9.041 -2.4938 -0.7292 -1.2558
  427MOL0     H57627   2.414   3.930   9.245  0.2692  0.7384 -1.8165
  427MOL0     H57628   2.414   3.715   9.347  1.3790  1.8879  0.9900
  427MOL0     H57629   2.063   3.427   9.495 -0.6420 -0.3074  0.2617
  427MOL0     H57630   2.034   3.231   9.618  3.2266 -0.7860  1.8355
  427MOL0     H57631   2.203   2.724   9.333  2.4041  0.1374 -0.0816
  427MOL0     H57632   2.088   2.630   9.129 -1.8384 -1.3552  1.2164
  427MOL0     H57633   1.872   2.370   8.998 -3.8575  0.5775 -0.7227
  427MOL0     H57634   1.685   2.328   8.846  0.4667  0.4671 -0.5983
  427MOL0     H57635   1.742   1.951   8.601 -0.7312 -0.9191 -1.3183
  427MOL0     H57636   1.571   1.976   8.599  1.0864  1.5237  4.4701
  427MOL0     H57637   1.702   1.948   8.390  0.7212 -0.1834 -0.3584
  427MOL0     H57638   1.777   2.100   8.428 -0.2354 -0.0025 -0.4121
  427MOL0     H57639   1.612   2.166   8.279  2.7420  1.2650  0.1847
  427MOL0     H57640   1.565   2.218   8.439 -4.4794  0.8200 -2.3949
  427MOL0     H57641   1.353   2.110   8.302  0.6879 -1.9403 -3.0764
  427MOL0     H57642   1.395   2.071   8.467  0.3708 -0.0543  0.1749
  427MOL0     H57643   1.432   1.715   8.242 -1.1549  0.2476  0.5199
  427MOL0     H57644   1.943   2.040   8.632  3.4641  2.5310 -1.4199
  427MOL0     H57645   2.118   2.103   8.747  0.1307  1.5509 -0.0949
  428MOL0     O57646   6.950   2.624   3.253  0.0250  0.0186 -0.0671
  428MOL0     C57647   7.041   2.536   3.274  1.1048  0.1417 -0.0059
  428MOL0     O57648   7.032   2.440   3.376 -0.5385 -0.2841  0.0326
  428MOL0     C57649   6.941   2.460   3.475 -0.5867  0.0366 -0.5207
  428MOL0     C57650   6.807   2.435   3.464 -0.6589  0.3598  1.3356
  428MOL0     C57651   6.721   2.448   3.579  0.7658  0.5344 -0.3872
  428MOL0     C57652   6.770   2.483   3.703 -0.0793  0.1285 -0.5915
  428MOL0     O57653   6.692   2.498   3.816  0.3016 -0.6564 -0.0137
  428MOL0     C57654   6.747   2.516   3.943  0.3527 -0.1645 -0.0944
  428MOL0     C57655   6.633   2.506   4.046  0.2780 -0.1282 -0.5212
  428MOL0     C57656   6.592   2.639   4.101 -0.1826  1.2002 -0.4912
  428MOL0     C57657   6.530   2.724   3.992  1.4471 -0.2637 -0.8251
  428MOL0     C57658   6.445   2.843   4.059  0.6250 -0.5378 -0.1941
  428MOL0     C57659   6.538   2.946   4.118  0.1807 -1.2669  0.2740
  428MOL0     C57660   6.473   3.046   4.217  0.2478  0.4424  0.2835
  428MOL0     C57661   6.374   3.141   4.167  0.2119 -0.2553  0.6312
  428MOL0     N57662   6.428   3.278   4.125  0.1326  0.0635  0.3133
  428MOL0     C57663   6.466   3.308   3.995  0.8823  0.5872  0.0348
  428MOL0     C57664   6.519   3.425   4.003  0.2903 -0.9256 -0.5536
  428MOL0     C57665   6.577   3.504   3.887  0.0573 -0.4101  0.0555
  428MOL0     C57666   6.500   3.633   3.869  0.2068  0.3598  0.3136
  428MOL0     C57667   6.559   3.737   3.780  0.0195  0.2074 -0.8168
  428MOL0     C57668   6.459   3.854   3.750  0.2351 -0.8931  0.2280
  428MOL0     O57669   6.508   3.944   3.648  0.0326 -0.0308  0.5903
  428MOL0     C57670   6.454   4.070   3.616 -0.4416 -0.2926 -0.2614
  428MOL0     C57671   6.526   4.130   3.521  0.0951  0.0528 -0.1509
  428MOL0     C57672   6.479   4.249   3.462  0.6055 -0.6630  0.2781
  428MOL0     C57673   6.563   4.326   3.368 -0.0529  0.1189 -0.9856
  428MOL0     C57674   6.371   4.315   3.518  0.1125 -0.3123  0.5693
  428MOL0     C57675   6.305   4.440   3.467  0.4575 -0.0611 -0.5886
  428MOL0     O57676   6.175   4.454   3.512  0.0654 -0.9740 -0.0871
  428MOL0     C57677   6.089   4.543   3.443  0.6015 -0.1631  0.0953
  428MOL0     C57678   5.988   4.609   3.510  0.2716 -0.9060 -0.6083
  428MOL0     C57679   5.899   4.705   3.468 -0.7729  1.1046  0.1099
  428MOL0     C57680   5.920   4.731   3.329  0.1175 -0.5033 -0.3560
  428MOL0     O57681   5.841   4.831   3.279 -0.0543 -0.5154 -0.2070
  428MOL0     C57682   5.772   4.811   3.155 -0.0477  0.1912 -0.0389
  428MOL0     C57683   5.659   4.705   3.163  0.0131  0.7120  0.4285
  428MOL0     C57684   5.560   4.728   3.282  0.1800 -0.6142  0.3925
  428MOL0     C57685   5.417   4.664   3.270  0.2802 -0.5706 -0.4354
  428MOL0     C57686   5.349   4.722   3.147  0.3338 -0.0428 -1.2208
  428MOL0     C57687   5.296   4.860   3.176 -0.5984 -0.5486 -1.0929
  428MOL0     C57688   5.224   4.915   3.055  0.2222 -0.8272  0.0430
  428MOL0     C57689   5.075   4.910   3.046 -0.0268 -1.1683 -0.3188
  428MOL0    Cl57690   5.017   4.995   3.188  0.1870  0.2306  0.1003
  428MOL0     C57691   6.019   4.663   3.246  0.4957  0.8121  0.2093
  428MOL0     C57692   6.097   4.562   3.304  0.8693 -0.1869 -0.1763
  428MOL0     O57693   6.369   4.527   3.406 -0.3424  0.1381  0.1456
  428MOL0     C57694   6.303   4.251   3.630 -0.3598 -0.2580 -0.2112
  428MOL0     C57695   6.350   4.133   3.678  0.4055  0.5590 -0.2037
  428MOL0     N57696   6.538   3.464   4.130 -0.0703 -0.0583 -1.4183
  428MOL0     N57697   6.477   3.376   4.205 -0.6208 -0.6143 -0.2227
  428MOL0     C57698   6.910   2.504   3.704 -1.0017  0.0228 -0.0680
  428MOL0     C57699   6.996   2.497   3.599 -0.2652 -0.1422 -0.2896
  428MOL0     C57700   7.164   2.529   3.185  1.3165 -0.4899 -0.6438
  428MOL0     C57701   7.158   2.600   3.062 -0.2064  0.7051 -0.0161
  428MOL0     C57702   7.263   2.575   2.971  0.6964  0.5719  0.2336
  428MOL0     C57703   7.372   2.495   3.006  0.7014  0.9537  0.0024
  428MOL0     O57704   7.486   2.474   2.932 -0.5532 -0.2613 -0.4786
  428MOL0     C57705   7.470   2.498   2.782 -0.2271 -0.5400  0.4800
  428MOL0     C57706   7.576   2.591   2.712 -0.4493 -0.2370 -0.0404
  428MOL0     C57707   7.545   2.734   2.750  0.6476  0.2649  0.0923
  428MOL0     C57708   7.655   2.825   2.718  0.5002  0.4948 -0.1352
  428MOL0     C57709   7.627   2.963   2.726  0.2105  0.9582  1.3121
  428MOL0     C57710   7.604   3.077   2.747 -0.6061 -0.5874  0.4482
  428MOL0     C57711   7.382   2.451   3.142 -0.8073 -0.1238 -0.1523
  428MOL0     C57712   7.275   2.452   3.225 -0.6894 -0.3096  0.4463
  428MOL0     H57713   6.759   2.417   3.369 -1.0113  1.2414  1.3413
  428MOL0     H57714   6.615   2.426   3.575  0.6033  1.2476 -0.0809
  428MOL0     H57715   6.833   2.452   3.963 -0.5480 -0.8914  1.6565
  428MOL0     H57716   6.787   2.616   3.961 -1.5858  0.0726  4.1878
  428MOL0     H57717   6.547   2.450   4.007  0.1197  0.7003 -1.4299
  428MOL0     H57718   6.667   2.453   4.135 -0.0884 -1.0425 -0.9144
  428MOL0     H57719   6.526   2.624   4.187  1.9420 -2.0247  0.7959
  428MOL0     H57720   6.681   2.694   4.134 -0.9837  1.8528  0.6349
  428MOL0     H57721   6.611   2.764   3.929  1.7574 -2.3645 -1.8509
  428MOL0     H57722   6.472   2.666   3.920  2.6376 -1.0992 -1.1482
  428MOL0     H57723   6.394   2.893   3.976  1.5172  2.8410  1.1335
  428MOL0     H57724   6.374   2.803   4.132  0.5581 -0.4534 -0.2129
  428MOL0     H57725   6.604   2.883   4.178  0.6231 -0.1922  0.9480
  428MOL0     H57726   6.602   3.003   4.050  1.7049 -1.1642  1.7417
  428MOL0     H57727   6.414   2.989   4.290  1.4777  0.3389  1.2380
  428MOL0     H57728   6.548   3.100   4.275 -0.5534  0.7722  1.0306
  428MOL0     H57729   6.306   3.165   4.249  1.3599  1.9144  1.0433
  428MOL0     H57730   6.319   3.095   4.084  1.5121  2.1780 -1.7389
  428MOL0     H57731   6.441   3.262   3.899  3.6096 -0.3155 -0.3189
  428MOL0     H57732   6.681   3.517   3.920 -0.7370 -1.9981  3.7008
  428MOL0     H57733   6.569   3.449   3.793 -2.6108 -1.3324  0.7399
  428MOL0     H57734   6.487   3.674   3.969  2.6930 -1.3241  1.4288
  428MOL0     H57735   6.410   3.607   3.813  1.4483  0.2054 -1.7071
  428MOL0     H57736   6.592   3.670   3.700  0.9892 -2.0291  1.3345
  428MOL0     H57737   6.642   3.783   3.834 -1.7297  2.0064  0.4986
  428MOL0     H57738   6.451   3.894   3.851  1.4265 -1.7954  0.7029
  428MOL0     H57739   6.362   3.825   3.708 -0.9769 -1.8323  3.3691
  428MOL0     H57740   6.608   4.076   3.474 -1.6046  1.0679 -4.8040
  428MOL0     H57741   6.610   4.406   3.426  3.4688 -3.0198  0.9463
  428MOL0     H57742   6.650   4.270   3.329  0.3142  0.9899 -1.4518
  428MOL0     H57743   6.506   4.369   3.285 -1.2778  1.8354  0.6892
  428MOL0     H57744   5.978   4.567   3.610  2.2267  0.2208  0.1319
  428MOL0     H57745   5.821   4.756   3.522 -0.6657  1.8854 -0.4527
  428MOL0     H57746   5.715   4.901   3.130  2.3785  1.3650 -1.8145
  428MOL0     H57747   5.840   4.779   3.075 -0.3898 -4.2898  1.1884
  428MOL0     H57748   5.614   4.706   3.064  0.4746 -1.2168  0.1458
  428MOL0     H57749   5.696   4.602   3.165 -3.0789 -0.5662 -1.3292
  428MOL0     H57750   5.552   4.837   3.288  4.4807 -0.0815 -0.1084
  428MOL0     H57751   5.601   4.692   3.377 -1.2775  0.9167  1.6571
  428MOL0     H57752   5.418   4.555   3.265 -5.2447 -1.0453  1.6259
  428MOL0     H57753   5.363   4.687   3.363  1.2858 -2.4228  0.6620
  428MOL0     H57754   5.266   4.653   3.128  1.8184 -2.3027  0.1758
  428MOL0     H57755   5.415   4.726   3.060  1.3522  1.0724 -0.4310
  428MOL0     H57756   5.239   4.861   3.269 -0.5436 -3.4009 -0.9617
  428MOL0     H57757   5.383   4.926   3.186 -0.3678 -0.9646 -0.2863
  428MOL0     H57758   5.270   4.880   2.962 -1.0913  0.4663 -1.1560
  428MOL0     H57759   5.258   5.019   3.056  1.1211 -1.1084  1.2596
  428MOL0     H57760   5.036   4.808   3.033 -0.7288 -1.3588  2.6950
  428MOL0     H57761   5.046   4.971   2.960 -1.4733 -1.7746 -0.2992
  428MOL0     H57762   6.025   4.684   3.140 -1.3983  0.3448 -0.0462
  428MOL0     H57763   6.171   4.512   3.243  0.2802 -0.9744 -0.2584
  428MOL0     H57764   6.208   4.290   3.663  0.3991  2.8654 -1.4081
  428MOL0     H57765   6.296   4.094   3.763  3.0206  0.3472  1.4805
  428MOL0     H57766   6.951   2.538   3.799 -1.0816 -1.1271  0.3945
  428MOL0     H57767   7.102   2.515   3.614 -0.2952 -0.5100  0.4084
  428MOL0     H57768   7.074   2.650   3.015 -0.1989  1.2881  0.5870
  428MOL0     H57769   7.246   2.628   2.878  2.3591  2.4592  0.9206
  428MOL0     H57770   7.483   2.401   2.733  1.7102 -0.3726  0.6086
  428MOL0     H57771   7.368   2.531   2.756  0.0296  0.5604  0.8343
  428MOL0     H57772   7.556   2.582   2.605 -1.0350  0.5402 -0.0101
  428MOL0     H57773   7.681   2.578   2.738  0.0575  0.4880 -1.5882
  428MOL0     H57774   7.525   2.748   2.857  1.4914  0.2582  0.2553
  428MOL0     H57775   7.454   2.754   2.693  0.8785 -2.5871 -1.4610
  428MOL0     H57776   7.691   2.802   2.618  0.2164  1.4786 -0.4662
  428MOL0     H57777   7.737   2.797   2.785 -1.1939  1.9726  2.7719
  428MOL0     H57778   7.565   3.177   2.755  1.0767  0.1095  0.4882
  428MOL0     H57779   7.475   2.403   3.171  0.3420  0.9953 -1.7683
  428MOL0     H57780   7.266   2.409   3.324  0.7430  1.7593  1.5402
  429MOL0     O57781   5.835   6.457   1.747  0.1981 -0.2556  0.6256
  429MOL0     C57782   5.921   6.396   1.686  0.3352  0.0940  0.6211
  429MOL0     O57783   6.039   6.354   1.738  0.4834 -0.5147 -0.1826
  429MOL0     C57784   6.081   6.384   1.867  0.2744 -0.6713 -0.2890
  429MOL0     C57785   6.017   6.456   1.971 -0.0884 -0.8574 -0.4224
  429MOL0     C57786   6.106   6.484   2.080  0.2783  0.3576  0.0735
  429MOL0     C57787   6.236   6.428   2.091  0.7984  0.3854 -1.3698
  429MOL0     O57788   6.303   6.450   2.205  0.7600  0.8088  0.1828
  429MOL0     C57789   6.237   6.401   2.326  0.7552  0.7759  0.5512
  429MOL0     C57790   6.345   6.369   2.438  0.5403  0.1927 -0.0951
  429MOL0     C57791   6.448   6.272   2.383 -0.0291  0.1706 -0.1909
  429MOL0     C57792   6.540   6.230   2.504  0.9314  0.1835  0.2355
  429MOL0     C57793   6.672   6.167   2.466 -1.1654  0.0611  0.4462
  429MOL0     C57794   6.653   6.041   2.378  0.3903  0.1657 -0.0904
  429MOL0     C57795   6.593   5.910   2.442 -0.2349  0.4459  0.3979
  429MOL0     C57796   6.641   5.786   2.361 -0.7282  0.6453  0.3722
  429MOL0     N57797   6.608   5.793   2.212 -0.4219 -0.0584 -0.0874
  429MOL0     C57798   6.479   5.816   2.150 -0.0611  0.4540  0.1493
  429MOL0     C57799   6.494   5.790   2.019 -0.5973  0.4573 -0.9210
  429MOL0     C57800   6.399   5.793   1.902  0.7077  0.2901 -0.1545
  429MOL0     C57801   6.323   5.924   1.906  0.0723 -1.1716 -0.3376
  429MOL0     C57802   6.264   5.966   1.771 -0.3457  0.4609  0.3211
  429MOL0     C57803   6.152   5.870   1.728  0.0043 -0.5336 -0.2992
  429MOL0     O57804   6.100   5.915   1.601  0.4160  0.4689  0.0121
  429MOL0     C57805   5.990   5.857   1.546  0.0494  0.6419 -0.2253
  429MOL0     C57806   5.930   5.921   1.440 -0.2946  0.7359  0.0547
  429MOL0     C57807   5.814   5.873   1.369 -0.3133 -0.1300 -0.2934
  429MOL0     C57808   5.758   5.950   1.247  1.2347 -0.6770 -0.5169
  429MOL0     C57809   5.756   5.754   1.412  0.0415  0.5825 -0.8987
  429MOL0     C57810   5.640   5.707   1.347 -0.2386  0.8303  0.5346
  429MOL0     O57811   5.668   5.614   1.243 -0.1240  0.3792 -0.4143
  429MOL0     C57812   5.564   5.549   1.185  0.9703  0.4284 -0.3663
  429MOL0     C57813   5.496   5.448   1.257  0.4176  0.0468  0.2900
  429MOL0     C57814   5.393   5.374   1.186 -0.4246 -0.5949 -0.4564
  429MOL0     C57815   5.342   5.409   1.068 -0.3114  0.6905 -0.9087
  429MOL0     O57816   5.231   5.347   1.018  0.1733 -0.2953  0.2412
  429MOL0     C57817   5.204   5.363   0.878  0.0422 -0.1960  0.7236
  429MOL0     C57818   5.101   5.262   0.822 -0.3255 -0.5800  0.0057
  429MOL0     C57819   5.146   5.212   0.683  0.3016 -0.6430 -0.5962
  429MOL0     C57820   5.025   5.132   0.633  0.0238 -0.4788  0.0164
  429MOL0     C57821   5.056   5.090   0.488 -0.3115 -0.2859 -0.2968
  429MOL0     C57822   4.943   5.012   0.432 -0.6133 -0.4140  0.4572
  429MOL0     C57823   4.881   4.903   0.524  0.0707 -0.3024  0.4800
  429MOL0     C57824   4.789   4.799   0.457 -0.4212  0.0658  0.0781
  429MOL0    Cl57825   4.868   4.659   0.379 -0.1176  0.1769  0.0251
  429MOL0     C57826   5.399   5.524   1.006  0.1646  0.3833  0.0786
  429MOL0     C57827   5.513   5.588   1.060 -0.3684  0.2951 -0.0067
  429MOL0     O57828   5.537   5.725   1.399 -0.1202 -0.2775  0.0304
  429MOL0     C57829   5.812   5.696   1.526 -0.0493  1.3147  0.0540
  429MOL0     C57830   5.933   5.736   1.589  0.7103  1.1627  0.7500
  429MOL0     N57831   6.620   5.724   2.015 -0.9330  0.1760 -0.8544
  429MOL0     N57832   6.679   5.717   2.130 -0.3160  0.4720  0.1964
  429MOL0     C57833   6.290   6.355   1.995  0.1003  0.6317  0.7867
  429MOL0     C57834   6.208   6.338   1.882 -0.3354 -0.2683 -0.6723
  429MOL0     C57835   5.905   6.386   1.539  0.4061 -0.6109  0.9703
  429MOL0     C57836   6.007   6.357   1.449 -0.0486  0.6509  0.0567
  429MOL0     C57837   5.988   6.338   1.310 -0.0073 -0.0708  1.6117
  429MOL0     C57838   5.859   6.332   1.257 -0.0345 -0.6635  0.2401
  429MOL0     O57839   5.820   6.300   1.133 -0.0946 -0.2658  0.1278
  429MOL0     C57840   5.916   6.272   1.031 -0.3152 -0.9251  0.7536
  429MOL0     C57841   5.858   6.253   0.893 -0.2473  0.2588 -0.2356
  429MOL0     C57842   5.800   6.110   0.872  0.0943  0.0900 -0.2311
  429MOL0     C57843   5.743   6.099   0.723  0.4408 -0.4737 -0.2125
  429MOL0     C57844   5.695   5.958   0.691 -0.3689  0.0572 -0.3819
  429MOL0     C57845   5.677   5.842   0.660  0.3962 -2.0179  0.1628
  429MOL0     C57846   5.762   6.355   1.348  0.1563  0.5753  0.0962
  429MOL0     C57847   5.780   6.394   1.486  0.0126 -0.2823  0.2444
  429MOL0     H57848   5.915   6.490   1.959 -0.0831  0.2191  1.9845
  429MOL0     H57849   6.078   6.532   2.173 -0.5132 -2.6643  1.5248
  429MOL0     H57850   6.174   6.479   2.369 -0.1699 -0.3558  1.3145
  429MOL0     H57851   6.180   6.308   2.319  0.8711  0.7680 -0.5769
  429MOL0     H57852   6.390   6.461   2.476  0.7165  0.6606 -1.3918
  429MOL0     H57853   6.294   6.317   2.520 -0.6890 -0.8321 -1.4440
  429MOL0     H57854   6.403   6.181   2.342 -3.8769  3.1277 -3.2816
  429MOL0     H57855   6.511   6.319   2.307 -1.6083  3.0238  0.1291
  429MOL0     H57856   6.569   6.321   2.558 -2.6234  0.7205  1.4926
  429MOL0     H57857   6.492   6.166   2.578  0.6351  1.8102  1.5143
  429MOL0     H57858   6.717   6.249   2.410  1.1708 -1.9357 -0.7515
  429MOL0     H57859   6.736   6.156   2.554 -0.3922  0.9410  0.0086
  429MOL0     H57860   6.598   6.076   2.290 -1.3261  0.7563  1.1744
  429MOL0     H57861   6.752   6.010   2.345  1.3656 -0.9466  3.4705
  429MOL0     H57862   6.640   5.898   2.540  0.7358 -1.6644 -0.2705
  429MOL0     H57863   6.484   5.909   2.443 -0.3540 -2.2255 -1.5997
  429MOL0     H57864   6.602   5.692   2.403 -0.7495  0.8580  0.8263
  429MOL0     H57865   6.749   5.779   2.375 -0.2681  2.2832 -1.7818
  429MOL0     H57866   6.387   5.858   2.188 -1.1255 -1.3757 -0.2754
  429MOL0     H57867   6.453   5.791   1.807  0.7757  2.0727 -0.1973
  429MOL0     H57868   6.336   5.704   1.911 -2.1409  2.3636  2.9364
  429MOL0     H57869   6.394   6.003   1.932  1.6750 -1.8078 -2.5417
  429MOL0     H57870   6.236   5.917   1.972 -0.1592 -1.5978 -0.6811
  429MOL0     H57871   6.346   5.957   1.699 -0.6249 -1.8102  0.1920
  429MOL0     H57872   6.243   6.073   1.763  5.1483  1.7935 -0.1803
  429MOL0     H57873   6.074   5.877   1.805  2.1639  2.6629  1.8782
  429MOL0     H57874   6.190   5.768   1.721 -1.3281 -0.9659 -1.9444
  429MOL0     H57875   5.981   6.007   1.396 -1.7304  2.2782  1.2835
  429MOL0     H57876   5.660   5.992   1.276  0.1634 -1.0161 -3.3553
  429MOL0     H57877   5.824   6.035   1.228  1.7034  0.1091  3.6176
  429MOL0     H57878   5.738   5.902   1.151  0.4067  1.3218 -1.4257
  429MOL0     H57879   5.534   5.400   1.347  2.0730  0.9149  0.0993
  429MOL0     H57880   5.347   5.289   1.235 -1.5771 -0.1457 -0.7415
  429MOL0     H57881   5.170   5.463   0.851 -0.5975 -0.3044  1.1058
  429MOL0     H57882   5.305   5.344   0.839  0.2942  0.3046  1.1237
  429MOL0     H57883   5.094   5.186   0.900  3.6438 -1.6713 -0.4771
  429MOL0     H57884   5.005   5.311   0.804  0.7649  0.6226 -3.4255
  429MOL0     H57885   5.238   5.153   0.689  1.0453  0.5952  0.7413
  429MOL0     H57886   5.153   5.302   0.620 -2.3380 -2.0105 -3.0843
  429MOL0     H57887   4.998   5.061   0.712  2.1621  0.9244  2.1378
  429MOL0     H57888   4.934   5.190   0.623  1.5574  2.5363  2.1870
  429MOL0     H57889   5.147   5.030   0.491  0.8487  1.4500  1.0517
  429MOL0     H57890   5.086   5.169   0.419  0.8562 -1.3981 -1.1048
  429MOL0     H57891   4.864   5.078   0.394  0.8386  1.1010 -0.0620
  429MOL0     H57892   4.975   4.964   0.339 -2.9207  0.3623 -0.8144
  429MOL0     H57893   4.819   4.955   0.597 -0.1893 -1.8319  1.3806
  429MOL0     H57894   4.961   4.844   0.569  1.3856  1.5240  0.6936
  429MOL0     H57895   4.726   4.841   0.378  1.3919 -0.0373 -1.4896
  429MOL0     H57896   4.731   4.761   0.541 -0.4191  1.9674  0.9976
  429MOL0     H57897   5.344   5.564   0.922 -2.2150 -3.5837 -0.5392
  429MOL0     H57898   5.567   5.665   1.006  1.3691 -1.5565 -1.0508
  429MOL0     H57899   5.754   5.609   1.557  1.1490 -0.7550 -3.0014
  429MOL0     H57900   5.990   5.677   1.660  1.3278 -0.1852 -0.8153
  429MOL0     H57901   6.389   6.312   2.008 -0.3336 -0.8929 -0.5828
  429MOL0     H57902   6.251   6.269   1.811  2.3679 -2.1580  2.5249
  429MOL0     H57903   6.110   6.357   1.484  0.8757  1.0329 -2.4404
  429MOL0     H57904   6.072   6.318   1.243 -1.5203  0.4636 -0.5298
  429MOL0     H57905   5.996   6.346   1.022 -2.0451  0.9037 -0.2443
  429MOL0     H57906   5.952   6.172   1.056  1.1544 -0.5216  0.3322
  429MOL0     H57907   5.923   6.281   0.810 -0.1777 -0.2629 -0.3586
  429MOL0     H57908   5.778   6.328   0.891  0.3000  0.9143  1.1784
  429MOL0     H57909   5.722   6.090   0.945  0.2198  0.3744 -0.0161
  429MOL0     H57910   5.879   6.036   0.887 -1.3792 -1.8354 -1.5192
  429MOL0     H57911   5.812   6.124   0.642 -0.1130 -0.7174 -0.7559
  429MOL0     H57912   5.658   6.166   0.722  2.0418  1.6965  0.8396
  429MOL0     H57913   5.660   5.745   0.619 -1.8889 -2.1595  1.3311
  429MOL0     H57914   5.657   6.346   1.320 -0.9165 -2.1888  4.0142
  429MOL0     H57915   5.700   6.427   1.550  0.9679  2.0566  0.3365
  430MOL0     O57916   8.118   8.542   3.533  0.4548 -0.1046 -0.6536
  430MOL0     C57917   8.000   8.507   3.502 -0.9416 -1.0382 -0.2498
  430MOL0     O57918   7.958   8.476   3.373  0.7970  0.4411 -0.3445
  430MOL0     C57919   8.050   8.489   3.270  0.2856 -0.5215  0.4789
  430MOL0     C57920   8.076   8.373   3.193 -0.0650 -0.5685  0.2747
  430MOL0     C57921   8.186   8.369   3.101  0.7903 -0.5493 -0.1394
  430MOL0     C57922   8.260   8.489   3.072 -0.0718  1.0802 -0.5982
  430MOL0     O57923   8.375   8.489   2.999 -0.2563 -0.6925 -0.0211
  430MOL0     C57924   8.386   8.400   2.888  0.2678 -0.1719  1.0241
  430MOL0     C57925   8.523   8.407   2.824  0.2282  0.6539  0.4045
  430MOL0     C57926   8.539   8.297   2.723  0.2167  0.5531  0.3927
  430MOL0     C57927   8.684   8.268   2.674  0.1623  0.2317 -0.2156
  430MOL0     C57928   8.697   8.166   2.557  0.1443  1.0736 -0.7825
  430MOL0     C57929   8.844   8.144   2.525 -0.8037 -0.3263  0.7360
  430MOL0     C57930   8.862   8.027   2.424 -0.7233 -0.1687 -0.2563
  430MOL0     C57931   8.816   7.890   2.477  0.2160  0.5858  0.8301
  430MOL0     N57932   8.842   7.868   2.619 -0.7240  0.0441 -0.2576
  430MOL0     C57933   8.970   7.861   2.661  0.5158 -0.2353  1.5142
  430MOL0     C57934   8.962   7.846   2.795  0.2536 -0.7492 -0.3800
  430MOL0     C57935   9.082   7.815   2.875 -1.0497  0.5433 -0.7246
  430MOL0     C57936   9.168   7.927   2.936  0.4994  0.0947  0.5274
  430MOL0     C57937   9.084   8.041   2.987 -0.5819 -0.1653 -0.3447
  430MOL0     C57938   9.173   8.138   3.082  0.2412  0.0804  0.2475
  430MOL0     O57939   9.288   8.188   3.006 -0.0757 -0.1367 -0.4460
  430MOL0     C57940   9.358   8.299   3.043  0.0540  0.1284  0.3449
  430MOL0     C57941   9.435   8.357   2.939  0.8281  1.7303  0.2415
  430MOL0     C57942   9.502   8.474   2.951  0.9253 -0.2463 -0.4049
  430MOL0     C57943   9.576   8.521   2.827 -0.1098  0.0580  0.3407
  430MOL0     C57944   9.500   8.543   3.083 -0.3966  0.3195  0.2741
  430MOL0     C57945   9.562   8.681   3.108  0.8045  0.6707  0.2501
  430MOL0     O57946   9.507   8.757   3.207 -0.2089  0.2566 -0.3880
  430MOL0     C57947   9.563   8.881   3.234  0.4753  0.5637 -0.4402
  430MOL0     C57948   9.538   9.010   3.177  0.3761 -0.0684 -1.2148
  430MOL0     C57949   9.598   9.126   3.230  0.2036 -0.5541 -0.4218
  430MOL0     C57950   9.667   9.124   3.346 -0.0436  0.3095 -0.5624
  430MOL0     O57951   9.717   9.234   3.408  0.0025 -0.3569  0.3912
  430MOL0     C57952   9.682   9.362   3.353 -0.5489 -0.5252 -0.7521
  430MOL0     C57953   9.741   9.469   3.445 -0.9936  0.0236 -0.0745
  430MOL0     C57954   9.735   9.610   3.373 -0.0824  0.2618  0.3070
  430MOL0     C57955   9.805   9.724   3.455  0.0866  0.8614  0.4025
  430MOL0     C57956   9.721   9.760   3.587 -1.3861 -0.4381  0.5415
  430MOL0     C57957   9.793   9.877   3.669  0.5623 -0.4401  0.3062
  430MOL0     C57958   9.686   9.937   3.754  0.6345  0.0779 -0.3142
  430MOL0     C57959   9.711  10.071   3.813  0.1077  0.2820 -0.5507
  430MOL0    Cl57960   9.863  10.034   3.912 -0.4216 -0.5738  0.3763
  430MOL0     C57961   9.681   9.002   3.413  0.4201  0.3348 -0.6939
  430MOL0     C57962   9.629   8.885   3.360 -0.6231  1.2400  0.0142
  430MOL0     O57963   9.658   8.713   3.033 -0.2912 -0.2746 -0.3408
  430MOL0     C57964   9.401   8.494   3.177  0.1487  0.3093 -0.0848
  430MOL0     C57965   9.346   8.367   3.163 -1.0187  0.4172 -0.4509
  430MOL0     N57966   8.829   7.835   2.826  0.8435 -0.9480  0.2372
  430MOL0     N57967   8.759   7.859   2.721  0.7894 -0.2777  0.6628
  430MOL0     C57968   8.214   8.601   3.129  1.0376 -0.0705 -0.9459
  430MOL0     C57969   8.111   8.611   3.235  0.2111 -0.8295  0.4361
  430MOL0     C57970   7.888   8.529   3.606 -0.7619 -0.3784 -0.7245
  430MOL0     C57971   7.751   8.522   3.580  0.1624 -0.3805  0.1413
  430MOL0     C57972   7.653   8.566   3.674  0.2173  0.1332 -0.3056
  430MOL0     C57973   7.691   8.608   3.801  0.1653  0.0326 -0.5565
  430MOL0     O57974   7.585   8.647   3.884 -0.7905 -0.8036  0.7941
  430MOL0     C57975   7.611   8.729   3.998 -0.7825 -0.4408  0.3305
  430MOL0     C57976   7.482   8.756   4.081  0.3053 -0.5671 -0.3478
  430MOL0     C57977   7.384   8.644   4.107 -0.0322  0.3784 -1.0235
  430MOL0     C57978   7.247   8.650   4.037 -0.1101 -0.7874 -0.1521
  430MOL0     C57979   7.195   8.513   4.034  0.5120 -0.7675 -0.9861
  430MOL0     C57980   7.132   8.414   4.055 -0.4812 -0.3053 -0.2637
  430MOL0     C57981   7.821   8.593   3.836 -0.3351  0.1922 -0.3919
  430MOL0     C57982   7.923   8.570   3.737 -0.1452 -0.2966 -0.0738
  430MOL0     H57983   8.030   8.278   3.217 -2.6052 -0.5556 -3.6051
  430MOL0     H57984   8.212   8.270   3.066 -1.0460 -1.2476  0.3554
  430MOL0     H57985   8.360   8.297   2.913  2.3023 -1.0155 -0.0452
  430MOL0     H57986   8.310   8.435   2.818 -1.0505 -0.5479  2.2291
  430MOL0     H57987   8.548   8.503   2.778  2.2106  0.3397  0.7235
  430MOL0     H57988   8.594   8.394   2.906  2.3084 -4.3951 -1.7757
  430MOL0     H57989   8.507   8.202   2.767  2.0450 -0.2754  0.0153
  430MOL0     H57990   8.472   8.324   2.641 -0.4236  0.5794  0.9111
  430MOL0     H57991   8.727   8.367   2.654 -0.0919  0.6649  1.2962
  430MOL0     H57992   8.745   8.236   2.759 -0.3375 -0.2026 -0.0171
  430MOL0     H57993   8.669   8.065   2.589  3.4897  0.5600  0.9535
  430MOL0     H57994   8.644   8.195   2.466 -1.9055  0.0639  0.0234
  430MOL0     H57995   8.879   8.236   2.476 -3.2633 -0.0221 -0.6139
  430MOL0     H57996   8.904   8.126   2.614 -0.6628  0.6617  0.8492
  430MOL0     H57997   8.802   8.056   2.338 -2.8056  0.5461  1.3545
  430MOL0     H57998   8.969   8.026   2.399 -0.3069  3.4594  0.8928
  430MOL0     H57999   8.869   7.817   2.415 -0.9141  0.4483  0.0074
  430MOL0     H58000   8.713   7.874   2.444 -0.1193 -1.3212  2.6055
  430MOL0     H58001   9.049   7.860   2.586 -2.3992  0.3546 -1.8415
  430MOL0     H58002   9.062   7.733   2.946 -1.5893  2.0632  0.9489
  430MOL0     H58003   9.148   7.766   2.803 -1.7394  0.2734 -1.1738
  430MOL0     H58004   9.230   7.964   2.855  1.6853 -3.1175 -0.1972
  430MOL0     H58005   9.229   7.878   3.013 -1.2816 -3.7680 -0.2284
  430MOL0     H58006   9.001   8.001   3.047  1.9834 -1.0050  2.8901
  430MOL0     H58007   9.038   8.094   2.904 -0.6484  0.1251 -0.1235
  430MOL0     H58008   9.214   8.094   3.173  2.4615 -0.7115 -1.0592
  430MOL0     H58009   9.121   8.232   3.104 -1.2288 -0.3113 -1.3630
  430MOL0     H58010   9.420   8.309   2.842 -0.9044  1.9595  0.3593
  430MOL0     H58011   9.523   8.500   2.733  0.8667  1.0146 -0.4497
  430MOL0     H58012   9.613   8.624   2.820  0.5445 -0.3002 -3.2466
  430MOL0     H58013   9.657   8.448   2.828 -3.2485 -3.7213  1.1056
  430MOL0     H58014   9.471   9.014   3.092 -3.0588 -4.0879  0.9143
  430MOL0     H58015   9.598   9.218   3.172  2.8412 -0.9622 -1.2185
  430MOL0     H58016   9.727   9.373   3.254 -0.8321  0.3070 -0.7922
  430MOL0     H58017   9.576   9.380   3.333 -0.1159  0.8634 -1.9909
  430MOL0     H58018   9.688   9.468   3.540 -3.6062  0.2069 -1.4341
  430MOL0     H58019   9.847   9.443   3.448 -0.1396  3.1387  0.7524
  430MOL0     H58020   9.632   9.640   3.352  0.0875  0.2679 -0.5744
  430MOL0     H58021   9.799   9.596   3.285 -1.1330  1.7147 -0.7301
  430MOL0     H58022   9.903   9.692   3.490  2.4739  3.1392 -3.4494
  430MOL0     H58023   9.826   9.812   3.394 -0.9560  0.8062 -0.0614
  430MOL0     H58024   9.706   9.671   3.648 -3.1752  0.6224  1.7444
  430MOL0     H58025   9.619   9.791   3.563 -0.4338  0.3484 -3.1175
  430MOL0     H58026   9.872   9.841   3.735  1.2580 -3.6267 -1.9931
  430MOL0     H58027   9.838   9.947   3.598 -1.4208  0.6472  0.0463
  430MOL0     H58028   9.672   9.863   3.834 -0.5060 -1.6325 -2.0053
  430MOL0     H58029   9.587   9.944   3.708  1.6961  1.3408 -2.5260
  430MOL0     H58030   9.624  10.101   3.872  1.1510  1.9160  0.2479
  430MOL0     H58031   9.735  10.149   3.740  0.6240  0.4707 -0.1900
  430MOL0     H58032   9.721   8.998   3.514 -0.9367  1.1877 -0.0961
  430MOL0     H58033   9.628   8.796   3.421  0.4901  3.0859  2.9862
  430MOL0     H58034   9.373   8.555   3.262 -0.9554  1.3843 -1.1813
  430MOL0     H58035   9.279   8.325   3.237 -2.1697 -0.2880 -1.8533
  430MOL0     H58036   8.257   8.695   3.093  2.5275 -1.0284 -1.8114
  430MOL0     H58037   8.085   8.702   3.286  3.6545  1.5954 -1.7032
  430MOL0     H58038   7.712   8.484   3.486  0.8798  0.5119 -0.5400
  430MOL0     H58039   7.552   8.586   3.640 -0.1710  4.2541  2.5272
  430MOL0     H58040   7.681   8.663   4.049  1.0906  0.7478 -0.5954
  430MOL0     H58041   7.656   8.826   3.976 -0.2289 -0.7136  0.2480
  430MOL0     H58042   7.432   8.830   4.018 -3.4462 -2.7350 -0.2502
  430MOL0     H58043   7.532   8.794   4.170  0.2961  2.5098 -1.5405
  430MOL0     H58044   7.366   8.655   4.214  0.5071 -2.1009 -0.6107
  430MOL0     H58045   7.433   8.547   4.090 -1.3821 -0.0681 -2.6902
  430MOL0     H58046   7.275   8.676   3.934  1.3890  2.5173  0.9361
  430MOL0     H58047   7.174   8.716   4.085  0.7677 -1.5574  2.3961
  430MOL0     H58048   7.066   8.336   4.087  0.5950 -0.6875  1.1436
  430MOL0     H58049   7.859   8.615   3.935  0.6941  1.7121 -1.0918
  430MOL0     H58050   8.023   8.579   3.778 -0.8690  1.5401  1.4622
  431MOL0     O58051   7.445   0.118   5.646  0.2747 -0.8729 -0.2156
  431MOL0     C58052   7.465   0.237   5.620  0.2722  0.5708  0.1698
  431MOL0     O58053   7.542   0.283   5.518  0.0417  0.4638 -0.6384
  431MOL0     C58054   7.534   0.212   5.402  0.1372 -0.6757 -0.2486
  431MOL0     C58055   7.412   0.178   5.353 -0.3699  0.3407 -0.5830
  431MOL0     C58056   7.399   0.104   5.239 -0.2199  0.5020  1.4159
  431MOL0     C58057   7.514   0.069   5.169  0.5715  0.8092  0.3229
  431MOL0     O58058   7.506  -0.009   5.051 -0.0292 -0.5309 -0.2069
  431MOL0     C58059   7.600  -0.114   5.039 -0.1878 -0.0403 -0.3185
  431MOL0     C58060   7.540  -0.241   4.969 -0.4581  0.5032 -0.1712
  431MOL0     C58061   7.514  -0.349   5.067 -0.6977  0.2467 -0.3045
  431MOL0     C58062   7.484  -0.490   5.014 -0.2434 -0.9920  0.5043
  431MOL0     C58063   7.372  -0.558   5.088 -0.2044  0.1302  0.0269
  431MOL0     C58064   7.325  -0.682   5.010  0.1306  0.1344  0.2305
  431MOL0     C58065   7.244  -0.783   5.096 -0.0689 -0.0696 -0.2134
  431MOL0     C58066   7.095  -0.721   5.142  0.5106 -0.5521  0.1277
  431MOL0     N58067   7.015  -0.823   5.208  0.0929 -0.8647 -0.1082
  431MOL0     C58068   7.026  -0.874   5.333 -1.2539  1.1990 -0.4150
  431MOL0     C58069   6.921  -0.960   5.351  0.2711  0.2969  0.2108
  431MOL0     C58070   6.897  -1.042   5.468 -0.4919 -0.0834  0.4961
  431MOL0     C58071   6.951  -1.184   5.446  0.0505  0.0233 -1.1712
  431MOL0     C58072   7.097  -1.186   5.497  0.5644  0.3194  0.2930
  431MOL0     C58073   7.131  -1.332   5.521 -0.4140  0.0137  0.3603
  431MOL0     O58074   7.147  -1.407   5.403  0.2227  0.4726  0.2670
  431MOL0     C58075   7.216  -1.523   5.391 -0.4076  1.5466  0.3320
  431MOL0     C58076   7.270  -1.598   5.496  0.7111 -0.5516 -0.0296
  431MOL0     C58077   7.323  -1.720   5.474  0.0813  0.1931  0.0477
  431MOL0     C58078   7.391  -1.779   5.595  0.4343 -0.2579 -0.0420
  431MOL0     C58079   7.333  -1.777   5.345 -0.0097  0.0520  0.1979
  431MOL0     C58080   7.384  -1.916   5.310  0.2105 -0.0273  0.2598
  431MOL0     O58081   7.367  -1.967   5.179 -0.4233  0.3736  0.1819
  431MOL0     C58082   7.369  -2.106   5.176 -0.7417  0.0401 -0.2423
  431MOL0     C58083   7.245  -2.163   5.158 -0.5012 -0.7783 -0.3165
  431MOL0     C58084   7.239  -2.301   5.161  0.6257  0.3342 -0.7736
  431MOL0     C58085   7.356  -2.380   5.169 -0.2030  0.1087  1.0314
  431MOL0     O58086   7.330  -2.514   5.169  0.2153  0.5235 -0.0722
  431MOL0     C58087   7.440  -2.601   5.221  0.0122  0.3776 -0.4996
  431MOL0     C58088   7.404  -2.747   5.240  0.0181  0.5121  0.0500
  431MOL0     C58089   7.527  -2.834   5.285 -0.0641 -0.6341 -0.1993
  431MOL0     C58090   7.493  -2.973   5.336 -0.5489 -0.0590 -0.1968
  431MOL0     C58091   7.614  -3.056   5.387 -0.0727 -0.0040 -0.0293
  431MOL0     C58092   7.648  -3.027   5.530  0.8665 -0.4159 -0.0043
  431MOL0     C58093   7.786  -3.086   5.565  0.5955  0.1167  0.6236
  431MOL0     C58094   7.848  -3.003   5.685 -0.6512  0.1145  0.6394
  431MOL0    Cl58095   7.766  -3.029   5.845  0.1269 -0.7965 -0.1882
  431MOL0     C58096   7.476  -2.317   5.195  1.1362 -0.5869  0.1855
  431MOL0     C58097   7.483  -2.184   5.203  0.6087  0.0387 -0.1824
  431MOL0     O58098   7.455  -1.972   5.395  0.7947 -0.8100  0.1704
  431MOL0     C58099   7.278  -1.699   5.243 -0.6793  0.0752 -0.4123
  431MOL0     C58100   7.220  -1.572   5.269 -0.1741 -0.7656  0.4581
  431MOL0     N58101   6.850  -0.959   5.232 -0.0806 -1.1614  0.0617
  431MOL0     N58102   6.909  -0.881   5.143  0.0870  0.4019 -1.1070
  431MOL0     C58103   7.643   0.116   5.210 -0.4182  0.3467 -0.8706
  431MOL0     C58104   7.655   0.194   5.330  0.5988  0.9441  0.3771
  431MOL0     C58105   7.415   0.331   5.719 -0.9739  0.3634 -0.5957
  431MOL0     C58106   7.434   0.470   5.713 -1.3092  0.5752 -0.0917
  431MOL0     C58107   7.399   0.555   5.817  1.0965  1.7055 -0.0904
  431MOL0     C58108   7.336   0.510   5.928  0.3216 -0.0215 -0.2350
  431MOL0     O58109   7.308   0.605   6.025 -0.9965  0.4771 -0.2041
  431MOL0     C58110   7.181   0.600   6.104 -0.4649  0.3521  0.2599
  431MOL0     C58111   7.175   0.730   6.195 -0.1250  0.6673  0.3431
  431MOL0     C58112   7.163   0.852   6.098  0.0052 -0.9530  0.1692
  431MOL0     C58113   7.090   0.984   6.161 -0.5357  0.8144 -0.5706
  431MOL0     C58114   6.952   0.958   6.179  0.9760  0.8037  0.3248
  431MOL0     C58115   6.830   0.933   6.185 -0.3392  0.5164  0.1264
  431MOL0     C58116   7.309   0.375   5.947 -0.4941 -0.2392 -0.2614
  431MOL0     C58117   7.359   0.286   5.840  0.4420 -0.1333  0.0099
  431MOL0     H58118   7.321   0.188   5.412 -0.8284  0.1574 -1.2517
  431MOL0     H58119   7.304   0.073   5.195  0.6253 -1.5090  0.8878
  431MOL0     H58120   7.682  -0.069   4.983 -1.2611  2.6410  0.1198
  431MOL0     H58121   7.635  -0.138   5.140  0.7394  1.8160 -0.1657
  431MOL0     H58122   7.447  -0.222   4.913  0.5325 -1.7799 -2.8319
  431MOL0     H58123   7.621  -0.261   4.899 -0.3316 -1.5802  0.5056
  431MOL0     H58124   7.606  -0.349   5.127 -0.1571  2.0794 -1.0862
  431MOL0     H58125   7.435  -0.314   5.133  1.7923  1.2498  2.3658
  431MOL0     H58126   7.466  -0.480   4.907  2.8459 -0.5770 -0.0780
  431MOL0     H58127   7.579  -0.544   5.020  0.4612 -0.0126 -1.1544
  431MOL0     H58128   7.397  -0.592   5.189 -1.7463  3.1216  1.5276
  431MOL0     H58129   7.290  -0.490   5.112  1.2190  1.5864  1.0293
  431MOL0     H58130   7.258  -0.640   4.934 -3.3034 -1.1774  2.3000
  431MOL0     H58131   7.416  -0.731   4.974 -0.7172 -0.0094 -1.8386
  431MOL0     H58132   7.227  -0.869   5.031  1.8375  0.3420 -1.3213
  431MOL0     H58133   7.308  -0.825   5.174 -2.0344 -0.8073  1.0786
  431MOL0     H58134   7.036  -0.684   5.058 -0.7234 -0.7222  0.8906
  431MOL0     H58135   7.112  -0.637   5.210  3.3795 -0.1238 -0.9600
  431MOL0     H58136   7.096  -0.845   5.410 -1.6673 -0.0574  0.4767
  431MOL0     H58137   6.932  -0.981   5.551  2.5778 -0.5382 -0.3385
  431MOL0     H58138   6.788  -1.049   5.482 -0.4399 -2.6516  0.1116
  431MOL0     H58139   6.939  -1.219   5.344  0.4782  0.8245 -1.5057
  431MOL0     H58140   6.899  -1.251   5.516  1.7288  2.6982  3.0360
  431MOL0     H58141   7.116  -1.124   5.585 -0.3785  1.8636 -0.5381
  431MOL0     H58142   7.160  -1.131   5.427  1.1424  1.2224  1.4892
  431MOL0     H58143   7.067  -1.381   5.595 -0.5149 -0.8445 -0.2831
  431MOL0     H58144   7.225  -1.328   5.578  0.8362  1.9956 -1.6327
  431MOL0     H58145   7.266  -1.557   5.597  0.8094  1.0932 -0.6587
  431MOL0     H58146   7.359  -1.742   5.693 -1.0747 -0.1129 -0.5703
  431MOL0     H58147   7.378  -1.887   5.610 -0.7598 -0.0131  0.7712
  431MOL0     H58148   7.500  -1.770   5.590  0.4087  2.2649  2.1604
  431MOL0     H58149   7.166  -2.096   5.126 -0.1395  0.1904  0.7668
  431MOL0     H58150   7.144  -2.345   5.131  1.3717 -0.4218 -2.0962
  431MOL0     H58151   7.530  -2.588   5.159 -0.6369  4.4380 -0.8778
  431MOL0     H58152   7.460  -2.568   5.323 -2.3377  1.1626 -0.2193
  431MOL0     H58153   7.320  -2.766   5.308 -0.0158 -0.0155 -0.1374
  431MOL0     H58154   7.384  -2.786   5.140  0.7441  0.0634  0.0708
  431MOL0     H58155   7.573  -2.785   5.372  0.9758 -2.2197  0.1737
  431MOL0     H58156   7.615  -2.842   5.222 -0.5558  0.1574 -1.0181
  431MOL0     H58157   7.411  -2.969   5.409  1.6617  1.1322  2.4396
  431MOL0     H58158   7.460  -3.015   5.241  0.3909 -0.0254 -0.5486
  431MOL0     H58159   7.701  -3.037   5.323  2.2235  0.7381  3.0726
  431MOL0     H58160   7.583  -3.159   5.371 -1.1975  0.4996 -1.2379
  431MOL0     H58161   7.661  -2.920   5.544 -0.8087 -0.5370  3.1730
  431MOL0     H58162   7.567  -3.062   5.594 -1.6442  0.8034 -2.2765
  431MOL0     H58163   7.858  -3.058   5.488 -1.0086  0.8497 -0.6712
  431MOL0     H58164   7.782  -3.189   5.603 -0.7258  0.1402  0.6197
  431MOL0     H58165   7.861  -2.900   5.652  2.0265 -0.7824 -1.4868
  431MOL0     H58166   7.951  -3.026   5.713 -0.3549  0.7488  0.0826
  431MOL0     H58167   7.559  -2.381   5.222  0.9906 -0.3035  1.3698
  431MOL0     H58168   7.582  -2.144   5.224  1.3684 -2.2800  1.0235
  431MOL0     H58169   7.282  -1.743   5.144 -1.7918 -0.9116 -0.0424
  431MOL0     H58170   7.175  -1.528   5.180 -1.4481 -1.0545  0.9385
  431MOL0     H58171   7.734   0.078   5.164 -0.5875 -1.7880  0.3922
  431MOL0     H58172   7.748   0.232   5.370  1.3795 -0.3333 -0.1894
  431MOL0     H58173   7.489   0.526   5.637 -0.0077 -0.5379 -0.0042
  431MOL0     H58174   7.417   0.662   5.821 -1.3018  2.1143  2.0295
  431MOL0     H58175   7.095   0.604   6.038  0.7843  1.5845 -1.3950
  431MOL0     H58176   7.184   0.520   6.178  1.7193  1.0751  1.0476
  431MOL0     H58177   7.263   0.738   6.259  2.2755 -3.8843 -1.9259
  431MOL0     H58178   7.092   0.712   6.264  0.3650 -0.5838  0.6310
  431MOL0     H58179   7.115   0.833   6.002  0.4222  1.6134 -0.6199
  431MOL0     H58180   7.263   0.886   6.069 -0.6277  2.2607  1.3246
  431MOL0     H58181   7.101   1.064   6.089  2.0193  0.6617 -0.4299
  431MOL0     H58182   7.143   1.019   6.250  2.3954  0.7130 -2.1499
  431MOL0     H58183   6.725   0.915   6.178 -0.5913  2.4323 -4.3327
  431MOL0     H58184   7.270   0.344   6.043 -0.4662 -0.5677 -0.3566
  431MOL0     H58185   7.348   0.178   5.849  0.6076 -0.5800 -3.6033
  432MOL0     O58186   9.018   9.308   0.594 -0.3206  0.9904 -0.4442
  432MOL0     C58187   8.954   9.357   0.500  0.1277  0.5465  0.3749
  432MOL0     O58188   8.832   9.330   0.471 -0.0237  0.3764 -0.0649
  432MOL0     C58189   8.756   9.236   0.537 -0.0652 -0.1095 -0.6769
  432MOL0     C58190   8.670   9.156   0.462  0.0853 -0.9458  0.3324
  432MOL0     C58191   8.571   9.067   0.518  0.0509  0.5366 -0.3965
  432MOL0     C58192   8.559   9.047   0.661 -0.4879  0.0147  0.5032
  432MOL0     O58193   8.456   8.973   0.716  0.8712 -0.1714 -0.4667
  432MOL0     C58194   8.358   9.061   0.780 -0.4896  0.7883 -0.0194
  432MOL0     C58195   8.228   8.972   0.800 -0.5751 -0.4748 -0.8094
  432MOL0     C58196   8.268   8.878   0.917 -0.5005  0.0814 -0.2816
  432MOL0     C58197   8.166   8.780   0.964  0.0434 -0.3989  0.3890
  432MOL0     C58198   8.147   8.664   0.867 -0.8431  0.2340 -0.4165
  432MOL0     C58199   8.030   8.576   0.888  1.1486  0.5040 -0.4625
  432MOL0     C58200   8.029   8.513   1.029  0.0983 -0.0096 -0.6097
  432MOL0     C58201   8.160   8.448   1.075  0.5383  1.7238 -1.1519
  432MOL0     N58202   8.132   8.367   1.196  0.4370 -0.2226 -0.9561
  432MOL0     C58203   8.120   8.227   1.202 -0.4326 -0.3177  0.1856
  432MOL0     C58204   8.077   8.198   1.323 -0.3724 -0.0767  0.3150
  432MOL0     C58205   8.058   8.062   1.369 -0.0785 -0.4395 -0.5672
  432MOL0     C58206   8.156   8.035   1.488  0.3135 -0.3726  0.3716
  432MOL0     C58207   8.144   7.884   1.528  0.4147  0.3510  0.0113
  432MOL0     C58208   8.223   7.871   1.649  0.5136 -0.1528 -0.8157
  432MOL0     O58209   8.158   7.933   1.760  0.1753 -0.2360 -0.2728
  432MOL0     C58210   8.233   7.950   1.873 -0.9577  0.3868  0.4514
  432MOL0     C58211   8.372   7.912   1.889 -0.8401 -0.5453 -0.5742
  432MOL0     C58212   8.436   7.931   2.016 -0.3933  0.1458 -0.2032
  432MOL0     C58213   8.576   7.860   2.015  0.9037 -0.7515 -0.1666
  432MOL0     C58214   8.362   8.004   2.121 -0.2555 -0.0717  0.5283
  432MOL0     C58215   8.411   8.028   2.261  0.3564  0.1474 -0.7889
  432MOL0     O58216   8.318   8.050   2.358  0.0085  0.4297 -0.1490
  432MOL0     C58217   8.339   8.017   2.490  0.2547 -0.1831  0.5708
  432MOL0     C58218   8.266   8.089   2.582  0.0356 -0.3948 -0.4060
  432MOL0     C58219   8.281   8.079   2.727 -0.5032  0.3368  0.1584
  432MOL0     C58220   8.357   7.975   2.784 -0.4162 -0.1150  0.3494
  432MOL0     O58221   8.364   7.932   2.910  0.5696  0.4183 -0.7871
  432MOL0     C58222   8.330   7.795   2.946  0.3083 -0.5594  0.6075
  432MOL0     C58223   8.179   7.770   2.917 -0.2637  0.2530  0.1003
  432MOL0     C58224   8.099   7.796   3.050 -0.1386 -0.1691 -0.3723
  432MOL0     C58225   7.972   7.716   3.049  0.1561 -0.1309 -0.2742
  432MOL0     C58226   7.892   7.725   3.181 -0.3285  0.4273 -0.6680
  432MOL0     C58227   7.758   7.667   3.159 -0.4567 -0.1091 -0.0550
  432MOL0     C58228   7.665   7.666   3.276  0.5399  0.1267  0.4855
  432MOL0     C58229   7.672   7.540   3.362  0.3635 -0.4061  0.3310
  432MOL0    Cl58230   7.635   7.391   3.264 -0.0276  0.4847 -0.7915
  432MOL0     C58231   8.427   7.904   2.690  0.3378 -0.4222  0.7351
  432MOL0     C58232   8.418   7.913   2.549  0.6608 -0.7503 -0.2863
  432MOL0     O58233   8.530   8.016   2.281 -0.2661  0.2274 -0.1352
  432MOL0     C58234   8.231   8.047   2.092 -0.1788  0.4035 -0.9948
  432MOL0     C58235   8.165   8.020   1.971 -0.7242 -0.0547  0.6762
  432MOL0     N58236   8.057   8.317   1.391 -0.3473 -0.4465  0.1977
  432MOL0     N58237   8.081   8.422   1.312 -0.6664 -0.2790 -0.0974
  432MOL0     C58238   8.646   9.122   0.735 -0.1101 -0.1386 -0.7007
  432MOL0     C58239   8.746   9.223   0.682  0.3717  0.5047  0.0040
  432MOL0     C58240   9.032   9.465   0.431 -0.0968  0.4194  0.1119
  432MOL0     C58241   8.958   9.551   0.356 -0.5536 -0.2970  0.3068
  432MOL0     C58242   9.015   9.659   0.292 -0.0842  1.0781  0.1163
  432MOL0     C58243   9.153   9.684   0.302  0.3801  0.7902 -0.2173
  432MOL0     O58244   9.216   9.765   0.212  0.1846 -0.0415 -0.2464
  432MOL0     C58245   9.304   9.873   0.268 -0.2256  0.3838  0.2084
  432MOL0     C58246   9.234   9.990   0.320  1.0046 -0.4155  0.7985
  432MOL0     C58247   9.187  10.080   0.206 -0.3095 -0.0388 -0.4741
  432MOL0     C58248   9.308  10.148   0.134 -0.8024  0.0464 -0.4533
  432MOL0     C58249   9.283  10.293   0.109  0.3803 -0.2364 -0.0185
  432MOL0     C58250   9.272  10.414   0.116 -0.2306 -0.2638 -0.4331
  432MOL0     C58251   9.230   9.597   0.381  0.3919  0.5665 -0.4943
  432MOL0     C58252   9.169   9.478   0.443 -0.5817 -0.3823  1.1775
  432MOL0     H58253   8.680   9.152   0.354  0.1239 -0.0313  0.2956
  432MOL0     H58254   8.515   8.997   0.456 -0.0327  1.2024 -1.0842
  432MOL0     H58255   8.412   9.090   0.871  1.6415  2.4721 -1.6986
  432MOL0     H58256   8.329   9.144   0.714 -2.6961  0.3885  0.3784
  432MOL0     H58257   8.147   9.033   0.842  0.6399 -0.8531  2.2978
  432MOL0     H58258   8.199   8.918   0.710  2.0267 -0.5581 -1.6783
  432MOL0     H58259   8.360   8.820   0.903 -2.0269 -2.7641  0.6233
  432MOL0     H58260   8.277   8.944   1.004 -0.5773 -0.9275  0.5168
  432MOL0     H58261   8.187   8.731   1.060  2.6283  1.0934  0.6792
  432MOL0     H58262   8.073   8.834   0.978 -0.1348 -0.5331 -0.2741
  432MOL0     H58263   8.128   8.694   0.764 -0.1148 -1.3097 -1.0304
  432MOL0     H58264   8.239   8.609   0.889  1.3702  4.0286  0.8121
  432MOL0     H58265   7.944   8.641   0.868  0.5867  0.5176  1.7456
  432MOL0     H58266   8.034   8.499   0.810  1.3845  0.8325 -0.7745
  432MOL0     H58267   8.001   8.587   1.104 -1.9207  1.3560 -2.5677
  432MOL0     H58268   7.944   8.444   1.031  0.5782 -0.7081  3.2425
  432MOL0     H58269   8.238   8.523   1.093  0.0744  2.5184 -2.3194
  432MOL0     H58270   8.206   8.375   1.008  2.6864  2.4329 -0.5405
  432MOL0     H58271   8.149   8.158   1.124 -0.8247 -1.1595  0.7693
  432MOL0     H58272   7.955   8.046   1.403 -0.3965  1.2469 -0.6505
  432MOL0     H58273   8.065   7.985   1.292 -0.8502 -0.2954 -0.7890
  432MOL0     H58274   8.134   8.103   1.571  0.1268  1.6870 -1.2815
  432MOL0     H58275   8.257   8.061   1.457 -0.0919  2.4421  1.0928
  432MOL0     H58276   8.183   7.828   1.443 -2.8154 -1.6137 -0.3508
  432MOL0     H58277   8.041   7.852   1.543 -0.9195  4.4860  1.0008
  432MOL0     H58278   8.321   7.913   1.625 -0.0880  0.6808 -1.9305
  432MOL0     H58279   8.237   7.765   1.675  3.0783  0.4307  0.4853
  432MOL0     H58280   8.418   7.851   1.811 -0.8276  0.6244 -1.5043
  432MOL0     H58281   8.574   7.771   1.952  1.3532  0.3843 -1.8711
  432MOL0     H58282   8.639   7.939   1.971 -0.9310  2.5774  2.6817
  432MOL0     H58283   8.614   7.855   2.117  1.9252  3.7935 -0.0823
  432MOL0     H58284   8.209   8.176   2.548 -0.1511 -0.3739 -0.0397
  432MOL0     H58285   8.217   8.130   2.797 -3.4548 -1.7298 -0.8068
  432MOL0     H58286   8.379   7.730   2.873 -0.9106 -0.8624  0.0241
  432MOL0     H58287   8.363   7.770   3.047  0.0616  1.1892  1.1439
  432MOL0     H58288   8.144   7.842   2.843  0.4235  4.8313  3.7337
  432MOL0     H58289   8.167   7.664   2.890  0.5131 -0.1626  1.2816
  432MOL0     H58290   8.068   7.900   3.040 -0.2881 -0.1851 -0.0856
  432MOL0     H58291   8.161   7.778   3.138  0.6820  1.3322 -0.6038
  432MOL0     H58292   7.908   7.744   2.965 -1.3849 -1.3572  0.4452
  432MOL0     H58293   7.998   7.610   3.045  1.0524 -0.1611  3.0555
  432MOL0     H58294   7.887   7.831   3.209  2.5734  0.1999  1.1500
  432MOL0     H58295   7.946   7.675   3.263 -0.9632  0.9245  0.0650
  432MOL0     H58296   7.715   7.732   3.082 -0.2010  0.8340  0.5917
  432MOL0     H58297   7.772   7.568   3.114 -0.9832 -1.3016  2.2407
  432MOL0     H58298   7.565   7.680   3.234  1.4284  0.6631 -1.5711
  432MOL0     H58299   7.670   7.753   3.341 -0.5012 -0.0028  0.7533
  432MOL0     H58300   7.599   7.562   3.440 -0.7882  0.3293 -0.9029
  432MOL0     H58301   7.777   7.529   3.391  1.1275  3.4729 -0.3974
  432MOL0     H58302   8.496   7.829   2.727 -0.9873 -0.0440  4.4588
  432MOL0     H58303   8.470   7.850   2.478 -0.8115 -0.0187 -2.1195
  432MOL0     H58304   8.167   8.099   2.162  1.6860  3.3344 -1.2799
  432MOL0     H58305   8.062   8.051   1.975 -0.6970 -0.0387  1.6675
  432MOL0     H58306   8.632   9.105   0.842 -0.3703  2.5668 -0.2283
  432MOL0     H58307   8.797   9.279   0.760 -0.6360 -0.9228  1.7740
  432MOL0     H58308   8.851   9.542   0.346 -0.6272  1.3574 -0.6021
  432MOL0     H58309   8.946   9.718   0.232 -0.3010  0.5672 -0.1473
  432MOL0     H58310   9.370   9.823   0.339  0.2200  0.0290 -0.4417
  432MOL0     H58311   9.366   9.908   0.185  0.1286  1.7853  1.0130
  432MOL0     H58312   9.296  10.049   0.389  2.5034 -1.0261  0.0079
  432MOL0     H58313   9.147   9.974   0.385  1.7125  1.5348  2.3336
  432MOL0     H58314   9.131  10.162   0.253 -1.0340 -0.4794 -0.5589
  432MOL0     H58315   9.119  10.025   0.140  2.1005 -0.9818 -2.3030
  432MOL0     H58316   9.324  10.101   0.037  0.9253 -1.3336  0.4242
  432MOL0     H58317   9.396  10.148   0.200 -2.0685  2.1497  1.3901
  432MOL0     H58318   9.267  10.519   0.138  2.6170 -0.6260  2.8075
  432MOL0     H58319   9.336   9.601   0.401  0.4183 -3.3992  0.9131
  432MOL0     H58320   9.234   9.413   0.500  2.8904  1.5310 -0.2695
  433MOL0     O58321   4.955   8.911   4.050 -0.5982  0.1898  0.0132
  433MOL0     C58322   5.063   8.900   4.098  0.3722 -0.5929  1.0244
  433MOL0     O58323   5.131   9.003   4.163  0.8976  0.3552  0.1249
  433MOL0     C58324   5.092   9.131   4.182  0.7127  0.3542  0.5132
  433MOL0     C58325   5.169   9.218   4.258  0.4858  0.0238 -0.1706
  433MOL0     C58326   5.141   9.348   4.272 -0.3912 -0.1746 -0.6406
  433MOL0     C58327   5.027   9.402   4.224 -1.2220 -0.1991 -0.8311
  433MOL0     O58328   4.985   9.540   4.232  0.0344  0.4266  0.4090
  433MOL0     C58329   5.064   9.633   4.301  1.1260 -0.4329 -0.2035
  433MOL0     C58330   4.977   9.762   4.298 -0.4634 -0.6122 -0.2536
  433MOL0     C58331   4.984   9.835   4.171 -0.2266 -0.3889  0.2655
  433MOL0     C58332   4.858   9.920   4.162  0.0601  0.0209 -0.5960
  433MOL0     C58333   4.870  10.009   4.045  0.4230 -0.8625 -0.0745
  433MOL0     C58334   4.763  10.126   4.058 -0.2212  0.0057  0.0660
  433MOL0     C58335   4.692  10.157   3.929  0.2481  0.0801 -0.2359
  433MOL0     C58336   4.545  10.122   3.911 -0.5301 -0.0576 -0.5711
  433MOL0     N58337   4.481  10.228   3.843 -0.6216  0.9712  0.0715
  433MOL0     C58338   4.493  10.270   3.717  0.9961  0.1270 -0.4423
  433MOL0     C58339   4.411  10.386   3.724 -1.0433  1.0288 -0.0404
  433MOL0     C58340   4.382  10.467   3.602  0.2956  0.4072  0.1156
  433MOL0     C58341   4.512  10.530   3.533  1.2847 -0.0038 -1.2570
  433MOL0     C58342   4.467  10.589   3.401  0.5284  0.0323 -0.7541
  433MOL0     C58343   4.578  10.667   3.333  0.1854 -0.2891  0.6809
  433MOL0     O58344   4.541  10.727   3.205 -0.2254  0.8512  0.4904
  433MOL0     C58345   4.459  10.832   3.207  1.4653 -0.5553 -0.4273
  433MOL0     C58346   4.406  10.883   3.087 -0.1210  0.0341  0.8942
  433MOL0     C58347   4.344  11.005   3.066  0.3751  0.7886  0.3097
  433MOL0     C58348   4.305  11.059   2.933  0.3404  0.0125 -0.3449
  433MOL0     C58349   4.329  11.089   3.183 -0.7136 -1.6127  0.2056
  433MOL0     C58350   4.260  11.228   3.188  0.4744 -0.1097  0.1889
  433MOL0     O58351   4.205  11.267   3.304  0.3626  0.1772 -0.6993
  433MOL0     C58352   4.117  11.374   3.310  0.4693 -0.2120 -0.2609
  433MOL0     C58353   3.979  11.345   3.325  0.1933 -0.4573 -0.3363
  433MOL0     C58354   3.887  11.451   3.345 -0.9469  0.4796 -0.0020
  433MOL0     C58355   3.933  11.584   3.347 -0.2232  0.1036  0.0011
  433MOL0     O58356   3.845  11.690   3.374 -0.6240 -0.4138 -0.6119
  433MOL0     C58357   3.706  11.682   3.333 -0.3833  0.4001  0.8943
  433MOL0     C58358   3.625  11.802   3.396 -0.1743  0.6199  0.6502
  433MOL0     C58359   3.630  11.925   3.308  0.7614  0.4616  0.2051
  433MOL0     C58360   3.560  12.048   3.367  0.3457 -0.2869  1.0913
  433MOL0     C58361   3.591  12.185   3.294 -0.3566 -0.4983 -1.0734
  433MOL0     C58362   3.736  12.238   3.322 -0.9451 -0.2267 -0.8600
  433MOL0     C58363   3.750  12.391   3.302 -0.3311 -0.5159 -0.3233
  433MOL0     C58364   3.902  12.426   3.338 -0.3823 -0.4750  0.4778
  433MOL0    Cl58365   3.932  12.605   3.342  0.0676  0.4271 -0.3525
  433MOL0     C58366   4.068  11.610   3.325  0.8012  0.0646 -0.1638
  433MOL0     C58367   4.158  11.502   3.314  2.0694 -0.5121  0.0763
  433MOL0     O58368   4.268  11.303   3.083  0.4298  0.2693  0.3471
  433MOL0     C58369   4.360  11.034   3.305 -1.2376 -0.0250 -0.0946
  433MOL0     C58370   4.420  10.909   3.319 -0.4682  0.0961 -0.8217
  433MOL0     N58371   4.354  10.400   3.845 -0.0788 -0.6233 -0.9927
  433MOL0     N58372   4.394  10.301   3.914 -0.2885  0.5892  0.3092
  433MOL0     C58373   4.940   9.316   4.145 -0.3692 -0.9301 -0.1266
  433MOL0     C58374   4.967   9.184   4.131 -0.5128 -0.1209  0.2508
  433MOL0     C58375   5.131   8.771   4.096  0.5140 -0.7952  0.2083
  433MOL0     C58376   5.063   8.642   4.074 -1.1015  0.2598 -0.9734
  433MOL0     C58377   5.141   8.522   4.086  0.4421  0.6421  0.3324
  433MOL0     C58378   5.277   8.526   4.102  0.2212  0.5315 -0.6234
  433MOL0     O58379   5.355   8.406   4.091 -0.0840  0.3739 -0.3241
  433MOL0     C58380   5.287   8.287   4.057 -1.1337 -0.0829 -0.0585
  433MOL0     C58381   5.398   8.192   4.022 -0.7477 -0.3199  0.4357
  433MOL0     C58382   5.484   8.139   4.140 -0.4302  0.1538  0.0192
  433MOL0     C58383   5.593   8.050   4.093 -0.1448  0.1080 -0.3548
  433MOL0     C58384   5.697   8.029   4.190 -0.0930  0.9394  0.2936
  433MOL0     C58385   5.775   8.019   4.282  0.9743  1.2266  0.0365
  433MOL0     C58386   5.341   8.648   4.129 -0.1859  0.4208 -0.2360
  433MOL0     C58387   5.265   8.765   4.132 -0.3281  0.4383  0.7185
  433MOL0     H58388   5.256   9.193   4.317  2.1834  0.4518 -2.3889
  433MOL0     H58389   5.210   9.407   4.332 -2.7439  1.6465  0.4148
  433MOL0     H58390   5.090   9.599   4.402 -0.5724  3.0188  1.5813
  433MOL0     H58391   5.151   9.647   4.237  0.7554 -0.9666 -0.8343
  433MOL0     H58392   4.871   9.742   4.320 -0.9647  0.9099 -1.1577
  433MOL0     H58393   5.003   9.817   4.389  0.0453 -1.5310  0.1777
  433MOL0     H58394   5.080   9.886   4.163  0.8582 -2.3791 -0.0602
  433MOL0     H58395   4.985   9.766   4.085  0.9605 -0.9232  0.6858
  433MOL0     H58396   4.770   9.858   4.143  0.0846 -0.0025 -0.6348
  433MOL0     H58397   4.850   9.973   4.258  1.2802  0.8740 -0.9408
  433MOL0     H58398   4.971  10.052   4.043  0.3487 -0.7065 -0.6174
  433MOL0     H58399   4.860   9.949   3.955  0.1437  2.0025 -2.1036
  433MOL0     H58400   4.683  10.083   4.120  1.2741  1.2829  3.0996
  433MOL0     H58401   4.799  10.211   4.118 -3.2986  1.8376 -0.4680
  433MOL0     H58402   4.716  10.262   3.911 -0.9716  0.3003 -0.6865
  433MOL0     H58403   4.736  10.112   3.840 -3.2135  0.5682 -2.3941
  433MOL0     H58404   4.477  10.098   3.994 -0.3653 -2.5892 -1.1010
  433MOL0     H58405   4.544  10.030   3.852 -5.6687 -0.8074  0.2156
  433MOL0     H58406   4.544  10.215   3.638  0.1834 -1.8407  0.3386
  433MOL0     H58407   4.325  10.402   3.534  2.5016 -2.4719  0.7826
  433MOL0     H58408   4.320  10.555   3.622  0.6071  0.1968  2.1632
  433MOL0     H58409   4.585  10.449   3.523 -0.9601 -2.4281  0.5376
  433MOL0     H58410   4.557  10.598   3.607  1.8361  0.6232 -2.1450
  433MOL0     H58411   4.382  10.657   3.418  0.8826  0.6142 -1.2770
  433MOL0     H58412   4.443  10.506   3.334 -0.7007 -0.1946 -0.0745
  433MOL0     H58413   4.665  10.605   3.313  2.0165  2.5317 -0.9164
  433MOL0     H58414   4.616  10.745   3.400 -0.4802 -1.7072  2.8055
  433MOL0     H58415   4.436  10.830   2.997  2.0746  0.2053  1.4702
  433MOL0     H58416   4.207  11.106   2.943 -0.0002 -1.2389  3.7121
  433MOL0     H58417   4.379  11.133   2.902 -0.3431  3.1938  4.5838
  433MOL0     H58418   4.293  10.977   2.862  0.3464 -0.7936  0.5722
  433MOL0     H58419   3.943  11.246   3.351 -1.6455  0.3341  0.3091
  433MOL0     H58420   3.784  11.431   3.370 -0.4275 -4.1763 -0.7616
  433MOL0     H58421   3.697  11.686   3.224  1.9778 -1.5046  0.5223
  433MOL0     H58422   3.660  11.590   3.372 -3.1221  0.5039 -1.7418
  433MOL0     H58423   3.519  11.774   3.403 -0.0277  0.5196  4.4980
  433MOL0     H58424   3.668  11.825   3.493  0.3093  2.8815 -0.0378
  433MOL0     H58425   3.578  11.903   3.214  0.7839  1.3266 -0.0160
  433MOL0     H58426   3.733  11.951   3.284  1.0306  0.0167  0.8464
  433MOL0     H58427   3.453  12.026   3.359  0.4839 -1.2050  1.6188
  433MOL0     H58428   3.585  12.054   3.473  0.7836  0.2631  0.9639
  433MOL0     H58429   3.528  12.266   3.335 -2.0262 -1.6487 -1.2514
  433MOL0     H58430   3.562  12.184   3.189  0.5292  0.7536 -1.3559
  433MOL0     H58431   3.758  12.221   3.428 -1.4049 -2.1920 -1.0354
  433MOL0     H58432   3.821  12.201   3.264  2.1901  4.3786  0.2694
  433MOL0     H58433   3.683  12.446   3.368  3.2125  1.5966  1.8328
  433MOL0     H58434   3.725  12.415   3.199  1.4852  2.5523 -0.1798
  433MOL0     H58435   3.959  12.391   3.251 -1.0302 -1.4810  0.4499
  433MOL0     H58436   3.946  12.384   3.429  1.3585 -0.5349 -0.3366
  433MOL0     H58437   4.102  11.713   3.318  0.7405  0.0063 -1.7892
  433MOL0     H58438   4.263  11.519   3.295  1.5724  0.8937 -1.6690
  433MOL0     H58439   4.337  11.082   3.400  2.4761  1.3091  0.2533
  433MOL0     H58440   4.459  10.883   3.417  1.9692 -0.6969 -1.9006
  433MOL0     H58441   4.863   9.372   4.093  2.9408  3.9842 -0.4275
  433MOL0     H58442   4.907   9.120   4.067  0.4183 -0.3594 -0.3952
  433MOL0     H58443   4.958   8.644   4.047 -1.5373  2.5793  0.6061
  433MOL0     H58444   5.082   8.433   4.069  1.0216 -0.1860  2.3604
  433MOL0     H58445   5.232   8.232   4.134  2.5732 -3.6205  0.3567
  433MOL0     H58446   5.241   8.304   3.959 -0.7708  5.0919  0.3566
  433MOL0     H58447   5.460   8.237   3.943 -1.5594 -2.1101 -1.3378
  433MOL0     H58448   5.363   8.099   3.975 -1.1522 -0.2756  0.6404
  433MOL0     H58449   5.422   8.075   4.203  2.3007 -1.6692  1.0398
  433MOL0     H58450   5.532   8.219   4.197  1.6451  0.7315 -2.3640
  433MOL0     H58451   5.634   8.101   4.005  0.4679  1.3792  0.6293
  433MOL0     H58452   5.543   7.956   4.068 -0.4568  0.1509  0.0986
  433MOL0     H58453   5.856   8.005   4.351 -0.6928  1.3377  2.0899
  433MOL0     H58454   5.448   8.656   4.148 -0.2080  0.3983 -0.0995
  433MOL0     H58455   5.330   8.851   4.144 -0.1327  0.8548 -2.5403
  434MOL0     O58456   3.287   8.933   3.510 -0.6709 -0.4664  0.1707
  434MOL0     C58457   3.335   8.836   3.575  0.8870 -1.0160 -0.2503
  434MOL0     O58458   3.461   8.774   3.558  0.0251 -0.9074  0.3750
  434MOL0     C58459   3.534   8.777   3.441 -0.6590 -0.6677  0.5552
  434MOL0     C58460   3.665   8.742   3.457  0.2244  0.8118 -0.0167
  434MOL0     C58461   3.764   8.732   3.351  1.3333  0.2706 -0.6638
  434MOL0     C58462   3.719   8.765   3.223 -0.4117 -0.3575  0.4254
  434MOL0     O58463   3.794   8.772   3.104 -0.3587  0.6055 -0.1134
  434MOL0     C58464   3.734   8.836   2.989 -1.3322 -0.4932 -0.0865
  434MOL0     C58465   3.820   8.843   2.863 -0.2384 -0.6893  0.1030
  434MOL0     C58466   3.737   8.919   2.754 -0.9835 -0.7561 -0.5268
  434MOL0     C58467   3.806   8.915   2.620  0.2514 -0.1149 -0.5412
  434MOL0     C58468   3.917   9.029   2.615  0.2915 -0.4761 -0.0306
  434MOL0     C58469   3.863   9.172   2.591  0.1807 -1.2773  0.3268
  434MOL0     C58470   3.981   9.274   2.574 -0.4543 -0.2914  0.0347
  434MOL0     C58471   4.009   9.378   2.693 -0.0116 -0.4420  0.1765
  434MOL0     N58472   4.150   9.407   2.707 -0.1712 -0.6013 -0.4462
  434MOL0     C58473   4.230   9.364   2.807  0.0788 -1.6287 -0.2874
  434MOL0     C58474   4.350   9.404   2.767 -0.7828 -0.3145 -0.0561
  434MOL0     C58475   4.473   9.403   2.848  0.5788  1.1391 -0.3775
  434MOL0     C58476   4.446   9.327   2.987 -0.0468 -0.2801  0.2492
  434MOL0     C58477   4.563   9.339   3.093 -0.2060  0.6340  0.6245
  434MOL0     C58478   4.699   9.294   3.040 -1.0733 -0.3929 -0.6904
  434MOL0     O58479   4.675   9.170   2.981 -0.9440 -0.0532 -0.4568
  434MOL0     C58480   4.769   9.067   2.994 -0.6602  0.0832 -0.3159
  434MOL0     C58481   4.739   8.959   2.916  0.4827 -0.4434  0.8577
  434MOL0     C58482   4.802   8.837   2.927 -0.4189  0.6683 -0.3517
  434MOL0     C58483   4.755   8.715   2.848 -0.3804 -1.2611  0.2321
  434MOL0     C58484   4.916   8.821   3.017  0.6651 -0.2325  0.2742
  434MOL0     C58485   4.976   8.690   3.048 -0.5392 -0.5485 -0.1750
  434MOL0     O58486   5.030   8.681   3.178  0.6648 -0.5409  0.0905
  434MOL0     C58487   5.099   8.563   3.210 -0.5544 -1.2031 -1.1546
  434MOL0     C58488   5.031   8.441   3.221  0.1383  0.0333  0.1702
  434MOL0     C58489   5.093   8.329   3.263 -0.3088  0.5358 -0.4797
  434MOL0     C58490   5.231   8.332   3.302  0.3740  0.6713 -0.4745
  434MOL0     O58491   5.289   8.215   3.352  0.2312  0.0274 -0.3955
  434MOL0     C58492   5.396   8.235   3.449 -0.1257 -0.0387 -0.1050
  434MOL0     C58493   5.449   8.098   3.468 -0.6181 -0.8865 -0.1962
  434MOL0     C58494   5.543   8.106   3.594  1.2119  0.4190  0.4664
  434MOL0     C58495   5.619   7.968   3.614  0.3710  0.6238  0.1144
  434MOL0     C58496   5.703   7.954   3.729 -0.5925  0.2454  0.7126
  434MOL0     C58497   5.750   7.806   3.752  0.3439  0.8410  0.3579
  434MOL0     C58498   5.868   7.807   3.856 -0.3482  0.5512 -0.0509
  434MOL0     C58499   5.873   7.672   3.927 -0.2958 -1.2059  0.7924
  434MOL0    Cl58500   5.943   7.554   3.820 -0.6231  0.0947  0.4971
  434MOL0     C58501   5.303   8.454   3.291 -0.4848  0.7274 -0.4901
  434MOL0     C58502   5.230   8.571   3.264 -0.6715 -0.0164 -0.5564
  434MOL0     O58503   4.999   8.602   2.964 -0.3562 -0.8164  0.1857
  434MOL0     C58504   4.953   8.944   3.089  1.0357  0.9844  0.3676
  434MOL0     C58505   4.876   9.059   3.082 -0.1718  0.1060 -0.4314
  434MOL0     N58506   4.345   9.472   2.646 -0.7758  0.2431 -0.5009
  434MOL0     N58507   4.223   9.468   2.615  0.1498 -1.0967  0.6111
  434MOL0     C58508   3.585   8.800   3.206 -0.2255  0.0474 -1.3802
  434MOL0     C58509   3.498   8.806   3.312  0.4989  0.4842 -0.1369
  434MOL0     C58510   3.255   8.782   3.695 -0.0208 -0.1739  0.2955
  434MOL0     C58511   3.273   8.649   3.748  0.0589  0.3347 -1.5365
  434MOL0     C58512   3.191   8.607   3.855 -0.2799  0.5748 -0.0261
  434MOL0     C58513   3.108   8.699   3.926 -1.0311 -0.1257  0.1239
  434MOL0     O58514   3.033   8.658   4.036 -0.4402 -0.1252 -0.0907
  434MOL0     C58515   3.039   8.737   4.152 -0.2070  0.3349 -0.2604
  434MOL0     C58516   3.029   8.640   4.275  0.0304 -0.1446 -0.0468
  434MOL0     C58517   3.004   8.725   4.407 -1.0361 -0.7311 -0.1917
  434MOL0     C58518   3.035   8.673   4.551  0.8060 -0.5085  0.0239
  434MOL0     C58519   2.992   8.542   4.591 -0.0107 -0.3890 -0.3752
  434MOL0     C58520   2.958   8.428   4.614 -0.8059 -0.5778 -1.0602
  434MOL0     C58521   3.094   8.832   3.881 -0.2749 -0.1173 -0.3493
  434MOL0     C58522   3.167   8.868   3.763 -0.8991  0.0878  0.0522
  434MOL0     H58523   3.696   8.713   3.557 -0.3334 -1.6539 -0.4952
  434MOL0     H58524   3.863   8.704   3.385 -0.0332 -0.2678  3.5046
  434MOL0     H58525   3.643   8.787   2.952 -0.4620 -0.2092 -2.8702
  434MOL0     H58526   3.705   8.937   3.019 -0.8592 -0.4595  0.2653
  434MOL0     H58527   3.916   8.887   2.890  0.5683 -1.5513 -1.2266
  434MOL0     H58528   3.845   8.740   2.837  1.1629 -0.3028 -0.1235
  434MOL0     H58529   3.639   8.876   2.735 -2.2240  1.0074  1.4699
  434MOL0     H58530   3.723   9.022   2.788 -0.8010 -1.3032  1.2760
  434MOL0     H58531   3.857   8.819   2.604 -0.4907 -0.2705 -2.2573
  434MOL0     H58532   3.738   8.938   2.537  0.6770 -0.6079 -1.0404
  434MOL0     H58533   3.969   9.031   2.712 -3.0093 -0.8402  1.8974
  434MOL0     H58534   3.991   9.007   2.538 -1.3451  0.6115 -2.0024
  434MOL0     H58535   3.820   9.170   2.491 -0.8342 -2.1773  0.7719
  434MOL0     H58536   3.792   9.209   2.665  1.6889  0.0366  1.1948
  434MOL0     H58537   4.069   9.223   2.535  0.0023 -1.5431  2.5403
  434MOL0     H58538   3.957   9.346   2.494  2.1294 -1.8820 -2.3526
  434MOL0     H58539   3.987   9.323   2.785  4.6569 -1.1113  1.1247
  434MOL0     H58540   3.949   9.469   2.700  2.8575  1.4401  3.6828
  434MOL0     H58541   4.191   9.328   2.902 -2.4281 -1.6903 -1.2368
  434MOL0     H58542   4.557   9.356   2.797  0.4284 -0.1844  0.5298
  434MOL0     H58543   4.494   9.507   2.875 -1.3468  1.4137  0.1730
  434MOL0     H58544   4.428   9.220   2.974  0.2105 -0.1857 -1.0000
  434MOL0     H58545   4.363   9.373   3.041  1.0899  1.5948  0.5007
  434MOL0     H58546   4.527   9.283   3.180 -0.6397 -0.0775  0.0078
  434MOL0     H58547   4.587   9.444   3.109  0.3676  0.3683  1.6095
  434MOL0     H58548   4.777   9.305   3.115  0.1792  1.8037 -2.1946
  434MOL0     H58549   4.746   9.353   2.961  1.4802  3.0371  2.9858
  434MOL0     H58550   4.650   8.961   2.854  1.9077 -1.2351 -1.3267
  434MOL0     H58551   4.648   8.718   2.823 -0.3341  1.5070  0.0736
  434MOL0     H58552   4.814   8.707   2.757  0.3809  1.7634  0.3384
  434MOL0     H58553   4.751   8.631   2.918 -1.7991  0.3578  2.2207
  434MOL0     H58554   4.926   8.439   3.192 -0.3202  2.4727  1.4035
  434MOL0     H58555   5.032   8.240   3.280 -1.8807  1.8167  0.8785
  434MOL0     H58556   5.486   8.291   3.420  0.3202  0.0635  1.4194
  434MOL0     H58557   5.354   8.270   3.543 -1.1323 -0.4669 -0.3802
  434MOL0     H58558   5.365   8.028   3.481 -0.1991 -1.3258  0.1926
  434MOL0     H58559   5.505   8.063   3.381  1.0076  1.6470 -0.2377
  434MOL0     H58560   5.485   8.117   3.686  4.1018  0.5577  2.4056
  434MOL0     H58561   5.612   8.190   3.588  0.2469  1.1257 -1.4885
  434MOL0     H58562   5.542   7.891   3.624 -3.4168  4.3653  4.2135
  434MOL0     H58563   5.669   7.941   3.521  1.2133  1.5117  0.3022
  434MOL0     H58564   5.647   7.991   3.815 -1.6318  2.2181 -0.7347
  434MOL0     H58565   5.790   8.013   3.698 -1.5229  1.0301 -0.5057
  434MOL0     H58566   5.664   7.745   3.780  0.3245  0.7813  0.1732
  434MOL0     H58567   5.794   7.774   3.657 -2.2939 -1.4306 -0.2336
  434MOL0     H58568   5.845   7.884   3.931 -1.3703  1.4004 -1.1958
  434MOL0     H58569   5.964   7.829   3.807  0.2018 -0.7879  0.3807
  434MOL0     H58570   5.771   7.643   3.957 -1.3328  2.0535  0.7885
  434MOL0     H58571   5.939   7.696   4.011  1.6923 -1.5681 -0.5871
  434MOL0     H58572   5.404   8.469   3.327 -1.2920  0.8607  1.8332
  434MOL0     H58573   5.268   8.673   3.264 -0.0606 -0.2401 -1.0096
  434MOL0     H58574   5.030   8.928   3.164  0.1921 -2.5552  0.6532
  434MOL0     H58575   4.890   9.143   3.149  0.4631 -3.5406  4.5240
  434MOL0     H58576   3.540   8.818   3.109  0.0888 -1.4970 -1.8371
  434MOL0     H58577   3.391   8.824   3.300  0.1528  0.7947  2.6503
  434MOL0     H58578   3.351   8.580   3.717  1.1180  0.5608  0.4610
  434MOL0     H58579   3.203   8.506   3.892  2.1450  0.7737 -0.1387
  434MOL0     H58580   3.126   8.802   4.145  1.1425 -0.8962  3.2378
  434MOL0     H58581   2.958   8.809   4.138 -1.5976 -1.3644 -1.4086
  434MOL0     H58582   3.126   8.594   4.294 -0.4505 -2.0855 -1.8810
  434MOL0     H58583   2.964   8.554   4.257  2.7759 -2.9177  2.1496
  434MOL0     H58584   2.901   8.761   4.411  0.1078  2.9244  0.8544
  434MOL0     H58585   3.063   8.816   4.392 -0.9448 -0.9764 -1.4886
  434MOL0     H58586   2.982   8.744   4.614  0.2839  0.0162 -0.9884
  434MOL0     H58587   3.144   8.682   4.565  0.5932  3.6741 -0.0286
  434MOL0     H58588   2.955   8.323   4.632 -0.9904 -0.2833  0.9171
  434MOL0     H58589   3.025   8.896   3.934  0.2522  0.5094 -0.4101
  434MOL0     H58590   3.161   8.971   3.731  3.3079  0.6538  0.4795
  435MOL0     O58591   4.057   7.212   0.206 -0.4243  0.3578  0.5508
  435MOL0     C58592   4.038   7.151   0.100  0.7438 -0.6149 -0.3984
  435MOL0     O58593   4.066   7.026   0.080 -0.3757  0.1688 -0.3464
  435MOL0     C58594   4.097   6.933   0.168 -0.2792  0.1597  0.5650
  435MOL0     C58595   4.127   6.809   0.111  0.3978 -0.2713 -0.1527
  435MOL0     C58596   4.170   6.702   0.187  0.5303 -0.3725 -0.7061
  435MOL0     C58597   4.180   6.714   0.325 -0.3254 -0.9621  0.8071
  435MOL0     O58598   4.202   6.596   0.394 -0.3360  0.1263  1.0519
  435MOL0     C58599   4.275   6.597   0.514  0.4614  0.0010  0.3511
  435MOL0     C58600   4.420   6.637   0.463 -0.0926  0.5457  0.5276
  435MOL0     C58601   4.524   6.664   0.569  0.7727 -0.3932  0.3595
  435MOL0     C58602   4.673   6.627   0.537  0.1200  0.3410 -0.3690
  435MOL0     C58603   4.738   6.712   0.427 -0.6867  0.3726  0.8239
  435MOL0     C58604   4.869   6.757   0.467 -1.2960 -0.1154  1.2657
  435MOL0     C58605   4.963   6.635   0.453 -0.5353 -0.5607  0.2263
  435MOL0     C58606   5.100   6.681   0.501  0.1972  0.2133  0.3988
  435MOL0     N58607   5.158   6.794   0.438  1.0789  0.1917  0.8594
  435MOL0     C58608   5.207   6.904   0.509 -0.2673  0.5889 -0.3855
  435MOL0     C58609   5.266   6.982   0.413 -0.1826 -0.0750 -0.7097
  435MOL0     C58610   5.310   7.125   0.435 -1.7937 -0.7595  0.2344
  435MOL0     C58611   5.275   7.226   0.323  0.3985  0.7800  0.9052
  435MOL0     C58612   5.267   7.368   0.372  0.5360  0.3171 -1.0255
  435MOL0     C58613   5.399   7.438   0.420  0.5133 -0.5590  0.4173
  435MOL0     O58614   5.435   7.406   0.552  0.5748  0.2837 -0.1609
  435MOL0     C58615   5.348   7.435   0.649 -0.1997  0.9204 -0.0010
  435MOL0     C58616   5.308   7.337   0.735 -0.3528  0.1723 -0.8346
  435MOL0     C58617   5.214   7.369   0.835  0.0514  0.1139 -0.2751
  435MOL0     C58618   5.163   7.259   0.920 -0.5053 -0.7837  0.5962
  435MOL0     C58619   5.174   7.503   0.853 -0.3545 -0.4001  0.9403
  435MOL0     C58620   5.083   7.555   0.960 -0.3358 -0.2167 -0.2114
  435MOL0     O58621   5.082   7.684   0.989  1.1687 -0.9204  0.3068
  435MOL0     C58622   5.018   7.756   1.085  0.4548 -0.1702 -0.8190
  435MOL0     C58623   4.976   7.704   1.211  0.0643  0.1210  0.4285
  435MOL0     C58624   4.905   7.790   1.301  0.5770  1.1987 -0.3722
  435MOL0     C58625   4.870   7.915   1.269  0.3802 -0.6404 -0.5867
  435MOL0     O58626   4.786   7.975   1.362 -0.2126 -0.0294 -0.4280
  435MOL0     C58627   4.713   8.090   1.328 -0.2864  0.2122 -0.4356
  435MOL0     C58628   4.584   8.111   1.415 -0.5101 -0.1643 -0.6475
  435MOL0     C58629   4.506   8.230   1.369  0.1222 -0.0509  0.0842
  435MOL0     C58630   4.579   8.367   1.366 -1.8342  0.5386 -0.0647
  435MOL0     C58631   4.483   8.481   1.328  0.4838  0.1101  0.4663
  435MOL0     C58632   4.543   8.619   1.332 -0.0960  0.1697 -0.4514
  435MOL0     C58633   4.441   8.722   1.308 -0.7685 -1.1048  0.9065
  435MOL0     C58634   4.516   8.848   1.286 -0.2821  0.0538  0.1576
  435MOL0    Cl58635   4.395   8.962   1.231 -0.7811  0.3380  0.1784
  435MOL0     C58636   4.898   7.963   1.140 -0.7251 -0.0280  0.0537
  435MOL0     C58637   4.977   7.888   1.050 -0.1025  0.0700 -0.0715
  435MOL0     O58638   5.010   7.478   1.019  0.1777 -0.3041 -0.9986
  435MOL0     C58639   5.218   7.607   0.768  0.3638  0.5141 -0.2616
  435MOL0     C58640   5.303   7.565   0.665 -0.0396  0.3671 -0.1622
  435MOL0     N58641   5.269   6.910   0.299 -0.6479  0.1167  0.7754
  435MOL0     N58642   5.210   6.793   0.312  0.3228  0.4596  0.6766
  435MOL0     C58643   4.144   6.829   0.385 -0.9187 -0.3953  0.0444
  435MOL0     C58644   4.103   6.939   0.309 -0.1507  0.4149  0.2623
  435MOL0     C58645   3.965   7.223  -0.010 -0.6410  0.2636 -1.2164
  435MOL0     C58646   3.978   7.188  -0.145 -0.0289 -0.3176  1.5085
  435MOL0     C58647   3.927   7.269  -0.244 -0.2195 -0.4023  0.8037
  435MOL0     C58648   3.857   7.385  -0.212 -0.1299 -0.4589 -0.6034
  435MOL0     O58649   3.805   7.472  -0.309  0.2845  0.3246 -0.3662
  435MOL0     C58650   3.891   7.507  -0.419 -0.5051  0.1424 -0.1051
  435MOL0     C58651   3.929   7.650  -0.389 -0.4535  0.5391  0.8435
  435MOL0     C58652   3.799   7.728  -0.424 -0.6386 -0.8158 -0.1055
  435MOL0     C58653   3.835   7.880  -0.407 -0.3699  0.5198 -0.1358
  435MOL0     C58654   3.728   7.977  -0.415  0.5230  0.2114 -0.0273
  435MOL0     C58655   3.633   8.049  -0.426 -0.6788 -0.7484  0.2468
  435MOL0     C58656   3.818   7.414  -0.083 -1.5088  0.9071 -0.0255
  435MOL0     C58657   3.875   7.332   0.012 -0.5255  0.2814 -0.4305
  435MOL0     H58658   4.106   6.804   0.005 -0.0388 -1.0262 -0.0370
  435MOL0     H58659   4.189   6.607   0.140 -2.5434 -0.2550 -2.4513
  435MOL0     H58660   4.230   6.675   0.577 -0.6479  0.1350 -0.5751
  435MOL0     H58661   4.267   6.503   0.570  1.1217  0.0161  0.4776
  435MOL0     H58662   4.455   6.555   0.399  4.3042  0.6724  2.4536
  435MOL0     H58663   4.411   6.723   0.396 -1.0422  1.0760  1.2981
  435MOL0     H58664   4.527   6.769   0.597  2.0443 -0.3170  0.0192
  435MOL0     H58665   4.503   6.599   0.655 -2.3308 -1.2038 -0.8610
  435MOL0     H58666   4.712   6.641   0.638 -1.0897 -0.1859  0.1964
  435MOL0     H58667   4.671   6.522   0.508  1.0969  0.4088 -0.6898
  435MOL0     H58668   4.730   6.671   0.326  2.9347  0.1995  0.4549
  435MOL0     H58669   4.683   6.806   0.426 -0.2927  0.6087  0.8449
  435MOL0     H58670   4.903   6.842   0.407 -0.5126 -0.3292  1.3982
  435MOL0     H58671   4.865   6.799   0.568 -2.7211 -0.9082  1.5693
  435MOL0     H58672   4.936   6.551   0.518 -0.1513 -0.7256  0.1776
  435MOL0     H58673   4.963   6.587   0.354  2.2177 -2.2114  0.8998
  435MOL0     H58674   5.167   6.595   0.501  0.0369  0.0683 -0.8323
  435MOL0     H58675   5.087   6.698   0.609  0.8833 -0.9974  0.6880
  435MOL0     H58676   5.174   6.924   0.611 -3.1740 -3.1723 -0.3645
  435MOL0     H58677   5.258   7.148   0.528 -0.9548  0.3553  0.4446
  435MOL0     H58678   5.416   7.117   0.461 -2.2009 -6.4150  1.3999
  435MOL0     H58679   5.186   7.190   0.271  3.2845  1.2678 -5.1847
  435MOL0     H58680   5.352   7.216   0.247 -0.1468  0.8084  0.3440
  435MOL0     H58681   5.201   7.375   0.459  0.8309  0.5315 -0.8158
  435MOL0     H58682   5.227   7.431   0.293 -0.3290  2.5319  1.0462
  435MOL0     H58683   5.381   7.544   0.400  0.3013 -0.7405 -0.3570
  435MOL0     H58684   5.485   7.416   0.356 -1.7333  0.7998 -3.3876
  435MOL0     H58685   5.351   7.240   0.717 -2.0721 -1.2342  1.9615
  435MOL0     H58686   5.056   7.247   0.902 -0.3120 -5.9117  1.5681
  435MOL0     H58687   5.203   7.163   0.888 -1.6570 -0.4103 -2.2827
  435MOL0     H58688   5.195   7.284   1.021 -3.2967 -0.9920  1.5889
  435MOL0     H58689   4.990   7.605   1.254 -0.9471  1.2932  3.8277
  435MOL0     H58690   4.873   7.734   1.389  4.7224  2.7521  2.4597
  435MOL0     H58691   4.784   8.171   1.346 -0.0140 -0.4181  1.7192
  435MOL0     H58692   4.679   8.090   1.224 -2.1479  3.4136  0.0292
  435MOL0     H58693   4.520   8.023   1.404 -0.3059 -0.7781  2.1894
  435MOL0     H58694   4.611   8.119   1.521  1.1490  2.0358 -1.1689
  435MOL0     H58695   4.431   8.239   1.449  1.8638  1.8643  1.6354
  435MOL0     H58696   4.457   8.214   1.273 -0.6991 -1.2768  0.6689
  435MOL0     H58697   4.620   8.385   1.466 -1.8478  1.2172 -0.1775
  435MOL0     H58698   4.676   8.368   1.317 -1.1388 -0.8286  1.1888
  435MOL0     H58699   4.404   8.483   1.404 -0.7179 -2.2883 -0.6352
  435MOL0     H58700   4.445   8.452   1.230  2.0572 -0.6807  0.0529
  435MOL0     H58701   4.584   8.647   1.430 -1.4000  2.8202 -0.5508
  435MOL0     H58702   4.627   8.627   1.264  1.0807 -0.0619  0.9196
  435MOL0     H58703   4.381   8.750   1.396  3.0659  2.4673  2.7322
  435MOL0     H58704   4.377   8.709   1.220 -0.7576 -2.7963  1.1055
  435MOL0     H58705   4.586   8.823   1.206 -1.8038  0.3319 -1.3301
  435MOL0     H58706   4.563   8.881   1.379 -4.2130  4.8021  0.8768
  435MOL0     H58707   4.846   8.051   1.105  0.1994 -0.2888 -2.1859
  435MOL0     H58708   5.002   7.938   0.957 -0.5742  1.4180  0.4900
  435MOL0     H58709   5.192   7.712   0.777 -0.3778  0.3753 -0.7048
  435MOL0     H58710   5.338   7.649   0.604  0.8979 -0.7729 -1.2620
  435MOL0     H58711   4.142   6.842   0.493  0.9983  0.0884  0.0548
  435MOL0     H58712   4.065   7.029   0.355 -2.3566  0.0239 -0.6695
  435MOL0     H58713   4.024   7.096  -0.180 -0.6805 -0.7615  1.7910
  435MOL0     H58714   3.930   7.231  -0.345 -3.0527 -1.5423  1.0619
  435MOL0     H58715   3.982   7.445  -0.418  1.3010  2.5657 -1.6318
  435MOL0     H58716   3.836   7.496  -0.513 -1.2073 -1.5626  0.4619
  435MOL0     H58717   4.022   7.664  -0.446 -1.2414  2.0994 -0.1116
  435MOL0     H58718   3.951   7.658  -0.282 -0.8237  0.7103  0.9076
  435MOL0     H58719   3.722   7.699  -0.352  0.1616 -3.0206 -0.0614
  435MOL0     H58720   3.779   7.715  -0.531  1.9703 -1.2206 -0.6100
  435MOL0     H58721   3.906   7.900  -0.487 -0.7339  1.4421 -0.2306
  435MOL0     H58722   3.893   7.898  -0.316  4.1398  0.8435 -2.7357
  435MOL0     H58723   3.563   8.130  -0.432  2.3432  2.1225  0.3075
  435MOL0     H58724   3.753   7.499  -0.067 -0.0422  1.7648  1.7390
  435MOL0     H58725   3.853   7.364   0.113 -0.5002 -0.4479 -0.1882
  436MOL0     O58726  10.494   3.875   3.445 -1.0461 -0.0886  0.0915
  436MOL0     C58727  10.485   3.968   3.375 -0.6841 -0.1186  0.7758
  436MOL0     O58728  10.394   4.063   3.389 -0.0381  0.1549 -0.0416
  436MOL0     C58729  10.296   4.080   3.494 -0.8547 -1.2413  0.9763
  436MOL0     C58730  10.171   4.126   3.455  0.1292 -0.9950 -0.8578
  436MOL0     C58731  10.074   4.164   3.553 -1.5413 -0.6398 -0.2104
  436MOL0     C58732  10.112   4.162   3.687  0.0097  0.7481 -0.6784
  436MOL0     O58733  10.022   4.208   3.778  0.1848 -0.2353  0.0918
  436MOL0     C58734   9.924   4.303   3.744  0.4113 -0.0400  0.7133
  436MOL0     C58735   9.977   4.444   3.705 -0.5240  0.2002  1.4599
  436MOL0     C58736  10.077   4.492   3.814  0.4332 -0.0485  0.2804
  436MOL0     C58737  10.044   4.469   3.961 -1.3650 -0.5119  0.6865
  436MOL0     C58738  10.143   4.535   4.059 -0.6311 -0.2894 -1.1021
  436MOL0     C58739  10.279   4.466   4.072  0.3268  0.4842 -0.0524
  436MOL0     C58740  10.375   4.526   4.181  0.4988  0.0927  0.2386
  436MOL0     C58741  10.342   4.479   4.330  0.5247  0.2779  0.1084
  436MOL0     N58742  10.434   4.533   4.426  0.0267 -0.3227 -0.6725
  436MOL0     C58743  10.393   4.565   4.553  0.1636  0.0710 -0.8797
  436MOL0     C58744  10.503   4.603   4.621 -0.5045  0.2440  1.0620
  436MOL0     C58745  10.520   4.629   4.771  0.4164 -0.2489  0.4846
  436MOL0     C58746  10.623   4.530   4.839  0.3244 -0.2300 -0.0431
  436MOL0     C58747  10.649   4.572   4.985  0.0438 -0.4686 -0.3144
  436MOL0     C58748  10.679   4.453   5.079  0.1281  0.9712  0.1323
  436MOL0     O58749  10.554   4.387   5.124 -0.0235 -0.4012  0.8834
  436MOL0     C58750  10.481   4.437   5.231  0.1393 -0.6923  0.2982
  436MOL0     C58751  10.527   4.540   5.317 -0.2510 -0.0991  0.2318
  436MOL0     C58752  10.447   4.594   5.413 -0.6289  0.1556 -0.4524
  436MOL0     C58753  10.518   4.698   5.498  0.2730 -0.6417  0.0245
  436MOL0     C58754  10.316   4.545   5.431 -0.3100  0.5023 -0.8308
  436MOL0     C58755  10.226   4.595   5.532 -0.1564  0.2702 -0.2936
  436MOL0     O58756  10.131   4.507   5.576  0.0044  0.3467  0.2037
  436MOL0     C58757  10.051   4.526   5.680  0.3012 -0.4215  1.0466
  436MOL0     C58758   9.941   4.455   5.684  0.7742  0.1534  0.0684
  436MOL0     C58759   9.829   4.473   5.773 -0.3669  0.1067  0.7058
  436MOL0     C58760   9.839   4.566   5.878 -0.7809 -0.4518  0.2146
  436MOL0     O58761   9.732   4.574   5.972  0.7064  0.0631  0.5501
  436MOL0     C58762   9.729   4.605   6.114  0.0045 -0.0924 -0.2392
  436MOL0     C58763   9.603   4.558   6.182  1.0265 -0.0796 -0.1364
  436MOL0     C58764   9.475   4.628   6.120 -0.7888 -0.0723  0.2981
  436MOL0     C58765   9.344   4.618   6.191 -0.8251  0.6938  0.5707
  436MOL0     C58766   9.237   4.705   6.114  0.2773 -0.5072 -0.0895
  436MOL0     C58767   9.097   4.707   6.184 -0.1172 -0.8435 -0.2839
  436MOL0     C58768   8.996   4.796   6.098 -0.0355 -0.3975 -0.1800
  436MOL0     C58769   8.944   4.700   5.985 -0.1082 -0.3123 -0.3357
  436MOL0    Cl58770   8.830   4.791   5.866 -0.0166  0.2213 -0.1082
  436MOL0     C58771   9.956   4.644   5.878  0.3365  0.4263 -0.0675
  436MOL0     C58772  10.056   4.626   5.775 -0.0850  1.0065  0.5806
  436MOL0     O58773  10.229   4.709   5.549  1.0158  0.2713 -0.3486
  436MOL0     C58774  10.268   4.451   5.340 -0.4879  1.1837  1.1671
  436MOL0     C58775  10.352   4.389   5.248  0.2447  0.0221 -0.4528
  436MOL0     N58776  10.606   4.607   4.523 -0.4017 -0.5558 -0.0510
  436MOL0     N58777  10.564   4.563   4.412  0.4961 -0.1025 -0.6661
  436MOL0     C58778  10.239   4.112   3.731  0.8794 -0.0808  0.5669
  436MOL0     C58779  10.328   4.064   3.626  0.1811  0.3011 -0.7879
  436MOL0     C58780  10.588   3.993   3.266  0.0619  0.2105 -0.3628
  436MOL0     C58781  10.689   3.901   3.236 -1.4308 -0.0032 -1.0503
  436MOL0     C58782  10.779   3.922   3.128 -0.2263 -0.1956 -0.2503
  436MOL0     C58783  10.765   4.036   3.052  0.0521 -0.7109 -0.9874
  436MOL0     O58784  10.853   4.074   2.951 -0.1982  0.4489 -0.3682
  436MOL0     C58785  10.961   4.169   2.987 -0.0987  0.0314  0.2998
  436MOL0     C58786  11.094   4.116   2.931  0.4077 -0.4125  0.2408
  436MOL0     C58787  11.201   4.200   2.991 -0.8859 -0.2164 -0.0220
  436MOL0     C58788  11.337   4.201   2.916  0.4433  1.1798  0.0423
  436MOL0     C58789  11.316   4.185   2.769  0.4718  0.0587  1.2136
  436MOL0     C58790  11.287   4.170   2.653 -0.7481 -0.2003  0.1007
  436MOL0     C58791  10.670   4.134   3.090 -0.5612 -0.6522  0.6316
  436MOL0     C58792  10.584   4.114   3.192  1.0572 -0.0036 -0.5225
  436MOL0     H58793  10.143   4.133   3.351 -0.9481 -1.1284 -0.5964
  436MOL0     H58794   9.984   4.205   3.510 -0.7158  0.1783 -1.2024
  436MOL0     H58795   9.862   4.262   3.665 -1.6390 -1.1904  2.7828
  436MOL0     H58796   9.855   4.303   3.829 -0.2089 -0.6966  0.2161
  436MOL0     H58797  10.012   4.441   3.602 -2.4609  2.1858  0.6619
  436MOL0     H58798   9.895   4.516   3.704 -0.9607 -0.2957  0.0421
  436MOL0     H58799  10.178   4.453   3.800  0.0872 -2.2211  3.0990
  436MOL0     H58800  10.081   4.600   3.793 -4.9288  0.2176 -0.8134
  436MOL0     H58801   9.944   4.508   3.983 -1.6246 -2.1910  2.8780
  436MOL0     H58802  10.038   4.364   3.991  1.9380 -1.8982 -2.6411
  436MOL0     H58803  10.162   4.637   4.023 -0.3565 -0.9578 -3.0028
  436MOL0     H58804  10.096   4.544   4.157  0.7525  1.5468 -0.5468
  436MOL0     H58805  10.259   4.363   4.102  1.1944 -0.6464 -2.9351
  436MOL0     H58806  10.333   4.461   3.977  0.8895 -0.0634  0.2969
  436MOL0     H58807  10.479   4.492   4.167  0.3119 -0.7031  0.7214
  436MOL0     H58808  10.377   4.635   4.178 -0.4665  0.0880 -2.0598
  436MOL0     H58809  10.339   4.369   4.327 -0.1166  0.3116 -0.8451
  436MOL0     H58810  10.240   4.506   4.360 -1.3658 -2.5614 -3.0516
  436MOL0     H58811  10.292   4.565   4.593  0.6885  2.1618  0.6522
  436MOL0     H58812  10.536   4.737   4.786 -1.9377  0.5168 -1.7316
  436MOL0     H58813  10.425   4.612   4.821 -0.7257  3.9320  0.1463
  436MOL0     H58814  10.720   4.528   4.789  0.8292 -0.1720  0.9243
  436MOL0     H58815  10.584   4.428   4.842 -2.5876  0.8131  1.9108
  436MOL0     H58816  10.558   4.622   5.018 -0.1480 -1.0979  0.1285
  436MOL0     H58817  10.730   4.645   4.997  0.1821 -0.6025 -0.4240
  436MOL0     H58818  10.747   4.473   5.162 -0.4282  0.1717  0.8028
  436MOL0     H58819  10.737   4.385   5.016 -0.1381  0.2276  0.6621
  436MOL0     H58820  10.635   4.553   5.316 -0.0566 -0.8483  3.1805
  436MOL0     H58821  10.478   4.798   5.480 -1.4506 -0.4381  3.8496
  436MOL0     H58822  10.508   4.661   5.601  1.7740  0.9842  0.8071
  436MOL0     H58823  10.621   4.698   5.462  0.1098 -1.8904 -0.4816
  436MOL0     H58824   9.938   4.379   5.607 -1.2355 -0.2896  0.5303
  436MOL0     H58825   9.741   4.409   5.763  1.2302 -2.0764 -0.2031
  436MOL0     H58826   9.813   4.566   6.172 -0.8391 -0.3446  0.8526
  436MOL0     H58827   9.737   4.712   6.132 -1.7012  0.4581 -2.2681
  436MOL0     H58828   9.590   4.449   6.181 -0.3870  0.0663 -0.0584
  436MOL0     H58829   9.600   4.589   6.287  1.8244  0.4618 -0.2643
  436MOL0     H58830   9.473   4.593   6.016  0.2264 -3.3959  1.3044
  436MOL0     H58831   9.508   4.731   6.102  1.2321 -0.8609 -0.9608
  436MOL0     H58832   9.315   4.513   6.178  2.1812 -0.0063 -1.4139
  436MOL0     H58833   9.356   4.639   6.298  1.2528  4.9134 -0.2786
  436MOL0     H58834   9.232   4.663   6.013  0.2634 -1.8658  0.4528
  436MOL0     H58835   9.277   4.806   6.125  1.6940 -1.1669  1.1511
  436MOL0     H58836   9.051   4.608   6.196 -1.6926 -0.4926 -2.7010
  436MOL0     H58837   9.105   4.754   6.283 -0.5114  1.8675 -1.4621
  436MOL0     H58838   9.042   4.885   6.056  2.4023 -0.8116  1.4047
  436MOL0     H58839   8.908   4.820   6.158 -1.2076 -1.1451 -1.5548
  436MOL0     H58840   8.885   4.618   6.026 -1.3123  0.1291 -1.1157
  436MOL0     H58841   9.020   4.640   5.934  0.4538 -2.5651  2.8835
  436MOL0     H58842   9.968   4.717   5.958 -0.1559  0.4570 -0.0202
  436MOL0     H58843  10.140   4.693   5.786  0.0521  0.8629  0.4083
  436MOL0     H58844  10.167   4.412   5.336  0.2724 -0.7653 -0.7903
  436MOL0     H58845  10.316   4.312   5.181  1.8352 -2.4910  1.3978
  436MOL0     H58846  10.258   4.107   3.837  0.6791  0.3709  0.6263
  436MOL0     H58847  10.426   4.028   3.659 -0.3797  0.9057  1.7877
  436MOL0     H58848  10.707   3.819   3.305  0.8346  1.1633 -0.1485
  436MOL0     H58849  10.859   3.852   3.106  2.2336  2.8370 -1.8021
  436MOL0     H58850  10.939   4.266   2.942 -2.1086 -0.8072 -0.6430
  436MOL0     H58851  10.974   4.184   3.094  0.9824 -2.5240  0.6034
  436MOL0     H58852  11.075   4.138   2.826  1.4091 -0.1295  0.1035
  436MOL0     H58853  11.124   4.011   2.932  1.2374 -0.2859 -2.7760
  436MOL0     H58854  11.216   4.155   3.089  0.0497  0.2035  0.0344
  436MOL0     H58855  11.169   4.303   3.011  0.8147  1.1054 -3.2473
  436MOL0     H58856  11.388   4.112   2.955  0.5818  1.2888  0.1101
  436MOL0     H58857  11.394   4.290   2.943 -0.9203  1.5548  1.8865
  436MOL0     H58858  11.276   4.164   2.547 -1.4113  0.5267  0.1133
  436MOL0     H58859  10.673   4.229   3.038 -0.0920 -1.1039 -0.1921
  436MOL0     H58860  10.515   4.195   3.213  0.0580  0.1486 -3.9261
  437MOL0     O58861   2.052   1.526  10.703 -0.5105  0.5819 -0.2523
  437MOL0     C58862   1.949   1.582  10.667 -0.1700  0.3052  1.1944
  437MOL0     O58863   1.922   1.716  10.669  0.7784 -0.5777  0.3216
  437MOL0     C58864   1.999   1.810  10.745  0.6128  0.4632  0.6747
  437MOL0     C58865   1.934   1.929  10.779  1.0296  0.3092  0.6943
  437MOL0     C58866   1.998   2.033  10.848  0.1348 -0.4240  0.7783
  437MOL0     C58867   2.121   2.013  10.906 -0.8512 -0.3598 -0.3760
  437MOL0     O58868   2.188   2.115  10.972  0.1351  0.1445  0.1698
  437MOL0     C58869   2.286   2.190  10.893  0.2192  0.1201 -0.0767
  437MOL0     C58870   2.394   2.236  10.993  0.1530  0.5758  0.0523
  437MOL0     C58871   2.484   2.357  10.980  0.2658  0.0342  0.8445
  437MOL0     C58872   2.419   2.496  11.007  0.2357 -0.3712 -1.4088
  437MOL0     C58873   2.537   2.603  10.985 -0.4296 -0.6452 -0.1934
  437MOL0     C58874   2.641   2.602  11.105  0.8442  0.3715  0.9619
  437MOL0     C58875   2.756   2.691  11.042 -0.8901  0.7622  0.3204
  437MOL0     C58876   2.877   2.710  11.138  0.4504 -0.9035  0.1589
  437MOL0     N58877   2.984   2.790  11.076 -0.7318 -1.6717  0.3374
  437MOL0     C58878   2.992   2.926  11.077  0.0052  0.5502  0.4040
  437MOL0     C58879   3.110   2.960  11.021  0.4832  0.2567 -0.3575
  437MOL0     C58880   3.165   3.098  11.015  0.2189  0.1055 -0.1060
  437MOL0     C58881   3.302   3.113  11.095 -0.0822 -0.3196  1.1927
  437MOL0     C58882   3.318   3.083  11.251 -0.2257 -0.3012 -0.3530
  437MOL0     C58883   3.459   3.058  11.277 -0.2585 -1.1068  0.0349
  437MOL0     O58884   3.459   3.020  11.411  0.2040 -0.0874  0.2924
  437MOL0     C58885   3.569   3.037  11.496 -0.2068  0.3596  0.1175
  437MOL0     C58886   3.695   3.076  11.449  0.0486 -0.2551 -0.6959
  437MOL0     C58887   3.806   3.097  11.535 -0.6135 -0.0911  0.7044
  437MOL0     C58888   3.924   3.161  11.462  0.4729 -0.1251 -1.1033
  437MOL0     C58889   3.802   3.067  11.670  0.4602 -0.6631  0.5778
  437MOL0     C58890   3.926   3.058  11.760  1.2397 -0.8762 -0.3360
  437MOL0     O58891   4.055   3.042  11.713 -0.5751  0.3526 -0.5158
  437MOL0     C58892   4.163   3.032  11.789  0.5365 -0.3146 -0.2284
  437MOL0     C58893   4.180   3.110  11.905  0.5103  0.0732 -0.2346
  437MOL0     C58894   4.291   3.086  11.986  0.0942 -0.8567  0.1196
  437MOL0     C58895   4.393   3.000  11.944 -0.6357  0.5842 -0.2728
  437MOL0     O58896   4.507   2.971  12.031  0.4781  0.6902  0.3850
  437MOL0     C58897   4.634   2.989  11.967 -0.7735 -0.3101  0.0744
  437MOL0     C58898   4.712   2.860  11.959 -0.6282 -0.3004  0.4923
  437MOL0     C58899   4.826   2.883  11.860  0.3438 -0.0139 -0.5357
  437MOL0     C58900   4.796   2.848  11.718  0.8089 -0.0873 -0.5773
  437MOL0     C58901   4.927   2.831  11.637 -0.0743 -0.1477  0.1886
  437MOL0     C58902   4.900   2.809  11.484 -0.1997 -0.2137 -0.0724
  437MOL0     C58903   5.026   2.810  11.392 -0.6298 -0.5115  0.7449
  437MOL0     C58904   4.969   2.766  11.258  0.1289  0.5060 -0.0354
  437MOL0    Cl58905   5.119   2.769  11.163 -0.2452  0.0906 -0.4167
  437MOL0     C58906   4.378   2.921  11.827 -0.3327  0.4294 -1.2091
  437MOL0     C58907   4.260   2.939  11.755 -0.6194  0.6776  0.8841
  437MOL0     O58908   3.890   3.037  11.877 -0.5232 -0.0645 -0.1147
  437MOL0     C58909   3.676   3.015  11.713  0.0681  0.0755 -0.5076
  437MOL0     C58910   3.556   3.006  11.630 -0.3068 -0.7369 -0.1597
  437MOL0     N58911   3.176   2.845  10.994  0.8385 -0.0377  0.2871
  437MOL0     N58912   3.107   2.747  11.020 -0.4908 -0.5731 -0.0685
  437MOL0     C58913   2.181   1.894  10.888 -0.0554  0.5286 -0.5247
  437MOL0     C58914   2.132   1.796  10.793 -0.4606 -0.1497  0.7110
  437MOL0     C58915   1.851   1.502  10.592 -0.2454  0.4316 -0.0012
  437MOL0     C58916   1.722   1.558  10.565  0.1998  1.1566 -0.0361
  437MOL0     C58917   1.616   1.489  10.503  0.0015  0.2464  0.5962
  437MOL0     C58918   1.642   1.360  10.455 -0.5268  0.2179  0.3056
  437MOL0     O58919   1.555   1.285  10.395  0.4195  0.5024 -0.2532
  437MOL0     C58920   1.489   1.367  10.300 -0.1857  0.7175 -0.2398
  437MOL0     C58921   1.426   1.290  10.172 -0.6029  0.2860 -0.7348
  437MOL0     C58922   1.405   1.386  10.058 -0.3651 -0.0206  0.2172
  437MOL0     C58923   1.332   1.328   9.937 -0.2426  0.8822 -0.2965
  437MOL0     C58924   1.342   1.431   9.832  1.3062  0.5296  0.5202
  437MOL0     C58925   1.364   1.512   9.744 -0.6430 -1.4764 -0.9947
  437MOL0     C58926   1.771   1.298  10.488  0.0528  0.0490 -0.1783
  437MOL0     C58927   1.874   1.369  10.552 -0.0789 -0.0814 -0.0190
  437MOL0     H58928   1.839   1.952  10.731  2.5547 -0.2348 -2.9488
  437MOL0     H58929   1.951   2.131  10.852  2.0368  0.5977 -0.4461
  437MOL0     H58930   2.343   2.123  10.828  3.7083  0.7339  2.0966
  437MOL0     H58931   2.238   2.276  10.846 -0.3375  1.6337  3.0199
  437MOL0     H58932   2.337   2.247  11.085 -1.3987 -1.2195 -0.6323
  437MOL0     H58933   2.461   2.150  10.984  0.1757  0.8202 -3.5634
  437MOL0     H58934   2.572   2.331  11.039  1.8002 -0.1776 -1.4282
  437MOL0     H58935   2.517   2.360  10.876  2.2604  0.2191  1.4428
  437MOL0     H58936   2.340   2.518  10.934 -1.2564  1.3459  0.5906
  437MOL0     H58937   2.375   2.494  11.107  2.3398  0.2076 -0.4152
  437MOL0     H58938   2.582   2.577  10.889 -0.5365  1.8631 -0.9994
  437MOL0     H58939   2.497   2.705  10.974  0.8865 -0.0426  0.3851
  437MOL0     H58940   2.592   2.633  11.198 -1.1145 -0.3706  0.2283
  437MOL0     H58941   2.691   2.506  11.118  0.3847  0.2709  2.1872
  437MOL0     H58942   2.782   2.633  10.953 -2.0485  2.9626 -1.5542
  437MOL0     H58943   2.714   2.782  10.998 -0.8665  0.1452 -1.0416
  437MOL0     H58944   2.924   2.616  11.168  2.3809  0.0346  0.2841
  437MOL0     H58945   2.843   2.763  11.227  2.0639  1.7097 -0.6355
  437MOL0     H58946   2.916   2.992  11.115 -2.6767 -2.3182  0.4111
  437MOL0     H58947   3.186   3.131  10.913 -1.6239 -2.0667 -1.2883
  437MOL0     H58948   3.100   3.166  11.071 -0.1334 -0.4443  0.1624
  437MOL0     H58949   3.345   3.211  11.071  1.7818 -1.8733 -2.8461
  437MOL0     H58950   3.357   3.039  11.036 -0.5616  0.0671  0.2327
  437MOL0     H58951   3.255   3.001  11.288  1.9038 -0.7725  2.6512
  437MOL0     H58952   3.283   3.170  11.308  0.1242 -0.2894 -0.1508
  437MOL0     H58953   3.531   3.133  11.242 -0.3991 -0.4633  1.0902
  437MOL0     H58954   3.493   2.973  11.216 -2.1625 -2.1404  0.3429
  437MOL0     H58955   3.713   3.102  11.345  2.6655  2.8840  0.3839
  437MOL0     H58956   3.977   3.081  11.410 -1.7208 -0.9249 -2.2487
  437MOL0     H58957   3.887   3.232  11.387 -0.1713  1.2347  0.4511
  437MOL0     H58958   3.986   3.215  11.535 -0.2913  0.2208 -0.6978
  437MOL0     H58959   4.106   3.184  11.935 -2.8362 -2.9251 -0.4393
  437MOL0     H58960   4.322   3.143  12.073 -1.7557 -0.1710  0.3670
  437MOL0     H58961   4.620   3.024  11.864 -3.2485  1.3601  0.8803
  437MOL0     H58962   4.687   3.061  12.029  1.9915 -2.7347  0.6927
  437MOL0     H58963   4.765   2.823  12.047  1.5819 -1.4868 -1.2193
  437MOL0     H58964   4.640   2.800  11.903 -0.8101  1.1189 -0.8895
  437MOL0     H58965   4.904   2.811  11.888  0.3999 -0.0369 -0.7479
  437MOL0     H58966   4.866   2.985  11.855 -1.6957  0.9672  1.4879
  437MOL0     H58967   4.734   2.759  11.707 -1.1765  0.8332  2.0587
  437MOL0     H58968   4.739   2.929  11.672  0.9195 -1.5766 -3.5259
  437MOL0     H58969   4.987   2.749  11.676  0.4792  0.6929  1.1459
  437MOL0     H58970   4.991   2.919  11.645  0.1248  0.5393 -5.1250
  437MOL0     H58971   4.854   2.711  11.471  2.3098 -1.1159 -3.5630
  437MOL0     H58972   4.824   2.885  11.460 -0.6204 -0.4386  0.5306
  437MOL0     H58973   5.112   2.757  11.436  0.1351 -0.9766 -1.2125
  437MOL0     H58974   5.068   2.909  11.370 -1.7861 -0.1974 -0.1143
  437MOL0     H58975   4.883   2.829  11.231 -1.2646 -1.4159 -0.2596
  437MOL0     H58976   4.941   2.661  11.273  2.6290 -0.3966 -1.1820
  437MOL0     H58977   4.436   2.835  11.796 -1.3528 -1.1449  1.0153
  437MOL0     H58978   4.246   2.891  11.658 -2.7142  1.5162  0.7175
  437MOL0     H58979   3.659   2.993  11.818 -3.8468  4.3868  0.0606
  437MOL0     H58980   3.459   2.977  11.667  0.1764 -1.4437  0.5864
  437MOL0     H58981   2.282   1.884  10.926 -0.9394 -1.1065  1.6095
  437MOL0     H58982   2.193   1.709  10.767  0.1863  0.4689  0.1055
  437MOL0     H58983   1.697   1.659  10.598 -2.3700  1.0757 -1.4689
  437MOL0     H58984   1.524   1.547  10.501  1.0951  2.1467  1.7591
  437MOL0     H58985   1.405   1.419  10.347  0.6432  2.6295 -0.7651
  437MOL0     H58986   1.561   1.444  10.270  1.6570 -1.6700 -2.3963
  437MOL0     H58987   1.344   1.224  10.200 -1.5070  0.9297 -1.8011
  437MOL0     H58988   1.504   1.219  10.142 -3.4278 -2.3235 -2.4692
  437MOL0     H58989   1.508   1.408  10.027 -0.6938 -0.4081 -1.2617
  437MOL0     H58990   1.358   1.480  10.086  0.9777  0.4691  0.9004
  437MOL0     H58991   1.228   1.307   9.963  0.1947  0.0364  0.8740
  437MOL0     H58992   1.380   1.235   9.907  0.4865  1.1695 -0.0539
  437MOL0     H58993   1.378   1.594   9.676  0.5724 -0.8148  0.0256
  437MOL0     H58994   1.793   1.194  10.470  1.7260 -0.0866  2.1253
  437MOL0     H58995   1.970   1.325  10.576 -0.1844  0.5610  1.8005
  438MOL0     O58996   4.708   2.029   9.228  0.2509 -0.3139 -0.5146
  438MOL0     C58997   4.623   2.010   9.314 -0.9343  0.2863 -0.6779
  438MOL0     O58998   4.608   1.889   9.383 -0.1207  0.0080 -0.2995
  438MOL0     C58999   4.676   1.776   9.357  0.3485 -0.1879  0.1634
  438MOL0     C59000   4.806   1.772   9.309  0.5020  0.2386  0.5414
  438MOL0     C59001   4.868   1.641   9.276  0.2584 -0.6304 -0.8390
  438MOL0     C59002   4.798   1.524   9.294 -0.1967  0.2852  0.2638
  438MOL0     O59003   4.853   1.400   9.298 -0.1371 -0.6230  0.4017
  438MOL0     C59004   4.967   1.397   9.382 -0.5808  0.4907 -0.2626
  438MOL0     C59005   4.953   1.270   9.462  0.2717  0.0238  0.6451
  438MOL0     C59006   4.860   1.281   9.587 -0.2123 -0.1061  0.3907
  438MOL0     C59007   4.904   1.384   9.692 -0.0390  0.8441  0.1112
  438MOL0     C59008   4.795   1.399   9.809 -1.4088  0.3722 -0.6055
  438MOL0     C59009   4.781   1.276   9.917  0.1572 -0.3892  0.0449
  438MOL0     C59010   4.648   1.289   9.995  0.0402  0.1609  0.6104
  438MOL0     C59011   4.664   1.378  10.122  0.8593  0.2348  0.5062
  438MOL0     N59012   4.537   1.382  10.200 -0.8674 -0.3591  0.2891
  438MOL0     C59013   4.445   1.490  10.213  0.3178 -0.4873 -0.3990
  438MOL0     C59014   4.347   1.443  10.294  0.0784 -0.5951  1.6500
  438MOL0     C59015   4.232   1.522  10.343  0.1962 -0.7340 -0.3882
  438MOL0     C59016   4.249   1.575  10.493  0.5087  0.6294  0.2915
  438MOL0     C59017   4.135   1.556  10.578  0.8226 -0.1512 -0.0285
  438MOL0     C59018   4.164   1.615  10.721  0.2918  0.9902  0.2788
  438MOL0     O59019   4.066   1.577  10.813  0.4657  0.6445  0.8224
  438MOL0     C59020   4.076   1.571  10.946 -0.6435  0.2792 -0.4882
  438MOL0     C59021   4.185   1.623  11.020  0.1083 -0.1563 -0.0279
  438MOL0     C59022   4.192   1.600  11.160  0.4526 -0.5962  0.5163
  438MOL0     C59023   4.313   1.639  11.231 -0.5212  0.4236 -0.5180
  438MOL0     C59024   4.090   1.534  11.235  0.4261  0.5642 -0.4562
  438MOL0     C59025   4.088   1.509  11.380 -0.6864  0.7240 -0.0289
  438MOL0     O59026   3.971   1.472  11.422  0.7138  0.1809  0.6331
  438MOL0     C59027   3.942   1.469  11.553  0.5896 -0.0260 -0.0508
  438MOL0     C59028   3.958   1.351  11.623 -1.2969 -0.1545 -0.4335
  438MOL0     C59029   3.948   1.359  11.761 -0.2177  0.6872  0.1648
  438MOL0     C59030   3.918   1.469  11.827 -0.2295 -0.8608  0.5685
  438MOL0     O59031   3.879   1.481  11.962 -0.1554  0.0244  0.6692
  438MOL0     C59032   3.851   1.362  12.036  0.5717 -0.6059 -0.7869
  438MOL0     C59033   3.723   1.278  12.000  0.5173 -0.1918 -0.2815
  438MOL0     C59034   3.594   1.365  12.007 -0.8811  0.1679  0.6034
  438MOL0     C59035   3.460   1.287  12.007  0.7075 -0.6576 -1.6215
  438MOL0     C59036   3.334   1.386  11.982 -0.6933 -0.4876 -0.3323
  438MOL0     C59037   3.341   1.451  11.840 -0.7907  0.0459  0.2013
  438MOL0     C59038   3.223   1.529  11.806  0.5694  0.2443 -0.2400
  438MOL0     C59039   3.218   1.547  11.653 -0.1482 -0.3325 -0.4857
  438MOL0    Cl59040   3.291   1.706  11.619 -0.1322  0.1855 -0.2714
  438MOL0     C59041   3.903   1.591  11.757  0.1725  0.4825  0.1680
  438MOL0     C59042   3.897   1.577  11.624  0.0321 -0.6997 -0.6956
  438MOL0     O59043   4.191   1.518  11.446 -0.0096  0.5495 -0.2492
  438MOL0     C59044   3.972   1.496  11.151 -1.0728  0.8942 -0.7571
  438MOL0     C59045   3.968   1.509  11.014 -0.1348  0.5950 -0.2924
  438MOL0     N59046   4.379   1.313  10.329  0.1957 -0.2695 -0.4245
  438MOL0     N59047   4.498   1.278  10.282 -0.6427  0.4319 -0.5357
  438MOL0     C59048   4.660   1.533   9.337  0.1889 -0.2443 -0.2279
  438MOL0     C59049   4.603   1.650   9.365 -0.0761 -0.0859  0.1890
  438MOL0     C59050   4.531   2.112   9.332  0.1274 -0.1488  0.4946
  438MOL0     C59051   4.395   2.087   9.316 -0.1905 -0.3088  0.2650
  438MOL0     C59052   4.297   2.185   9.326  1.0915 -0.1627  0.0546
  438MOL0     C59053   4.338   2.314   9.349 -0.0482 -0.3944 -0.6920
  438MOL0     O59054   4.250   2.415   9.354  0.3935 -0.9414 -0.6218
  438MOL0     C59055   4.278   2.550   9.375  0.0230  0.0309  0.9372
  438MOL0     C59056   4.167   2.649   9.356  0.3460 -0.7306  0.1876
  438MOL0     C59057   4.100   2.643   9.218 -0.3175 -0.6682  0.3649
  438MOL0     C59058   4.006   2.761   9.177  0.2959  0.1488  0.3745
  438MOL0     C59059   4.079   2.896   9.182  0.0226 -0.2265 -0.5214
  438MOL0     C59060   4.126   3.008   9.179 -0.5731  0.8125  0.1505
  438MOL0     C59061   4.478   2.345   9.377 -0.2541  0.3234 -0.4597
  438MOL0     C59062   4.573   2.245   9.370 -0.4139 -0.5546  0.4080
  438MOL0     H59063   4.862   1.864   9.294  1.8696 -0.4540  1.2251
  438MOL0     H59064   4.966   1.625   9.234 -0.6105 -3.0641 -2.1419
  438MOL0     H59065   5.053   1.385   9.316 -0.2983  3.7937 -0.6525
  438MOL0     H59066   4.988   1.490   9.436  0.2556  0.2037 -0.0830
  438MOL0     H59067   4.938   1.187   9.392 -1.4963  2.6531 -2.3500
  438MOL0     H59068   5.052   1.249   9.503  0.4874  0.0020  0.1238
  438MOL0     H59069   4.756   1.303   9.562  0.5891  1.7898 -1.5882
  438MOL0     H59070   4.846   1.180   9.627 -4.7972  0.6832  1.3546
  438MOL0     H59071   5.009   1.376   9.719  0.0973  2.4124  0.1240
  438MOL0     H59072   4.890   1.484   9.649  0.0894 -0.1652 -2.4207
  438MOL0     H59073   4.827   1.491   9.860  1.5487 -0.5968 -0.5160
  438MOL0     H59074   4.692   1.416   9.777 -1.8162 -2.9421 -1.3418
  438MOL0     H59075   4.769   1.175   9.877 -3.4602 -0.4099  0.8371
  438MOL0     H59076   4.865   1.292   9.985  0.7394  1.0098 -0.9405
  438MOL0     H59077   4.572   1.339   9.935  2.3774  3.5230  0.2005
  438MOL0     H59078   4.613   1.188  10.022  0.9723 -0.0810  0.9467
  438MOL0     H59079   4.684   1.479  10.083  1.4990  0.2375  0.8290
  438MOL0     H59080   4.736   1.341  10.195  1.1052  2.7505  1.6631
  438MOL0     H59081   4.448   1.591  10.175 -1.2042 -0.5719 -0.8072
  438MOL0     H59082   4.218   1.611  10.282  3.0165 -1.1738 -1.8817
  438MOL0     H59083   4.149   1.451  10.341 -1.0821  0.4881  2.7986
  438MOL0     H59084   4.283   1.678  10.495 -3.2242  2.0121  1.6477
  438MOL0     H59085   4.319   1.501  10.533 -1.0343  0.2965  2.5492
  438MOL0     H59086   4.113   1.449  10.582 -0.0066  0.0535  3.1948
  438MOL0     H59087   4.042   1.602  10.543 -0.0986 -2.8973 -1.4849
  438MOL0     H59088   4.158   1.724  10.733 -2.4659  0.8989  0.4443
  438MOL0     H59089   4.260   1.578  10.757  1.8789  2.2163 -2.3087
  438MOL0     H59090   4.259   1.676  10.960 -0.5541 -0.5617 -1.2192
  438MOL0     H59091   4.367   1.551  11.265 -2.0554  0.8833  3.6062
  438MOL0     H59092   4.386   1.691  11.169 -0.4107  1.4897  0.4776
  438MOL0     H59093   4.287   1.699  11.318 -1.8418  2.9535 -2.4972
  438MOL0     H59094   3.980   1.264  11.562 -0.9889 -1.1940  1.0908
  438MOL0     H59095   3.970   1.273  11.824  1.7515  0.7758 -0.3165
  438MOL0     H59096   3.930   1.285  12.043 -0.4848 -1.6520  0.1100
  438MOL0     H59097   3.832   1.388  12.140 -0.2778  0.6069 -1.2290
  438MOL0     H59098   3.735   1.258  11.893  1.3342  1.1521 -0.4586
  438MOL0     H59099   3.719   1.182  12.053 -0.7216 -1.3813 -2.3765
  438MOL0     H59100   3.599   1.447  11.935  2.5509  1.4080  2.0585
  438MOL0     H59101   3.597   1.424  12.099 -0.3789  1.8875 -0.4742
  438MOL0     H59102   3.455   1.202  11.939  1.3896 -0.4500 -1.9463
  438MOL0     H59103   3.451   1.255  12.111 -0.4441  1.9348 -0.8482
  438MOL0     H59104   3.343   1.474  12.047  0.8001 -0.5319 -0.4355
  438MOL0     H59105   3.248   1.320  11.997  0.6930 -2.4048 -0.5120
  438MOL0     H59106   3.426   1.519  11.828 -1.1021  0.0282 -2.7484
  438MOL0     H59107   3.338   1.370  11.767 -1.4544  0.4731 -0.2477
  438MOL0     H59108   3.224   1.628  11.853 -1.5839  0.1244  0.1504
  438MOL0     H59109   3.132   1.474  11.831 -0.3608  2.1065  0.7342
  438MOL0     H59110   3.113   1.549  11.623 -0.3360 -0.1812  0.1637
  438MOL0     H59111   3.265   1.461  11.603 -1.4570 -4.2782  4.2595
  438MOL0     H59112   3.872   1.687  11.798  0.9038  1.2162 -0.9548
  438MOL0     H59113   3.887   1.671  11.570  3.6189  0.8357  0.9920
  438MOL0     H59114   3.888   1.438  11.189 -1.4449 -0.4647 -3.3785
  438MOL0     H59115   3.895   1.464  10.949  0.9836 -1.0231 -0.4883
  438MOL0     H59116   4.606   1.439   9.327  0.9854 -0.7078 -0.2481
  438MOL0     H59117   4.505   1.649   9.411  0.0071  2.3392  0.5539
  438MOL0     H59118   4.353   1.988   9.306 -4.1174  1.1079  1.0798
  438MOL0     H59119   4.198   2.158   9.293  1.4980 -3.8231  1.3749
  438MOL0     H59120   4.327   2.567   9.471  1.4793  1.3054  0.0218
  438MOL0     H59121   4.351   2.576   9.298 -1.9535 -0.6840 -1.3095
  438MOL0     H59122   4.213   2.746   9.379 -0.1836 -1.0578  3.0977
  438MOL0     H59123   4.089   2.628   9.431 -0.7899  0.4645 -0.6107
  438MOL0     H59124   4.032   2.558   9.227  1.4782 -1.9837  2.4064
  438MOL0     H59125   4.173   2.639   9.137  0.8050  2.1569  1.1309
  438MOL0     H59126   3.923   2.752   9.248 -0.4346  2.7128 -0.0694
  438MOL0     H59127   3.966   2.739   9.078 -0.3895 -0.4948  0.7824
  438MOL0     H59128   4.165   3.107   9.186 -0.7524  0.9313 -0.4710
  438MOL0     H59129   4.516   2.443   9.403  0.3805  0.2291 -0.9913
  438MOL0     H59130   4.675   2.276   9.389 -0.9513  1.7770 -0.1920
  439MOL0     O59131  10.431   9.096   1.043 -0.0070 -1.0343 -0.2211
  439MOL0     C59132  10.348   9.187   1.053 -0.3133 -0.3888  0.1593
  439MOL0     O59133  10.301   9.238   1.174 -0.6340 -0.1360  0.1578
  439MOL0     C59134  10.344   9.202   1.304  0.2210 -1.1203 -0.2054
  439MOL0     C59135  10.244   9.219   1.412 -0.1918  0.4029  0.3500
  439MOL0     C59136  10.289   9.184   1.543 -0.4596  1.1048 -0.2746
  439MOL0     C59137  10.427   9.144   1.561 -0.1966  0.5211 -0.4830
  439MOL0     O59138  10.474   9.112   1.692  0.5421  0.3521  0.1543
  439MOL0     C59139  10.489   8.968   1.710  0.7232 -0.6622  0.2615
  439MOL0     C59140  10.393   8.909   1.819  0.6192 -0.0500 -1.0149
  439MOL0     C59141  10.398   8.973   1.966 -0.0923  0.4385  0.0966
  439MOL0     C59142  10.351   8.860   2.060 -0.0262 -0.1399  0.2647
  439MOL0     C59143  10.287   8.910   2.196  0.1098 -0.7611 -0.3559
  439MOL0     C59144  10.397   8.967   2.288  0.0433  0.7424 -0.2019
  439MOL0     C59145  10.318   9.055   2.398 -0.0249  1.0587  0.8583
  439MOL0     C59146  10.402   9.110   2.507 -0.3105 -0.1106 -0.4276
  439MOL0     N59147  10.323   9.184   2.603  1.1902 -0.1926  0.8064
  439MOL0     C59148  10.383   9.229   2.713  0.3954 -0.6589 -0.3969
  439MOL0     C59149  10.304   9.325   2.771 -0.7069 -0.1856  0.3027
  439MOL0     C59150  10.323   9.402   2.909 -0.3669  0.1030  1.1875
  439MOL0     C59151  10.316   9.562   2.890 -0.5736 -0.7574  0.3173
  439MOL0     C59152  10.446   9.606   2.807 -0.3547  0.6746  0.0941
  439MOL0     C59153  10.451   9.749   2.758 -0.3615  0.0071  0.2515
  439MOL0     O59154  10.571   9.776   2.684  0.5505 -0.1045  0.1391
  439MOL0     C59155  10.580   9.707   2.561  0.2536 -0.0247  0.5006
  439MOL0     C59156  10.483   9.633   2.492 -0.0696 -0.3935  0.0409
  439MOL0     C59157  10.511   9.565   2.376 -0.3198 -0.0339 -0.9087
  439MOL0     C59158  10.403   9.480   2.323  0.4668  0.4901 -0.2009
  439MOL0     C59159  10.627   9.593   2.309 -1.2197 -0.2743  0.1840
  439MOL0     C59160  10.658   9.547   2.174  0.7760 -0.1056  0.3801
  439MOL0     O59161  10.549   9.543   2.090  0.3286  0.5045 -0.6743
  439MOL0     C59162  10.576   9.527   1.954 -0.5005  0.1135  0.1423
  439MOL0     C59163  10.581   9.404   1.894 -0.7036 -0.7884  0.4237
  439MOL0     C59164  10.610   9.393   1.753 -0.0171 -0.8749 -1.0313
  439MOL0     C59165  10.621   9.507   1.675  0.5156 -0.3595  0.6460
  439MOL0     O59166  10.649   9.487   1.541  0.1529 -0.0125 -0.3848
  439MOL0     C59167  10.664   9.605   1.456  0.7034 -0.3263  1.4606
  439MOL0     C59168  10.722   9.574   1.306 -1.2615  0.3120 -0.5795
  439MOL0     C59169  10.636   9.492   1.207 -1.3896  0.3256  0.8821
  439MOL0     C59170  10.699   9.497   1.066  0.7807  0.9269 -0.4690
  439MOL0     C59171  10.597   9.431   0.965  0.0864  0.6546 -0.0553
  439MOL0     C59172  10.655   9.452   0.828 -0.1254  0.5791  0.1127
  439MOL0     C59173  10.778   9.359   0.793  0.2207 -0.3793  0.0692
  439MOL0     C59174  10.829   9.375   0.649  0.8691 -0.5204 -0.4922
  439MOL0    Cl59175  10.922   9.229   0.613 -0.3869  0.5061  0.7560
  439MOL0     C59176  10.596   9.636   1.733 -0.1938 -0.2119 -0.8103
  439MOL0     C59177  10.576   9.638   1.875 -0.9797 -1.4092  0.8741
  439MOL0     O59178  10.774   9.512   2.140  0.3020  0.3666  1.0886
  439MOL0     C59179  10.730   9.662   2.379  0.6150 -0.5194 -0.1023
  439MOL0     C59180  10.705   9.714   2.508  0.4315 -1.2184  0.1392
  439MOL0     N59181  10.191   9.339   2.685 -0.0031 -0.0917  0.1236
  439MOL0     N59182  10.212   9.271   2.575 -0.0209  0.7741 -0.3984
  439MOL0     C59183  10.515   9.119   1.455  0.4548  0.2989  0.5844
  439MOL0     C59184  10.473   9.148   1.329  0.4405 -0.4585  0.3894
  439MOL0     C59185  10.284   9.243   0.934  1.3236 -0.6485 -0.6042
  439MOL0     C59186  10.349   9.240   0.810  0.0439  0.1859  0.1811
  439MOL0     C59187  10.309   9.301   0.699  0.0628 -0.1374  0.4521
  439MOL0     C59188  10.187   9.366   0.702  0.4398 -0.3849 -0.2125
  439MOL0     O59189  10.150   9.447   0.597 -0.4317 -0.3654 -0.1918
  439MOL0     C59190  10.099   9.374   0.483 -0.1281 -1.1081  0.6245
  439MOL0     C59191  10.024   9.466   0.381  0.1799 -0.3928 -0.3952
  439MOL0     C59192  10.086   9.609   0.377 -0.0753 -0.5396 -0.0156
  439MOL0     C59193   9.987   9.723   0.343 -0.4453 -0.0367  0.1013
  439MOL0     C59194  10.056   9.852   0.320 -0.1869  1.0411  0.0736
  439MOL0     C59195  10.120   9.950   0.301 -0.7914  0.4457  0.2831
  439MOL0     C59196  10.114   9.378   0.819 -0.5815  1.4869 -0.5515
  439MOL0     C59197  10.165   9.311   0.933  0.1287  0.5867 -0.0998
  439MOL0     H59198  10.141   9.250   1.393 -0.4202 -0.7806 -0.4822
  439MOL0     H59199  10.217   9.204   1.621 -1.6930 -1.6652 -0.5872
  439MOL0     H59200  10.483   8.906   1.620  2.0562  0.0185 -0.3268
  439MOL0     H59201  10.592   8.955   1.745  1.0632 -1.3579 -0.9535
  439MOL0     H59202  10.292   8.923   1.780  1.4139  0.3942 -3.0594
  439MOL0     H59203  10.429   8.806   1.811 -2.5013 -1.0983 -3.7897
  439MOL0     H59204  10.501   9.002   1.991 -0.0936 -1.1885  2.2932
  439MOL0     H59205  10.338   9.064   1.975  0.6457  1.1109 -1.3099
  439MOL0     H59206  10.271   8.807   2.007  2.0751 -3.1734 -0.1700
  439MOL0     H59207  10.422   8.779   2.079  0.7322  0.3243 -0.4875
  439MOL0     H59208  10.206   8.983   2.186  0.4835 -0.1949  0.6533
  439MOL0     H59209  10.235   8.825   2.242 -0.4335  1.1037  2.7475
  439MOL0     H59210  10.456   8.890   2.338  3.0327  3.3683  0.6338
  439MOL0     H59211  10.465   9.031   2.231  0.6825 -1.1101 -1.6224
  439MOL0     H59212  10.258   9.137   2.356 -0.1880  0.8585  0.7004
  439MOL0     H59213  10.248   8.982   2.439  0.8428 -1.1088 -1.2796
  439MOL0     H59214  10.486   9.169   2.471 -0.5483 -0.0881 -0.9500
  439MOL0     H59215  10.449   9.030   2.565 -1.6123 -2.3838 -2.3590
  439MOL0     H59216  10.471   9.189   2.762  0.6283  1.5880  1.1928
  439MOL0     H59217  10.244   9.370   2.977 -0.8705  2.0934  1.6105
  439MOL0     H59218  10.427   9.377   2.934 -0.2706 -0.9335 -0.1175
  439MOL0     H59219  10.328   9.620   2.981  0.4035  0.6770 -0.6780
  439MOL0     H59220  10.223   9.595   2.843  0.5671  1.4905 -0.5186
  439MOL0     H59221  10.459   9.540   2.721 -0.8684  1.5813 -0.7015
  439MOL0     H59222  10.539   9.597   2.863  0.2904  4.7147 -0.0459
  439MOL0     H59223  10.459   9.812   2.847  0.7211  0.2452 -0.0003
  439MOL0     H59224  10.371   9.781   2.691  0.4839  1.3547 -0.1679
  439MOL0     H59225  10.382   9.635   2.534 -0.3958  1.9760 -0.6880
  439MOL0     H59226  10.330   9.451   2.399  0.7679 -0.8660 -0.4153
  439MOL0     H59227  10.342   9.526   2.245 -1.8634  0.4936  1.5231
  439MOL0     H59228  10.441   9.386   2.283 -2.6960 -0.5398 -1.0330
  439MOL0     H59229  10.582   9.323   1.967 -1.3876  1.0693  2.6218
  439MOL0     H59230  10.647   9.303   1.705 -0.7265 -1.7885  0.0794
  439MOL0     H59231  10.563   9.647   1.451 -0.7073 -3.5193 -0.4605
  439MOL0     H59232  10.737   9.668   1.508 -0.6878  1.7087  1.0698
  439MOL0     H59233  10.741   9.672   1.262  1.2451 -0.2415 -0.8556
  439MOL0     H59234  10.810   9.510   1.320 -1.6576  0.0680  1.0403
  439MOL0     H59235  10.534   9.532   1.208 -1.4386  0.2317  0.3576
  439MOL0     H59236  10.622   9.386   1.232  0.0292 -0.3983 -1.1435
  439MOL0     H59237  10.709   9.605   1.055  2.7268  0.8824  0.5167
  439MOL0     H59238  10.794   9.443   1.061 -0.3151 -1.2616  0.7287
  439MOL0     H59239  10.509   9.495   0.974 -0.2696  0.2895 -0.8051
  439MOL0     H59240  10.570   9.326   0.980 -1.1179  0.9736  0.1386
  439MOL0     H59241  10.570   9.427   0.764 -0.5423  0.1326  0.8175
  439MOL0     H59242  10.684   9.555   0.808 -0.6099  0.6031 -0.5135
  439MOL0     H59243  10.741   9.257   0.804  3.8951 -1.9235 -0.5219
  439MOL0     H59244  10.849   9.377   0.874 -3.4706 -0.4179  3.6301
  439MOL0     H59245  10.889   9.466   0.645  0.3660 -0.1867 -4.0638
  439MOL0     H59246  10.750   9.374   0.573  1.0302  0.4867 -0.6901
  439MOL0     H59247  10.604   9.727   1.674  1.3808 -1.7410 -3.1330
  439MOL0     H59248  10.567   9.729   1.932  0.6194 -1.8466  1.9020
  439MOL0     H59249  10.829   9.684   2.340  0.7653  2.0167  1.4546
  439MOL0     H59250  10.788   9.767   2.554  0.2960 -0.5648 -0.3629
  439MOL0     H59251  10.617   9.085   1.468  0.0739 -1.0750  0.1778
  439MOL0     H59252  10.535   9.131   1.241 -1.2577  2.0251 -1.4087
  439MOL0     H59253  10.446   9.191   0.808 -0.9179 -1.8320  0.2223
  439MOL0     H59254  10.361   9.310   0.603  0.6531 -2.4220  0.4963
  439MOL0     H59255  10.187   9.335   0.431 -0.5110  1.1607 -1.9230
  439MOL0     H59256  10.026   9.295   0.503 -1.9570  0.9596  2.8436
  439MOL0     H59257   9.921   9.474   0.418  0.2833 -0.5615 -0.0629
  439MOL0     H59258  10.033   9.420   0.283  2.7327  1.5865 -1.1903
  439MOL0     H59259  10.157   9.600   0.295 -0.9529  0.6312 -0.9423
  439MOL0     H59260  10.140   9.639   0.466 -2.1872  2.0591  0.5147
  439MOL0     H59261   9.924   9.732   0.433 -0.5554  1.2710 -0.0769
  439MOL0     H59262   9.931   9.703   0.251  0.1391  3.4127 -1.1530
  439MOL0     H59263  10.173  10.043   0.298 -0.9401  0.5063 -2.6536
  439MOL0     H59264  10.026   9.441   0.820  0.0465  2.4401 -1.9578
  439MOL0     H59265  10.108   9.317   1.025 -3.3805  0.7792 -2.1024
  440MOL0     O59266   6.201   5.345   2.650  0.1263  0.8865 -0.1825
  440MOL0     C59267   6.155   5.315   2.541  0.2761  0.1195  0.2840
  440MOL0     O59268   6.228   5.263   2.438 -0.3994 -0.0090 -0.0710
  440MOL0     C59269   6.366   5.258   2.444 -0.4320  0.3706  0.4716
  440MOL0     C59270   6.431   5.287   2.336  0.2380  1.0415  1.0435
  440MOL0     C59271   6.570   5.258   2.321 -0.2491 -0.5121  0.2887
  440MOL0     C59272   6.645   5.215   2.429  0.5391 -1.0333  0.0612
  440MOL0     O59273   6.775   5.179   2.416 -0.6544 -0.0258  0.0448
  440MOL0     C59274   6.831   5.160   2.288 -0.4710 -0.3839  0.0484
  440MOL0     C59275   6.961   5.104   2.315  0.0732 -0.0876  0.8588
  440MOL0     C59276   7.054   5.213   2.377 -0.1995 -0.6221 -0.7291
  440MOL0     C59277   7.194   5.163   2.388  0.2230 -0.6162  0.2479
  440MOL0     C59278   7.259   5.207   2.515 -0.7481  0.0682 -0.5341
  440MOL0     C59279   7.411   5.163   2.510  0.6394 -1.1727 -0.2584
  440MOL0     C59280   7.495   5.206   2.635 -0.0666  0.0569 -0.3645
  440MOL0     C59281   7.511   5.089   2.730  0.4198 -0.3466  0.5967
  440MOL0     N59282   7.586   5.121   2.855  0.2227  0.0375  0.5005
  440MOL0     C59283   7.521   5.158   2.972  0.5240  0.3657  0.6089
  440MOL0     C59284   7.628   5.163   3.052  0.0955  0.2129 -0.3063
  440MOL0     C59285   7.624   5.177   3.204  0.1854  0.5040 -0.1283
  440MOL0     C59286   7.522   5.295   3.238  0.0059  0.6121 -0.8694
  440MOL0     C59287   7.577   5.438   3.216  0.0873  0.5925 -0.1839
  440MOL0     C59288   7.709   5.455   3.296 -0.1471  0.9386  0.0415
  440MOL0     O59289   7.762   5.584   3.306  1.2024 -0.4884  0.2515
  440MOL0     C59290   7.754   5.670   3.196 -0.2563 -0.7474 -0.1968
  440MOL0     C59291   7.696   5.794   3.213  1.0256 -0.4757  0.9101
  440MOL0     C59292   7.714   5.903   3.134 -0.1496  1.2962  0.2902
  440MOL0     C59293   7.636   6.036   3.167 -0.2824 -0.1569  0.6544
  440MOL0     C59294   7.799   5.880   3.016  0.3133 -0.6400 -0.3899
  440MOL0     C59295   7.805   5.988   2.908  0.1833 -0.7398  0.7342
  440MOL0     O59296   7.775   5.940   2.779  0.0425 -0.0268  0.8100
  440MOL0     C59297   7.842   6.008   2.679 -0.7732  0.1079  0.0465
  440MOL0     C59298   7.780   6.053   2.566  0.3661  0.4706 -0.2689
  440MOL0     C59299   7.848   6.118   2.460  1.0013 -1.2437 -0.8420
  440MOL0     C59300   7.989   6.124   2.464  0.2421  0.5728 -0.5229
  440MOL0     O59301   8.065   6.161   2.355  0.1854  0.0505 -0.4611
  440MOL0     C59302   7.995   6.199   2.237  0.1288 -0.5246  0.4091
  440MOL0     C59303   8.089   6.208   2.120  0.5495  0.3493  0.2096
  440MOL0     C59304   8.107   6.082   2.036 -0.2765 -0.7533 -0.8430
  440MOL0     C59305   8.133   5.948   2.109 -0.1874  0.0277 -0.3998
  440MOL0     C59306   8.141   5.830   2.005 -0.2232  0.3859  0.4530
  440MOL0     C59307   8.100   5.702   2.065  0.8761 -0.4326 -0.4591
  440MOL0     C59308   8.096   5.587   1.963  0.8154  0.5323  0.5694
  440MOL0     C59309   8.221   5.510   1.948  0.2158  0.1045 -0.2248
  440MOL0    Cl59310   8.231   5.408   2.101 -0.2330  0.3379  0.2097
  440MOL0     C59311   8.059   6.066   2.581  0.2107 -0.0832 -0.3427
  440MOL0     C59312   7.989   6.022   2.687  0.5085 -0.1527 -0.7378
  440MOL0     O59313   7.837   6.106   2.944 -0.2509 -0.4565  0.6903
  440MOL0     C59314   7.864   5.750   2.992  0.7915 -0.3267 -0.5008
  440MOL0     C59315   7.844   5.650   3.087 -0.1168  0.2286  0.4251
  440MOL0     N59316   7.748   5.141   2.985 -0.4144 -1.1207 -0.5079
  440MOL0     N59317   7.719   5.123   2.864 -0.4597  0.1496  0.7626
  440MOL0     C59318   6.583   5.195   2.555  0.3440 -0.0157 -0.4291
  440MOL0     C59319   6.444   5.214   2.554 -0.0457 -0.1092 -0.3057
  440MOL0     C59320   6.017   5.342   2.510  0.4855 -0.7987 -0.4699
  440MOL0     C59321   5.935   5.407   2.607  0.1696 -0.1367 -0.1031
  440MOL0     C59322   5.804   5.448   2.573  0.4089 -0.0708 -0.5482
  440MOL0     C59323   5.739   5.391   2.472  0.2932  0.4451  0.6630
  440MOL0     O59324   5.603   5.420   2.465 -0.6841  0.7419  0.1238
  440MOL0     C59325   5.543   5.415   2.335 -0.4241  0.3693 -0.1056
  440MOL0     C59326   5.591   5.530   2.249 -0.2034  0.9720 -1.0194
  440MOL0     C59327   5.552   5.666   2.319 -0.7266 -0.4478  0.5686
  440MOL0     C59328   5.604   5.789   2.238 -1.2139  0.5177 -0.3694
  440MOL0     C59329   5.522   5.822   2.133  0.4825  0.1221  1.0426
  440MOL0     C59330   5.455   5.854   2.025 -0.5543  1.0509  0.1739
  440MOL0     C59331   5.809   5.311   2.387 -0.7559  0.2887  0.7329
  440MOL0     C59332   5.959   5.300   2.396  0.2064  0.2440 -0.9363
  440MOL0     H59333   6.383   5.324   2.246 -2.5268  2.1938  2.8468
  440MOL0     H59334   6.617   5.279   2.225 -1.5165  0.3398 -0.1699
  440MOL0     H59335   6.778   5.096   2.218  1.6155 -1.1228 -0.9262
  440MOL0     H59336   6.834   5.252   2.229  2.9179 -0.0937  0.4424
  440MOL0     H59337   6.948   5.017   2.380 -0.1862 -1.5542 -1.0583
  440MOL0     H59338   6.998   5.073   2.217 -0.7417  0.2058  0.4502
  440MOL0     H59339   7.055   5.307   2.320  0.9138 -0.7237 -0.9024
  440MOL0     H59340   7.017   5.248   2.474  0.5377 -0.4059 -0.5225
  440MOL0     H59341   7.193   5.054   2.384 -1.2084 -0.5959 -2.6575
  440MOL0     H59342   7.245   5.195   2.297 -0.0629  0.8738  0.5947
  440MOL0     H59343   7.259   5.317   2.518  0.1378  0.0930  3.0568
  440MOL0     H59344   7.211   5.165   2.604  2.3128  1.6008  2.0818
  440MOL0     H59345   7.410   5.054   2.495 -1.3376 -1.3818  0.9497
  440MOL0     H59346   7.453   5.213   2.423  1.0775  1.1022  1.1758
  440MOL0     H59347   7.599   5.238   2.622  0.3228  2.4230  5.3692
  440MOL0     H59348   7.449   5.297   2.676  2.7677  2.0459 -1.2583
  440MOL0     H59349   7.567   5.011   2.678 -1.6929 -0.2282 -2.0817
  440MOL0     H59350   7.413   5.053   2.761  0.0345 -0.1301 -0.3464
  440MOL0     H59351   7.414   5.153   2.985  0.0230  1.5732 -2.2222
  440MOL0     H59352   7.587   5.077   3.231  0.3224 -0.3992 -2.9686
  440MOL0     H59353   7.718   5.197   3.256  0.9817  1.7171 -1.9635
  440MOL0     H59354   7.499   5.282   3.344 -0.9569 -0.9807 -1.2403
  440MOL0     H59355   7.430   5.280   3.180 -1.0160  2.3724  0.2105
  440MOL0     H59356   7.510   5.508   3.265 -0.7290  0.0528 -0.5117
  440MOL0     H59357   7.597   5.454   3.109 -0.7634  1.5295 -0.2143
  440MOL0     H59358   7.777   5.386   3.246 -0.2306 -1.4003  2.9000
  440MOL0     H59359   7.693   5.418   3.397 -0.8318  0.0943 -0.3577
  440MOL0     H59360   7.626   5.803   3.296  2.2225 -0.9756  2.0000
  440MOL0     H59361   7.715   6.103   3.202  2.4113 -1.3233 -2.6163
  440MOL0     H59362   7.590   6.069   3.073  0.4826  0.0832  0.3573
  440MOL0     H59363   7.551   6.016   3.233 -1.6519 -1.3792 -1.3682
  440MOL0     H59364   7.672   6.045   2.560  0.3691  1.2599 -2.0840
  440MOL0     H59365   7.790   6.132   2.370 -0.2528  1.4403  0.2833
  440MOL0     H59366   7.920   6.131   2.195 -1.4713  0.3917  1.6459
  440MOL0     H59367   7.955   6.300   2.254 -1.2888 -1.2431  1.6231
  440MOL0     H59368   8.051   6.289   2.057  0.2777 -0.4118 -0.6214
  440MOL0     H59369   8.190   6.225   2.156  1.3792 -1.4885 -1.0823
  440MOL0     H59370   8.187   6.102   1.964  1.2081  0.8207  1.1226
  440MOL0     H59371   8.012   6.077   1.982 -0.9402 -1.7232  0.3613
  440MOL0     H59372   8.221   5.961   2.172  1.6985  2.3820 -3.2452
  440MOL0     H59373   8.053   5.935   2.182  2.0428 -0.4553  2.1130
  440MOL0     H59374   8.242   5.839   1.965 -0.5918  2.4942 -0.1485
  440MOL0     H59375   8.071   5.866   1.928  2.5782  3.0802 -1.0599
  440MOL0     H59376   8.164   5.675   2.150 -3.5564  1.3371  3.8915
  440MOL0     H59377   8.003   5.720   2.111  1.3723  3.2588 -0.5854
  440MOL0     H59378   8.074   5.638   1.869 -1.3215 -1.1359  0.0825
  440MOL0     H59379   8.008   5.526   1.985 -0.5716  2.6168  1.1765
  440MOL0     H59380   8.310   5.573   1.934  2.6326 -2.8033  0.8187
  440MOL0     H59381   8.218   5.453   1.855  1.4823  1.8281 -1.4038
  440MOL0     H59382   8.168   6.056   2.583  0.1010 -1.3899  1.1529
  440MOL0     H59383   8.039   6.003   2.782  3.9214  4.4021 -1.3009
  440MOL0     H59384   7.920   5.730   2.901  0.3752 -1.0405 -0.6125
  440MOL0     H59385   7.901   5.559   3.101  1.7000  1.1202 -0.6995
  440MOL0     H59386   6.643   5.152   2.634 -0.8364  1.6475  1.4481
  440MOL0     H59387   6.392   5.203   2.648 -1.0668 -0.8673 -0.9407
  440MOL0     H59388   5.947   5.435   2.711 -3.2394 -1.3103  0.7493
  440MOL0     H59389   5.761   5.512   2.650  5.2108  0.9063  1.6860
  440MOL0     H59390   5.572   5.317   2.295  0.1024 -1.3742  4.0494
  440MOL0     H59391   5.435   5.418   2.352 -0.3209  0.4676  0.5754
  440MOL0     H59392   5.563   5.516   2.144  0.3816  1.7424 -1.2865
  440MOL0     H59393   5.700   5.525   2.247 -0.2024 -0.1390  0.4630
  440MOL0     H59394   5.594   5.676   2.419 -2.8147  3.1445  1.2528
  440MOL0     H59395   5.444   5.682   2.328 -0.3348  2.0371  1.4663
  440MOL0     H59396   5.702   5.759   2.200 -1.5838  1.0282 -1.8009
  440MOL0     H59397   5.608   5.878   2.302  0.8490 -1.6283  2.8073
  440MOL0     H59398   5.408   5.883   1.933 -3.2605  5.2103  2.5514
  440MOL0     H59399   5.750   5.254   2.316 -2.3078  0.4685  1.8332
  440MOL0     H59400   6.008   5.254   2.311 -0.5625  0.4139 -1.4864
  441MOL0     O59401   6.738   9.553   0.142  0.4361 -0.2109  0.2470
  441MOL0     C59402   6.814   9.616   0.070  0.1573 -0.2417 -0.9283
  441MOL0     O59403   6.787   9.680  -0.056  0.5462  0.4850  0.2222
  441MOL0     C59404   6.651   9.684  -0.092 -0.4479 -0.1950  0.7895
  441MOL0     C59405   6.566   9.767  -0.025  0.2033  0.5234  1.4609
  441MOL0     C59406   6.436   9.765  -0.054 -0.1796  0.4966  0.0891
  441MOL0     C59407   6.387   9.687  -0.166 -0.1825 -0.1365  0.0826
  441MOL0     O59408   6.262   9.673  -0.211  0.0569  0.6421  0.3946
  441MOL0     C59409   6.154   9.738  -0.160 -0.1368 -0.3556  0.4526
  441MOL0     C59410   6.032   9.723  -0.254 -0.9909 -0.5716  1.0963
  441MOL0     C59411   5.929   9.625  -0.218  0.7432  0.1112 -0.0502
  441MOL0     C59412   5.792   9.677  -0.270 -0.3105  0.1107 -0.0948
  441MOL0     C59413   5.686   9.562  -0.258 -0.5876 -0.0610 -0.0278
  441MOL0     C59414   5.555   9.606  -0.319  0.0821  0.4052 -0.4618
  441MOL0     C59415   5.438   9.509  -0.308  0.5196 -0.1031 -0.6399
  441MOL0     C59416   5.306   9.577  -0.342 -0.0648 -0.0991  0.0064
  441MOL0     N59417   5.282   9.587  -0.486  0.1835  0.0594  1.0222
  441MOL0     C59418   5.192   9.516  -0.562 -0.3589  0.6253 -0.0355
  441MOL0     C59419   5.203   9.573  -0.683  0.2808  0.2536  1.1499
  441MOL0     C59420   5.134   9.523  -0.804  0.3956 -0.0399  0.0266
  441MOL0     C59421   5.198   9.398  -0.865  0.3171  1.1154 -0.2540
  441MOL0     C59422   5.137   9.367  -1.014  0.0985 -0.7538 -0.6042
  441MOL0     C59423   4.989   9.328  -1.019  0.3459 -0.2225  0.2705
  441MOL0     O59424   4.967   9.202  -0.945 -0.4274  0.4132 -0.3622
  441MOL0     C59425   4.841   9.155  -0.924  0.7968 -0.7245  0.3300
  441MOL0     C59426   4.725   9.189  -0.980  0.1637  0.3536  0.3007
  441MOL0     C59427   4.605   9.123  -0.962 -0.1197 -0.1734 -0.6106
  441MOL0     C59428   4.489   9.190  -1.035  0.5719 -0.4626  0.4166
  441MOL0     C59429   4.596   9.014  -0.869  0.3026  0.6161  0.4193
  441MOL0     C59430   4.473   8.948  -0.825 -0.4880  0.5458 -0.3111
  441MOL0     O59431   4.491   8.833  -0.742  0.3489  0.2914  0.1821
  441MOL0     C59432   4.386   8.754  -0.714 -0.2333 -0.0468  0.2355
  441MOL0     C59433   4.313   8.795  -0.594  0.0110 -0.5696  0.2963
  441MOL0     C59434   4.200   8.719  -0.558 -0.3580 -0.0159  0.1365
  441MOL0     C59435   4.166   8.607  -0.635  1.2843 -0.6951 -0.3178
  441MOL0     O59436   4.056   8.539  -0.584  0.3169  0.0839 -0.5590
  441MOL0     C59437   3.930   8.594  -0.601 -0.6281  0.2094  0.1214
  441MOL0     C59438   3.844   8.519  -0.498  0.2933 -0.1707  0.3049
  441MOL0     C59439   3.898   8.554  -0.356 -0.2851 -0.1100  0.7440
  441MOL0     C59440   3.809   8.493  -0.261 -0.8121 -0.0644  0.4477
  441MOL0     C59441   3.850   8.359  -0.195  0.6709  0.0187 -0.4031
  441MOL0     C59442   3.738   8.319  -0.097 -0.8737 -0.4902  0.4884
  441MOL0     C59443   3.771   8.187  -0.027  0.4200 -0.1586  0.0825
  441MOL0     C59444   3.722   8.191   0.126 -0.1298 -0.7331  1.0394
  441MOL0    Cl59445   3.542   8.212   0.151 -0.2466 -0.4589  0.1728
  441MOL0     C59446   4.247   8.565  -0.738  0.2822  1.2769 -0.4688
  441MOL0     C59447   4.359   8.636  -0.785  0.1539 -0.9517 -0.2441
  441MOL0     O59448   4.368   8.999  -0.853  1.6369  0.0858 -0.1373
  441MOL0     C59449   4.720   8.974  -0.813  0.6166 -0.1116 -0.0744
  441MOL0     C59450   4.835   9.047  -0.830 -0.1280 -0.0768  0.1649
  441MOL0     N59451   5.297   9.671  -0.691 -0.1011  0.1564  0.4679
  441MOL0     N59452   5.341   9.673  -0.574 -0.2499  0.8664 -0.2022
  441MOL0     C59453   6.480   9.601  -0.232 -0.1827 -0.0630  0.4543
  441MOL0     C59454   6.613   9.602  -0.195 -0.3638 -0.8917  0.7076
  441MOL0     C59455   6.950   9.623   0.130 -0.8899  0.6285  0.7675
  441MOL0     C59456   6.988   9.548   0.241 -0.9516  0.3077 -0.8695
  441MOL0     C59457   7.118   9.560   0.294  0.8128 -0.3617  0.5950
  441MOL0     C59458   7.213   9.633   0.227  0.6262  0.1024  0.5070
  441MOL0     O59459   7.337   9.628   0.283 -0.6864 -0.0164 -0.2928
  441MOL0     C59460   7.447   9.696   0.202  0.4240  0.1087 -0.5954
  441MOL0     C59461   7.512   9.595   0.119  0.9195  0.5489  0.0800
  441MOL0     C59462   7.605   9.656   0.015  0.1370 -0.1242 -0.9594
  441MOL0     C59463   7.699   9.555  -0.057 -1.0739  1.2920 -0.2851
  441MOL0     C59464   7.774   9.472   0.038 -0.2532 -0.4002  0.2290
  441MOL0     C59465   7.819   9.401   0.126  0.3618  0.4781  0.2456
  441MOL0     C59466   7.184   9.677   0.100  0.6367 -0.3182  0.1507
  441MOL0     C59467   7.054   9.673   0.049  0.2894 -0.4267  0.5833
  441MOL0     H59468   6.608   9.827   0.055  0.6222  0.2755  1.4313
  441MOL0     H59469   6.364   9.836  -0.014 -2.1005 -0.7407 -1.0107
  441MOL0     H59470   6.144   9.705  -0.057  1.0586  2.9291  1.7585
  441MOL0     H59471   6.174   9.845  -0.149 -1.9478  0.1529 -0.7962
  441MOL0     H59472   5.983   9.819  -0.272 -1.0248 -1.3135 -4.5150
  441MOL0     H59473   6.076   9.687  -0.347  3.7955  0.7588  2.5416
  441MOL0     H59474   5.975   9.531  -0.252  0.9836 -0.1692  1.0176
  441MOL0     H59475   5.919   9.628  -0.109  1.7467  0.4911  0.0425
  441MOL0     H59476   5.768   9.771  -0.222 -0.0534  0.6730 -1.0379
  441MOL0     H59477   5.800   9.704  -0.376 -0.6803  0.4628 -0.0356
  441MOL0     H59478   5.720   9.479  -0.321  0.8865  0.1751  0.4204
  441MOL0     H59479   5.676   9.524  -0.155  0.6601 -1.0895 -0.2618
  441MOL0     H59480   5.518   9.696  -0.269 -1.1689 -0.3429  0.0011
  441MOL0     H59481   5.587   9.624  -0.422  2.7257 -0.5700  0.0964
  441MOL0     H59482   5.452   9.423  -0.375  0.1886  0.1820 -1.0794
  441MOL0     H59483   5.431   9.455  -0.213  2.6287 -0.1607 -0.4633
  441MOL0     H59484   5.309   9.680  -0.303 -1.0726  0.4626 -1.3011
  441MOL0     H59485   5.214   9.529  -0.307 -0.1015 -0.2665 -0.3190
  441MOL0     H59486   5.114   9.451  -0.523  2.6160 -2.5270  1.1818
  441MOL0     H59487   5.031   9.504  -0.770  0.4676 -3.3217 -1.2288
  441MOL0     H59488   5.128   9.605  -0.876  3.2659  1.4579  1.3152
  441MOL0     H59489   5.186   9.314  -0.797 -0.1479  0.2231 -1.4011
  441MOL0     H59490   5.306   9.414  -0.876  0.6018 -1.2717 -1.5505
  441MOL0     H59491   5.184   9.280  -1.060  1.1269 -0.4372 -0.1690
  441MOL0     H59492   5.163   9.449  -1.081  4.4831 -1.5398 -0.1578
  441MOL0     H59493   4.950   9.315  -1.120 -0.0870  1.4181  0.1989
  441MOL0     H59494   4.932   9.407  -0.968  0.9018 -0.9981  2.1852
  441MOL0     H59495   4.728   9.281  -1.037  4.0209  1.4962  2.0102
  441MOL0     H59496   4.524   9.283  -1.081 -1.4174  0.3261  0.4120
  441MOL0     H59497   4.439   9.131  -1.112  0.6538 -1.9308  1.4388
  441MOL0     H59498   4.410   9.222  -0.967  0.0750 -1.0040  0.1011
  441MOL0     H59499   4.354   8.877  -0.537  2.2109 -0.1453 -1.7456
  441MOL0     H59500   4.131   8.744  -0.478 -2.0996 -3.1944 -0.1700
  441MOL0     H59501   3.929   8.703  -0.594 -0.9032  0.4809 -2.9579
  441MOL0     H59502   3.901   8.565  -0.703  0.0021  3.0192 -0.9335
  441MOL0     H59503   3.738   8.544  -0.510 -0.4614 -3.7080 -2.0703
  441MOL0     H59504   3.854   8.412  -0.515  1.1480 -0.1564  0.6973
  441MOL0     H59505   3.904   8.663  -0.344  1.2773 -0.1872  0.8491
  441MOL0     H59506   3.995   8.503  -0.352  0.7191  1.6555  0.2485
  441MOL0     H59507   3.803   8.567  -0.180  3.7697 -1.1519  2.1024
  441MOL0     H59508   3.706   8.489  -0.297 -0.5150  0.1456 -0.4468
  441MOL0     H59509   3.943   8.351  -0.139  1.7723  3.7794 -1.3966
  441MOL0     H59510   3.845   8.285  -0.276 -0.6229 -1.0053  0.5609
  441MOL0     H59511   3.727   8.407  -0.032  0.0302 -0.9105  1.2496
  441MOL0     H59512   3.641   8.309  -0.145  0.2569 -6.7955 -1.3586
  441MOL0     H59513   3.877   8.158  -0.025  1.1465  2.1732  1.9343
  441MOL0     H59514   3.719   8.106  -0.078 -3.0483  0.8084  1.7756
  441MOL0     H59515   3.774   8.277   0.170 -2.3145  1.7314 -0.9238
  441MOL0     H59516   3.757   8.102   0.180  2.5880 -0.2126  0.3127
  441MOL0     H59517   4.222   8.469  -0.782  0.6673  0.2137  1.4928
  441MOL0     H59518   4.413   8.603  -0.873  0.5925  1.9157 -1.1487
  441MOL0     H59519   4.719   8.885  -0.751 -3.0166  0.0732  0.3439
  441MOL0     H59520   4.921   9.010  -0.775 -0.9027  0.1334  1.5626
  441MOL0     H59521   6.451   9.530  -0.309  2.9721 -2.5244  1.3017
  441MOL0     H59522   6.688   9.539  -0.241  0.0627 -1.6218  2.3200
  441MOL0     H59523   6.916   9.480   0.287 -0.7335 -1.9118 -3.5303
  441MOL0     H59524   7.154   9.514   0.385  2.8537  0.4066  0.2272
  441MOL0     H59525   7.410   9.787   0.152 -1.0418 -1.5689 -2.7981
  441MOL0     H59526   7.519   9.737   0.273  2.4929  1.4690 -3.2994
  441MOL0     H59527   7.425   9.544   0.074 -1.6122  4.0251  0.6291
  441MOL0     H59528   7.569   9.520   0.174 -2.4675 -1.9901  0.5120
  441MOL0     H59529   7.666   9.735   0.059 -0.1857 -1.1149  1.4036
  441MOL0     H59530   7.539   9.700  -0.061  0.5665  2.2928 -0.0223
  441MOL0     H59531   7.779   9.603  -0.114  1.7711 -0.3167  2.0622
  441MOL0     H59532   7.633   9.497  -0.121 -2.8010  1.7416  0.9985
  441MOL0     H59533   7.870   9.343   0.200  0.9217  1.2659  0.4935
  441MOL0     H59534   7.252   9.718   0.026 -0.8119  0.3987 -0.8179
  441MOL0     H59535   7.035   9.715  -0.050  0.1729  0.6291  1.0392
  442MOL0     O59536   1.151   8.234   1.711 -0.4948 -0.2112 -0.4812
  442MOL0     C59537   1.249   8.166   1.715  0.5144  0.8286 -0.5960
  442MOL0     O59538   1.332   8.122   1.610 -0.0197 -0.3044 -0.0682
  442MOL0     C59539   1.303   8.183   1.488  0.2417 -0.1462 -0.3117
  442MOL0     C59540   1.396   8.288   1.449  0.3036  0.3159 -0.4925
  442MOL0     C59541   1.390   8.341   1.324  0.0284 -0.0955 -0.2638
  442MOL0     C59542   1.304   8.294   1.226  0.6253  0.5907  0.1552
  442MOL0     O59543   1.302   8.356   1.100  1.1099  0.1172 -0.1439
  442MOL0     C59544   1.202   8.453   1.077 -0.6908 -1.1357 -0.0098
  442MOL0     C59545   1.182   8.484   0.929 -0.6154 -0.6307 -0.0170
  442MOL0     C59546   1.136   8.362   0.849 -0.7179 -0.9227 -0.9900
  442MOL0     C59547   1.066   8.415   0.726  0.7715 -0.1212 -0.6409
  442MOL0     C59548   1.029   8.311   0.624 -0.1488 -0.4096  0.4599
  442MOL0     C59549   0.986   8.371   0.494  0.7442  0.5267  0.5383
  442MOL0     C59550   0.952   8.255   0.387  0.0708 -0.7787  0.3909
  442MOL0     C59551   0.933   8.312   0.247 -1.0817  0.5307  0.1449
  442MOL0     N59552   1.064   8.334   0.187 -0.7660  0.1602  0.8393
  442MOL0     C59553   1.166   8.238   0.174  0.6052 -0.2456  0.8089
  442MOL0     C59554   1.247   8.301   0.077 -0.7365 -0.2238  0.2012
  442MOL0     C59555   1.389   8.259   0.037  0.0267  0.3904 -0.2312
  442MOL0     C59556   1.438   8.269  -0.102  1.5910 -0.0914 -0.4274
  442MOL0     C59557   1.383   8.151  -0.194  0.3736 -0.0327  0.8091
  442MOL0     C59558   1.233   8.157  -0.224 -0.1513  0.0552  0.1069
  442MOL0     O59559   1.210   8.068  -0.327  0.1614 -0.3060  0.7599
  442MOL0     C59560   1.188   7.933  -0.302 -0.0496 -0.4440 -0.5386
  442MOL0     C59561   1.178   7.860  -0.418  0.0786  0.2574 -0.7958
  442MOL0     C59562   1.152   7.722  -0.422  0.0484  0.6322  0.9064
  442MOL0     C59563   1.141   7.643  -0.559 -0.8262  0.0875 -0.3872
  442MOL0     C59564   1.141   7.648  -0.302 -1.5400  0.3076 -0.3065
  442MOL0     C59565   1.102   7.509  -0.291  0.4061  0.6934  0.5776
  442MOL0     O59566   1.133   7.455  -0.173  0.0920  0.0361  0.2408
  442MOL0     C59567   1.109   7.321  -0.146  0.2266  0.3165 -0.6503
  442MOL0     C59568   1.054   7.288  -0.024  0.3980  0.4859 -0.7700
  442MOL0     C59569   1.027   7.163   0.024  0.5532 -0.3198  0.0321
  442MOL0     C59570   1.061   7.053  -0.068  0.9473  0.0607 -0.0564
  442MOL0     O59571   1.031   6.924  -0.026  0.9447 -0.0096 -0.1827
  442MOL0     C59572   1.094   6.817  -0.101  0.6227 -0.3965  1.0558
  442MOL0     C59573   1.041   6.687  -0.051 -0.2309  0.5586 -0.6840
  442MOL0     C59574   0.896   6.658  -0.067  0.8083  0.0229 -0.4444
  442MOL0     C59575   0.850   6.525   0.003 -0.0317 -0.6059 -0.1227
  442MOL0     C59576   0.702   6.498  -0.030  0.6255 -0.4148 -0.9129
  442MOL0     C59577   0.594   6.603   0.026  0.9490  0.9423 -0.1016
  442MOL0     C59578   0.633   6.675   0.151  0.7716 -0.6467 -0.2597
  442MOL0     C59579   0.495   6.705   0.225 -0.7448 -0.1028  0.1230
  442MOL0    Cl59580   0.531   6.783   0.375  0.0582  0.3732 -0.0999
  442MOL0     C59581   1.131   7.084  -0.185  0.2285 -1.0462 -0.1494
  442MOL0     C59582   1.166   7.217  -0.221  1.0092  0.4299 -0.1453
  442MOL0     O59583   1.042   7.439  -0.376 -0.1007 -0.1243 -0.0239
  442MOL0     C59584   1.178   7.723  -0.181  0.2968 -0.1554 -0.2087
  442MOL0     C59585   1.182   7.864  -0.182 -0.9254  0.4970  0.7187
  442MOL0     N59586   1.187   8.420   0.034 -0.3646 -0.0077 -0.3756
  442MOL0     N59587   1.085   8.439   0.105 -0.5653 -0.0792 -0.4940
  442MOL0     C59588   1.211   8.189   1.265 -1.0560 -0.1989 -0.0982
  442MOL0     C59589   1.225   8.128   1.393  0.6106 -0.5418 -0.8293
  442MOL0     C59590   1.298   8.125   1.850  0.1541 -0.0692  0.4128
  442MOL0     C59591   1.205   8.104   1.952 -1.1555 -0.3126 -0.6316
  442MOL0     C59592   1.249   8.057   2.077  0.0403  1.3466 -0.7308
  442MOL0     C59593   1.388   8.014   2.097  0.6589 -0.9507 -1.4939
  442MOL0     O59594   1.417   7.960   2.222 -0.0574  0.3778  0.4814
  442MOL0     C59595   1.473   7.832   2.230 -0.8587 -0.1629 -0.2237
  442MOL0     C59596   1.391   7.729   2.156 -0.8027  0.1748 -0.0013
  442MOL0     C59597   1.498   7.648   2.068  0.5550  0.9804 -0.3593
  442MOL0     C59598   1.432   7.532   1.987 -0.2144 -0.9122  0.0881
  442MOL0     C59599   1.385   7.434   2.078  0.0741 -0.1430  0.7692
  442MOL0     C59600   1.342   7.349   2.156 -0.1394 -0.4939  0.7451
  442MOL0     C59601   1.475   8.031   1.997  0.6219  1.1127  0.7357
  442MOL0     C59602   1.428   8.081   1.878 -0.2511  0.5507 -0.8172
  442MOL0     H59603   1.476   8.314   1.517  2.2212 -1.7676 -1.7761
  442MOL0     H59604   1.434   8.437   1.300  3.3436 -0.7597  2.4347
  442MOL0     H59605   1.109   8.423   1.127 -1.1210 -0.0954 -0.1530
  442MOL0     H59606   1.237   8.546   1.122 -2.1006 -1.2327  1.3829
  442MOL0     H59607   1.115   8.570   0.919 -2.4138 -2.2112 -3.8184
  442MOL0     H59608   1.282   8.497   0.887 -0.5307  2.2074  0.8742
  442MOL0     H59609   1.221   8.303   0.813 -0.1079  1.8577 -4.7115
  442MOL0     H59610   1.074   8.298   0.913  1.3081 -1.8419  0.1942
  442MOL0     H59611   0.981   8.467   0.770  1.7018 -1.7519  3.5388
  442MOL0     H59612   1.135   8.485   0.677  2.2930  0.2000  1.7837
  442MOL0     H59613   1.118   8.248   0.615  1.0773  1.5080 -2.2580
  442MOL0     H59614   0.941   8.255   0.658 -0.2249 -0.6089 -0.0574
  442MOL0     H59615   0.906   8.442   0.517  1.3168  0.9550  1.2375
  442MOL0     H59616   1.069   8.433   0.457  3.2224  1.4387  6.4833
  442MOL0     H59617   1.039   8.189   0.387  2.7398  2.2328 -3.5026
  442MOL0     H59618   0.861   8.202   0.416  0.6422 -1.9877 -0.0053
  442MOL0     H59619   0.877   8.406   0.246 -1.4484  0.3524 -2.9262
  442MOL0     H59620   0.868   8.249   0.186  0.5248 -1.9922  0.8690
  442MOL0     H59621   1.178   8.140   0.219  1.5785 -0.4259  0.1876
  442MOL0     H59622   1.456   8.328   0.088 -0.6711  1.4925 -0.7607
  442MOL0     H59623   1.400   8.154   0.068  0.8126  0.3660 -0.5666
  442MOL0     H59624   1.548   8.275  -0.104  1.6873 -1.3063 -2.6978
  442MOL0     H59625   1.401   8.358  -0.153 -1.4102 -1.4201 -0.7353
  442MOL0     H59626   1.425   8.056  -0.159  3.4839  0.9712  0.0990
  442MOL0     H59627   1.423   8.160  -0.296 -1.5257 -0.5840 -0.0196
  442MOL0     H59628   1.204   8.255  -0.262  1.5941  0.2475 -0.8341
  442MOL0     H59629   1.166   8.119  -0.146 -1.9399  0.2691 -1.2839
  442MOL0     H59630   1.189   7.917  -0.510  0.3590 -0.5631 -1.2793
  442MOL0     H59631   1.132   7.712  -0.644 -0.7903 -1.4689 -1.6917
  442MOL0     H59632   1.235   7.587  -0.562 -0.9096 -0.1952  1.4557
  442MOL0     H59633   1.055   7.576  -0.559  0.1229 -1.1742 -1.2360
  442MOL0     H59634   1.011   7.375   0.025 -0.2653  0.1985 -0.8268
  442MOL0     H59635   0.974   7.161   0.119  0.3806  2.3927  0.0663
  442MOL0     H59636   1.063   6.825  -0.206  2.0715 -1.7948  0.4771
  442MOL0     H59637   1.202   6.813  -0.085  0.2933 -0.8524  3.4779
  442MOL0     H59638   1.093   6.602  -0.098  1.0884  1.2809 -0.5664
  442MOL0     H59639   1.072   6.679   0.053  1.6334 -4.1251 -1.3534
  442MOL0     H59640   0.854   6.663  -0.168  0.6376  1.1753 -0.3332
  442MOL0     H59641   0.835   6.735  -0.019  0.6484 -0.3269 -0.0870
  442MOL0     H59642   0.911   6.450  -0.049  1.4571  1.0146 -0.8261
  442MOL0     H59643   0.868   6.536   0.110 -0.4165 -0.3964 -0.0801
  442MOL0     H59644   0.679   6.406   0.023 -1.5649  0.0250 -0.9986
  442MOL0     H59645   0.698   6.493  -0.139  0.7071  0.7684 -0.9830
  442MOL0     H59646   0.578   6.673  -0.057  1.3506 -2.8892 -3.7334
  442MOL0     H59647   0.503   6.546   0.045  1.7724 -0.1702  0.5969
  442MOL0     H59648   0.675   6.769   0.113 -1.6803  0.1917 -1.0759
  442MOL0     H59649   0.704   6.619   0.213 -0.9206 -4.6922 -1.6351
  442MOL0     H59650   0.449   6.613   0.264  0.9047 -1.1449 -0.2533
  442MOL0     H59651   0.424   6.761   0.164  2.4329  4.1775 -0.1204
  442MOL0     H59652   1.158   7.009  -0.258  0.3702 -2.3627  1.2078
  442MOL0     H59653   1.235   7.228  -0.304  0.3575  2.1848 -0.4982
  442MOL0     H59654   1.185   7.677  -0.083  2.6811  0.5641  0.0280
  442MOL0     H59655   1.174   7.915  -0.086 -2.3651  2.8917 -0.5597
  442MOL0     H59656   1.132   8.153   1.200 -2.0516  0.6354  0.6031
  442MOL0     H59657   1.183   8.036   1.432  0.9145 -0.1757  0.4125
  442MOL0     H59658   1.103   8.141   1.949  0.1398  4.0202  1.6222
  442MOL0     H59659   1.180   8.040   2.159 -0.5077  0.9238 -1.2641
  442MOL0     H59660   1.576   7.831   2.192 -0.2421 -0.1408  1.3809
  442MOL0     H59661   1.485   7.792   2.331  4.6187 -3.7982 -1.8530
  442MOL0     H59662   1.322   7.781   2.088 -0.2424  1.3579  0.3121
  442MOL0     H59663   1.323   7.668   2.216 -0.4799  1.1349  1.3728
  442MOL0     H59664   1.577   7.612   2.135 -0.3103  3.2094  2.0559
  442MOL0     H59665   1.541   7.719   1.998 -0.3052  1.8360 -0.0501
  442MOL0     H59666   1.501   7.472   1.928 -1.4834 -1.7779 -0.5712
  442MOL0     H59667   1.351   7.567   1.923  1.4804 -0.8590 -2.1493
  442MOL0     H59668   1.276   7.289   2.215 -0.5234 -0.5527  0.2662
  442MOL0     H59669   1.574   7.987   2.007  0.5357  0.2894 -1.4442
  442MOL0     H59670   1.500   8.085   1.797 -1.0494 -1.3663 -1.6783
  443MOL0     O59671  10.026   8.108   4.733  0.5140 -0.7593 -0.5155
  443MOL0     C59672  10.010   7.997   4.682 -0.1088 -0.6737 -0.6379
  443MOL0     O59673  10.031   7.968   4.544 -0.3552 -0.6882 -0.2834
  443MOL0     C59674  10.079   8.061   4.456  0.3532  0.2825  0.4232
  443MOL0     C59675  10.211   8.103   4.461  0.3870  0.1560 -0.7264
  443MOL0     C59676  10.262   8.188   4.361  0.8046  0.6494 -0.4996
  443MOL0     C59677  10.191   8.243   4.256  0.0206 -0.4262  0.3651
  443MOL0     O59678  10.251   8.305   4.144  0.2219  0.7789  0.3157
  443MOL0     C59679  10.171   8.406   4.075  0.5837  0.2560  0.0331
  443MOL0     C59680  10.265   8.508   4.001 -0.2665  0.2459  0.0381
  443MOL0     C59681  10.354   8.586   4.097 -0.3131  1.1602 -0.4443
  443MOL0     C59682  10.484   8.625   4.036  0.1342  0.1720 -0.2361
  443MOL0     C59683  10.466   8.743   3.933  0.7128 -0.5684 -0.6087
  443MOL0     C59684  10.605   8.773   3.883 -0.2001  0.1661  0.1020
  443MOL0     C59685  10.696   8.846   3.986  0.3694 -0.6087 -0.1898
  443MOL0     C59686  10.647   8.990   4.030 -0.2225 -0.3640 -0.0197
  443MOL0     N59687  10.764   9.049   4.089 -0.6411 -0.3710 -0.8709
  443MOL0     C59688  10.878   9.081   4.026  0.4970  0.3994 -1.0344
  443MOL0     C59689  10.969   9.117   4.115  0.0537  0.4767  0.0975
  443MOL0     C59690  11.115   9.154   4.112 -0.1064 -0.0669 -0.7492
  443MOL0     C59691  11.194   9.047   4.035 -0.4264 -0.2202 -0.1523
  443MOL0     C59692  11.188   8.904   4.098 -1.0767  0.2529  0.5360
  443MOL0     C59693  11.263   8.796   4.024  0.7517 -0.3973  0.7703
  443MOL0     O59694  11.208   8.762   3.899  0.5092 -0.1050  0.5266
  443MOL0     C59695  11.113   8.662   3.890  0.0813  0.9271 -0.2595
  443MOL0     C59696  11.051   8.600   4.004  0.3530  0.0368  0.6078
  443MOL0     C59697  10.945   8.509   3.998 -0.3678  0.4879 -0.3202
  443MOL0     C59698  10.887   8.454   4.123  0.5513 -1.1085 -0.3828
  443MOL0     C59699  10.902   8.457   3.868 -0.1574 -0.5639 -0.0094
  443MOL0     C59700  10.803   8.347   3.842 -0.2316  0.0895 -0.2929
  443MOL0     O59701  10.739   8.289   3.950  0.0030 -0.4865 -0.2948
  443MOL0     C59702  10.651   8.187   3.916  0.2258  0.1904  0.6066
  443MOL0     C59703  10.524   8.202   3.964  0.1057 -0.3875 -0.0633
  443MOL0     C59704  10.429   8.102   3.957  0.6078  0.6845  0.5301
  443MOL0     C59705  10.462   7.986   3.881  0.3236 -0.2681 -0.0154
  443MOL0     O59706  10.365   7.885   3.869 -0.7030  0.6917  0.0787
  443MOL0     C59707  10.405   7.746   3.864 -0.4119  0.7983  0.8972
  443MOL0     C59708  10.280   7.655   3.842 -0.2589 -0.3704  1.5159
  443MOL0     C59709  10.302   7.518   3.907 -1.0920 -0.0683 -0.1796
  443MOL0     C59710  10.190   7.418   3.875 -0.6512  1.1729 -0.1266
  443MOL0     C59711  10.043   7.467   3.913 -0.5094 -0.2930  0.3790
  443MOL0     C59712   9.943   7.349   3.886 -1.3942 -0.5711 -0.1683
  443MOL0     C59713   9.817   7.367   3.963  0.5003  0.1221 -0.5766
  443MOL0     C59714   9.708   7.256   3.936 -0.0936 -0.3309  0.1109
  443MOL0    Cl59715   9.597   7.257   4.070  0.3605 -0.4406  0.1156
  443MOL0     C59716  10.594   7.975   3.827  0.5173 -0.1978  0.8426
  443MOL0     C59717  10.691   8.072   3.843 -0.0347  0.0693 -0.3863
  443MOL0     O59718  10.784   8.318   3.723 -0.9721 -0.5293 -0.2872
  443MOL0     C59719  10.976   8.516   3.764 -0.6689  0.5158  0.5336
  443MOL0     C59720  11.075   8.613   3.764 -0.0732  0.3072  0.1177
  443MOL0     N59721  10.911   9.091   4.239 -0.7785 -0.4981  0.4771
  443MOL0     N59722  10.786   9.062   4.223 -0.0707  0.5223  0.2640
  443MOL0     C59723  10.049   8.204   4.250  0.1217  0.8167  0.4697
  443MOL0     C59724   9.997   8.115   4.353  0.7402 -0.1162  0.1192
  443MOL0     C59725   9.951   7.888   4.785  0.3318 -0.4806  1.0715
  443MOL0     C59726   9.932   7.925   4.924  0.1597 -0.2473  0.5420
  443MOL0     C59727   9.904   7.825   5.017  0.4094 -0.1851 -0.1631
  443MOL0     C59728   9.877   7.699   4.972  0.2241 -0.4513 -0.0020
  443MOL0     O59729   9.853   7.600   5.066  0.3042  0.6562 -0.2210
  443MOL0     C59730   9.752   7.500   5.041  0.0149  0.4279 -1.0790
  443MOL0     C59731   9.609   7.552   5.019  1.3113  0.5875  0.1604
  443MOL0     C59732   9.554   7.591   5.155  0.0171  0.5902 -0.1976
  443MOL0     C59733   9.406   7.636   5.139 -0.5114  0.4793 -0.0514
  443MOL0     C59734   9.329   7.516   5.126 -0.2600 -0.1007  0.5710
  443MOL0     C59735   9.265   7.418   5.098  0.2540 -0.3476 -0.1526
  443MOL0     C59736   9.874   7.672   4.832  0.6659  0.0047 -0.6157
  443MOL0     C59737   9.921   7.766   4.739 -0.0841 -0.2186 -0.1821
  443MOL0     H59738  10.270   8.058   4.540 -2.1211 -2.6069 -0.2137
  443MOL0     H59739  10.368   8.209   4.370  1.0928 -0.9252 -0.0639
  443MOL0     H59740  10.102   8.365   4.001  0.8756  2.7563 -1.7315
  443MOL0     H59741  10.114   8.475   4.138 -1.2615 -1.3619  0.2564
  443MOL0     H59742  10.313   8.446   3.926  0.3267 -0.7488  1.2032
  443MOL0     H59743  10.212   8.591   3.954  1.1522  0.8718 -0.5063
  443MOL0     H59744  10.297   8.664   4.148 -0.7750  0.1331  0.6614
  443MOL0     H59745  10.381   8.510   4.170  0.8270  1.8052 -0.1805
  443MOL0     H59746  10.549   8.652   4.119 -0.7727 -2.5220  1.4678
  443MOL0     H59747  10.520   8.533   3.989  0.4002  0.8292 -1.3476
  443MOL0     H59748  10.406   8.691   3.858  2.2636 -0.1195 -2.2122
  443MOL0     H59749  10.409   8.830   3.965 -0.6431 -0.7168 -2.4582
  443MOL0     H59750  10.641   8.672   3.860 -2.5607 -1.2396  2.1016
  443MOL0     H59751  10.594   8.827   3.788  1.0696  0.8077  0.2983
  443MOL0     H59752  10.721   8.774   4.064 -1.9174 -1.7581 -0.4304
  443MOL0     H59753  10.792   8.850   3.935 -0.0392  0.9457 -0.9025
  443MOL0     H59754  10.569   8.987   4.107  2.4808  1.2478  3.0389
  443MOL0     H59755  10.603   9.038   3.942  0.0609  0.3510  0.2155
  443MOL0     H59756  10.892   9.086   3.918  1.0320  0.7913 -0.9504
  443MOL0     H59757  11.118   9.248   4.055  4.6889 -0.7975 -2.1729
  443MOL0     H59758  11.146   9.165   4.217 -1.3684  1.1719 -0.4801
  443MOL0     H59759  11.299   9.077   4.028 -0.4147 -0.1076  0.4949
  443MOL0     H59760  11.159   9.033   3.932 -2.8575  2.4148  0.1583
  443MOL0     H59761  11.085   8.865   4.097 -1.7298  1.4672 -3.9802
  443MOL0     H59762  11.221   8.916   4.201 -2.5550  1.9134  0.8586
  443MOL0     H59763  11.278   8.703   4.080  1.0568 -1.9873 -1.7706
  443MOL0     H59764  11.363   8.838   4.009  1.7019 -2.8117 -0.3004
  443MOL0     H59765  11.088   8.624   4.103  1.7389 -0.6079  0.2686
  443MOL0     H59766  10.782   8.487   4.123  1.5736  2.5873 -0.3970
  443MOL0     H59767  10.890   8.345   4.124 -3.5944 -1.4154  1.0146
  443MOL0     H59768  10.929   8.497   4.214 -1.6274  1.8143 -0.5884
  443MOL0     H59769  10.498   8.287   4.026 -1.0225  0.5508 -1.7654
  443MOL0     H59770  10.335   8.114   4.009 -0.2026 -1.4481 -0.3124
  443MOL0     H59771  10.483   7.730   3.790 -0.6494 -0.7269  0.9508
  443MOL0     H59772  10.449   7.712   3.958 -2.0111 -0.4495  1.2474
  443MOL0     H59773  10.190   7.696   3.890 -0.4514 -0.4385  1.2178
  443MOL0     H59774  10.276   7.640   3.734  0.4518 -3.5264  1.8412
  443MOL0     H59775  10.285   7.530   4.014 -2.0014  0.5820 -0.3904
  443MOL0     H59776  10.406   7.486   3.894 -0.4523  1.6275  0.4789
  443MOL0     H59777  10.207   7.399   3.769 -0.0235  0.9084  0.0155
  443MOL0     H59778  10.217   7.324   3.924  0.3349  1.3629 -0.2897
  443MOL0     H59779  10.008   7.553   3.855 -1.6071 -0.5098  0.6966
  443MOL0     H59780  10.056   7.493   4.018  0.1309 -1.2544  0.5478
  443MOL0     H59781   9.919   7.345   3.780  1.4260 -2.4251 -0.8573
  443MOL0     H59782   9.984   7.249   3.906 -1.4099 -1.3384 -3.4481
  443MOL0     H59783   9.776   7.462   3.929 -0.8492 -0.2834 -0.1093
  443MOL0     H59784   9.841   7.371   4.069 -0.0379  0.7492 -0.4773
  443MOL0     H59785   9.759   7.163   3.907  1.1661  0.6101 -0.7777
  443MOL0     H59786   9.647   7.296   3.855 -1.2594 -2.0590  0.0793
  443MOL0     H59787  10.632   7.879   3.793  0.6821  0.2966 -0.4094
  443MOL0     H59788  10.791   8.051   3.806  1.5956  1.7744  2.6426
  443MOL0     H59789  10.947   8.490   3.662 -0.0112 -1.6982  0.8428
  443MOL0     H59790  11.122   8.645   3.671  1.0646  3.3110  1.5643
  443MOL0     H59791   9.982   8.230   4.169 -1.1683  1.4097  1.6806
  443MOL0     H59792   9.895   8.078   4.359  0.7978 -0.7538 -2.0839
  443MOL0     H59793   9.961   8.021   4.965 -0.9736 -0.7452  2.6277
  443MOL0     H59794   9.893   7.840   5.124 -1.6834 -0.1357 -0.3533
  443MOL0     H59795   9.787   7.428   4.966  1.2434 -1.2620  1.0148
  443MOL0     H59796   9.735   7.437   5.129 -0.9720  0.9166 -0.9007
  443MOL0     H59797   9.556   7.464   4.982  2.4846 -0.8130  1.6710
  443MOL0     H59798   9.596   7.619   4.933 -3.7514 -0.0249  0.1413
  443MOL0     H59799   9.611   7.678   5.190  0.7395  0.8622 -1.9595
  443MOL0     H59800   9.558   7.510   5.229  0.4036  1.3607  0.6527
  443MOL0     H59801   9.398   7.694   5.047  0.9791  1.4655  0.4008
  443MOL0     H59802   9.376   7.689   5.229  0.8170  3.1199 -1.0468
  443MOL0     H59803   9.206   7.330   5.083  2.5507 -1.7952 -1.3729
  443MOL0     H59804   9.859   7.572   4.793 -1.7058 -0.5251  1.4461
  443MOL0     H59805   9.921   7.737   4.635  0.4371  3.1332 -1.2065
  444MOL0     O59806   2.160   6.489  10.385  0.0960  0.2707  0.0376
  444MOL0     C59807   2.206   6.445  10.284 -0.7222  0.0252  0.6254
  444MOL0     O59808   2.254   6.318  10.268 -0.5708 -0.1871 -0.7410
  444MOL0     C59809   2.288   6.253  10.379  1.0299  0.0934 -0.8707
  444MOL0     C59810   2.415   6.280  10.438  0.2255 -0.2758 -0.7922
  444MOL0     C59811   2.461   6.197  10.538 -1.1337  0.2229  0.3392
  444MOL0     C59812   2.388   6.092  10.594  0.2193 -0.6885 -0.8281
  444MOL0     O59813   2.451   6.025  10.697 -0.0564 -0.2637  1.4514
  444MOL0     C59814   2.360   5.961  10.784  0.8200  1.1094 -1.5173
  444MOL0     C59815   2.438   5.900  10.899 -0.6461  0.2902  0.6732
  444MOL0     C59816   2.349   5.810  10.994 -0.4092  0.7936  0.1205
  444MOL0     C59817   2.255   5.887  11.096 -0.0429 -0.4150  0.3319
  444MOL0     C59818   2.332   5.954  11.215 -0.5002 -0.0720 -0.0783
  444MOL0     C59819   2.419   5.859  11.301 -0.9781  1.0659 -0.0211
  444MOL0     C59820   2.365   5.712  11.318  0.7597 -0.1528 -0.6397
  444MOL0     C59821   2.222   5.706  11.382  1.2488  0.2027 -1.1570
  444MOL0     N59822   2.229   5.731  11.529  0.3476 -0.0020  0.7629
  444MOL0     C59823   2.259   5.854  11.588 -0.0392  0.2081  0.2223
  444MOL0     C59824   2.230   5.818  11.714  0.0070  0.2454  0.8916
  444MOL0     C59825   2.199   5.916  11.825  0.6373  0.0932  0.3970
  444MOL0     C59826   2.086   5.876  11.935  0.0793  0.3530  0.7148
  444MOL0     C59827   2.069   5.989  12.038  0.4123  0.6005  0.6226
  444MOL0     C59828   2.185   6.038  12.116  0.0670 -0.3282 -0.6567
  444MOL0     O59829   2.194   5.954  12.233  0.2770  0.2486  0.1968
  444MOL0     C59830   2.115   5.984  12.338 -0.0637 -0.0824  0.1269
  444MOL0     C59831   2.012   6.075  12.346  0.6455 -0.0243 -0.1920
  444MOL0     C59832   1.950   6.105  12.464  0.5474  0.2604  0.7972
  444MOL0     C59833   1.842   6.212  12.459  0.1669 -0.9616  0.8495
  444MOL0     C59834   1.979   6.033  12.577 -0.6769  0.4033  0.3309
  444MOL0     C59835   1.904   6.046  12.700 -1.4727 -0.3908 -0.2928
  444MOL0     O59836   1.830   5.935  12.730  0.1122  0.2263 -0.2338
  444MOL0     C59837   1.758   5.924  12.851  0.5624  0.1866  0.6385
  444MOL0     C59838   1.626   5.981  12.848  0.4200 -0.2590  0.0387
  444MOL0     C59839   1.548   6.008  12.958  0.1883 -0.8121 -0.3584
  444MOL0     C59840   1.595   5.962  13.082 -0.0259 -0.3565  0.6525
  444MOL0     O59841   1.516   5.988  13.193  0.7758 -0.7881  0.7313
  444MOL0     C59842   1.553   5.944  13.319 -0.4011  0.4085  0.1929
  444MOL0     C59843   1.505   5.799  13.357 -1.2763 -0.5474 -0.9792
  444MOL0     C59844   1.360   5.762  13.327 -0.6156  0.0799 -0.0884
  444MOL0     C59845   1.340   5.712  13.182 -0.0498  0.4970  0.0280
  444MOL0     C59846   1.198   5.712  13.128  0.4142 -0.2064  0.5471
  444MOL0     C59847   1.179   5.855  13.078 -0.4981  0.4130  0.4424
  444MOL0     C59848   1.033   5.880  13.045  0.6214  0.1193 -0.1089
  444MOL0     C59849   0.993   6.036  13.061 -0.5054 -0.8814 -0.2758
  444MOL0    Cl59850   0.845   6.061  12.978  0.0864 -0.0093  0.4083
  444MOL0     C59851   1.722   5.885  13.085 -0.3763  0.0692  0.0124
  444MOL0     C59852   1.807   5.867  12.973  0.5799  0.5705  0.0590
  444MOL0     O59853   1.905   6.153  12.767  0.2813  0.0234  0.2215
  444MOL0     C59854   2.072   5.934  12.569  0.2238  0.0315 -0.1815
  444MOL0     C59855   2.141   5.914  12.447 -0.4779  0.8073  0.5408
  444MOL0     N59856   2.187   5.694  11.727 -0.7969  0.5596  0.4466
  444MOL0     N59857   2.189   5.634  11.617 -0.1114 -0.0241 -0.0424
  444MOL0     C59858   2.257   6.073  10.539  0.4198 -0.8005  0.2681
  444MOL0     C59859   2.212   6.146  10.424 -0.8990  0.5781 -0.7224
  444MOL0     C59860   2.199   6.526  10.156  0.0815  0.1393 -0.4521
  444MOL0     C59861   2.165   6.665  10.169 -0.4191  1.0832  1.2246
  444MOL0     C59862   2.166   6.742  10.057  1.6647 -0.8877 -0.7484
  444MOL0     C59863   2.208   6.692   9.932 -0.1016 -0.2741 -0.2451
  444MOL0     O59864   2.231   6.773   9.816  0.8864 -0.2496 -0.1206
  444MOL0     C59865   2.244   6.915   9.836 -0.7209  0.1404  0.0338
  444MOL0     C59866   2.301   6.949   9.701  0.0993  0.2845 -0.4139
  444MOL0     C59867   2.191   6.990   9.600  0.2295  0.2003 -0.1418
  444MOL0     C59868   2.234   6.971   9.453  0.8563 -0.9114 -0.1745
  444MOL0     C59869   2.234   6.829   9.421 -0.3999 -0.0558 -0.1166
  444MOL0     C59870   2.222   6.704   9.406 -0.2136  0.7737 -0.0183
  444MOL0     C59871   2.235   6.556   9.924  0.1258 -0.5826  0.3708
  444MOL0     C59872   2.233   6.474  10.031  0.4901  0.8319 -0.3231
  444MOL0     H59873   2.483   6.349  10.389  2.0691 -1.0712  0.5512
  444MOL0     H59874   2.557   6.214  10.584 -0.0222  0.5927 -1.9657
  444MOL0     H59875   2.296   6.039  10.825 -1.7687  0.3565 -3.8769
  444MOL0     H59876   2.299   5.882  10.738 -0.4170 -0.0978  1.8952
  444MOL0     H59877   2.508   5.830  10.852 -3.0316 -2.0209  0.3141
  444MOL0     H59878   2.493   5.971  10.961  0.8407 -0.9350  0.8013
  444MOL0     H59879   2.285   5.758  10.922 -0.6861 -1.1937  1.7315
  444MOL0     H59880   2.411   5.733  11.040 -2.1087  0.8298  2.6181
  444MOL0     H59881   2.196   5.965  11.046  2.1496  1.3719  0.3436
  444MOL0     H59882   2.193   5.806  11.135  1.8431 -2.9134 -1.5395
  444MOL0     H59883   2.379   6.044  11.176 -3.3996  1.8885  0.6283
  444MOL0     H59884   2.258   5.986  11.288  0.4848 -1.2658  1.5036
  444MOL0     H59885   2.525   5.850  11.272 -0.7460 -1.8411  1.3432
  444MOL0     H59886   2.424   5.896  11.403  0.8073  2.0698 -0.4191
  444MOL0     H59887   2.369   5.666  11.219  2.0775 -2.6944  0.4942
  444MOL0     H59888   2.427   5.647  11.380 -0.7963 -0.0948  1.0767
  444MOL0     H59889   2.193   5.602  11.362 -1.8123  1.2073 -2.6642
  444MOL0     H59890   2.145   5.776  11.345  0.4221 -0.3920 -0.6007
  444MOL0     H59891   2.265   5.951  11.540 -0.6479 -1.5893 -3.9734
  444MOL0     H59892   2.289   5.945  11.879  1.0208  2.2121 -1.2105
  444MOL0     H59893   2.160   6.007  11.779  0.0954 -1.2000 -1.8550
  444MOL0     H59894   2.103   5.780  11.984 -0.4064  1.0909  2.3908
  444MOL0     H59895   1.992   5.859  11.881 -0.1466 -0.1183  1.2487
  444MOL0     H59896   1.985   5.952  12.098  0.0653 -0.4848 -0.5135
  444MOL0     H59897   2.028   6.067  11.973 -0.7191 -1.6711 -1.5264
  444MOL0     H59898   2.158   6.143  12.133  0.9262 -0.3049  0.6779
  444MOL0     H59899   2.281   6.036  12.064 -0.6220 -3.9490 -2.0821
  444MOL0     H59900   1.988   6.135  12.259  1.0235  1.4878  0.7131
  444MOL0     H59901   1.856   6.278  12.546 -0.0634 -1.2758  1.1277
  444MOL0     H59902   1.845   6.265  12.363 -2.2652 -2.5259 -0.1994
  444MOL0     H59903   1.739   6.176  12.468 -0.5565  1.3845  3.5832
  444MOL0     H59904   1.597   6.031  12.756 -0.6081 -0.1970  0.3792
  444MOL0     H59905   1.457   6.067  12.954 -0.3961 -1.6694  0.0343
  444MOL0     H59906   1.655   5.956  13.355 -0.5372 -0.1483  0.7982
  444MOL0     H59907   1.504   6.019  13.381 -1.8444 -0.1658 -0.1994
  444MOL0     H59908   1.570   5.734  13.297 -0.3184  1.6357 -2.4556
  444MOL0     H59909   1.541   5.785  13.459  0.8389  0.7566 -1.4609
  444MOL0     H59910   1.294   5.845  13.353 -1.3510 -0.3279 -0.6269
  444MOL0     H59911   1.341   5.685  13.403  2.1796  0.9231  1.6188
  444MOL0     H59912   1.415   5.755  13.115  0.3868 -0.9072 -0.4388
  444MOL0     H59913   1.370   5.607  13.190 -1.7461  0.0462  1.0753
  444MOL0     H59914   1.135   5.687  13.214  0.9515 -0.6440  0.8191
  444MOL0     H59915   1.199   5.636  13.050 -3.1410 -1.4651  1.5197
  444MOL0     H59916   1.219   5.928  13.149 -2.8251  3.0856 -0.8014
  444MOL0     H59917   1.241   5.869  12.990  1.7291 -1.0139  1.6959
  444MOL0     H59918   0.979   5.819  13.118 -2.8178 -1.2388 -3.3995
  444MOL0     H59919   1.008   5.835  12.948 -0.0085 -2.2593  1.0746
  444MOL0     H59920   1.054   6.110  13.008 -2.7570 -0.5497 -2.5605
  444MOL0     H59921   0.986   6.060  13.168 -3.2237  0.7053 -0.7183
  444MOL0     H59922   1.766   5.850  13.177 -0.5924  2.5132  1.1273
  444MOL0     H59923   1.899   5.811  12.988 -1.4600 -3.9602 -2.3496
  444MOL0     H59924   2.088   5.883  12.663  0.6320 -1.7186 -1.1579
  444MOL0     H59925   2.228   5.851  12.435  0.3037  1.9086  0.1817
  444MOL0     H59926   2.180   6.010  10.583 -0.3496  0.8852  1.4298
  444MOL0     H59927   2.124   6.124  10.365 -0.3245 -0.0766 -1.3453
  444MOL0     H59928   2.125   6.693  10.266 -1.6751  1.1503  0.6975
  444MOL0     H59929   2.136   6.846  10.067  2.0240 -0.6445 -1.9937
  444MOL0     H59930   2.151   6.970   9.850 -2.3723 -2.1673 -1.2943
  444MOL0     H59931   2.313   6.922   9.920  0.0004 -1.5679 -0.3615
  444MOL0     H59932   2.358   6.873   9.647  1.2651  1.5794 -1.0904
  444MOL0     H59933   2.361   7.039   9.719  0.1155  0.1968 -0.0283
  444MOL0     H59934   2.163   7.094   9.623  0.8526  0.6092 -1.1894
  444MOL0     H59935   2.101   6.928   9.607 -1.1005  2.1729  1.3292
  444MOL0     H59936   2.337   7.006   9.446  0.9086 -1.1377 -0.5168
  444MOL0     H59937   2.171   7.032   9.388 -1.8413  1.8247  4.4406
  444MOL0     H59938   2.202   6.600   9.419  4.0390  0.0247  2.0676
  444MOL0     H59939   2.260   6.518   9.825  2.4123  1.3681  0.0814
  444MOL0     H59940   2.262   6.371  10.012  1.4410  1.3730 -1.9758
  445MOL0     O59941   0.823   5.547  10.312  0.6824  0.4925 -0.4391
  445MOL0     C59942   0.868   5.653  10.356 -0.0808 -1.0397  1.0073
  445MOL0     O59943   0.848   5.696  10.480  0.0670 -0.2011  0.7312
  445MOL0     C59944   0.772   5.615  10.560  0.2968 -0.4601  0.1117
  445MOL0     C59945   0.839   5.539  10.658 -1.4044  1.0382 -0.2239
  445MOL0     C59946   0.775   5.438  10.736  1.0511 -1.0027  0.6107
  445MOL0     C59947   0.638   5.421  10.714 -0.4704  0.2172  0.2378
  445MOL0     O59948   0.558   5.318  10.766 -0.6545  0.2512 -0.1931
  445MOL0     C59949   0.612   5.263  10.891 -0.2624 -1.0157  0.5250
  445MOL0     C59950   0.511   5.159  10.938 -0.6754 -0.6792 -0.2043
  445MOL0     C59951   0.553   5.127  11.075  0.0369 -0.2622 -0.4036
  445MOL0     C59952   0.492   4.991  11.131 -0.4336  0.3772 -0.8021
  445MOL0     C59953   0.508   4.984  11.287 -0.7942  0.1678  0.4597
  445MOL0     C59954   0.434   4.860  11.335 -0.5060 -0.7537  1.1060
  445MOL0     C59955   0.419   4.838  11.481 -0.0317  0.1816  0.3384
  445MOL0     C59956   0.377   4.697  11.507 -0.7441 -0.6869 -0.4106
  445MOL0     N59957   0.410   4.654  11.647  0.1560 -0.2252  0.5500
  445MOL0     C59958   0.318   4.610  11.743  0.4920  0.3399  0.7469
  445MOL0     C59959   0.392   4.562  11.850  0.1984 -0.8342 -0.1162
  445MOL0     C59960   0.335   4.494  11.973  0.7668  0.5174 -0.4644
  445MOL0     C59961   0.334   4.588  12.099 -0.5780 -0.3777  1.5543
  445MOL0     C59962   0.268   4.515  12.209  0.3630 -0.6198 -1.2018
  445MOL0     C59963   0.328   4.583  12.341 -0.0408 -0.1555 -0.4585
  445MOL0     O59964   0.290   4.526  12.469  0.4214  0.0854  0.8250
  445MOL0     C59965   0.176   4.572  12.541 -0.1441 -0.3143 -0.1910
  445MOL0     C59966   0.071   4.652  12.502 -0.4907  0.6464  0.9386
  445MOL0     C59967  -0.044   4.667  12.581 -0.2352 -0.0615 -0.5323
  445MOL0     C59968  -0.164   4.717  12.507 -0.7175  0.5584 -0.9353
  445MOL0     C59969  -0.050   4.628  12.713 -0.0226  0.2127 -0.3408
  445MOL0     C59970  -0.160   4.655  12.814  0.1037  0.4018  0.6180
  445MOL0     O59971  -0.228   4.765  12.783  0.4649  0.3091  0.1994
  445MOL0     C59972  -0.336   4.807  12.859  0.4231 -0.4897 -0.3603
  445MOL0     C59973  -0.337   4.832  12.998  0.0366  0.4606 -0.2506
  445MOL0     C59974  -0.444   4.887  13.061  0.6286 -0.4001  0.6329
  445MOL0     C59975  -0.562   4.925  12.998 -0.5159 -0.3143 -0.0045
  445MOL0     O59976  -0.677   4.981  13.055 -0.0970  0.3155 -0.5799
  445MOL0     C59977  -0.669   5.053  13.185 -0.7052 -0.2459 -0.5745
  445MOL0     C59978  -0.808   5.121  13.218 -1.4404  0.8029 -0.2255
  445MOL0     C59979  -0.853   5.125  13.367 -0.1904  0.0970  0.0863
  445MOL0     C59980  -0.880   4.972  13.411  0.2074  0.2436  0.3375
  445MOL0     C59981  -0.912   4.958  13.549  1.2169  0.5536 -0.0640
  445MOL0     C59982  -1.059   4.998  13.563  0.4836 -0.1060  0.0517
  445MOL0     C59983  -1.116   4.964  13.698 -0.3120 -0.5394 -0.8760
  445MOL0     C59984  -1.265   4.963  13.707 -0.3022 -0.0035  0.0534
  445MOL0    Cl59985  -1.333   5.115  13.635  0.2747 -0.4904 -0.3438
  445MOL0     C59986  -0.569   4.890  12.862 -0.8847  0.7296 -0.1048
  445MOL0     C59987  -0.455   4.832  12.794 -0.8152 -0.1026 -0.6556
  445MOL0     O59988  -0.192   4.581  12.905 -0.5674 -0.9625 -0.2209
  445MOL0     C59989   0.051   4.554  12.767 -0.1802  0.2075 -0.8448
  445MOL0     C59990   0.157   4.532  12.680 -0.1003 -0.4213 -0.1513
  445MOL0     N59991   0.529   4.589  11.822  0.5954  0.0300  0.3518
  445MOL0     N59992   0.532   4.643  11.702 -0.2074 -0.0840  0.2848
  445MOL0     C59993   0.574   5.492  10.614 -0.0505  0.1062 -0.1749
  445MOL0     C59994   0.633   5.599  10.542  0.0617  0.1609 -1.0397
  445MOL0     C59995   0.945   5.744  10.255 -0.7284  0.6745 -0.6125
  445MOL0     C59996   0.970   5.879  10.280 -0.2445 -0.3977  0.0646
  445MOL0     C59997   1.050   5.960  10.203 -0.1378 -0.0507  0.0831
  445MOL0     C59998   1.083   5.923  10.075 -0.1519  0.0141  0.5376
  445MOL0     O59999   1.133   5.999   9.967 -0.3275 -0.4200 -0.0137
  445MOL0     C60000   1.189   6.127   9.989 -0.3330 -0.6340 -0.0892
  445MOL0     C60001   1.334   6.163   9.951  0.4387 -1.5076 -0.8663
  445MOL0     C60002   1.385   6.131   9.807  0.1156 -0.1422  1.0494
  445MOL0     C60003   1.496   6.223   9.764 -0.6848  0.0990 -0.5558
  445MOL0     C60004   1.529   6.174   9.632 -0.1142 -0.0413 -0.8246
  445MOL0     C60005   1.545   6.158   9.511  0.2150  0.0131 -0.2235
  445MOL0     C60006   1.069   5.790  10.039 -0.2838 -0.3579  0.1891
  445MOL0     C60007   1.001   5.707  10.129  0.5846  0.5042  1.4345
  445MOL0     H60008   0.947   5.544  10.666 -1.2648 -0.2969 -1.0026
  445MOL0     H60009   0.826   5.368  10.801  1.7184  0.6962  1.9887
  445MOL0     H60010   0.707   5.209  10.886 -0.9458 -2.1222 -1.4222
  445MOL0     H60011   0.618   5.340  10.969  1.0406 -1.4899  0.9226
  445MOL0     H60012   0.412   5.202  10.950 -0.0501  0.7978 -0.0884
  445MOL0     H60013   0.500   5.078  10.866 -0.0483 -2.4541  1.6057
  445MOL0     H60014   0.660   5.109  11.065  0.8794  3.3743  0.6491
  445MOL0     H60015   0.528   5.206  11.146 -0.0377 -1.2393  0.6918
  445MOL0     H60016   0.387   4.984  11.100 -0.2058 -3.2474 -1.1903
  445MOL0     H60017   0.546   4.905  11.088 -4.1624 -1.7444 -1.7050
  445MOL0     H60018   0.612   4.965  11.317 -0.2556 -2.2124 -2.4588
  445MOL0     H60019   0.473   5.081  11.325 -4.8612 -1.3629  1.0358
  445MOL0     H60020   0.335   4.866  11.288 -1.5713 -0.9733  3.1819
  445MOL0     H60021   0.479   4.774  11.287  0.9584  0.9626 -0.7562
  445MOL0     H60022   0.509   4.874  11.532 -0.6153  0.6421  1.0719
  445MOL0     H60023   0.339   4.903  11.518 -1.4486 -2.5888  2.5478
  445MOL0     H60024   0.434   4.633  11.439 -1.4647  0.6348 -2.3076
  445MOL0     H60025   0.269   4.684  11.501 -0.7429 -2.8178  2.1094
  445MOL0     H60026   0.210   4.602  11.736  0.6128  0.0820 -1.0875
  445MOL0     H60027   0.238   4.450  11.950 -0.0515  2.8614 -1.8820
  445MOL0     H60028   0.403   4.417  12.009  1.8175  2.6567  2.5570
  445MOL0     H60029   0.297   4.690  12.081 -4.0749 -1.4634  1.8308
  445MOL0     H60030   0.442   4.600  12.110  0.3430 -3.1838 -2.1753
  445MOL0     H60031   0.280   4.406  12.204  0.4927 -0.6156 -1.0045
  445MOL0     H60032   0.159   4.521  12.209  0.4236  1.4866  0.3385
  445MOL0     H60033   0.304   4.690  12.340  3.3731  0.7112 -1.7083
  445MOL0     H60034   0.437   4.580  12.348  0.0841  2.3038 -0.4810
  445MOL0     H60035   0.075   4.691  12.401  1.1849 -2.6653 -0.4027
  445MOL0     H60036  -0.149   4.741  12.401  1.3743  2.9427 -0.1867
  445MOL0     H60037  -0.245   4.643  12.511 -2.3862  2.2855 -1.1527
  445MOL0     H60038  -0.186   4.815  12.550  3.4695  1.2811 -0.0072
  445MOL0     H60039  -0.254   4.792  13.055 -1.4553  0.1360  1.8270
  445MOL0     H60040  -0.447   4.879  13.169 -1.0666 -6.9680  0.5428
  445MOL0     H60041  -0.651   4.976  13.261 -1.4393  0.6883  0.5735
  445MOL0     H60042  -0.593   5.131  13.197  0.8043 -1.2830 -2.6102
  445MOL0     H60043  -0.804   5.217  13.166 -0.4812 -0.6085 -2.9442
  445MOL0     H60044  -0.883   5.060  13.167  2.2753 -3.5159 -1.2474
  445MOL0     H60045  -0.939   5.190  13.380  1.5172  1.9456  3.3164
  445MOL0     H60046  -0.772   5.173  13.423  0.8674 -1.7375  0.2333
  445MOL0     H60047  -0.951   4.926  13.342 -0.8007 -0.8147  1.9891
  445MOL0     H60048  -0.787   4.914  13.406  0.1145 -0.0360  1.4856
  445MOL0     H60049  -0.838   5.017  13.602  2.4434 -1.1396  0.1899
  445MOL0     H60050  -0.905   4.852  13.575 -1.9254 -0.0811 -1.3205
  445MOL0     H60051  -1.061   5.106  13.546  0.0146 -0.0151  0.6323
  445MOL0     H60052  -1.136   4.946  13.506 -1.2520  0.1586  1.9967
  445MOL0     H60053  -1.069   5.026  13.775 -1.9873 -1.3395  0.8494
  445MOL0     H60054  -1.073   4.867  13.722  0.1720  0.5006  3.0610
  445MOL0     H60055  -1.293   4.945  13.811  1.0837  0.1168  0.4741
  445MOL0     H60056  -1.308   4.884  13.645 -2.4185  1.1967 -0.0705
  445MOL0     H60057  -0.657   4.898  12.800 -1.8381  0.3867  1.1490
  445MOL0     H60058  -0.448   4.807  12.689  0.9647 -1.9728 -0.1615
  445MOL0     H60059   0.041   4.521  12.870  0.3609  1.5300 -0.3476
  445MOL0     H60060   0.244   4.475  12.711  0.6648 -0.4648 -2.2110
  445MOL0     H60061   0.467   5.477  10.601 -0.3302  2.7798 -1.7771
  445MOL0     H60062   0.574   5.636  10.459  0.3239 -1.0284 -1.7712
  445MOL0     H60063   0.932   5.911  10.377 -0.7923  0.8385 -0.5421
  445MOL0     H60064   1.057   6.068  10.220 -0.8554 -0.0031  0.1159
  445MOL0     H60065   1.130   6.192   9.923  2.2189  3.3755  1.2085
  445MOL0     H60066   1.171   6.148  10.094  1.2259 -2.0682  0.5195
  445MOL0     H60067   1.403   6.115  10.021  0.0215 -0.3181  0.4185
  445MOL0     H60068   1.353   6.271   9.953 -1.4683 -1.1156 -1.5935
  445MOL0     H60069   1.305   6.157   9.737 -0.0462  3.5051  2.3572
  445MOL0     H60070   1.424   6.029   9.807  2.4782  0.6846  1.9047
  445MOL0     H60071   1.584   6.203   9.826  0.1297 -1.2026 -2.0374
  445MOL0     H60072   1.471   6.329   9.764 -1.1496 -0.0101 -0.5920
  445MOL0     H60073   1.581   6.170   9.411  0.3947 -0.9589 -0.2892
  445MOL0     H60074   1.109   5.750   9.946 -0.5245  0.9506 -0.4923
  445MOL0     H60075   0.993   5.601  10.107  2.5132  0.9503 -2.1177
  446MOL0     O60076   6.311   3.528   6.366  0.4491  0.3833 -0.1119
  446MOL0     C60077   6.374   3.431   6.336  0.6365  0.1096  0.0498
  446MOL0     O60078   6.508   3.408   6.374  0.9183 -0.9373 -0.0114
  446MOL0     C60079   6.595   3.508   6.323 -0.1064  1.0114  1.0283
  446MOL0     C60080   6.618   3.531   6.185 -0.0880  0.4775  0.2963
  446MOL0     C60081   6.730   3.606   6.138  0.0105  0.2987  0.1830
  446MOL0     C60082   6.802   3.676   6.226 -0.5645 -0.1100  0.9474
  446MOL0     O60083   6.902   3.763   6.185  0.4384 -0.2252  0.3815
  446MOL0     C60084   7.033   3.728   6.213  0.1621  0.1782  0.7351
  446MOL0     C60085   7.113   3.832   6.157 -0.2543  1.6414  0.6285
  446MOL0     C60086   7.109   3.977   6.224 -0.8460  0.0498  0.0879
  446MOL0     C60087   7.227   4.070   6.161  0.0510  0.1107 -1.7280
  446MOL0     C60088   7.224   4.211   6.217 -0.2121  1.1388  0.7278
  446MOL0     C60089   7.283   4.313   6.117 -0.6623  0.5962 -0.9162
  446MOL0     C60090   7.428   4.372   6.132  0.0320  0.2842  0.5146
  446MOL0     C60091   7.451   4.475   6.245 -0.3227 -0.8718  0.0158
  446MOL0     N60092   7.586   4.466   6.301  1.3828  0.1516 -0.1460
  446MOL0     C60093   7.686   4.555   6.265  0.2266 -0.5370  0.6757
  446MOL0     C60094   7.805   4.495   6.322  1.6459  0.2260  0.4778
  446MOL0     C60095   7.950   4.513   6.281  0.3570 -0.4026 -0.3286
  446MOL0     C60096   8.007   4.653   6.332 -0.1804 -0.1690 -0.2647
  446MOL0     C60097   8.030   4.635   6.483  0.3014  0.4174  0.8690
  446MOL0     C60098   8.126   4.738   6.545 -0.0511  0.0244 -0.1345
  446MOL0     O60099   8.117   4.748   6.692 -0.3888  0.3292  0.6065
  446MOL0     C60100   8.205   4.840   6.749 -0.0556 -0.1798 -0.4910
  446MOL0     C60101   8.307   4.916   6.682  0.1251  0.4285  0.7460
  446MOL0     C60102   8.378   5.028   6.741  0.4412 -0.4520 -1.4301
  446MOL0     C60103   8.468   5.098   6.646  0.8072  0.2116  0.7848
  446MOL0     C60104   8.349   5.061   6.882 -0.4001  1.0625  1.0309
  446MOL0     C60105   8.445   5.151   6.955  0.2298 -0.4385 -0.3304
  446MOL0     O60106   8.567   5.168   6.903  0.4325  0.8104 -0.6762
  446MOL0     C60107   8.651   5.262   6.961 -0.8165  0.5821  0.1691
  446MOL0     C60108   8.727   5.337   6.868 -0.4044 -0.3432 -0.2227
  446MOL0     C60109   8.833   5.427   6.909  0.0936  0.3137  0.1482
  446MOL0     C60110   8.866   5.444   7.044  0.1283 -0.5321  0.7106
  446MOL0     O60111   8.972   5.523   7.085 -0.0156 -0.3584  1.0974
  446MOL0     C60112   8.994   5.645   7.016 -1.5597  0.3661  0.2073
  446MOL0     C60113   9.021   5.744   7.120  0.6098 -0.2167 -0.2427
  446MOL0     C60114   9.001   5.891   7.075  0.3885  0.1665  0.4770
  446MOL0     C60115   9.109   5.923   6.971  0.4206  0.2359 -0.4984
  446MOL0     C60116   9.073   6.059   6.904  0.0284 -0.2794 -0.0596
  446MOL0     C60117   9.072   6.172   7.006 -0.0886 -0.4897  0.0228
  446MOL0     C60118   9.133   6.302   6.962  0.0175 -0.6040  0.4069
  446MOL0     C60119   9.128   6.403   7.080  0.1618 -0.2639  0.0294
  446MOL0    Cl60120   8.958   6.433   7.142  0.4181  0.5085 -0.2133
  446MOL0     C60121   8.797   5.364   7.139 -0.1590  0.5761  0.0128
  446MOL0     C60122   8.688   5.274   7.101 -0.1170 -1.2262 -0.1543
  446MOL0     O60123   8.405   5.194   7.062  0.4832 -1.1606  0.4918
  446MOL0     C60124   8.258   4.977   6.950  0.1360  1.0813 -0.1751
  446MOL0     C60125   8.184   4.873   6.888  0.1489  0.0387  0.3485
  446MOL0     N60126   7.759   4.389   6.397 -0.0197 -1.0410 -0.9802
  446MOL0     N60127   7.634   4.372   6.385  0.4106 -0.1001 -0.6026
  446MOL0     C60128   6.773   3.668   6.368 -0.3085 -0.7716 -0.3778
  446MOL0     C60129   6.664   3.586   6.414 -0.6173 -0.0536 -0.1798
  446MOL0     C60130   6.310   3.320   6.265 -0.0968 -0.4096 -0.8487
  446MOL0     C60131   6.191   3.335   6.196 -0.5081 -0.7928  0.0425
  446MOL0     C60132   6.132   3.226   6.131 -0.2113  0.6776 -0.8501
  446MOL0     C60133   6.177   3.095   6.156 -0.4492  0.9708 -0.5701
  446MOL0     O60134   6.117   2.985   6.109  0.7700 -0.6597 -0.0532
  446MOL0     C60135   6.016   2.993   6.013 -0.2982  0.1197  0.9778
  446MOL0     C60136   5.985   2.851   5.956 -0.7446  0.1478 -0.0003
  446MOL0     C60137   5.961   2.740   6.061  1.6813  0.0630  0.7736
  446MOL0     C60138   5.911   2.612   6.003  0.2188  0.2708  0.1936
  446MOL0     C60139   5.941   2.505   6.096  0.9415 -0.3997  0.4511
  446MOL0     C60140   5.983   2.417   6.161 -0.0341 -0.5958 -0.6145
  446MOL0     C60141   6.290   3.076   6.238  0.0475  0.5625 -0.1432
  446MOL0     C60142   6.349   3.188   6.295 -0.1410  0.2191 -0.6070
  446MOL0     H60143   6.560   3.485   6.106  1.0100  4.1449 -2.9833
  446MOL0     H60144   6.756   3.615   6.033 -2.3318 -1.3367 -0.6333
  446MOL0     H60145   7.061   3.709   6.317 -1.2460  2.1547  1.5287
  446MOL0     H60146   7.056   3.638   6.155 -0.9655 -0.3446  1.0649
  446MOL0     H60147   7.214   3.790   6.158 -0.7577  0.3592  2.0843
  446MOL0     H60148   7.093   3.829   6.050  2.4770 -2.4378 -0.0017
  446MOL0     H60149   7.011   4.019   6.201 -0.5559 -0.3847 -2.0847
  446MOL0     H60150   7.138   3.961   6.329 -1.4840 -4.2435 -0.1854
  446MOL0     H60151   7.323   4.026   6.191 -0.5581  0.1882  0.4859
  446MOL0     H60152   7.219   4.059   6.053  1.6461 -3.5280 -1.6373
  446MOL0     H60153   7.117   4.231   6.221 -0.7687  0.4166 -4.2749
  446MOL0     H60154   7.272   4.200   6.315  4.1804 -1.8815 -1.4356
  446MOL0     H60155   7.293   4.271   6.016  2.9525 -0.3233 -0.2923
  446MOL0     H60156   7.218   4.402   6.120  0.2885  1.2939 -0.3764
  446MOL0     H60157   7.482   4.281   6.159  0.8868 -0.1074 -2.1589
  446MOL0     H60158   7.455   4.401   6.029 -5.0389 -2.6665 -1.9908
  446MOL0     H60159   7.386   4.448   6.328  2.0261 -2.4690  1.4417
  446MOL0     H60160   7.415   4.574   6.216 -1.6704 -0.4278  2.9325
  446MOL0     H60161   7.692   4.635   6.191 -2.1783 -0.5252  0.4182
  446MOL0     H60162   8.015   4.431   6.310 -3.2535 -2.3433  3.2025
  446MOL0     H60163   7.950   4.512   6.171  2.7321 -1.0314 -0.3789
  446MOL0     H60164   7.935   4.734   6.323 -0.3105 -0.1652  0.6803
  446MOL0     H60165   8.102   4.683   6.287  0.9484 -0.8844  1.5264
  446MOL0     H60166   8.079   4.538   6.495  1.2438  0.8912  1.0242
  446MOL0     H60167   7.936   4.642   6.538  0.8435 -2.1448  2.3055
  446MOL0     H60168   8.095   4.836   6.509 -1.2515  0.7465  2.6106
  446MOL0     H60169   8.228   4.718   6.509  0.2527 -2.7880  1.8928
  446MOL0     H60170   8.323   4.899   6.576 -1.1924 -1.9051  0.8478
  446MOL0     H60171   8.419   5.105   6.549  1.3251 -4.4757 -0.0462
  446MOL0     H60172   8.498   5.200   6.674 -1.0613  2.4174 -4.1873
  446MOL0     H60173   8.565   5.051   6.630  0.3346 -0.1676 -1.1609
  446MOL0     H60174   8.716   5.320   6.761 -1.2716  0.0922 -0.2107
  446MOL0     H60175   8.886   5.493   6.842  0.0679 -0.9303 -1.1321
  446MOL0     H60176   9.095   5.629   6.975 -1.6965  0.9304 -0.3727
  446MOL0     H60177   8.910   5.673   6.951 -0.9416 -2.5402 -2.0836
  446MOL0     H60178   8.954   5.729   7.206  0.8855  3.8345  0.9076
  446MOL0     H60179   9.124   5.730   7.154  2.6488 -0.4433 -5.5458
  446MOL0     H60180   8.993   5.965   7.155 -0.8487  0.8236 -0.2375
  446MOL0     H60181   8.899   5.897   7.035 -0.3821 -0.5021  2.1993
  446MOL0     H60182   9.209   5.950   7.006 -0.5181  4.1302 -0.3155
  446MOL0     H60183   9.103   5.842   6.898  0.8728  1.1746 -1.6133
  446MOL0     H60184   8.977   6.046   6.852 -0.3967  0.4548  0.5216
  446MOL0     H60185   9.143   6.084   6.824  2.1115  0.7626  1.9867
  446MOL0     H60186   8.968   6.191   7.034 -0.3865 -1.8437 -0.1106
  446MOL0     H60187   9.125   6.139   7.096  0.5474 -1.4494 -0.6989
  446MOL0     H60188   9.074   6.345   6.880  2.6849 -0.9729 -1.8535
  446MOL0     H60189   9.234   6.283   6.923 -0.4928  0.6717 -1.7106
  446MOL0     H60190   9.167   6.496   7.037  0.0416 -1.4966 -2.9685
  446MOL0     H60191   9.206   6.374   7.152  1.6093  2.7640 -0.1427
  446MOL0     H60192   8.822   5.364   7.245 -1.0195 -0.4439  0.2307
  446MOL0     H60193   8.651   5.211   7.181 -0.9778  0.8749  1.1896
  446MOL0     H60194   8.236   4.998   7.054  1.2573  3.9970 -0.4452
  446MOL0     H60195   8.104   4.812   6.929 -2.6663  1.1218 -3.0399
  446MOL0     H60196   6.839   3.704   6.446  1.4634 -1.2828 -1.5932
  446MOL0     H60197   6.651   3.586   6.522  0.0889  1.5041 -0.0686
  446MOL0     H60198   6.163   3.439   6.182  1.6823 -0.1430  0.1042
  446MOL0     H60199   6.043   3.238   6.070  0.5329  1.7322 -1.7740
  446MOL0     H60200   5.921   3.025   6.058 -1.7879 -0.0692 -1.7885
  446MOL0     H60201   6.051   3.055   5.930 -0.9553  0.9063  1.2789
  446MOL0     H60202   6.066   2.817   5.891 -0.3646 -0.7996  0.9280
  446MOL0     H60203   5.905   2.850   5.881 -0.6946 -0.6665 -0.0556
  446MOL0     H60204   5.876   2.761   6.127  1.2394 -1.0262  0.5638
  446MOL0     H60205   6.043   2.722   6.131 -0.3406 -2.2541  2.7682
  446MOL0     H60206   5.946   2.589   5.902 -0.6091 -0.9609  0.1667
  446MOL0     H60207   5.802   2.607   5.993  0.0233  2.8330  0.3112
  446MOL0     H60208   6.018   2.348   6.235 -3.6150 -2.9415 -0.8638
  446MOL0     H60209   6.323   2.974   6.252 -0.7731  0.1739 -0.9395
  446MOL0     H60210   6.437   3.175   6.359  0.2018 -0.2963 -1.1694
  447MOL0     O60211   6.035  10.154  11.078 -0.1018  0.7144 -0.5944
  447MOL0     C60212   6.130  10.236  11.094  0.2745 -0.2559  0.1303
  447MOL0     O60213   6.144  10.359  11.044  0.1384 -0.0490 -0.2808
  447MOL0     C60214   6.033  10.398  10.969  0.0683  0.2112  0.3237
  447MOL0     C60215   5.934  10.467  11.034  0.1228 -1.1893 -0.1706
  447MOL0     C60216   5.817  10.497  10.974  0.2217 -0.7428 -0.9556
  447MOL0     C60217   5.776  10.446  10.850 -0.1864  0.3110  0.8887
  447MOL0     O60218   5.649  10.472  10.792  0.3938 -0.1055  0.3979
  447MOL0     C60219   5.540  10.496  10.883  0.3083 -0.1754 -0.0362
  447MOL0     C60220   5.410  10.490  10.803  0.0226  1.3207 -0.6875
  447MOL0     C60221   5.359  10.340  10.797  1.1199 -0.1837  0.5239
  447MOL0     C60222   5.283  10.282  10.917 -0.1998  0.8630  0.3682
  447MOL0     C60223   5.196  10.161  10.862 -0.5472 -0.8631  0.2483
  447MOL0     C60224   5.109  10.103  10.959  0.3844  1.4200  0.1390
  447MOL0     C60225   5.184  10.010  11.059 -0.0733 -0.1559 -0.3608
  447MOL0     C60226   5.090   9.994  11.193  0.0938 -0.5523  0.5197
  447MOL0     N60227   5.006   9.866  11.191 -0.2869  0.6506  0.3899
  447MOL0     C60228   4.887   9.852  11.127 -0.3543 -0.0325  0.7371
  447MOL0     C60229   4.863   9.721  11.132 -0.2148  0.0076 -0.4896
  447MOL0     C60230   4.741   9.657  11.065 -0.3087 -0.7778  0.2725
  447MOL0     C60231   4.769   9.580  10.940 -0.8712  0.0405  0.1259
  447MOL0     C60232   4.677   9.478  10.924  0.6003 -0.3175 -0.8496
  447MOL0     C60233   4.697   9.389  10.807 -0.2209  0.3417  0.6925
  447MOL0     O60234   4.688   9.458  10.678 -0.2657  0.7852  0.2180
  447MOL0     C60235   4.571   9.499  10.636  0.2597  0.1951 -0.1008
  447MOL0     C60236   4.445   9.476  10.694  0.2752 -0.2815 -0.0103
  447MOL0     C60237   4.323   9.539  10.645  0.6219  0.5303  0.6282
  447MOL0     C60238   4.204   9.518  10.726  0.6037  0.3093  0.0151
  447MOL0     C60239   4.333   9.603  10.517  0.7103  0.4891 -0.6867
  447MOL0     C60240   4.208   9.662  10.448  0.5036  1.0517 -0.1206
  447MOL0     O60241   4.222   9.778  10.373  0.6675  0.0781 -0.9095
  447MOL0     C60242   4.136   9.873  10.414  0.8827 -0.1194  0.2799
  447MOL0     C60243   4.188   9.982  10.494 -0.6143  0.2231 -0.8104
  447MOL0     C60244   4.106  10.081  10.537 -0.3344  0.8594  0.1745
  447MOL0     C60245   3.979  10.093  10.489  0.1706  0.4270 -0.4428
  447MOL0     O60246   3.916  10.204  10.545  0.1067 -0.2560 -0.1103
  447MOL0     C60247   3.782  10.219  10.503 -0.6178  0.6169 -0.3191
  447MOL0     C60248   3.730  10.330  10.579  1.1902 -0.1664 -1.5971
  447MOL0     C60249   3.596  10.371  10.535  0.9316 -0.6711  0.4906
  447MOL0     C60250   3.490  10.344  10.641 -0.3254  0.9891  0.0042
  447MOL0     C60251   3.345  10.306  10.581  0.8287 -0.1897  0.0629
  447MOL0     C60252   3.258  10.259  10.697 -0.3638  0.9770  1.3770
  447MOL0     C60253   3.116  10.214  10.650  0.8517 -0.2223 -0.3418
  447MOL0     C60254   3.021  10.172  10.769  0.2457  0.1682  0.7105
  447MOL0    Cl60255   2.855  10.137  10.714 -0.4849 -0.0376  0.0771
  447MOL0     C60256   3.927   9.986  10.419 -0.5743 -0.1802  1.5243
  447MOL0     C60257   4.003   9.879  10.373  1.1158  0.1087  1.0311
  447MOL0     O60258   4.100   9.602  10.467 -0.1225 -0.2197 -0.2004
  447MOL0     C60259   4.460   9.616  10.460  0.0855  0.5288 -1.0885
  447MOL0     C60260   4.571   9.562  10.518 -0.4667 -0.6879  0.3456
  447MOL0     N60261   4.969   9.665  11.206  0.6418  0.9469 -0.3007
  447MOL0     N60262   5.056   9.743  11.230  0.1061 -0.0416 -0.4886
  447MOL0     C60263   5.870  10.367  10.782  0.0993  0.6445 -0.8591
  447MOL0     C60264   5.992  10.345  10.845 -0.0555  0.0159  0.2985
  447MOL0     C60265   6.219  10.199  11.202 -0.2943  0.3201  0.1564
  447MOL0     C60266   6.269  10.068  11.207  0.4222  0.0245 -0.3424
  447MOL0     C60267   6.374  10.045  11.298 -0.1095 -0.2444  0.0589
  447MOL0     C60268   6.420  10.142  11.382 -0.4560 -0.6073 -0.0304
  447MOL0     O60269   6.519  10.110  11.470 -0.1197  0.5516  0.1011
  447MOL0     C60270   6.554  10.196  11.572 -0.3284 -0.6309 -0.2613
  447MOL0     C60271   6.654  10.135  11.660 -0.5772 -0.9318 -0.2819
  447MOL0     C60272   6.788  10.112  11.583 -0.4312 -0.3408  0.5686
  447MOL0     C60273   6.886  10.045  11.677  0.0071  0.9164 -0.5573
  447MOL0     C60274   7.030  10.048  11.649 -0.2784 -0.0702  0.4943
  447MOL0     C60275   7.154  10.055  11.643 -0.1459 -0.6345 -0.2066
  447MOL0     C60276   6.368  10.273  11.370  0.1043  1.6757  0.1432
  447MOL0     C60277   6.273  10.302  11.276  0.2701  0.4844  0.1003
  447MOL0     H60278   5.970  10.508  11.128  1.3445 -0.4389 -0.9289
  447MOL0     H60279   5.765  10.571  11.035  3.0179  0.2707  0.3687
  447MOL0     H60280   5.545  10.415  10.956 -0.5433 -2.6837 -2.5883
  447MOL0     H60281   5.548  10.592  10.936  0.3453  0.2611 -0.8187
  447MOL0     H60282   5.343  10.548  10.868  0.7228  3.4344 -1.7660
  447MOL0     H60283   5.409  10.543  10.708 -2.2980  1.6468 -0.5397
  447MOL0     H60284   5.286  10.338  10.715  0.0845  1.0515  1.3683
  447MOL0     H60285   5.442  10.275  10.768  0.4020 -1.2848  0.8781
  447MOL0     H60286   5.361  10.243  10.983  0.0983  0.9531  0.0712
  447MOL0     H60287   5.227  10.369  10.954  0.8822  1.5522  0.4370
  447MOL0     H60288   5.138  10.189  10.774  2.2686  1.3275 -1.0579
  447MOL0     H60289   5.272  10.097  10.818  1.6093  1.0389  0.9906
  447MOL0     H60290   5.067  10.193  11.005 -3.6869  0.3451 -1.0566
  447MOL0     H60291   5.037  10.035  10.913  1.5244  0.3820 -0.1521
  447MOL0     H60292   5.203   9.916  11.008  4.5047  0.6274 -0.5356
  447MOL0     H60293   5.277  10.058  11.089  1.1138 -0.8341 -2.7389
  447MOL0     H60294   5.031  10.085  11.200 -0.0185 -0.2858 -2.6699
  447MOL0     H60295   5.149   9.988  11.286  0.2994  0.0383  0.4299
  447MOL0     H60296   4.822   9.918  11.071 -0.4870 -0.0213  0.9026
  447MOL0     H60297   4.693   9.594  11.140 -0.9169 -0.7420 -0.0828
  447MOL0     H60298   4.662   9.732  11.051  0.1943  0.2747  2.5553
  447MOL0     H60299   4.870   9.542  10.958 -0.1436  2.0762  0.6680
  447MOL0     H60300   4.772   9.641  10.849  1.6999 -1.3020 -0.7955
  447MOL0     H60301   4.575   9.517  10.931 -0.1481 -2.4272  2.7939
  447MOL0     H60302   4.678   9.412  11.011  1.0034  1.0202  0.1948
  447MOL0     H60303   4.624   9.308  10.815  1.5686 -1.2214  1.7427
  447MOL0     H60304   4.799   9.350  10.807 -0.6628 -1.0000  3.2048
  447MOL0     H60305   4.428   9.407  10.776  1.1429 -1.8034 -1.0426
  447MOL0     H60306   4.158   9.431  10.679 -0.1614  0.5720  0.2681
  447MOL0     H60307   4.239   9.491  10.826  3.7201  0.0211 -1.0366
  447MOL0     H60308   4.132   9.600  10.736  2.2649  1.8409 -0.1210
  447MOL0     H60309   4.290   9.980  10.531 -1.1806  3.2188  1.3040
  447MOL0     H60310   4.146  10.152  10.608  0.0983  0.2256  0.5763
  447MOL0     H60311   3.794  10.244  10.398  3.5526  1.7641  0.2179
  447MOL0     H60312   3.730  10.126  10.527 -3.6136  1.9056 -1.4463
  447MOL0     H60313   3.729  10.306  10.686 -2.4765 -0.7041 -1.6156
  447MOL0     H60314   3.800  10.415  10.577  2.6039 -1.2703 -0.8124
  447MOL0     H60315   3.577  10.332  10.435  0.0118  1.8947 -0.4149
  447MOL0     H60316   3.598  10.481  10.531 -1.0007 -0.6045  0.0861
  447MOL0     H60317   3.523  10.264  10.708 -0.6350 -0.4598 -1.5030
  447MOL0     H60318   3.489  10.425  10.714  0.8798  0.5599  0.5213
  447MOL0     H60319   3.363  10.227  10.507  1.9659  0.6804 -0.6258
  447MOL0     H60320   3.292  10.381  10.521  0.5115 -0.6473 -0.2350
  447MOL0     H60321   3.304  10.169  10.736  0.8473  0.1583 -1.7150
  447MOL0     H60322   3.253  10.334  10.777 -0.0057  0.2169  2.1271
  447MOL0     H60323   3.119  10.134  10.576  0.2195 -1.4838  0.9506
  447MOL0     H60324   3.081  10.307  10.606  2.5160 -0.1364 -1.5921
  447MOL0     H60325   2.997  10.251  10.841 -1.6210 -1.8244  2.3945
  447MOL0     H60326   3.066  10.093  10.829 -0.1096 -0.8740 -0.3551
  447MOL0     H60327   3.829   9.992  10.371 -0.7094 -0.1854  1.7992
  447MOL0     H60328   3.947   9.800  10.325  0.9843  0.8101  0.0123
  447MOL0     H60329   4.471   9.658  10.360  3.6272 -0.8864 -1.4235
  447MOL0     H60330   4.669   9.584  10.476 -0.6869  1.2466  0.7536
  447MOL0     H60331   5.854  10.319  10.687  2.6278  0.3328 -1.1835
  447MOL0     H60332   6.055  10.278  10.787  1.1104  0.5470  0.9274
  447MOL0     H60333   6.225   9.993  11.142  0.2783  0.8233 -1.1768
  447MOL0     H60334   6.428   9.951  11.297  0.7996  0.1772  2.4574
  447MOL0     H60335   6.603  10.286  11.536  1.9731 -2.7342 -2.7453
  447MOL0     H60336   6.469  10.225  11.636  0.9757  0.8846  0.8633
  447MOL0     H60337   6.610  10.049  11.710 -1.3436 -2.4164 -3.2278
  447MOL0     H60338   6.676  10.198  11.747  0.6718 -2.0092  0.2079
  447MOL0     H60339   6.833  10.204  11.545 -1.0112 -0.6582 -0.9847
  447MOL0     H60340   6.764  10.048  11.497  1.6988  1.0346 -1.1662
  447MOL0     H60341   6.846   9.944  11.671  0.6644  0.7302 -5.1675
  447MOL0     H60342   6.865  10.082  11.778  0.2001 -1.4618  0.4078
  447MOL0     H60343   7.261  10.053  11.636 -0.1774  0.1320 -1.0312
  447MOL0     H60344   6.412  10.343  11.440 -2.3982  2.7212  0.7903
  447MOL0     H60345   6.234  10.403  11.274  0.0055  0.3842  0.2400
  448MOL0     O60346  10.949   6.859   9.597 -0.1070  1.1674  0.2247
  448MOL0     C60347  10.889   6.966   9.599  0.7632 -0.9941  0.4209
  448MOL0     O60348  10.904   7.063   9.694 -0.3877 -0.1332  0.0357
  448MOL0     C60349  10.994   7.035   9.795  1.4969  0.3221 -0.5713
  448MOL0     C60350  11.085   7.134   9.820 -0.7164 -0.5379 -0.9209
  448MOL0     C60351  11.156   7.131   9.939  0.1745  0.2640  0.2256
  448MOL0     C60352  11.149   7.026  10.037  0.2226 -0.7114  0.5239
  448MOL0     O60353  11.227   7.010  10.149  0.0096  0.0888 -0.1718
  448MOL0     C60354  11.358   7.061  10.127 -0.8500 -0.9573 -0.3172
  448MOL0     C60355  11.368   7.182  10.213 -0.3833 -0.1430  0.4407
  448MOL0     C60356  11.496   7.265  10.177 -0.0504 -0.1978 -0.7084
  448MOL0     C60357  11.509   7.382  10.276  0.3505 -0.3787 -0.2758
  448MOL0     C60358  11.619   7.482  10.250 -0.4156 -0.3503  0.0339
  448MOL0     C60359  11.650   7.584  10.359 -0.2211 -0.2827 -0.4116
  448MOL0     C60360  11.539   7.689  10.358 -0.5963  1.1590 -0.1922
  448MOL0     C60361  11.577   7.805  10.447  0.4577  0.9420 -0.5818
  448MOL0     N60362  11.593   7.753  10.595 -0.0497 -0.6787 -0.7122
  448MOL0     C60363  11.476   7.738  10.675 -0.5725  0.6369  0.5495
  448MOL0     C60364  11.528   7.729  10.799  0.9490  0.2998 -0.8323
  448MOL0     C60365  11.451   7.705  10.928 -0.3212 -0.4565  0.7143
  448MOL0     C60366  11.397   7.562  10.942 -0.3782 -0.4084  0.4971
  448MOL0     C60367  11.327   7.518  11.075 -0.0183  0.7421 -0.2440
  448MOL0     C60368  11.385   7.569  11.208 -0.3329 -0.2808  0.6004
  448MOL0     O60369  11.527   7.593  11.200  0.5013  0.5146  0.2559
  448MOL0     C60370  11.612   7.487  11.200  0.0919  0.9845 -0.5118
  448MOL0     C60371  11.627   7.410  11.310  0.2621 -0.5154 -0.5408
  448MOL0     C60372  11.724   7.312  11.329  0.6605 -0.1990 -0.7051
  448MOL0     C60373  11.738   7.262  11.472 -1.0538  0.1008  0.7771
  448MOL0     C60374  11.824   7.300  11.230 -0.0393  0.9462 -0.1186
  448MOL0     C60375  11.932   7.200  11.241  0.3101  0.2575  0.5225
  448MOL0     O60376  12.017   7.194  11.136 -0.8544  0.9112 -0.5194
  448MOL0     C60377  12.066   7.060  11.118 -0.1541 -0.3916  0.2071
  448MOL0     C60378  12.195   7.025  11.157  0.6400 -0.1018 -0.3913
  448MOL0     C60379  12.241   6.889  11.146 -0.3258 -0.1552  0.6891
  448MOL0     C60380  12.170   6.788  11.092 -0.1115  0.1250  0.1680
  448MOL0     O60381  12.236   6.662  11.081  0.7330  0.6104 -0.0532
  448MOL0     C60382  12.184   6.566  10.986 -0.1953 -0.0078  0.0912
  448MOL0     C60383  12.282   6.445  10.966 -0.2697 -0.0195 -0.6571
  448MOL0     C60384  12.291   6.358  11.093  0.8957  0.3038 -0.2627
  448MOL0     C60385  12.405   6.265  11.057  0.1362  0.1368 -0.1643
  448MOL0     C60386  12.442   6.165  11.161  0.8902  0.0792 -0.2200
  448MOL0     C60387  12.343   6.046  11.174  0.1044  0.3049  0.3306
  448MOL0     C60388  12.411   5.922  11.106  0.8505  0.5386 -0.6847
  448MOL0     C60389  12.316   5.805  11.118  0.2583  0.1926 -0.1614
  448MOL0    Cl60390  12.390   5.656  11.054 -0.5374  0.1748  0.4685
  448MOL0     C60391  12.032   6.820  11.070 -1.7197 -0.1143  0.5379
  448MOL0     C60392  11.985   6.955  11.078  0.4175 -1.2810  0.1008
  448MOL0     O60393  11.925   7.112  11.329  0.3080 -0.4409  0.3304
  448MOL0     C60394  11.810   7.378  11.115  0.8454 -0.4578  0.3382
  448MOL0     C60395  11.707   7.470  11.105  0.0893  0.2308  0.7006
  448MOL0     N60396  11.665   7.754  10.797  0.7967 -0.4915 -0.4191
  448MOL0     N60397  11.704   7.771  10.677 -0.8468  0.0042  0.5739
  448MOL0     C60398  11.042   6.932  10.021  0.6339 -0.1271 -0.2116
  448MOL0     C60399  10.964   6.943   9.906 -0.2799  0.0287  0.4100
  448MOL0     C60400  10.808   7.010   9.486 -1.0108  0.6702 -0.2935
  448MOL0     C60401  10.702   7.094   9.494 -1.0431  0.3788 -0.0456
  448MOL0     C60402  10.642   7.143   9.374 -0.0259  0.1742 -0.7803
  448MOL0     C60403  10.688   7.109   9.251 -0.9315 -0.6167  0.1244
  448MOL0     O60404  10.638   7.180   9.147  0.3362 -0.5861  1.1384
  448MOL0     C60405  10.538   7.117   9.072 -0.2863 -0.3679 -0.7073
  448MOL0     C60406  10.393   7.140   9.114  0.8037  0.5338 -0.4516
  448MOL0     C60407  10.287   7.065   9.032 -0.1612  0.6581  0.0013
  448MOL0     C60408  10.145   7.076   9.089 -0.5433 -0.0213  1.0963
  448MOL0     C60409  10.099   7.218   9.116 -0.3828 -0.0407  0.5583
  448MOL0     C60410  10.066   7.338   9.144 -0.1737 -0.0348 -0.3651
  448MOL0     C60411  10.787   7.013   9.247  0.0620  0.8718  0.3535
  448MOL0     C60412  10.843   6.956   9.356 -0.4860 -0.2928 -0.8299
  448MOL0     H60413  11.102   7.209   9.742 -0.9900 -1.3011 -1.7343
  448MOL0     H60414  11.217   7.218   9.962  0.8514  0.3854 -1.8293
  448MOL0     H60415  11.435   6.985  10.144 -0.4101  0.1066  3.5436
  448MOL0     H60416  11.388   7.089  10.026  1.7637  2.7008  1.2423
  448MOL0     H60417  11.280   7.247  10.208  0.4532  0.9622 -3.0817
  448MOL0     H60418  11.379   7.138  10.312  2.3380 -0.3564  0.1190
  448MOL0     H60419  11.579   7.196  10.191 -1.6157 -2.5438 -2.2239
  448MOL0     H60420  11.478   7.314  10.080 -1.1944 -1.5725 -1.2297
  448MOL0     H60421  11.413   7.431  10.255  1.1317 -0.2949 -4.5651
  448MOL0     H60422  11.508   7.339  10.377 -2.8511  0.3184  0.1139
  448MOL0     H60423  11.709   7.420  10.245 -0.0388  0.2947 -2.0248
  448MOL0     H60424  11.599   7.536  10.157 -2.1704  2.3319  1.8264
  448MOL0     H60425  11.664   7.540  10.458  2.9351  0.4489 -0.4110
  448MOL0     H60426  11.743   7.632  10.327  0.9828 -1.8173  0.6193
  448MOL0     H60427  11.534   7.729  10.257  1.4085 -2.2528 -1.8013
  448MOL0     H60428  11.450   7.643  10.401  1.2522  0.7279  3.5616
  448MOL0     H60429  11.491   7.873  10.441 -1.7979 -1.7263 -0.3948
  448MOL0     H60430  11.678   7.836  10.419  3.7942 -3.8856  4.1807
  448MOL0     H60431  11.373   7.738  10.643 -1.1566 -4.4377  1.5633
  448MOL0     H60432  11.514   7.730  11.014 -0.6650 -1.7884  1.3801
  448MOL0     H60433  11.375   7.785  10.927 -0.4353 -0.5454 -0.7713
  448MOL0     H60434  11.476   7.489  10.921  0.1805  0.0085  1.0984
  448MOL0     H60435  11.322   7.551  10.863  1.8877  0.7758 -1.9703
  448MOL0     H60436  11.318   7.410  11.082 -1.4637  0.8639  0.0086
  448MOL0     H60437  11.224   7.553  11.062 -0.8713  0.3522  4.1279
  448MOL0     H60438  11.362   7.517  11.301  3.1605  3.3703  3.8965
  448MOL0     H60439  11.332   7.665  11.220  1.9705  1.1544 -0.0873
  448MOL0     H60440  11.565   7.437  11.396 -1.2520 -0.9322 -1.4763
  448MOL0     H60441  11.839   7.276  11.513 -1.1147  1.1689  0.5774
  448MOL0     H60442  11.668   7.304  11.543  1.3428 -0.0637  3.4138
  448MOL0     H60443  11.723   7.154  11.475  1.1156 -0.2752  0.3554
  448MOL0     H60444  12.262   7.104  11.189  0.1571  0.6821 -1.2702
  448MOL0     H60445  12.340   6.866  11.185 -0.2316  0.8417  1.0669
  448MOL0     H60446  12.086   6.537  11.024  0.4276  0.3134  2.0223
  448MOL0     H60447  12.190   6.609  10.886  0.1938 -0.1740  0.0429
  448MOL0     H60448  12.251   6.379  10.884 -1.7413  2.9024 -2.6244
  448MOL0     H60449  12.371   6.495  10.928  0.7913 -0.8810  0.6033
  448MOL0     H60450  12.201   6.305  11.127  0.6291  1.1918  0.4414
  448MOL0     H60451  12.319   6.423  11.176  1.9868  1.6412 -1.6199
  448MOL0     H60452  12.391   6.219  10.959  0.7496 -0.2922 -0.0601
  448MOL0     H60453  12.490   6.333  11.043  1.3961 -1.0590  1.2543
  448MOL0     H60454  12.442   6.217  11.257 -1.9137  3.9101 -2.0517
  448MOL0     H60455  12.545   6.129  11.148  1.3809  2.0002 -2.1447
  448MOL0     H60456  12.340   6.022  11.281 -1.6379  0.7812  0.4219
  448MOL0     H60457  12.239   6.073  11.155 -0.4587 -0.6639  1.8599
  448MOL0     H60458  12.505   5.895  11.154  0.3750  2.7388  1.7701
  448MOL0     H60459  12.423   5.940  10.999 -1.9274 -0.7624 -1.3208
  448MOL0     H60460  12.225   5.827  11.062  0.2338 -2.5382 -1.3520
  448MOL0     H60461  12.289   5.794  11.224  3.7650  1.4015  0.9717
  448MOL0     H60462  11.961   6.749  11.028  0.1967 -3.2086  2.1754
  448MOL0     H60463  11.885   6.984  11.049  1.0122  1.7297  0.7346
  448MOL0     H60464  11.871   7.360  11.027  2.1008 -0.8126  1.2539
  448MOL0     H60465  11.714   7.527  11.013  1.5963 -0.5581  0.2894
  448MOL0     H60466  11.022   6.854  10.094  1.4395  1.4243  1.7568
  448MOL0     H60467  10.893   6.862   9.896 -0.8949  0.3589  1.8274
  448MOL0     H60468  10.674   7.121   9.596 -0.0524 -1.6137  0.8072
  448MOL0     H60469  10.551   7.202   9.384 -2.3088 -3.2975  1.8367
  448MOL0     H60470  10.539   7.162   8.973 -1.6010  1.7471  0.1560
  448MOL0     H60471  10.557   7.010   9.075  3.6691  0.1934  1.6788
  448MOL0     H60472  10.370   7.246   9.108 -1.6160  0.1184  0.4353
  448MOL0     H60473  10.377   7.103   9.216 -0.8496  2.6082  0.1075
  448MOL0     H60474  10.312   6.961   9.007  1.2887  0.9433  0.1933
  448MOL0     H60475  10.291   7.120   8.937  0.2211 -1.2891 -1.1864
  448MOL0     H60476  10.149   7.021   9.184  0.5270  2.2808  2.4966
  448MOL0     H60477  10.074   7.024   9.026  1.7489 -0.6488 -1.1256
  448MOL0     H60478  10.061   7.442   9.172  1.4304  0.8057 -2.8811
  448MOL0     H60479  10.825   6.979   9.151  1.8687  0.2538  1.2413
  448MOL0     H60480  10.917   6.877   9.354  2.3512  2.1352  0.2929
  449MOL0     O60481   7.707  11.041   7.049 -0.1970 -0.2554  0.6071
  449MOL0     C60482   7.764  11.153   7.030  0.4292  0.3675  0.5919
  449MOL0     O60483   7.709  11.276   7.060  0.3161  0.1053  0.2800
  449MOL0     C60484   7.582  11.285   7.112 -0.2856  0.8475  0.5953
  449MOL0     C60485   7.573  11.365   7.225 -0.0055 -0.5936 -0.0825
  449MOL0     C60486   7.459  11.376   7.302 -0.2621  0.1573  0.4602
  449MOL0     C60487   7.340  11.321   7.253  0.2984  0.1882  0.9077
  449MOL0     O60488   7.229  11.318   7.329  0.3728 -0.7611 -0.8316
  449MOL0     C60489   7.187  11.449   7.377  0.9211  0.3604  1.0015
  449MOL0     C60490   7.028  11.457   7.394 -0.6751  0.3214  0.3247
  449MOL0     C60491   6.956  11.436   7.256 -0.7596  1.0183  0.2206
  449MOL0     C60492   6.957  11.282   7.223 -0.5998  0.6287 -0.9006
  449MOL0     C60493   6.837  11.250   7.131  0.3718 -0.0839  0.4521
  449MOL0     C60494   6.840  11.327   6.991  0.3407 -0.0845  0.2061
  449MOL0     C60495   6.971  11.307   6.910  0.6352  0.1473 -0.2579
  449MOL0     C60496   7.006  11.162   6.870 -0.2516  0.0243  0.3417
  449MOL0     N60497   7.123  11.144   6.783 -0.1831  0.4437 -0.7435
  449MOL0     C60498   7.156  11.195   6.662  0.0584  0.2137  0.6653
  449MOL0     C60499   7.282  11.149   6.630  0.2261  0.3931 -0.4100
  449MOL0     C60500   7.370  11.191   6.517  0.0005 -0.0571 -0.4332
  449MOL0     C60501   7.508  11.242   6.569  0.0690  0.1062  0.0940
  449MOL0     C60502   7.603  11.142   6.636 -0.6882 -0.5172 -0.3728
  449MOL0     C60503   7.732  11.222   6.667  0.4459  0.4331  0.6472
  449MOL0     O60504   7.805  11.221   6.548 -0.3948 -0.0590  0.0753
  449MOL0     C60505   7.885  11.108   6.512 -1.0037 -0.1125 -0.0298
  449MOL0     C60506   7.908  10.996   6.591 -0.2915 -1.0730  0.3341
  449MOL0     C60507   7.989  10.885   6.546  0.1163  0.1631  0.7019
  449MOL0     C60508   8.029  10.782   6.643  0.2130 -1.0058  1.0489
  449MOL0     C60509   8.050  10.888   6.423  0.1751 -0.0360 -0.0010
  449MOL0     C60510   8.150  10.784   6.369 -0.9371 -0.6839 -0.4832
  449MOL0     O60511   8.239  10.814   6.275  0.2578 -0.7770  1.4661
  449MOL0     C60512   8.317  10.713   6.230 -0.0570  0.5424 -0.5966
  449MOL0     C60513   8.340  10.720   6.093  0.9844  0.3493 -0.2369
  449MOL0     C60514   8.400  10.613   6.027 -0.3084 -0.6659 -0.3240
  449MOL0     C60515   8.458  10.507   6.104 -0.4068  0.0933 -1.2929
  449MOL0     O60516   8.506  10.398   6.036  0.1666 -0.2393  0.7946
  449MOL0     C60517   8.589  10.445   5.929 -0.2278  0.0895 -0.9684
  449MOL0     C60518   8.731  10.375   5.963  1.2610 -0.3027 -0.3923
  449MOL0     C60519   8.819  10.463   6.043  0.2522 -0.0862  0.0198
  449MOL0     C60520   8.849  10.425   6.186 -0.4214 -1.0861  0.3530
  449MOL0     C60521   8.955  10.521   6.249 -0.7226  0.3535 -0.6288
  449MOL0     C60522   9.102  10.488   6.218  0.3894  1.1817  0.6056
  449MOL0     C60523   9.202  10.547   6.310  0.3007 -0.3987 -0.3770
  449MOL0     C60524   9.342  10.485   6.281  0.2482 -0.9905  0.0828
  449MOL0    Cl60525   9.472  10.568   6.373  0.0796 -0.1456 -0.1339
  449MOL0     C60526   8.448  10.507   6.244  0.4382 -1.5975  0.3896
  449MOL0     C60527   8.376  10.613   6.306 -0.1922  0.0451  0.6944
  449MOL0     O60528   8.113  10.669   6.386  1.1766 -0.0841 -0.1481
  449MOL0     C60529   8.034  11.002   6.343 -0.0351  0.0912 -0.0221
  449MOL0     C60530   7.950  11.105   6.389 -0.2811 -1.2709  0.8738
  449MOL0     N60531   7.326  11.071   6.730  0.4861  0.8541 -0.7146
  449MOL0     N60532   7.231  11.067   6.825 -0.2878  0.1117  0.8080
  449MOL0     C60533   7.338  11.251   7.127 -0.0627  0.3696  1.2508
  449MOL0     C60534   7.465  11.227   7.061  0.0203 -0.4048 -0.7353
  449MOL0     C60535   7.910  11.154   6.981 -0.0020 -0.3551 -0.7995
  449MOL0     C60536   7.992  11.043   6.957  0.6467 -0.2511  0.6654
  449MOL0     C60537   8.111  11.049   6.894  0.3886  0.2171 -0.2322
  449MOL0     C60538   8.164  11.169   6.851  0.5139 -0.6923 -0.9983
  449MOL0     O60539   8.279  11.152   6.782 -0.4396  0.1134  0.7410
  449MOL0     C60540   8.332  11.265   6.705 -0.6512 -0.5171 -0.8412
  449MOL0     C60541   8.262  11.298   6.575  0.4790 -0.8423 -0.2385
  449MOL0     C60542   8.325  11.403   6.479 -0.4309 -1.5327 -0.0124
  449MOL0     C60543   8.252  11.407   6.350 -0.1372 -0.2793 -0.0961
  449MOL0     C60544   8.310  11.310   6.269  0.5469  0.5095  0.6738
  449MOL0     C60545   8.359  11.240   6.183 -0.3740 -0.3903 -0.9595
  449MOL0     C60546   8.095  11.289   6.882  0.1915 -0.0800  0.5477
  449MOL0     C60547   7.973  11.279   6.957 -0.4888 -0.3668 -0.6451
  449MOL0     H60548   7.657  11.425   7.258  0.9834 -2.6819  1.3678
  449MOL0     H60549   7.459  11.428   7.398  2.0782 -1.2311  1.3101
  449MOL0     H60550   7.227  11.478   7.474  1.5398  0.9357  0.5858
  449MOL0     H60551   7.218  11.530   7.309  1.9373  2.4644  3.7913
  449MOL0     H60552   6.993  11.378   7.461 -0.5305 -1.2135 -1.3116
  449MOL0     H60553   6.998  11.555   7.431  2.7562  1.7103 -0.1810
  449MOL0     H60554   6.853  11.470   7.261 -0.3222  2.2305  2.0074
  449MOL0     H60555   6.999  11.497   7.176  0.1534  0.1779  0.0391
  449MOL0     H60556   7.050  11.252   7.173  0.8376  0.0665  1.9376
  449MOL0     H60557   6.927  11.217   7.306  1.0619  1.4986  0.4441
  449MOL0     H60558   6.839  11.141   7.118 -2.2355 -0.1086 -0.2072
  449MOL0     H60559   6.744  11.280   7.180 -2.0314 -1.2620 -2.9674
  449MOL0     H60560   6.756  11.299   6.927  1.0880 -0.3741 -0.6725
  449MOL0     H60561   6.830  11.434   7.008 -0.6412 -0.0933 -0.2532
  449MOL0     H60562   6.956  11.360   6.816 -4.1044 -0.5213 -0.1465
  449MOL0     H60563   7.056  11.368   6.942 -1.0028  2.0048  0.7850
  449MOL0     H60564   6.921  11.119   6.816  0.0776 -1.2476  0.7947
  449MOL0     H60565   7.007  11.101   6.961  1.1826 -1.5856 -0.6994
  449MOL0     H60566   7.102  11.269   6.603  0.9471  4.1966  4.3026
  449MOL0     H60567   7.397  11.115   6.444  1.5068 -0.7695  0.8044
  449MOL0     H60568   7.323  11.281   6.476  0.3812  1.2816  1.9023
  449MOL0     H60569   7.468  11.307   6.647 -2.0851 -2.3543  1.1747
  449MOL0     H60570   7.560  11.299   6.491  0.2306 -0.0135  0.1159
  449MOL0     H60571   7.623  11.047   6.585 -1.1814 -0.0793 -1.4078
  449MOL0     H60572   7.559  11.124   6.735 -1.3571 -2.6914 -1.0124
  449MOL0     H60573   7.794  11.190   6.751 -1.1202 -0.5445  1.4718
  449MOL0     H60574   7.708  11.322   6.703  2.4843  1.4242 -0.5375
  449MOL0     H60575   7.874  10.991   6.694 -1.9034 -2.8857 -0.2425
  449MOL0     H60576   7.996  10.683   6.609 -1.2091 -0.6760  1.3949
  449MOL0     H60577   8.136  10.779   6.665  0.1885 -0.9127  1.1787
  449MOL0     H60578   7.971  10.794   6.735 -2.1561  1.4186 -0.6028
  449MOL0     H60579   8.281  10.794   6.040  3.2684  1.3637 -1.5360
  449MOL0     H60580   8.394  10.601   5.919  4.2309 -2.0248 -0.6221
  449MOL0     H60581   8.543  10.410   5.836 -0.1917 -2.3228 -0.1355
  449MOL0     H60582   8.598  10.553   5.919 -1.1249  0.1865 -0.8892
  449MOL0     H60583   8.719  10.286   6.024  0.4178 -1.0142 -1.5657
  449MOL0     H60584   8.783  10.360   5.868  2.3486 -0.4291  0.2078
  449MOL0     H60585   8.788  10.567   6.028 -1.8674 -0.4845  1.1762
  449MOL0     H60586   8.916  10.444   5.997  0.3044 -0.8241  0.4154
  449MOL0     H60587   8.757  10.427   6.245 -0.2033 -1.5614  0.7241
  449MOL0     H60588   8.878  10.320   6.200 -2.2360 -1.6314  0.3157
  449MOL0     H60589   8.950  10.516   6.358 -0.8742  0.8990 -0.6057
  449MOL0     H60590   8.922  10.621   6.218 -2.2711 -0.0807 -0.4547
  449MOL0     H60591   9.113  10.380   6.227  1.2795  1.3131  1.2846
  449MOL0     H60592   9.121  10.507   6.112  3.8072 -2.8560  0.2417
  449MOL0     H60593   9.165  10.521   6.410 -0.9604  2.4750  0.0056
  449MOL0     H60594   9.204  10.656   6.299 -0.2470 -0.3901 -0.4597
  449MOL0     H60595   9.371  10.499   6.177  1.0824 -0.1101  0.4202
  449MOL0     H60596   9.341  10.379   6.307 -1.6033 -1.0547 -0.1177
  449MOL0     H60597   8.487  10.428   6.308 -2.1433 -2.0832  1.5003
  449MOL0     H60598   8.368  10.617   6.415 -3.9342 -1.5332  0.6599
  449MOL0     H60599   8.078  11.001   6.243 -1.5625 -0.8005 -0.7174
  449MOL0     H60600   7.923  11.192   6.330  0.1274 -0.5705  1.7160
  449MOL0     H60601   7.244  11.209   7.093 -0.2772 -0.3184  2.6164
  449MOL0     H60602   7.467  11.170   6.968 -0.6283 -1.3851 -0.1703
  449MOL0     H60603   7.944  10.947   6.978 -1.6257  0.8947  0.9807
  449MOL0     H60604   8.172  10.960   6.883 -0.6350 -0.4921 -0.2931
  449MOL0     H60605   8.344  11.343   6.781 -2.1289 -0.5953 -0.4993
  449MOL0     H60606   8.432  11.242   6.668  0.5372  3.2780 -0.3853
  449MOL0     H60607   8.158  11.324   6.597 -0.1552 -3.0433 -0.3761
  449MOL0     H60608   8.254  11.204   6.519 -2.9654  0.7865 -2.8563
  449MOL0     H60609   8.431  11.382   6.459 -0.4007 -0.8844 -0.5374
  449MOL0     H60610   8.320  11.505   6.517 -2.1583 -1.2153 -0.9994
  449MOL0     H60611   8.269  11.506   6.309  2.4967  1.0683  3.6614
  449MOL0     H60612   8.145  11.390   6.367 -0.1344  0.5997  0.9519
  449MOL0     H60613   8.414  11.182   6.111  2.7565  3.1620 -1.7701
  449MOL0     H60614   8.134  11.382   6.842 -0.9136 -1.0604 -3.2537
  449MOL0     H60615   7.921  11.372   6.981  1.9276  0.5567  1.5187
  450MOL0     O60616   9.534   3.113   1.927  0.6902  0.2980 -0.2388
  450MOL0     C60617   9.645   3.122   1.976 -0.4379 -0.1541  0.1549
  450MOL0     O60618   9.662   3.193   2.087  0.6405 -0.1616 -0.5468
  450MOL0     C60619   9.563   3.273   2.143  0.6840  1.2266 -0.0547
  450MOL0     C60620   9.543   3.407   2.098 -0.6515  0.4256  0.8288
  450MOL0     C60621   9.447   3.485   2.152 -0.7628 -0.6812 -1.1505
  450MOL0     C60622   9.353   3.428   2.242 -0.5867  0.2488  0.0783
  450MOL0     O60623   9.245   3.484   2.297  0.5546  0.2569 -0.5811
  450MOL0     C60624   9.236   3.632   2.301 -0.3110  0.5178 -0.1335
  450MOL0     C60625   9.153   3.671   2.416  0.5002  0.5697 -0.6087
  450MOL0     C60626   9.201   3.801   2.479 -0.1819  0.5431 -0.2253
  450MOL0     C60627   9.106   3.829   2.599 -0.1402 -1.0267  0.0614
  450MOL0     C60628   9.150   3.959   2.668 -0.3902 -0.1997 -0.2311
  450MOL0     C60629   9.292   3.934   2.739  0.2241 -0.7224  0.5440
  450MOL0     C60630   9.301   4.019   2.860  0.2002  0.2948 -0.3450
  450MOL0     C60631   9.437   3.978   2.935  0.2531 -0.0117  0.4155
  450MOL0     N60632   9.447   4.071   3.051 -0.1398 -0.1978  0.7288
  450MOL0     C60633   9.395   4.053   3.179 -1.1263  0.5381 -1.0881
  450MOL0     C60634   9.440   4.155   3.251  0.1117 -0.4536 -0.4327
  450MOL0     C60635   9.410   4.193   3.397  0.0162  0.0867  0.5661
  450MOL0     C60636   9.508   4.267   3.482  0.8256 -0.1983 -1.4379
  450MOL0     C60637   9.471   4.275   3.630 -0.0247  0.6998  0.2742
  450MOL0     C60638   9.486   4.414   3.694  0.3780  0.2528 -1.4307
  450MOL0     O60639   9.456   4.398   3.834 -0.5247 -0.0707 -0.8298
  450MOL0     C60640   9.458   4.499   3.927 -0.3723  0.4219 -0.5617
  450MOL0     C60641   9.378   4.490   4.042  0.9258  0.4654 -0.3293
  450MOL0     C60642   9.391   4.576   4.155 -0.3807  0.2225 -0.7998
  450MOL0     C60643   9.308   4.561   4.278  0.2895 -0.7851  0.0395
  450MOL0     C60644   9.489   4.681   4.147  0.4826 -0.4735  0.9412
  450MOL0     C60645   9.519   4.789   4.241 -0.2567  0.3266  0.2722
  450MOL0     O60646   9.409   4.845   4.292  0.1234 -0.4023 -0.5362
  450MOL0     C60647   9.422   4.944   4.394  0.0859  1.1597 -0.1875
  450MOL0     C60648   9.479   4.921   4.524 -0.1567  0.1637 -0.1787
  450MOL0     C60649   9.518   5.025   4.598  0.0890  0.5864 -0.0439
  450MOL0     C60650   9.475   5.160   4.577  0.8682  0.0453 -0.6145
  450MOL0     O60651   9.515   5.269   4.650  0.3693 -0.1479  0.5987
  450MOL0     C60652   9.495   5.262   4.798  0.7944  0.4859  0.7570
  450MOL0     C60653   9.455   5.389   4.876  1.1331  0.1372 -0.2212
  450MOL0     C60654   9.314   5.431   4.829  0.1670 -1.0054 -0.3110
  450MOL0     C60655   9.218   5.488   4.934 -0.2599 -0.0109 -0.2082
  450MOL0     C60656   9.089   5.537   4.871  0.7692 -0.2241 -0.1859
  450MOL0     C60657   8.979   5.534   4.990 -0.1958 -0.1644  0.1733
  450MOL0     C60658   8.903   5.399   4.999 -0.8617 -0.4911 -0.4266
  450MOL0     C60659   8.775   5.416   5.071  0.9118  0.0966 -0.1404
  450MOL0    Cl60660   8.675   5.270   5.105  0.3444 -0.4212  0.1337
  450MOL0     C60661   9.407   5.175   4.460  0.7605  0.6080  0.3064
  450MOL0     C60662   9.374   5.068   4.370 -0.1040 -0.4068 -0.4415
  450MOL0     O60663   9.634   4.826   4.259 -0.4904 -0.1752 -0.7397
  450MOL0     C60664   9.571   4.683   4.027  0.3549 -0.4723 -0.1998
  450MOL0     C60665   9.543   4.600   3.916 -0.1324  0.0404 -0.7542
  450MOL0     N60666   9.522   4.226   3.169 -0.6110 -0.8081  0.9040
  450MOL0     N60667   9.541   4.177   3.052  0.6161 -0.7608  0.3480
  450MOL0     C60668   9.379   3.300   2.285 -0.1864  0.3482 -0.6418
  450MOL0     C60669   9.479   3.223   2.243 -1.5489 -0.8863 -0.5398
  450MOL0     C60670   9.756   3.058   1.899 -0.3298 -0.4435  0.2824
  450MOL0     C60671   9.892   3.043   1.955  0.0698 -0.4768  0.3707
  450MOL0     C60672   9.987   2.994   1.866  0.3200 -0.1677 -0.2275
  450MOL0     C60673   9.963   2.960   1.735 -0.3337  0.4994 -1.2145
  450MOL0     O60674  10.063   2.912   1.662 -0.5082 -0.0467  0.5675
  450MOL0     C60675  10.043   2.855   1.532 -0.4826  0.4485  0.8243
  450MOL0     C60676  10.161   2.766   1.499 -0.0953  0.5623  0.5422
  450MOL0     C60677  10.124   2.650   1.414  1.0235 -0.4020 -0.5068
  450MOL0     C60678  10.247   2.545   1.411  0.6555 -0.5258 -0.5524
  450MOL0     C60679  10.368   2.616   1.377 -0.7260  0.3609 -0.1903
  450MOL0     C60680  10.473   2.668   1.345 -0.0528  0.1463 -0.1080
  450MOL0     C60681   9.838   2.985   1.681  0.3703 -0.2589 -0.1068
  450MOL0     C60682   9.730   3.028   1.759  0.6112 -0.5179 -0.1601
  450MOL0     H60683   9.598   3.457   2.019  2.3821 -0.5504  2.1429
  450MOL0     H60684   9.437   3.590   2.123  2.5457  0.1480  0.2918
  450MOL0     H60685   9.336   3.678   2.298  0.6168 -1.3718  0.2339
  450MOL0     H60686   9.198   3.673   2.208  2.2693  0.3853 -1.3423
  450MOL0     H60687   9.050   3.678   2.380  0.7922 -0.4918 -1.7216
  450MOL0     H60688   9.147   3.593   2.492 -1.4031 -1.0670 -2.3132
  450MOL0     H60689   9.296   3.768   2.522 -0.9849 -1.3428  0.1857
  450MOL0     H60690   9.222   3.883   2.410  2.3872  0.7183  0.6346
  450MOL0     H60691   9.008   3.835   2.552 -0.0639  3.6559  0.0292
  450MOL0     H60692   9.114   3.747   2.670 -4.1969 -0.7381  1.0946
  450MOL0     H60693   9.158   4.039   2.595  1.4228  1.6072  1.8017
  450MOL0     H60694   9.075   3.985   2.744 -0.1368 -2.8595  1.0873
  450MOL0     H60695   9.298   3.829   2.768  2.7658 -0.1005  2.6938
  450MOL0     H60696   9.368   3.963   2.666 -0.8412 -0.5192 -0.5211
  450MOL0     H60697   9.313   4.127   2.844  2.1930  0.1875  0.1876
  450MOL0     H60698   9.222   4.003   2.934 -0.6839 -0.5738 -1.4376
  450MOL0     H60699   9.526   3.987   2.873  0.5910  1.7566  1.1004
  450MOL0     H60700   9.426   3.876   2.972  1.7835 -1.0558 -1.8062
  450MOL0     H60701   9.335   3.973   3.222  1.8621 -1.1480  0.3111
  450MOL0     H60702   9.315   4.248   3.401  1.0397  1.9025  3.7686
  450MOL0     H60703   9.405   4.096   3.448  1.7971 -1.3033 -1.7094
  450MOL0     H60704   9.522   4.369   3.447 -0.2063 -0.6245 -3.2144
  450MOL0     H60705   9.604   4.216   3.467  2.6481  3.2790 -2.5309
  450MOL0     H60706   9.524   4.195   3.681  1.5365 -0.9080 -3.4991
  450MOL0     H60707   9.367   4.245   3.647  0.1772 -0.0354  0.2135
  450MOL0     H60708   9.415   4.485   3.650 -2.1364 -1.1701  0.0823
  450MOL0     H60709   9.586   4.456   3.681  0.3458  0.2486 -1.6848
  450MOL0     H60710   9.308   4.407   4.032  0.1898  1.3554 -4.1887
  450MOL0     H60711   9.268   4.653   4.322  0.9572  0.0015 -0.9365
  450MOL0     H60712   9.217   4.514   4.238 -0.2677 -0.8093  1.2863
  450MOL0     H60713   9.369   4.490   4.335 -1.1096 -0.0457  2.6317
  450MOL0     H60714   9.516   4.822   4.549  1.1542 -0.4259 -3.8842
  450MOL0     H60715   9.562   5.014   4.697 -0.4455  1.9264  0.3725
  450MOL0     H60716   9.428   5.177   4.812  1.1938  0.2163  1.0471
  450MOL0     H60717   9.592   5.235   4.841  0.4234  0.5344  1.6464
  450MOL0     H60718   9.450   5.355   4.979 -2.9381  0.4055 -0.1786
  450MOL0     H60719   9.529   5.468   4.865 -0.9672  2.2617 -0.0003
  450MOL0     H60720   9.255   5.345   4.792 -3.6141  1.0770  0.3748
  450MOL0     H60721   9.317   5.507   4.750 -3.5229 -1.1968 -0.8263
  450MOL0     H60722   9.194   5.405   5.002 -1.6334  1.2101  0.8789
  450MOL0     H60723   9.251   5.575   4.991  2.5195 -0.1464 -1.4369
  450MOL0     H60724   9.058   5.484   4.780  0.7860  2.4281 -1.8513
  450MOL0     H60725   9.109   5.641   4.843  1.8598  0.5446  3.0405
  450MOL0     H60726   9.022   5.555   5.088 -1.1365 -2.0145  1.0438
  450MOL0     H60727   8.908   5.615   4.970 -0.7766 -0.7669 -0.3053
  450MOL0     H60728   8.965   5.323   5.046  2.1655  0.8240 -1.9766
  450MOL0     H60729   8.864   5.365   4.903 -0.2060 -2.4962 -0.0252
  450MOL0     H60730   8.713   5.485   5.013  1.4295  1.2836  0.6723
  450MOL0     H60731   8.798   5.452   5.171  1.1884 -3.7358  1.3410
  450MOL0     H60732   9.373   5.275   4.434  3.3974  1.6792  0.6319
  450MOL0     H60733   9.327   5.102   4.278  0.5641  2.2433  0.1303
  450MOL0     H60734   9.650   4.758   4.023 -1.6326  1.7198 -1.1547
  450MOL0     H60735   9.607   4.622   3.832  1.6159 -2.2642 -0.1313
  450MOL0     H60736   9.312   3.259   2.360  0.5784 -0.8499 -0.5934
  450MOL0     H60737   9.486   3.121   2.279  3.5727 -1.0470 -1.2900
  450MOL0     H60738   9.923   3.049   2.059  1.8235  2.0118 -0.2014
  450MOL0     H60739  10.086   2.989   1.912 -0.2286  2.1724  1.4152
  450MOL0     H60740   9.945   2.814   1.507 -0.5020  1.6145 -1.2771
  450MOL0     H60741  10.058   2.940   1.466 -1.6298  0.5133  0.6257
  450MOL0     H60742  10.200   2.734   1.596  0.7930 -1.3130 -0.3778
  450MOL0     H60743  10.240   2.819   1.446  1.6535 -2.2474  0.1175
  450MOL0     H60744  10.103   2.690   1.314  0.9700  1.1869  0.1138
  450MOL0     H60745  10.042   2.592   1.456  2.4568 -2.5369 -0.5085
  450MOL0     H60746  10.238   2.463   1.340  2.5404  0.9071 -2.5930
  450MOL0     H60747  10.256   2.509   1.514 -2.8368  0.8557  0.4117
  450MOL0     H60748  10.561   2.727   1.335  0.8336 -1.2161 -0.7165
  450MOL0     H60749   9.806   2.968   1.578  1.3122 -1.6543 -0.1844
  450MOL0     H60750   9.632   3.052   1.718  1.2834  1.7780 -0.5613
  451MOL0     O60751   7.306   9.046   4.236 -0.2926 -0.3317 -0.3149
  451MOL0     C60752   7.315   9.114   4.338  0.2277  0.7836  0.2466
  451MOL0     O60753   7.387   9.071   4.444 -0.0265 -0.9376  0.6004
  451MOL0     C60754   7.429   8.945   4.449  0.0826  0.3614  0.5083
  451MOL0     C60755   7.558   8.925   4.449 -0.5700 -0.9855  1.5092
  451MOL0     C60756   7.611   8.790   4.472 -0.7499 -0.0272  0.2089
  451MOL0     C60757   7.525   8.692   4.510  0.3228  0.2541  0.1934
  451MOL0     O60758   7.560   8.573   4.565 -0.4059  0.9620 -0.1266
  451MOL0     C60759   7.645   8.489   4.477 -0.5126 -0.3831  0.0090
  451MOL0     C60760   7.574   8.427   4.351  0.1525  0.2756 -0.1688
  451MOL0     C60761   7.627   8.293   4.300  0.0091  0.5250  1.0817
  451MOL0     C60762   7.574   8.250   4.163  0.0210  0.0553  0.0468
  451MOL0     C60763   7.676   8.249   4.050 -0.0864  0.1036  0.2686
  451MOL0     C60764   7.603   8.256   3.918 -0.5963 -1.2554  0.7374
  451MOL0     C60765   7.705   8.249   3.797  1.3438 -0.5794  0.2956
  451MOL0     C60766   7.724   8.102   3.762  0.7150  0.5939  0.6803
  451MOL0     N60767   7.749   8.114   3.619  0.1860 -0.4737 -0.6302
  451MOL0     C60768   7.642   8.128   3.531  0.0114 -0.2711 -0.1178
  451MOL0     C60769   7.703   8.171   3.422  0.6681 -1.0825  0.0972
  451MOL0     C60770   7.636   8.236   3.300 -0.5239  1.1020  0.0128
  451MOL0     C60771   7.486   8.263   3.316  0.1416  0.6064 -0.4078
  451MOL0     C60772   7.410   8.312   3.196 -0.1962  0.5470  0.6249
  451MOL0     C60773   7.490   8.406   3.103  0.4337  0.5501  0.9052
  451MOL0     O60774   7.592   8.330   3.039  0.2362  0.3273  0.7131
  451MOL0     C60775   7.675   8.385   2.942  0.2269  0.5900 -0.5022
  451MOL0     C60776   7.790   8.308   2.908  0.6053 -0.9408 -0.0240
  451MOL0     C60777   7.882   8.357   2.821  0.0736 -0.5667  1.2309
  451MOL0     C60778   8.013   8.279   2.802  0.4543  0.3265 -0.0240
  451MOL0     C60779   7.851   8.470   2.745 -0.0446 -0.0610  0.4264
  451MOL0     C60780   7.941   8.535   2.644  0.4042  1.2764  0.3175
  451MOL0     O60781   7.882   8.605   2.543  0.2098  0.3166  0.0165
  451MOL0     C60782   7.943   8.702   2.465  0.4707 -0.3310 -0.4903
  451MOL0     C60783   7.915   8.841   2.492  0.0163  1.1334 -0.1168
  451MOL0     C60784   7.981   8.930   2.411 -0.0876  1.0293  1.2179
  451MOL0     C60785   8.074   8.890   2.308 -0.0486 -0.0235 -0.2426
  451MOL0     O60786   8.127   8.992   2.224  0.1391 -0.3598 -0.1897
  451MOL0     C60787   8.184   8.952   2.093 -0.6927  0.0917 -0.2068
  451MOL0     C60788   8.270   9.069   2.041 -0.4219 -0.3111 -0.5120
  451MOL0     C60789   8.402   9.103   2.114  0.2801  0.1392  0.0360
  451MOL0     C60790   8.483   9.196   2.032 -0.1364  0.0023  1.2171
  451MOL0     C60791   8.601   9.233   2.119  0.4642  0.2435  0.1851
  451MOL0     C60792   8.685   9.337   2.055  0.5200  0.2364  0.2593
  451MOL0     C60793   8.791   9.415   2.136 -0.0976  0.5057  0.2909
  451MOL0     C60794   8.744   9.512   2.249  0.2899 -0.2721 -1.2495
  451MOL0    Cl60795   8.620   9.630   2.188  0.1001  0.0359 -0.0827
  451MOL0     C60796   8.099   8.758   2.293 -0.5395  1.4917  0.4888
  451MOL0     C60797   8.033   8.663   2.368  0.1484  0.2113 -0.1547
  451MOL0     O60798   8.058   8.526   2.663  0.0794  0.7506  0.0154
  451MOL0     C60799   7.739   8.549   2.780 -0.2253  0.3938 -0.3652
  451MOL0     C60800   7.658   8.508   2.881 -0.0995  1.4052  0.1012
  451MOL0     N60801   7.843   8.177   3.446 -0.5210  0.5671  0.1698
  451MOL0     N60802   7.868   8.134   3.565 -0.3619  0.6318  0.2989
  451MOL0     C60803   7.387   8.715   4.511  0.5491  0.1630 -0.2520
  451MOL0     C60804   7.343   8.838   4.469 -0.3896  0.1328  0.5882
  451MOL0     C60805   7.247   9.245   4.343  0.1419 -0.3798 -0.0967
  451MOL0     C60806   7.125   9.274   4.274 -0.0869  0.1545  0.4071
  451MOL0     C60807   7.073   9.400   4.281 -0.2197 -0.3492  0.1428
  451MOL0     C60808   7.126   9.508   4.352  0.3376  0.2025  0.6069
  451MOL0     O60809   7.063   9.628   4.332 -0.5254  0.2328  0.0417
  451MOL0     C60810   7.112   9.753   4.382 -0.6318 -0.1895 -1.3870
  451MOL0     C60811   7.244   9.795   4.319  0.6804 -0.3973 -0.4597
  451MOL0     C60812   7.219   9.823   4.173 -0.0667  0.4249  0.6414
  451MOL0     C60813   7.336   9.856   4.090  0.2201  0.3931 -0.2972
  451MOL0     C60814   7.387   9.983   4.126  1.0003 -0.4326 -0.4171
  451MOL0     C60815   7.426  10.095   4.144  0.3403  0.4288 -0.8762
  451MOL0     C60816   7.244   9.493   4.418  0.4433  0.4341 -0.5330
  451MOL0     C60817   7.308   9.360   4.403  0.0369 -0.3002 -0.7864
  451MOL0     H60818   7.632   9.004   4.443  1.8831 -3.2353 -2.0540
  451MOL0     H60819   7.717   8.770   4.480 -0.0224  1.0429 -4.3584
  451MOL0     H60820   7.733   8.550   4.454  1.1971 -1.6292  2.6299
  451MOL0     H60821   7.678   8.404   4.538 -0.6155  2.0636  3.8430
  451MOL0     H60822   7.473   8.401   4.385  1.3420 -2.0093  1.9061
  451MOL0     H60823   7.567   8.516   4.288  0.0185  1.6946  1.7327
  451MOL0     H60824   7.736   8.301   4.300 -0.0918  2.3614  0.2540
  451MOL0     H60825   7.603   8.215   4.372  1.0395  0.6390  1.5687
  451MOL0     H60826   7.533   8.150   4.181  0.9442  0.0031  2.1316
  451MOL0     H60827   7.498   8.323   4.131 -1.0429 -1.5862 -1.3370
  451MOL0     H60828   7.730   8.344   4.049  3.2313 -1.4084 -4.8605
  451MOL0     H60829   7.740   8.159   4.050 -1.7350 -1.1288  1.6289
  451MOL0     H60830   7.519   8.187   3.907 -1.2314 -0.8082  2.5670
  451MOL0     H60831   7.563   8.357   3.913  1.4767 -0.3072  2.0218
  451MOL0     H60832   7.667   8.303   3.710 -1.2495 -1.8364  0.5399
  451MOL0     H60833   7.796   8.302   3.827  0.6697  0.9929 -0.3146
  451MOL0     H60834   7.632   8.045   3.777  0.1533  1.6839  1.5581
  451MOL0     H60835   7.817   8.064   3.805  0.1581  1.1920  2.5104
  451MOL0     H60836   7.534   8.117   3.542 -0.1585 -1.3035 -2.2818
  451MOL0     H60837   7.696   8.322   3.270 -0.5316  0.5552 -1.6760
  451MOL0     H60838   7.653   8.164   3.220  1.8868  0.1901  1.2394
  451MOL0     H60839   7.475   8.323   3.407 -1.6852 -0.5964  0.2128
  451MOL0     H60840   7.435   8.167   3.329  1.6114 -0.2502 -0.6849
  451MOL0     H60841   7.312   8.356   3.213  0.2622  1.6022  0.5986
  451MOL0     H60842   7.399   8.224   3.132  3.0095  0.5142 -0.0429
  451MOL0     H60843   7.540   8.492   3.149  0.5808  0.0251  1.7452
  451MOL0     H60844   7.425   8.459   3.033  1.4592  1.0801  0.3354
  451MOL0     H60845   7.813   8.212   2.955  0.4536 -0.3784  1.2573
  451MOL0     H60846   8.038   8.272   2.696 -1.4993 -0.1460 -0.4957
  451MOL0     H60847   8.093   8.338   2.847  0.4161  2.6503 -2.7066
  451MOL0     H60848   8.002   8.175   2.835 -0.3741 -1.2422 -4.4856
  451MOL0     H60849   7.854   8.890   2.568  1.8544 -0.6886  2.7040
  451MOL0     H60850   7.960   9.036   2.423 -3.3552  0.7136 -0.6846
  451MOL0     H60851   8.249   8.866   2.108 -0.2895  0.4037 -0.1475
  451MOL0     H60852   8.109   8.924   2.019 -1.5571 -2.2344  1.4406
  451MOL0     H60853   8.283   9.049   1.934 -0.6638 -1.7094 -0.3102
  451MOL0     H60854   8.203   9.155   2.036  1.7338  1.5362  0.4114
  451MOL0     H60855   8.450   9.012   2.150 -2.8499  0.4375  6.0649
  451MOL0     H60856   8.395   9.155   2.210  4.0548 -0.3253  0.7120
  451MOL0     H60857   8.518   9.149   1.940  0.0073 -0.3953  1.4704
  451MOL0     H60858   8.434   9.291   2.007 -0.7324 -0.0888  2.0110
  451MOL0     H60859   8.658   9.144   2.148  0.1768 -0.2010 -0.5953
  451MOL0     H60860   8.568   9.279   2.213 -0.1617 -1.7866  1.0205
  451MOL0     H60861   8.733   9.294   1.967  1.2461  1.6870 -0.0821
  451MOL0     H60862   8.605   9.403   2.019 -0.3327 -1.2399 -0.6180
  451MOL0     H60863   8.839   9.478   2.061  2.6366 -0.3610  1.1861
  451MOL0     H60864   8.862   9.347   2.185 -1.8289 -1.4441  0.2444
  451MOL0     H60865   8.834   9.565   2.282  0.3369  0.3521 -2.3189
  451MOL0     H60866   8.702   9.457   2.333 -0.3458  0.2222 -1.2346
  451MOL0     H60867   8.162   8.719   2.213 -0.6819  1.5632  0.3433
  451MOL0     H60868   8.053   8.557   2.354 -0.5142 -0.1476  1.4600
  451MOL0     H60869   7.714   8.650   2.748 -2.1625  0.8799  2.3368
  451MOL0     H60870   7.568   8.567   2.892 -2.6386 -1.0631 -4.3068
  451MOL0     H60871   7.313   8.643   4.546  2.0209  0.2475  3.3694
  451MOL0     H60872   7.238   8.866   4.466 -0.3367  0.3253  0.5346
  451MOL0     H60873   7.064   9.198   4.226  0.7366 -0.9196  1.0139
  451MOL0     H60874   6.992   9.422   4.213 -0.9640  0.8667  1.3695
  451MOL0     H60875   7.036   9.831   4.371 -1.8571 -1.2061 -0.3148
  451MOL0     H60876   7.136   9.746   4.488  0.6660 -0.6838 -1.6955
  451MOL0     H60877   7.326   9.723   4.322  2.6511  1.7556  2.1717
  451MOL0     H60878   7.277   9.887   4.369  0.0325 -0.5097  0.1830
  451MOL0     H60879   7.141   9.900   4.173 -0.7345 -0.1159  3.5143
  451MOL0     H60880   7.180   9.735   4.122 -0.4278 -0.9805  3.1896
  451MOL0     H60881   7.319   9.835   3.984 -0.2032 -3.1241  0.3535
  451MOL0     H60882   7.409   9.777   4.112  1.7150  1.6362 -0.6148
  451MOL0     H60883   7.471  10.192   4.142  3.0582 -0.7434 -1.0537
  451MOL0     H60884   7.297   9.561   4.484  3.6186 -1.7150 -0.6160
  451MOL0     H60885   7.411   9.361   4.436 -0.3040  2.4659  0.4962
  452MOL0     O60886   0.168   4.059   4.932  0.3832 -0.4022 -0.4861
  452MOL0     C60887   0.066   3.999   4.977 -0.1803  0.2284  1.0775
  452MOL0     O60888  -0.056   4.050   5.002 -0.2578 -0.0589 -1.2832
  452MOL0     C60889  -0.053   4.185   4.995  0.6271 -0.8166  0.1983
  452MOL0     C60890  -0.086   4.247   4.880 -0.3192  0.2071  0.9216
  452MOL0     C60891  -0.080   4.389   4.860  0.5815 -0.4035  0.2787
  452MOL0     C60892  -0.080   4.464   4.982 -0.7109  0.4944  0.0973
  452MOL0     O60893  -0.106   4.600   4.999 -0.0615 -0.2530  0.2961
  452MOL0     C60894  -0.050   4.678   4.890 -0.5353 -0.4059 -0.9072
  452MOL0     C60895  -0.007   4.800   4.947 -0.3544 -0.0963  0.2661
  452MOL0     C60896  -0.108   4.878   5.039 -0.0330 -0.0380 -0.9706
  452MOL0     C60897  -0.112   5.029   5.027  0.1846  0.9569  0.6164
  452MOL0     C60898  -0.236   5.095   5.085  0.4988  0.9383 -0.2672
  452MOL0     C60899  -0.220   5.245   5.086 -0.8371 -0.0731  0.7290
  452MOL0     C60900  -0.356   5.311   5.139 -0.0813  0.5152  0.4691
  452MOL0     C60901  -0.471   5.272   5.049 -0.5421 -0.1025 -0.0109
  452MOL0     N60902  -0.589   5.357   5.085  0.5685  0.3134 -0.3248
  452MOL0     C60903  -0.629   5.377   5.211  0.7334  0.5058 -0.5771
  452MOL0     C60904  -0.748   5.448   5.212  0.0578 -0.0666 -1.0583
  452MOL0     C60905  -0.840   5.510   5.324 -0.2576 -1.1574  0.4850
  452MOL0     C60906  -0.781   5.497   5.464  0.2831 -0.2582  1.1745
  452MOL0     C60907  -0.840   5.598   5.565 -1.2815 -0.0734  0.2669
  452MOL0     C60908  -0.747   5.606   5.680 -0.2619 -0.5311  0.9152
  452MOL0     O60909  -0.831   5.658   5.786 -0.3936 -0.6680 -0.2193
  452MOL0     C60910  -0.778   5.695   5.903 -0.8340 -0.7084 -0.4310
  452MOL0     C60911  -0.855   5.741   6.013 -0.1414  0.4214  0.1232
  452MOL0     C60912  -0.796   5.795   6.133  0.2341  0.0818 -0.0450
  452MOL0     C60913  -0.884   5.853   6.238  0.2803 -0.2748  0.6984
  452MOL0     C60914  -0.649   5.812   6.142 -0.2289 -0.4221 -0.5091
  452MOL0     C60915  -0.561   5.883   6.248  0.3895  0.6595 -0.0904
  452MOL0     O60916  -0.439   5.936   6.215 -1.0141  0.0603 -0.0613
  452MOL0     C60917  -0.355   5.983   6.311  0.3213 -0.6483  0.1783
  452MOL0     C60918  -0.305   5.897   6.414 -1.0284 -0.2635 -0.5507
  452MOL0     C60919  -0.210   5.946   6.506  0.0780 -0.7306 -0.0870
  452MOL0     C60920  -0.200   6.089   6.522 -0.2693  0.9892  0.7035
  452MOL0     O60921  -0.126   6.121   6.634  0.7534 -0.3757 -0.6561
  452MOL0     C60922  -0.055   6.236   6.645 -0.7976 -0.4011 -0.6478
  452MOL0     C60923   0.064   6.223   6.746  0.3576 -0.0745 -0.1620
  452MOL0     C60924   0.157   6.356   6.746  0.0177  1.0644  0.4075
  452MOL0     C60925   0.072   6.477   6.780  0.3360  0.7956  0.1778
  452MOL0     C60926   0.140   6.607   6.813  0.4646 -0.0249  0.4922
  452MOL0     C60927   0.199   6.673   6.696 -0.1139 -0.2217  0.0422
  452MOL0     C60928   0.241   6.823   6.726  0.2165  0.0011 -0.0391
  452MOL0     C60929   0.377   6.832   6.801 -0.0116 -0.7855  0.5535
  452MOL0    Cl60930   0.517   6.762   6.710 -0.1085 -0.0173  0.2046
  452MOL0     C60931  -0.257   6.175   6.430 -0.6526 -0.0194 -0.4159
  452MOL0     C60932  -0.325   6.111   6.323 -0.7661  0.3555 -0.5095
  452MOL0     O60933  -0.610   5.904   6.358 -0.1046  0.9687 -0.8008
  452MOL0     C60934  -0.574   5.762   6.030 -0.1433  0.5449 -0.2662
  452MOL0     C60935  -0.637   5.700   5.920 -0.6269 -1.2413  0.1282
  452MOL0     N60936  -0.767   5.468   5.076  0.0243  0.2724 -0.5385
  452MOL0     N60937  -0.686   5.405   5.003 -0.5479 -0.0871 -0.1523
  452MOL0     C60938  -0.057   4.397   5.108 -0.3849  0.6107 -0.2784
  452MOL0     C60939  -0.035   4.263   5.115 -0.3797  0.2391  0.0617
  452MOL0     C60940   0.098   3.863   5.008  0.2350 -0.4331  0.6527
  452MOL0     C60941  -0.002   3.770   5.048  0.2424  0.0016 -0.2225
  452MOL0     C60942   0.032   3.636   5.066  0.1531  1.1589 -0.3063
  452MOL0     C60943   0.167   3.588   5.069 -0.2967 -0.8756 -1.0152
  452MOL0     O60944   0.215   3.464   5.101 -0.3327 -0.1528  0.0680
  452MOL0     C60945   0.125   3.371   5.155 -0.3335  0.4848  0.1002
  452MOL0     C60946   0.199   3.282   5.251  0.1624 -0.5214 -0.4987
  452MOL0     C60947   0.270   3.168   5.176 -0.0192  0.1309  0.5523
  452MOL0     C60948   0.313   3.048   5.263 -0.1582 -0.3090 -0.3017
  452MOL0     C60949   0.351   2.935   5.176  0.1770 -0.5271 -0.8936
  452MOL0     C60950   0.379   2.859   5.086 -0.2552  0.1322 -1.1422
  452MOL0     C60951   0.264   3.680   5.038 -0.3719  0.7808  0.0627
  452MOL0     C60952   0.233   3.809   5.004  0.6444 -0.1129  0.1926
  452MOL0     H60953  -0.117   4.185   4.797  0.8573  1.2777 -0.3529
  452MOL0     H60954  -0.084   4.438   4.764  2.3012 -0.1250  0.3161
  452MOL0     H60955   0.037   4.622   4.855 -0.0436 -1.2398  1.4278
  452MOL0     H60956  -0.119   4.684   4.805  0.3325  0.1088 -1.5978
  452MOL0     H60957   0.072   4.777   5.019 -1.8631  1.7401  2.6838
  452MOL0     H60958   0.045   4.862   4.873 -0.0462 -0.0202  0.5408
  452MOL0     H60959  -0.211   4.842   5.026  0.1277 -0.6140 -0.6800
  452MOL0     H60960  -0.083   4.865   5.145 -0.5317  1.0135 -0.7013
  452MOL0     H60961  -0.017   5.071   5.060  0.6375  0.9535 -0.6558
  452MOL0     H60962  -0.110   5.028   4.918  3.2297  2.8583  0.5442
  452MOL0     H60963  -0.325   5.072   5.026 -2.9679  0.5161  4.5352
  452MOL0     H60964  -0.253   5.047   5.182 -1.2871 -0.0452 -1.0395
  452MOL0     H60965  -0.132   5.267   5.148 -0.5586 -1.9351  1.0490
  452MOL0     H60966  -0.205   5.272   4.981  1.0107  0.3224  1.0604
  452MOL0     H60967  -0.386   5.282   5.240 -2.4872  0.9597 -0.0465
  452MOL0     H60968  -0.357   5.420   5.134  0.1399  0.6965  3.0381
  452MOL0     H60969  -0.515   5.174   5.066  0.8043 -0.8161 -0.5328
  452MOL0     H60970  -0.433   5.275   4.947 -0.2777  1.4588  0.0983
  452MOL0     H60971  -0.581   5.334   5.298  0.9028  0.4133 -0.7155
  452MOL0     H60972  -0.853   5.617   5.305  1.5908 -1.0864 -0.6394
  452MOL0     H60973  -0.939   5.465   5.328 -1.0454  0.3762 -0.7656
  452MOL0     H60974  -0.674   5.517   5.459  0.7629 -2.5597  0.9010
  452MOL0     H60975  -0.782   5.397   5.509  1.7964  0.5254  3.1477
  452MOL0     H60976  -0.936   5.551   5.589 -1.0133 -1.3402 -1.0302
  452MOL0     H60977  -0.858   5.696   5.521 -1.6849 -0.3014 -0.0787
  452MOL0     H60978  -0.664   5.669   5.647 -1.3021  0.4164  0.0389
  452MOL0     H60979  -0.702   5.511   5.708  0.2299 -0.6331 -0.1611
  452MOL0     H60980  -0.963   5.753   6.006 -0.3091 -0.4452  1.0047
  452MOL0     H60981  -0.981   5.860   6.187  1.7903 -0.7529 -2.5226
  452MOL0     H60982  -0.879   5.800   6.333  0.3468  2.0733  2.0792
  452MOL0     H60983  -0.843   5.949   6.269 -0.8907  0.2490  0.6678
  452MOL0     H60984  -0.337   5.794   6.423  0.4837 -0.5553  2.8312
  452MOL0     H60985  -0.152   5.883   6.573  0.9662  2.1638  2.0761
  452MOL0     H60986  -0.023   6.277   6.548 -0.6253  1.9185  0.3250
  452MOL0     H60987  -0.120   6.315   6.685 -0.3587  0.3161 -1.3144
  452MOL0     H60988   0.027   6.217   6.849 -2.2629  0.2574 -1.0261
  452MOL0     H60989   0.120   6.134   6.715 -0.5479 -0.8971  0.5216
  452MOL0     H60990   0.180   6.370   6.640 -0.5679  0.5247  0.1978
  452MOL0     H60991   0.246   6.341   6.807 -0.4632  0.9422  1.1011
  452MOL0     H60992   0.006   6.498   6.696  0.7234  0.4736 -0.2096
  452MOL0     H60993   0.001   6.457   6.861  0.9804  2.6989  1.2975
  452MOL0     H60994   0.211   6.583   6.892  0.0493 -4.4341 -0.1815
  452MOL0     H60995   0.064   6.680   6.841  0.2553  1.9571 -4.2401
  452MOL0     H60996   0.287   6.615   6.666  1.4377  2.0453 -0.0691
  452MOL0     H60997   0.132   6.677   6.610 -2.1682  4.3559  1.4971
  452MOL0     H60998   0.164   6.883   6.775  0.3563 -1.0926  1.6134
  452MOL0     H60999   0.267   6.852   6.624  0.2194  0.8561  0.1989
  452MOL0     H61000   0.363   6.777   6.895 -1.9105 -1.2062  0.0597
  452MOL0     H61001   0.391   6.940   6.813 -0.1785 -0.5095 -1.4225
  452MOL0     H61002  -0.245   6.283   6.437  0.2451  0.1677 -3.4645
  452MOL0     H61003  -0.361   6.179   6.246 -4.9221 -0.1391  0.7666
  452MOL0     H61004  -0.466   5.747   6.029 -0.1045  0.8311 -0.5482
  452MOL0     H61005  -0.562   5.673   5.846  1.4300 -2.1907  2.3991
  452MOL0     H61006  -0.071   4.453   5.200 -1.4559 -1.2805  0.7966
  452MOL0     H61007  -0.006   4.208   5.205 -3.0664 -1.3815  0.0681
  452MOL0     H61008  -0.104   3.805   5.053  0.0829 -0.1725 -1.8826
  452MOL0     H61009  -0.039   3.561   5.100  0.8751  0.5106 -0.2037
  452MOL0     H61010   0.038   3.421   5.200  0.3163  1.8052 -0.0622
  452MOL0     H61011   0.090   3.307   5.074 -1.8940 -2.2866  2.7483
  452MOL0     H61012   0.123   3.244   5.320  0.8906  0.5905  0.9670
  452MOL0     H61013   0.274   3.338   5.308  1.0789 -2.7955  0.6791
  452MOL0     H61014   0.365   3.211   5.143 -0.1111  0.8671  1.2011
  452MOL0     H61015   0.216   3.133   5.088  2.4417 -2.6504 -0.0428
  452MOL0     H61016   0.222   3.017   5.315 -0.9487  2.3392  0.0521
  452MOL0     H61017   0.383   3.089   5.336 -2.1464 -1.9160  2.7337
  452MOL0     H61018   0.397   2.788   5.007 -0.1933  0.8099 -1.7490
  452MOL0     H61019   0.369   3.652   5.036  0.4082  3.4378  0.6277
  452MOL0     H61020   0.315   3.877   4.984  0.1476  1.5170  3.0643
  453MOL0     O61021   1.865   7.412   6.535 -0.2324 -0.4745  0.7839
  453MOL0     C61022   1.947   7.396   6.629 -0.1306 -0.1194  0.3860
  453MOL0     O61023   1.917   7.396   6.752 -0.4607  0.1252 -0.0681
  453MOL0     C61024   1.789   7.417   6.820 -0.5120  0.1270 -0.2156
  453MOL0     C61025   1.661   7.425   6.763  0.1431  0.4907 -0.2250
  453MOL0     C61026   1.554   7.486   6.830  0.1988  0.4330  0.0374
  453MOL0     C61027   1.570   7.529   6.960 -0.7724  0.1316 -0.2595
  453MOL0     O61028   1.471   7.584   7.032 -0.3647 -0.0023 -0.3660
  453MOL0     C61029   1.388   7.682   6.963 -1.2852 -0.0610 -0.7725
  453MOL0     C61030   1.322   7.788   7.073 -0.6749 -1.1324  0.5277
  453MOL0     C61031   1.415   7.908   7.117  0.0694  0.5248  0.7521
  453MOL0     C61032   1.371   7.971   7.253  0.2232 -0.9334  0.4154
  453MOL0     C61033   1.451   8.098   7.283  0.1498  0.3710 -0.1803
  453MOL0     C61034   1.472   8.194   7.169  0.3479 -0.5550  0.3243
  453MOL0     C61035   1.476   8.345   7.213  0.0226  0.4100 -0.1945
  453MOL0     C61036   1.579   8.368   7.324  0.0424  0.4686  0.4061
  453MOL0     N61037   1.719   8.349   7.294  0.3578 -0.8481  0.0491
  453MOL0     C61038   1.796   8.259   7.357 -0.0040 -0.6819 -0.6241
  453MOL0     C61039   1.910   8.248   7.283  0.5396 -0.7249 -0.9074
  453MOL0     C61040   2.030   8.174   7.341  0.1106 -0.4939 -0.4036
  453MOL0     C61041   2.090   8.262   7.454  0.3168  0.1178 -0.1274
  453MOL0     C61042   2.196   8.188   7.533 -0.3855  0.1250 -1.2831
  453MOL0     C61043   2.155   8.108   7.655 -0.1075 -0.7791  0.9642
  453MOL0     O61044   2.079   7.998   7.607 -0.3663 -0.4931 -0.5020
  453MOL0     C61045   2.064   7.892   7.694 -0.5491  0.7905 -0.5685
  453MOL0     C61046   1.973   7.799   7.658  0.9944  0.4361  0.2459
  453MOL0     C61047   1.939   7.691   7.731 -0.6435 -0.0086  0.3063
  453MOL0     C61048   1.831   7.595   7.688  0.1993  1.1573  0.5753
  453MOL0     C61049   2.019   7.664   7.853 -0.7215 -0.0711  0.8036
  453MOL0     C61050   2.017   7.548   7.944  0.0446 -0.2001 -0.4975
  453MOL0     O61051   2.136   7.533   8.014  0.1017  0.4687  0.8963
  453MOL0     C61052   2.132   7.457   8.134  0.1489  0.1837 -0.3946
  453MOL0     C61053   2.255   7.436   8.193  0.6774 -0.3561  0.1144
  453MOL0     C61054   2.271   7.352   8.303 -0.2753 -1.0748  0.8853
  453MOL0     C61055   2.158   7.287   8.355  0.0890  0.2650 -0.0141
  453MOL0     O61056   2.152   7.205   8.467 -0.1596  0.0515 -0.6021
  453MOL0     C61057   2.246   7.211   8.572 -0.2539 -0.5762  0.1771
  453MOL0     C61058   2.225   7.105   8.682 -0.3180  0.0554  0.4400
  453MOL0     C61059   2.328   7.104   8.791 -0.0726 -0.2723  0.2598
  453MOL0     C61060   2.323   6.979   8.891 -1.7869  0.1771  0.7171
  453MOL0     C61061   2.215   6.975   8.995  0.5935 -0.1305 -0.4890
  453MOL0     C61062   2.246   6.889   9.113 -0.0442  0.7641  0.2006
  453MOL0     C61063   2.208   6.743   9.078  0.3136 -0.2392  0.4549
  453MOL0     C61064   2.059   6.693   9.048  0.8330 -0.0624  0.5475
  453MOL0    Cl61065   2.074   6.515   9.018  0.2698  0.0101 -0.0501
  453MOL0     C61066   2.034   7.319   8.301 -0.4154 -0.6222 -0.1422
  453MOL0     C61067   2.024   7.399   8.194 -1.0951 -0.0294 -0.1702
  453MOL0     O61068   1.922   7.471   7.936 -0.4552 -0.7925 -0.3720
  453MOL0     C61069   2.119   7.760   7.889  0.6099 -0.1681  0.0552
  453MOL0     C61070   2.141   7.867   7.806  0.0473  0.5174  0.3656
  453MOL0     N61071   1.899   8.350   7.192  0.0907 -1.1149 -0.3490
  453MOL0     N61072   1.779   8.408   7.189  0.0464  0.2373 -0.1465
  453MOL0     C61073   1.689   7.494   7.029  0.0175 -0.5517  0.6603
  453MOL0     C61074   1.800   7.449   6.954  0.3300  1.1793 -0.9008
  453MOL0     C61075   2.091   7.396   6.600  0.0763 -0.0904  0.1694
  453MOL0     C61076   2.134   7.433   6.472  0.6737 -0.5487 -0.2864
  453MOL0     C61077   2.267   7.433   6.431 -0.5475 -0.3295 -0.4333
  453MOL0     C61078   2.364   7.404   6.523  0.0975  0.5572 -1.3432
  453MOL0     O61079   2.496   7.419   6.485  0.4165 -0.5558 -0.3542
  453MOL0     C61080   2.564   7.516   6.569  0.7737 -0.7809  0.5544
  453MOL0     C61081   2.653   7.441   6.669  0.6826 -0.5750  0.3127
  453MOL0     C61082   2.718   7.320   6.609  0.3724  0.9879  0.5078
  453MOL0     C61083   2.846   7.277   6.686 -0.3681 -0.1488  0.6578
  453MOL0     C61084   2.839   7.136   6.704  1.8090  0.2682  0.2926
  453MOL0     C61085   2.839   7.014   6.719 -0.4087 -0.1620 -0.1132
  453MOL0     C61086   2.324   7.353   6.650  0.0731 -0.1919  0.5473
  453MOL0     C61087   2.188   7.364   6.692  0.2189 -0.2089  0.2760
  453MOL0     H61088   1.675   7.388   6.662  1.3271 -0.4498  0.2593
  453MOL0     H61089   1.458   7.510   6.784 -0.7823 -0.2384  1.6656
  453MOL0     H61090   1.450   7.744   6.897 -1.7486 -0.7600 -1.8735
  453MOL0     H61091   1.316   7.636   6.896 -2.7442  1.7235 -0.5057
  453MOL0     H61092   1.231   7.825   7.024 -0.1136  2.5708  1.9208
  453MOL0     H61093   1.315   7.724   7.161 -1.2900 -2.5529 -0.5221
  453MOL0     H61094   1.522   7.884   7.120  0.2362  0.5940 -1.9170
  453MOL0     H61095   1.396   7.978   7.034  0.3382  2.1807  2.0245
  453MOL0     H61096   1.264   7.991   7.236  0.4568 -0.6518 -0.8725
  453MOL0     H61097   1.382   7.904   7.338  1.9506 -0.6102  0.4740
  453MOL0     H61098   1.378   8.132   7.357 -0.1951 -1.9534  0.6427
  453MOL0     H61099   1.551   8.071   7.320  1.1296  1.0702 -2.1935
  453MOL0     H61100   1.568   8.174   7.120  1.3142 -1.6286  2.4671
  453MOL0     H61101   1.393   8.190   7.094  1.3229  0.7555 -0.8240
  453MOL0     H61102   1.495   8.414   7.130 -0.9270  0.2692 -0.5458
  453MOL0     H61103   1.372   8.368   7.236 -0.2690 -0.1816 -0.8803
  453MOL0     H61104   1.554   8.301   7.406  1.0243 -1.3763 -0.7383
  453MOL0     H61105   1.573   8.472   7.358  0.4718 -0.4447  3.6130
  453MOL0     H61106   1.768   8.197   7.442 -1.7030 -0.0737 -0.7152
  453MOL0     H61107   1.996   8.080   7.384  1.3054 -0.1064  1.4737
  453MOL0     H61108   2.102   8.158   7.260  1.6827 -3.3164  1.3698
  453MOL0     H61109   2.010   8.297   7.520 -0.0804  1.4369 -1.2675
  453MOL0     H61110   2.122   8.350   7.399 -2.4328 -0.6577 -3.3062
  453MOL0     H61111   2.265   8.265   7.569 -0.1396  1.2090 -3.8236
  453MOL0     H61112   2.250   8.128   7.459  2.0707  2.5992 -1.6698
  453MOL0     H61113   2.095   8.168   7.725  0.6009  2.2679 -0.8619
  453MOL0     H61114   2.252   8.084   7.699  0.3517  0.5881  0.7543
  453MOL0     H61115   1.914   7.813   7.568 -0.0425 -0.4302  0.7706
  453MOL0     H61116   1.881   7.502   7.662  1.9665  1.4885  2.4474
  453MOL0     H61117   1.761   7.578   7.770  0.2261 -1.9065  0.0598
  453MOL0     H61118   1.772   7.633   7.604  0.3385 -0.1196 -0.1248
  453MOL0     H61119   2.339   7.491   8.152  0.3038 -0.7073 -1.1669
  453MOL0     H61120   2.367   7.345   8.353 -1.1309  1.0693  3.0005
  453MOL0     H61121   2.346   7.190   8.535  0.1824 -1.4803  1.7858
  453MOL0     H61122   2.245   7.312   8.612  0.0041  0.2335 -1.7346
  453MOL0     H61123   2.129   7.135   8.724  1.0517  0.9744  3.1896
  453MOL0     H61124   2.210   7.008   8.635  0.0352  0.5419 -0.7216
  453MOL0     H61125   2.334   7.197   8.849  0.5735  0.2803 -0.6583
  453MOL0     H61126   2.428   7.093   8.748 -0.2808 -1.9393  0.1381
  453MOL0     H61127   2.334   6.887   8.834  0.3913 -0.4857  2.0509
  453MOL0     H61128   2.427   6.984   8.926 -0.5300 -0.9183 -2.5094
  453MOL0     H61129   2.121   6.941   8.950  0.5151  3.3032 -3.4585
  453MOL0     H61130   2.185   7.074   9.031 -0.3481 -1.3218  2.1912
  453MOL0     H61131   2.349   6.903   9.148  0.3110 -1.2397  0.0331
  453MOL0     H61132   2.183   6.933   9.192  3.8908  0.7978  3.7130
  453MOL0     H61133   2.235   6.683   9.166  0.5224 -1.3366 -0.3415
  453MOL0     H61134   2.275   6.715   8.996 -0.2031  0.4521 -0.2031
  453MOL0     H61135   2.015   6.735   8.958 -3.2075  0.0274  2.3330
  453MOL0     H61136   2.005   6.714   9.141 -0.3752 -1.8227  0.2892
  453MOL0     H61137   1.944   7.270   8.338 -0.8445 -1.2612 -1.9030
  453MOL0     H61138   1.921   7.409   8.161 -1.1079 -1.9619 -0.7925
  453MOL0     H61139   2.188   7.742   7.971  0.5928 -0.0114  0.1052
  453MOL0     H61140   2.234   7.917   7.832  1.0362 -0.8859 -0.3363
  453MOL0     H61141   1.688   7.530   7.132  2.6858  3.0010 -0.3593
  453MOL0     H61142   1.888   7.427   7.013 -0.0714 -2.4183 -1.3575
  453MOL0     H61143   2.062   7.478   6.404 -0.2971  0.7112  1.4779
  453MOL0     H61144   2.293   7.475   6.335 -0.0397 -1.1465 -0.6603
  453MOL0     H61145   2.627   7.576   6.502 -0.9241  1.9303  1.2357
  453MOL0     H61146   2.491   7.582   6.616  0.9148 -0.2217  0.0110
  453MOL0     H61147   2.594   7.402   6.752 -0.4851  0.4346 -0.0092
  453MOL0     H61148   2.722   7.511   6.716  0.0675  0.2536  0.0008
  453MOL0     H61149   2.742   7.339   6.504  2.3742  0.2980  0.8061
  453MOL0     H61150   2.654   7.232   6.596 -1.0407  2.1597 -0.8494
  453MOL0     H61151   2.839   7.328   6.782 -3.2061 -1.7355  1.3802
  453MOL0     H61152   2.936   7.314   6.635 -1.4415  0.0439 -1.2087
  453MOL0     H61153   2.852   6.911   6.744 -5.3537 -0.4705  2.3164
  453MOL0     H61154   2.405   7.322   6.716  1.7469  2.1854 -0.2826
  453MOL0     H61155   2.160   7.327   6.790  0.4410  0.3858  0.5694
  454MOL0     O61156   1.685   6.681   3.820 -0.4960 -0.4324 -1.0291
  454MOL0     C61157   1.594   6.745   3.862  0.7779 -0.0473 -0.2300
  454MOL0     O61158   1.488   6.786   3.788  0.6195 -0.2404 -1.0587
  454MOL0     C61159   1.499   6.773   3.651  0.3003 -1.1391 -0.5071
  454MOL0     C61160   1.478   6.653   3.584  0.1694  0.3706  0.4103
  454MOL0     C61161   1.470   6.642   3.442 -0.3742 -1.3566  0.3034
  454MOL0     C61162   1.494   6.764   3.371  0.0991 -0.9802 -0.0292
  454MOL0     O61163   1.501   6.767   3.233  1.1414  0.7677 -0.0843
  454MOL0     C61164   1.390   6.690   3.174 -1.0465 -0.4897 -0.2140
  454MOL0     C61165   1.389   6.739   3.023 -0.6767  0.4760 -1.2530
  454MOL0     C61166   1.467   6.645   2.931  0.0615 -0.4967 -0.4996
  454MOL0     C61167   1.464   6.711   2.790  0.0817  0.4798 -0.4167
  454MOL0     C61168   1.508   6.606   2.673 -0.2012 -0.4762  0.5715
  454MOL0     C61169   1.521   6.691   2.545 -0.6340  0.4170  0.1058
  454MOL0     C61170   1.518   6.583   2.430 -0.2838  0.7556 -0.0134
  454MOL0     C61171   1.381   6.558   2.381  0.0049 -0.5526 -0.2120
  454MOL0     N61172   1.293   6.679   2.356 -0.2508  0.9511 -0.5291
  454MOL0     C61173   1.285   6.750   2.241  1.0580 -0.3211  0.6714
  454MOL0     C61174   1.179   6.840   2.268  0.1387  0.9842  0.3985
  454MOL0     C61175   1.158   6.956   2.185 -0.8200  0.1177 -0.4834
  454MOL0     C61176   1.007   6.975   2.155 -0.8246  0.0155 -0.2876
  454MOL0     C61177   1.010   7.086   2.052  0.4399 -0.2732  0.6685
  454MOL0     C61178   0.872   7.136   2.025 -0.4032 -0.3081 -0.3593
  454MOL0     O61179   0.879   7.261   1.958 -0.5402  0.6306  0.3210
  454MOL0     C61180   0.755   7.308   1.915 -0.3699 -0.4818 -0.9328
  454MOL0     C61181   0.681   7.393   1.998  1.3679  0.5006  0.0642
  454MOL0     C61182   0.573   7.468   1.940  0.6668  0.5087  0.2074
  454MOL0     C61183   0.502   7.555   2.039 -0.0752 -0.0131  0.1943
  454MOL0     C61184   0.540   7.464   1.798 -0.6735 -0.6902  0.3017
  454MOL0     C61185   0.451   7.566   1.723  0.8240 -0.1379 -0.6201
  454MOL0     O61186   0.429   7.526   1.596  0.0512  0.0043  0.3297
  454MOL0     C61187   0.402   7.611   1.495  0.1911  0.9364  0.4178
  454MOL0     C61188   0.337   7.734   1.498  0.2511 -0.3914  0.3551
  454MOL0     C61189   0.328   7.814   1.389 -0.0139  0.1188 -0.0726
  454MOL0     C61190   0.394   7.765   1.278 -0.4489  0.2066  0.1789
  454MOL0     O61191   0.395   7.848   1.169 -0.0860 -0.6418 -0.1764
  454MOL0     C61192   0.445   7.823   1.035  0.8763 -0.3293  0.0926
  454MOL0     C61193   0.443   7.952   0.962 -0.1285 -0.4283  0.6463
  454MOL0     C61194   0.304   8.004   0.938  0.3169 -0.1630  0.4633
  454MOL0     C61195   0.305   8.143   0.877 -0.5173  0.6274 -0.3956
  454MOL0     C61196   0.358   8.150   0.730  0.1883  0.1412 -0.8707
  454MOL0     C61197   0.354   8.287   0.682 -0.6522 -0.1942 -0.7546
  454MOL0     C61198   0.226   8.373   0.691 -0.3820 -0.5215  0.5125
  454MOL0     C61199   0.248   8.513   0.627 -1.4572 -0.4832 -0.4700
  454MOL0    Cl61200   0.431   8.571   0.655  0.3979 -0.1667 -0.3283
  454MOL0     C61201   0.457   7.644   1.268 -0.0781  0.0287 -0.0131
  454MOL0     C61202   0.464   7.572   1.382  0.4629  0.5747  0.1125
  454MOL0     O61203   0.428   7.678   1.777 -0.1206  0.8140  0.0615
  454MOL0     C61204   0.618   7.371   1.722  0.4847 -0.3792  0.7048
  454MOL0     C61205   0.719   7.293   1.783 -1.0621  0.6892 -0.3854
  454MOL0     N61206   1.130   6.823   2.396 -0.3440  0.0420  0.0283
  454MOL0     N61207   1.196   6.723   2.446 -0.5618 -0.3984 -0.1425
  454MOL0     C61208   1.495   6.884   3.448 -0.2708  0.1141 -0.2225
  454MOL0     C61209   1.486   6.885   3.579 -0.1667 -0.9699 -0.3060
  454MOL0     C61210   1.585   6.772   4.005  0.3477  0.1281 -0.1291
  454MOL0     C61211   1.645   6.695   4.109 -0.2315  0.0918  0.2146
  454MOL0     C61212   1.604   6.713   4.238  1.2402  0.3360  0.6695
  454MOL0     C61213   1.509   6.807   4.271  0.0340  0.7557 -0.7040
  454MOL0     O61214   1.482   6.846   4.406  0.3100  0.3061  0.0754
  454MOL0     C61215   1.443   6.733   4.488  0.2344  0.0331 -0.3976
  454MOL0     C61216   1.391   6.765   4.631  0.2274  0.6362  0.5999
  454MOL0     C61217   1.262   6.852   4.617  0.6899 -0.2257 -0.2272
  454MOL0     C61218   1.234   6.958   4.730  0.5601  0.0804  0.2039
  454MOL0     C61219   1.213   6.897   4.861 -0.2583  1.4635 -0.1638
  454MOL0     C61220   1.202   6.836   4.965 -0.0319 -0.3903  1.1069
  454MOL0     C61221   1.469   6.896   4.170  0.2298  0.6278  0.5477
  454MOL0     C61222   1.507   6.885   4.035 -0.2847 -0.3194 -0.3239
  454MOL0     H61223   1.478   6.567   3.649 -0.1620 -0.8725 -1.1699
  454MOL0     H61224   1.467   6.548   3.388 -1.2186 -0.9737 -0.3362
  454MOL0     H61225   1.423   6.586   3.180  4.9574  1.0627 -0.3234
  454MOL0     H61226   1.293   6.716   3.219 -2.5186 -2.1616 -2.2165
  454MOL0     H61227   1.286   6.725   2.989 -1.2033 -3.5332  1.3187
  454MOL0     H61228   1.403   6.845   3.003  2.4412  0.8557  1.8541
  454MOL0     H61229   1.568   6.629   2.969 -0.2842 -0.0603  0.6587
  454MOL0     H61230   1.403   6.557   2.926 -0.0142 -0.4695 -0.0646
  454MOL0     H61231   1.362   6.744   2.769  0.7055  1.7874 -1.5010
  454MOL0     H61232   1.540   6.789   2.782  1.7472 -1.1075 -0.8338
  454MOL0     H61233   1.605   6.560   2.694  0.5688  0.9296  0.1774
  454MOL0     H61234   1.432   6.531   2.647 -0.5699  0.5553 -1.5477
  454MOL0     H61235   1.438   6.761   2.532 -0.6098  0.8337  1.9336
  454MOL0     H61236   1.614   6.745   2.565  0.6772 -2.1869  1.4308
  454MOL0     H61237   1.574   6.635   2.351 -1.3881  2.2123  0.1249
  454MOL0     H61238   1.564   6.488   2.458 -0.2443  0.5906 -0.6094
  454MOL0     H61239   1.327   6.495   2.452  0.2787 -0.9298 -0.3324
  454MOL0     H61240   1.395   6.497   2.291 -5.2779 -2.3516 -0.1782
  454MOL0     H61241   1.365   6.742   2.168  0.6733 -0.6751  0.2865
  454MOL0     H61242   1.211   7.044   2.222 -0.6074 -0.4710  0.6305
  454MOL0     H61243   1.212   6.929   2.094 -0.8138 -2.3286  0.1866
  454MOL0     H61244   0.955   6.987   2.250  0.6678 -2.0853  0.8821
  454MOL0     H61245   0.960   6.887   2.109 -0.1413  1.2234 -3.5627
  454MOL0     H61246   1.049   7.053   1.955 -1.5638 -0.2032 -0.2245
  454MOL0     H61247   1.066   7.163   2.106 -1.2045  2.1103 -0.8236
  454MOL0     H61248   0.815   7.134   2.118 -0.1880 -0.0011 -0.2209
  454MOL0     H61249   0.811   7.084   1.951 -0.4868  1.4300 -1.5650
  454MOL0     H61250   0.708   7.397   2.103 -0.5117  1.2976  0.5575
  454MOL0     H61251   0.396   7.570   2.016 -0.1157 -0.7856 -0.1520
  454MOL0     H61252   0.510   7.497   2.132 -3.0718 -2.5768 -0.9405
  454MOL0     H61253   0.534   7.659   2.048  0.6253 -0.4059  3.5440
  454MOL0     H61254   0.279   7.774   1.581 -1.2821  0.0861 -0.8952
  454MOL0     H61255   0.261   7.899   1.386 -0.8007 -0.4026  1.3066
  454MOL0     H61256   0.547   7.786   1.025  1.6925  1.7315  0.3648
  454MOL0     H61257   0.373   7.753   0.991 -0.1873 -0.3354  1.7271
  454MOL0     H61258   0.511   8.020   1.014 -0.3340 -1.7846  2.7994
  454MOL0     H61259   0.497   7.925   0.870  0.1444 -2.2634  1.3041
  454MOL0     H61260   0.245   7.998   1.030 -0.4506 -1.2334 -0.0745
  454MOL0     H61261   0.246   7.941   0.869 -1.0387  2.0533 -0.5546
  454MOL0     H61262   0.200   8.173   0.873 -0.2401  1.8300  0.8056
  454MOL0     H61263   0.364   8.210   0.940 -2.1653  0.0616  1.9202
  454MOL0     H61264   0.311   8.075   0.665  2.3515 -0.3950 -1.9052
  454MOL0     H61265   0.463   8.118   0.734 -0.5253 -2.3306  1.4512
  454MOL0     H61266   0.426   8.335   0.750 -1.5941  0.9042 -0.4947
  454MOL0     H61267   0.396   8.281   0.581  1.3433 -1.7685  0.0946
  454MOL0     H61268   0.196   8.389   0.795  2.0155 -3.5312  1.8133
  454MOL0     H61269   0.143   8.313   0.653 -0.9648  0.9342 -0.6020
  454MOL0     H61270   0.176   8.585   0.668 -1.0582 -0.7429  0.7266
  454MOL0     H61271   0.239   8.503   0.518 -1.8771  3.4198 -0.9309
  454MOL0     H61272   0.512   7.610   1.180  1.3061  1.4059  0.2734
  454MOL0     H61273   0.517   7.477   1.380 -0.1774  0.2010  0.4124
  454MOL0     H61274   0.603   7.359   1.615  0.5400  1.2544  0.4869
  454MOL0     H61275   0.792   7.229   1.735  1.2698 -0.4563  4.1315
  454MOL0     H61276   1.478   6.970   3.385 -2.3724  0.0287  0.1699
  454MOL0     H61277   1.485   6.978   3.635  4.2347  0.3648 -1.9742
  454MOL0     H61278   1.705   6.617   4.064  0.4710  0.7342  0.0183
  454MOL0     H61279   1.647   6.646   4.312 -1.9707 -2.0416  0.5982
  454MOL0     H61280   1.368   6.678   4.430 -1.4789  2.7461 -0.9099
  454MOL0     H61281   1.539   6.683   4.502  0.4301 -0.1390 -2.1179
  454MOL0     H61282   1.461   6.824   4.691 -0.0040  0.2984  1.2089
  454MOL0     H61283   1.374   6.670   4.683  3.5711  0.1653  1.0599
  454MOL0     H61284   1.178   6.784   4.631 -1.4899  1.7860 -2.5271
  454MOL0     H61285   1.257   6.885   4.512 -3.0943 -2.6284 -1.0148
  454MOL0     H61286   1.151   7.023   4.699  1.4076  1.7730  1.3261
  454MOL0     H61287   1.317   7.027   4.714 -0.0631  0.1529 -4.2151
  454MOL0     H61288   1.192   6.786   5.059  1.2088  0.0161  1.4744
  454MOL0     H61289   1.419   6.989   4.191 -2.1393 -0.3339 -0.4583
  454MOL0     H61290   1.478   6.973   3.978  0.3676 -0.8304 -1.4574
  455MOL0     O61291   3.778   2.352   8.812  0.3706  0.2242  0.8394
  455MOL0     C61292   3.840   2.375   8.912  1.0562 -0.5524 -0.4333
  455MOL0     O61293   3.795   2.443   9.028  0.0018  0.1946  0.5368
  455MOL0     C61294   3.666   2.495   9.033 -0.3696 -0.6674 -0.4227
  455MOL0     C61295   3.593   2.539   8.916 -0.2056 -0.5724  0.2519
  455MOL0     C61296   3.460   2.573   8.929  0.6710  0.9321  0.0249
  455MOL0     C61297   3.395   2.571   9.052 -0.1489 -0.0009 -0.0602
  455MOL0     O61298   3.263   2.599   9.076 -0.7856  0.0478 -0.8085
  455MOL0     C61299   3.182   2.556   8.969  0.3676  1.6064 -1.1739
  455MOL0     C61300   3.034   2.544   8.990  0.8810 -0.1118 -0.8768
  455MOL0     C61301   2.977   2.439   9.086 -0.2169  0.0737  0.3421
  455MOL0     C61302   2.927   2.478   9.226  0.0262 -0.1291 -0.5627
  455MOL0     C61303   2.838   2.372   9.302 -0.8206  0.1162  0.6398
  455MOL0     C61304   2.790   2.415   9.443  0.2626  0.2753 -1.1569
  455MOL0     C61305   2.748   2.288   9.531  0.0533  0.2578  0.0322
  455MOL0     C61306   2.692   2.300   9.675 -0.3572 -0.3787  0.5637
  455MOL0     N61307   2.777   2.385   9.771 -0.3987  0.9259  0.3634
  455MOL0     C61308   2.896   2.336   9.825  0.6285 -0.0560  0.5551
  455MOL0     C61309   2.956   2.444   9.882  0.2718  0.9419 -0.2573
  455MOL0     C61310   3.068   2.447   9.979  0.2143 -0.1650 -0.1756
  455MOL0     C61311   3.203   2.448   9.912 -0.3074  1.1327  0.1290
  455MOL0     C61312   3.249   2.589   9.894  0.8963 -0.5924 -0.8461
  455MOL0     C61313   3.391   2.591   9.835  0.1220 -0.1957 -0.2706
  455MOL0     O61314   3.383   2.536   9.700  0.2618  0.6200  0.1641
  455MOL0     C61315   3.492   2.487   9.632  0.3100 -0.2376 -0.0003
  455MOL0     C61316   3.624   2.529   9.649 -0.7918  0.4780  0.0832
  455MOL0     C61317   3.728   2.469   9.585 -1.3754  0.1674 -0.6239
  455MOL0     C61318   3.871   2.494   9.612  0.9007 -0.7989 -1.2341
  455MOL0     C61319   3.700   2.360   9.490 -0.8609 -0.6717 -0.7999
  455MOL0     C61320   3.810   2.294   9.410 -0.4562  0.6627  1.2478
  455MOL0     O61321   3.771   2.168   9.365  1.3718  0.3090 -0.1899
  455MOL0     C61322   3.845   2.107   9.267  0.2791  0.6657  0.4358
  455MOL0     C61323   3.949   2.025   9.298  0.7610  0.3106 -0.0473
  455MOL0     C61324   4.019   1.952   9.207  0.1069  0.3325 -0.9467
  455MOL0     C61325   3.999   1.972   9.071 -0.3129 -0.4881  0.0232
  455MOL0     O61326   4.090   1.917   8.984 -0.1715 -0.0399 -0.2147
  455MOL0     C61327   4.050   1.889   8.848  0.9197 -0.4836 -0.3409
  455MOL0     C61328   4.150   1.863   8.733 -0.3587  0.6960 -0.7035
  455MOL0     C61329   4.242   1.984   8.725  0.7081 -1.9776 -0.2341
  455MOL0     C61330   4.366   1.965   8.632  0.9387  0.4436 -0.8564
  455MOL0     C61331   4.397   2.083   8.542 -0.6488 -1.3767  0.1587
  455MOL0     C61332   4.514   2.064   8.442  0.2667 -0.4188 -0.6949
  455MOL0     C61333   4.645   2.041   8.512  0.8063  0.0523 -0.0412
  455MOL0     C61334   4.768   2.039   8.435  0.0443  0.7459  0.5228
  455MOL0    Cl61335   4.908   1.991   8.535  0.2881  0.0756  0.5368
  455MOL0     C61336   3.874   2.041   9.039 -0.2760 -0.7135 -0.2224
  455MOL0     C61337   3.811   2.124   9.130 -0.0489  0.2701  0.1463
  455MOL0     O61338   3.909   2.360   9.364 -0.8517 -0.3302  0.6965
  455MOL0     C61339   3.567   2.329   9.460 -0.1586 -0.5093  0.3751
  455MOL0     C61340   3.464   2.390   9.530 -0.2211 -0.1942 -0.0947
  455MOL0     N61341   2.875   2.558   9.859 -0.9862  1.1038  0.4581
  455MOL0     N61342   2.772   2.522   9.791  0.1481  0.6597  0.1459
  455MOL0     C61343   3.465   2.530   9.167  0.0863  1.1196 -0.2928
  455MOL0     C61344   3.600   2.499   9.163 -0.3116  0.5714  0.1286
  455MOL0     C61345   3.983   2.348   8.904 -0.5107 -0.4297  0.7313
  455MOL0     C61346   4.065   2.312   9.007  0.2346 -0.4053 -0.5808
  455MOL0     C61347   4.200   2.298   8.994  0.5723 -0.1958 -0.9408
  455MOL0     C61348   4.266   2.301   8.873  0.0725 -0.8202 -0.0691
  455MOL0     O61349   4.404   2.302   8.853 -0.4503  0.3689  0.6432
  455MOL0     C61350   4.480   2.241   8.962  0.2415  0.7031  0.6649
  455MOL0     C61351   4.618   2.212   8.916  0.1421 -0.9092 -0.7319
  455MOL0     C61352   4.700   2.350   8.893 -0.1671 -0.0775 -0.1136
  455MOL0     C61353   4.793   2.327   8.770  0.6973  0.2482 -1.0115
  455MOL0     C61354   4.866   2.449   8.760 -0.6504  0.5380 -0.6837
  455MOL0     C61355   4.927   2.554   8.732  0.4593  0.5986  0.0400
  455MOL0     C61356   4.182   2.339   8.766 -0.0678 -0.1065 -0.0223
  455MOL0     C61357   4.044   2.369   8.777  0.1360 -0.3616 -0.7912
  455MOL0     H61358   3.647   2.531   8.822  1.3062  0.6907  0.9572
  455MOL0     H61359   3.404   2.598   8.839 -0.4903  2.5304  1.1312
  455MOL0     H61360   3.204   2.624   8.886 -2.0295  0.8618 -2.5190
  455MOL0     H61361   3.208   2.458   8.929  1.8035  1.3045  0.3971
  455MOL0     H61362   2.995   2.638   9.030 -3.7496 -2.2070  0.2261
  455MOL0     H61363   2.980   2.523   8.897  0.6814  2.3740 -1.3973
  455MOL0     H61364   2.888   2.398   9.036 -0.9444  1.4026  0.4911
  455MOL0     H61365   3.044   2.353   9.088 -1.0259 -0.5650  0.2896
  455MOL0     H61366   3.012   2.509   9.287  0.1420 -1.2580 -0.1084
  455MOL0     H61367   2.859   2.563   9.220  0.3776  0.2032  0.0438
  455MOL0     H61368   2.749   2.360   9.240 -2.5496 -0.7712  3.1530
  455MOL0     H61369   2.887   2.274   9.300  2.2819  1.5382 -0.6081
  455MOL0     H61370   2.884   2.455   9.482  1.3633 -0.7576 -2.6685
  455MOL0     H61371   2.706   2.486   9.440 -0.7788 -0.8268  0.4073
  455MOL0     H61372   2.671   2.242   9.468  0.0010 -0.4608  0.6124
  455MOL0     H61373   2.830   2.215   9.533  0.8133  1.0686 -0.5836
  455MOL0     H61374   2.686   2.200   9.720  2.1132 -0.8176  0.0536
  455MOL0     H61375   2.597   2.352   9.664 -0.5982 -0.9498 -0.1079
  455MOL0     H61376   2.942   2.238   9.832  1.1151 -0.0587 -1.8368
  455MOL0     H61377   3.052   2.536  10.041 -2.2837 -0.3928 -0.3933
  455MOL0     H61378   3.050   2.366  10.050 -2.7239 -0.7162 -1.3858
  455MOL0     H61379   3.209   2.400   9.814  0.7295  0.3838  0.5360
  455MOL0     H61380   3.275   2.396   9.977  0.6888  2.6968  0.3258
  455MOL0     H61381   3.258   2.654   9.982  0.9904 -1.9185  0.1521
  455MOL0     H61382   3.178   2.638   9.827 -2.5388  2.7744  4.4858
  455MOL0     H61383   3.459   2.532   9.897  0.8981  0.7523 -0.1941
  455MOL0     H61384   3.417   2.696   9.819 -0.3610 -0.3844 -2.6752
  455MOL0     H61385   3.642   2.614   9.714 -0.2085  0.6880 -0.3401
  455MOL0     H61386   3.939   2.408   9.609 -0.7106 -2.1151 -1.3624
  455MOL0     H61387   3.900   2.577   9.547 -3.1081  2.5099  0.7199
  455MOL0     H61388   3.880   2.540   9.711 -1.0679 -0.6933 -1.0712
  455MOL0     H61389   3.970   2.014   9.404 -1.1210 -1.6547  0.1978
  455MOL0     H61390   4.100   1.898   9.257 -2.1530 -0.4676  2.1551
  455MOL0     H61391   3.988   1.800   8.842 -0.4859  0.5637 -3.3670
  455MOL0     H61392   3.998   1.980   8.816  0.9778  0.2160  1.4351
  455MOL0     H61393   4.198   1.766   8.752  0.1333  0.7873 -1.4701
  455MOL0     H61394   4.092   1.851   8.642 -0.5061  1.9962 -0.8003
  455MOL0     H61395   4.274   2.010   8.827 -1.5158 -0.5433  0.1564
  455MOL0     H61396   4.181   2.065   8.685  3.3995 -0.7011 -2.0901
  455MOL0     H61397   4.452   1.939   8.695 -0.3845  2.3022  1.8874
  455MOL0     H61398   4.348   1.881   8.565 -2.0208 -0.3964  0.8224
  455MOL0     H61399   4.417   2.168   8.608 -1.3759  0.0833 -1.3967
  455MOL0     H61400   4.310   2.105   8.479 -0.5837 -0.0183  0.5156
  455MOL0     H61401   4.497   1.982   8.372 -1.3512  2.1336 -3.5284
  455MOL0     H61402   4.520   2.149   8.372 -0.4202  1.0233  0.9228
  455MOL0     H61403   4.630   1.939   8.549 -1.0992  0.1878 -0.3665
  455MOL0     H61404   4.656   2.106   8.600 -2.3840  0.4937  0.1370
  455MOL0     H61405   4.786   2.138   8.390  1.9006 -0.1835 -0.9178
  455MOL0     H61406   4.765   1.970   8.351  0.4691  0.7934  0.4643
  455MOL0     H61407   3.844   2.047   8.935 -0.0287  1.3290 -0.2226
  455MOL0     H61408   3.727   2.191   9.115 -0.3182 -0.1818 -0.4115
  455MOL0     H61409   3.537   2.256   9.385  0.2799 -0.5461  0.2314
  455MOL0     H61410   3.360   2.376   9.504 -0.2175  3.1455 -2.5366
  455MOL0     H61411   3.427   2.525   9.269  0.2012 -1.2590 -0.3100
  455MOL0     H61412   3.662   2.480   9.250 -0.4403  2.8202  0.7707
  455MOL0     H61413   4.028   2.296   9.108  2.2326  3.1991  0.9138
  455MOL0     H61414   4.253   2.277   9.086  1.7350  2.1442 -0.9851
  455MOL0     H61415   4.487   2.313   9.044  2.0041  1.8320 -0.3888
  455MOL0     H61416   4.437   2.146   8.992 -1.5079  1.0914 -0.4658
  455MOL0     H61417   4.607   2.172   8.815 -0.4067  0.0582 -1.0686
  455MOL0     H61418   4.665   2.136   8.979 -0.0862 -0.4255  0.0317
  455MOL0     H61419   4.758   2.374   8.982 -1.7066  0.0161  0.8814
  455MOL0     H61420   4.625   2.427   8.872  0.2630  0.2545 -0.4528
  455MOL0     H61421   4.738   2.294   8.682 -0.6308  0.4329 -0.2798
  455MOL0     H61422   4.858   2.248   8.809  1.7142  3.6255  5.6418
  455MOL0     H61423   4.981   2.633   8.685 -1.0167  1.6549  0.0387
  455MOL0     H61424   4.236   2.362   8.674  0.9866 -0.6771  0.4461
  455MOL0     H61425   3.983   2.395   8.691 -0.5719  1.3823  0.1883
  456MOL0     O61426   1.537   8.242  10.442  0.1395 -0.3891  0.2120
  456MOL0     C61427   1.551   8.363  10.424  0.9445 -0.2030 -0.4306
  456MOL0     O61428   1.662   8.423  10.377 -0.6433  0.4744 -0.6729
  456MOL0     C61429   1.755   8.350  10.309 -0.2368  0.0049 -0.9644
  456MOL0     C61430   1.886   8.405  10.327 -0.8637  0.0869 -0.3161
  456MOL0     C61431   1.997   8.344  10.258 -0.6598  0.0974  1.0624
  456MOL0     C61432   1.979   8.233  10.177  0.6036 -0.7802 -0.7536
  456MOL0     O61433   2.085   8.168  10.128 -0.6295  0.7500  0.5424
  456MOL0     C61434   2.109   8.198   9.987  0.6155 -0.1209  0.2998
  456MOL0     C61435   2.251   8.148   9.958  0.7597  0.0322 -0.3206
  456MOL0     C61436   2.272   7.991   9.958  0.4212  1.0893 -0.0792
  456MOL0     C61437   2.295   7.942  10.093 -0.0662  0.2676 -0.7899
  456MOL0     C61438   2.326   7.799  10.090 -0.0238  0.3498  0.5276
  456MOL0     C61439   2.382   7.762  10.228 -1.2287 -0.4905  0.0403
  456MOL0     C61440   2.529   7.796  10.242 -0.7550  0.0163 -0.3810
  456MOL0     C61441   2.571   7.752  10.384  0.3730  0.0869  0.8785
  456MOL0     N61442   2.713   7.743  10.408  0.6334  0.4064 -0.1920
  456MOL0     C61443   2.805   7.697  10.319 -0.1435  0.1902  0.5829
  456MOL0     C61444   2.923   7.696  10.391 -0.1208 -1.4421 -1.2018
  456MOL0     C61445   3.051   7.649  10.327  0.4964 -0.0343 -0.0885
  456MOL0     C61446   3.104   7.525  10.392  0.9625 -0.7880  0.4567
  456MOL0     C61447   3.235   7.471  10.334 -0.1433 -0.8684  0.7903
  456MOL0     C61448   3.284   7.335  10.380  0.2474 -0.7484 -0.2520
  456MOL0     O61449   3.291   7.342  10.527 -0.4624  0.8355 -0.0710
  456MOL0     C61450   3.357   7.241  10.592  0.1661 -0.0591 -0.0822
  456MOL0     C61451   3.416   7.281  10.715  0.7248  0.4984  0.4040
  456MOL0     C61452   3.483   7.187  10.802 -0.3407 -0.2339 -0.1860
  456MOL0     C61453   3.537   7.229  10.934 -0.4003  0.5622 -0.1718
  456MOL0     C61454   3.516   7.058  10.750 -0.4679 -0.7003  0.8534
  456MOL0     C61455   3.601   6.948  10.821 -0.2684 -0.8553  0.2214
  456MOL0     O61456   3.640   6.967  10.950 -0.1913  0.2589  0.0025
  456MOL0     C61457   3.707   6.865  11.017 -1.3598  0.0865  0.4244
  456MOL0     C61458   3.670   6.731  11.021  1.9168  0.2858  0.0148
  456MOL0     C61459   3.736   6.638  11.093 -0.4481 -0.0220 -0.0624
  456MOL0     C61460   3.845   6.670  11.164 -0.6826 -0.8827 -1.5060
  456MOL0     O61461   3.908   6.557  11.217 -0.4235  0.6040  0.4668
  456MOL0     C61462   3.998   6.559  11.323  0.5938 -0.0560 -0.2317
  456MOL0     C61463   4.063   6.423  11.344  1.2132 -0.0856 -0.4050
  456MOL0     C61464   4.071   6.379  11.492 -0.6131  0.2451  0.0014
  456MOL0     C61465   4.113   6.230  11.491 -0.4253 -0.3579  0.6163
  456MOL0     C61466   4.259   6.206  11.472 -1.2727  0.2347 -0.5963
  456MOL0     C61467   4.272   6.049  11.469 -0.0358 -1.4150  0.2498
  456MOL0     C61468   4.250   5.978  11.336  0.1509 -0.0103 -0.2513
  456MOL0     C61469   4.304   5.845  11.338 -0.4219 -0.1097 -0.4800
  456MOL0    Cl61470   4.283   5.764  11.175 -0.3497  0.3249  0.2039
  456MOL0     C61471   3.897   6.801  11.166  0.4685  0.5423  0.4415
  456MOL0     C61472   3.818   6.901  11.102 -0.0806  0.7846  0.9348
  456MOL0     O61473   3.624   6.847  10.757  0.4537 -0.3343  0.7186
  456MOL0     C61474   3.447   7.021  10.626  0.0407 -0.2628  0.1639
  456MOL0     C61475   3.368   7.107  10.554  0.5752  0.1914 -0.2425
  456MOL0     N61476   2.900   7.746  10.516 -0.0511 -0.3105  0.2369
  456MOL0     N61477   2.773   7.758  10.528 -0.2675  0.6609 -0.5920
  456MOL0     C61478   1.846   8.188  10.172 -0.5693 -0.0350 -0.4757
  456MOL0     C61479   1.731   8.237  10.229 -0.4153 -0.4381  0.9914
  456MOL0     C61480   1.436   8.440  10.475 -0.0256 -0.8966  0.1077
  456MOL0     C61481   1.311   8.380  10.525 -0.1695  0.4274  0.5411
  456MOL0     C61482   1.201   8.460  10.556  0.1983 -0.4710 -0.1201
  456MOL0     C61483   1.221   8.602  10.543  0.8656  1.0268  1.2177
  456MOL0     O61484   1.099   8.673  10.547 -0.2142  0.6927  0.0904
  456MOL0     C61485   1.102   8.800  10.618 -0.9054 -0.1336  1.2343
  456MOL0     C61486   1.047   8.917  10.532  0.3195  0.4882  0.1557
  456MOL0     C61487   0.927   8.892  10.446  1.3074 -0.4589 -0.5852
  456MOL0     C61488   0.841   9.016  10.417  0.4115  0.0122  0.0749
  456MOL0     C61489   0.729   8.964  10.335  0.7081 -1.2601 -0.7647
  456MOL0     C61490   0.640   8.934  10.260  1.0052 -0.6089  0.5938
  456MOL0     C61491   1.342   8.664  10.514 -0.5810  0.4128  0.4031
  456MOL0     C61492   1.452   8.580  10.483  0.7971  1.1242  0.0406
  456MOL0     H61493   1.899   8.481  10.403  0.0523  0.7571 -1.1210
  456MOL0     H61494   2.100   8.373  10.273 -0.4384 -0.0182 -0.0863
  456MOL0     H61495   2.032   8.157   9.922 -0.0210  4.2243 -2.1089
  456MOL0     H61496   2.094   8.306   9.973 -2.0026  0.0007  3.1311
  456MOL0     H61497   2.276   8.193   9.862 -1.9626 -0.8422 -1.5360
  456MOL0     H61498   2.323   8.186  10.031  0.5077 -0.9387  0.4517
  456MOL0     H61499   2.188   7.939   9.913  0.8820 -1.4693  1.8167
  456MOL0     H61500   2.365   7.982   9.900  0.2407  4.0721 -1.0369
  456MOL0     H61501   2.381   7.990  10.140 -1.9423  0.7721  2.4802
  456MOL0     H61502   2.209   7.946  10.160 -0.2444  1.9194 -1.0834
  456MOL0     H61503   2.234   7.746  10.064 -0.6850 -0.3489  3.7558
  456MOL0     H61504   2.394   7.777  10.008 -2.6500 -0.8180 -1.4969
  456MOL0     H61505   2.321   7.810  10.305 -2.7391 -2.1337 -0.0666
  456MOL0     H61506   2.371   7.656  10.253 -1.1502 -0.5609 -0.2256
  456MOL0     H61507   2.589   7.752  10.162  0.9418 -2.0963  1.8972
  456MOL0     H61508   2.554   7.902  10.239  2.0598 -0.5192  0.7160
  456MOL0     H61509   2.537   7.656  10.424 -0.2238  0.5135  1.4073
  456MOL0     H61510   2.528   7.824  10.454  1.0353  1.9452 -0.5558
  456MOL0     H61511   2.794   7.669  10.215  1.8066  0.3446  0.3001
  456MOL0     H61512   3.031   7.621  10.223  0.6216 -0.9595  0.1255
  456MOL0     H61513   3.123   7.731  10.329  1.0752 -0.4960  2.8005
  456MOL0     H61514   3.029   7.447  10.374  1.1082 -0.2383 -3.3860
  456MOL0     H61515   3.117   7.556  10.496  1.1979  2.1713 -0.3836
  456MOL0     H61516   3.316   7.541  10.356  0.5960 -1.2937 -0.5033
  456MOL0     H61517   3.231   7.475  10.225 -0.8757  2.2134  0.8410
  456MOL0     H61518   3.385   7.322  10.341 -0.4183 -3.6783 -1.1984
  456MOL0     H61519   3.218   7.252  10.355  0.6377 -2.2743  3.1602
  456MOL0     H61520   3.401   7.385  10.745 -1.8747 -0.8710  4.7508
  456MOL0     H61521   3.645   7.243  10.942 -0.6217  2.1410  0.2958
  456MOL0     H61522   3.489   7.320  10.970 -2.1305  0.1975 -1.4400
  456MOL0     H61523   3.508   7.150  11.004 -0.2510  0.9176  0.2899
  456MOL0     H61524   3.589   6.683  10.965  0.7492 -2.1250  3.3907
  456MOL0     H61525   3.704   6.534  11.099  5.2183 -2.0090  1.4914
  456MOL0     H61526   4.069   6.642  11.311 -1.0015  1.7208  1.7028
  456MOL0     H61527   3.954   6.583  11.421  2.3962 -3.3764  1.5466
  456MOL0     H61528   4.003   6.346  11.294  0.1566  1.0131 -0.8546
  456MOL0     H61529   4.160   6.420  11.295  1.0956  0.4882 -0.6802
  456MOL0     H61530   3.970   6.394  11.531 -1.6151 -0.4545 -2.1547
  456MOL0     H61531   4.133   6.437  11.560  0.6996 -0.5666 -0.4503
  456MOL0     H61532   4.074   6.192  11.586 -1.5629  0.1920  0.3920
  456MOL0     H61533   4.046   6.188  11.415 -1.5229 -0.7061  1.7336
  456MOL0     H61534   4.321   6.239  11.556 -0.3474 -2.3205 -0.1920
  456MOL0     H61535   4.307   6.250  11.383  0.9937 -1.2783 -0.2039
  456MOL0     H61536   4.375   6.021  11.491  0.7517  1.0229 -0.0670
  456MOL0     H61537   4.212   6.013  11.553 -0.3794  0.1799  0.7158
  456MOL0     H61538   4.296   6.035  11.255  1.2813 -0.1296  0.2986
  456MOL0     H61539   4.146   5.962  11.304  0.9392 -0.2797 -2.9273
  456MOL0     H61540   4.261   5.782  11.416  1.1819  1.3887  1.7206
  456MOL0     H61541   4.408   5.839  11.370 -0.5486 -0.1555 -0.0804
  456MOL0     H61542   3.979   6.832  11.229  0.2272  2.1444  0.0355
  456MOL0     H61543   3.850   7.004  11.091  3.5657 -0.4853 -4.0491
  456MOL0     H61544   3.450   6.917  10.598  1.4257  0.5772 -3.3208
  456MOL0     H61545   3.343   7.066  10.457  2.0656  0.5703 -0.8287
  456MOL0     H61546   1.838   8.102  10.106  2.0316 -1.9733  1.5279
  456MOL0     H61547   1.631   8.200  10.210  0.0093 -0.0955 -2.5041
  456MOL0     H61548   1.311   8.273  10.541  2.1638  0.1391 -0.8324
  456MOL0     H61549   1.109   8.414  10.591  1.4289 -2.9375  0.0702
  456MOL0     H61550   1.038   8.794  10.706 -1.5189 -1.3249  0.7243
  456MOL0     H61551   1.203   8.823  10.653  0.3628  3.0487 -3.4870
  456MOL0     H61552   1.127   8.944  10.462 -1.3092  2.0639 -1.2066
  456MOL0     H61553   1.032   9.012  10.585 -2.0828  0.5266 -0.4784
  456MOL0     H61554   0.860   8.832  10.507 -2.3580  3.3447 -0.3864
  456MOL0     H61555   0.942   8.833  10.355 -1.2539 -1.5777 -0.3439
  456MOL0     H61556   0.890   9.089  10.352 -0.1671  0.7089  0.4204
  456MOL0     H61557   0.812   9.061  10.512 -0.0065 -1.9887  0.9620
  456MOL0     H61558   0.560   8.922  10.190 -1.0064  0.1701  2.6699
  456MOL0     H61559   1.358   8.771  10.524 -1.0027  0.7504 -1.9954
  456MOL0     H61560   1.546   8.634  10.471 -0.5238  3.5373  0.0727
  457MOL0     O61561   0.602   3.832   3.455 -0.5035  0.1232 -0.5384
  457MOL0     C61562   0.626   3.849   3.575  0.1890  1.5055  0.1504
  457MOL0     O61563   0.701   3.953   3.624  0.5116  0.3715  0.2331
  457MOL0     C61564   0.789   4.033   3.550 -0.6852  0.2738 -0.3003
  457MOL0     C61565   0.838   4.005   3.429 -0.6287  0.4387 -0.6688
  457MOL0     C61566   0.926   4.089   3.360 -0.6851  1.2547 -0.7187
  457MOL0     C61567   0.968   4.211   3.420 -0.0850  0.1200 -0.7046
  457MOL0     O61568   1.067   4.280   3.362 -0.1712 -0.0294 -0.0558
  457MOL0     C61569   1.188   4.295   3.444  0.5098  0.6390  0.7642
  457MOL0     C61570   1.255   4.421   3.387 -0.0608  0.6049 -0.6435
  457MOL0     C61571   1.174   4.554   3.424 -0.6745 -0.2182  0.7850
  457MOL0     C61572   1.171   4.598   3.565 -0.1028  0.7619 -0.4582
  457MOL0     C61573   1.110   4.734   3.579  0.3772 -0.8482 -0.9582
  457MOL0     C61574   1.119   4.786   3.718 -0.7647 -0.3049  0.0407
  457MOL0     C61575   1.064   4.930   3.745 -1.1996 -0.1327 -0.4444
  457MOL0     C61576   1.111   4.986   3.875  0.6993  0.0003 -0.0169
  457MOL0     N61577   1.049   4.924   3.992  1.0238 -0.5202 -0.0154
  457MOL0     C61578   0.932   4.854   4.005  0.3467 -0.7499 -0.2206
  457MOL0     C61579   0.922   4.843   4.141  0.7585 -0.3600  0.1684
  457MOL0     C61580   0.811   4.758   4.205 -0.6614 -0.7615 -0.7521
  457MOL0     C61581   0.805   4.752   4.364  0.4810  0.0025 -0.0688
  457MOL0     C61582   0.700   4.641   4.409  0.3322 -0.2249  0.5623
  457MOL0     C61583   0.699   4.647   4.571  0.0815 -0.2539  0.8262
  457MOL0     O61584   0.834   4.641   4.627 -0.2821  0.4573  0.3812
  457MOL0     C61585   0.868   4.529   4.691  0.0769 -0.4025  0.0204
  457MOL0     C61586   0.814   4.404   4.677 -0.4319  0.4005 -0.8270
  457MOL0     C61587   0.829   4.299   4.763 -0.1260 -0.0307 -0.7414
  457MOL0     C61588   0.800   4.160   4.715  0.2795  0.0097  0.6324
  457MOL0     C61589   0.889   4.328   4.892 -0.6642  0.2461 -0.9861
  457MOL0     C61590   0.919   4.233   4.999 -0.6944  0.5905 -0.0680
  457MOL0     O61591   0.951   4.278   5.124  0.3326  0.1661  0.4487
  457MOL0     C61592   0.997   4.192   5.226  0.8203 -0.3041  0.8402
  457MOL0     C61593   1.127   4.162   5.222  0.6151  1.1829  0.2962
  457MOL0     C61594   1.177   4.081   5.326  0.6328  0.3264  0.0909
  457MOL0     C61595   1.086   4.037   5.424  0.1403  0.0169  0.0491
  457MOL0     O61596   1.140   3.969   5.531 -0.4248 -0.0692  0.9761
  457MOL0     C61597   1.181   3.833   5.514 -0.0104 -0.3595 -0.2504
  457MOL0     C61598   1.115   3.753   5.632 -0.3084  0.0611 -0.1287
  457MOL0     C61599   1.145   3.608   5.640  0.1930 -0.2725 -0.3910
  457MOL0     C61600   1.127   3.520   5.516 -0.5563  0.6316 -0.0678
  457MOL0     C61601   0.986   3.481   5.491  0.5961 -0.6648  0.2315
  457MOL0     C61602   0.969   3.332   5.468  0.6084 -0.0208  0.6473
  457MOL0     C61603   0.833   3.269   5.446 -0.5671  0.0274  0.1329
  457MOL0     C61604   0.756   3.333   5.324 -0.3206  0.0942  0.2640
  457MOL0    Cl61605   0.815   3.280   5.173  0.3252  0.0648 -0.5242
  457MOL0     C61606   0.949   4.063   5.421  0.8820  0.8050  0.4781
  457MOL0     C61607   0.898   4.133   5.315 -0.6097  0.3694  0.0520
  457MOL0     O61608   0.920   4.117   4.975 -0.6692  0.6801 -0.3243
  457MOL0     C61609   0.916   4.457   4.922  0.2203 -0.3215 -0.1244
  457MOL0     C61610   0.912   4.559   4.826 -0.1652  0.0203  1.6394
  457MOL0     N61611   1.008   4.927   4.198  0.3308  0.3376 -0.2495
  457MOL0     N61612   1.092   4.953   4.112 -0.1795 -0.6378  0.0573
  457MOL0     C61613   0.917   4.242   3.545  0.1839 -0.2558  0.6950
  457MOL0     C61614   0.828   4.158   3.603  0.8514 -0.2260 -0.6870
  457MOL0     C61615   0.561   3.753   3.671  0.1574  0.2706 -0.3810
  457MOL0     C61616   0.587   3.755   3.809  0.1206  0.5943  0.3821
  457MOL0     C61617   0.538   3.661   3.901  0.2831  0.6222 -0.3076
  457MOL0     C61618   0.437   3.569   3.854  0.5363 -0.0102 -0.4023
  457MOL0     O61619   0.398   3.479   3.949 -0.3110 -0.5812 -0.1130
  457MOL0     C61620   0.316   3.367   3.921 -0.0275 -0.0125 -0.2491
  457MOL0     C61621   0.301   3.268   4.047  0.8878 -0.3955  0.0929
  457MOL0     C61622   0.252   3.359   4.165  0.0766  0.6069  0.0159
  457MOL0     C61623   0.130   3.442   4.126  0.5759 -1.4081  0.2368
  457MOL0     C61624   0.051   3.467   4.244 -0.2457 -0.2645 -0.2013
  457MOL0     C61625  -0.014   3.504   4.330 -1.0606  0.4149 -0.2043
  457MOL0     C61626   0.413   3.565   3.718 -1.1912  0.0045  0.1656
  457MOL0     C61627   0.473   3.658   3.628 -0.1442 -0.1087 -0.6354
  457MOL0     H61628   0.829   3.918   3.365 -0.8398  2.1084 -3.0501
  457MOL0     H61629   0.960   4.052   3.264  0.9945 -0.0678  0.3309
  457MOL0     H61630   1.157   4.316   3.546  1.3326 -2.9275  1.8943
  457MOL0     H61631   1.244   4.200   3.443  1.1729  1.0236  0.7017
  457MOL0     H61632   1.354   4.435   3.431 -1.1307  0.4389  1.9797
  457MOL0     H61633   1.253   4.414   3.278  0.3587  0.5903 -0.6493
  457MOL0     H61634   1.203   4.634   3.356 -1.4619 -1.3071 -0.8937
  457MOL0     H61635   1.070   4.524   3.406 -0.6040 -1.6709  2.4952
  457MOL0     H61636   1.120   4.517   3.618 -0.1846  0.3960 -1.0877
  457MOL0     H61637   1.271   4.587   3.609  0.0231  1.3465 -0.5816
  457MOL0     H61638   1.171   4.799   3.516  1.2325 -1.8319 -1.1785
  457MOL0     H61639   1.006   4.728   3.545  0.8499  1.2429 -3.0311
  457MOL0     H61640   1.069   4.718   3.788  0.1258  0.1758  1.1839
  457MOL0     H61641   1.227   4.797   3.733 -0.5436  0.4391 -1.8667
  457MOL0     H61642   1.114   5.000   3.678  1.1797 -0.0767  1.2653
  457MOL0     H61643   0.955   4.927   3.747 -1.2265  0.9565  0.9395
  457MOL0     H61644   1.080   5.091   3.875 -0.8514 -0.4214  1.0046
  457MOL0     H61645   1.218   4.994   3.897  0.9217 -2.0268 -0.1106
  457MOL0     H61646   0.874   4.811   3.924  1.8466  0.3637 -1.9611
  457MOL0     H61647   0.712   4.792   4.174  0.3753  2.3728 -0.9499
  457MOL0     H61648   0.822   4.662   4.153  2.4958  0.3496 -2.4631
  457MOL0     H61649   0.788   4.846   4.417  2.1728 -0.5650  1.6249
  457MOL0     H61650   0.899   4.722   4.412 -0.0246 -1.8740 -0.1420
  457MOL0     H61651   0.734   4.539   4.387  0.0787 -0.2362  0.2108
  457MOL0     H61652   0.598   4.657   4.375 -1.2931 -1.7752  4.2367
  457MOL0     H61653   0.638   4.561   4.600 -0.1680  0.2210  1.7706
  457MOL0     H61654   0.638   4.730   4.610  0.3799  0.7160 -0.6867
  457MOL0     H61655   0.781   4.389   4.574 -2.5670 -4.3445  0.2679
  457MOL0     H61656   0.763   4.163   4.612  1.0538  0.6280  0.3634
  457MOL0     H61657   0.887   4.094   4.723  0.4297 -0.0071 -0.8498
  457MOL0     H61658   0.716   4.120   4.774  0.5373  2.0463  2.5230
  457MOL0     H61659   1.195   4.201   5.146  1.4810 -2.2367 -0.8963
  457MOL0     H61660   1.283   4.073   5.348  0.3576  1.5943  2.1566
  457MOL0     H61661   1.168   3.802   5.410  0.7041  2.1650 -1.1883
  457MOL0     H61662   1.290   3.822   5.522  0.0828  0.2970 -0.4894
  457MOL0     H61663   1.149   3.801   5.725  1.8344 -1.1492 -0.2273
  457MOL0     H61664   1.007   3.765   5.640 -0.1602  0.5027  1.5279
  457MOL0     H61665   1.092   3.566   5.725  1.6651  1.3899  1.4455
  457MOL0     H61666   1.251   3.610   5.667 -0.1672 -0.5579  1.1237
  457MOL0     H61667   1.160   3.583   5.433 -0.3808  0.8486  0.1656
  457MOL0     H61668   1.200   3.438   5.523  1.7990  2.1465 -3.8361
  457MOL0     H61669   0.950   3.544   5.409  2.0681 -2.6444 -2.0566
  457MOL0     H61670   0.931   3.506   5.583  0.2482  0.2663 -0.2181
  457MOL0     H61671   1.034   3.297   5.388  0.6573  0.8300  0.3134
  457MOL0     H61672   1.003   3.283   5.560  2.4971 -1.4118 -0.7090
  457MOL0     H61673   0.777   3.286   5.538  3.1280  1.4524  2.3415
  457MOL0     H61674   0.838   3.161   5.428 -1.8990 -0.0464  0.1304
  457MOL0     H61675   0.763   3.442   5.322 -0.7631  0.1993  2.6120
  457MOL0     H61676   0.653   3.299   5.329 -0.1962 -0.5656 -1.1438
  457MOL0     H61677   0.892   4.033   5.508 -1.7488  2.0825 -0.7009
  457MOL0     H61678   0.797   4.171   5.309 -0.8722  0.8796  4.4486
  457MOL0     H61679   0.951   4.482   5.021 -0.0664  2.7231 -0.7006
  457MOL0     H61680   0.944   4.661   4.847  0.8801  0.0358  0.0933
  457MOL0     H61681   0.941   4.343   3.576  0.8579  0.5664 -2.1745
  457MOL0     H61682   0.789   4.187   3.700  0.4999  1.2202 -1.2322
  457MOL0     H61683   0.653   3.834   3.844  1.2263 -0.9430  2.0161
  457MOL0     H61684   0.570   3.667   4.004  1.0428 -1.8865 -0.3285
  457MOL0     H61685   0.220   3.408   3.888  0.6858  2.2102  0.2404
  457MOL0     H61686   0.356   3.322   3.830  5.1181  1.6332  0.8801
  457MOL0     H61687   0.402   3.252   4.084  0.9135 -0.0388  0.1795
  457MOL0     H61688   0.245   3.177   4.026  0.0099 -0.2902  1.7577
  457MOL0     H61689   0.335   3.424   4.195  0.0788  1.0671 -0.9421
  457MOL0     H61690   0.225   3.287   4.243 -0.3081 -1.0280 -1.5598
  457MOL0     H61691   0.082   3.408   4.034  1.2539  2.0694 -1.5867
  457MOL0     H61692   0.171   3.540   4.098 -1.6280 -0.0704  1.4650
  457MOL0     H61693  -0.073   3.544   4.411 -4.4161 -0.5447 -1.9677
  457MOL0     H61694   0.341   3.499   3.673 -1.7155  0.5293  0.2254
  457MOL0     H61695   0.438   3.662   3.525 -0.8291 -1.3218 -0.4636
  458MOL0     O61696   6.957   3.617   9.207  0.8740  0.3894  0.5862
  458MOL0     C61697   6.995   3.536   9.295  1.3289 -1.2818 -0.2962
  458MOL0     O61698   7.114   3.463   9.294  0.7656 -0.1745  0.7125
  458MOL0     C61699   7.192   3.447   9.177 -0.0243  0.1333 -0.6648
  458MOL0     C61700   7.185   3.528   9.060 -0.0763  0.0515 -1.2521
  458MOL0     C61701   7.259   3.486   8.952 -0.6873 -0.5024 -0.1232
  458MOL0     C61702   7.357   3.383   8.952  0.7490  1.2651 -0.3182
  458MOL0     O61703   7.432   3.353   8.834  0.2219 -0.4089 -0.3760
  458MOL0     C61704   7.535   3.254   8.820  0.7853  0.1249 -0.5592
  458MOL0     C61705   7.464   3.121   8.785  0.1777 -0.3664  0.0358
  458MOL0     C61706   7.552   2.999   8.766 -0.4322  0.9504  0.2289
  458MOL0     C61707   7.487   2.892   8.690  1.0580 -0.3669  0.6063
  458MOL0     C61708   7.587   2.770   8.650  0.6328  0.0756  0.8581
  458MOL0     C61709   7.516   2.662   8.584 -0.7474  1.6253  0.2357
  458MOL0     C61710   7.399   2.590   8.650  0.3597 -0.2931 -0.5342
  458MOL0     C61711   7.336   2.497   8.540  0.2228  0.1289 -0.2984
  458MOL0     N61712   7.426   2.392   8.502 -0.0639  0.2147  0.0323
  458MOL0     C61713   7.414   2.330   8.378 -0.6274  0.0172  0.3923
  458MOL0     C61714   7.536   2.271   8.377 -0.1174  0.5147  0.7707
  458MOL0     C61715   7.584   2.197   8.265 -0.1659  0.2063  0.4129
  458MOL0     C61716   7.633   2.290   8.156  0.3343  0.5365  0.2054
  458MOL0     C61717   7.752   2.379   8.198  0.3685 -1.2804  1.1650
  458MOL0     C61718   7.787   2.491   8.090  0.1917 -0.1387 -0.5027
  458MOL0     O61719   7.725   2.464   7.967  0.4055  0.6805  0.1535
  458MOL0     C61720   7.732   2.561   7.875  0.6893 -0.1907  0.9150
  458MOL0     C61721   7.650   2.556   7.758 -0.3220 -1.2831 -0.9811
  458MOL0     C61722   7.664   2.630   7.643 -0.0491  0.3384  1.0148
  458MOL0     C61723   7.593   2.578   7.517  0.1518 -0.3098  0.2861
  458MOL0     C61724   7.764   2.728   7.642  0.5479 -0.6708  1.0091
  458MOL0     C61725   7.788   2.799   7.526 -0.3286  0.2499  0.5197
  458MOL0     O61726   7.919   2.834   7.510 -0.1876  0.0771 -0.6881
  458MOL0     C61727   7.961   2.949   7.439  0.8102 -0.1367 -0.4403
  458MOL0     C61728   7.887   3.071   7.424 -0.1890 -0.4498  0.5608
  458MOL0     C61729   7.943   3.163   7.349  0.1798 -0.0675  0.4460
  458MOL0     C61730   8.067   3.147   7.282 -0.1891 -0.2271  0.5868
  458MOL0     O61731   8.125   3.229   7.191  0.4911 -0.5506  0.3277
  458MOL0     C61732   8.055   3.363   7.183  1.0059 -0.0369 -0.1561
  458MOL0     C61733   8.133   3.476   7.115 -0.4914  0.6678  1.2410
  458MOL0     C61734   8.053   3.600   7.092 -0.9112 -0.2133  0.0177
  458MOL0     C61735   7.967   3.589   6.973  0.1962 -0.1400 -0.1242
  458MOL0     C61736   7.873   3.707   6.930 -1.2772 -0.3347  0.3351
  458MOL0     C61737   7.726   3.689   6.949  0.7214  0.3271  0.3155
  458MOL0     C61738   7.625   3.777   6.884 -0.4974 -0.8902 -0.0063
  458MOL0     C61739   7.648   3.928   6.888 -1.1047 -0.8700  0.2797
  458MOL0    Cl61740   7.666   3.990   7.056  0.1063  0.4696 -0.1845
  458MOL0     C61741   8.126   3.026   7.289 -1.0096  0.2908 -0.2919
  458MOL0     C61742   8.073   2.923   7.365  0.6553  0.7211  0.5501
  458MOL0     O61743   7.690   2.846   7.469  0.4577  0.9873 -0.0373
  458MOL0     C61744   7.842   2.750   7.760  0.6675  0.2015  0.5147
  458MOL0     C61745   7.832   2.667   7.871 -0.2148 -1.0419 -1.1559
  458MOL0     N61746   7.607   2.274   8.487  0.5656 -0.4577  0.1375
  458MOL0     N61747   7.540   2.353   8.563  0.0076  0.0214 -0.3976
  458MOL0     C61748   7.352   3.302   9.072 -0.2473 -0.7218  0.3665
  458MOL0     C61749   7.269   3.329   9.179  0.3664 -0.1047 -0.1717
  458MOL0     C61750   6.917   3.511   9.411 -0.1158 -0.1526  0.8840
  458MOL0     C61751   6.773   3.518   9.411  0.3850  1.0528 -0.3527
  458MOL0     C61752   6.705   3.469   9.521  0.3885 -0.5869  0.4956
  458MOL0     C61753   6.768   3.431   9.640  1.1536  1.2911 -0.3864
  458MOL0     O61754   6.696   3.380   9.749  0.1090  0.1348 -0.2688
  458MOL0     C61755   6.554   3.344   9.740  0.5271 -0.4184  0.3768
  458MOL0     C61756   6.509   3.305   9.878  0.4759 -0.0059 -0.2556
  458MOL0     C61757   6.376   3.223   9.900 -0.1676  0.0472 -0.6721
  458MOL0     C61758   6.247   3.306   9.876  0.2813 -0.3587 -1.0409
  458MOL0     C61759   6.219   3.405   9.992 -0.4088  0.0322 -0.8645
  458MOL0     C61760   6.191   3.498  10.066  0.0380  1.0156 -0.6408
  458MOL0     C61761   6.904   3.424   9.634  0.5606 -0.0298 -1.3885
  458MOL0     C61762   6.978   3.458   9.526  0.4776  0.5938 -0.6676
  458MOL0     H61763   7.123   3.615   9.044 -0.8730 -0.0785  0.8455
  458MOL0     H61764   7.273   3.531   8.854  1.5175 -0.8866 -0.0241
  458MOL0     H61765   7.606   3.285   8.743  3.2753  2.0380  2.2579
  458MOL0     H61766   7.590   3.242   8.915  2.2062  0.2955 -1.3364
  458MOL0     H61767   7.386   3.083   8.852  0.6108 -2.2397 -0.4536
  458MOL0     H61768   7.418   3.132   8.686  1.7264 -4.5480 -1.3763
  458MOL0     H61769   7.640   3.030   8.708 -1.4565  5.1467  0.6348
  458MOL0     H61770   7.583   2.954   8.861  0.6755 -1.1357 -1.0383
  458MOL0     H61771   7.422   2.834   8.756 -0.7493 -2.7279 -2.9563
  458MOL0     H61772   7.424   2.922   8.607  1.3243  0.3910  0.6685
  458MOL0     H61773   7.665   2.812   8.585 -0.8498  0.4539 -0.7453
  458MOL0     H61774   7.622   2.735   8.748  0.4810  3.8126  2.4054
  458MOL0     H61775   7.485   2.704   8.488  0.3365  1.8617 -0.0310
  458MOL0     H61776   7.588   2.581   8.565 -1.9041  0.8237 -0.9610
  458MOL0     H61777   7.430   2.532   8.738 -1.7066  0.2106  0.5932
  458MOL0     H61778   7.312   2.649   8.680  0.3677  0.5496 -2.0909
  458MOL0     H61779   7.317   2.562   8.454 -1.4794  1.5598  1.0713
  458MOL0     H61780   7.247   2.449   8.581 -0.2992  1.5725  0.3565
  458MOL0     H61781   7.350   2.336   8.290 -2.1843  1.1270  1.5585
  458MOL0     H61782   7.666   2.137   8.306 -0.0806  0.3294  0.4216
  458MOL0     H61783   7.496   2.148   8.222 -1.6659 -1.3942  4.7555
  458MOL0     H61784   7.549   2.351   8.122 -1.8458 -0.7424  2.8600
  458MOL0     H61785   7.669   2.238   8.067 -2.1921 -1.3509  0.1617
  458MOL0     H61786   7.836   2.309   8.203  0.1189 -1.6842 -0.0102
  458MOL0     H61787   7.742   2.427   8.296  2.4101 -2.1615  1.8575
  458MOL0     H61788   7.895   2.473   8.091  0.2884 -0.0815  2.6229
  458MOL0     H61789   7.767   2.593   8.124 -0.2360 -0.9256  1.8720
  458MOL0     H61790   7.571   2.482   7.751 -0.6599 -0.8260 -2.2268
  458MOL0     H61791   7.669   2.538   7.450  0.0804  0.8719 -0.5318
  458MOL0     H61792   7.528   2.494   7.542 -1.2269  0.6050 -0.1097
  458MOL0     H61793   7.541   2.655   7.459  1.0011  2.1486  2.5369
  458MOL0     H61794   7.798   3.073   7.487 -0.1419 -0.7043  0.6372
  458MOL0     H61795   7.892   3.259   7.351  0.0822 -0.1265  1.8224
  458MOL0     H61796   7.960   3.352   7.130  2.4181 -1.1043 -2.6771
  458MOL0     H61797   8.035   3.404   7.283  1.3148  1.3906 -0.6550
  458MOL0     H61798   8.225   3.486   7.172  0.7266 -1.9913 -0.1232
  458MOL0     H61799   8.166   3.436   7.019 -0.2602 -1.2220  2.0599
  458MOL0     H61800   8.115   3.690   7.092  1.8185 -1.9617  0.8384
  458MOL0     H61801   7.991   3.626   7.178  2.7084  0.0934  2.7700
  458MOL0     H61802   8.030   3.572   6.885  2.5418  4.0353  0.4719
  458MOL0     H61803   7.906   3.500   6.988  3.2762 -2.3277  0.4211
  458MOL0     H61804   7.896   3.737   6.827  2.1119  2.2093  1.6447
  458MOL0     H61805   7.897   3.795   6.991  1.4541 -0.7685  0.0248
  458MOL0     H61806   7.701   3.588   6.916 -1.5969  0.8827  0.2122
  458MOL0     H61807   7.699   3.704   7.053 -1.1897  2.7274 -0.4275
  458MOL0     H61808   7.529   3.769   6.935  0.2781  1.5642  2.0408
  458MOL0     H61809   7.617   3.750   6.778  0.2991 -1.0524 -0.0307
  458MOL0     H61810   7.561   3.974   6.840 -0.3337 -0.4849 -0.7939
  458MOL0     H61811   7.737   3.954   6.829 -2.1979 -1.8229 -1.8871
  458MOL0     H61812   8.221   3.006   7.241 -0.1116 -0.8274  1.8163
  458MOL0     H61813   8.130   2.831   7.365  1.0299  0.9412  1.7888
  458MOL0     H61814   7.913   2.832   7.753 -2.0954  2.6610 -1.2737
  458MOL0     H61815   7.901   2.683   7.953 -0.3637  2.0868 -1.5187
  458MOL0     H61816   7.393   3.202   9.076 -1.0606 -1.0077  2.7933
  458MOL0     H61817   7.256   3.255   9.257  0.6452 -1.2193 -1.1536
  458MOL0     H61818   6.720   3.534   9.317  1.0489 -1.1131 -1.1553
  458MOL0     H61819   6.600   3.464   9.497  0.5200 -1.5056  0.0972
  458MOL0     H61820   6.497   3.431   9.705  2.6415  0.2072 -1.7702
  458MOL0     H61821   6.547   3.262   9.669 -1.5193  2.1399 -2.6415
  458MOL0     H61822   6.515   3.379   9.959  2.6729  1.4754 -1.6505
  458MOL0     H61823   6.587   3.234   9.906  0.7004 -0.5110 -2.0265
  458MOL0     H61824   6.381   3.173   9.997 -0.9662 -1.5566 -1.4134
  458MOL0     H61825   6.390   3.146   9.823 -1.5028  0.1336 -1.0223
  458MOL0     H61826   6.168   3.231   9.882  0.6178 -0.8223 -2.1941
  458MOL0     H61827   6.237   3.352   9.777 -0.4317 -0.2456 -0.9243
  458MOL0     H61828   6.162   3.555  10.152  0.8820 -1.2967  1.2974
  458MOL0     H61829   6.966   3.382   9.713  1.2158 -0.4979 -2.1361
  458MOL0     H61830   7.083   3.432   9.517  1.0457  0.9535  3.2047
  459MOL0     O61831  11.058   7.504   7.105  0.2146  0.5912 -0.1358
  459MOL0     C61832  11.144   7.444   7.176  0.0958  0.1989  0.2131
  459MOL0     O61833  11.209   7.498   7.278  0.3320  0.3176 -0.4160
  459MOL0     C61834  11.172   7.623   7.327  1.2006  0.9609  0.3080
  459MOL0     C61835  11.037   7.672   7.327 -0.2610  0.0337 -0.0919
  459MOL0     C61836  11.005   7.777   7.411 -0.3089 -0.2503  0.2310
  459MOL0     C61837  11.105   7.839   7.494 -0.2620  0.5836  0.2313
  459MOL0     O61838  11.062   7.949   7.564 -1.0135  1.0254  0.2563
  459MOL0     C61839  11.158   8.056   7.595 -0.3987 -0.1168 -0.2781
  459MOL0     C61840  11.083   8.171   7.651  0.4215  0.6132 -0.1391
  459MOL0     C61841  11.147   8.311   7.611  0.1589  0.3713 -0.7226
  459MOL0     C61842  11.083   8.421   7.698 -1.1576  0.6131  0.6070
  459MOL0     C61843  11.143   8.559   7.661 -0.2477  0.4676 -0.0121
  459MOL0     C61844  11.141   8.604   7.520  0.5395  1.3426 -0.2836
  459MOL0     C61845  11.207   8.731   7.485  0.0326 -0.5999 -0.6016
  459MOL0     C61846  11.347   8.713   7.408 -0.8397  0.9955  0.5207
  459MOL0     N61847  11.389   8.849   7.386 -0.7033  0.3611 -0.1557
  459MOL0     C61848  11.456   8.923   7.475 -0.4400 -0.6513  1.3034
  459MOL0     C61849  11.459   9.046   7.423 -0.6589 -0.9879 -0.6625
  459MOL0     C61850  11.511   9.166   7.501  1.1185 -0.0709 -0.1064
  459MOL0     C61851  11.662   9.169   7.487  0.9606 -0.6471 -0.6269
  459MOL0     C61852  11.736   9.181   7.617 -0.8640 -0.2326 -0.3561
  459MOL0     C61853  11.699   9.295   7.715 -0.3799 -0.7943 -0.6585
  459MOL0     O61854  11.626   9.238   7.816  0.4186  0.0344 -0.2094
  459MOL0     C61855  11.586   9.305   7.931  0.2399 -0.2955 -1.0535
  459MOL0     C61856  11.542   9.227   8.037  0.4139 -0.3461  0.0042
  459MOL0     C61857  11.500   9.277   8.158 -0.0113 -0.2421  0.1667
  459MOL0     C61858  11.460   9.189   8.282  0.3460 -0.3270  0.2506
  459MOL0     C61859  11.495   9.419   8.167  1.0209  0.0730 -0.5970
  459MOL0     C61860  11.445   9.487   8.279 -1.7943  0.0919 -0.1331
  459MOL0     O61861  11.504   9.612   8.297  0.3225  0.0205 -0.0549
  459MOL0     C61862  11.501   9.651   8.423  1.0952 -0.0939 -0.1684
  459MOL0     C61863  11.410   9.752   8.477  0.2303 -0.3687 -1.1696
  459MOL0     C61864  11.410   9.778   8.617  0.6489 -0.6566 -0.3159
  459MOL0     C61865  11.479   9.687   8.697  0.1756  0.7860  0.0209
  459MOL0     O61866  11.462   9.697   8.833 -0.5872  0.0160 -0.5551
  459MOL0     C61867  11.412   9.585   8.912  0.5207 -0.4205 -0.9042
  459MOL0     C61868  11.265   9.566   8.893  0.1342 -1.0085  0.0716
  459MOL0     C61869  11.182   9.690   8.943 -0.6515 -0.6137  0.1566
  459MOL0     C61870  11.120   9.649   9.079  0.0779  0.1763  0.5277
  459MOL0     C61871  11.017   9.752   9.126  0.6261  0.1148 -0.2589
  459MOL0     C61872  11.061   9.896   9.161  0.9997 -0.1476  0.0479
  459MOL0     C61873  10.956  10.002   9.213 -0.4743  1.0312 -0.3152
  459MOL0     C61874  10.881   9.956   9.334  0.0108  0.1863  0.3403
  459MOL0    Cl61875  10.988   9.937   9.475 -0.1182 -0.0733 -0.3252
  459MOL0     C61876  11.584   9.594   8.643  0.3248 -0.7640  0.0404
  459MOL0     C61877  11.593   9.585   8.502 -0.0479  0.3167  0.4684
  459MOL0     O61878  11.360   9.436   8.347  0.2978 -0.4049  0.0046
  459MOL0     C61879  11.537   9.497   8.060 -0.0222 -0.0671 -0.5181
  459MOL0     C61880  11.588   9.441   7.943 -0.6877 -0.1032 -0.7720
  459MOL0     N61881  11.412   9.045   7.299  0.3014  1.2225  0.0238
  459MOL0     N61882  11.358   8.921   7.277 -0.1143  0.0483  0.2327
  459MOL0     C61883  11.238   7.790   7.482 -0.8459  0.6457 -0.6343
  459MOL0     C61884  11.272   7.678   7.402 -0.0090 -0.8101  1.1010
  459MOL0     C61885  11.171   7.304   7.130  0.8315 -0.0022 -0.0520
  459MOL0     C61886  11.159   7.272   6.995  0.5792  0.0491  0.1288
  459MOL0     C61887  11.209   7.148   6.947 -0.6446  0.0089 -0.2578
  459MOL0     C61888  11.271   7.057   7.035 -0.2854 -0.0288  0.3729
  459MOL0     O61889  11.301   6.928   6.995 -0.6148  0.4299 -0.5470
  459MOL0     C61890  11.192   6.859   6.940  0.1769 -0.0260  0.3761
  459MOL0     C61891  11.227   6.764   6.832 -0.3348  0.5481  0.1369
  459MOL0     C61892  11.112   6.656   6.808  0.3580  0.2764 -0.6831
  459MOL0     C61893  11.167   6.547   6.716 -0.1521  0.1541 -0.0247
  459MOL0     C61894  11.214   6.603   6.588  0.3659  0.6644  0.3839
  459MOL0     C61895  11.251   6.645   6.491  0.1960 -0.0304  0.2525
  459MOL0     C61896  11.294   7.098   7.162  0.6292  0.8481 -0.1380
  459MOL0     C61897  11.245   7.215   7.218  0.2476  0.0747  0.3047
  459MOL0     H61898  10.956   7.631   7.267 -1.1798 -1.5039  2.0575
  459MOL0     H61899  10.904   7.814   7.426  0.2808  0.9757  1.4109
  459MOL0     H61900  11.231   8.023   7.669 -0.3336  0.8938  0.1186
  459MOL0     H61901  11.207   8.094   7.504 -0.4312 -2.7345 -1.4745
  459MOL0     H61902  10.987   8.165   7.601  0.1407 -0.6052  0.4993
  459MOL0     H61903  11.082   8.159   7.760  7.2354  0.0923  0.3083
  459MOL0     H61904  11.251   8.309   7.646 -0.6005  1.5906  1.8187
  459MOL0     H61905  11.146   8.332   7.504  1.3902 -1.9330 -1.2745
  459MOL0     H61906  10.974   8.416   7.687 -1.2185  0.8672  1.0987
  459MOL0     H61907  11.102   8.402   7.804 -2.3295  1.2287  0.9519
  459MOL0     H61908  11.080   8.633   7.712 -0.2587  0.0992  0.5191
  459MOL0     H61909  11.246   8.570   7.699 -0.8438 -1.3952  2.4125
  459MOL0     H61910  11.188   8.535   7.451  0.5202 -0.0067  1.0054
  459MOL0     H61911  11.036   8.589   7.491  0.2590  1.8444  0.4190
  459MOL0     H61912  11.132   8.784   7.426 -3.3947 -0.1979  3.5422
  459MOL0     H61913  11.221   8.792   7.575  0.6792 -3.5521  1.4415
  459MOL0     H61914  11.343   8.644   7.322 -2.1229  1.2078  0.3821
  459MOL0     H61915  11.420   8.676   7.480 -1.5950  0.6271  1.1139
  459MOL0     H61916  11.505   8.904   7.570  2.3520 -1.2812 -0.1566
  459MOL0     H61917  11.462   9.254   7.458 -0.9083 -2.3595 -2.8846
  459MOL0     H61918  11.481   9.145   7.604  0.9909  2.4649  0.4577
  459MOL0     H61919  11.690   9.258   7.430  2.1616  0.0357  0.9583
  459MOL0     H61920  11.709   9.080   7.443 -0.0310 -1.4288 -0.1455
  459MOL0     H61921  11.839   9.204   7.590 -0.4984  2.7102  2.9331
  459MOL0     H61922  11.738   9.085   7.669 -0.6095  0.9750  1.9777
  459MOL0     H61923  11.645   9.375   7.664  0.5304 -0.6079 -1.3632
  459MOL0     H61924  11.793   9.337   7.755  0.4599 -2.9865 -0.1688
  459MOL0     H61925  11.532   9.119   8.027  1.6966 -0.7299  2.2845
  459MOL0     H61926  11.507   9.222   8.374 -1.0316  1.2715  0.4301
  459MOL0     H61927  11.351   9.188   8.294  0.5177  2.1172  2.7789
  459MOL0     H61928  11.485   9.084   8.261 -2.9951 -1.1196 -0.5136
  459MOL0     H61929  11.358   9.824   8.415 -0.7345  0.2296  0.2975
  459MOL0     H61930  11.358   9.860   8.665  2.6460  1.6069 -1.7764
  459MOL0     H61931  11.463   9.496   8.876 -2.7053 -2.1315 -1.5781
  459MOL0     H61932  11.426   9.598   9.020  0.8286  3.1717 -1.2387
  459MOL0     H61933  11.240   9.543   8.789 -1.5161  0.0625  0.1843
  459MOL0     H61934  11.242   9.478   8.954 -2.2882  0.1499  0.9768
  459MOL0     H61935  11.102   9.715   8.873 -1.5255  0.5808  1.5216
  459MOL0     H61936  11.248   9.776   8.954  2.0904 -2.2976 -1.8134
  459MOL0     H61937  11.082   9.547   9.065  2.7039 -0.8517  0.2598
  459MOL0     H61938  11.201   9.649   9.152 -0.0191 -0.1152  0.6392
  459MOL0     H61939  10.969   9.723   9.219  1.6125  2.0127  0.8969
  459MOL0     H61940  10.937   9.756   9.051 -1.5159 -4.0416  1.5102
  459MOL0     H61941  11.149   9.899   9.226  2.6977  1.2959 -2.1966
  459MOL0     H61942  11.094   9.944   9.069  0.3948  0.4478  0.1377
  459MOL0     H61943  10.879  10.010   9.135 -2.7921  1.1931  1.8505
  459MOL0     H61944  10.997  10.101   9.235  2.7014  0.5359 -3.3207
  459MOL0     H61945  10.828   9.861   9.318 -0.0240  0.6246 -2.4652
  459MOL0     H61946  10.807  10.032   9.359  1.4674  1.4876  0.8022
  459MOL0     H61947  11.648   9.536   8.708 -0.1874  0.0205  1.2740
  459MOL0     H61948  11.669   9.519   8.460  1.1556  1.5949  0.5541
  459MOL0     H61949  11.542   9.606   8.063 -2.0057  0.0450  0.4303
  459MOL0     H61950  11.629   9.509   7.869  1.8404  2.3599  2.6081
  459MOL0     H61951  11.307   7.843   7.546 -0.0242 -2.0541  0.9198
  459MOL0     H61952  11.372   7.637   7.416 -0.1125 -2.0001 -1.1524
  459MOL0     H61953  11.117   7.348   6.929 -1.3780 -1.2513 -0.1902
  459MOL0     H61954  11.205   7.128   6.840  0.2383  2.6522 -0.8620
  459MOL0     H61955  11.161   6.788   7.017  0.2011 -2.0639 -1.4105
  459MOL0     H61956  11.108   6.921   6.909  1.3137 -0.2417 -3.5784
  459MOL0     H61957  11.318   6.708   6.850 -0.7378  0.0828  0.7703
  459MOL0     H61958  11.252   6.817   6.740 -0.6556  2.0835  0.9030
  459MOL0     H61959  11.025   6.707   6.766  1.9420  1.9256 -2.1532
  459MOL0     H61960  11.084   6.609   6.902  1.3318  1.2383  0.1172
  459MOL0     H61961  11.086   6.478   6.688  0.9185 -0.7074 -1.0978
  459MOL0     H61962  11.247   6.497   6.771 -0.5219 -0.1107  0.2835
  459MOL0     H61963  11.305   6.671   6.402 -0.4836 -0.2531 -0.2301
  459MOL0     H61964  11.337   7.032   7.236  0.2188  0.1427 -0.5157
  459MOL0     H61965  11.258   7.252   7.320 -1.2800  1.0532  0.1762
  460MOL0     O61966   9.732   1.590   1.093  0.2604  0.1623  0.3805
  460MOL0     C61967   9.666   1.506   1.151 -1.4831 -0.3709  0.6840
  460MOL0     O61968   9.698   1.379   1.177  0.0550  0.1204  0.0952
  460MOL0     C61969   9.808   1.331   1.108  0.3529  1.0573 -0.7456
  460MOL0     C61970   9.793   1.248   0.995  0.0719 -0.8040  0.0146
  460MOL0     C61971   9.909   1.203   0.927  0.0026 -0.9066 -0.3857
  460MOL0     C61972  10.038   1.248   0.971  0.9690 -0.3636 -0.2328
  460MOL0     O61973  10.150   1.220   0.903  0.2859  0.1476 -1.0256
  460MOL0     C61974  10.239   1.132   0.967 -0.5733  0.3835 -0.1965
  460MOL0     C61975  10.355   1.210   1.032 -0.0599  0.6140 -0.4396
  460MOL0     C61976  10.435   1.270   0.921 -0.2618  0.7593  0.1720
  460MOL0     C61977  10.569   1.325   0.963  0.9890 -0.1448  0.0966
  460MOL0     C61978  10.682   1.351   0.856  0.1218 -0.3566  0.0611
  460MOL0     C61979  10.717   1.221   0.796  0.2222 -0.5270  0.5777
  460MOL0     C61980  10.862   1.196   0.750 -0.5164  0.3407  0.0154
  460MOL0     C61981  10.885   1.055   0.682 -0.1495 -0.0032 -0.4536
  460MOL0     N61982  11.012   1.029   0.609 -0.3121  0.3294 -0.2760
  460MOL0     C61983  11.122   1.116   0.592  0.5748 -0.6553  0.2115
  460MOL0     C61984  11.196   1.059   0.493 -0.9577  1.2101 -0.9480
  460MOL0     C61985  11.328   1.102   0.441 -0.4471  0.4653 -0.6459
  460MOL0     C61986  11.316   1.202   0.322 -0.2524 -0.2644 -0.6852
  460MOL0     C61987  11.264   1.339   0.370 -0.7979 -0.2795  0.0166
  460MOL0     C61988  11.247   1.443   0.256  0.6942 -1.1846  0.0805
  460MOL0     O61989  11.113   1.504   0.258 -0.4207 -0.0502  0.0376
  460MOL0     C61990  11.003   1.433   0.276  0.5000 -0.1441  0.5945
  460MOL0     C61991  10.980   1.295   0.236 -1.2898 -0.1233 -0.4091
  460MOL0     C61992  10.872   1.224   0.298  0.2864  0.5241  0.0118
  460MOL0     C61993  10.864   1.073   0.264 -0.0496 -0.2632  0.3939
  460MOL0     C61994  10.763   1.295   0.355 -0.5617  0.7226 -0.1940
  460MOL0     C61995  10.634   1.234   0.401 -0.6900 -0.6746  0.1022
  460MOL0     O61996  10.553   1.315   0.467  0.6046 -1.1722 -0.0899
  460MOL0     C61997  10.418   1.279   0.487 -1.0722  0.2745  0.6594
  460MOL0     C61998  10.333   1.190   0.414 -1.0225  0.0211 -0.9213
  460MOL0     C61999  10.203   1.152   0.456 -0.1752 -0.7261 -0.0031
  460MOL0     C62000  10.148   1.219   0.567  0.0088 -0.2151  0.5697
  460MOL0     O62001  10.022   1.197   0.618  0.1604  0.8564 -0.0414
  460MOL0     C62002   9.925   1.286   0.561 -0.6618  0.2653  0.9981
  460MOL0     C62003   9.854   1.206   0.447 -0.0115 -0.2623  0.8757
  460MOL0     C62004   9.822   1.060   0.493  0.9636 -0.6195  0.4121
  460MOL0     C62005   9.696   1.064   0.584 -0.1569 -0.6964 -0.4030
  460MOL0     C62006   9.640   0.921   0.596  0.3259 -0.0907 -0.2603
  460MOL0     C62007   9.528   0.918   0.709 -0.6062 -0.3181 -0.7536
  460MOL0     C62008   9.469   0.779   0.702 -0.3375  1.2859 -0.4024
  460MOL0     C62009   9.352   0.776   0.809 -0.8969 -1.4566 -0.2766
  460MOL0    Cl62010   9.294   0.617   0.801 -0.0261 -0.0977 -0.1346
  460MOL0     C62011  10.234   1.320   0.635  0.1012  0.0837  1.0916
  460MOL0     C62012  10.368   1.351   0.593 -0.3603  0.5326  0.0707
  460MOL0     O62013  10.605   1.121   0.378  0.0753 -0.8278  0.7958
  460MOL0     C62014  10.791   1.423   0.394 -0.4947  0.6921 -0.6691
  460MOL0     C62015  10.917   1.486   0.363 -0.2538  1.0424 -0.5898
  460MOL0     N62016  11.129   0.942   0.450  0.2919 -0.4341  0.1928
  460MOL0     N62017  11.021   0.932   0.514 -0.1816  0.4905  0.7582
  460MOL0     C62018  10.045   1.339   1.073  0.8665 -0.6812  0.1798
  460MOL0     C62019   9.935   1.372   1.143  0.3861  0.1803 -0.8484
  460MOL0     C62020   9.528   1.557   1.168  0.6489  0.0569  0.4298
  460MOL0     C62021   9.491   1.682   1.123  0.5469 -1.1250  0.2653
  460MOL0     C62022   9.353   1.722   1.146 -0.4872 -0.3339  1.0149
  460MOL0     C62023   9.246   1.643   1.205 -0.5938  0.0612 -0.7515
  460MOL0     O62024   9.114   1.667   1.207 -0.0934 -0.4871  0.2170
  460MOL0     C62025   9.056   1.756   1.112  0.6354  0.2503 -0.5676
  460MOL0     C62026   8.907   1.814   1.132  0.8077  0.7828 -0.4778
  460MOL0     C62027   8.815   1.695   1.188  1.0343 -0.7542 -0.0693
  460MOL0     C62028   8.820   1.663   1.341  0.5996  0.2624 -0.3129
  460MOL0     C62029   8.778   1.765   1.438 -0.2128 -0.5858  0.1888
  460MOL0     C62030   8.755   1.848   1.527  0.2790  0.5114  0.4278
  460MOL0     C62031   9.290   1.519   1.255 -0.8028 -0.1376 -0.7208
  460MOL0     C62032   9.433   1.482   1.245 -0.4075  0.3960 -0.5094
  460MOL0     H62033   9.687   1.233   0.980 -0.5406  1.2622  1.6873
  460MOL0     H62034   9.906   1.131   0.846 -3.4958 -1.0376 -0.2817
  460MOL0     H62035  10.183   1.080   1.045  0.1078 -0.7944 -0.4634
  460MOL0     H62036  10.268   1.049   0.901 -0.2168 -1.1671  1.8134
  460MOL0     H62037  10.319   1.284   1.104 -1.6984  0.2445 -0.8541
  460MOL0     H62038  10.404   1.130   1.088  1.7570  2.2574  0.4620
  460MOL0     H62039  10.445   1.203   0.836  2.4303 -1.4114  2.0426
  460MOL0     H62040  10.371   1.347   0.877 -0.6813  0.0207 -0.5223
  460MOL0     H62041  10.533   1.417   1.010  0.5749  0.2682 -1.0121
  460MOL0     H62042  10.602   1.261   1.046 -0.1322  1.3471  1.7732
  460MOL0     H62043  10.648   1.426   0.784 -0.3810 -1.5545 -1.0048
  460MOL0     H62044  10.772   1.390   0.904  0.2100 -0.4323 -0.0407
  460MOL0     H62045  10.683   1.135   0.855 -1.4018 -1.7938 -1.9728
  460MOL0     H62046  10.655   1.218   0.706  1.1827 -1.9106 -0.0893
  460MOL0     H62047  10.873   1.276   0.676 -3.5151 -0.2848 -1.2449
  460MOL0     H62048  10.930   1.205   0.836  2.5261  0.4498 -2.2492
  460MOL0     H62049  10.809   1.031   0.608  0.4602  2.7210 -2.0963
  460MOL0     H62050  10.871   0.984   0.765  2.2128  1.2065  1.1039
  460MOL0     H62051  11.138   1.201   0.658 -0.8964 -0.4676  0.3622
  460MOL0     H62052  11.398   1.145   0.513 -0.1981  0.6420 -0.9910
  460MOL0     H62053  11.385   1.016   0.405  2.4185  1.9192  0.1565
  460MOL0     H62054  11.247   1.163   0.246 -2.5551  0.7907  0.7600
  460MOL0     H62055  11.415   1.215   0.276 -1.3382 -0.0311 -3.1402
  460MOL0     H62056  11.331   1.375   0.449  1.7717 -3.5028 -0.5117
  460MOL0     H62057  11.171   1.337   0.429 -0.0612  2.3205  1.4351
  460MOL0     H62058  11.280   1.406   0.159  1.2414  2.5792 -1.3365
  460MOL0     H62059  11.314   1.524   0.285  1.4334 -3.1081  4.5567
  460MOL0     H62060  11.049   1.241   0.172 -0.0960  0.2510  0.5268
  460MOL0     H62061  10.960   1.027   0.241  1.9372  1.0284  4.9144
  460MOL0     H62062  10.824   1.035   0.358 -0.3017  3.5976  2.0361
  460MOL0     H62063  10.798   1.047   0.181 -0.9157 -2.0351  1.5889
  460MOL0     H62064  10.376   1.137   0.329  1.9149 -1.2779  1.1964
  460MOL0     H62065  10.147   1.086   0.392  0.7307  0.3365 -1.9808
  460MOL0     H62066   9.844   1.310   0.630  1.5495  1.6425  3.3079
  460MOL0     H62067   9.970   1.382   0.534  0.3852 -0.9439 -1.9238
  460MOL0     H62068   9.766   1.256   0.406 -0.2514 -0.6275  0.9376
  460MOL0     H62069   9.918   1.189   0.361 -0.3275 -1.5164  0.8627
  460MOL0     H62070   9.892   1.006   0.556 -2.6266 -2.6809  3.0230
  460MOL0     H62071   9.809   0.996   0.405 -0.7066  0.4127 -0.1379
  460MOL0     H62072   9.710   1.100   0.687 -0.3985  0.0742 -0.6305
  460MOL0     H62073   9.618   1.123   0.534  2.8013  1.3362 -2.9951
  460MOL0     H62074   9.722   0.851   0.616 -0.9362 -1.0485  1.9401
  460MOL0     H62075   9.589   0.889   0.504  3.3429 -1.4855 -1.5818
  460MOL0     H62076   9.555   0.952   0.810 -0.4019  0.1753 -0.9751
  460MOL0     H62077   9.447   0.988   0.687 -0.3957  1.2283  2.7521
  460MOL0     H62078   9.539   0.699   0.729  0.0925  1.8060  0.0419
  460MOL0     H62079   9.436   0.762   0.599 -2.3553  0.8078  0.2766
  460MOL0     H62080   9.284   0.861   0.801  2.4208  1.2923 -1.8428
  460MOL0     H62081   9.408   0.785   0.903 -1.5797  2.0181 -0.0722
  460MOL0     H62082  10.188   1.361   0.725 -1.5639 -0.8965  0.7226
  460MOL0     H62083  10.426   1.424   0.647  0.2925  1.8518 -2.2456
  460MOL0     H62084  10.724   1.489   0.449  0.8272  0.7034  0.9984
  460MOL0     H62085  10.936   1.587   0.397  0.3133  1.6642 -2.6064
  460MOL0     H62086  10.138   1.394   1.081  0.7788 -0.2027 -1.6594
  460MOL0     H62087   9.945   1.455   1.212 -0.1825  0.3568 -0.9705
  460MOL0     H62088   9.562   1.751   1.077 -0.2005 -1.4568 -1.4751
  460MOL0     H62089   9.339   1.824   1.111  0.3021 -0.3622  0.5914
  460MOL0     H62090   9.116   1.846   1.094  1.7430 -0.4686 -0.5338
  460MOL0     H62091   9.049   1.696   1.020  1.5830 -2.2626  0.9071
  460MOL0     H62092   8.880   1.862   1.038  2.9705  2.1705 -0.4711
  460MOL0     H62093   8.913   1.887   1.213  2.8245  0.4727 -0.2878
  460MOL0     H62094   8.847   1.609   1.128 -0.0320 -0.6776 -0.7842
  460MOL0     H62095   8.710   1.715   1.165  0.7577 -1.6742  0.3306
  460MOL0     H62096   8.918   1.623   1.368 -1.6817 -3.5226  3.9185
  460MOL0     H62097   8.747   1.582   1.349 -0.5351  1.1459 -1.3302
  460MOL0     H62098   8.741   1.917   1.607 -1.1484 -1.4503  1.9921
  460MOL0     H62099   9.218   1.454   1.304  0.5278  0.4457  2.2026
  460MOL0     H62100   9.476   1.405   1.308  0.2952  2.4350  1.6907
  461MOL0     O62101   4.961   6.031   2.316 -0.5675  0.6292  0.6745
  461MOL0     C62102   4.899   5.927   2.278  0.7224 -1.0363 -0.5185
  461MOL0     O62103   4.782   5.929   2.213  0.2306 -0.2622  0.7640
  461MOL0     C62104   4.693   6.034   2.198 -0.1555 -0.0252  0.1449
  461MOL0     C62105   4.576   6.000   2.125 -0.2051 -0.6729  0.5010
  461MOL0     C62106   4.476   6.099   2.110 -0.6544  0.5119  0.5684
  461MOL0     C62107   4.484   6.224   2.159 -0.7535 -0.5908 -0.0479
  461MOL0     O62108   4.374   6.310   2.125  0.2788  0.6446 -0.5175
  461MOL0     C62109   4.376   6.450   2.126  0.0087 -0.0596  0.0598
  461MOL0     C62110   4.260   6.513   2.215  0.1014  0.2136 -0.6996
  461MOL0     C62111   4.290   6.451   2.354  0.5481  0.2474  0.4344
  461MOL0     C62112   4.186   6.519   2.438 -0.7552 -0.3977 -0.0281
  461MOL0     C62113   4.207   6.472   2.584  0.5667  0.6904  0.6368
  461MOL0     C62114   4.152   6.324   2.595  0.5109  0.0835 -0.5268
  461MOL0     C62115   4.005   6.307   2.588  0.4363 -0.1430 -0.7580
  461MOL0     C62116   3.928   6.400   2.689 -0.4022  1.2380  0.3760
  461MOL0     N62117   3.975   6.372   2.828  0.1292 -0.0720  0.5017
  461MOL0     C62118   3.892   6.310   2.915 -0.7833 -0.1629 -0.9096
  461MOL0     C62119   3.956   6.338   3.039 -0.0218  0.1006 -0.8458
  461MOL0     C62120   3.898   6.304   3.176 -0.5044  0.2483  0.2126
  461MOL0     C62121   3.782   6.409   3.207  0.6050 -0.1735  0.8193
  461MOL0     C62122   3.819   6.538   3.272  0.7987 -0.5443 -0.2244
  461MOL0     C62123   3.707   6.623   3.342 -0.6090 -0.8848 -0.2652
  461MOL0     O62124   3.631   6.687   3.234 -0.0169  1.1921 -1.1218
  461MOL0     C62125   3.597   6.821   3.254 -0.2146  0.1539  0.1488
  461MOL0     C62126   3.564   6.874   3.380  0.8662 -0.2644  0.2319
  461MOL0     C62127   3.528   7.010   3.389  1.0971  0.0102  0.1601
  461MOL0     C62128   3.494   7.057   3.528 -0.0729  0.4718 -0.2612
  461MOL0     C62129   3.522   7.094   3.272 -0.1258  0.4764  0.0256
  461MOL0     C62130   3.480   7.240   3.280 -0.4661 -0.0275 -0.2326
  461MOL0     O62131   3.484   7.303   3.398  0.0575 -0.1578  0.4322
  461MOL0     C62132   3.456   7.436   3.430 -0.2484 -0.6450 -0.0172
  461MOL0     C62133   3.383   7.475   3.544 -0.5964 -0.3787 -0.1133
  461MOL0     C62134   3.382   7.612   3.585  0.7805 -0.1767 -0.1820
  461MOL0     C62135   3.435   7.713   3.517 -0.1251 -0.1655 -1.1756
  461MOL0     O62136   3.409   7.840   3.559 -0.9447  0.7560  0.2032
  461MOL0     C62137   3.401   7.941   3.459 -0.1002  0.0249 -0.4269
  461MOL0     C62138   3.394   8.082   3.521 -0.1257 -0.1641 -0.1603
  461MOL0     C62139   3.276   8.082   3.625 -0.3326  0.5899  0.7143
  461MOL0     C62140   3.255   8.226   3.671 -0.6291 -0.7835 -0.3815
  461MOL0     C62141   3.184   8.231   3.808  0.5101  1.0069  0.6640
  461MOL0     C62142   3.035   8.282   3.806 -0.4898 -0.1698  0.1730
  461MOL0     C62143   2.982   8.275   3.940 -0.5360 -0.1032  0.4587
  461MOL0     C62144   2.844   8.350   3.949 -0.0572  0.1025 -0.4410
  461MOL0    Cl62145   2.712   8.282   3.856 -0.0121 -0.2679 -0.1409
  461MOL0     C62146   3.516   7.673   3.405 -0.2826  0.2014 -0.0658
  461MOL0     C62147   3.532   7.542   3.368  1.2769  0.6099 -0.0105
  461MOL0     O62148   3.438   7.288   3.175  0.6581  0.5412  0.6066
  461MOL0     C62149   3.548   7.034   3.151  0.4389  0.1809 -0.7885
  461MOL0     C62150   3.594   6.897   3.134 -0.4108 -0.9803 -0.4767
  461MOL0     N62151   4.060   6.421   3.020 -1.1290 -0.4901  0.2181
  461MOL0     N62152   4.078   6.436   2.892 -0.4231 -0.0870  0.1903
  461MOL0     C62153   4.599   6.261   2.226 -0.3491  0.5661  0.2276
  461MOL0     C62154   4.705   6.169   2.238  0.4455 -0.6604 -0.2235
  461MOL0     C62155   4.942   5.789   2.313  0.0953  0.5696  0.7367
  461MOL0     C62156   4.887   5.669   2.261  0.2261  0.6278 -0.2295
  461MOL0     C62157   4.962   5.554   2.285  0.6776  0.3897  0.6179
  461MOL0     C62158   5.080   5.553   2.350 -0.6641  0.0105  0.0601
  461MOL0     O62159   5.144   5.433   2.363 -0.3574 -0.6874 -0.8604
  461MOL0     C62160   5.095   5.336   2.460 -0.8612 -0.1602  0.2399
  461MOL0     C62161   5.192   5.321   2.577 -0.5813 -0.6366  0.7784
  461MOL0     C62162   5.137   5.244   2.694 -0.0853  0.1999 -0.0834
  461MOL0     C62163   5.238   5.145   2.750  1.0647 -0.3639 -0.4131
  461MOL0     C62164   5.284   5.053   2.650  0.3322  0.1358  0.0744
  461MOL0     C62165   5.298   4.972   2.559 -0.7840 -0.2528  0.4515
  461MOL0     C62166   5.133   5.673   2.401 -0.1218  0.3446  0.0169
  461MOL0     C62167   5.066   5.793   2.376  0.3784 -0.5760 -1.0526
  461MOL0     H62168   4.557   5.899   2.090 -0.3245 -0.6072  0.3772
  461MOL0     H62169   4.386   6.082   2.052 -1.3714 -0.3611  1.8849
  461MOL0     H62170   4.472   6.499   2.145 -0.9270  1.9748 -0.1379
  461MOL0     H62171   4.366   6.485   2.023 -0.7625  0.2670  0.2377
  461MOL0     H62172   4.265   6.622   2.211 -0.6005  0.2290 -3.6008
  461MOL0     H62173   4.165   6.468   2.185  0.4114 -2.0079  1.3202
  461MOL0     H62174   4.265   6.345   2.352 -1.9922  0.7764  0.5861
  461MOL0     H62175   4.395   6.469   2.378  1.0356 -0.2780 -1.1838
  461MOL0     H62176   4.193   6.628   2.427 -3.5988 -0.1017  0.3642
  461MOL0     H62177   4.085   6.499   2.401  0.0137  0.7163 -3.0198
  461MOL0     H62178   4.316   6.477   2.598  1.0000  1.4578 -2.2726
  461MOL0     H62179   4.149   6.533   2.652 -4.4169  0.5036 -2.9060
  461MOL0     H62180   4.208   6.252   2.534 -2.3227 -1.0434 -1.9652
  461MOL0     H62181   4.188   6.298   2.694 -1.2550 -0.8938 -0.1119
  461MOL0     H62182   3.979   6.329   2.484  0.0773  2.7865 -0.1368
  461MOL0     H62183   3.980   6.205   2.617 -1.1251  1.2915  3.8744
  461MOL0     H62184   3.820   6.385   2.680 -0.6811  4.1027 -3.1579
  461MOL0     H62185   3.954   6.501   2.656 -1.4096  0.8058 -1.8833
  461MOL0     H62186   3.798   6.259   2.896 -2.0966  1.1404  1.4935
  461MOL0     H62187   3.863   6.201   3.179 -0.5868  0.2895  0.7367
  461MOL0     H62188   3.974   6.307   3.254  1.2947  5.3194 -1.3124
  461MOL0     H62189   3.701   6.367   3.267  0.3012  0.9335  1.2036
  461MOL0     H62190   3.740   6.436   3.109  2.0673  2.0111  0.7120
  461MOL0     H62191   3.865   6.610   3.204  1.5967 -0.0629  0.7806
  461MOL0     H62192   3.879   6.517   3.361 -0.5146  1.4473  1.2272
  461MOL0     H62193   3.740   6.705   3.406  0.5311 -1.2585 -0.3601
  461MOL0     H62194   3.648   6.559   3.409 -2.3328 -0.5407 -1.3832
  461MOL0     H62195   3.564   6.805   3.464  1.0170 -3.0231 -1.8617
  461MOL0     H62196   3.399   7.109   3.544  1.2313  4.1165 -2.8655
  461MOL0     H62197   3.505   6.973   3.597 -2.0370  1.5084  1.4414
  461MOL0     H62198   3.572   7.131   3.551  1.4175 -0.7441 -1.1869
  461MOL0     H62199   3.338   7.403   3.613  0.6086  0.8460  2.0473
  461MOL0     H62200   3.339   7.649   3.677  0.9090  0.3506 -0.3294
  461MOL0     H62201   3.495   7.930   3.403  2.2817  0.3037  3.1475
  461MOL0     H62202   3.308   7.924   3.404 -2.2207 -3.5792  3.6448
  461MOL0     H62203   3.485   8.094   3.580 -0.4557 -0.5941  0.4500
  461MOL0     H62204   3.397   8.157   3.442 -0.1449 -0.5739 -0.5561
  461MOL0     H62205   3.306   8.013   3.704  1.0557  1.7466  1.2480
  461MOL0     H62206   3.188   8.045   3.572  1.5587 -1.1245 -1.4652
  461MOL0     H62207   3.351   8.276   3.686 -0.7010 -0.9411  0.6596
  461MOL0     H62208   3.195   8.279   3.596 -0.0474 -0.0683 -0.3486
  461MOL0     H62209   3.238   8.298   3.876 -1.5702  0.8942  2.5492
  461MOL0     H62210   3.183   8.135   3.861 -2.5295  0.7033  0.2436
  461MOL0     H62211   3.028   8.385   3.772 -0.4471  0.6589  2.4778
  461MOL0     H62212   2.981   8.213   3.740  0.7075 -1.3124  0.3348
  461MOL0     H62213   3.043   8.339   4.005 -1.3374  2.6372 -1.2815
  461MOL0     H62214   2.981   8.169   3.964 -0.0989 -0.4913 -1.1161
  461MOL0     H62215   2.863   8.457   3.938  5.5611 -0.2229  2.4788
  461MOL0     H62216   2.807   8.342   4.051  0.7150  1.0690 -0.0686
  461MOL0     H62217   3.566   7.753   3.351 -2.4870  1.7976  0.1148
  461MOL0     H62218   3.586   7.518   3.278  0.4342  2.6830 -1.1389
  461MOL0     H62219   3.523   7.086   3.059  1.5946  1.5192 -0.3777
  461MOL0     H62220   3.611   6.847   3.039 -5.3303 -0.7365 -1.7560
  461MOL0     H62221   4.626   6.358   2.265  1.4587  1.0859 -2.0980
  461MOL0     H62222   4.789   6.193   2.303  1.6828 -2.4828 -1.0470
  461MOL0     H62223   4.798   5.664   2.199 -0.4143  0.2890  0.7005
  461MOL0     H62224   4.930   5.462   2.236 -0.9137  1.9527 -1.4320
  461MOL0     H62225   4.991   5.361   2.483 -1.1209 -0.4906 -0.5513
  461MOL0     H62226   5.096   5.237   2.413  1.6750  0.1263 -0.4297
  461MOL0     H62227   5.228   5.419   2.610 -0.6063 -1.0070  1.9867
  461MOL0     H62228   5.291   5.278   2.558 -1.0008 -1.0833 -0.4339
  461MOL0     H62229   5.050   5.185   2.665 -0.0173 -1.0609  2.0348
  461MOL0     H62230   5.102   5.323   2.760  0.4847  0.8869 -0.5865
  461MOL0     H62231   5.207   5.080   2.833  2.2742 -0.4493 -0.0055
  461MOL0     H62232   5.319   5.210   2.786  0.4879  1.9381 -2.9138
  461MOL0     H62233   5.297   4.908   2.474 -0.8407  0.1376  0.1563
  461MOL0     H62234   5.235   5.674   2.438 -0.5065  0.0923  1.1109
  461MOL0     H62235   5.107   5.883   2.420  2.6016 -2.4852  1.0482
  462MOL0     O62236   3.133   5.979   9.285 -0.3098 -0.0848 -0.1219
  462MOL0     C62237   3.126   6.012   9.164 -0.2692  0.8687  0.0175
  462MOL0     O62238   3.209   6.101   9.101  0.7481 -0.1845 -0.4485
  462MOL0     C62239   3.308   6.160   9.172  0.7367  0.2609 -0.4281
  462MOL0     C62240   3.427   6.166   9.105  0.2885 -0.1120  0.0317
  462MOL0     C62241   3.547   6.219   9.160 -0.1999 -0.5543 -0.2576
  462MOL0     C62242   3.538   6.275   9.283  0.2675  1.3459  0.1183
  462MOL0     O62243   3.647   6.311   9.357  0.5532  1.2129  0.3860
  462MOL0     C62244   3.780   6.308   9.301  0.2337  0.7416 -0.3198
  462MOL0     C62245   3.891   6.331   9.410  1.2409  0.3989 -0.0063
  462MOL0     C62246   3.894   6.220   9.512  0.4622  0.3036 -0.5337
  462MOL0     C62247   4.023   6.242   9.595  1.0637  0.4009 -1.2041
  462MOL0     C62248   4.048   6.123   9.687 -0.3260  0.2500 -0.1069
  462MOL0     C62249   4.184   6.146   9.764 -0.6674 -0.5203  0.8483
  462MOL0     C62250   4.177   6.214   9.899 -0.3830  0.1070  0.2281
  462MOL0     C62251   4.313   6.267   9.956  0.3643 -0.2602  0.2971
  462MOL0     N62252   4.309   6.320  10.094 -0.4649 -0.2094  0.1716
  462MOL0     C62253   4.221   6.413  10.149  0.8264  0.0974 -0.4624
  462MOL0     C62254   4.258   6.418  10.282  0.6483  1.0268 -1.0503
  462MOL0     C62255   4.211   6.518  10.377 -0.2671 -0.9370 -0.6406
  462MOL0     C62256   4.229   6.666  10.339 -0.1498 -0.2789  0.4610
  462MOL0     C62257   4.149   6.763  10.419  0.4362 -0.0353 -0.3223
  462MOL0     C62258   3.992   6.768  10.395  0.0755  0.1346 -0.4270
  462MOL0     O62259   3.976   6.789  10.257  0.2613  0.4136 -0.0466
  462MOL0     C62260   3.841   6.769  10.212 -0.2150 -0.9924  0.0270
  462MOL0     C62261   3.722   6.734  10.282  0.8915  0.8963 -0.3601
  462MOL0     C62262   3.594   6.730  10.221 -0.3955 -0.0764  0.9962
  462MOL0     C62263   3.477   6.724  10.325 -0.1411  0.4884  0.5738
  462MOL0     C62264   3.588   6.752  10.076 -0.7480  0.0173 -0.5099
  462MOL0     C62265   3.462   6.764   9.988  0.5710 -0.0329  0.0159
  462MOL0     O62266   3.469   6.823   9.869 -0.9395 -0.7153  0.7119
  462MOL0     C62267   3.375   6.836   9.772  0.1748  0.6110 -0.2928
  462MOL0     C62268   3.428   6.843   9.641 -0.6610 -0.2267  0.5368
  462MOL0     C62269   3.348   6.837   9.531 -1.0588  1.2603 -0.2741
  462MOL0     C62270   3.212   6.831   9.551  0.7095 -0.1873 -0.0116
  462MOL0     O62271   3.115   6.847   9.461  0.6629 -0.0492 -0.5034
  462MOL0     C62272   3.149   6.860   9.315  0.6674 -0.8985 -0.4447
  462MOL0     C62273   3.188   7.004   9.282  0.4076  0.6168 -0.0305
  462MOL0     C62274   3.078   7.111   9.303  0.8489 -0.4351 -0.2702
  462MOL0     C62275   3.119   7.261   9.276  0.5240  0.4650  0.0322
  462MOL0     C62276   3.174   7.281   9.134  0.3983  1.1690  1.0737
  462MOL0     C62277   3.216   7.418   9.103 -0.4560  0.6300  0.6763
  462MOL0     C62278   3.327   7.428   9.007 -0.1032 -0.0723 -0.0174
  462MOL0     C62279   3.384   7.575   8.970  0.7512 -0.3364  0.0826
  462MOL0    Cl62280   3.243   7.673   8.909 -0.2023  0.1625  0.5603
  462MOL0     C62281   3.158   6.836   9.685  0.0486  0.4544  0.7342
  462MOL0     C62282   3.237   6.836   9.799 -0.2990 -0.4753 -0.4503
  462MOL0     O62283   3.361   6.731  10.042 -0.7452 -0.1758 -0.4999
  462MOL0     C62284   3.711   6.788  10.013  0.0607  0.5477  1.1565
  462MOL0     C62285   3.837   6.804  10.081  0.1048  0.2470  0.5848
  462MOL0     N62286   4.362   6.327  10.303 -0.5131 -0.3439 -0.7275
  462MOL0     N62287   4.378   6.263  10.194 -0.3710  0.7684  0.3603
  462MOL0     C62288   3.414   6.272   9.353 -0.5010  0.1581  0.8218
  462MOL0     C62289   3.299   6.211   9.302  0.2330 -0.3684  0.1914
  462MOL0     C62290   3.025   5.943   9.082  1.0430 -0.0192 -0.1153
  462MOL0     C62291   3.046   5.901   8.954  0.0347 -0.4655  0.2901
  462MOL0     C62292   2.940   5.843   8.886 -0.0283  0.2957 -0.0650
  462MOL0     C62293   2.815   5.822   8.944  0.7029  0.6099 -0.6805
  462MOL0     O62294   2.720   5.762   8.865 -0.3481 -0.4795 -0.0898
  462MOL0     C62295   2.585   5.783   8.897  0.0780  0.8215  0.3878
  462MOL0     C62296   2.506   5.824   8.775 -0.5162  0.1608  0.6920
  462MOL0     C62297   2.514   5.722   8.673  0.1518 -0.4504  0.7859
  462MOL0     C62298   2.470   5.760   8.542  0.2117 -0.0493  0.5248
  462MOL0     C62299   2.329   5.793   8.535  0.5478 -1.0396  1.0290
  462MOL0     C62300   2.208   5.811   8.516 -0.8042 -0.2892  0.0076
  462MOL0     C62301   2.796   5.850   9.082 -0.5522  0.1877 -0.5683
  462MOL0     C62302   2.902   5.919   9.150  0.7229 -0.5435 -0.2104
  462MOL0     H62303   3.420   6.125   9.005 -0.8849 -1.8653  0.7905
  462MOL0     H62304   3.632   6.228   9.094  0.3171 -3.0670 -0.0183
  462MOL0     H62305   3.794   6.211   9.253 -1.8412  1.5735 -2.8668
  462MOL0     H62306   3.804   6.383   9.225  1.5036  0.1265 -0.5501
  462MOL0     H62307   3.989   6.337   9.360  0.2939  0.7044 -1.9192
  462MOL0     H62308   3.850   6.419   9.460 -0.9682 -0.9582  0.6719
  462MOL0     H62309   3.809   6.218   9.581  0.4584 -1.0817 -0.5567
  462MOL0     H62310   3.907   6.123   9.465 -2.5980 -0.3488 -0.2295
  462MOL0     H62311   4.102   6.247   9.519  1.8230  2.8541 -0.3701
  462MOL0     H62312   4.024   6.330   9.660  3.5276 -1.5614  1.6879
  462MOL0     H62313   3.965   6.124   9.759 -1.5096  3.2721 -1.3568
  462MOL0     H62314   4.042   6.033   9.625 -1.8321 -0.8246  1.4773
  462MOL0     H62315   4.228   6.046   9.773  1.6152  0.5192  2.4564
  462MOL0     H62316   4.247   6.212   9.703  0.9114 -2.1565  0.5952
  462MOL0     H62317   4.124   6.309   9.889  0.4228  0.4918 -0.6180
  462MOL0     H62318   4.130   6.139   9.963 -0.0177  2.8363  3.9819
  462MOL0     H62319   4.364   6.336   9.888 -1.1086  0.7797  0.1913
  462MOL0     H62320   4.386   6.185   9.949 -0.2985 -0.8212 -0.1350
  462MOL0     H62321   4.147   6.468  10.091  0.5074 -0.8006 -0.9309
  462MOL0     H62322   4.113   6.498  10.422 -0.0363 -0.1429  0.2661
  462MOL0     H62323   4.281   6.508  10.461 -2.7056 -2.1732  1.4096
  462MOL0     H62324   4.206   6.677  10.232  0.0430 -0.7049  0.3744
  462MOL0     H62325   4.336   6.689  10.347 -0.3431  0.3757  1.2476
  462MOL0     H62326   4.192   6.860  10.391  1.7686  0.3395  2.6094
  462MOL0     H62327   4.176   6.753  10.524  2.7151  2.0264 -0.6183
  462MOL0     H62328   3.945   6.841  10.462 -1.3843  0.0159 -1.2706
  462MOL0     H62329   3.957   6.671  10.432 -0.2682  0.6727  0.7076
  462MOL0     H62330   3.730   6.708  10.387  0.9995  2.9202  0.1866
  462MOL0     H62331   3.518   6.661  10.404  2.8021 -4.1429 -3.9869
  462MOL0     H62332   3.440   6.821  10.359 -0.3810  0.6079 -0.0071
  462MOL0     H62333   3.403   6.654  10.286 -1.9537  0.8554  3.1028
  462MOL0     H62334   3.536   6.844   9.627 -0.8726  3.4877 -2.1374
  462MOL0     H62335   3.390   6.839   9.431 -2.4216 -5.0472 -1.3736
  462MOL0     H62336   3.236   6.798   9.289  1.6652  0.4207 -0.3483
  462MOL0     H62337   3.061   6.838   9.254  0.8871 -0.6920 -0.8362
  462MOL0     H62338   3.268   7.011   9.355 -0.3430 -2.5225  1.2817
  462MOL0     H62339   3.238   7.016   9.186 -0.1798 -1.5523 -0.6778
  462MOL0     H62340   3.036   7.107   9.404 -6.2869  3.0274 -2.4277
  462MOL0     H62341   2.985   7.081   9.253  0.1220  0.5696  0.4478
  462MOL0     H62342   3.033   7.328   9.290 -1.0586 -1.7691  1.6460
  462MOL0     H62343   3.190   7.288   9.354 -1.9507  0.1500  2.5605
  462MOL0     H62344   3.100   7.255   9.058  0.9763  0.3945  0.7509
  462MOL0     H62345   3.260   7.215   9.114  0.9005  1.5263  1.9684
  462MOL0     H62346   3.129   7.480   9.078 -1.7759 -0.4180  2.3777
  462MOL0     H62347   3.257   7.456   9.197  2.9697 -1.9701  0.4043
  462MOL0     H62348   3.312   7.366   8.918  1.5595 -0.9804  0.2931
  462MOL0     H62349   3.415   7.373   9.042 -0.4093 -2.2598 -2.4214
  462MOL0     H62350   3.460   7.563   8.892 -0.5330 -1.6427 -1.0464
  462MOL0     H62351   3.419   7.626   9.060 -2.3148 -0.4244  1.4477
  462MOL0     H62352   3.054   6.854   9.710  0.2728 -1.0637  3.0374
  462MOL0     H62353   3.196   6.836   9.899 -2.0651  0.8724 -1.1111
  462MOL0     H62354   3.713   6.814   9.908  2.9776 -1.5502  0.5860
  462MOL0     H62355   3.921   6.828  10.016 -0.8591 -1.3939 -1.3631
  462MOL0     H62356   3.405   6.305   9.456 -1.8607  2.0012  0.1719
  462MOL0     H62357   3.213   6.215   9.367  0.2882  0.1625  0.2362
  462MOL0     H62358   3.139   5.926   8.904  0.7069  0.9028  2.1100
  462MOL0     H62359   2.963   5.827   8.781 -1.8409  1.3773 -0.6666
  462MOL0     H62360   2.543   5.693   8.943 -0.6434  1.3126  0.7151
  462MOL0     H62361   2.572   5.848   8.985  1.9404 -1.0257  2.1446
  462MOL0     H62362   2.551   5.917   8.741 -0.1136  0.3094  1.5947
  462MOL0     H62363   2.399   5.845   8.792 -0.6487  1.8099 -1.7766
  462MOL0     H62364   2.455   5.635   8.705 -1.1854  0.0384 -0.2489
  462MOL0     H62365   2.613   5.676   8.669 -0.0414 -0.8067 -0.2626
  462MOL0     H62366   2.504   5.676   8.480  3.3088  1.0881  0.4874
  462MOL0     H62367   2.531   5.845   8.509  1.4194 -1.7076 -1.8635
  462MOL0     H62368   2.102   5.824   8.503 -0.9248 -0.3139  0.9270
  462MOL0     H62369   2.698   5.838   9.127  0.3935 -0.2431  1.5002
  462MOL0     H62370   2.873   5.961   9.246  2.2793 -0.1649  0.1145
  463MOL0     O62371   7.789   5.373   5.773 -0.2433 -0.1743 -0.4220
  463MOL0     C62372   7.744   5.447   5.685 -1.4846  0.6885 -1.1007
  463MOL0     O62373   7.728   5.408   5.554  0.1612 -0.8687 -0.4454
  463MOL0     C62374   7.688   5.283   5.524  0.3517  0.3238 -0.1095
  463MOL0     C62375   7.660   5.173   5.614  0.2425  0.2461  0.5549
  463MOL0     C62376   7.610   5.051   5.566 -0.1122  0.4751 -0.8197
  463MOL0     C62377   7.602   5.032   5.428 -0.1941 -0.2359  0.3757
  463MOL0     O62378   7.568   4.910   5.386  0.4957  0.9386 -0.9399
  463MOL0     C62379   7.642   4.827   5.300  0.3967  0.2572 -0.1000
  463MOL0     C62380   7.553   4.710   5.239 -1.4170 -0.2376 -0.7674
  463MOL0     C62381   7.507   4.607   5.345 -1.0949  0.0905 -0.2876
  463MOL0     C62382   7.492   4.479   5.283 -0.0772  0.6403 -0.2741
  463MOL0     C62383   7.423   4.369   5.369 -0.7982  1.3472  0.3686
  463MOL0     C62384   7.476   4.223   5.331  0.8218  0.3545  0.2823
  463MOL0     C62385   7.432   4.178   5.195  1.0907 -0.1543 -0.6133
  463MOL0     C62386   7.454   4.034   5.169  0.1095 -0.2965 -0.1368
  463MOL0     N62387   7.599   4.029   5.130  0.4386 -0.4376 -0.3741
  463MOL0     C62388   7.645   3.963   5.016 -0.5697 -0.1193 -0.2128
  463MOL0     C62389   7.777   3.939   5.038 -0.1881  0.0272 -0.3245
  463MOL0     C62390   7.871   3.872   4.947  0.4829  0.2106 -0.5507
  463MOL0     C62391   8.011   3.930   4.935 -0.6249  0.0021 -1.1277
  463MOL0     C62392   8.017   4.076   4.897 -0.9190 -0.2472 -0.3572
  463MOL0     C62393   8.150   4.103   4.833  0.4998 -0.4273 -0.6231
  463MOL0     O62394   8.149   4.044   4.702 -0.6521  0.1051  0.3569
  463MOL0     C62395   8.180   4.111   4.592  0.4122 -0.4619  0.1647
  463MOL0     C62396   8.139   4.049   4.469 -0.4004  0.0336 -0.2241
  463MOL0     C62397   8.155   4.110   4.348  0.4099  0.6771  0.5514
  463MOL0     C62398   8.100   4.028   4.222 -0.5225 -0.4821 -0.4596
  463MOL0     C62399   8.240   4.224   4.338  0.1364  0.4984 -0.0016
  463MOL0     C62400   8.290   4.288   4.220  0.7046  0.1579  0.5253
  463MOL0     O62401   8.403   4.368   4.221 -1.1071  0.8767  0.4580
  463MOL0     C62402   8.435   4.431   4.103 -0.1911 -0.1253  0.1394
  463MOL0     C62403   8.390   4.558   4.073 -0.1917  0.8480 -0.0922
  463MOL0     C62404   8.407   4.605   3.944 -0.0193 -0.0828 -0.0160
  463MOL0     C62405   8.465   4.531   3.838 -0.4130 -0.2468 -0.5453
  463MOL0     O62406   8.476   4.580   3.709 -0.4286 -0.0250 -0.0841
  463MOL0     C62407   8.489   4.723   3.691 -0.1348  0.7370  0.3387
  463MOL0     C62408   8.560   4.751   3.568  0.4707  0.1393  0.3677
  463MOL0     C62409   8.688   4.676   3.568 -0.1741 -0.4234 -0.7857
  463MOL0     C62410   8.774   4.701   3.447 -0.8300  0.9608 -0.0652
  463MOL0     C62411   8.899   4.609   3.437 -0.0997 -0.1584  0.1803
  463MOL0     C62412   8.870   4.459   3.418 -0.0503 -0.6231  0.3670
  463MOL0     C62413   8.994   4.370   3.387 -0.4004 -0.4427 -0.2036
  463MOL0     C62414   8.960   4.220   3.392  0.4967  0.4927  0.2341
  463MOL0    Cl62415   9.087   4.102   3.334 -0.3547  0.1439 -0.5827
  463MOL0     C62416   8.525   4.409   3.874  1.2043  1.2014 -0.4855
  463MOL0     C62417   8.501   4.356   4.006 -0.1231 -0.4029 -0.0902
  463MOL0     O62418   8.229   4.273   4.118  0.3685 -0.4904 -0.0439
  463MOL0     C62419   8.277   4.287   4.456  0.0940 -0.2225 -1.0562
  463MOL0     C62420   8.246   4.232   4.581 -0.2476 -0.5928 -0.2420
  463MOL0     N62421   7.805   3.977   5.172 -0.2927 -0.5917  0.4865
  463MOL0     N62422   7.698   4.019   5.223  0.0458  0.5336 -0.4299
  463MOL0     C62423   7.626   5.133   5.339 -0.6424 -0.6641  0.7843
  463MOL0     C62424   7.654   5.262   5.390  0.0353 -0.7188  0.0157
  463MOL0     C62425   7.725   5.581   5.734  1.3150 -0.3046  0.4737
  463MOL0     C62426   7.748   5.622   5.867  0.2079  0.5367  0.6572
  463MOL0     C62427   7.740   5.758   5.909 -0.0165  0.5116  1.5472
  463MOL0     C62428   7.699   5.859   5.819  0.0137 -0.0445 -0.5161
  463MOL0     O62429   7.709   5.994   5.862 -0.1424 -0.1734 -0.6919
  463MOL0     C62430   7.648   6.096   5.775  0.4819  0.0950 -0.6170
  463MOL0     C62431   7.498   6.101   5.795  0.3031  0.6090  0.9866
  463MOL0     C62432   7.450   6.130   5.945 -0.2986  0.5324  0.4016
  463MOL0     C62433   7.304   6.156   5.929 -0.4680 -0.2070  0.4969
  463MOL0     C62434   7.231   6.171   6.054 -0.3023 -0.7360 -0.4903
  463MOL0     C62435   7.177   6.184   6.168 -0.2336  0.7155  0.3459
  463MOL0     C62436   7.659   5.815   5.688  1.1188 -0.3707 -0.5594
  463MOL0     C62437   7.668   5.683   5.651  0.0068 -0.2123 -0.7121
  463MOL0     H62438   7.669   5.187   5.722  1.7842 -2.2295  0.8236
  463MOL0     H62439   7.578   4.975   5.636  1.0130  0.8574  0.1379
  463MOL0     H62440   7.672   4.886   5.212 -1.0096  0.8624 -0.1953
  463MOL0     H62441   7.731   4.782   5.345  2.5960  4.6268  0.4290
  463MOL0     H62442   7.471   4.743   5.174 -2.4513 -1.7605 -0.2838
  463MOL0     H62443   7.624   4.669   5.166 -1.1074  0.6336 -0.9793
  463MOL0     H62444   7.576   4.588   5.428 -2.4783  1.7920  1.3401
  463MOL0     H62445   7.416   4.645   5.393 -0.0560  0.1777  1.6972
  463MOL0     H62446   7.436   4.491   5.190 -0.2690 -1.8525 -0.5373
  463MOL0     H62447   7.590   4.440   5.254  0.0871  0.6670  0.2231
  463MOL0     H62448   7.418   4.372   5.478 -0.4686 -3.6988  0.7917
  463MOL0     H62449   7.317   4.361   5.346 -0.3922  1.6844 -1.8025
  463MOL0     H62450   7.585   4.225   5.338  0.7688 -1.0023  2.7993
  463MOL0     H62451   7.442   4.153   5.409 -0.1502  1.8547  1.2562
  463MOL0     H62452   7.325   4.198   5.186  0.8568 -1.9248 -2.8212
  463MOL0     H62453   7.469   4.242   5.114  2.4209 -0.9584 -0.6770
  463MOL0     H62454   7.394   3.994   5.087 -1.9967  2.6195 -0.1842
  463MOL0     H62455   7.434   3.969   5.255  5.3140 -1.6837  0.3382
  463MOL0     H62456   7.600   3.917   4.929  1.0683 -3.2144  0.4326
  463MOL0     H62457   7.872   3.765   4.967 -0.4316  0.4550  0.9381
  463MOL0     H62458   7.829   3.872   4.846 -0.6029  2.5154 -0.1814
  463MOL0     H62459   8.072   3.867   4.869 -3.1085 -0.9576 -2.6177
  463MOL0     H62460   8.051   3.922   5.037 -2.9674  0.8903 -0.0658
  463MOL0     H62461   8.010   4.140   4.986 -1.4367  1.0206 -1.2839
  463MOL0     H62462   7.935   4.095   4.827 -0.9688 -3.3454 -1.2882
  463MOL0     H62463   8.239   4.076   4.891 -0.6471 -3.7682 -0.1844
  463MOL0     H62464   8.149   4.211   4.816  2.9283 -0.6682 -2.9864
  463MOL0     H62465   8.080   3.957   4.472 -2.6581  1.3403 -1.6225
  463MOL0     H62466   8.048   3.933   4.238  1.3526 -1.4719  0.1439
  463MOL0     H62467   8.038   4.093   4.160  0.0753 -0.3477 -0.9293
  463MOL0     H62468   8.185   4.007   4.157  0.1233  2.4648 -0.7007
  463MOL0     H62469   8.336   4.614   4.149  0.3148 -1.0536  1.7653
  463MOL0     H62470   8.367   4.700   3.910  0.7350 -1.0313 -4.1651
  463MOL0     H62471   8.388   4.764   3.694 -1.9082 -3.2945  2.0291
  463MOL0     H62472   8.547   4.773   3.770 -1.5421  1.8580  0.7007
  463MOL0     H62473   8.492   4.737   3.484 -1.6876  0.8392  1.8962
  463MOL0     H62474   8.578   4.859   3.563 -0.0699  0.1890 -3.4811
  463MOL0     H62475   8.681   4.567   3.572  0.9761 -0.7320 -3.9069
  463MOL0     H62476   8.750   4.700   3.655  0.4889  2.5155 -1.9482
  463MOL0     H62477   8.717   4.686   3.354  0.8922 -1.3872 -0.8340
  463MOL0     H62478   8.804   4.807   3.445 -1.5422  1.2653 -4.0531
  463MOL0     H62479   8.964   4.614   3.524 -0.5958 -1.6151  0.6712
  463MOL0     H62480   8.955   4.647   3.352 -2.5928  3.5067 -0.0638
  463MOL0     H62481   8.824   4.426   3.511 -0.1254 -1.2690  0.1085
  463MOL0     H62482   8.797   4.448   3.337  0.9256  1.3607 -0.8726
  463MOL0     H62483   9.066   4.392   3.466 -2.2485  0.9147  1.1786
  463MOL0     H62484   9.031   4.383   3.285  0.2980  0.2469  0.1256
  463MOL0     H62485   8.867   4.202   3.338  0.9573  1.2333 -0.8320
  463MOL0     H62486   8.936   4.202   3.497 -1.5304  2.7598  0.2392
  463MOL0     H62487   8.573   4.364   3.788 -1.7758  0.6061 -1.9809
  463MOL0     H62488   8.534   4.254   4.024 -3.5664 -1.3639  1.4747
  463MOL0     H62489   8.340   4.375   4.454 -2.6179  1.8700 -0.8130
  463MOL0     H62490   8.269   4.293   4.667  0.3888 -1.4977  0.2379
  463MOL0     H62491   7.618   5.125   5.231  2.0508  3.5272  0.0446
  463MOL0     H62492   7.674   5.352   5.333 -3.8923  2.4822  3.0507
  463MOL0     H62493   7.753   5.544   5.942 -1.8108 -3.1704 -2.6753
  463MOL0     H62494   7.754   5.788   6.012 -1.9949  1.5704  1.5522
  463MOL0     H62495   7.694   6.192   5.799  1.4499 -0.3674 -0.5454
  463MOL0     H62496   7.671   6.087   5.668 -1.9510  0.6997 -1.2593
  463MOL0     H62497   7.465   6.001   5.764 -1.3529  1.2708  0.4890
  463MOL0     H62498   7.446   6.166   5.724 -3.0603  1.1954  3.7322
  463MOL0     H62499   7.488   6.227   5.976 -0.2921  1.6039 -2.6473
  463MOL0     H62500   7.467   6.047   6.015 -3.7123  1.1416  2.2000
  463MOL0     H62501   7.266   6.073   5.869  2.5570  0.5144 -2.7332
  463MOL0     H62502   7.291   6.247   5.871 -0.5814 -0.4018  0.2136
  463MOL0     H62503   7.100   6.189   6.241  0.0104 -0.8665  0.7511
  463MOL0     H62504   7.624   5.889   5.616 -0.6337 -1.3604 -0.7605
  463MOL0     H62505   7.638   5.644   5.554  2.5153 -2.3112 -0.7825
  464MOL0     O62506   6.042   0.911   2.705 -0.3779  0.1970 -0.9339
  464MOL0     C62507   6.022   0.806   2.656  0.4699  1.4446  0.5373
  464MOL0     O62508   6.089   0.686   2.695 -0.0367  0.4154  0.7776
  464MOL0     C62509   6.152   0.674   2.818 -0.6759 -0.0084  0.4234
  464MOL0     C62510   6.148   0.768   2.926  0.1924  0.0229 -1.1499
  464MOL0     C62511   6.218   0.742   3.042 -0.0167  1.4445 -0.6526
  464MOL0     C62512   6.281   0.616   3.062 -0.2802 -0.8263 -0.1801
  464MOL0     O62513   6.354   0.571   3.174  0.2145  0.4972 -0.1219
  464MOL0     C62514   6.328   0.633   3.299  1.1354  0.4865  0.0352
  464MOL0     C62515   6.215   0.550   3.369  0.2334 -0.0080 -0.1752
  464MOL0     C62516   6.154   0.630   3.484  0.5717 -0.5729  0.3885
  464MOL0     C62517   6.066   0.756   3.445  0.2343 -0.0990 -0.1724
  464MOL0     C62518   6.012   0.846   3.562 -1.0360  0.6043 -0.6624
  464MOL0     C62519   6.111   0.866   3.685 -0.1106  0.1246  1.1403
  464MOL0     C62520   6.217   0.966   3.639  0.3809 -0.3967 -0.0022
  464MOL0     C62521   6.323   0.964   3.744 -0.3946 -0.7308  0.0411
  464MOL0     N62522   6.303   1.052   3.865  0.6983  0.9333 -0.7124
  464MOL0     C62523   6.321   1.189   3.871  0.3471  0.6094 -0.2741
  464MOL0     C62524   6.341   1.214   4.000 -0.2850 -0.0554 -0.3687
  464MOL0     C62525   6.372   1.360   4.054 -0.3595  0.1851 -0.6215
  464MOL0     C62526   6.280   1.408   4.165  0.8152 -0.4144  0.2339
  464MOL0     C62527   6.126   1.403   4.144  0.2425 -0.6066  0.0272
  464MOL0     C62528   6.061   1.443   4.276 -0.0469 -0.8053  0.4784
  464MOL0     O62529   5.914   1.442   4.254 -0.4571  0.1778  1.1899
  464MOL0     C62530   5.830   1.505   4.341  0.2587  0.6105 -0.4993
  464MOL0     C62531   5.870   1.590   4.436 -0.0931 -0.1171 -0.1791
  464MOL0     C62532   5.766   1.642   4.516  0.2539  0.7213  0.6106
  464MOL0     C62533   5.818   1.734   4.627  0.7035 -0.4603 -0.1070
  464MOL0     C62534   5.626   1.604   4.504 -0.4742  0.1959  0.4928
  464MOL0     C62535   5.516   1.661   4.589 -0.3792 -0.4538  0.2601
  464MOL0     O62536   5.543   1.746   4.699 -0.0179 -0.0013 -0.1124
  464MOL0     C62537   5.431   1.799   4.754  0.0115 -0.6670  0.2812
  464MOL0     C62538   5.387   1.742   4.873 -0.9630  0.1267 -0.3264
  464MOL0     C62539   5.276   1.783   4.943 -0.5576 -0.1197 -0.0811
  464MOL0     C62540   5.191   1.880   4.889 -0.2370 -0.7936 -0.0046
  464MOL0     O62541   5.061   1.885   4.955 -0.9659 -0.2538 -0.5237
  464MOL0     C62542   4.965   1.952   4.872 -0.2056 -0.2729  0.3039
  464MOL0     C62543   4.830   1.957   4.942  0.0796 -0.7858  0.5888
  464MOL0     C62544   4.730   2.027   4.838  0.3937  0.2471  0.4328
  464MOL0     C62545   4.745   2.180   4.822  1.3873  0.1682  0.7509
  464MOL0     C62546   4.703   2.269   4.941 -0.7676 -0.6553  0.6708
  464MOL0     C62547   4.815   2.367   4.974  0.2488 -0.4299 -0.0620
  464MOL0     C62548   4.855   2.456   4.865  0.8794 -0.1480  0.5415
  464MOL0     C62549   4.833   2.607   4.884  0.6361 -0.5331 -0.0564
  464MOL0    Cl62550   4.732   2.673   5.010 -0.0134 -0.0218 -0.2681
  464MOL0     C62551   5.230   1.939   4.766  0.6967  0.5919 -0.2514
  464MOL0     C62552   5.350   1.905   4.700  0.4656  0.4155 -0.1502
  464MOL0     O62553   5.402   1.620   4.559 -0.4176 -0.0829  0.1049
  464MOL0     C62554   5.601   1.513   4.412  1.0605  0.4091  0.3031
  464MOL0     C62555   5.700   1.473   4.327  0.4939  0.5952 -0.2893
  464MOL0     N62556   6.311   1.102   4.069  0.7779  0.1595 -0.7174
  464MOL0     N62557   6.292   1.001   3.993 -0.1047 -0.8899  0.4600
  464MOL0     C62558   6.289   0.528   2.954  0.8237  0.5026 -0.1336
  464MOL0     C62559   6.231   0.561   2.836  1.7274  0.0189  0.1071
  464MOL0     C62560   5.933   0.795   2.537 -0.8189 -1.1753  1.0304
  464MOL0     C62561   5.812   0.860   2.524  0.4367 -0.9966  0.0403
  464MOL0     C62562   5.727   0.839   2.411 -0.3402  0.4458 -0.3809
  464MOL0     C62563   5.763   0.755   2.303 -0.1582 -0.2328  0.2997
  464MOL0     O62564   5.693   0.728   2.192 -0.0723 -0.4292  0.2217
  464MOL0     C62565   5.567   0.791   2.158 -0.0658  0.1543  0.1182
  464MOL0     C62566   5.550   0.785   2.004 -0.5390  0.4443  0.3785
  464MOL0     C62567   5.420   0.864   1.966  1.0892 -0.2099 -0.5683
  464MOL0     C62568   5.392   0.847   1.815  0.0637  0.0180 -0.4704
  464MOL0     C62569   5.261   0.903   1.781  0.0560  0.5678  0.1286
  464MOL0     C62570   5.158   0.946   1.741  0.2230 -0.0848  0.8787
  464MOL0     C62571   5.885   0.697   2.307 -0.0520  0.5061 -1.0654
  464MOL0     C62572   5.975   0.720   2.421 -0.3376 -0.5067 -0.5254
  464MOL0     H62573   6.083   0.855   2.922 -0.2027 -0.2515 -0.7304
  464MOL0     H62574   6.199   0.813   3.123 -1.5475  1.7359 -1.2315
  464MOL0     H62575   6.409   0.610   3.369 -1.2651 -3.5810  1.8755
  464MOL0     H62576   6.303   0.739   3.294 -3.9577 -0.4413  0.2996
  464MOL0     H62577   6.148   0.507   3.294 -2.5046 -1.1171  2.6776
  464MOL0     H62578   6.258   0.459   3.411  1.4337 -0.1338 -1.5889
  464MOL0     H62579   6.086   0.560   3.533  1.4526 -0.1641  2.2821
  464MOL0     H62580   6.229   0.666   3.555  1.0087  2.8050 -1.5373
  464MOL0     H62581   6.137   0.820   3.391 -0.9195 -0.1025 -1.7501
  464MOL0     H62582   5.981   0.739   3.378 -0.4798 -1.1128  0.9379
  464MOL0     H62583   5.985   0.946   3.525 -3.0256  0.1188 -0.6114
  464MOL0     H62584   5.917   0.802   3.593 -0.8308  0.9862  0.5787
  464MOL0     H62585   6.054   0.902   3.772 -3.4241 -4.1759  1.0759
  464MOL0     H62586   6.146   0.770   3.721 -2.2596 -1.0210  0.3898
  464MOL0     H62587   6.250   0.929   3.541  3.9720  0.7893  0.6035
  464MOL0     H62588   6.187   1.069   3.619  1.3490  0.3607  2.0949
  464MOL0     H62589   6.421   0.994   3.705 -0.9748 -0.8116 -1.5410
  464MOL0     H62590   6.332   0.861   3.779  2.9151 -1.9251 -3.6031
  464MOL0     H62591   6.344   1.269   3.800 -1.3517  1.8670  0.5122
  464MOL0     H62592   6.478   1.350   4.078 -1.0017 -2.0421  1.8374
  464MOL0     H62593   6.366   1.431   3.971  1.6185  0.4580 -0.5774
  464MOL0     H62594   6.313   1.496   4.221  0.6155 -1.6755  2.4411
  464MOL0     H62595   6.300   1.328   4.237 -3.4233 -2.2544 -0.3428
  464MOL0     H62596   6.108   1.298   4.119  0.9316 -1.5648  3.0609
  464MOL0     H62597   6.097   1.457   4.054 -1.3321 -0.1231  0.7964
  464MOL0     H62598   6.101   1.540   4.305  2.4162 -1.4487 -0.5541
  464MOL0     H62599   6.093   1.370   4.351  2.3885 -0.2657  0.0273
  464MOL0     H62600   5.969   1.636   4.435  0.5112 -1.4037 -1.3458
  464MOL0     H62601   5.799   1.838   4.596 -1.7017  0.1196  2.8675
  464MOL0     H62602   5.789   1.708   4.729  0.0784  1.3457  0.2137
  464MOL0     H62603   5.926   1.718   4.617  0.8478 -0.9215  1.7871
  464MOL0     H62604   5.448   1.665   4.920  1.6186  3.0756  1.5777
  464MOL0     H62605   5.247   1.744   5.040  5.6492 -1.1300  1.7911
  464MOL0     H62606   4.992   2.055   4.848 -1.4153 -0.3603 -1.6727
  464MOL0     H62607   4.956   1.899   4.776  1.0091  1.0914 -0.5975
  464MOL0     H62608   4.789   1.857   4.957 -3.4289  0.8276  3.2333
  464MOL0     H62609   4.844   2.005   5.039  2.7091  0.3327 -0.2411
  464MOL0     H62610   4.624   2.020   4.862  0.2562  1.4737  0.2670
  464MOL0     H62611   4.737   1.958   4.753 -3.9501 -2.3477  1.8507
  464MOL0     H62612   4.847   2.207   4.794  1.4776  1.0513  1.8509
  464MOL0     H62613   4.674   2.195   4.740  1.3141 -0.4613  0.6914
  464MOL0     H62614   4.682   2.199   5.022  0.3634 -1.8273  0.0089
  464MOL0     H62615   4.615   2.328   4.914  0.0734  0.3773  0.0809
  464MOL0     H62616   4.789   2.427   5.062  3.8069  1.8189 -0.3129
  464MOL0     H62617   4.901   2.310   5.010 -0.1589 -0.6718  0.5509
  464MOL0     H62618   4.784   2.443   4.783 -0.2658  1.7709  1.1482
  464MOL0     H62619   4.953   2.428   4.826 -0.5559 -2.5431 -1.6068
  464MOL0     H62620   4.794   2.636   4.786 -1.5327  1.5696  1.3158
  464MOL0     H62621   4.927   2.663   4.882 -0.1703  0.9184 -2.6085
  464MOL0     H62622   5.175   2.016   4.713 -2.6003 -2.4927 -1.7314
  464MOL0     H62623   5.389   1.957   4.614  0.0568  2.8396  1.0576
  464MOL0     H62624   5.502   1.473   4.390  0.6676  1.0019  0.9572
  464MOL0     H62625   5.665   1.399   4.256 -1.3974  0.7188  0.4440
  464MOL0     H62626   6.343   0.434   2.962 -0.0447  0.1113  1.6917
  464MOL0     H62627   6.235   0.502   2.744 -0.4882 -2.9204  1.7087
  464MOL0     H62628   5.780   0.913   2.614 -0.2354  0.1116 -0.8299
  464MOL0     H62629   5.638   0.901   2.411 -0.1251  0.9275 -3.2853
  464MOL0     H62630   5.485   0.753   2.220 -3.1274  3.6380 -1.4076
  464MOL0     H62631   5.570   0.896   2.189 -2.7305 -0.3787  2.6606
  464MOL0     H62632   5.563   0.684   1.965 -0.7623  1.2752 -1.9904
  464MOL0     H62633   5.630   0.852   1.971  0.2651  0.0581  1.4812
  464MOL0     H62634   5.434   0.971   1.986  1.3951 -0.7429  2.3956
  464MOL0     H62635   5.332   0.831   2.021 -0.5934  3.4393 -0.7462
  464MOL0     H62636   5.389   0.744   1.777 -2.0163  0.9673 -3.3005
  464MOL0     H62637   5.469   0.897   1.756 -1.5917  0.5386 -2.3289
  464MOL0     H62638   5.076   0.994   1.691 -0.8040 -1.2372  1.4112
  464MOL0     H62639   5.917   0.633   2.226  4.5849  0.6348  0.3672
  464MOL0     H62640   6.076   0.682   2.416 -0.1595  0.0334 -1.2335
  465MOL0     O62641   5.851   0.064   4.829 -0.4248 -0.0224 -0.7426
  465MOL0     C62642   5.803   0.175   4.843  0.6033  0.1027  1.0181
  465MOL0     O62643   5.864   0.281   4.916 -0.2236  0.4647  0.0794
  465MOL0     C62644   5.963   0.242   4.999 -0.4183 -0.4191 -0.0508
  465MOL0     C62645   6.085   0.324   4.991  0.0919 -0.1617  0.3542
  465MOL0     C62646   6.197   0.283   5.072  0.1955 -0.8715  0.2081
  465MOL0     C62647   6.201   0.162   5.146  0.4392 -0.3038 -0.6552
  465MOL0     O62648   6.315   0.121   5.212  1.0886 -0.4002  0.6973
  465MOL0     C62649   6.437   0.097   5.139  0.6349 -1.3157 -1.1265
  465MOL0     C62650   6.475  -0.054   5.135  0.9751  0.3581  0.7781
  465MOL0     C62651   6.362  -0.131   5.057  0.5826 -0.0090 -0.0260
  465MOL0     C62652   6.348  -0.104   4.904 -0.8206  0.4935  0.5034
  465MOL0     C62653   6.246  -0.193   4.824 -0.1622 -0.4814  0.2209
  465MOL0     C62654   6.099  -0.183   4.870  0.0267 -0.7292 -0.4096
  465MOL0     C62655   6.010  -0.251   4.765  0.8746  0.2425  0.2005
  465MOL0     C62656   5.951  -0.386   4.821  0.7424 -0.1614  0.5754
  465MOL0     N62657   5.829  -0.359   4.895  0.4034 -0.5794 -0.0579
  465MOL0     C62658   5.815  -0.288   5.009 -0.6797 -1.0501 -0.0495
  465MOL0     C62659   5.682  -0.268   5.014 -0.2361  0.3100 -0.1289
  465MOL0     C62660   5.601  -0.191   5.117  0.5749 -0.0980 -0.8068
  465MOL0     C62661   5.595  -0.274   5.246 -0.3725  0.7456 -0.1735
  465MOL0     C62662   5.516  -0.406   5.223 -0.4679  0.3275 -0.1091
  465MOL0     C62663   5.371  -0.400   5.188  0.2665  0.1937 -0.2706
  465MOL0     O62664   5.291  -0.342   5.295  0.8188 -0.0383  0.1376
  465MOL0     C62665   5.226  -0.441   5.361  0.1088  0.8661 -0.7407
  465MOL0     C62666   5.272  -0.477   5.490  0.6151 -0.2899  0.0988
  465MOL0     C62667   5.212  -0.585   5.556 -0.9344 -0.2968  0.2235
  465MOL0     C62668   5.273  -0.638   5.695 -0.1508 -0.4853 -0.2413
  465MOL0     C62669   5.113  -0.672   5.496 -0.0751 -1.2777  0.1976
  465MOL0     C62670   5.037  -0.778   5.564 -0.1393 -0.0492  0.1400
  465MOL0     O62671   4.978  -0.867   5.478  0.0176 -0.9421  0.5835
  465MOL0     C62672   4.924  -0.983   5.532 -0.0783  0.4292  1.1176
  465MOL0     C62673   5.013  -1.067   5.590 -0.2547  0.0657 -0.4037
  465MOL0     C62674   4.970  -1.201   5.627  0.2685  0.6001 -0.1166
  465MOL0     C62675   4.838  -1.243   5.603 -0.5935 -0.1265 -1.3923
  465MOL0     O62676   4.792  -1.360   5.657  0.7589 -0.4193 -0.5379
  465MOL0     C62677   4.692  -1.437   5.581 -0.5673 -0.6434  0.6247
  465MOL0     C62678   4.723  -1.482   5.440 -0.3515 -0.3797 -0.3976
  465MOL0     C62679   4.854  -1.559   5.442 -0.5215  0.5717  0.0282
  465MOL0     C62680   4.881  -1.620   5.307  0.5310 -0.5452 -0.3450
  465MOL0     C62681   4.894  -1.771   5.334  0.0446 -0.1832 -0.2123
  465MOL0     C62682   4.931  -1.822   5.198 -0.0328  0.9096  0.4752
  465MOL0     C62683   4.948  -1.975   5.203 -1.2334  0.4420  0.4952
  465MOL0     C62684   5.038  -2.018   5.082  1.0272  0.1180 -0.6489
  465MOL0    Cl62685   5.019  -2.192   5.083  0.8576  0.2541 -0.2312
  465MOL0     C62686   4.749  -1.146   5.540 -0.3758 -1.3113 -0.5576
  465MOL0     C62687   4.793  -1.017   5.499 -0.4604 -0.1957 -0.7747
  465MOL0     O62688   5.009  -0.768   5.683 -0.2708 -0.4863 -0.1540
  465MOL0     C62689   5.075  -0.639   5.365 -0.5731  0.4856 -0.3472
  465MOL0     C62690   5.132  -0.523   5.309  0.1860 -0.0027 -1.2789
  465MOL0     N62691   5.608  -0.319   4.913 -0.4551 -0.5505 -0.4202
  465MOL0     N62692   5.700  -0.375   4.840  0.1947  0.4075 -0.1872
  465MOL0     C62693   6.071   0.095   5.155  0.3191  0.3311  0.1074
  465MOL0     C62694   5.952   0.133   5.085  0.5372 -0.3635  0.3359
  465MOL0     C62695   5.678   0.198   4.774  0.0543 -0.7842  1.7093
  465MOL0     C62696   5.579   0.282   4.826 -0.5276  0.4826 -0.0201
  465MOL0     C62697   5.460   0.307   4.756 -0.4029 -0.5483  0.1433
  465MOL0     C62698   5.421   0.232   4.638 -0.1807 -0.4451  0.9518
  465MOL0     O62699   5.299   0.251   4.576 -0.0441 -0.3373  0.6398
  465MOL0     C62700   5.310   0.280   4.437  0.5250  0.0498 -0.4588
  465MOL0     C62701   5.169   0.316   4.388 -0.5279  0.1919 -0.0811
  465MOL0     C62702   5.083   0.196   4.346  0.1662 -0.1144 -0.0274
  465MOL0     C62703   4.941   0.243   4.328 -0.0223  0.0047  0.5412
  465MOL0     C62704   4.929   0.367   4.245  1.0531  0.9015  0.0466
  465MOL0     C62705   4.916   0.471   4.186 -0.4068  1.2070 -0.7470
  465MOL0     C62706   5.515   0.136   4.596  0.2023 -0.1074  0.0909
  465MOL0     C62707   5.639   0.119   4.655 -0.3815  0.0977  0.3446
  465MOL0     H62708   6.080   0.409   4.924  0.9343 -0.2893  0.1159
  465MOL0     H62709   6.289   0.340   5.063 -0.4454 -0.0535 -1.6436
  465MOL0     H62710   6.434   0.145   5.041  3.2832  1.3957 -0.0010
  465MOL0     H62711   6.522   0.139   5.192  1.0100 -2.6257 -0.6499
  465MOL0     H62712   6.565  -0.070   5.075  1.2252 -3.0017  1.8534
  465MOL0     H62713   6.498  -0.088   5.236 -0.8657 -2.1483  0.4494
  465MOL0     H62714   6.375  -0.237   5.081 -1.9678  0.2196  2.8629
  465MOL0     H62715   6.268  -0.110   5.108  0.0011  0.5670 -1.2807
  465MOL0     H62716   6.327  -0.000   4.875 -2.0895  0.2824  0.6131
  465MOL0     H62717   6.435  -0.136   4.846 -3.2705 -0.3359 -3.0478
  465MOL0     H62718   6.261  -0.167   4.718  2.3351 -2.1586  0.0592
  465MOL0     H62719   6.281  -0.297   4.816 -4.0047 -1.8483 -1.2226
  465MOL0     H62720   6.091  -0.233   4.967  2.4183 -0.4442 -0.0176
  465MOL0     H62721   6.074  -0.077   4.881 -0.8415 -1.0488  0.9353
  465MOL0     H62722   5.927  -0.185   4.739  2.6104  1.0682 -4.0767
  465MOL0     H62723   6.065  -0.260   4.671 -1.5980  0.9441 -1.4017
  465MOL0     H62724   6.017  -0.440   4.889 -0.4113 -0.4169  1.5104
  465MOL0     H62725   5.921  -0.456   4.742 -0.6373  0.6914  0.2990
  465MOL0     H62726   5.888  -0.252   5.081 -2.6679  2.0985  0.5631
  465MOL0     H62727   5.655  -0.097   5.129 -3.4629  2.3422  0.4538
  465MOL0     H62728   5.505  -0.148   5.085  0.7415  1.3450  0.4842
  465MOL0     H62729   5.534  -0.225   5.322  0.6839  0.4612  0.8936
  465MOL0     H62730   5.697  -0.305   5.272 -1.3369 -2.0890  0.7187
  465MOL0     H62731   5.526  -0.472   5.309  0.2515 -2.2832 -2.0700
  465MOL0     H62732   5.572  -0.460   5.146 -2.1159 -0.4661 -0.7998
  465MOL0     H62733   5.340  -0.500   5.157  0.6905 -0.4833  1.3712
  465MOL0     H62734   5.353  -0.331   5.105 -0.7164 -0.4882 -0.6465
  465MOL0     H62735   5.348  -0.411   5.531  0.2614 -0.2304  0.6669
  465MOL0     H62736   5.250  -0.742   5.716 -0.6723 -0.3013  0.1135
  465MOL0     H62737   5.372  -0.606   5.728  0.4256 -4.8126  3.1355
  465MOL0     H62738   5.210  -0.589   5.770 -0.4546  0.2644 -0.9608
  465MOL0     H62739   5.118  -1.039   5.586 -0.1084 -0.5936 -1.5355
  465MOL0     H62740   5.030  -1.273   5.682  1.9602  1.5414 -0.6752
  465MOL0     H62741   4.664  -1.517   5.650 -2.2653 -3.0213 -2.5759
  465MOL0     H62742   4.601  -1.376   5.569 -0.7716 -1.4949 -3.2354
  465MOL0     H62743   4.637  -1.545   5.415  1.4366 -2.4361 -1.7818
  465MOL0     H62744   4.721  -1.394   5.375  0.3104  0.7841  1.1003
  465MOL0     H62745   4.854  -1.629   5.527  0.8804  0.5824  0.0685
  465MOL0     H62746   4.933  -1.492   5.476 -0.1929 -0.8836  2.4002
  465MOL0     H62747   4.798  -1.594   5.241 -0.0459  0.5698  0.7822
  465MOL0     H62748   4.972  -1.591   5.252  2.4932 -6.3866 -0.9373
  465MOL0     H62749   4.801  -1.813   5.375 -1.0791  3.2841  1.1388
  465MOL0     H62750   4.975  -1.796   5.403 -0.5899  1.0756  1.0344
  465MOL0     H62751   4.858  -1.799   5.120 -0.8172  0.2557  1.0024
  465MOL0     H62752   5.026  -1.776   5.168  0.8513 -1.9595 -1.6313
  465MOL0     H62753   4.850  -2.024   5.200 -0.7921 -0.3670 -1.1518
  465MOL0     H62754   4.996  -1.997   5.299 -1.0747  2.9637  1.0726
  465MOL0     H62755   5.143  -1.993   5.102  1.3685 -1.3871 -0.4908
  465MOL0     H62756   5.005  -1.968   4.990  5.3390  1.7368 -1.5719
  465MOL0     H62757   4.647  -1.172   5.517 -0.9158  1.0448 -1.1107
  465MOL0     H62758   4.726  -0.943   5.458 -0.4014  0.4673  0.2795
  465MOL0     H62759   5.006  -0.709   5.319 -0.0018 -1.6080  1.8285
  465MOL0     H62760   5.099  -0.497   5.209  0.9401  2.4651 -0.9702
  465MOL0     H62761   6.068   0.014   5.228 -1.7360  0.5450  0.3118
  465MOL0     H62762   5.861   0.077   5.104  0.2015  0.0947  0.0977
  465MOL0     H62763   5.605   0.333   4.918  1.7533  4.2694 -2.4835
  465MOL0     H62764   5.378   0.369   4.790 -1.5676 -2.2768  0.6074
  465MOL0     H62765   5.374   0.367   4.419  1.5277 -0.9061 -1.7144
  465MOL0     H62766   5.350   0.194   4.383 -0.3327 -1.0313  0.5593
  465MOL0     H62767   5.194   0.379   4.302 -2.5862 -0.2782 -1.1024
  465MOL0     H62768   5.138   0.387   4.465  0.9402  1.0036 -0.1973
  465MOL0     H62769   5.084   0.127   4.431 -0.4924 -2.5773 -1.8834
  465MOL0     H62770   5.119   0.147   4.255  0.3978  0.0872 -0.0475
  465MOL0     H62771   4.886   0.256   4.422 -2.3719  2.2776 -1.0149
  465MOL0     H62772   4.890   0.156   4.286  4.1186 -3.8821  2.7031
  465MOL0     H62773   4.926   0.567   4.140 -0.6979  1.2655 -0.6912
  465MOL0     H62774   5.487   0.070   4.515  0.8090  1.2763 -1.2830
  465MOL0     H62775   5.706   0.042   4.617 -0.4515 -0.9784  2.2820
  466MOL0     O62776   7.034   8.586   5.575 -0.5659  0.7488 -0.6204
  466MOL0     C62777   7.103   8.503   5.508  0.6548 -0.6671 -0.4172
  466MOL0     O62778   7.148   8.377   5.554 -0.1637  0.0897  0.2340
  466MOL0     C62779   7.177   8.379   5.687 -0.7456  0.4345 -0.8771
  466MOL0     C62780   7.074   8.384   5.785  0.0935 -0.3825 -0.2763
  466MOL0     C62781   7.117   8.397   5.918  0.5933 -0.5865  0.4418
  466MOL0     C62782   7.251   8.397   5.955  0.2707 -0.6329  0.0836
  466MOL0     O62783   7.287   8.407   6.096 -0.8729 -0.8832  0.0622
  466MOL0     C62784   7.187   8.440   6.195  0.6302  0.7657 -0.1294
  466MOL0     C62785   7.242   8.445   6.331  0.6311  0.0862  0.5057
  466MOL0     C62786   7.299   8.304   6.355  0.2469  0.1537 -1.1491
  466MOL0     C62787   7.375   8.305   6.499 -0.2510  0.2922 -0.8155
  466MOL0     C62788   7.418   8.159   6.548 -0.5825  0.7936 -0.1869
  466MOL0     C62789   7.469   8.174   6.692  1.2384 -0.1710  0.3323
  466MOL0     C62790   7.358   8.208   6.785 -0.1093 -0.2899 -0.0994
  466MOL0     C62791   7.419   8.254   6.921  0.6929  0.2903  0.7336
  466MOL0     N62792   7.308   8.265   7.028 -0.3080 -0.7302  0.3344
  466MOL0     C62793   7.282   8.177   7.131 -0.0478 -0.2490  0.1337
  466MOL0     C62794   7.191   8.256   7.208 -0.4420  0.6264 -0.6000
  466MOL0     C62795   7.146   8.226   7.345  0.2061  0.2260  1.5484
  466MOL0     C62796   7.255   8.164   7.427  0.3349  0.1167 -0.2132
  466MOL0     C62797   7.355   8.267   7.479 -0.7979  0.0778 -0.5486
  466MOL0     C62798   7.445   8.196   7.590 -0.0908 -0.2782  1.1737
  466MOL0     O62799   7.577   8.250   7.605 -0.7992  0.3926 -0.0665
  466MOL0     C62800   7.657   8.170   7.683  0.3552  0.2404  0.1419
  466MOL0     C62801   7.774   8.134   7.635  0.0357 -0.3399  0.6554
  466MOL0     C62802   7.869   8.072   7.706  0.1125  0.5866 -1.0190
  466MOL0     C62803   7.990   8.017   7.633  0.4517  1.5134 -0.9301
  466MOL0     C62804   7.842   8.042   7.845  0.9196 -0.0349 -1.2491
  466MOL0     C62805   7.934   7.959   7.937 -0.3804 -0.5413 -0.1756
  466MOL0     O62806   7.904   7.955   8.067  0.0483  0.5931 -0.0556
  466MOL0     C62807   7.948   7.840   8.115 -0.3408 -0.7316 -0.6922
  466MOL0     C62808   7.890   7.720   8.062 -0.0538 -0.7726  0.2343
  466MOL0     C62809   7.922   7.599   8.111  0.3236  0.7263 -0.2894
  466MOL0     C62810   8.021   7.583   8.213  1.3760 -0.7535  0.8289
  466MOL0     O62811   8.049   7.452   8.240  0.0772 -0.8528  0.2448
  466MOL0     C62812   8.137   7.433   8.355  0.3080 -0.8231 -0.0393
  466MOL0     C62813   8.126   7.289   8.389 -0.2604 -0.4934 -0.4827
  466MOL0     C62814   7.984   7.249   8.443 -0.3689 -0.3592 -0.1887
  466MOL0     C62815   7.875   7.216   8.339 -0.5824  0.1635 -0.0252
  466MOL0     C62816   7.763   7.114   8.384 -0.5148 -1.7213  0.2997
  466MOL0     C62817   7.654   7.107   8.284  0.4086 -0.6347  0.9217
  466MOL0     C62818   7.545   6.986   8.302  0.1551 -0.9465 -0.1884
  466MOL0     C62819   7.462   7.019   8.428  0.2463 -0.5318  0.5106
  466MOL0    Cl62820   7.423   6.872   8.512 -0.2640  0.5193  0.2332
  466MOL0     C62821   8.082   7.705   8.268  0.3425  0.8327 -0.8359
  466MOL0     C62822   8.041   7.834   8.225  0.0866 -0.9386  0.1043
  466MOL0     O62823   8.035   7.914   7.894 -0.0765  0.4946  0.4707
  466MOL0     C62824   7.714   8.082   7.900 -0.6186 -0.4141  0.7392
  466MOL0     C62825   7.616   8.138   7.815 -0.2651  0.1912  0.0375
  466MOL0     N62826   7.182   8.381   7.158 -0.1006  0.0793  0.2255
  466MOL0     N62827   7.242   8.380   7.044  0.1193 -0.6721 -0.3654
  466MOL0     C62828   7.348   8.387   5.857 -0.1446 -0.0180 -0.5989
  466MOL0     C62829   7.309   8.378   5.721 -0.4032  0.1282 -0.6023
  466MOL0     C62830   7.113   8.530   5.356 -0.0266 -1.0340 -0.8753
  466MOL0     C62831   7.153   8.431   5.275  0.3848  0.2414  1.0688
  466MOL0     C62832   7.147   8.448   5.135  0.0451  0.5003  0.9680
  466MOL0     C62833   7.110   8.569   5.074 -0.1494  0.2487  0.0003
  466MOL0     O62834   7.106   8.588   4.936  0.0817 -0.0045  0.4565
  466MOL0     C62835   7.121   8.479   4.849 -1.0968 -0.1155  0.4799
  466MOL0     C62836   7.119   8.532   4.707  0.1642 -0.3144 -0.5999
  466MOL0     C62837   6.977   8.585   4.675  0.3918  0.0152  0.0879
  466MOL0     C62838   6.954   8.583   4.524  0.5421  0.4580  0.1290
  466MOL0     C62839   6.963   8.450   4.460 -0.2876  1.2315 -0.5702
  466MOL0     C62840   6.993   8.336   4.410 -0.7979 -0.0636  0.2744
  466MOL0     C62841   7.080   8.677   5.162  0.7948 -0.2691 -0.9163
  466MOL0     C62842   7.068   8.653   5.302 -0.3220 -0.1744  0.0928
  466MOL0     H62843   6.971   8.383   5.752 -0.9479 -1.3336  2.6600
  466MOL0     H62844   7.036   8.424   5.985  0.3652  1.1285 -0.4675
  466MOL0     H62845   7.125   8.527   6.171  0.9056  0.3954 -2.3625
  466MOL0     H62846   7.113   8.360   6.194  0.6821  0.5753  2.5391
  466MOL0     H62847   7.324   8.516   6.322  1.4668 -0.7984  0.9297
  466MOL0     H62848   7.170   8.487   6.401 -0.5212 -0.4629 -0.3095
  466MOL0     H62849   7.211   8.243   6.374 -1.6499  3.0359  0.1627
  466MOL0     H62850   7.373   8.265   6.284  1.8947 -3.4833  2.1907
  466MOL0     H62851   7.467   8.365   6.493 -0.9090  1.4227  0.0390
  466MOL0     H62852   7.306   8.350   6.570 -0.3373 -2.9241  1.3512
  466MOL0     H62853   7.333   8.092   6.532 -0.5486  0.7361 -0.1281
  466MOL0     H62854   7.499   8.126   6.481 -0.6980  1.1445 -0.5052
  466MOL0     H62855   7.524   8.086   6.727  0.5595 -0.7931 -0.1395
  466MOL0     H62856   7.543   8.252   6.674 -0.7187  1.6674 -0.0589
  466MOL0     H62857   7.289   8.284   6.748 -0.8116 -2.1530 -2.9182
  466MOL0     H62858   7.303   8.114   6.795 -0.8023  0.1802  0.6486
  466MOL0     H62859   7.476   8.346   6.905 -0.9317  1.1943 -0.1269
  466MOL0     H62860   7.484   8.172   6.950  1.0578 -0.1537 -1.1866
  466MOL0     H62861   7.322   8.076   7.141 -3.2255 -1.7204 -0.6856
  466MOL0     H62862   7.122   8.322   7.392  1.6961  0.7796  1.2230
  466MOL0     H62863   7.054   8.169   7.327 -0.9069  2.3960 -0.1799
  466MOL0     H62864   7.306   8.085   7.370  0.7984 -0.4804  0.9786
  466MOL0     H62865   7.212   8.097   7.502  2.0563 -0.4061  0.3450
  466MOL0     H62866   7.325   8.371   7.496  1.4101  1.2182 -2.9783
  466MOL0     H62867   7.432   8.285   7.405  0.5206 -1.0644  0.4867
  466MOL0     H62868   7.457   8.093   7.558  0.2214 -0.3387  1.4771
  466MOL0     H62869   7.391   8.195   7.685  1.0906  2.4340  1.9951
  466MOL0     H62870   7.798   8.150   7.530  3.6101 -1.3841  1.1944
  466MOL0     H62871   8.080   8.049   7.685 -0.2677 -1.6854  2.7411
  466MOL0     H62872   7.982   7.907   7.630  2.5628  1.2845 -0.0510
  466MOL0     H62873   8.005   8.048   7.529  0.9924  2.0950 -0.6841
  466MOL0     H62874   7.824   7.735   7.978  2.1025 -1.2445 -1.6586
  466MOL0     H62875   7.885   7.502   8.080 -1.2149  1.1331  0.2072
  466MOL0     H62876   8.236   7.466   8.324 -0.8943  1.9903 -1.2536
  466MOL0     H62877   8.105   7.491   8.442 -1.6139 -0.4017 -0.9655
  466MOL0     H62878   8.162   7.233   8.302 -2.9839 -0.7649 -1.5435
  466MOL0     H62879   8.204   7.279   8.466  1.3356  2.1984 -1.6088
  466MOL0     H62880   7.944   7.325   8.510 -3.2113 -0.2998 -1.8276
  466MOL0     H62881   8.005   7.154   8.493 -1.2350 -1.8563 -2.4877
  466MOL0     H62882   7.835   7.305   8.289  0.2093  0.7476  0.3592
  466MOL0     H62883   7.923   7.164   8.256 -1.8960 -0.8742 -0.1616
  466MOL0     H62884   7.716   7.148   8.477  1.7456  1.4384  0.4424
  466MOL0     H62885   7.808   7.015   8.395  1.1917 -1.3150 -2.2897
  466MOL0     H62886   7.593   7.197   8.292 -2.1299 -2.3554  2.7881
  466MOL0     H62887   7.684   7.090   8.180 -2.8161 -1.7208  0.0513
  466MOL0     H62888   7.602   6.894   8.317 -2.7545 -2.6734  0.9664
  466MOL0     H62889   7.498   6.967   8.205  3.8820 -0.7258 -2.2570
  466MOL0     H62890   7.372   7.071   8.394  0.3288 -1.2433 -0.8907
  466MOL0     H62891   7.514   7.093   8.490  0.9304  2.7966 -3.5183
  466MOL0     H62892   8.154   7.697   8.350 -1.7398  0.4117  1.0455
  466MOL0     H62893   8.098   7.923   8.249  1.6256 -1.4823 -1.3811
  466MOL0     H62894   7.679   8.068   8.002 -1.4707  1.1049  0.6739
  466MOL0     H62895   7.519   8.174   7.848 -0.6783  0.3243 -1.2689
  466MOL0     H62896   7.453   8.402   5.878 -0.3136 -0.0874  0.3225
  466MOL0     H62897   7.380   8.394   5.640  0.1554  1.9490  0.2062
  466MOL0     H62898   7.199   8.344   5.320 -1.5327 -1.4310 -0.0245
  466MOL0     H62899   7.179   8.360   5.081  1.3160  1.7978 -0.5139
  466MOL0     H62900   7.219   8.432   4.860 -1.0118 -0.1017 -0.2047
  466MOL0     H62901   7.040   8.406   4.862 -2.0737  1.1333  1.7932
  466MOL0     H62902   7.154   8.466   4.627  1.9301  0.8853 -0.8894
  466MOL0     H62903   7.186   8.618   4.697  3.2930 -2.8075 -3.5611
  466MOL0     H62904   6.956   8.682   4.722 -0.1031  0.6136 -1.3141
  466MOL0     H62905   6.893   8.518   4.699  0.6676 -0.2103  0.4358
  466MOL0     H62906   7.023   8.651   4.473 -1.0553  0.4552 -2.2391
  466MOL0     H62907   6.851   8.616   4.506  0.3753  0.1328  0.4774
  466MOL0     H62908   7.037   8.254   4.356 -0.4674  1.2787 -1.5998
  466MOL0     H62909   7.059   8.777   5.126 -1.4062  0.4881  2.0357
  466MOL0     H62910   7.033   8.735   5.364 -0.9079 -0.2017 -0.2016
  467MOL0     O62911   3.002   1.316   3.753 -0.3241 -0.0601  0.5514
  467MOL0     C62912   3.086   1.284   3.838 -0.5801 -0.2606  0.3402
  467MOL0     O62913   3.053   1.277   3.969  0.4059  0.7403 -0.1517
  467MOL0     C62914   2.935   1.332   4.000  0.7670 -0.3187 -1.2434
  467MOL0     C62915   2.926   1.477   4.012 -0.5872  1.0316 -0.0341
  467MOL0     C62916   2.809   1.534   4.059  0.1225 -0.3435  0.2583
  467MOL0     C62917   2.688   1.460   4.082 -0.1749  0.5371  0.0828
  467MOL0     O62918   2.572   1.507   4.119 -0.1507  1.1346 -0.2938
  467MOL0     C62919   2.552   1.657   4.122 -1.0355  0.6537  0.1388
  467MOL0     C62920   2.405   1.672   4.164  0.3067 -0.2140 -0.7334
  467MOL0     C62921   2.362   1.816   4.219  0.4115 -0.3086  0.8811
  467MOL0     C62922   2.444   1.837   4.341  1.2688  0.0211  0.8302
  467MOL0     C62923   2.376   1.953   4.412  0.8573  0.1231 -0.4838
  467MOL0     C62924   2.376   2.086   4.342  0.0114  1.0425 -0.4671
  467MOL0     C62925   2.312   2.198   4.426 -0.5651  0.1899 -0.0629
  467MOL0     C62926   2.301   2.318   4.331 -0.5413 -0.0682  0.4559
  467MOL0     N62927   2.236   2.435   4.380  0.0580  0.0963 -0.2905
  467MOL0     C62928   2.201   2.449   4.509  0.2402 -0.1251 -1.1495
  467MOL0     C62929   2.160   2.578   4.516 -0.1930  0.7566  0.8411
  467MOL0     C62930   2.098   2.649   4.635  0.7324 -0.2769 -0.2466
  467MOL0     C62931   2.000   2.762   4.593 -0.9470  0.4102  0.3352
  467MOL0     C62932   2.006   2.876   4.692 -0.7797  0.9424 -0.6165
  467MOL0     C62933   2.121   2.961   4.657  0.7226  0.1302  0.0016
  467MOL0     O62934   2.152   3.024   4.784  0.5451 -0.2063  1.1346
  467MOL0     C62935   2.248   3.118   4.798 -0.2143 -0.9744 -0.0541
  467MOL0     C62936   2.260   3.182   4.919  0.0501  0.1285  0.5327
  467MOL0     C62937   2.357   3.279   4.943 -0.0986  0.0400 -0.3604
  467MOL0     C62938   2.352   3.329   5.083  0.3178 -0.0092 -0.5174
  467MOL0     C62939   2.438   3.318   4.838 -0.3117 -0.1979  0.3779
  467MOL0     C62940   2.552   3.404   4.865 -0.4313 -0.8218  0.3454
  467MOL0     O62941   2.542   3.506   4.956 -0.1277  0.0803  0.4898
  467MOL0     C62942   2.647   3.592   4.969 -0.0490  0.4319 -0.7390
  467MOL0     C62943   2.725   3.590   5.089  0.3261  1.1895  0.1033
  467MOL0     C62944   2.830   3.677   5.103  0.0193  0.5906  0.3608
  467MOL0     C62945   2.853   3.772   5.001 -0.0571  1.3342  0.5236
  467MOL0     O62946   2.948   3.863   5.036  0.0616 -0.1198 -0.1716
  467MOL0     C62947   2.937   3.992   4.985 -0.2100  0.3145  0.2578
  467MOL0     C62948   3.052   4.082   5.019  0.7307  0.0426  0.0226
  467MOL0     C62949   3.168   4.033   4.942 -0.2872  0.4554 -0.6330
  467MOL0     C62950   3.300   4.069   5.015 -0.3554  0.5968 -0.3464
  467MOL0     C62951   3.421   4.034   4.930  0.1549  0.5515  0.3462
  467MOL0     C62952   3.557   4.094   4.985  0.1807  0.0654  0.0445
  467MOL0     C62953   3.668   4.119   4.878  0.5614  0.1482 -0.7978
  467MOL0     C62954   3.796   4.170   4.944 -0.3067 -0.8295 -0.0099
  467MOL0    Cl62955   3.848   4.049   5.073  0.3582 -0.1175  0.6018
  467MOL0     C62956   2.765   3.780   4.898 -0.6197 -0.7544 -0.5361
  467MOL0     C62957   2.670   3.688   4.878 -0.5030  0.3218  0.4072
  467MOL0     O62958   2.657   3.384   4.799 -0.0581  0.4668 -0.6824
  467MOL0     C62959   2.436   3.251   4.712  0.0337 -0.5578  0.7201
  467MOL0     C62960   2.340   3.149   4.698 -0.6299  0.3473 -0.9115
  467MOL0     N62961   2.183   2.638   4.393 -0.5000 -0.7303 -0.9448
  467MOL0     N62962   2.228   2.547   4.306 -0.3339  0.2626  0.2270
  467MOL0     C62963   2.694   1.318   4.062 -0.7545  0.5990 -0.6734
  467MOL0     C62964   2.822   1.263   4.026 -0.0799 -0.1456 -0.0367
  467MOL0     C62965   3.203   1.211   3.767 -0.6677 -0.1087  0.5534
  467MOL0     C62966   3.253   1.234   3.632  0.9851  0.6757  0.2495
  467MOL0     C62967   3.347   1.157   3.570  0.1658 -0.8260  0.0137
  467MOL0     C62968   3.426   1.078   3.648  0.2353 -0.5499 -0.2986
  467MOL0     O62969   3.540   1.040   3.579  0.2833  0.0288 -0.7586
  467MOL0     C62970   3.612   0.941   3.648 -0.2414  0.0041  0.3005
  467MOL0     C62971   3.550   0.804   3.653  0.5651 -0.2954 -0.6635
  467MOL0     C62972   3.639   0.708   3.735  0.2361 -0.9678 -0.3265
  467MOL0     C62973   3.622   0.720   3.895 -0.0977 -0.0700  0.2422
  467MOL0     C62974   3.698   0.836   3.953  0.4703  0.1841  0.3501
  467MOL0     C62975   3.768   0.920   4.004 -0.2881 -0.1328  0.2663
  467MOL0     C62976   3.381   1.040   3.778  0.3911 -0.0294 -0.0380
  467MOL0     C62977   3.274   1.110   3.840  0.2111  0.5249  0.2354
  467MOL0     H62978   3.020   1.528   3.997  0.6955 -1.7862 -2.6431
  467MOL0     H62979   2.809   1.639   4.087 -0.5435 -0.1273 -0.5215
  467MOL0     H62980   2.626   1.692   4.194  3.1427 -3.8749 -1.3284
  467MOL0     H62981   2.559   1.706   4.024 -1.3493  0.5930  0.0846
  467MOL0     H62982   2.344   1.658   4.075  2.8214  3.4731 -3.3539
  467MOL0     H62983   2.389   1.593   4.238  1.4149  0.7572  0.6127
  467MOL0     H62984   2.391   1.891   4.145 -2.8328 -0.9546 -1.2265
  467MOL0     H62985   2.256   1.837   4.234  0.1803  0.6759 -1.6220
  467MOL0     H62986   2.450   1.740   4.391 -0.9386 -1.9301 -2.2618
  467MOL0     H62987   2.541   1.875   4.306 -0.3458  0.9213 -3.2972
  467MOL0     H62988   2.274   1.930   4.443  1.5669  0.1852  2.1929
  467MOL0     H62989   2.424   1.979   4.507 -0.5447  3.5595 -0.5762
  467MOL0     H62990   2.476   2.116   4.307  0.3226  0.0040 -0.5023
  467MOL0     H62991   2.319   2.076   4.249  1.5052 -1.3778 -1.2373
  467MOL0     H62992   2.214   2.171   4.467 -1.8290 -0.8898 -3.4439
  467MOL0     H62993   2.382   2.229   4.504 -0.0405  1.9651 -1.1577
  467MOL0     H62994   2.238   2.300   4.243  0.2327  1.0089 -0.3509
  467MOL0     H62995   2.395   2.339   4.279  0.6477 -2.5640  1.4388
  467MOL0     H62996   2.215   2.387   4.597  1.3600  2.3566  0.5470
  467MOL0     H62997   2.039   2.572   4.683  0.2771  0.0426 -0.2909
  467MOL0     H62998   2.168   2.689   4.709 -1.1620 -0.3808  1.6988
  467MOL0     H62999   1.898   2.724   4.582 -0.3598 -1.5392  1.1873
  467MOL0     H63000   2.026   2.797   4.492 -1.0481 -1.0223 -0.2116
  467MOL0     H63001   2.021   2.835   4.792 -2.7152 -0.4041 -0.8145
  467MOL0     H63002   1.910   2.928   4.699 -1.2989  0.0548 -0.9603
  467MOL0     H63003   2.105   3.039   4.582 -0.2941 -0.4675 -0.4301
  467MOL0     H63004   2.214   2.912   4.626  3.1052  1.6123  4.0920
  467MOL0     H63005   2.189   3.152   4.995 -0.4400 -2.6214 -0.8966
  467MOL0     H63006   2.291   3.259   5.141 -2.0797  0.2834 -2.4981
  467MOL0     H63007   2.451   3.326   5.128 -0.6559 -2.3915  1.7385
  467MOL0     H63008   2.294   3.422   5.095 -1.4357 -1.2174  0.9103
  467MOL0     H63009   2.705   3.511   5.160 -1.7859  1.0961 -0.5299
  467MOL0     H63010   2.889   3.662   5.193  3.0194 -1.7999 -1.7826
  467MOL0     H63011   2.927   3.991   4.876  1.2756 -0.6534  0.0964
  467MOL0     H63012   2.848   4.030   5.036 -0.0995  1.4945 -0.3816
  467MOL0     H63013   3.034   4.184   4.981  2.2656 -0.0913 -1.1542
  467MOL0     H63014   3.065   4.079   5.127 -1.5380  1.5347  0.4123
  467MOL0     H63015   3.171   4.093   4.851  1.7459  0.2227 -0.7576
  467MOL0     H63016   3.160   3.925   4.931 -2.5255  0.4196  0.7388
  467MOL0     H63017   3.298   4.176   5.034 -1.9444  0.3235  1.2271
  467MOL0     H63018   3.310   4.012   5.108 -0.6583 -1.3171 -1.4294
  467MOL0     H63019   3.404   4.074   4.829 -0.7685  1.4624  0.8369
  467MOL0     H63020   3.421   3.925   4.917 -1.7390  0.3403  1.5972
  467MOL0     H63021   3.533   4.189   5.035 -0.6629 -0.7867  1.3209
  467MOL0     H63022   3.596   4.030   5.064 -0.1505 -0.8950 -0.5611
  467MOL0     H63023   3.627   4.192   4.808 -1.1213  2.1603  2.0857
  467MOL0     H63024   3.697   4.029   4.823  0.3395  1.1650 -2.6493
  467MOL0     H63025   3.784   4.271   4.982  0.8287  0.4530 -2.7758
  467MOL0     H63026   3.875   4.166   4.868 -1.1789 -5.9975 -1.0739
  467MOL0     H63027   2.777   3.852   4.818 -1.8716 -1.2122 -1.1493
  467MOL0     H63028   2.607   3.703   4.791  1.7504 -1.3788 -1.6675
  467MOL0     H63029   2.505   3.279   4.633 -0.9838  1.2953  0.4206
  467MOL0     H63030   2.339   3.081   4.614 -1.9099  2.1387 -2.4333
  467MOL0     H63031   2.616   1.252   4.096 -2.7461  1.9212 -2.4526
  467MOL0     H63032   2.819   1.155   4.036 -2.1216 -0.1124  0.1930
  467MOL0     H63033   3.196   1.303   3.570 -0.5414 -0.7877 -0.0419
  467MOL0     H63034   3.387   1.190   3.474 -0.1313 -2.0277 -0.5407
  467MOL0     H63035   3.708   0.918   3.599 -1.2691 -3.6542 -0.3118
  467MOL0     H63036   3.640   0.970   3.750 -2.0629 -2.2154  1.5108
  467MOL0     H63037   3.548   0.769   3.549 -3.1858 -0.6383 -0.6156
  467MOL0     H63038   3.446   0.813   3.687  1.1374  3.0329  0.5546
  467MOL0     H63039   3.745   0.729   3.717  0.7786 -1.8680  1.5511
  467MOL0     H63040   3.624   0.608   3.693  0.6179 -1.0230 -0.3364
  467MOL0     H63041   3.653   0.625   3.940 -2.1145 -0.9100 -0.0302
  467MOL0     H63042   3.515   0.728   3.916 -0.2131 -0.8309 -0.0314
  467MOL0     H63043   3.842   0.990   4.038  0.1196  0.3262 -1.4469
  467MOL0     H63044   3.437   0.978   3.848  0.7617  0.3469  0.0062
  467MOL0     H63045   3.246   1.086   3.943  2.3228  0.8545  0.9223
  468MOL0     O63046   4.848   5.011   5.759 -0.8720 -0.4029 -0.2512
  468MOL0     C63047   4.863   5.092   5.669 -0.3635 -0.0174  0.5548
  468MOL0     O63048   4.818   5.080   5.542 -0.1256  0.6254 -0.4882
  468MOL0     C63049   4.735   4.981   5.488 -0.5900  0.6941 -0.2372
  468MOL0     C63050   4.647   4.896   5.565  0.6929 -0.1714 -0.3311
  468MOL0     C63051   4.555   4.811   5.500 -0.5354  0.5667 -0.7849
  468MOL0     C63052   4.548   4.806   5.358 -0.4392  0.7192 -0.1453
  468MOL0     O63053   4.448   4.752   5.281  0.7594  0.8466 -0.0707
  468MOL0     C63054   4.345   4.658   5.325  0.3505 -0.0619 -0.5455
  468MOL0     C63055   4.279   4.597   5.209 -0.8458  0.0872  0.1408
  468MOL0     C63056   4.212   4.692   5.122 -0.7069 -0.2308  0.6170
  468MOL0     C63057   4.304   4.762   5.023 -0.5206  0.4585 -0.0509
  468MOL0     C63058   4.212   4.820   4.917  0.0132 -0.3905 -0.1967
  468MOL0     C63059   4.299   4.897   4.819  0.5621  0.3544 -0.0612
  468MOL0     C63060   4.386   4.806   4.719 -0.5858  0.0042 -0.2465
  468MOL0     C63061   4.462   4.919   4.641  0.0876  0.1159  0.4577
  468MOL0     N63062   4.551   4.858   4.546  1.1054 -0.5357  0.2230
  468MOL0     C63063   4.514   4.780   4.437 -0.5440  0.2063 -0.2996
  468MOL0     C63064   4.628   4.709   4.396  0.2658  0.5321  0.6930
  468MOL0     C63065   4.638   4.592   4.292  0.8745  0.0527 -0.5304
  468MOL0     C63066   4.622   4.617   4.144 -0.4763  0.5637  0.0918
  468MOL0     C63067   4.484   4.677   4.094 -0.4925 -0.6512  0.2961
  468MOL0     C63068   4.363   4.590   4.123 -0.4424  0.3840 -0.6105
  468MOL0     O63069   4.313   4.615   4.255  0.7612 -0.2358 -0.3998
  468MOL0     C63070   4.206   4.538   4.300  0.5502 -0.6831 -0.2782
  468MOL0     C63071   4.164   4.559   4.434 -0.0302  0.6175  0.3205
  468MOL0     C63072   4.047   4.507   4.491  0.0645  1.8710  0.9352
  468MOL0     C63073   4.005   4.563   4.624  0.8744 -0.8661  1.0985
  468MOL0     C63074   3.977   4.405   4.412 -0.7637 -0.2021 -0.8721
  468MOL0     C63075   3.867   4.328   4.461 -0.2032  0.9917  0.6638
  468MOL0     O63076   3.772   4.304   4.367 -0.6480  0.2499 -0.0907
  468MOL0     C63077   3.668   4.223   4.395  0.3415  0.7922 -1.1308
  468MOL0     C63078   3.661   4.091   4.346  0.0663  0.3400  1.0249
  468MOL0     C63079   3.538   4.019   4.376  0.5750 -1.3141  0.0178
  468MOL0     C63080   3.434   4.072   4.450  0.5294  0.1636  0.3396
  468MOL0     O63081   3.331   3.997   4.475  0.8348 -0.2910  0.0788
  468MOL0     C63082   3.197   4.062   4.442  0.0642 -0.4937  0.0959
  468MOL0     C63083   3.081   3.968   4.427 -0.4497 -0.0304  0.3247
  468MOL0     C63084   3.045   3.892   4.552 -0.1481 -1.2251 -0.3063
  468MOL0     C63085   2.900   3.851   4.537  0.7354 -0.3002  0.7226
  468MOL0     C63086   2.889   3.734   4.434  0.1727 -0.3673 -0.0861
  468MOL0     C63087   2.744   3.696   4.422  0.2873  0.1384 -0.2585
  468MOL0     C63088   2.738   3.566   4.349  0.0566  0.2744 -0.0724
  468MOL0     C63089   2.698   3.454   4.450 -0.5597  0.9393  0.9788
  468MOL0    Cl63090   2.665   3.325   4.329  0.4131  0.2553  0.0237
  468MOL0     C63091   3.444   4.210   4.491  0.4614 -0.1620 -0.5376
  468MOL0     C63092   3.560   4.279   4.461  0.3912  0.5524  0.0085
  468MOL0     O63093   3.845   4.303   4.580  0.5598 -0.0026  0.2047
  468MOL0     C63094   4.033   4.360   4.289  0.0652 -0.4723 -0.6886
  468MOL0     C63095   4.140   4.432   4.232  0.5074 -0.4506  0.2848
  468MOL0     N63096   4.726   4.748   4.484  0.3246 -0.2426 -0.0536
  468MOL0     N63097   4.681   4.832   4.574 -0.3717  0.7130 -0.0990
  468MOL0     C63098   4.642   4.877   5.283  0.5494  0.1425 -0.3275
  468MOL0     C63099   4.737   4.960   5.344 -0.0955 -0.0749  0.0423
  468MOL0     C63100   4.954   5.209   5.684 -0.6886 -0.3906 -0.0347
  468MOL0     C63101   4.995   5.256   5.818  0.5300 -0.4727 -1.3091
  468MOL0     C63102   5.099   5.349   5.836  0.4801 -0.0771 -0.1816
  468MOL0     C63103   5.158   5.407   5.720 -0.0226  0.6278 -0.1573
  468MOL0     O63104   5.270   5.494   5.716 -0.9841  0.9302 -0.1876
  468MOL0     C63105   5.344   5.531   5.833 -0.8338  0.1967  0.6573
  468MOL0     C63106   5.426   5.416   5.896  0.0828  0.7843 -0.0548
  468MOL0     C63107   5.574   5.398   5.842  0.3328  0.5014  0.2019
  468MOL0     C63108   5.666   5.514   5.887 -0.1193  0.1668 -0.3440
  468MOL0     C63109   5.682   5.613   5.784 -0.9540 -0.4147  0.2446
  468MOL0     C63110   5.693   5.684   5.690  0.2577 -0.1943 -0.3784
  468MOL0     C63111   5.121   5.361   5.601 -0.1314 -0.0664 -0.5530
  468MOL0     C63112   5.025   5.265   5.576  0.2415 -1.0387  0.7884
  468MOL0     H63113   4.636   4.914   5.672  1.2762  1.9382 -0.5943
  468MOL0     H63114   4.480   4.757   5.559  0.8241 -1.1729 -0.5547
  468MOL0     H63115   4.397   4.576   5.375  2.5866  1.3995 -0.2955
  468MOL0     H63116   4.267   4.702   5.387  1.1630  1.0877 -0.3113
  468MOL0     H63117   4.365   4.552   5.158 -1.0579 -0.1741  0.0094
  468MOL0     H63118   4.214   4.512   5.236 -1.4954  0.9962  1.5353
  468MOL0     H63119   4.139   4.644   5.056 -0.6992  1.8265 -1.0076
  468MOL0     H63120   4.159   4.770   5.178 -0.5253 -2.0659  3.5307
  468MOL0     H63121   4.376   4.837   5.059  2.1016 -0.8627 -2.1710
  468MOL0     H63122   4.378   4.696   4.976 -2.0377  0.2332 -2.2810
  468MOL0     H63123   4.140   4.754   4.868  0.0164 -0.2454 -0.3995
  468MOL0     H63124   4.147   4.893   4.967 -0.1403 -1.7343  1.6711
  468MOL0     H63125   4.235   4.943   4.744  1.9906 -0.3885 -1.8015
  468MOL0     H63126   4.349   4.982   4.868 -0.0112  0.4573  0.3479
  468MOL0     H63127   4.452   4.745   4.782  1.0006 -0.3460 -2.1419
  468MOL0     H63128   4.337   4.740   4.646  0.8824 -0.9105 -0.4473
  468MOL0     H63129   4.522   4.974   4.714 -0.3089  0.4568  0.5300
  468MOL0     H63130   4.395   4.981   4.581 -1.4539 -0.9334  1.0577
  468MOL0     H63131   4.415   4.763   4.396 -0.6530 -0.4266  0.2048
  468MOL0     H63132   4.735   4.546   4.311  1.6180  1.8627  0.2898
  468MOL0     H63133   4.564   4.519   4.326  1.1655  1.3733  3.4327
  468MOL0     H63134   4.643   4.530   4.081 -2.4170  1.9947 -2.7360
  468MOL0     H63135   4.694   4.695   4.117  0.3767 -0.6256 -1.2353
  468MOL0     H63136   4.486   4.694   3.985  1.4240  1.9373  0.6411
  468MOL0     H63137   4.466   4.779   4.130 -0.2559 -0.6630  0.4434
  468MOL0     H63138   4.407   4.490   4.130 -0.5791  0.3875  0.4583
  468MOL0     H63139   4.289   4.578   4.043 -1.2956  1.0123  0.0656
  468MOL0     H63140   4.228   4.626   4.491 -1.3467  3.2124 -1.0710
  468MOL0     H63141   4.079   4.631   4.669  1.6195 -0.8251 -0.1495
  468MOL0     H63142   3.919   4.630   4.613  1.3233 -0.4056  0.3276
  468MOL0     H63143   3.994   4.480   4.694  0.3727  1.4310  3.9287
  468MOL0     H63144   3.732   4.040   4.282 -0.7342 -1.4217  1.4996
  468MOL0     H63145   3.531   3.917   4.340  2.7290 -1.1196 -1.1190
  468MOL0     H63146   3.174   4.140   4.514 -1.5806 -0.7042 -0.1647
  468MOL0     H63147   3.204   4.125   4.353  0.4484  1.3604  1.4009
  468MOL0     H63148   2.999   4.038   4.405 -1.0231 -0.2656  1.6539
  468MOL0     H63149   3.093   3.893   4.348  4.0854 -2.8137  3.2536
  468MOL0     H63150   3.056   3.949   4.645  1.0221 -3.2185  0.8444
  468MOL0     H63151   3.115   3.809   4.562  1.3201 -0.2863 -2.1562
  468MOL0     H63152   2.857   3.806   4.627 -0.5836  2.4779  1.5782
  468MOL0     H63153   2.847   3.942   4.508  0.0791 -1.1762 -1.0306
  468MOL0     H63154   2.955   3.650   4.456 -0.1057 -0.2617  1.2808
  468MOL0     H63155   2.925   3.780   4.342 -1.8364  2.2102  0.2944
  468MOL0     H63156   2.679   3.683   4.509  1.0829 -2.8984  0.0160
  468MOL0     H63157   2.689   3.765   4.357  0.8586 -0.7979 -1.7814
  468MOL0     H63158   2.837   3.541   4.309  0.4822  3.2339 -1.0942
  468MOL0     H63159   2.661   3.577   4.271 -0.2274  3.3845  0.5409
  468MOL0     H63160   2.615   3.473   4.518 -2.3541  1.5974 -1.2927
  468MOL0     H63161   2.780   3.424   4.516  1.0111  0.9415 -0.8910
  468MOL0     H63162   3.380   4.270   4.555  1.9434 -0.2067  1.0478
  468MOL0     H63163   3.563   4.386   4.478  0.6738  0.8410 -1.6253
  468MOL0     H63164   4.005   4.270   4.234  4.6573 -1.9826 -1.0324
  468MOL0     H63165   4.165   4.398   4.132 -2.3058 -5.9186  1.0746
  468MOL0     H63166   4.624   4.875   5.176  0.7104  0.9760 -0.3789
  468MOL0     H63167   4.807   5.014   5.281  0.5779 -0.1316  0.7236
  468MOL0     H63168   4.943   5.212   5.903 -1.2563  3.4309 -0.1511
  468MOL0     H63169   5.139   5.383   5.931  1.0987  0.6371 -0.6842
  468MOL0     H63170   5.417   5.607   5.804 -1.8504  1.0723  0.3310
  468MOL0     H63171   5.274   5.589   5.892 -0.8165  0.6476  0.2385
  468MOL0     H63172   5.362   5.331   5.870  1.7488 -1.5257  2.8214
  468MOL0     H63173   5.421   5.423   6.005  0.4881 -2.6225  0.2789
  468MOL0     H63174   5.576   5.389   5.733  0.1439  1.0084  0.1558
  468MOL0     H63175   5.615   5.305   5.883  1.2242 -0.3151 -2.3311
  468MOL0     H63176   5.763   5.471   5.911 -2.2505 -3.6096  2.8737
  468MOL0     H63177   5.626   5.572   5.971 -2.9998 -1.0600 -0.7401
  468MOL0     H63178   5.710   5.757   5.613  0.6857  0.9924  0.8099
  468MOL0     H63179   5.180   5.399   5.518 -0.7069 -0.3617 -1.1070
  468MOL0     H63180   5.000   5.238   5.474 -6.7580 -0.3071  1.8461
  469MOL0     O63181   7.829   2.880   5.884 -0.8368  0.2010  0.5751
  469MOL0     C63182   7.837   2.892   5.762 -0.5421 -0.0801 -0.4820
  469MOL0     O63183   7.850   3.010   5.696  0.3189 -0.3379 -0.0269
  469MOL0     C63184   7.871   3.119   5.772 -0.5743 -0.6196  0.0511
  469MOL0     C63185   7.762   3.192   5.826  0.7282  0.5632 -0.2567
  469MOL0     C63186   7.783   3.309   5.896  0.3474  0.7182 -0.5968
  469MOL0     C63187   7.909   3.363   5.893 -0.4900  0.3583  0.2914
  469MOL0     O63188   7.918   3.495   5.948  0.4658 -0.0204 -0.0086
  469MOL0     C63189   7.923   3.499   6.090  0.1706 -0.0318 -0.8800
  469MOL0     C63190   7.874   3.630   6.159 -0.7045  0.0608  0.0684
  469MOL0     C63191   7.912   3.751   6.086  0.2600 -0.9309  0.0198
  469MOL0     C63192   7.888   3.887   6.162  0.4167 -0.2434  0.2866
  469MOL0     C63193   7.739   3.912   6.205 -0.8777  0.2265  0.3227
  469MOL0     C63194   7.715   4.041   6.281  0.4020  0.2408  0.1461
  469MOL0     C63195   7.804   4.047   6.405  0.6104 -0.2938  0.6939
  469MOL0     C63196   7.755   3.964   6.530 -0.4170 -0.0796  0.1331
  469MOL0     N63197   7.788   3.820   6.540  0.2027  0.6494  0.6183
  469MOL0     C63198   7.706   3.716   6.528 -0.4269  0.4668  0.4081
  469MOL0     C63199   7.785   3.604   6.533  1.2280 -0.7752  0.1059
  469MOL0     C63200   7.745   3.454   6.526 -1.3649 -0.8578 -0.1617
  469MOL0     C63201   7.687   3.416   6.662 -0.4933 -0.1554 -0.2377
  469MOL0     C63202   7.546   3.466   6.678 -0.2781 -0.1014 -0.7530
  469MOL0     C63203   7.481   3.384   6.795 -0.0360  0.5650 -0.0666
  469MOL0     O63204   7.344   3.394   6.748  0.4929  0.2934  0.0445
  469MOL0     C63205   7.244   3.351   6.828  0.2860  0.2017  0.1089
  469MOL0     C63206   7.111   3.383   6.790 -0.2847  0.0249 -0.1685
  469MOL0     C63207   6.997   3.356   6.875  0.1416 -1.7313 -0.1525
  469MOL0     C63208   6.866   3.384   6.814 -0.0369 -0.5575 -0.7382
  469MOL0     C63209   7.021   3.290   7.001  0.4783  0.0889 -0.5118
  469MOL0     C63210   6.915   3.280   7.099  0.4065  1.6654  0.5128
  469MOL0     O63211   6.817   3.372   7.099 -0.4739 -0.4358 -0.3014
  469MOL0     C63212   6.750   3.378   7.218  0.2173 -0.1972 -0.8128
  469MOL0     C63213   6.647   3.286   7.257  0.2575 -0.2254  0.3818
  469MOL0     C63214   6.571   3.299   7.367 -0.5729  0.0234  0.1997
  469MOL0     C63215   6.607   3.400   7.463 -0.3024  0.7388  0.7537
  469MOL0     O63216   6.533   3.407   7.570 -1.2944  0.6473 -0.0996
  469MOL0     C63217   6.490   3.545   7.586 -1.0765  0.0323 -0.7635
  469MOL0     C63218   6.355   3.547   7.664  0.7044  0.3287  0.6093
  469MOL0     C63219   6.379   3.541   7.810 -0.4520 -0.8963  0.1649
  469MOL0     C63220   6.253   3.520   7.896 -0.6661  0.8097  0.1089
  469MOL0     C63221   6.285   3.558   8.038 -1.1783 -0.9990  0.6752
  469MOL0     C63222   6.360   3.463   8.127 -0.2625  0.3708 -0.1571
  469MOL0     C63223   6.404   3.534   8.255 -0.5234  0.1127 -0.3374
  469MOL0     C63224   6.295   3.585   8.342  1.1126 -0.1739 -0.1688
  469MOL0    Cl63225   6.363   3.645   8.488 -0.1795 -0.1993  0.2604
  469MOL0     C63226   6.710   3.491   7.431 -0.5125 -0.6959 -0.4629
  469MOL0     C63227   6.777   3.481   7.315  0.8168  0.4903  1.0698
  469MOL0     O63228   6.928   3.189   7.184  0.4564  0.0612  0.0996
  469MOL0     C63229   7.153   3.251   7.035 -0.5332  0.6291  0.5460
  469MOL0     C63230   7.256   3.293   6.955 -0.1343  0.0517 -0.5129
  469MOL0     N63231   7.915   3.643   6.566 -0.7534 -0.2130 -0.3359
  469MOL0     N63232   7.921   3.776   6.567  0.0564 -1.1553  0.5826
  469MOL0     C63233   8.019   3.300   5.834  0.0180  0.4528  0.1417
  469MOL0     C63234   8.001   3.175   5.778  0.4812 -0.5644 -0.3949
  469MOL0     C63235   7.838   2.769   5.695  0.1118  0.1412  0.7288
  469MOL0     C63236   7.840   2.644   5.756 -0.3607  0.9240 -0.3115
  469MOL0     C63237   7.829   2.522   5.684  0.6814 -1.4353 -0.5307
  469MOL0     C63238   7.822   2.533   5.540 -0.3186  0.2291 -0.6287
  469MOL0     O63239   7.841   2.419   5.465 -0.4358 -0.2982  0.6773
  469MOL0     C63240   7.773   2.299   5.492 -0.0218  0.6895  0.1662
  469MOL0     C63241   7.867   2.184   5.454 -0.4975 -0.4852 -0.2300
  469MOL0     C63242   7.792   2.046   5.427 -0.0899 -1.1120 -0.9876
  469MOL0     C63243   7.888   1.928   5.420 -1.1796 -0.5974 -0.5346
  469MOL0     C63244   7.828   1.795   5.432 -0.1628 -0.4662 -0.4614
  469MOL0     C63245   7.766   1.696   5.459  0.6241 -0.1108  0.9633
  469MOL0     C63246   7.813   2.655   5.479 -0.1886  0.0312  0.0407
  469MOL0     C63247   7.824   2.774   5.554  0.0306  0.0883  0.0371
  469MOL0     H63248   7.664   3.146   5.836  0.6971  0.6062 -0.3594
  469MOL0     H63249   7.707   3.355   5.959  3.3942  2.8831  1.8357
  469MOL0     H63250   7.857   3.429   6.142  0.8107  0.6670  0.9992
  469MOL0     H63251   8.026   3.480   6.121 -0.1646 -1.4707 -0.5604
  469MOL0     H63252   7.765   3.634   6.152 -0.7381 -0.6387  0.0748
  469MOL0     H63253   7.908   3.634   6.263 -0.9232 -0.1873  0.1510
  469MOL0     H63254   8.017   3.746   6.058  0.3053  0.8490 -0.2466
  469MOL0     H63255   7.859   3.759   5.990 -2.3370  1.1694  1.4795
  469MOL0     H63256   7.960   3.895   6.245 -1.0097 -0.5751  1.5990
  469MOL0     H63257   7.922   3.959   6.088 -1.3763  0.2200 -0.1203
  469MOL0     H63258   7.676   3.911   6.116  0.4506 -2.4010 -0.6974
  469MOL0     H63259   7.725   3.826   6.271 -0.7291  0.5608  0.7993
  469MOL0     H63260   7.729   4.129   6.218 -0.1041 -0.4293 -0.9309
  469MOL0     H63261   7.611   4.035   6.315  0.8369  0.0849  1.4792
  469MOL0     H63262   7.901   4.006   6.376 -1.5218 -3.5535 -2.8814
  469MOL0     H63263   7.808   4.147   6.449  2.8952 -0.9420  2.1115
  469MOL0     H63264   7.646   3.961   6.523 -0.3805 -3.8772 -0.9887
  469MOL0     H63265   7.787   4.007   6.625 -4.1314 -1.8648  2.4294
  469MOL0     H63266   7.605   3.717   6.489 -0.6513 -2.7533  0.6416
  469MOL0     H63267   7.685   3.429   6.438  1.5687  1.9157 -3.2197
  469MOL0     H63268   7.835   3.396   6.502  0.9624  2.7714 -1.0575
  469MOL0     H63269   7.752   3.450   6.743  1.0687 -2.9084 -0.2111
  469MOL0     H63270   7.695   3.307   6.665  1.7569 -0.0604 -0.5199
  469MOL0     H63271   7.488   3.444   6.587  0.1281 -1.1401 -0.7722
  469MOL0     H63272   7.547   3.573   6.702 -2.0253 -0.7923  3.0228
  469MOL0     H63273   7.513   3.416   6.895  0.7939  2.8231 -0.9849
  469MOL0     H63274   7.505   3.278   6.788  0.7760  0.5823  1.7966
  469MOL0     H63275   7.097   3.428   6.692 -2.4779  0.4836  0.3065
  469MOL0     H63276   6.796   3.308   6.849 -1.3967  0.2808 -1.5382
  469MOL0     H63277   6.824   3.481   6.840  2.6775  0.7840 -1.0084
  469MOL0     H63278   6.866   3.378   6.705 -1.0177  0.1860 -0.7869
  469MOL0     H63279   6.641   3.197   7.195  2.3126 -0.3821  0.3216
  469MOL0     H63280   6.480   3.240   7.370 -1.8044  1.8340  4.0088
  469MOL0     H63281   6.561   3.591   7.654  1.6681 -3.5606 -0.9157
  469MOL0     H63282   6.476   3.598   7.491 -1.6634 -1.0115 -1.2816
  469MOL0     H63283   6.288   3.630   7.637 -0.1083 -1.0879 -2.0777
  469MOL0     H63284   6.299   3.460   7.629  2.1558  0.1349 -1.4231
  469MOL0     H63285   6.430   3.633   7.843 -1.4195 -0.1459 -0.4006
  469MOL0     H63286   6.438   3.450   7.821 -0.5770 -1.3431 -2.3807
  469MOL0     H63287   6.178   3.588   7.855 -2.6349 -0.6384  1.1458
  469MOL0     H63288   6.206   3.421   7.894  0.0678  0.4387 -2.1598
  469MOL0     H63289   6.186   3.587   8.076 -2.7595 -1.9551 -2.4289
  469MOL0     H63290   6.347   3.648   8.045  0.9739 -2.4909  2.2345
  469MOL0     H63291   6.290   3.386   8.160  2.9835 -2.3535  0.9573
  469MOL0     H63292   6.455   3.426   8.087  0.7447  2.0002  0.6185
  469MOL0     H63293   6.469   3.621   8.244  0.4617 -0.5256  0.2976
  469MOL0     H63294   6.474   3.462   8.300  4.6536  1.7536 -4.6937
  469MOL0     H63295   6.208   3.519   8.348  1.7398 -1.3069 -2.4538
  469MOL0     H63296   6.259   3.675   8.292  1.3987  0.8004  1.3121
  469MOL0     H63297   6.739   3.570   7.500 -0.0567 -2.0328  0.9099
  469MOL0     H63298   6.860   3.538   7.276  1.3954 -1.7023 -1.2030
  469MOL0     H63299   7.176   3.194   7.124 -1.3593  0.1442  0.4602
  469MOL0     H63300   7.349   3.261   7.000  0.5109  0.2023 -1.7006
  469MOL0     H63301   8.118   3.343   5.840  1.7882 -2.3855 -4.1126
  469MOL0     H63302   8.087   3.118   5.745  0.2083 -0.1457 -1.8950
  469MOL0     H63303   7.849   2.654   5.863  2.6826 -1.0455 -0.2625
  469MOL0     H63304   7.825   2.422   5.728 -1.7623  0.4542  4.2397
  469MOL0     H63305   7.743   2.297   5.597  0.7424  3.8713  0.5589
  469MOL0     H63306   7.678   2.298   5.438  1.5105  2.4743 -2.8430
  469MOL0     H63307   7.935   2.176   5.539 -0.5052  0.7298 -0.0950
  469MOL0     H63308   7.922   2.200   5.361  2.6901 -1.7496  1.2784
  469MOL0     H63309   7.738   2.058   5.332 -0.0206 -3.2237 -1.3248
  469MOL0     H63310   7.730   2.028   5.515  2.7895 -0.1519  1.3739
  469MOL0     H63311   7.963   1.945   5.498  0.7428 -2.7678 -1.7721
  469MOL0     H63312   7.943   1.932   5.325  0.4264  1.2225  0.4086
  469MOL0     H63313   7.703   1.611   5.474  0.9905 -1.2511 -2.9031
  469MOL0     H63314   7.801   2.669   5.372  2.5756  0.7200 -0.2552
  469MOL0     H63315   7.836   2.870   5.504  1.2795 -0.5330 -0.9078
  470MOL0     O63316   3.652   3.014   2.628  0.1073  0.6219  0.0972
  470MOL0     C63317   3.685   3.130   2.661  0.9533  0.2657 -0.3892
  470MOL0     O63318   3.792   3.204   2.613  0.6770  0.1355  0.1434
  470MOL0     C63319   3.861   3.167   2.499 -0.4437 -0.1390  0.2837
  470MOL0     C63320   3.883   3.255   2.388  1.3627 -0.0413  0.7009
  470MOL0     C63321   3.975   3.217   2.285 -0.7523  0.1849 -0.4818
  470MOL0     C63322   4.039   3.091   2.288  1.0192  0.0044  0.5721
  470MOL0     O63323   4.123   3.052   2.187 -0.5621 -0.5550 -0.2736
  470MOL0     C63324   4.172   3.142   2.087  0.1529 -0.3583 -0.3538
  470MOL0     C63325   4.275   3.058   2.012  0.3976  0.2480 -0.0208
  470MOL0     C63326   4.349   3.148   1.911  0.2555  0.6102  0.8496
  470MOL0     C63327   4.441   3.057   1.812 -0.4498  0.4205  0.6545
  470MOL0     C63328   4.370   2.990   1.688  0.6709 -0.0042 -0.0854
  470MOL0     C63329   4.391   3.076   1.567 -0.0322  0.1714  0.0471
  470MOL0     C63330   4.318   3.046   1.434  0.6598  1.0227  0.5785
  470MOL0     C63331   4.163   3.059   1.443 -0.0092  0.1980 -0.5080
  470MOL0     N63332   4.097   3.124   1.323  0.1808 -0.7629 -0.1540
  470MOL0     C63333   4.091   3.076   1.201  0.9372 -0.3300 -0.0217
  470MOL0     C63334   4.021   3.161   1.131 -0.8624  0.1471 -0.1044
  470MOL0     C63335   3.988   3.153   0.978 -0.0108  0.1174  0.1475
  470MOL0     C63336   3.846   3.104   0.957  0.2121  1.0272  0.6428
  470MOL0     C63337   3.794   3.133   0.818 -0.2212  0.5774  0.2403
  470MOL0     C63338   3.654   3.075   0.796  1.4842 -0.2118  0.1873
  470MOL0     O63339   3.607   3.131   0.672 -0.0700 -0.7766  0.8022
  470MOL0     C63340   3.485   3.076   0.622 -0.0001  0.1446 -0.7141
  470MOL0     C63341   3.377   3.022   0.693 -0.3606 -0.1683 -0.5668
  470MOL0     C63342   3.254   2.983   0.640  0.2295  0.2808 -0.2344
  470MOL0     C63343   3.160   2.910   0.735  1.0293  0.3164 -0.4444
  470MOL0     C63344   3.232   2.996   0.499 -0.0403 -0.9166 -0.2169
  470MOL0     C63345   3.089   2.998   0.442 -1.2718 -0.2811 -0.3141
  470MOL0     O63346   2.991   2.940   0.510 -0.2712 -0.5862 -0.8143
  470MOL0     C63347   2.866   2.966   0.467 -0.3376 -0.4695 -0.2325
  470MOL0     C63348   2.802   3.088   0.488  0.1150 -0.2824  0.3830
  470MOL0     C63349   2.669   3.105   0.463  0.2556  0.0683 -1.0473
  470MOL0     C63350   2.588   2.996   0.429  0.0880  0.9382 -0.0186
  470MOL0     O63351   2.450   3.016   0.410 -0.0552 -0.8555 -0.6997
  470MOL0     C63352   2.374   3.022   0.532  0.5129  0.4773  0.6716
  470MOL0     C63353   2.283   3.144   0.527 -0.5209  0.5596 -0.1735
  470MOL0     C63354   2.192   3.161   0.651  0.1956 -0.4937 -0.2428
  470MOL0     C63355   2.095   3.279   0.618  0.2704 -0.6047  0.2586
  470MOL0     C63356   2.163   3.415   0.601 -0.8572 -0.1397 -0.2177
  470MOL0     C63357   2.073   3.534   0.654  0.3705 -0.4420 -0.3341
  470MOL0     C63358   1.927   3.545   0.590 -0.1044 -0.1031  0.3374
  470MOL0     C63359   1.876   3.690   0.585  0.3265 -0.0009 -0.7249
  470MOL0    Cl63360   1.872   3.781   0.747 -0.2568  0.1972  0.1602
  470MOL0     C63361   2.646   2.873   0.404  0.1519 -0.3732 -0.0213
  470MOL0     C63362   2.789   2.858   0.410 -0.5299 -0.4882  0.4981
  470MOL0     O63363   3.086   3.051   0.334 -0.6542  0.7177  0.1937
  470MOL0     C63364   3.349   3.043   0.426 -0.0523  0.2257 -0.5941
  470MOL0     C63365   3.469   3.080   0.483  0.0653 -0.2690 -0.0808
  470MOL0     N63366   3.994   3.271   1.213  0.1795  0.2444 -0.0688
  470MOL0     N63367   4.048   3.248   1.332  0.1478  0.2203  0.4295
  470MOL0     C63368   4.001   3.005   2.391  0.1181 -0.6284 -0.4973
  470MOL0     C63369   3.919   3.042   2.495 -0.0125 -0.0513  0.2905
  470MOL0     C63370   3.608   3.192   2.778  0.2767  0.6227  0.4345
  470MOL0     C63371   3.679   3.275   2.862  0.0712 -0.2223  0.1092
  470MOL0     C63372   3.606   3.349   2.958  0.4451 -0.5551  0.5769
  470MOL0     C63373   3.466   3.322   2.984 -0.6263 -0.3240  0.1128
  470MOL0     O63374   3.417   3.396   3.091  0.0943  0.0264  0.4338
  470MOL0     C63375   3.282   3.379   3.128  1.0207  0.1246  0.0625
  470MOL0     C63376   3.227   3.509   3.192  0.2318 -0.0669  0.3336
  470MOL0     C63377   3.216   3.618   3.078 -0.8340 -0.1567 -0.0085
  470MOL0     C63378   3.193   3.745   3.152  0.0299 -0.3333  0.3562
  470MOL0     C63379   3.047   3.760   3.199 -0.0721 -0.5258  0.6578
  470MOL0     C63380   2.924   3.764   3.231 -0.9751 -0.5811 -0.5276
  470MOL0     C63381   3.401   3.242   2.887  0.1502  0.2910 -1.0078
  470MOL0     C63382   3.469   3.177   2.795  0.1798  0.3580  0.2792
  470MOL0     H63383   3.835   3.351   2.375  2.5164  0.2866 -1.6733
  470MOL0     H63384   4.016   3.282   2.208  2.3815 -0.4371  0.5379
  470MOL0     H63385   4.097   3.181   2.017 -0.2663 -2.5178 -1.1892
  470MOL0     H63386   4.231   3.219   2.138  1.7899 -3.0343  2.1015
  470MOL0     H63387   4.352   3.029   2.084  1.5097 -1.7668 -1.8957
  470MOL0     H63388   4.229   2.970   1.966  0.3377 -0.6570  1.7093
  470MOL0     H63389   4.270   3.195   1.852  0.2156 -1.8312 -1.2006
  470MOL0     H63390   4.397   3.229   1.967 -2.2590 -1.0605  6.1839
  470MOL0     H63391   4.517   3.127   1.776 -2.6875  4.4481  3.0124
  470MOL0     H63392   4.489   2.982   1.875  1.2705  0.4201 -0.6101
  470MOL0     H63393   4.422   2.893   1.690  0.6987  0.0136  1.2933
  470MOL0     H63394   4.262   2.970   1.685  1.3271 -4.5617 -0.2769
  470MOL0     H63395   4.351   3.172   1.603  0.1839  1.0955 -2.0391
  470MOL0     H63396   4.496   3.077   1.537 -0.9319 -2.3746 -3.8054
  470MOL0     H63397   4.361   3.108   1.355 -0.1930 -0.5461 -1.1856
  470MOL0     H63398   4.356   2.952   1.394 -0.2197  1.7652 -2.2557
  470MOL0     H63399   4.159   3.115   1.537  1.5428 -3.4916  1.9886
  470MOL0     H63400   4.114   2.963   1.464 -2.0344  0.7668 -2.2459
  470MOL0     H63401   4.136   2.982   1.170  2.1437  0.6193 -1.2743
  470MOL0     H63402   4.002   3.257   0.948  5.7908 -0.9093 -2.1019
  470MOL0     H63403   4.061   3.091   0.924 -2.4608 -2.4364 -0.5071
  470MOL0     H63404   3.774   3.145   1.029 -1.2289  0.9805 -0.7159
  470MOL0     H63405   3.845   2.995   0.960 -0.5689  1.0257  0.5099
  470MOL0     H63406   3.854   3.084   0.741  0.0430 -4.7808  3.3639
  470MOL0     H63407   3.790   3.242   0.810  4.3432  0.8744 -0.6997
  470MOL0     H63408   3.605   3.119   0.883  3.7954  1.3136  0.8031
  470MOL0     H63409   3.657   2.965   0.798  1.2750 -0.2346  3.0960
  470MOL0     H63410   3.382   3.017   0.801 -0.8251 -0.1469 -0.5397
  470MOL0     H63411   3.071   2.972   0.753  1.2620  0.7556 -0.7947
  470MOL0     H63412   3.108   2.821   0.700 -1.1120 -0.2860  3.6683
  470MOL0     H63413   3.194   2.883   0.835 -2.0873  1.8360  1.1804
  470MOL0     H63414   2.852   3.178   0.522  1.0073 -1.4570  2.3254
  470MOL0     H63415   2.623   3.202   0.473  0.5377  0.2360 -1.3854
  470MOL0     H63416   2.305   2.937   0.546  2.1858 -0.5134  3.9306
  470MOL0     H63417   2.432   3.020   0.625 -0.7877 -2.7244  1.5693
  470MOL0     H63418   2.349   3.230   0.511 -3.3236  2.6040 -1.8922
  470MOL0     H63419   2.223   3.149   0.436  0.3165  3.4228 -0.6626
  470MOL0     H63420   2.261   3.193   0.730  0.2173 -0.5087 -0.2562
  470MOL0     H63421   2.130   3.078   0.684 -0.0820  0.8406  3.0566
  470MOL0     H63422   2.043   3.253   0.526  1.2805 -1.9366  0.0418
  470MOL0     H63423   2.024   3.284   0.701  0.5020  3.1017  0.4091
  470MOL0     H63424   2.185   3.437   0.496 -0.0133  2.7822  0.4668
  470MOL0     H63425   2.254   3.413   0.662 -2.1177 -0.5638  1.7236
  470MOL0     H63426   2.058   3.511   0.760  1.1451  0.4200 -0.0248
  470MOL0     H63427   2.135   3.621   0.632  2.4009 -1.5011  0.8536
  470MOL0     H63428   1.850   3.491   0.646 -1.1354 -1.5442 -2.3022
  470MOL0     H63429   1.933   3.487   0.497 -1.2236 -0.0159  0.1959
  470MOL0     H63430   1.775   3.674   0.548  0.5789 -0.6217 -1.1606
  470MOL0     H63431   1.924   3.765   0.522 -0.9137  2.2966  0.8838
  470MOL0     H63432   2.578   2.792   0.381  0.0341 -0.1539 -0.4421
  470MOL0     H63433   2.843   2.766   0.393  0.2407  0.0875 -0.3086
  470MOL0     H63434   3.332   3.057   0.319  2.0363 -1.8626 -1.2886
  470MOL0     H63435   3.546   3.126   0.422 -0.0096  1.1315  0.8468
  470MOL0     H63436   4.057   2.913   2.402  2.9568  0.9715 -0.8231
  470MOL0     H63437   3.918   2.966   2.572  1.2980 -1.9880 -1.4699
  470MOL0     H63438   3.782   3.304   2.851  0.2133 -1.2254 -1.5722
  470MOL0     H63439   3.661   3.411   3.027 -0.4269  1.2443 -0.2641
  470MOL0     H63440   3.226   3.351   3.039 -1.9252  1.7528  1.2815
  470MOL0     H63441   3.283   3.296   3.200  1.9708  0.8661  0.9501
  470MOL0     H63442   3.291   3.554   3.267  1.4183  0.6928 -1.0726
  470MOL0     H63443   3.129   3.499   3.240  2.1107  1.1761  4.8854
  470MOL0     H63444   3.138   3.605   3.002 -0.8745  1.3022 -0.2514
  470MOL0     H63445   3.313   3.625   3.028  0.8594  0.8356  3.1180
  470MOL0     H63446   3.208   3.829   3.082 -2.4781  1.3664  1.6917
  470MOL0     H63447   3.268   3.761   3.230 -1.1079  2.4876  1.0188
  470MOL0     H63448   2.823   3.771   3.267 -0.9092 -1.7130 -0.1071
  470MOL0     H63449   3.296   3.215   2.895  1.1247 -4.3116 -0.6221
  470MOL0     H63450   3.417   3.124   2.716  1.8918  1.4155 -1.6492
  471MOL0     O63451   1.930  11.508   7.185  0.0246 -0.6548  0.0843
  471MOL0     C63452   1.846  11.485   7.276 -0.9443  0.2273 -0.3444
  471MOL0     O63453   1.864  11.511   7.408  0.1776  0.0989  0.2280
  471MOL0     C63454   1.972  11.570   7.467 -1.0067 -0.1012  1.0573
  471MOL0     C63455   2.105  11.570   7.422  0.0791 -0.9257 -0.1667
  471MOL0     C63456   2.208  11.631   7.492  0.2040 -0.1407 -0.4803
  471MOL0     C63457   2.188  11.707   7.613  0.3922 -0.1082  0.1168
  471MOL0     O63458   2.281  11.783   7.667  0.7857 -0.2588  0.0450
  471MOL0     C63459   2.279  11.793   7.805 -0.8412 -0.7700 -0.0191
  471MOL0     C63460   2.413  11.795   7.865 -0.0137 -0.2352 -0.0495
  471MOL0     C63461   2.517  11.697   7.792  0.4306  0.3408  0.3341
  471MOL0     C63462   2.644  11.674   7.891 -1.0343  0.1431  0.4661
  471MOL0     C63463   2.765  11.638   7.795  0.5894 -0.2643  0.5913
  471MOL0     C63464   2.895  11.604   7.876  0.0777  0.4432 -0.4444
  471MOL0     C63465   2.995  11.524   7.791  0.6433  0.0068 -0.0554
  471MOL0     C63466   2.951  11.382   7.754  0.7471 -0.1667  0.6038
  471MOL0     N63467   3.044  11.327   7.658 -0.5156  0.2186 -1.1212
  471MOL0     C63468   3.028  11.338   7.526 -0.1433 -0.6268  0.0929
  471MOL0     C63469   3.128  11.255   7.477  0.5264  0.1660 -0.0601
  471MOL0     C63470   3.152  11.218   7.330 -0.0908  0.5990 -0.1935
  471MOL0     C63471   3.168  11.353   7.261  0.0212 -0.9303  0.0434
  471MOL0     C63472   3.154  11.344   7.110 -0.8697 -1.0709  0.2825
  471MOL0     C63473   3.010  11.356   7.068  1.0152  0.4172  0.0414
  471MOL0     O63474   2.987  11.422   6.944 -0.0075 -0.0917 -0.0524
  471MOL0     C63475   2.929  11.548   6.956 -0.5842 -0.4028 -0.5471
  471MOL0     C63476   2.814  11.571   6.888 -0.4632 -0.8669  0.6428
  471MOL0     C63477   2.763  11.699   6.896  0.6157 -0.0076  0.8185
  471MOL0     C63478   2.624  11.713   6.821  0.6590 -0.2386  0.1268
  471MOL0     C63479   2.819  11.806   6.963 -0.6415  0.0634 -0.1038
  471MOL0     C63480   2.765  11.944   6.965  0.3739  0.0266  0.6796
  471MOL0     O63481   2.647  11.974   6.897 -0.1236 -0.4906 -0.3021
  471MOL0     C63482   2.588  12.098   6.898 -0.1806 -0.5881 -0.9902
  471MOL0     C63483   2.654  12.227   6.887  0.3598 -0.0920 -0.5226
  471MOL0     C63484   2.571  12.342   6.891  0.6822 -0.2875 -0.2797
  471MOL0     C63485   2.432  12.334   6.891  0.0451  0.6276  0.3992
  471MOL0     O63486   2.355  12.444   6.875 -0.0524  0.3060 -0.1120
  471MOL0     C63487   2.259  12.475   6.976 -0.1629 -0.4966 -0.2430
  471MOL0     C63488   2.317  12.558   7.082 -0.0368  0.3350  0.9815
  471MOL0     C63489   2.330  12.713   7.047 -0.8162 -0.1777  0.8648
  471MOL0     C63490   2.380  12.770   7.182 -0.5356 -0.0099 -0.2124
  471MOL0     C63491   2.364  12.923   7.189  0.1579  0.5083 -1.0459
  471MOL0     C63492   2.393  12.969   7.333  0.0167 -0.2067 -0.8800
  471MOL0     C63493   2.376  13.111   7.350  0.4270 -0.5316  0.8803
  471MOL0     C63494   2.436  13.177   7.467  0.5152  0.0100  0.0490
  471MOL0    Cl63495   2.336  13.145   7.623  0.2591  0.1807 -0.0109
  471MOL0     C63496   2.370  12.209   6.902 -0.9863  0.0789 -0.1909
  471MOL0     C63497   2.442  12.094   6.905 -0.7174 -0.1129 -0.2532
  471MOL0     O63498   2.829  12.025   7.029 -0.5097  0.1944  0.4605
  471MOL0     C63499   2.935  11.779   7.023 -0.2471  0.1666  1.0028
  471MOL0     C63500   2.991  11.650   7.034  0.6389  0.2313 -0.5153
  471MOL0     N63501   3.194  11.194   7.581 -0.2045  0.8273  0.2295
  471MOL0     N63502   3.147  11.235   7.692  0.5254  0.5509 -0.0342
  471MOL0     C63503   2.057  11.700   7.659 -0.0970  0.1276 -0.1729
  471MOL0     C63504   1.954  11.631   7.587  0.7907 -0.4785 -0.4936
  471MOL0     C63505   1.720  11.430   7.232 -0.4800 -0.6401 -0.2191
  471MOL0     C63506   1.702  11.412   7.094  0.5049  0.6876 -0.5174
  471MOL0     C63507   1.581  11.369   7.045  0.3365  0.8812  0.1348
  471MOL0     C63508   1.480  11.328   7.131 -0.0716 -0.1871  0.2031
  471MOL0     O63509   1.370  11.268   7.064 -0.5042 -0.1035  0.6007
  471MOL0     C63510   1.279  11.174   7.135 -0.3589  1.0098  0.3704
  471MOL0     C63511   1.174  11.236   7.216 -0.9245 -0.4647  0.0982
  471MOL0     C63512   1.134  11.366   7.173  0.7608  0.2252  0.1627
  471MOL0     C63513   1.014  11.419   7.257 -0.1827  0.6981 -0.8113
  471MOL0     C63514   0.989  11.564   7.229  0.0496  0.2344  0.4699
  471MOL0     C63515   0.988  11.685   7.208  0.9208 -0.5371 -0.1176
  471MOL0     C63516   1.501  11.331   7.274  0.2597  0.0882 -0.7798
  471MOL0     C63517   1.620  11.384   7.328 -1.2949 -0.7797  0.0190
  471MOL0     H63518   2.135  11.518   7.331  2.1288 -1.1780  0.5925
  471MOL0     H63519   2.302  11.635   7.438  1.8971  1.1385  2.2785
  471MOL0     H63520   2.217  11.878   7.834  0.5753  1.0039 -1.9138
  471MOL0     H63521   2.226  11.709   7.850  1.0193 -1.5134  0.8491
  471MOL0     H63522   2.453  11.897   7.868  2.3450 -1.1106  0.0567
  471MOL0     H63523   2.401  11.745   7.962  0.9458 -3.1201 -1.3093
  471MOL0     H63524   2.481  11.601   7.754  1.7179 -0.3604  0.8261
  471MOL0     H63525   2.557  11.748   7.703  0.3979 -0.7908 -0.3515
  471MOL0     H63526   2.661  11.774   7.933  1.1780  0.1586 -0.3476
  471MOL0     H63527   2.621  11.595   7.963 -0.5122 -1.4508 -1.0717
  471MOL0     H63528   2.727  11.550   7.742 -0.5487 -1.0060  2.5117
  471MOL0     H63529   2.792  11.707   7.715  0.4302 -0.1655  0.6218
  471MOL0     H63530   2.927  11.696   7.925 -2.6474  0.9654  0.5459
  471MOL0     H63531   2.882  11.533   7.959 -0.1726 -1.7411 -2.2578
  471MOL0     H63532   3.022  11.589   7.707 -0.0863  0.9949  0.4574
  471MOL0     H63533   3.084  11.510   7.854  0.8558  1.7436  0.0788
  471MOL0     H63534   2.854  11.395   7.704  1.1890  2.9247  0.3451
  471MOL0     H63535   2.942  11.323   7.846 -1.2137 -0.4771  0.2541
  471MOL0     H63536   2.952  11.386   7.465  0.3899 -2.4931 -2.1682
  471MOL0     H63537   3.250  11.170   7.331 -1.0825 -1.5473 -0.4801
  471MOL0     H63538   3.073  11.154   7.288  2.1560 -0.9061 -2.3995
  471MOL0     H63539   3.273  11.381   7.278 -0.8181  1.1198  2.4892
  471MOL0     H63540   3.109  11.433   7.306  0.3042 -0.8356  0.2504
  471MOL0     H63541   3.190  11.249   7.070 -0.2242  0.1706 -2.2703
  471MOL0     H63542   3.209  11.428   7.068  2.3882 -2.6767  1.0098
  471MOL0     H63543   2.945  11.396   7.146  1.4029 -1.2324  1.2473
  471MOL0     H63544   2.956  11.261   7.064  1.1108  0.1919  2.7412
  471MOL0     H63545   2.774  11.480   6.846  4.1390 -2.5374 -0.7953
  471MOL0     H63546   2.581  11.614   6.805  2.5260 -0.6912 -3.0051
  471MOL0     H63547   2.550  11.771   6.876  1.2058  2.8714 -2.1397
  471MOL0     H63548   2.624  11.751   6.718 -1.5075  0.3676  0.2975
  471MOL0     H63549   2.761  12.232   6.868  0.0750 -0.2160 -2.3283
  471MOL0     H63550   2.614  12.441   6.894 -1.0523  0.4927  0.8014
  471MOL0     H63551   2.187  12.536   6.922  0.7710  0.4682 -0.4253
  471MOL0     H63552   2.205  12.387   7.012 -0.6374 -0.6930 -1.3931
  471MOL0     H63553   2.245  12.543   7.163 -1.6022  0.3747 -0.3556
  471MOL0     H63554   2.420  12.523   7.092  0.5829  0.7743 -2.6199
  471MOL0     H63555   2.231  12.749   7.016 -0.2160 -0.0119 -0.9308
  471MOL0     H63556   2.394  12.718   6.959 -0.1003  0.9043  1.4119
  471MOL0     H63557   2.330  12.724   7.268  1.8385 -1.1697  0.6230
  471MOL0     H63558   2.486  12.745   7.191 -0.8653 -1.5171 -0.3160
  471MOL0     H63559   2.259  12.944   7.169 -0.1120  0.3772  0.2053
  471MOL0     H63560   2.431  12.962   7.112  0.6975  1.0835 -0.2955
  471MOL0     H63561   2.341  12.918   7.414  1.4893  1.2955  1.1006
  471MOL0     H63562   2.498  12.947   7.354 -1.4114 -4.3799  3.8021
  471MOL0     H63563   2.269  13.134   7.345  0.4323 -0.6967 -2.9699
  471MOL0     H63564   2.406  13.172   7.264  1.5772 -1.1943  0.7956
  471MOL0     H63565   2.440  13.283   7.442  1.3679  0.0931  0.5332
  471MOL0     H63566   2.535  13.132   7.480 -0.3629 -1.8925  0.5303
  471MOL0     H63567   2.263  12.192   6.907 -1.1212  0.1771 -2.0854
  471MOL0     H63568   2.389  12.000   6.903  2.3551 -1.9547 -1.8314
  471MOL0     H63569   2.973  11.857   7.088 -0.3016 -1.1771  2.7247
  471MOL0     H63570   3.078  11.649   7.098 -0.9809 -3.4173  1.9426
  471MOL0     H63571   2.020  11.745   7.750  0.8679  2.0825 -0.7049
  471MOL0     H63572   1.861  11.632   7.642  0.4254  0.6080 -1.1059
  471MOL0     H63573   1.779  11.452   7.030  0.8365  1.0430  0.0893
  471MOL0     H63574   1.556  11.379   6.940  1.8805  1.8408 -0.1649
  471MOL0     H63575   1.227  11.110   7.063 -1.3679  1.2506  0.8595
  471MOL0     H63576   1.341  11.109   7.198  0.0446 -1.0145 -1.9502
  471MOL0     H63577   1.216  11.232   7.316 -3.2047  2.6488  1.3403
  471MOL0     H63578   1.086  11.169   7.214 -2.4877  1.5006 -1.4335
  471MOL0     H63579   1.091  11.357   7.073  1.6495  1.0026 -0.3089
  471MOL0     H63580   1.215  11.441   7.176  2.4821 -1.5771  0.9826
  471MOL0     H63581   1.039  11.388   7.359  1.4001  0.7758 -1.1541
  471MOL0     H63582   0.928  11.358   7.228 -0.8847 -0.1733  2.6430
  471MOL0     H63583   0.983  11.792   7.218 -2.1462 -0.6541  0.5079
  471MOL0     H63584   1.423  11.296   7.341  1.5106 -1.3106  0.0013
  471MOL0     H63585   1.625  11.399   7.435  2.1997 -2.1513  0.1982
  472MOL0     O63586   0.423   7.835   6.954 -0.2521  0.3316  0.2198
  472MOL0     C63587   0.500   7.747   6.916  0.0089 -0.0883  0.1254
  472MOL0     O63588   0.633   7.759   6.895  0.0371 -0.1980  0.0599
  472MOL0     C63589   0.695   7.883   6.893  1.0393  0.0274  0.1152
  472MOL0     C63590   0.637   8.012   6.882 -0.7086  0.6492 -0.3408
  472MOL0     C63591   0.711   8.127   6.874 -0.2061 -0.1768  0.0682
  472MOL0     C63592   0.853   8.121   6.877 -0.2613  0.5939 -0.0567
  472MOL0     O63593   0.921   8.244   6.875  0.2323  0.3666  0.0736
  472MOL0     C63594   1.055   8.248   6.834  0.7770  0.0074  0.0718
  472MOL0     C63595   1.126   8.374   6.884 -0.5546 -0.3840 -0.5245
  472MOL0     C63596   1.098   8.494   6.797  0.3298 -0.3668 -0.5545
  472MOL0     C63597   0.941   8.518   6.774 -0.2218  0.4800 -0.1989
  472MOL0     C63598   0.875   8.558   6.909  0.7120 -0.4232 -0.1732
  472MOL0     C63599   0.749   8.628   6.870 -0.1895  0.3573 -0.3186
  472MOL0     C63600   0.645   8.524   6.822 -0.7364 -0.5897 -0.2893
  472MOL0     C63601   0.525   8.593   6.752 -0.8507 -0.0542  0.6644
  472MOL0     N63602   0.441   8.490   6.704  0.0214 -0.5642  0.3763
  472MOL0     C63603   0.325   8.444   6.750 -0.1562 -0.6842 -1.8101
  472MOL0     C63604   0.290   8.343   6.672  0.3454  0.7517 -1.1218
  472MOL0     C63605   0.162   8.255   6.693  0.5403  0.4316 -0.3492
  472MOL0     C63606   0.029   8.327   6.696  0.6978 -0.1856 -0.5626
  472MOL0     C63607  -0.091   8.226   6.713 -0.0075  0.7068  0.5969
  472MOL0     C63608  -0.084   8.115   6.607  0.8374  0.3638  0.0418
  472MOL0     O63609  -0.040   8.152   6.478 -0.3004  0.5307  0.1030
  472MOL0     C63610  -0.103   8.083   6.371  0.9102  1.0045  0.6568
  472MOL0     C63611  -0.117   8.157   6.250  0.1592 -0.6836 -0.0252
  472MOL0     C63612  -0.166   8.112   6.125 -0.0764  0.2384 -0.5332
  472MOL0     C63613  -0.165   8.201   6.009 -0.2551 -0.3496  0.1583
  472MOL0     C63614  -0.217   7.976   6.125  0.7566  0.0067  1.0143
  472MOL0     C63615  -0.262   7.910   5.991  0.6226 -0.3975  0.1131
  472MOL0     O63616  -0.379   7.839   5.997 -0.4740  0.3353  0.6279
  472MOL0     C63617  -0.439   7.756   5.902 -0.3098  0.2568 -0.0560
  472MOL0     C63618  -0.372   7.713   5.782  0.0863 -0.0540 -0.6392
  472MOL0     C63619  -0.436   7.631   5.693 -0.0995  0.2048 -0.3631
  472MOL0     C63620  -0.561   7.569   5.726 -0.7621 -0.5538 -0.2485
  472MOL0     O63621  -0.612   7.491   5.624  0.4855  0.4668  0.0607
  472MOL0     C63622  -0.727   7.406   5.636 -0.4914  0.5866  0.3786
  472MOL0     C63623  -0.740   7.306   5.522  0.6924 -0.2790  0.0285
  472MOL0     C63624  -0.617   7.210   5.527 -0.3975  0.1165  0.0292
  472MOL0     C63625  -0.559   7.192   5.387  0.3026  0.2404  0.1462
  472MOL0     C63626  -0.478   7.320   5.360  0.2392  1.5247  0.0908
  472MOL0     C63627  -0.418   7.311   5.214 -0.0494  0.9409 -0.9776
  472MOL0     C63628  -0.333   7.432   5.187  0.1534  0.5215 -0.3160
  472MOL0     C63629  -0.283   7.433   5.040 -0.6994 -0.3966 -0.2085
  472MOL0    Cl63630  -0.407   7.505   4.949 -0.1646  0.3856 -0.3896
  472MOL0     C63631  -0.632   7.607   5.838 -0.9972  0.0886  0.4636
  472MOL0     C63632  -0.572   7.711   5.918  0.2271 -1.5905 -0.4062
  472MOL0     O63633  -0.192   7.931   5.886  0.1743  0.3643 -0.1154
  472MOL0     C63634  -0.198   7.897   6.240  0.9920  0.0194 -0.1124
  472MOL0     C63635  -0.160   7.953   6.368 -0.0374  0.1115 -0.6886
  472MOL0     N63636   0.388   8.317   6.586  0.3553 -0.3495 -0.0065
  472MOL0     N63637   0.483   8.398   6.614  0.6882 -0.0095  1.2920
  472MOL0     C63638   0.911   7.995   6.886 -0.2801 -0.0547  0.0732
  472MOL0     C63639   0.832   7.887   6.894  0.5678  1.4296 -0.3216
  472MOL0     C63640   0.430   7.630   6.854  0.5986  0.3694  0.3857
  472MOL0     C63641   0.287   7.611   6.872 -1.0266 -0.5212  0.7487
  472MOL0     C63642   0.222   7.508   6.813  0.8427 -0.6136  0.2461
  472MOL0     C63643   0.288   7.416   6.726  1.1830 -0.0571 -1.2302
  472MOL0     O63644   0.230   7.311   6.653 -0.6524 -0.3798 -0.1917
  472MOL0     C63645   0.083   7.307   6.666 -0.9214  0.1785  0.1084
  472MOL0     C63646   0.025   7.215   6.562 -0.0073 -0.3310 -0.5964
  472MOL0     C63647   0.057   7.064   6.592  0.0014  0.5475  0.9496
  472MOL0     C63648  -0.057   6.973   6.557 -0.1750  0.6755  0.1597
  472MOL0     C63649  -0.101   6.967   6.413 -0.4311  0.0450 -0.2036
  472MOL0     C63650  -0.119   6.983   6.291 -0.9391 -0.0227 -0.4191
  472MOL0     C63651   0.428   7.431   6.714 -0.3693 -0.1734  0.2064
  472MOL0     C63652   0.499   7.540   6.770 -0.0661 -0.0459 -0.9552
  472MOL0     H63653   0.534   8.044   6.874 -0.0806  3.4182  1.3282
  472MOL0     H63654   0.664   8.224   6.881  1.6582  0.7699 -0.1082
  472MOL0     H63655   1.119   8.167   6.870 -0.1589 -2.2366 -2.8916
  472MOL0     H63656   1.051   8.240   6.725  3.8670  1.3439 -0.2388
  472MOL0     H63657   1.094   8.396   6.986 -1.9886 -3.0769 -0.3151
  472MOL0     H63658   1.233   8.357   6.897 -0.5802  0.1573  0.4696
  472MOL0     H63659   1.144   8.571   6.860 -2.0453  0.0922  0.7215
  472MOL0     H63660   1.142   8.484   6.697 -1.2640  1.3214 -1.4915
  472MOL0     H63661   0.930   8.601   6.704 -1.7917  0.5434  0.0860
  472MOL0     H63662   0.889   8.428   6.738 -1.1437  1.8017 -2.3436
  472MOL0     H63663   0.847   8.470   6.968  0.7516 -0.2539  0.1014
  472MOL0     H63664   0.935   8.626   6.970 -2.1636  1.6033  0.6264
  472MOL0     H63665   0.703   8.672   6.959  0.6167 -0.3834  0.4883
  472MOL0     H63666   0.777   8.711   6.805 -1.6156  0.2260 -1.1295
  472MOL0     H63667   0.705   8.462   6.756 -0.0760  0.5063 -0.7470
  472MOL0     H63668   0.606   8.467   6.907  0.4470 -0.1550  0.5707
  472MOL0     H63669   0.563   8.649   6.666  0.4253 -3.2675 -1.0542
  472MOL0     H63670   0.460   8.649   6.819 -1.8077 -1.8985  1.3482
  472MOL0     H63671   0.274   8.478   6.840 -0.9552  0.4421 -2.6768
  472MOL0     H63672   0.162   8.173   6.620 -4.8234 -1.0900  0.9699
  472MOL0     H63673   0.166   8.202   6.789  2.1599  1.4914  0.2037
  472MOL0     H63674   0.011   8.387   6.606 -3.8007  0.1144  0.3041
  472MOL0     H63675   0.010   8.398   6.777 -1.6556 -0.6215 -0.6535
  472MOL0     H63676  -0.177   8.288   6.687  1.7312  3.0751  0.1296
  472MOL0     H63677  -0.088   8.179   6.811 -2.5194 -1.5307 -0.2812
  472MOL0     H63678  -0.189   8.084   6.611  0.2186  1.5889 -3.3607
  472MOL0     H63679  -0.011   8.038   6.635 -1.7100 -2.2506 -0.0086
  472MOL0     H63680  -0.074   8.255   6.264  3.1869 -2.2200  2.9652
  472MOL0     H63681  -0.181   8.302   6.047 -1.3811 -0.3712 -0.2244
  472MOL0     H63682  -0.075   8.183   5.949 -1.6327  3.6222 -3.6797
  472MOL0     H63683  -0.248   8.188   5.939  0.1023 -3.2308  0.1462
  472MOL0     H63684  -0.268   7.737   5.759  0.9604 -0.2260  2.6727
  472MOL0     H63685  -0.391   7.612   5.596  0.9094  0.4955  0.0391
  472MOL0     H63686  -0.721   7.347   5.728  1.3375 -0.7936 -0.5726
  472MOL0     H63687  -0.804   7.484   5.637  2.3670  3.6610  2.0754
  472MOL0     H63688  -0.835   7.254   5.537 -1.0584  2.1378 -1.8139
  472MOL0     H63689  -0.742   7.353   5.423  0.4458 -0.9447 -0.2863
  472MOL0     H63690  -0.642   7.111   5.567  2.8319 -1.2211 -0.8734
  472MOL0     H63691  -0.542   7.250   5.596  0.0166 -0.4557 -0.0807
  472MOL0     H63692  -0.496   7.104   5.375 -0.9833 -0.6314 -0.6120
  472MOL0     H63693  -0.650   7.175   5.327 -0.2095 -0.5520  1.1133
  472MOL0     H63694  -0.401   7.316   5.437  0.3427  1.0377 -0.0350
  472MOL0     H63695  -0.525   7.416   5.384  0.2746  0.8550  3.3074
  472MOL0     H63696  -0.370   7.212   5.206 -1.0108  0.4016 -0.2473
  472MOL0     H63697  -0.499   7.314   5.141  0.9278  1.5834 -2.0633
  472MOL0     H63698  -0.249   7.428   5.257 -0.5699 -2.0086  0.4927
  472MOL0     H63699  -0.387   7.527   5.196 -0.8872 -0.1709  1.0495
  472MOL0     H63700  -0.245   7.335   5.010  1.0510 -0.0169  0.6574
  472MOL0     H63701  -0.190   7.490   5.044 -1.2741  0.6188 -0.6624
  472MOL0     H63702  -0.732   7.574   5.864 -1.1930  2.5019  3.2569
  472MOL0     H63703  -0.620   7.744   6.010 -1.8220 -0.6846 -1.7451
  472MOL0     H63704  -0.230   7.793   6.242 -1.4868  0.4257 -4.8659
  472MOL0     H63705  -0.143   7.900   6.461  2.1950  0.3106 -0.9132
  472MOL0     H63706   1.015   7.968   6.873 -0.9196 -1.5284 -2.8580
  472MOL0     H63707   0.886   7.792   6.895  1.5912  1.9294  3.0396
  472MOL0     H63708   0.240   7.678   6.944  0.7090 -1.8131  3.2686
  472MOL0     H63709   0.119   7.481   6.830  0.9513  0.0588  2.3734
  472MOL0     H63710   0.042   7.272   6.761 -2.9402  1.3127 -0.3046
  472MOL0     H63711   0.048   7.410   6.663 -1.2217  0.1453  1.6570
  472MOL0     H63712   0.041   7.234   6.456 -0.0129  2.6210 -0.1548
  472MOL0     H63713  -0.082   7.232   6.578  0.2955 -0.4147  1.9730
  472MOL0     H63714   0.086   7.056   6.697  1.9511  0.1751  0.4211
  472MOL0     H63715   0.138   7.030   6.526 -0.9705 -0.3565  0.1926
  472MOL0     H63716  -0.138   7.013   6.619 -1.1096 -1.0592  0.1030
  472MOL0     H63717  -0.028   6.870   6.575  1.4241  1.1892  0.7023
  472MOL0     H63718  -0.109   6.995   6.185 -0.2764 -2.9955 -0.7893
  472MOL0     H63719   0.485   7.354   6.663 -1.4474 -1.2195  0.5436
  472MOL0     H63720   0.607   7.541   6.757  0.1825 -2.0360  0.5335
  473MOL0     O63721   4.652   9.975   7.914 -0.2125  0.0894  0.7334
  473MOL0     C63722   4.544  10.009   7.872 -0.0308  0.9844 -0.5171
  473MOL0     O63723   4.421   9.988   7.926  0.3806 -0.3297  0.1817
  473MOL0     C63724   4.413   9.915   8.042 -0.8330 -0.1299 -0.7750
  473MOL0     C63725   4.469   9.964   8.168 -1.4997  0.4909 -0.3582
  473MOL0     C63726   4.445   9.891   8.284  0.1585  0.7688  0.7274
  473MOL0     C63727   4.391   9.759   8.268  0.7561 -0.2544 -0.9590
  473MOL0     O63728   4.398   9.698   8.393  0.1365  0.1318  0.3806
  473MOL0     C63729   4.368   9.560   8.400 -0.8481 -0.3080  0.0247
  473MOL0     C63730   4.366   9.519   8.551  0.0417  0.1774 -0.2014
  473MOL0     C63731   4.508   9.521   8.621  0.3816 -0.7177 -0.6917
  473MOL0     C63732   4.487   9.440   8.755 -0.1494  0.7691 -0.4942
  473MOL0     C63733   4.608   9.457   8.853  0.3434  0.0301  0.5268
  473MOL0     C63734   4.624   9.595   8.918  0.6387 -1.0491  0.4539
  473MOL0     C63735   4.747   9.582   9.015  1.3671 -1.2357 -0.5630
  473MOL0     C63736   4.694   9.608   9.163  0.2273 -0.6153 -0.1844
  473MOL0     N63737   4.807   9.582   9.259 -0.5335 -0.1379  1.4286
  473MOL0     C63738   4.887   9.681   9.308 -0.6255 -0.0482 -0.0096
  473MOL0     C63739   4.952   9.622   9.406  0.1004 -0.4069  0.3839
  473MOL0     C63740   5.055   9.703   9.490  0.2040 -0.0008  0.2378
  473MOL0     C63741   5.013   9.721   9.637 -0.9402  0.5687  0.2116
  473MOL0     C63742   4.888   9.812   9.639  0.4614  0.6104  0.1176
  473MOL0     C63743   4.757   9.737   9.603 -0.3926 -0.0961  0.6128
  473MOL0     O63744   4.648   9.793   9.670  0.1085 -0.0517  1.1721
  473MOL0     C63745   4.592   9.910   9.628 -0.2264  0.1316  0.9255
  473MOL0     C63746   4.508   9.979   9.713  0.2187  0.2393  0.9477
  473MOL0     C63747   4.453  10.110   9.691 -0.3793 -0.3533  0.3178
  473MOL0     C63748   4.347  10.152   9.794  1.0269  0.1824  1.0572
  473MOL0     C63749   4.476  10.172   9.565 -0.4212 -0.0868 -0.1054
  473MOL0     C63750   4.422  10.307   9.533 -0.4091 -0.6447  0.1998
  473MOL0     O63751   4.354  10.384   9.627 -0.6792 -0.2146  1.0580
  473MOL0     C63752   4.271  10.487   9.580 -0.3372 -0.3217 -0.2822
  473MOL0     C63753   4.209  10.489   9.456 -0.6165  0.3210  0.1804
  473MOL0     C63754   4.122  10.582   9.417 -0.1283  0.9146  0.8891
  473MOL0     C63755   4.098  10.693   9.492  0.9913  0.3958 -0.4048
  473MOL0     O63756   3.999  10.782   9.460 -0.5180 -0.1749 -0.2003
  473MOL0     C63757   3.869  10.752   9.509  0.7610  0.3341  0.2117
  473MOL0     C63758   3.760  10.785   9.407  0.6027  0.1674  0.3264
  473MOL0     C63759   3.807  10.768   9.254  0.3543  0.6666 -0.2869
  473MOL0     C63760   3.684  10.797   9.150 -0.0362 -0.1543  0.6670
  473MOL0     C63761   3.640  10.942   9.144 -0.1284 -1.2376  0.0001
  473MOL0     C63762   3.527  10.947   9.041  0.4698  0.9345  0.4802
  473MOL0     C63763   3.515  11.091   8.963  0.2903 -0.0580  0.4464
  473MOL0     C63764   3.498  11.214   9.048 -0.1670  0.1301  0.0308
  473MOL0    Cl63765   3.365  11.174   9.179  0.1624 -0.2074  0.3034
  473MOL0     C63766   4.152  10.686   9.618 -0.3940 -0.6620  0.5647
  473MOL0     C63767   4.241  10.584   9.672 -0.0014 -0.4460 -0.4732
  473MOL0     O63768   4.454  10.349   9.420  0.5108 -0.3971  0.2624
  473MOL0     C63769   4.559  10.098   9.473 -0.0063  0.1085 -0.1950
  473MOL0     C63770   4.613   9.970   9.496  0.8881  0.0658  0.2314
  473MOL0     N63771   4.907   9.488   9.417 -0.5364 -0.2817  0.3604
  473MOL0     N63772   4.816   9.469   9.328 -0.0308  0.6721 -0.0880
  473MOL0     C63773   4.338   9.708   8.157 -0.3306 -1.1096  0.2350
  473MOL0     C63774   4.356   9.785   8.041 -1.3837 -0.6442  0.3252
  473MOL0     C63775   4.543  10.063   7.730 -0.0090 -0.2625  0.6494
  473MOL0     C63776   4.424  10.104   7.670  0.2186  0.3935 -0.1300
  473MOL0     C63777   4.432  10.177   7.549  0.0922  0.4140 -0.6479
  473MOL0     C63778   4.551  10.204   7.487 -0.5735  0.3745 -0.8018
  473MOL0     O63779   4.568  10.272   7.369  0.2070 -0.9004 -0.4455
  473MOL0     C63780   4.458  10.354   7.319 -0.0047  0.0665 -0.4076
  473MOL0     C63781   4.508  10.425   7.188 -0.4904 -0.0121  0.0332
  473MOL0     C63782   4.385  10.434   7.087 -0.3187  0.4539 -1.0581
  473MOL0     C63783   4.380  10.553   6.994  0.6904 -0.3672  0.3565
  473MOL0     C63784   4.447  10.518   6.865 -1.0113 -1.5542  0.5151
  473MOL0     C63785   4.501  10.482   6.756  0.5502 -0.6011  0.0812
  473MOL0     C63786   4.671  10.153   7.541 -0.0337 -0.5500 -0.5332
  473MOL0     C63787   4.664  10.082   7.657  0.4497 -0.4116 -0.2929
  473MOL0     H63788   4.530  10.053   8.181 -1.5747  0.2493  2.0800
  473MOL0     H63789   4.467   9.926   8.384 -1.2631  2.9539  0.3459
  473MOL0     H63790   4.285   9.521   8.341  0.6131  0.6029 -2.8418
  473MOL0     H63791   4.454   9.502   8.364  0.3162  0.3117  1.6650
  473MOL0     H63792   4.298   9.584   8.609  0.0981  2.3810 -2.4454
  473MOL0     H63793   4.338   9.413   8.543  1.1284 -0.0771 -0.6679
  473MOL0     H63794   4.591   9.492   8.556  1.1599  0.8179 -0.4299
  473MOL0     H63795   4.527   9.626   8.645  1.5653 -1.2562  0.8485
  473MOL0     H63796   4.394   9.470   8.803 -0.4052 -0.6591 -0.0505
  473MOL0     H63797   4.480   9.334   8.732 -1.4945  0.7312  0.0063
  473MOL0     H63798   4.611   9.369   8.917  3.2513 -0.9805 -0.8220
  473MOL0     H63799   4.694   9.436   8.789  0.9586 -0.2861  1.4357
  473MOL0     H63800   4.646   9.668   8.840 -0.5863  2.3746  3.0393
  473MOL0     H63801   4.531   9.625   8.967  2.4838  2.3886  2.2631
  473MOL0     H63802   4.790   9.481   9.020 -0.5271 -2.0883 -0.4783
  473MOL0     H63803   4.820   9.658   8.988  1.2657 -1.9471 -3.0472
  473MOL0     H63804   4.608   9.548   9.193  1.1070 -0.8565  2.0237
  473MOL0     H63805   4.663   9.712   9.173  0.4816 -0.2242 -2.8343
  473MOL0     H63806   4.910   9.782   9.276  0.7265 -1.3670 -3.7053
  473MOL0     H63807   5.159   9.669   9.497  0.3599  0.4429  0.1525
  473MOL0     H63808   5.070   9.803   9.447  1.2840 -0.7244 -1.1608
  473MOL0     H63809   5.100   9.767   9.685  1.7349 -2.0062 -1.7435
  473MOL0     H63810   4.995   9.620   9.675  2.0587  0.0212  0.4386
  473MOL0     H63811   4.909   9.902   9.582  1.0013 -0.2729 -1.1218
  473MOL0     H63812   4.880   9.842   9.744 -0.1551 -0.0223  0.2607
  473MOL0     H63813   4.760   9.632   9.630  0.8676 -1.2535 -3.3744
  473MOL0     H63814   4.740   9.736   9.495  0.1510  1.4370  0.4795
  473MOL0     H63815   4.493   9.924   9.805  4.1767 -2.6324  0.1596
  473MOL0     H63816   4.392  10.234   9.852  1.2008 -0.4268  1.7977
  473MOL0     H63817   4.248  10.171   9.752  0.8501 -1.1896  0.8223
  473MOL0     H63818   4.327  10.071   9.865 -4.1622  0.0961 -0.1137
  473MOL0     H63819   4.215  10.413   9.379 -0.7810  2.4466 -2.0614
  473MOL0     H63820   4.090  10.575   9.313  1.2656  2.0445  0.3568
  473MOL0     H63821   3.851  10.645   9.524  1.1708 -0.1253 -2.0974
  473MOL0     H63822   3.849  10.815   9.596 -0.6091  2.0346 -1.2514
  473MOL0     H63823   3.674  10.722   9.430  0.1498  0.7220  0.1493
  473MOL0     H63824   3.713  10.883   9.420  0.2432  0.2180 -1.1391
  473MOL0     H63825   3.844  10.668   9.230  1.8195  1.2900 -0.7269
  473MOL0     H63826   3.891  10.829   9.218  0.0015 -0.0372 -2.4550
  473MOL0     H63827   3.715  10.760   9.052  0.8633 -1.4164  1.4081
  473MOL0     H63828   3.602  10.729   9.176  1.5237 -1.2418  3.0266
  473MOL0     H63829   3.723  11.009   9.116 -1.8099  0.4961 -1.1142
  473MOL0     H63830   3.606  10.975   9.243 -2.0689 -0.2050 -0.9606
  473MOL0     H63831   3.538  10.871   8.964 -1.5288 -0.5065  1.5214
  473MOL0     H63832   3.429  10.915   9.078 -0.2457 -0.8224 -2.5533
  473MOL0     H63833   3.425  11.093   8.900  0.1892  1.2055  0.5980
  473MOL0     H63834   3.597  11.110   8.893 -1.5933  0.1172 -1.8582
  473MOL0     H63835   3.462  11.297   8.987 -2.4584 -1.6263 -1.1672
  473MOL0     H63836   3.585  11.247   9.106 -0.3294  1.6064 -0.5181
  473MOL0     H63837   4.114  10.767   9.681 -0.9888  0.1629 -0.8134
  473MOL0     H63838   4.290  10.589   9.769  0.3912  0.9116 -0.7276
  473MOL0     H63839   4.593  10.143   9.380  1.9626  1.2419  0.9809
  473MOL0     H63840   4.663   9.931   9.408 -1.3663 -2.3713 -0.0852
  473MOL0     H63841   4.295   9.609   8.151 -0.6906 -0.9134 -0.4449
  473MOL0     H63842   4.314   9.739   7.952 -1.8197 -1.6078  1.0173
  473MOL0     H63843   4.327  10.083   7.715  0.3005  0.8906  0.2837
  473MOL0     H63844   4.333  10.202   7.513  0.1066  1.7542  0.1811
  473MOL0     H63845   4.364  10.299   7.321  0.1910 -0.2469  0.9098
  473MOL0     H63846   4.446  10.429   7.398  2.8105 -2.1607  2.3895
  473MOL0     H63847   4.583  10.363   7.139 -0.0239  1.2322 -0.8867
  473MOL0     H63848   4.558  10.520   7.207 -1.6571  1.1751 -2.4710
  473MOL0     H63849   4.292  10.446   7.145 -0.8397  2.7220 -2.2754
  473MOL0     H63850   4.389  10.345   7.024 -1.9751  1.8740 -3.2942
  473MOL0     H63851   4.420  10.646   7.035  0.9958 -0.7913  1.0565
  473MOL0     H63852   4.274  10.570   6.979  0.1258 -0.1558  3.7855
  473MOL0     H63853   4.531  10.454   6.657  1.9126 -0.9184  0.5641
  473MOL0     H63854   4.768  10.154   7.492  1.1678  3.3784  1.4975
  473MOL0     H63855   4.750  10.044   7.712 -0.5286  1.4720  2.7640
  474MOL0     O63856   2.235  10.077   9.625  0.4404 -0.2174  0.0444
  474MOL0     C63857   2.235  10.160   9.533 -1.1387 -0.4284 -0.4478
  474MOL0     O63858   2.221  10.296   9.553  0.4686  0.2431 -0.2559
  474MOL0     C63859   2.170  10.332   9.680  0.2610 -0.1605 -0.9944
  474MOL0     C63860   2.041  10.281   9.716  0.4475 -0.6832 -0.4480
  474MOL0     C63861   1.986  10.309   9.842 -0.8321 -0.4196 -0.5959
  474MOL0     C63862   2.050  10.391   9.932 -0.3760  0.3172 -0.0474
  474MOL0     O63863   1.990  10.397  10.056 -0.0422  0.5010 -0.1039
  474MOL0     C63864   2.079  10.426  10.165 -0.7580  0.0255 -0.0324
  474MOL0     C63865   2.033  10.362  10.290 -0.4544  0.3128 -0.5072
  474MOL0     C63866   2.039  10.211  10.287  0.2101 -0.3266  0.2891
  474MOL0     C63867   2.182  10.158  10.323  0.6920  0.4885  0.4322
  474MOL0     C63868   2.215  10.011  10.268  0.2836 -0.4931 -0.0534
  474MOL0     C63869   2.359   9.979  10.289 -0.2062  0.8834  0.7878
  474MOL0     C63870   2.393   9.844  10.208  0.1148 -0.0658 -0.3526
  474MOL0     C63871   2.541   9.826  10.167  0.8992 -0.1949  0.5157
  474MOL0     N63872   2.554   9.688  10.124  0.7743  0.3899 -0.3316
  474MOL0     C63873   2.573   9.596  10.218 -1.5554 -0.2569  0.3397
  474MOL0     C63874   2.630   9.488  10.148  0.1428  0.3678  0.8922
  474MOL0     C63875   2.687   9.360  10.230  0.5743 -0.3409  1.3003
  474MOL0     C63876   2.825   9.299  10.175 -0.6896 -0.2151  0.2732
  474MOL0     C63877   2.823   9.244  10.031 -0.0988  0.7428 -0.4729
  474MOL0     C63878   2.962   9.213   9.983 -1.1170  0.1257 -0.3399
  474MOL0     O63879   3.030   9.128  10.078  1.1507 -0.2668  0.0275
  474MOL0     C63880   3.140   9.062  10.035  1.0288  0.1269 -0.1467
  474MOL0     C63881   3.191   8.964  10.128  0.0853 -0.3407  0.1190
  474MOL0     C63882   3.310   8.889  10.102  0.2360 -0.3265  0.3542
  474MOL0     C63883   3.357   8.791  10.209  0.4861 -0.3517  0.1827
  474MOL0     C63884   3.380   8.909   9.981 -0.2015 -0.6383  0.6827
  474MOL0     C63885   3.504   8.839   9.938  0.6767  0.4288 -0.2600
  474MOL0     O63886   3.506   8.803   9.810 -0.4441 -0.4914  0.5431
  474MOL0     C63887   3.624   8.742   9.766 -0.5626 -0.7996  0.0425
  474MOL0     C63888   3.659   8.621   9.820 -0.6736  0.5961  0.0397
  474MOL0     C63889   3.756   8.542   9.757 -0.3838  0.9014  0.1204
  474MOL0     C63890   3.821   8.589   9.640  0.1807 -0.3814  1.2838
  474MOL0     O63891   3.912   8.511   9.577 -0.1530 -0.3886 -0.4638
  474MOL0     C63892   3.993   8.427   9.658 -0.0282 -0.8434  0.5370
  474MOL0     C63893   4.074   8.506   9.754  0.4599 -0.2186  0.8484
  474MOL0     C63894   4.207   8.437   9.785  0.6133 -0.0458  0.9586
  474MOL0     C63895   4.298   8.529   9.867 -0.1002 -0.2671  0.1535
  474MOL0     C63896   4.296   8.497  10.012  0.7852  0.6546 -0.2303
  474MOL0     C63897   4.365   8.602  10.092 -0.6243  0.3006 -0.9240
  474MOL0     C63898   4.339   8.571  10.238 -1.3161  1.6273 -0.5901
  474MOL0     C63899   4.394   8.685  10.325  0.5572  0.7048  0.0084
  474MOL0    Cl63900   4.337   8.853  10.265  0.5139 -0.3791 -0.2697
  474MOL0     C63901   3.784   8.713   9.589 -0.2351 -0.0742  0.7600
  474MOL0     C63902   3.681   8.787   9.649 -0.6472  1.2631 -0.7315
  474MOL0     O63903   3.583   8.809  10.020  0.2194  0.2155 -0.7281
  474MOL0     C63904   3.326   8.993   9.881 -0.3414 -0.6772 -0.4127
  474MOL0     C63905   3.202   9.058   9.907  0.3721 -0.1945 -0.8828
  474MOL0     N63906   2.646   9.529  10.014 -0.1867  0.3876  0.0495
  474MOL0     N63907   2.588   9.645  10.005  0.5812  0.8266  0.6152
  474MOL0     C63908   2.186  10.438   9.896 -0.1475 -0.5682 -0.4111
  474MOL0     C63909   2.245  10.407   9.777 -1.0245  0.3395  0.2229
  474MOL0     C63910   2.257  10.114   9.391 -0.1200 -0.0318 -0.5598
  474MOL0     C63911   2.267   9.980   9.360  0.4641  0.4230  0.5374
  474MOL0     C63912   2.294   9.931   9.227  0.0042 -0.3762  0.7574
  474MOL0     C63913   2.320  10.022   9.128 -0.3951  0.8029 -0.5143
  474MOL0     O63914   2.348   9.984   9.003  0.2639  0.1535 -0.0404
  474MOL0     C63915   2.471   9.908   8.992  0.9772 -0.4430  0.0302
  474MOL0     C63916   2.580   9.960   9.085  0.5669 -0.6399  0.0414
  474MOL0     C63917   2.714   9.890   9.058 -0.0274  0.0815  0.3590
  474MOL0     C63918   2.795   9.866   9.185  0.2133 -0.4963  0.0912
  474MOL0     C63919   2.933   9.855   9.159  0.3722 -0.0737 -0.7300
  474MOL0     C63920   3.057   9.863   9.141  0.4159  0.5116 -0.1790
  474MOL0     C63921   2.307  10.163   9.153  0.7916 -0.3586 -0.2723
  474MOL0     C63922   2.285  10.211   9.287  0.6274 -0.7123  0.3707
  474MOL0     H63923   1.990  10.223   9.639 -1.0158  0.9362 -0.7434
  474MOL0     H63924   1.889  10.268   9.868 -0.7594 -0.2263  0.0159
  474MOL0     H63925   2.181  10.390  10.153  0.1754  2.9060 -1.8313
  474MOL0     H63926   2.093  10.533  10.186 -1.3999 -0.1272  1.2833
  474MOL0     H63927   2.093  10.386  10.379  0.7203 -3.1456 -0.2268
  474MOL0     H63928   1.930  10.391  10.312 -0.4833  1.2444 -1.8099
  474MOL0     H63929   1.974  10.174  10.366 -0.3159 -1.9092 -0.8358
  474MOL0     H63930   2.014  10.186  10.183 -3.1573  3.0223  0.0501
  474MOL0     H63931   2.261  10.224  10.286  0.2346  1.8902  1.8451
  474MOL0     H63932   2.189  10.153  10.432  3.2395  0.7068  0.3288
  474MOL0     H63933   2.142   9.945  10.316 -0.1156 -2.7182 -3.3930
  474MOL0     H63934   2.198  10.001  10.160  1.5619 -0.8956 -0.2281
  474MOL0     H63935   2.419  10.058  10.242 -3.8265  4.3375  1.4184
  474MOL0     H63936   2.388   9.970  10.394 -0.5878 -0.1149  0.8243
  474MOL0     H63937   2.360   9.768  10.280 -0.0677 -1.1592 -1.5549
  474MOL0     H63938   2.338   9.826  10.116  1.1052 -3.7094 -0.4008
  474MOL0     H63939   2.611   9.858  10.245  1.0269  2.6154 -0.6486
  474MOL0     H63940   2.563   9.883  10.077  0.4606 -0.6856  0.0978
  474MOL0     H63941   2.561   9.604  10.325 -1.1392  0.6197  0.3259
  474MOL0     H63942   2.686   9.389  10.336  1.8377  1.9629  0.7497
  474MOL0     H63943   2.609   9.285  10.222  2.5492 -2.3259 -0.8784
  474MOL0     H63944   2.836   9.210  10.237 -3.1590 -1.1426 -0.4797
  474MOL0     H63945   2.903   9.375  10.189  0.3717 -0.6092 -2.7255
  474MOL0     H63946   2.786   9.323   9.965 -1.8725 -1.3496 -2.1132
  474MOL0     H63947   2.755   9.158  10.032  0.8615 -0.1345  2.8705
  474MOL0     H63948   3.023   9.303   9.967 -2.1068  0.4491 -2.6068
  474MOL0     H63949   2.955   9.163   9.886  2.3388 -2.4754  0.5586
  474MOL0     H63950   3.143   8.952  10.225 -4.3256  5.2661 -0.8693
  474MOL0     H63951   3.374   8.690  10.170  2.2838  0.3359 -0.9694
  474MOL0     H63952   3.444   8.824  10.267 -0.5055  1.1826  0.8491
  474MOL0     H63953   3.286   8.781  10.291 -0.4780 -1.8834 -0.7889
  474MOL0     H63954   3.614   8.575   9.907  1.1655 -0.9981  0.1885
  474MOL0     H63955   3.776   8.441   9.792  1.9295  0.6508 -1.6356
  474MOL0     H63956   3.945   8.339   9.700  2.1821 -1.9926  0.7861
  474MOL0     H63957   4.061   8.380   9.587  0.1671  1.5934 -1.0198
  474MOL0     H63958   4.093   8.602   9.706 -1.7421 -0.8941 -1.5649
  474MOL0     H63959   4.013   8.525   9.843 -1.0793  2.0314 -0.6048
  474MOL0     H63960   4.265   8.406   9.698 -1.7088  0.0157 -0.6998
  474MOL0     H63961   4.194   8.346   9.845 -3.0225  1.7626  3.3131
  474MOL0     H63962   4.402   8.506   9.842 -0.0891  1.7715 -2.0844
  474MOL0     H63963   4.280   8.633   9.839 -1.4644 -0.5457 -0.1061
  474MOL0     H63964   4.344   8.402  10.037  1.4257  1.0767  0.1601
  474MOL0     H63965   4.192   8.494  10.046  0.0651  2.0313 -2.1151
  474MOL0     H63966   4.474   8.594  10.080 -0.3097  0.9648  1.0736
  474MOL0     H63967   4.330   8.704  10.075 -0.9420  0.1394 -1.2407
  474MOL0     H63968   4.407   8.487  10.256 -2.4317  1.0121  0.9167
  474MOL0     H63969   4.236   8.540  10.258 -0.8421 -1.1544 -1.9434
  474MOL0     H63970   4.503   8.689  10.323  0.6134 -0.5330 -0.4750
  474MOL0     H63971   4.360   8.666  10.427 -4.6247  1.8920 -1.1860
  474MOL0     H63972   3.849   8.737   9.505  0.3716  0.1220  1.2772
  474MOL0     H63973   3.630   8.872   9.605 -1.8760  1.0106  0.1366
  474MOL0     H63974   3.377   8.999   9.785  4.8484  0.8252  2.0763
  474MOL0     H63975   3.151   9.107   9.824  1.1036 -0.6874 -1.6389
  474MOL0     H63976   2.245  10.495   9.967 -0.8719  2.5013 -2.1297
  474MOL0     H63977   2.347  10.437   9.753 -1.4923  0.8815 -1.1927
  474MOL0     H63978   2.233   9.903   9.430 -1.4181 -2.9288 -3.5476
  474MOL0     H63979   2.296   9.827   9.194 -2.5090 -0.2285 -0.0410
  474MOL0     H63980   2.450   9.804   9.018 -0.9539  0.1105  0.8674
  474MOL0     H63981   2.501   9.907   8.887  2.7610  0.3588  0.4793
  474MOL0     H63982   2.563   9.954   9.193  1.9195  4.1935  0.7736
  474MOL0     H63983   2.588  10.069   9.078 -3.1706 -0.1390  1.6683
  474MOL0     H63984   2.773   9.962   9.001 -0.0214 -1.2964 -1.4654
  474MOL0     H63985   2.691   9.806   8.992 -1.3902  2.0554 -1.8324
  474MOL0     H63986   2.760   9.777   9.237  0.3987 -1.8967 -2.0580
  474MOL0     H63987   2.783   9.954   9.249  2.5642  2.0054 -2.6441
  474MOL0     H63988   3.163   9.875   9.130  0.9730 -3.5387 -0.6987
  474MOL0     H63989   2.309  10.241   9.077 -1.4282 -0.9416 -1.0061
  474MOL0     H63990   2.291  10.314   9.320 -1.1614  0.4605 -2.6284
  475MOL0     O63991  10.321   6.326   3.893  0.1636 -0.7454 -0.7840
  475MOL0     C63992  10.199   6.316   3.870  0.8334 -0.2538  0.3002
  475MOL0     O63993  10.109   6.234   3.926 -0.0313  0.2389 -0.0202
  475MOL0     C63994  10.141   6.184   4.046 -0.4725 -0.1128  0.7077
  475MOL0     C63995  10.070   6.234   4.149 -0.0099  0.4123 -0.8100
  475MOL0     C63996  10.107   6.200   4.278  0.8564  0.3837 -0.3190
  475MOL0     C63997  10.211   6.100   4.300  0.5379  0.4257 -0.3006
  475MOL0     O63998  10.239   6.056   4.429 -0.2913  0.1596 -0.2345
  475MOL0     C63999  10.361   5.980   4.456  0.5578  0.3366  0.5468
  475MOL0     C64000  10.341   5.903   4.590 -0.1129  1.1313  0.4026
  475MOL0     C64001  10.194   5.841   4.597 -0.2409 -0.9486 -0.5059
  475MOL0     C64002  10.201   5.716   4.694 -0.1077  0.4494  0.0078
  475MOL0     C64003  10.224   5.745   4.840 -0.8572 -0.3041  0.0827
  475MOL0     C64004  10.191   5.629   4.924  0.5417  0.3584 -0.9072
  475MOL0     C64005  10.330   5.568   4.958  0.5988  0.6863  0.3537
  475MOL0     C64006  10.307   5.438   5.033  0.3660  0.0620  1.3873
  475MOL0     N64007  10.248   5.444   5.166  0.3799 -0.4417 -0.2953
  475MOL0     C64008  10.275   5.546   5.255 -0.1268  0.1870 -0.4931
  475MOL0     C64009  10.242   5.492   5.375  0.2219  0.1036  0.2193
  475MOL0     C64010  10.270   5.557   5.506  0.6584  0.1306 -0.0349
  475MOL0     C64011  10.172   5.515   5.615 -0.0129  0.4940 -0.4373
  475MOL0     C64012  10.178   5.595   5.740  0.0138 -0.2019 -0.7149
  475MOL0     C64013  10.095   5.724   5.717 -0.5982 -0.6744  0.0708
  475MOL0     O64014  10.184   5.840   5.715  0.1023 -0.1477  0.0206
  475MOL0     C64015  10.205   5.904   5.830 -0.2012 -0.2335 -0.9950
  475MOL0     C64016  10.236   6.040   5.821  0.0825  0.3791 -0.2015
  475MOL0     C64017  10.273   6.114   5.931 -0.0519  0.2357  0.8951
  475MOL0     C64018  10.310   6.256   5.897  0.8716  0.4434 -0.0396
  475MOL0     C64019  10.302   6.045   6.054 -0.7584  0.4575 -0.2229
  475MOL0     C64020  10.343   6.110   6.186  0.5431  0.8918  0.7020
  475MOL0     O64021  10.325   6.038   6.299  0.3499  0.2438 -0.1732
  475MOL0     C64022  10.400   6.073   6.409 -0.5428 -0.4089 -0.6094
  475MOL0     C64023  10.416   6.204   6.467  0.3449 -0.2310  0.8211
  475MOL0     C64024  10.503   6.234   6.571  0.5553 -0.2368 -0.6612
  475MOL0     C64025  10.580   6.137   6.632  0.5950  0.3800 -0.3502
  475MOL0     O64026  10.681   6.163   6.724  0.9660 -0.3941  0.3359
  475MOL0     C64027  10.769   6.054   6.760 -0.3358 -0.1837  0.8509
  475MOL0     C64028  10.897   6.090   6.836 -0.1600 -0.8584 -0.6610
  475MOL0     C64029  11.000   6.175   6.758  0.1317 -0.4113 -1.0781
  475MOL0     C64030  11.140   6.136   6.768 -0.4225  0.0560 -0.8107
  475MOL0     C64031  11.222   6.129   6.900 -0.3300 -0.9358 -1.2458
  475MOL0     C64032  11.228   6.263   6.964 -0.1233 -0.2092 -1.1454
  475MOL0     C64033  11.280   6.260   7.109  0.6881 -0.7623 -0.5123
  475MOL0     C64034  11.288   6.393   7.177 -0.2163 -1.2783 -0.2209
  475MOL0    Cl64035  11.428   6.507   7.135 -0.0925 -0.0740 -0.3345
  475MOL0     C64036  10.556   6.005   6.582  0.1047  1.0615 -0.9611
  475MOL0     C64037  10.464   5.974   6.481 -0.4312  0.3399  1.0667
  475MOL0     O64038  10.406   6.211   6.174 -0.2303 -0.4705  0.8133
  475MOL0     C64039  10.272   5.912   6.063 -0.2887 -1.0334  1.0186
  475MOL0     C64040  10.216   5.839   5.952  0.3223 -0.3975  0.3066
  475MOL0     N64041  10.190   5.364   5.351  0.3956  0.6712  0.1473
  475MOL0     N64042  10.192   5.332   5.226  0.7239 -0.0952 -0.3899
  475MOL0     C64043  10.287   6.045   4.184 -0.8608 -0.6723  0.0440
  475MOL0     C64044  10.246   6.093   4.066 -0.4043  0.2030  0.7287
  475MOL0     C64045  10.135   6.416   3.788  0.7990  0.0769  0.1267
  475MOL0     C64046   9.999   6.417   3.745  0.0760 -0.6408  0.2486
  475MOL0     C64047   9.953   6.509   3.651 -0.8716 -0.4491 -0.1532
  475MOL0     C64048  10.032   6.616   3.603  0.2515  0.9636 -0.0776
  475MOL0     O64049   9.980   6.734   3.531 -0.7909 -1.0895  0.2009
  475MOL0     C64050   9.855   6.725   3.449 -0.9329  1.0920  1.1081
  475MOL0     C64051   9.880   6.820   3.329  0.4635 -0.2506 -0.4125
  475MOL0     C64052  10.008   6.791   3.248 -0.3966 -0.3152 -0.1245
  475MOL0     C64053  10.046   6.908   3.160  0.4590 -0.5022 -1.1446
  475MOL0     C64054  10.173   6.888   3.094  0.1682  0.1145 -0.3159
  475MOL0     C64055  10.286   6.885   3.040  1.4677 -0.0316  0.4268
  475MOL0     C64056  10.161   6.630   3.660 -0.3919 -0.1175 -0.2798
  475MOL0     C64057  10.210   6.532   3.753  0.2014 -1.5184 -0.0131
  475MOL0     H64058   9.997   6.313   4.133  0.4443  2.0211  3.7054
  475MOL0     H64059  10.055   6.230   4.368 -1.0060  0.1456 -1.2569
  475MOL0     H64060  10.384   5.914   4.372 -5.2067 -6.3116  3.2117
  475MOL0     H64061  10.441   6.055   4.468 -1.7612  3.5459 -2.0509
  475MOL0     H64062  10.420   5.828   4.581 -0.1964  1.2734 -2.7081
  475MOL0     H64063  10.369   5.975   4.668  2.3079  1.7859 -0.9381
  475MOL0     H64064  10.124   5.914   4.640  0.9447  1.2715 -2.1331
  475MOL0     H64065  10.164   5.805   4.498  2.0234 -2.6106 -0.6822
  475MOL0     H64066  10.101   5.673   4.676 -0.3864  2.1224 -3.2969
  475MOL0     H64067  10.280   5.660   4.643 -1.1360 -0.7095 -0.3976
  475MOL0     H64068  10.316   5.800   4.859 -0.9372 -0.2751  0.3863
  475MOL0     H64069  10.149   5.818   4.871 -0.5886 -0.1692  0.4225
  475MOL0     H64070  10.150   5.661   5.020  2.2417  0.1679 -0.0748
  475MOL0     H64071  10.123   5.564   4.868  1.9123 -2.2118  0.2110
  475MOL0     H64072  10.384   5.539   4.868  0.5493 -0.9815  0.8163
  475MOL0     H64073  10.388   5.639   5.018  1.3579  0.8706 -0.5784
  475MOL0     H64074  10.396   5.375   5.026 -0.3556 -0.9225  0.7817
  475MOL0     H64075  10.244   5.377   4.968  1.1115  1.3295 -0.6232
  475MOL0     H64076  10.314   5.645   5.234  0.0961  0.3764  0.7407
  475MOL0     H64077  10.375   5.537   5.530  1.1676  0.9071 -1.5483
  475MOL0     H64078  10.263   5.666   5.507  0.6006  0.1266  0.7614
  475MOL0     H64079  10.209   5.417   5.644  0.0842  0.8331  0.6401
  475MOL0     H64080  10.074   5.492   5.574  1.0085 -1.0505 -2.1282
  475MOL0     H64081  10.278   5.622   5.776 -0.6774  0.4721  0.7893
  475MOL0     H64082  10.130   5.533   5.816  1.2516 -1.5909 -1.0362
  475MOL0     H64083  10.028   5.740   5.802 -2.0557 -1.1265 -0.9486
  475MOL0     H64084  10.028   5.724   5.630  0.6579 -0.7571 -0.9408
  475MOL0     H64085  10.219   6.081   5.722  2.1013 -0.9493 -1.1818
  475MOL0     H64086  10.293   6.330   5.976 -0.5594  2.4352 -2.0884
  475MOL0     H64087  10.414   6.277   5.868  1.3087 -1.5163 -0.0432
  475MOL0     H64088  10.241   6.285   5.817  0.3477 -0.1913  0.1793
  475MOL0     H64089  10.345   6.282   6.442 -1.2290 -1.2191  2.0242
  475MOL0     H64090  10.516   6.336   6.605  2.8677 -0.4131 -0.8599
  475MOL0     H64091  10.709   5.989   6.825 -3.7033 -0.6391 -2.3831
  475MOL0     H64092  10.802   5.988   6.679  2.2304  0.1372  1.5540
  475MOL0     H64093  10.864   6.149   6.922 -1.4294 -3.4698  0.7808
  475MOL0     H64094  10.944   5.996   6.865  1.7686  0.2216 -0.1068
  475MOL0     H64095  10.978   6.279   6.781 -0.7688 -0.7570 -0.3422
  475MOL0     H64096  10.977   6.172   6.651 -0.0089 -1.9944 -1.0208
  475MOL0     H64097  11.135   6.034   6.729  0.1301 -0.2900 -0.0005
  475MOL0     H64098  11.194   6.196   6.695  2.4226 -1.3199  0.0246
  475MOL0     H64099  11.322   6.085   6.898  0.2490  0.2607 -0.1337
  475MOL0     H64100  11.163   6.061   6.963  1.7324 -2.2456 -0.5792
  475MOL0     H64101  11.279   6.339   6.905  0.6425  0.2371  0.0590
  475MOL0     H64102  11.125   6.298   6.972  0.3378  0.7202  1.3831
  475MOL0     H64103  11.376   6.210   7.118  1.3096  0.5189  0.2633
  475MOL0     H64104  11.205   6.208   7.170  0.9450  1.6427  2.0487
  475MOL0     H64105  11.291   6.374   7.284 -0.1035 -0.5260 -0.0834
  475MOL0     H64106  11.195   6.447   7.161 -0.2563 -1.7143 -1.5995
  475MOL0     H64107  10.606   5.924   6.636 -0.9395  1.4620  0.6867
  475MOL0     H64108  10.464   5.878   6.430 -2.6403  1.9248 -2.3453
  475MOL0     H64109  10.302   5.862   6.155  2.6739 -2.2035 -0.4557
  475MOL0     H64110  10.184   5.737   5.970 -1.1246 -0.4992 -2.3655
  475MOL0     H64111  10.370   5.975   4.194 -0.1631  0.3707  2.0689
  475MOL0     H64112  10.288   6.039   3.983 -4.1952  1.7808 -2.5307
  475MOL0     H64113   9.927   6.345   3.782 -3.5356  1.5731 -1.8548
  475MOL0     H64114   9.849   6.505   3.622 -2.2035  3.4567  3.1135
  475MOL0     H64115   9.830   6.629   3.402  2.9466  0.5214 -0.2071
  475MOL0     H64116   9.768   6.758   3.505 -1.2657 -2.0074  2.6628
  475MOL0     H64117   9.900   6.909   3.390  1.2854 -2.1446  2.2674
  475MOL0     H64118   9.801   6.836   3.255  2.5843 -3.9139 -3.8973
  475MOL0     H64119   9.991   6.717   3.169  3.8103  1.2108 -2.8534
  475MOL0     H64120  10.084   6.752   3.316 -1.9628 -0.9115  1.3457
  475MOL0     H64121  10.054   7.005   3.211  0.7260 -1.0890 -0.0479
  475MOL0     H64122   9.958   6.935   3.100  0.2422 -0.8824 -1.0043
  475MOL0     H64123  10.380   6.885   2.988  0.1615 -0.0478 -2.1163
  475MOL0     H64124  10.225   6.715   3.637 -0.4224 -0.0558 -0.1339
  475MOL0     H64125  10.309   6.545   3.795  0.4020 -0.7077 -0.7177
  476MOL0     O64126   1.406   4.652   6.449 -0.4627  0.5288 -0.2987
  476MOL0     C64127   1.401   4.563   6.538  2.0122 -0.2104 -0.3666
  476MOL0     O64128   1.273   4.527   6.594  0.2114  0.1814 -0.1940
  476MOL0     C64129   1.164   4.606   6.571  0.8330 -0.0430  0.4583
  476MOL0     C64130   1.160   4.741   6.614 -0.4327  0.2489  0.3869
  476MOL0     C64131   1.039   4.808   6.599  0.6336 -0.1288  0.1358
  476MOL0     C64132   0.928   4.748   6.541 -0.6298  0.9204  0.0403
  476MOL0     O64133   0.812   4.819   6.509  0.5547  0.3597  0.1417
  476MOL0     C64134   0.827   4.941   6.419  0.5219  0.0867 -0.4370
  476MOL0     C64135   0.708   4.962   6.329 -0.5709 -0.0861  0.8396
  476MOL0     C64136   0.580   4.949   6.417 -0.3795 -0.4421 -0.5099
  476MOL0     C64137   0.450   4.967   6.341  0.1369 -0.4369  0.0545
  476MOL0     C64138   0.415   4.842   6.257  0.7762  0.1071 -0.7938
  476MOL0     C64139   0.327   4.755   6.347  0.4801  0.2582  0.1882
  476MOL0     C64140   0.260   4.646   6.267  0.9372  0.2869  0.3589
  476MOL0     C64141   0.145   4.572   6.330 -0.4155 -0.1612 -0.7174
  476MOL0     N64142   0.035   4.650   6.382  0.2887 -0.7161 -0.3723
  476MOL0     C64143   0.020   4.703   6.511  0.0743  0.3232 -0.1347
  476MOL0     C64144  -0.104   4.756   6.510  0.6785  0.2620 -1.2078
  476MOL0     C64145  -0.170   4.815   6.630 -0.2481 -0.2003 -0.6303
  476MOL0     C64146  -0.259   4.708   6.692 -0.6977 -1.1721  0.3560
  476MOL0     C64147  -0.375   4.676   6.606  0.2651 -1.0346 -0.7160
  476MOL0     C64148  -0.485   4.600   6.683 -0.0832  0.2753  1.1012
  476MOL0     O64149  -0.604   4.593   6.606  0.6114  0.8848  0.4105
  476MOL0     C64150  -0.714   4.527   6.659  0.4538 -0.4952  0.3819
  476MOL0     C64151  -0.726   4.445   6.763 -0.3678  0.6740  0.2522
  476MOL0     C64152  -0.842   4.401   6.826 -0.2628  0.3207 -0.2588
  476MOL0     C64153  -0.839   4.338   6.956  0.2834  0.0357 -0.4877
  476MOL0     C64154  -0.964   4.429   6.752  0.1379 -0.0723 -0.1891
  476MOL0     C64155  -1.103   4.380   6.786  0.2659 -0.1645 -0.0139
  476MOL0     O64156  -1.205   4.417   6.698 -0.3379  0.5682  0.2463
  476MOL0     C64157  -1.304   4.326   6.670 -0.4184  0.7951  0.2642
  476MOL0     C64158  -1.262   4.200   6.636  0.2552 -0.3160 -0.2506
  476MOL0     C64159  -1.351   4.110   6.581 -0.3519 -0.4895  0.6800
  476MOL0     C64160  -1.481   4.151   6.561 -0.4051  0.1845 -0.0037
  476MOL0     O64161  -1.560   4.046   6.516 -0.2792  0.3378 -0.1398
  476MOL0     C64162  -1.689   4.081   6.456  0.4435  0.9242  0.3098
  476MOL0     C64163  -1.740   3.955   6.380 -0.4434 -0.3945  0.0387
  476MOL0     C64164  -1.766   3.832   6.470  0.2406  0.9286 -0.2910
  476MOL0     C64165  -1.859   3.729   6.399 -0.6679  0.1275 -0.7646
  476MOL0     C64166  -2.018   3.765   6.410  0.0086 -0.8319  0.6954
  476MOL0     C64167  -2.054   3.823   6.547  0.5768 -0.7399  0.3957
  476MOL0     C64168  -2.211   3.834   6.553  0.5579  0.9357 -0.0765
  476MOL0     C64169  -2.260   3.873   6.693  1.2644  1.2454  0.2299
  476MOL0    Cl64170  -2.254   3.717   6.788  0.1897  0.3901 -0.4323
  476MOL0     C64171  -1.522   4.278   6.596 -0.0860  1.0155  0.5062
  476MOL0     C64172  -1.432   4.369   6.643  0.8812  0.9865 -0.5376
  476MOL0     O64173  -1.114   4.306   6.886 -0.2428  0.2237  0.0274
  476MOL0     C64174  -0.949   4.494   6.631  0.1281 -0.4394  1.2716
  476MOL0     C64175  -0.833   4.547   6.588 -0.7040 -0.3079 -0.3587
  476MOL0     N64176  -0.169   4.736   6.385 -0.3125  0.3608 -0.2234
  476MOL0     N64177  -0.074   4.677   6.311  0.1552 -0.3146 -0.0871
  476MOL0     C64178   0.933   4.613   6.509  0.3259 -0.1676 -0.4076
  476MOL0     C64179   1.053   4.539   6.528  1.2540 -0.4637 -0.3901
  476MOL0     C64180   1.530   4.506   6.567 -0.3321 -0.6413 -0.3224
  476MOL0     C64181   1.646   4.508   6.483 -0.2727  0.2417  0.1798
  476MOL0     C64182   1.767   4.437   6.522  0.5520  0.3355 -0.3726
  476MOL0     C64183   1.779   4.380   6.650  0.5023  0.1220 -0.0604
  476MOL0     O64184   1.883   4.310   6.691 -1.1566 -1.1247 -0.3125
  476MOL0     C64185   2.003   4.309   6.610 -0.2572  0.4439 -0.2994
  476MOL0     C64186   2.078   4.446   6.644 -1.2826 -0.2857  0.6377
  476MOL0     C64187   2.140   4.446   6.781  0.6575 -0.3127 -0.1014
  476MOL0     C64188   2.192   4.583   6.830  0.1846 -0.1542  0.2168
  476MOL0     C64189   2.273   4.564   6.952 -0.2588 -0.3196  0.8214
  476MOL0     C64190   2.350   4.529   7.041 -0.0281  0.1730 -0.2013
  476MOL0     C64191   1.664   4.390   6.729 -0.5937  0.2753 -0.3008
  476MOL0     C64192   1.546   4.458   6.695  0.6476  0.4085 -0.1707
  476MOL0     H64193   1.249   4.770   6.668 -0.9619 -0.8970  1.9320
  476MOL0     H64194   1.043   4.911   6.633  0.7370 -0.6408  1.8063
  476MOL0     H64195   0.835   5.031   6.481 -2.0425 -0.8132  1.3889
  476MOL0     H64196   0.916   4.935   6.356  0.2153  0.6752 -0.9293
  476MOL0     H64197   0.713   5.061   6.284 -3.3689  0.5395  1.7208
  476MOL0     H64198   0.702   4.888   6.249 -2.0107  0.7691  0.1210
  476MOL0     H64199   0.567   4.851   6.464 -0.5222  0.3268  1.1191
  476MOL0     H64200   0.581   5.023   6.497 -0.4333 -1.2401  0.2433
  476MOL0     H64201   0.369   4.980   6.414  0.0671 -1.4202  0.1627
  476MOL0     H64202   0.472   5.053   6.278  2.8179 -1.8723 -1.1458
  476MOL0     H64203   0.351   4.878   6.176  2.5437  3.1398 -1.0061
  476MOL0     H64204   0.504   4.788   6.225  1.1641  0.4445 -0.3021
  476MOL0     H64205   0.390   4.707   6.423  0.3404 -0.4824 -0.1582
  476MOL0     H64206   0.249   4.810   6.401  0.4943 -2.1757  2.9073
  476MOL0     H64207   0.230   4.679   6.167 -3.3634  0.2901  1.4809
  476MOL0     H64208   0.339   4.570   6.259  0.8058  0.2769 -1.4102
  476MOL0     H64209   0.186   4.507   6.408 -1.7618 -2.4505 -1.8247
  476MOL0     H64210   0.116   4.503   6.251  0.9206 -2.4045  0.6318
  476MOL0     H64211   0.089   4.690   6.594 -0.2368 -3.3874 -0.2904
  476MOL0     H64212  -0.085   4.835   6.696  0.8874  1.0552 -2.3739
  476MOL0     H64213  -0.225   4.909   6.617 -0.7761 -0.0971  1.8594
  476MOL0     H64214  -0.293   4.772   6.774  1.2549  1.8576 -1.0327
  476MOL0     H64215  -0.206   4.616   6.721  4.1420  0.4975 -2.0534
  476MOL0     H64216  -0.341   4.607   6.528  1.4256 -2.4670  0.9691
  476MOL0     H64217  -0.423   4.764   6.563  2.7254  0.8735  0.1642
  476MOL0     H64218  -0.498   4.646   6.781 -2.7880 -0.2855  1.0979
  476MOL0     H64219  -0.456   4.500   6.716 -0.7315  0.0339  0.9619
  476MOL0     H64220  -0.634   4.419   6.816  0.5700  1.3799 -0.9786
  476MOL0     H64221  -0.902   4.399   7.022  0.4545 -0.0053 -0.2832
  476MOL0     H64222  -0.863   4.231   6.955 -3.3280  0.7208 -1.0928
  476MOL0     H64223  -0.737   4.346   6.994  0.8117  0.6422 -1.9540
  476MOL0     H64224  -1.159   4.167   6.651 -0.5893 -2.2690  2.0201
  476MOL0     H64225  -1.328   4.008   6.550 -1.5827 -0.7966  0.6932
  476MOL0     H64226  -1.759   4.118   6.531  1.0443 -0.4762  1.5817
  476MOL0     H64227  -1.684   4.161   6.380  1.6652 -0.4911 -1.1843
  476MOL0     H64228  -1.832   3.979   6.325 -1.0453  0.4740  1.3719
  476MOL0     H64229  -1.675   3.930   6.296 -0.5360  2.5069 -1.0083
  476MOL0     H64230  -1.801   3.871   6.566 -0.7798 -0.3377 -0.1196
  476MOL0     H64231  -1.669   3.786   6.490 -0.4768  0.0043  1.1910
  476MOL0     H64232  -1.827   3.724   6.294 -2.8836 -0.6500 -1.4616
  476MOL0     H64233  -1.838   3.638   6.456 -2.5064  1.7644  2.8742
  476MOL0     H64234  -2.071   3.670   6.393 -3.7518  1.0512  0.9113
  476MOL0     H64235  -2.056   3.838   6.338  0.5627 -2.4089 -1.2905
  476MOL0     H64236  -2.021   3.760   6.630 -0.7462  0.0034  1.5441
  476MOL0     H64237  -2.007   3.921   6.559 -1.0626 -0.0824  2.0243
  476MOL0     H64238  -2.255   3.740   6.519 -0.8794  0.9341  1.6297
  476MOL0     H64239  -2.253   3.910   6.487  1.0481 -1.0621 -2.8522
  476MOL0     H64240  -2.363   3.909   6.691  0.9916  0.4579 -1.3912
  476MOL0     H64241  -2.196   3.949   6.740  0.4596  2.5501 -0.7249
  476MOL0     H64242  -1.622   4.309   6.567  0.0584 -0.6624 -2.1933
  476MOL0     H64243  -1.462   4.473   6.648 -0.8367  0.5267 -0.7015
  476MOL0     H64244  -1.033   4.489   6.563  3.9713  0.1447 -4.1810
  476MOL0     H64245  -0.829   4.614   6.503  2.4725 -3.7021 -3.2491
  476MOL0     H64246   0.837   4.570   6.481 -0.6786  1.0300  1.0188
  476MOL0     H64247   1.034   4.435   6.506 -0.4044 -0.6508  1.5904
  476MOL0     H64248   1.636   4.567   6.392 -1.1630 -1.0524 -0.5833
  476MOL0     H64249   1.853   4.443   6.456  1.0933 -2.8270 -0.1355
  476MOL0     H64250   2.070   4.228   6.641  0.5212  0.1190 -2.6019
  476MOL0     H64251   1.978   4.288   6.505 -6.4319 -5.9653  1.6557
  476MOL0     H64252   2.010   4.532   6.632  1.5405  1.7635 -2.7316
  476MOL0     H64253   2.155   4.461   6.568  1.8116 -1.8219  3.2504
  476MOL0     H64254   2.223   4.376   6.771  0.4250 -0.6095  0.0035
  476MOL0     H64255   2.063   4.423   6.855  2.0241  0.5284  1.6277
  476MOL0     H64256   2.114   4.653   6.862 -1.4593 -1.5628 -0.5415
  476MOL0     H64257   2.251   4.627   6.749 -0.7505  2.3238  0.7860
  476MOL0     H64258   2.423   4.515   7.118  2.6346  2.6414 -2.0356
  476MOL0     H64259   1.667   4.335   6.823 -0.7909 -0.8766 -0.9526
  476MOL0     H64260   1.479   4.451   6.780  0.9508 -1.5009 -0.0362
  477MOL0     O64261   2.443   6.826   0.232 -0.1081 -0.4092 -0.5368
  477MOL0     C64262   2.351   6.793   0.307 -0.5683  0.2109 -0.8930
  477MOL0     O64263   2.363   6.750   0.448 -0.9405 -0.5910 -0.1360
  477MOL0     C64264   2.482   6.751   0.523 -0.7519 -0.0118 -0.1588
  477MOL0     C64265   2.473   6.707   0.656  0.5984 -0.3795 -0.2337
  477MOL0     C64266   2.577   6.724   0.746  0.5362  0.8810  0.7000
  477MOL0     C64267   2.701   6.768   0.703  0.4401  0.1167 -0.0456
  477MOL0     O64268   2.793   6.787   0.797  0.7659  0.1890 -0.2433
  477MOL0     C64269   2.892   6.894   0.773  0.3960  0.0469 -0.0017
  477MOL0     C64270   2.990   6.910   0.889  0.8604  0.1327  0.0626
  477MOL0     C64271   3.085   7.027   0.868 -0.5688 -0.1994 -0.0416
  477MOL0     C64272   3.182   7.059   0.989  0.2499 -0.0342 -0.0710
  477MOL0     C64273   3.104   7.114   1.103  0.0960 -0.4163  0.3249
  477MOL0     C64274   3.183   7.134   1.226 -0.6486 -0.2926  0.3820
  477MOL0     C64275   3.320   7.214   1.205  0.7732 -0.1921 -0.8000
  477MOL0     C64276   3.293   7.358   1.173 -0.3123 -0.7522 -0.1631
  477MOL0     N64277   3.409   7.434   1.208 -0.8435 -1.0985 -0.2913
  477MOL0     C64278   3.414   7.527   1.320 -0.6520 -0.4601  0.4892
  477MOL0     C64279   3.544   7.563   1.345  0.2736  1.1560 -0.2419
  477MOL0     C64280   3.574   7.651   1.459 -0.2089  0.9045  0.0756
  477MOL0     C64281   3.707   7.717   1.464  0.2206  0.4999  0.5160
  477MOL0     C64282   3.823   7.615   1.455  1.1581  0.2058  0.1485
  477MOL0     C64283   3.956   7.671   1.479  0.0948 -0.1227 -0.1283
  477MOL0     O64284   4.046   7.555   1.494  1.1544  1.4570 -0.2200
  477MOL0     C64285   4.081   7.505   1.618 -0.1676  0.0103 -0.3987
  477MOL0     C64286   4.004   7.502   1.725  0.8143  0.3451  0.0020
  477MOL0     C64287   4.039   7.456   1.855 -0.2045  0.5180 -0.4740
  477MOL0     C64288   3.939   7.463   1.984 -0.2843  0.0250 -0.1353
  477MOL0     C64289   4.166   7.403   1.869 -0.9037 -0.5537  0.1955
  477MOL0     C64290   4.221   7.346   1.996  0.2473 -0.6476 -0.1695
  477MOL0     O64291   4.338   7.406   2.038 -0.2672  0.1362  1.0061
  477MOL0     C64292   4.378   7.360   2.159 -0.5060  0.9849  0.7957
  477MOL0     C64293   4.465   7.249   2.171 -0.7945 -0.0888  0.0080
  477MOL0     C64294   4.518   7.209   2.302  1.0347 -0.4473  0.6417
  477MOL0     C64295   4.459   7.270   2.411 -0.2230 -0.3417  0.6927
  477MOL0     O64296   4.511   7.236   2.538 -0.0150  0.1657 -0.1823
  477MOL0     C64297   4.491   7.096   2.584  0.3056 -0.0555  0.7164
  477MOL0     C64298   4.348   7.056   2.619  0.4525  0.3929 -0.8734
  477MOL0     C64299   4.300   7.104   2.764 -0.3068 -1.1435  0.4914
  477MOL0     C64300   4.299   7.265   2.766  0.6548  0.5875  1.3288
  477MOL0     C64301   4.219   7.307   2.885  0.1325 -0.0099 -0.0651
  477MOL0     C64302   4.300   7.266   3.005  0.7570 -0.0824  0.5305
  477MOL0     C64303   4.249   7.332   3.123  0.1516  0.3096  0.9877
  477MOL0     C64304   4.342   7.328   3.238  0.0929 -0.3790 -0.0010
  477MOL0    Cl64305   4.410   7.163   3.264 -0.2077  0.6621  0.0757
  477MOL0     C64306   4.370   7.376   2.402  0.4162  0.1320  0.7556
  477MOL0     C64307   4.330   7.425   2.269 -0.2507  0.5506 -0.8860
  477MOL0     O64308   4.147   7.272   2.069 -0.1910  0.1482  0.3061
  477MOL0     C64309   4.256   7.420   1.765 -0.7512  1.0756  0.0486
  477MOL0     C64310   4.217   7.459   1.636  0.7132 -0.3842  0.0878
  477MOL0     N64311   3.613   7.482   1.260  0.2894 -0.4847 -0.0108
  477MOL0     N64312   3.542   7.412   1.174  0.0221  0.7804 -0.4574
  477MOL0     C64313   2.719   6.793   0.569 -0.7576  0.7802 -0.4680
  477MOL0     C64314   2.614   6.800   0.482  0.2933 -0.1495 -1.0984
  477MOL0     C64315   2.218   6.812   0.247 -0.6741  0.2992  0.8903
  477MOL0     C64316   2.200   6.894   0.123 -0.0026 -0.4312  0.2891
  477MOL0     C64317   2.075   6.896   0.061  0.2578  0.5487  1.5839
  477MOL0     C64318   1.967   6.820   0.110 -0.2521 -1.0626 -0.7382
  477MOL0     O64319   1.851   6.807   0.036  0.4108  0.1470  0.2965
  477MOL0     C64320   1.832   6.882  -0.089  0.1597 -0.0126 -0.7931
  477MOL0     C64321   1.678   6.871  -0.114  0.1327  0.9292 -0.2562
  477MOL0     C64322   1.613   7.007  -0.112  0.9202 -0.2528  0.5595
  477MOL0     C64323   1.467   7.003  -0.168 -0.3139 -0.2729 -0.9118
  477MOL0     C64324   1.466   6.966  -0.317 -0.2847 -0.8256  0.2400
  477MOL0     C64325   1.458   6.922  -0.427 -0.5160  0.0811 -0.1429
  477MOL0     C64326   1.982   6.746   0.229  0.0363  0.0730 -0.0875
  477MOL0     C64327   2.106   6.738   0.298 -0.2983  0.5880 -0.3169
  477MOL0     H64328   2.381   6.665   0.693  0.9381 -0.8527  0.0911
  477MOL0     H64329   2.560   6.683   0.844  0.8818  2.5355  1.4883
  477MOL0     H64330   2.954   6.858   0.691 -1.5187 -1.4502 -0.8738
  477MOL0     H64331   2.850   6.992   0.745  2.2381  0.6455 -0.8443
  477MOL0     H64332   2.936   6.938   0.980  0.4160  3.2146 -1.0416
  477MOL0     H64333   3.041   6.816   0.913 -0.8836 -0.8283  0.2019
  477MOL0     H64334   3.154   7.002   0.787  0.7816 -1.3083  1.3847
  477MOL0     H64335   3.031   7.116   0.833  1.1174  1.0967  0.5556
  477MOL0     H64336   3.218   6.960   1.018 -3.6435 -2.0399 -1.3683
  477MOL0     H64337   3.270   7.123   0.971  1.5377 -2.0328 -1.2572
  477MOL0     H64338   3.064   7.205   1.057 -3.8023 -1.5009  1.1973
  477MOL0     H64339   3.018   7.052   1.129 -0.9498  0.1007 -1.7325
  477MOL0     H64340   3.121   7.179   1.303 -1.5877 -2.0701  0.7206
  477MOL0     H64341   3.200   7.029   1.251 -2.0435 -0.0908  2.4193
  477MOL0     H64342   3.379   7.213   1.297  0.4840  2.0398 -0.5417
  477MOL0     H64343   3.384   7.183   1.121 -2.2310  1.9093 -4.1465
  477MOL0     H64344   3.210   7.404   1.228 -0.5844 -1.2464 -0.1532
  477MOL0     H64345   3.263   7.371   1.068  1.4543 -4.5581 -1.3204
  477MOL0     H64346   3.330   7.566   1.376 -2.1013  0.8646 -2.3679
  477MOL0     H64347   3.493   7.722   1.478 -2.6089 -1.6603  0.0570
  477MOL0     H64348   3.580   7.586   1.546  2.2017 -1.7868 -1.8955
  477MOL0     H64349   3.719   7.783   1.550  2.4385  2.8577 -1.4278
  477MOL0     H64350   3.727   7.782   1.378 -0.8216  2.8711  1.9765
  477MOL0     H64351   3.823   7.578   1.352 -0.2779  0.2388  0.1054
  477MOL0     H64352   3.795   7.528   1.515 -0.0436 -1.0421 -2.0498
  477MOL0     H64353   3.938   7.726   1.572  1.6508 -2.9499  2.0150
  477MOL0     H64354   3.999   7.730   1.398 -1.1525  1.8957  0.5849
  477MOL0     H64355   3.900   7.534   1.729  1.3783  2.1748  2.2891
  477MOL0     H64356   3.899   7.363   2.005  0.0839 -0.1954 -0.4792
  477MOL0     H64357   3.993   7.493   2.074 -0.5737 -3.6593  1.4542
  477MOL0     H64358   3.859   7.536   1.966 -0.0089 -0.0760 -1.8807
  477MOL0     H64359   4.515   7.208   2.084  1.9391 -3.0595  2.7219
  477MOL0     H64360   4.607   7.148   2.319  1.3294 -0.8671 -1.9537
  477MOL0     H64361   4.525   7.025   2.507 -0.5187  0.6789 -0.3566
  477MOL0     H64362   4.551   7.081   2.674  1.7514 -0.2761 -0.2460
  477MOL0     H64363   4.274   7.088   2.545 -0.1020  1.6235  0.1516
  477MOL0     H64364   4.363   6.948   2.624 -0.1037  0.2354 -2.3330
  477MOL0     H64365   4.371   7.081   2.844  2.4301  2.4600 -0.5958
  477MOL0     H64366   4.202   7.059   2.781 -0.0114 -2.8510 -1.7116
  477MOL0     H64367   4.401   7.306   2.760  0.9698 -0.3569 -0.2668
  477MOL0     H64368   4.236   7.298   2.684  0.0375 -0.6151  1.3093
  477MOL0     H64369   4.121   7.261   2.867  1.4110 -1.3197 -5.1247
  477MOL0     H64370   4.201   7.415   2.887  2.4578  0.4259 -0.3041
  477MOL0     H64371   4.291   7.158   3.018 -1.7294 -0.1700 -1.1794
  477MOL0     H64372   4.407   7.281   2.991  0.6980  1.3981  1.4353
  477MOL0     H64373   4.153   7.285   3.150  0.0756  0.0240  0.2658
  477MOL0     H64374   4.233   7.437   3.100 -0.2364 -0.4084 -2.6922
  477MOL0     H64375   4.285   7.359   3.326  0.3585 -0.3307  0.1541
  477MOL0     H64376   4.421   7.399   3.213 -0.3518  0.6252  1.2994
  477MOL0     H64377   4.323   7.415   2.492 -2.3180  0.1471 -0.5791
  477MOL0     H64378   4.254   7.502   2.269  1.1858  2.0553  0.4737
  477MOL0     H64379   4.360   7.388   1.774 -0.3070  1.9727 -1.6532
  477MOL0     H64380   4.278   7.451   1.548 -0.6394 -0.6449 -0.8622
  477MOL0     H64381   2.816   6.820   0.529 -1.4425  2.8892 -0.8314
  477MOL0     H64382   2.645   6.829   0.382 -1.1631 -0.5203 -1.6852
  477MOL0     H64383   2.284   6.943   0.074 -0.3424  0.4893  0.5984
  477MOL0     H64384   2.065   6.950  -0.033 -0.7422 -0.0911  1.3144
  477MOL0     H64385   1.859   6.988  -0.080  0.3392 -0.0896 -0.4094
  477MOL0     H64386   1.892   6.829  -0.163  0.7686 -0.0328 -0.2943
  477MOL0     H64387   1.631   6.801  -0.045  3.2836 -1.9981 -0.7943
  477MOL0     H64388   1.668   6.833  -0.216 -1.1036  3.9980 -1.4002
  477MOL0     H64389   1.675   7.068  -0.179 -1.0989 -0.5720 -1.7099
  477MOL0     H64390   1.607   7.052  -0.013 -0.0439 -2.1164  1.3998
  477MOL0     H64391   1.430   7.104  -0.147  0.8835  0.0386 -0.2079
  477MOL0     H64392   1.407   6.934  -0.109 -4.4788  2.6896 -1.2441
  477MOL0     H64393   1.443   6.890  -0.528  4.2007 -0.0426 -1.0195
  477MOL0     H64394   1.890   6.697   0.260 -0.9255 -0.0812 -2.9411
  477MOL0     H64395   2.112   6.673   0.385 -0.1923  2.7643  1.3882
  478MOL0     O64396   2.123   5.567   1.827 -0.2757 -0.4526 -0.8919
  478MOL0     C64397   2.101   5.664   1.755 -0.8740 -0.7008 -0.0080
  478MOL0     O64398   2.053   5.786   1.803 -0.0862 -0.4593  1.3576
  478MOL0     C64399   1.998   5.799   1.927 -0.5322 -0.3834 -0.6351
  478MOL0     C64400   1.868   5.769   1.956  0.4627 -0.1816 -0.0979
  478MOL0     C64401   1.831   5.765   2.089  0.7139  0.9267 -1.0045
  478MOL0     C64402   1.915   5.813   2.198  0.7650  0.3946  0.6282
  478MOL0     O64403   1.857   5.816   2.319  0.0540  0.6092 -0.6877
  478MOL0     C64404   1.943   5.800   2.433  0.9293 -0.2677 -1.0214
  478MOL0     C64405   1.851   5.806   2.555  0.2732 -0.2593  0.3382
  478MOL0     C64406   1.936   5.780   2.674  0.3929 -0.5462 -0.9687
  478MOL0     C64407   1.858   5.821   2.799 -0.1559 -0.5530  0.2232
  478MOL0     C64408   1.936   5.792   2.919  0.0145  0.0498 -0.2760
  478MOL0     C64409   1.869   5.844   3.044 -0.0639  0.3228 -0.1440
  478MOL0     C64410   1.944   5.797   3.167 -0.9936  0.4008  0.2916
  478MOL0     C64411   1.874   5.842   3.288 -0.0956 -0.0180  0.5131
  478MOL0     N64412   1.959   5.851   3.404 -0.3668  0.0669 -0.6424
  478MOL0     C64413   1.943   5.946   3.495 -0.7173  0.0372 -0.3035
  478MOL0     C64414   2.018   5.892   3.603  1.1516 -0.8613 -0.2500
  478MOL0     C64415   2.049   5.951   3.733 -0.1257 -0.7171 -0.0718
  478MOL0     C64416   2.016   5.862   3.852  0.2178 -0.6957  0.8936
  478MOL0     C64417   2.056   5.906   3.997  0.2850  0.8553 -0.7280
  478MOL0     C64418   2.077   5.787   4.091  1.8229  0.9207 -0.6774
  478MOL0     O64419   1.969   5.695   4.094 -0.1260  0.8403 -0.1062
  478MOL0     C64420   1.843   5.742   4.120 -0.9889  0.0664  1.0872
  478MOL0     C64421   1.812   5.834   4.225  0.8587 -0.6755  0.2226
  478MOL0     C64422   1.676   5.882   4.240 -0.2961  1.1164  0.6454
  478MOL0     C64423   1.665   5.981   4.348 -1.3858 -0.7195  0.4386
  478MOL0     C64424   1.576   5.843   4.144 -0.0406 -1.2263 -0.3694
  478MOL0     C64425   1.442   5.908   4.138  0.2678  1.3585  0.8866
  478MOL0     O64426   1.424   6.026   4.188  0.3260 -0.5208  0.0566
  478MOL0     C64427   1.311   6.091   4.159 -0.0715 -0.2570  0.6510
  478MOL0     C64428   1.328   6.220   4.096 -0.2650  1.0343  1.0535
  478MOL0     C64429   1.218   6.298   4.063  1.1210 -0.5969 -0.1419
  478MOL0     C64430   1.083   6.255   4.092  0.1850 -0.1624 -0.1744
  478MOL0     O64431   0.968   6.315   4.068 -0.4214 -0.5299  0.1550
  478MOL0     C64432   0.974   6.429   3.979  0.5862  0.1766  0.3214
  478MOL0     C64433   0.831   6.489   3.957 -0.9313  0.0161  0.4133
  478MOL0     C64434   0.732   6.376   3.898  0.8629 -0.6563  0.3470
  478MOL0     C64435   0.607   6.451   3.857 -0.0837 -0.6351  0.2844
  478MOL0     C64436   0.482   6.361   3.822  0.1971 -0.3581 -0.9123
  478MOL0     C64437   0.396   6.439   3.720 -0.4939 -0.0504 -1.2737
  478MOL0     C64438   0.335   6.568   3.772  0.4873 -0.0341 -0.5815
  478MOL0     C64439   0.281   6.651   3.662  1.1257 -0.1632  0.3330
  478MOL0    Cl64440   0.152   6.564   3.573 -0.0605 -0.3527  0.2371
  478MOL0     C64441   1.068   6.125   4.154  0.6541 -0.6186  0.8330
  478MOL0     C64442   1.180   6.046   4.176  0.6745  0.2823 -0.1336
  478MOL0     O64443   1.349   5.833   4.088  0.0626 -0.1693  0.0664
  478MOL0     C64444   1.607   5.743   4.046 -0.9763  0.3488 -0.0531
  478MOL0     C64445   1.739   5.693   4.037 -0.2831 -0.2206  0.2615
  478MOL0     N64446   2.051   5.763   3.569 -0.6350  0.0986 -0.2219
  478MOL0     N64447   2.031   5.743   3.443  0.4264 -0.4599  0.6534
  478MOL0     C64448   2.043   5.840   2.163  0.8036  0.2843  0.4401
  478MOL0     C64449   2.082   5.825   2.038 -0.0481  0.4152  1.1355
  478MOL0     C64450   2.154   5.665   1.617  0.5700 -0.0121 -0.2453
  478MOL0     C64451   2.147   5.779   1.536  0.1621  0.4047 -0.9156
  478MOL0     C64452   2.182   5.777   1.402  0.2846  0.3187 -0.8407
  478MOL0     C64453   2.233   5.664   1.351 -0.1101  0.6393 -0.7176
  478MOL0     O64454   2.267   5.675   1.221 -0.0344  0.5139 -0.2859
  478MOL0     C64455   2.374   5.585   1.170  0.3780 -0.8954 -0.4748
  478MOL0     C64456   2.414   5.633   1.027 -0.6172 -0.3893 -0.2113
  478MOL0     C64457   2.479   5.507   0.973  0.8389  1.1957  0.6306
  478MOL0     C64458   2.504   5.521   0.828 -0.2626 -0.2729 -1.1560
  478MOL0     C64459   2.511   5.388   0.764  0.4406 -0.1790  0.3747
  478MOL0     C64460   2.528   5.286   0.698  0.0767 -0.0310  0.2676
  478MOL0     C64461   2.238   5.544   1.422 -0.3878 -0.5126  0.5205
  478MOL0     C64462   2.199   5.544   1.553  0.2221  0.2266  0.0190
  478MOL0     H64463   1.794   5.749   1.878 -0.6268  0.9049  0.6178
  478MOL0     H64464   1.733   5.731   2.120  0.2679  2.0048 -1.1913
  478MOL0     H64465   1.983   5.698   2.432  1.0662 -0.2425  0.1843
  478MOL0     H64466   2.014   5.883   2.439  0.2300  0.5023 -2.7094
  478MOL0     H64467   1.802   5.904   2.562  1.2961  0.3984 -1.1264
  478MOL0     H64468   1.766   5.738   2.551  0.2438 -0.3345  1.7454
  478MOL0     H64469   1.950   5.671   2.678 -0.1992 -0.6442 -1.4651
  478MOL0     H64470   2.033   5.830   2.676 -0.7874  1.9405 -2.4648
  478MOL0     H64471   1.821   5.924   2.806  2.8126  0.5137  2.2961
  478MOL0     H64472   1.763   5.768   2.799 -0.1803 -0.5595 -1.3359
  478MOL0     H64473   1.939   5.683   2.922 -2.2455 -0.1596 -2.6256
  478MOL0     H64474   2.039   5.830   2.920 -0.0720  0.4429  2.7136
  478MOL0     H64475   1.865   5.953   3.046  0.2824  0.4028  3.9729
  478MOL0     H64476   1.764   5.813   3.049 -0.1212  0.6137  0.4689
  478MOL0     H64477   1.971   5.691   3.164 -1.1022  0.3442 -3.4687
  478MOL0     H64478   2.038   5.851   3.155 -1.0949  0.5317  0.0780
  478MOL0     H64479   1.802   5.766   3.320 -1.8609  2.4479  2.8173
  478MOL0     H64480   1.822   5.937   3.271  1.9673  1.5484  2.3499
  478MOL0     H64481   1.903   6.047   3.490  0.3773  0.5702  0.9937
  478MOL0     H64482   2.158   5.965   3.736 -0.2286  0.1384 -0.0151
  478MOL0     H64483   1.994   6.045   3.721 -1.9716 -2.0286 -2.8487
  478MOL0     H64484   2.066   5.766   3.836 -2.2891 -2.5023  2.9913
  478MOL0     H64485   1.907   5.857   3.845  0.2194  0.3712 -0.0601
  478MOL0     H64486   1.988   5.977   4.045  0.9992 -0.7003  2.9195
  478MOL0     H64487   2.158   5.944   3.994  1.7304 -2.3098  2.1485
  478MOL0     H64488   2.092   5.820   4.194 -0.7355 -2.8186  1.1043
  478MOL0     H64489   2.167   5.736   4.056  0.8593 -0.6354 -0.9640
  478MOL0     H64490   1.894   5.871   4.286  2.0837  0.4496 -1.9801
  478MOL0     H64491   1.743   5.971   4.425 -0.0662  4.3984  0.1232
  478MOL0     H64492   1.649   6.080   4.304  4.0605  0.2636  0.0317
  478MOL0     H64493   1.578   5.969   4.413 -1.8929  2.2662  0.4255
  478MOL0     H64494   1.426   6.240   4.054 -0.6425  0.7522  0.0296
  478MOL0     H64495   1.232   6.397   4.018  0.4871 -0.9867 -1.2475
  478MOL0     H64496   1.024   6.513   4.029 -1.2415  0.2731  2.1468
  478MOL0     H64497   1.034   6.409   3.890  0.7219  0.8129  0.2617
  478MOL0     H64498   0.793   6.530   4.051 -0.7314  0.0176  0.4930
  478MOL0     H64499   0.845   6.573   3.888 -0.1705 -0.0461  0.4797
  478MOL0     H64500   0.697   6.297   3.965 -4.2784 -1.1871 -2.4135
  478MOL0     H64501   0.779   6.322   3.815  1.6233 -0.5016  0.6675
  478MOL0     H64502   0.591   6.524   3.937 -1.9022 -0.7145  0.0430
  478MOL0     H64503   0.646   6.502   3.769 -3.6949  0.0210 -1.1300
  478MOL0     H64504   0.437   6.337   3.919  0.3976  0.4234 -0.6197
  478MOL0     H64505   0.518   6.268   3.776 -0.7759  0.4752 -3.5160
  478MOL0     H64506   0.462   6.455   3.634  0.6103 -0.9753 -0.6371
  478MOL0     H64507   0.315   6.368   3.700 -0.7811 -0.7623  1.8537
  478MOL0     H64508   0.407   6.628   3.829 -0.4968 -0.8119  1.5533
  478MOL0     H64509   0.250   6.547   3.837  1.3697  1.4299  1.1091
  478MOL0     H64510   0.365   6.668   3.594  1.5596  1.4403  1.2092
  478MOL0     H64511   0.247   6.752   3.685 -2.4235 -0.6384 -2.0330
  478MOL0     H64512   0.968   6.092   4.179 -0.6300  0.2088 -2.6662
  478MOL0     H64513   1.151   5.947   4.209 -1.2940 -0.7983 -4.3399
  478MOL0     H64514   1.532   5.712   3.974  0.0191  1.5168 -1.6562
  478MOL0     H64515   1.760   5.627   3.953  1.9414 -0.2207  0.7510
  478MOL0     H64516   2.114   5.891   2.227 -0.0747  0.9349  0.9206
  478MOL0     H64517   2.182   5.862   2.017 -0.6445  1.2756 -0.3175
  478MOL0     H64518   2.100   5.866   1.582  0.8032  0.6163 -0.6507
  478MOL0     H64519   2.183   5.873   1.350 -4.8841  1.1283 -0.0033
  478MOL0     H64520   2.455   5.589   1.244 -0.3900 -1.9327  0.4592
  478MOL0     H64521   2.319   5.491   1.165  3.5149 -2.8273 -3.0118
  478MOL0     H64522   2.480   5.719   1.021 -1.4894  0.2599 -0.8377
  478MOL0     H64523   2.325   5.657   0.967 -0.4773 -0.6730 -0.5335
  478MOL0     H64524   2.409   5.423   0.985  2.2984  0.1281  2.1483
  478MOL0     H64525   2.574   5.472   1.015  1.4845 -0.9045 -2.3112
  478MOL0     H64526   2.601   5.567   0.807  0.9274 -1.5774  1.0789
  478MOL0     H64527   2.416   5.568   0.782 -0.1595  0.7945 -0.3241
  478MOL0     H64528   2.555   5.192   0.652  0.6346  0.0196  0.4848
  478MOL0     H64529   2.279   5.455   1.374 -0.3285 -0.7809  1.0593
  478MOL0     H64530   2.189   5.444   1.594 -0.1165 -0.1986 -1.0728
  479MOL0     O64531   9.243   6.909   5.415  0.0569  0.3927  0.4179
  479MOL0     C64532   9.297   6.796   5.393  0.0320 -0.3380  0.4723
  479MOL0     O64533   9.302   6.695   5.486  0.2107  0.0479  0.4994
  479MOL0     C64534   9.260   6.720   5.615  1.1322 -0.4210 -0.0928
  479MOL0     C64535   9.354   6.709   5.718 -0.0781  0.3067  0.1944
  479MOL0     C64536   9.312   6.721   5.852  0.5916 -1.0330  0.6185
  479MOL0     C64537   9.189   6.770   5.882  0.4056 -0.3858  0.2765
  479MOL0     O64538   9.148   6.800   6.013 -0.4347  0.2406 -0.3330
  479MOL0     C64539   9.009   6.799   6.061 -0.2248  0.1166  0.9795
  479MOL0     C64540   9.013   6.847   6.204  0.4451 -0.4235  0.2756
  479MOL0     C64541   9.067   6.989   6.226 -0.4905 -0.4776 -0.0250
  479MOL0     C64542   9.070   7.033   6.376 -0.6685  0.4206 -0.1420
  479MOL0     C64543   9.114   7.183   6.395 -0.1041 -0.0976 -0.1028
  479MOL0     C64544   9.067   7.249   6.530 -0.2335 -0.1009  0.4434
  479MOL0     C64545   9.133   7.177   6.648  0.0957 -0.3432  0.3745
  479MOL0     C64546   9.054   7.148   6.773 -0.9907  0.0978  0.9008
  479MOL0     N64547   8.954   7.053   6.742  0.9653 -0.2951 -0.2415
  479MOL0     C64548   8.989   6.925   6.731 -0.1132 -0.3896  0.3861
  479MOL0     C64549   8.877   6.871   6.691 -0.5322 -0.5650  0.2055
  479MOL0     C64550   8.871   6.725   6.659  0.4424  0.0370  0.0009
  479MOL0     C64551   8.747   6.644   6.691  0.6123 -0.6264  0.1939
  479MOL0     C64552   8.612   6.690   6.648 -0.2684 -0.1959  0.5186
  479MOL0     C64553   8.599   6.660   6.490 -1.1219  0.5990 -0.8263
  479MOL0     O64554   8.477   6.701   6.438 -0.2155 -0.8071 -0.0491
  479MOL0     C64555   8.455   6.835   6.404  0.2498  0.5675  0.3051
  479MOL0     C64556   8.325   6.879   6.347  0.2325  0.0333  0.3964
  479MOL0     C64557   8.289   7.007   6.314 -1.1588  1.0932 -0.5465
  479MOL0     C64558   8.145   7.040   6.272 -0.4640 -0.5325 -0.5378
  479MOL0     C64559   8.389   7.111   6.340  0.2990  0.0516 -0.2223
  479MOL0     C64560   8.361   7.257   6.316 -0.2623 -0.5055  0.4361
  479MOL0     O64561   8.460   7.337   6.366 -0.5641  0.4025 -0.8356
  479MOL0     C64562   8.441   7.469   6.369 -0.1503 -0.2515  0.4181
  479MOL0     C64563   8.500   7.547   6.272  0.4464 -0.9142 -0.0274
  479MOL0     C64564   8.486   7.688   6.283 -0.0823 -0.2832  0.0097
  479MOL0     C64565   8.415   7.745   6.383 -0.6708 -1.2481 -0.6781
  479MOL0     O64566   8.403   7.879   6.402 -0.1730 -0.4830  0.8513
  479MOL0     C64567   8.462   7.972   6.310  0.2980  0.0655 -1.1358
  479MOL0     C64568   8.420   8.114   6.351 -0.3292  0.6850 -0.7099
  479MOL0     C64569   8.442   8.146   6.491 -0.4047  0.1043 -0.4299
  479MOL0     C64570   8.405   8.292   6.521  0.1373 -0.8787  0.3364
  479MOL0     C64571   8.389   8.315   6.670  0.0860  0.6158 -0.0500
  479MOL0     C64572   8.264   8.259   6.734  1.2862 -0.5827  0.3240
  479MOL0     C64573   8.272   8.232   6.882 -0.5970  0.2940 -0.0410
  479MOL0     C64574   8.351   8.099   6.921 -0.3153 -0.5225 -0.7945
  479MOL0    Cl64575   8.239   7.965   6.899 -0.1337 -0.9261  0.1007
  479MOL0     C64576   8.361   7.665   6.481 -1.1215  0.7500  0.7639
  479MOL0     C64577   8.371   7.528   6.470  0.0114 -0.0006 -0.1169
  479MOL0     O64578   8.260   7.297   6.257 -0.3590 -0.1470 -1.0212
  479MOL0     C64579   8.516   7.074   6.384  0.1956  0.8219 -0.1768
  479MOL0     C64580   8.549   6.935   6.407 -0.2425  0.2756 -0.2059
  479MOL0     N64581   8.784   6.969   6.662  0.4902 -0.3543  0.6299
  479MOL0     N64582   8.838   7.085   6.694 -0.8553  0.3040 -0.1278
  479MOL0     C64583   9.099   6.800   5.780  0.5196  0.3752 -0.3033
  479MOL0     C64584   9.136   6.771   5.653 -0.5390 -0.5680  0.0514
  479MOL0     C64585   9.366   6.779   5.267 -0.2771 -0.7897  0.8558
  479MOL0     C64586   9.435   6.658   5.258 -0.1509 -0.0890 -0.2199
  479MOL0     C64587   9.509   6.620   5.144  0.4719 -0.4101 -0.1117
  479MOL0     C64588   9.513   6.697   5.027  0.2532 -1.1495 -0.2142
  479MOL0     O64589   9.578   6.650   4.911 -0.4637  0.1041 -0.1308
  479MOL0     C64590   9.542   6.707   4.782  1.3227  0.1783 -0.1435
  479MOL0     C64591   9.551   6.591   4.688  0.6511  0.0725  1.1093
  479MOL0     C64592   9.695   6.578   4.637  0.4965 -0.0660 -0.5506
  479MOL0     C64593   9.713   6.435   4.590 -0.7721 -0.6605  0.2939
  479MOL0     C64594   9.861   6.428   4.545  0.1839 -0.2883  0.2344
  479MOL0     C64595   9.980   6.433   4.523 -0.5572  0.6111  0.7451
  479MOL0     C64596   9.440   6.824   5.038 -1.0099 -0.9710  0.1022
  479MOL0     C64597   9.379   6.864   5.161 -0.2198  0.2528  0.3833
  479MOL0     H64598   9.460   6.695   5.701 -0.2477  2.4240 -3.7446
  479MOL0     H64599   9.387   6.711   5.930  3.2722 -1.5322 -1.8207
  479MOL0     H64600   8.952   6.864   5.993 -0.3906 -3.4549 -2.6950
  479MOL0     H64601   8.976   6.695   6.051 -0.8892  0.4968 -1.7181
  479MOL0     H64602   8.912   6.848   6.245  0.9533 -0.0005  1.5721
  479MOL0     H64603   9.074   6.776   6.261  2.6827  1.7301  0.7531
  479MOL0     H64604   9.171   7.003   6.196 -0.5876 -0.5441 -0.4003
  479MOL0     H64605   9.016   7.066   6.168  0.3368  2.8990  3.3520
  479MOL0     H64606   8.966   7.028   6.411 -1.6631  1.7035 -2.6687
  479MOL0     H64607   9.139   6.977   6.439 -1.5589  1.3676  1.7420
  479MOL0     H64608   9.223   7.180   6.385 -0.0121  1.5973  0.1863
  479MOL0     H64609   9.094   7.244   6.307 -0.1687  1.7716  1.1530
  479MOL0     H64610   9.115   7.347   6.539  2.8600 -1.5867  1.2590
  479MOL0     H64611   8.958   7.258   6.534 -0.3025  1.0925 -2.0898
  479MOL0     H64612   9.186   7.089   6.608 -3.4758 -1.9311 -1.2669
  479MOL0     H64613   9.203   7.256   6.675  0.7577 -0.3319 -1.2246
  479MOL0     H64614   9.010   7.245   6.799  0.4767  2.6060 -4.4301
  479MOL0     H64615   9.129   7.124   6.849 -0.5919 -1.8738 -0.0432
  479MOL0     H64616   9.078   6.869   6.757  1.1533  1.1618 -0.4492
  479MOL0     H64617   8.878   6.722   6.550 -0.1624 -0.1265 -0.0393
  479MOL0     H64618   8.960   6.673   6.695  1.4994 -0.6549 -3.2283
  479MOL0     H64619   8.745   6.629   6.799 -2.4278  2.5146  0.7441
  479MOL0     H64620   8.768   6.543   6.655  0.6773 -0.0665 -1.4070
  479MOL0     H64621   8.598   6.797   6.663 -1.3717  0.2208 -2.6170
  479MOL0     H64622   8.533   6.637   6.702 -1.8910  1.6362  0.0380
  479MOL0     H64623   8.599   6.550   6.488  0.8961  0.5240 -4.2522
  479MOL0     H64624   8.683   6.694   6.430  0.3148 -3.0606 -1.1689
  479MOL0     H64625   8.243   6.811   6.329 -4.1586  4.0024  3.1071
  479MOL0     H64626   8.139   7.109   6.188 -1.6283  1.3772  1.0120
  479MOL0     H64627   8.089   6.948   6.255 -0.2921 -1.1275  1.7072
  479MOL0     H64628   8.090   7.085   6.356  2.7193  0.3860  1.2109
  479MOL0     H64629   8.560   7.509   6.190 -0.5028  0.6805 -1.5385
  479MOL0     H64630   8.527   7.749   6.202 -1.3948  0.9572  0.2468
  479MOL0     H64631   8.569   7.950   6.311  0.6660  1.3789  2.0070
  479MOL0     H64632   8.409   7.944   6.219 -2.3015  0.2205  0.2459
  479MOL0     H64633   8.481   8.177   6.286  0.1272  0.3622 -0.5936
  479MOL0     H64634   8.314   8.132   6.328 -0.8273 -2.6596 -1.5293
  479MOL0     H64635   8.544   8.119   6.523  0.3035  0.7445 -2.0398
  479MOL0     H64636   8.368   8.094   6.552 -0.2799  1.2282  0.7225
  479MOL0     H64637   8.488   8.349   6.478 -0.1188 -2.4012 -2.3682
  479MOL0     H64638   8.311   8.329   6.480 -0.2477 -0.1036  1.8469
  479MOL0     H64639   8.403   8.422   6.686  0.3358  1.3602 -4.1975
  479MOL0     H64640   8.471   8.260   6.716 -0.2768  1.6855  2.0096
  479MOL0     H64641   8.178   8.323   6.712  0.9868 -0.8706  0.6348
  479MOL0     H64642   8.240   8.166   6.681 -1.8608 -0.3881  1.1896
  479MOL0     H64643   8.179   8.230   6.940  1.3788  2.0860  3.5012
  479MOL0     H64644   8.322   8.324   6.914 -1.4434  0.7208  0.0727
  479MOL0     H64645   8.377   8.108   7.027 -2.5561  1.6683 -0.3351
  479MOL0     H64646   8.441   8.077   6.863  0.0619 -0.8315 -0.1121
  479MOL0     H64647   8.297   7.692   6.564 -0.6691 -2.1385  2.1669
  479MOL0     H64648   8.323   7.461   6.541  2.7845 -2.1675 -0.1198
  479MOL0     H64649   8.593   7.148   6.403 -0.4919  0.9866  2.2645
  479MOL0     H64650   8.650   6.910   6.438  0.6432  1.5124 -1.9077
  479MOL0     H64651   8.998   6.840   5.788  0.6491  1.3549 -2.6982
  479MOL0     H64652   9.077   6.782   5.563  1.5401  0.4946 -1.2913
  479MOL0     H64653   9.438   6.578   5.332  2.0290  1.1198  1.1102
  479MOL0     H64654   9.561   6.525   5.155 -2.4704 -2.0568  0.3739
  479MOL0     H64655   9.440   6.747   4.783  0.8606 -0.9529 -0.3921
  479MOL0     H64656   9.621   6.777   4.752 -0.1016  0.1777 -4.7474
  479MOL0     H64657   9.486   6.606   4.601 -0.2585 -0.5549  1.6617
  479MOL0     H64658   9.513   6.501   4.737 -3.6134  1.0781  0.1059
  479MOL0     H64659   9.762   6.598   4.721 -3.8207  1.3115  2.9355
  479MOL0     H64660   9.711   6.646   4.553  0.4806  0.5293 -0.0750
  479MOL0     H64661   9.647   6.413   4.506  0.1513 -0.1849 -0.5757
  479MOL0     H64662   9.697   6.370   4.676 -3.9407  0.0921  0.3890
  479MOL0     H64663  10.084   6.444   4.500  0.1057  0.1537  3.2264
  479MOL0     H64664   9.446   6.891   4.953 -0.3234 -0.8572  0.2285
  479MOL0     H64665   9.332   6.959   5.141  0.3429  0.8330  1.7509
  480MOL0     O64666   8.245   4.590   9.707 -0.0758 -0.0821  0.4349
  480MOL0     C64667   8.251   4.664   9.607 -0.7067  0.4667  0.1077
  480MOL0     O64668   8.240   4.628   9.475  0.8955 -0.2254 -0.3140
  480MOL0     C64669   8.193   4.499   9.457  0.3834 -0.2141 -0.1034
  480MOL0     C64670   8.070   4.458   9.492  0.1356 -0.3023  0.3463
  480MOL0     C64671   8.028   4.327   9.465 -0.9193 -0.9850  0.0905
  480MOL0     C64672   8.102   4.234   9.394 -0.2612 -0.3101 -0.4587
  480MOL0     O64673   8.057   4.104   9.361  0.4998 -0.5035  0.4242
  480MOL0     C64674   8.107   4.045   9.238  0.7870  0.1152  0.0195
  480MOL0     C64675   8.031   3.909   9.226 -0.5962 -0.0294 -0.0486
  480MOL0     C64676   7.880   3.928   9.219  0.7010  0.2409  0.9089
  480MOL0     C64677   7.826   3.996   9.092 -0.1522 -0.6343  0.0540
  480MOL0     C64678   7.685   4.033   9.116 -0.6647 -0.0620 -0.0975
  480MOL0     C64679   7.624   4.115   8.992 -1.0839 -0.1268 -0.3543
  480MOL0     C64680   7.474   4.133   9.011 -0.3404 -0.9716 -0.6147
  480MOL0     C64681   7.383   4.006   9.033 -0.0686 -0.0718  0.0951
  480MOL0     N64682   7.243   4.017   8.994 -0.3655  0.0943 -0.8699
  480MOL0     C64683   7.143   4.099   9.049  0.7711  0.5064  0.1285
  480MOL0     C64684   7.027   4.034   9.026 -0.3493  0.5258  0.3729
  480MOL0     C64685   6.878   4.069   9.049 -0.1168  0.2588  0.0780
  480MOL0     C64686   6.849   4.175   9.156  0.0709  0.3103 -0.2306
  480MOL0     C64687   6.899   4.130   9.291 -0.3421 -0.0388 -0.9862
  480MOL0     C64688   6.893   4.238   9.397 -0.6938 -0.6277  1.0308
  480MOL0     O64689   7.001   4.330   9.380 -0.0143  0.0232 -0.2795
  480MOL0     C64690   7.023   4.411   9.491 -0.2069 -0.6027  0.4974
  480MOL0     C64691   7.156   4.447   9.495 -0.0563  1.0592  0.3691
  480MOL0     C64692   7.207   4.523   9.601 -1.4194  0.1380 -0.3302
  480MOL0     C64693   7.357   4.581   9.585  1.2748 -0.2345 -1.1677
  480MOL0     C64694   7.124   4.582   9.696 -0.1826 -0.5617  0.5592
  480MOL0     C64695   7.171   4.671   9.801 -0.1941  0.9771  0.1595
  480MOL0     O64696   7.265   4.613   9.877 -0.1895 -1.1376 -0.5910
  480MOL0     C64697   7.329   4.696   9.962 -0.1283 -0.9899 -0.4231
  480MOL0     C64698   7.347   4.650  10.097  0.2489  0.1862 -0.5190
  480MOL0     C64699   7.399   4.740  10.190  0.1765  0.8981  0.2794
  480MOL0     C64700   7.431   4.874  10.161 -1.1275  0.2542  0.6573
  480MOL0     O64701   7.462   4.957  10.269 -0.3479  0.1621 -0.2819
  480MOL0     C64702   7.547   5.071  10.233 -0.1708  0.5381 -0.1761
  480MOL0     C64703   7.465   5.204  10.217  0.0406  0.1828 -1.1858
  480MOL0     C64704   7.537   5.343  10.192  0.3398  0.0939 -1.2075
  480MOL0     C64705   7.445   5.437  10.125 -0.0612 -0.7874 -0.2849
  480MOL0     C64706   7.509   5.563  10.067  0.1175  0.5551  0.4890
  480MOL0     C64707   7.565   5.653  10.180  0.5959  0.3450  0.7643
  480MOL0     C64708   7.671   5.755  10.118 -0.8182 -0.2816  0.5864
  480MOL0     C64709   7.723   5.869  10.210 -0.0615  0.4804 -0.0610
  480MOL0    Cl64710   7.606   5.997  10.244 -0.2199  0.9196 -0.1577
  480MOL0     C64711   7.423   4.916  10.027  0.1095  0.0179 -0.1365
  480MOL0     C64712   7.378   4.828   9.928  0.8209  0.0310 -0.7888
  480MOL0     O64713   7.114   4.777   9.813  0.1310 -0.2551 -0.6135
  480MOL0     C64714   6.985   4.553   9.682  0.8286 -0.3602 -0.2858
  480MOL0     C64715   6.940   4.462   9.583 -0.1993 -0.0091 -0.7934
  480MOL0     N64716   7.056   3.915   8.954 -0.2712 -1.2248  0.1190
  480MOL0     N64717   7.180   3.907   8.945  0.1773 -0.3843 -0.4127
  480MOL0     C64718   8.226   4.286   9.350 -0.7829  0.0523 -0.1128
  480MOL0     C64719   8.273   4.417   9.378 -0.9127  0.5215  0.0923
  480MOL0     C64720   8.279   4.805   9.641  0.8605 -0.3952 -0.0473
  480MOL0     C64721   8.309   4.900   9.549  1.0078  0.0853 -0.1102
  480MOL0     C64722   8.309   5.043   9.577  0.6086 -0.4804 -0.6474
  480MOL0     C64723   8.328   5.075   9.707 -0.1918 -0.1700 -0.1275
  480MOL0     O64724   8.337   5.205   9.746  0.6204  0.7213  0.6548
  480MOL0     C64725   8.464   5.258   9.758 -0.3420 -0.7888 -0.2338
  480MOL0     C64726   8.464   5.380   9.841 -0.0092 -0.6726 -0.3782
  480MOL0     C64727   8.433   5.357   9.993  0.5356  0.5919  1.0503
  480MOL0     C64728   8.536   5.260  10.051  0.5116 -0.1590 -0.5666
  480MOL0     C64729   8.558   5.285  10.193  0.2005  0.1702 -0.1687
  480MOL0     C64730   8.567   5.308  10.312 -0.0272 -1.0062 -0.1152
  480MOL0     C64731   8.322   4.980   9.813  1.3691  0.4559  0.0336
  480MOL0     C64732   8.285   4.852   9.775 -0.4541 -0.5891 -0.2240
  480MOL0     H64733   8.006   4.531   9.541 -1.5702  0.6681 -3.0420
  480MOL0     H64734   7.930   4.291   9.493 -2.3148  2.3545  0.0111
  480MOL0     H64735   8.094   4.103   9.147  0.3547 -1.1524 -0.7538
  480MOL0     H64736   8.212   4.018   9.252  0.8506 -2.2196 -3.5518
  480MOL0     H64737   8.070   3.836   9.154  3.9743 -0.6859  2.6771
  480MOL0     H64738   8.054   3.855   9.318 -1.4018 -3.3103 -1.6162
  480MOL0     H64739   7.831   3.831   9.229  2.6406 -0.8544  0.3004
  480MOL0     H64740   7.850   3.993   9.303  0.7623 -0.0930  1.1914
  480MOL0     H64741   7.874   4.094   9.086 -1.4123 -0.0511 -0.8789
  480MOL0     H64742   7.830   3.934   9.002 -4.7642  2.3825 -2.6235
  480MOL0     H64743   7.628   3.948   9.155 -1.1266  1.1033  1.9155
  480MOL0     H64744   7.697   4.105   9.197  0.3136  0.1094 -0.3856
  480MOL0     H64745   7.675   4.211   8.980 -0.9708  0.1137  1.6690
  480MOL0     H64746   7.639   4.051   8.905 -2.4549 -1.1357  0.1144
  480MOL0     H64747   7.470   4.211   9.088  1.1290 -0.1826 -1.3097
  480MOL0     H64748   7.431   4.179   8.922 -1.8377  2.3810  1.6546
  480MOL0     H64749   7.388   3.976   9.138 -2.4769  1.7478  0.8271
  480MOL0     H64750   7.429   3.922   8.980 -0.9571 -0.6614  0.2382
  480MOL0     H64751   7.151   4.194   9.102 -0.7792  0.2738  0.8473
  480MOL0     H64752   6.843   4.098   8.950 -2.1205  0.3704  0.7684
  480MOL0     H64753   6.815   3.985   9.081  2.2487 -0.4660  3.3799
  480MOL0     H64754   6.742   4.197   9.150 -0.5053 -1.4529  2.2141
  480MOL0     H64755   6.896   4.270   9.128 -0.2472  0.4140 -0.4147
  480MOL0     H64756   7.005   4.104   9.297 -0.0815  0.7042 -2.0568
  480MOL0     H64757   6.840   4.047   9.330  1.4938 -0.5856  0.8205
  480MOL0     H64758   6.887   4.183   9.492  2.8266  1.0050  2.3687
  480MOL0     H64759   6.808   4.303   9.374  1.2846  2.3772  1.6372
  480MOL0     H64760   7.222   4.420   9.413 -1.1210  1.9809 -0.8249
  480MOL0     H64761   7.369   4.675   9.640  5.1961 -1.2371  0.0410
  480MOL0     H64762   7.419   4.502   9.629 -1.3628 -0.9154  1.6300
  480MOL0     H64763   7.378   4.589   9.478 -0.5284  2.1357 -1.4175
  480MOL0     H64764   7.311   4.555  10.135  0.7780  0.0458 -0.3663
  480MOL0     H64765   7.393   4.710  10.294 -2.0710  1.7651  0.4776
  480MOL0     H64766   7.625   5.090  10.308  1.9907  0.1884 -2.2285
  480MOL0     H64767   7.595   5.060  10.136  0.7773 -1.5459  0.4832
  480MOL0     H64768   7.387   5.196  10.141 -2.4469 -0.9368  1.2949
  480MOL0     H64769   7.415   5.217  10.313  1.7526 -2.5859  0.2024
  480MOL0     H64770   7.612   5.323  10.114  1.2080  1.6914 -0.8249
  480MOL0     H64771   7.583   5.381  10.283 -1.5821  0.1542 -0.2174
  480MOL0     H64772   7.396   5.386  10.041 -2.5308 -0.7596  1.0378
  480MOL0     H64773   7.366   5.460  10.198  1.4758 -0.7271  1.4432
  480MOL0     H64774   7.437   5.615  10.002 -1.8673 -2.5557  0.0099
  480MOL0     H64775   7.594   5.530  10.007  0.3797  1.0252  0.5954
  480MOL0     H64776   7.486   5.714  10.225  2.4343  1.8094  2.2089
  480MOL0     H64777   7.622   5.589  10.247  1.2109 -2.9462 -2.5569
  480MOL0     H64778   7.630   5.804  10.030 -0.1961 -0.2054  0.3337
  480MOL0     H64779   7.757   5.697  10.084 -0.3036  0.2789  0.9226
  480MOL0     H64780   7.800   5.920  10.151  1.0728 -1.1048  0.0036
  480MOL0     H64781   7.767   5.822  10.297  0.7258  1.3816  0.0417
  480MOL0     H64782   7.444   5.015   9.987  0.3160 -0.3195 -0.8982
  480MOL0     H64783   7.364   4.851   9.822 -1.4949 -2.9153 -1.2713
  480MOL0     H64784   6.912   4.607   9.742  2.0119  2.1615 -1.0135
  480MOL0     H64785   6.834   4.439   9.579 -0.0133 -0.7867 -1.2663
  480MOL0     H64786   8.281   4.234   9.273  0.5698  0.8948  0.2490
  480MOL0     H64787   8.366   4.457   9.339  0.3753 -0.5244  1.9133
  480MOL0     H64788   8.306   4.868   9.445 -2.8434  0.9652 -0.4349
  480MOL0     H64789   8.314   5.126   9.507 -0.2801  3.3711  3.3805
  480MOL0     H64790   8.535   5.183   9.792  0.8982  0.7120  0.5907
  480MOL0     H64791   8.504   5.292   9.662 -2.8803  2.2664 -0.3631
  480MOL0     H64792   8.391   5.444   9.792 -0.8344 -0.5121  1.0302
  480MOL0     H64793   8.565   5.422   9.828  0.1286 -1.5378 -2.5623
  480MOL0     H64794   8.333   5.314   9.989  0.0500  1.7624 -0.8779
  480MOL0     H64795   8.423   5.451  10.049  6.0219  1.5826  0.9781
  480MOL0     H64796   8.631   5.266   9.997  1.0826 -0.3061  0.3973
  480MOL0     H64797   8.496   5.159  10.039 -0.6232  0.2309 -0.2586
  480MOL0     H64798   8.574   5.334  10.416 -1.3680 -1.0053 -0.0026
  480MOL0     H64799   8.347   5.010   9.915 -2.8495 -1.9128  2.0253
  480MOL0     H64800   8.287   4.782   9.858 -2.0748  0.6265  0.9007
  481MOL0     O64801   5.077   0.482   5.091 -1.1497  0.4682  0.3208
  481MOL0     C64802   5.152   0.555   5.155  1.1790  0.1863  1.2203
  481MOL0     O64803   5.147   0.688   5.140 -0.6329 -0.3809 -0.0921
  481MOL0     C64804   5.039   0.757   5.098 -0.4638  0.5671  0.5303
  481MOL0     C64805   5.071   0.871   5.012 -0.2737 -0.6981  0.0990
  481MOL0     C64806   4.976   0.974   4.974 -0.6958  0.6450  0.4881
  481MOL0     C64807   4.844   0.957   5.022  0.2307  1.1341 -0.1456
  481MOL0     O64808   4.765   1.055   4.984  0.7855  0.3685 -0.1070
  481MOL0     C64809   4.640   1.080   5.045  0.4310 -0.9457  0.2761
  481MOL0     C64810   4.671   1.168   5.172 -0.2927 -0.0970  1.5053
  481MOL0     C64811   4.527   1.223   5.218 -1.0221  0.7078 -0.4449
  481MOL0     C64812   4.548   1.297   5.352  0.7634 -0.1145 -0.5739
  481MOL0     C64813   4.608   1.440   5.325  0.3289 -0.3324  0.6167
  481MOL0     C64814   4.555   1.558   5.411 -0.2105  1.3697  0.0194
  481MOL0     C64815   4.432   1.638   5.369 -0.9061 -0.3534  0.0676
  481MOL0     C64816   4.321   1.558   5.295 -0.4123 -0.2196  1.0605
  481MOL0     N64817   4.247   1.456   5.373 -0.1686  0.1497  0.5532
  481MOL0     C64818   4.196   1.466   5.499 -0.1373  0.6188  0.3143
  481MOL0     C64819   4.138   1.354   5.525 -0.2564  0.0622  0.4689
  481MOL0     C64820   4.087   1.319   5.664 -0.4104 -0.6034 -0.6206
  481MOL0     C64821   3.938   1.286   5.650  0.3020  0.3518  0.5172
  481MOL0     C64822   3.865   1.403   5.596  0.1627 -0.8919 -0.4317
  481MOL0     C64823   3.759   1.359   5.492  0.4976  0.4500  0.4211
  481MOL0     O64824   3.679   1.465   5.436 -0.0204  0.7543  0.0290
  481MOL0     C64825   3.746   1.550   5.350  0.6862  0.1672 -0.1614
  481MOL0     C64826   3.674   1.659   5.305  0.0554  0.4342  1.1988
  481MOL0     C64827   3.723   1.747   5.215 -0.2337  0.7338  0.0051
  481MOL0     C64828   3.628   1.861   5.163 -0.8667  0.5443  0.2540
  481MOL0     C64829   3.844   1.721   5.143 -0.6017  0.5669 -0.6054
  481MOL0     C64830   3.904   1.804   5.038 -0.2646 -0.3392  0.4665
  481MOL0     O64831   3.811   1.860   4.947 -0.0156 -0.7829  0.3348
  481MOL0     C64832   3.862   1.957   4.855 -0.9745 -0.2834  0.9466
  481MOL0     C64833   3.900   2.079   4.884 -0.0425 -0.6199  0.7740
  481MOL0     C64834   3.959   2.170   4.787 -0.0887  0.7266  1.0656
  481MOL0     C64835   3.975   2.126   4.658  0.8403  0.1701 -1.1471
  481MOL0     O64836   4.014   2.210   4.561 -0.5224 -0.3504 -0.6060
  481MOL0     C64837   4.118   2.161   4.479 -1.2163  0.7367  0.2818
  481MOL0     C64838   4.245   2.096   4.564 -0.3297 -0.3308 -0.1052
  481MOL0     C64839   4.359   2.061   4.466 -1.4313 -0.4307  0.6027
  481MOL0     C64840   4.340   1.939   4.374 -0.2503  1.2342  0.9363
  481MOL0     C64841   4.469   1.902   4.289 -0.4080 -0.2479 -0.0979
  481MOL0     C64842   4.458   1.772   4.208 -0.6857  0.2198  0.3185
  481MOL0     C64843   4.520   1.638   4.274 -1.0823 -0.8194 -0.7306
  481MOL0     C64844   4.493   1.514   4.194  0.6625 -0.2007  0.1383
  481MOL0    Cl64845   4.318   1.470   4.192  0.0518 -0.5200  0.2935
  481MOL0     C64846   3.934   1.996   4.632  0.3915  0.1162  0.9442
  481MOL0     C64847   3.888   1.911   4.725 -0.3617  0.5926  0.5759
  481MOL0     O64848   4.025   1.825   5.029  0.6976 -0.4545  0.3040
  481MOL0     C64849   3.922   1.615   5.195 -0.5804  0.6141 -0.6522
  481MOL0     C64850   3.877   1.525   5.301 -0.1660 -1.2995  2.0017
  481MOL0     N64851   4.141   1.274   5.408  0.6638 -0.7020 -0.4120
  481MOL0     N64852   4.198   1.343   5.313 -0.1553  0.8052 -1.0970
  481MOL0     C64853   4.815   0.840   5.114 -0.1465 -0.7193  0.2527
  481MOL0     C64854   4.910   0.756   5.149  0.8150  0.3630 -0.4579
  481MOL0     C64855   5.255   0.494   5.243 -0.6911 -0.2991 -1.3368
  481MOL0     C64856   5.319   0.578   5.338 -0.4023  0.2244  0.9486
  481MOL0     C64857   5.411   0.513   5.419 -0.7849 -0.1034  0.7845
  481MOL0     C64858   5.472   0.387   5.379 -0.9137 -1.2523 -1.2271
  481MOL0     O64859   5.587   0.331   5.438  0.6638 -0.7811  0.5918
  481MOL0     C64860   5.647   0.416   5.535  0.0434 -0.0093  0.1459
  481MOL0     C64861   5.773   0.337   5.570 -0.2905 -0.2212 -0.0458
  481MOL0     C64862   5.867   0.333   5.444  0.8227  0.8600 -0.4096
  481MOL0     C64863   6.010   0.302   5.492  0.8096  0.2400 -0.6283
  481MOL0     C64864   6.035   0.161   5.520  0.1251 -0.2791 -0.2597
  481MOL0     C64865   6.056   0.044   5.540 -0.6638 -0.1477  0.3318
  481MOL0     C64866   5.402   0.322   5.282  0.9774 -0.0179  0.7647
  481MOL0     C64867   5.296   0.369   5.218  1.3989  1.0902 -0.2380
  481MOL0     H64868   5.177   0.873   4.991 -0.5363 -2.4267 -1.7341
  481MOL0     H64869   5.009   1.057   4.913  0.9222 -0.0702  0.3451
  481MOL0     H64870   4.584   1.132   4.967  0.4373 -1.9015 -0.3815
  481MOL0     H64871   4.576   0.996   5.072 -1.6140  0.7457  1.0402
  481MOL0     H64872   4.727   1.103   5.241  2.5125 -0.1146 -0.5806
  481MOL0     H64873   4.735   1.250   5.140 -1.8055  0.2225 -0.9500
  481MOL0     H64874   4.480   1.274   5.134 -2.1140 -1.0709 -0.9826
  481MOL0     H64875   4.459   1.142   5.246 -1.2114  1.4255  1.2985
  481MOL0     H64876   4.451   1.300   5.402  1.1482 -1.5998  0.3078
  481MOL0     H64877   4.623   1.240   5.408  0.8768 -0.1959 -0.8047
  481MOL0     H64878   4.717   1.436   5.323  0.5515  1.9638 -3.8494
  481MOL0     H64879   4.593   1.475   5.222  4.0606  1.0335  0.3869
  481MOL0     H64880   4.523   1.509   5.504  0.0107 -1.5847 -1.3361
  481MOL0     H64881   4.623   1.638   5.438 -1.4529  2.6949 -0.6428
  481MOL0     H64882   4.380   1.676   5.457  1.1251 -2.1802  2.1894
  481MOL0     H64883   4.480   1.718   5.311  1.2415 -1.6738 -0.1047
  481MOL0     H64884   4.368   1.514   5.207  0.3692  1.0800  0.8077
  481MOL0     H64885   4.241   1.627   5.265  0.9521  0.6891 -0.6599
  481MOL0     H64886   4.194   1.545   5.573  0.8546  2.2420 -1.3252
  481MOL0     H64887   4.153   1.244   5.710  1.1725  1.9162  1.4922
  481MOL0     H64888   4.102   1.405   5.730  2.6736 -0.9801 -0.6557
  481MOL0     H64889   3.906   1.239   5.743  0.2868 -1.4647 -0.3620
  481MOL0     H64890   3.916   1.197   5.590 -3.0874  2.0915 -1.1306
  481MOL0     H64891   3.930   1.482   5.558  1.5425 -0.9321  1.6510
  481MOL0     H64892   3.810   1.450   5.678  0.8504 -1.6051  0.4604
  481MOL0     H64893   3.691   1.291   5.542  0.5952 -2.2058 -2.7346
  481MOL0     H64894   3.815   1.295   5.423 -1.5836 -1.7921  0.6914
  481MOL0     H64895   3.571   1.656   5.338  0.2048  0.9680  1.7235
  481MOL0     H64896   3.687   1.953   5.156  0.8697 -0.6537 -2.8686
  481MOL0     H64897   3.596   1.832   5.062  1.6055 -1.8818  0.0762
  481MOL0     H64898   3.538   1.884   5.221 -1.2724  0.6407 -0.4073
  481MOL0     H64899   3.900   2.118   4.985 -1.1857  0.0203  0.5401
  481MOL0     H64900   3.967   2.278   4.795 -1.7293  1.0461 -0.7587
  481MOL0     H64901   4.081   2.083   4.413 -0.1338  1.5991 -1.4086
  481MOL0     H64902   4.154   2.237   4.409  0.6483 -0.3208  0.0281
  481MOL0     H64903   4.282   2.165   4.640 -1.7987 -0.8995  1.1756
  481MOL0     H64904   4.205   2.012   4.621  0.4600  0.0436  1.0261
  481MOL0     H64905   4.443   2.040   4.532 -1.6384 -0.5226  0.8396
  481MOL0     H64906   4.392   2.150   4.412  2.0344 -0.2517  2.6972
  481MOL0     H64907   4.304   1.859   4.440 -1.2555  0.2243 -0.7809
  481MOL0     H64908   4.256   1.941   4.304  0.4416 -0.5010 -0.0132
  481MOL0     H64909   4.564   1.906   4.342  1.4906 -0.8077 -3.2277
  481MOL0     H64910   4.484   1.995   4.232  2.8757 -0.2176  0.6510
  481MOL0     H64911   4.354   1.740   4.196 -0.5623 -0.3335  0.7336
  481MOL0     H64912   4.505   1.788   4.110 -0.0846 -0.4754  0.4934
  481MOL0     H64913   4.478   1.620   4.374 -0.0393 -2.0944 -0.5064
  481MOL0     H64914   4.628   1.642   4.289 -0.8295 -1.6575 -2.1585
  481MOL0     H64915   4.553   1.436   4.242 -0.3918 -0.9662  0.2502
  481MOL0     H64916   4.538   1.522   4.095 -0.4904 -3.5631 -0.7826
  481MOL0     H64917   3.936   1.952   4.533 -4.3254 -0.4773  0.8769
  481MOL0     H64918   3.862   1.811   4.692 -1.4515  1.1102 -0.1797
  481MOL0     H64919   4.025   1.603   5.161  0.2962  1.0531  1.6975
  481MOL0     H64920   3.952   1.452   5.329 -0.5331 -2.6872 -0.3203
  481MOL0     H64921   4.722   0.836   5.169  2.6673  1.7132  5.9989
  481MOL0     H64922   4.882   0.676   5.217  0.3339  0.7314 -0.2200
  481MOL0     H64923   5.275   0.674   5.364  2.8147  1.6643  1.5925
  481MOL0     H64924   5.441   0.572   5.504 -0.6359  0.4529  0.3516
  481MOL0     H64925   5.657   0.515   5.490 -0.7578 -0.8734 -2.0857
  481MOL0     H64926   5.581   0.425   5.622  0.3225 -1.3503  0.5255
  481MOL0     H64927   5.740   0.235   5.589  0.9863 -0.3469  1.7534
  481MOL0     H64928   5.829   0.377   5.656 -2.1962  1.8866  0.3272
  481MOL0     H64929   5.867   0.424   5.383  2.0033  0.0499 -1.6693
  481MOL0     H64930   5.836   0.243   5.389 -2.5473 -0.8675  3.7034
  481MOL0     H64931   6.026   0.372   5.575  0.5942 -0.2898 -0.1303
  481MOL0     H64932   6.078   0.326   5.409  1.6539  1.1101  0.2896
  481MOL0     H64933   6.079  -0.057   5.568  0.0371 -0.1850 -0.3536
  481MOL0     H64934   5.436   0.222   5.255  0.7842  0.7229 -2.6576
  481MOL0     H64935   5.237   0.308   5.150 -1.6398  1.1393  2.1172
  482MOL0     O64936   4.997  11.001   0.574  0.5973  0.0776  0.2946
  482MOL0     C64937   5.082  10.963   0.650  0.2181 -0.4794  0.7185
  482MOL0     O64938   5.084  10.859   0.742  0.8817  0.3529 -0.6453
  482MOL0     C64939   4.980  10.771   0.760 -0.2082  0.1323 -0.4571
  482MOL0     C64940   5.026  10.649   0.811  0.5776 -0.1239  1.3390
  482MOL0     C64941   4.933  10.546   0.834 -0.5225  0.3756 -0.0525
  482MOL0     C64942   4.792  10.558   0.817  0.0276  1.3857  1.1768
  482MOL0     O64943   4.714  10.454   0.855  0.6324 -0.4530  0.1657
  482MOL0     C64944   4.712  10.331   0.774 -1.3644  0.1145 -0.1293
  482MOL0     C64945   4.814  10.221   0.811 -0.4486  0.5122  1.0569
  482MOL0     C64946   4.798  10.166   0.946 -0.9937 -0.1789  0.2134
  482MOL0     C64947   4.889  10.042   0.970  0.2218 -0.5739  0.2932
  482MOL0     C64948   4.891   9.988   1.112 -0.6680  0.9296 -0.1975
  482MOL0     C64949   4.746   9.944   1.169  0.2825 -0.4572  0.6838
  482MOL0     C64950   4.719   9.813   1.114  0.8822 -0.3416  0.0858
  482MOL0     C64951   4.582   9.777   1.180  0.4194  0.6507 -0.1406
  482MOL0     N64952   4.543   9.645   1.131 -0.7479  1.0478  0.4899
  482MOL0     C64953   4.614   9.529   1.155  0.0446  0.6088 -0.5435
  482MOL0     C64954   4.525   9.419   1.142  0.3426 -0.5299 -0.4256
  482MOL0     C64955   4.543   9.274   1.167  0.8706 -0.1402  0.8041
  482MOL0     C64956   4.692   9.237   1.182 -0.2809 -0.3835 -0.2350
  482MOL0     C64957   4.708   9.100   1.242  0.5898 -1.0910  0.2864
  482MOL0     C64958   4.860   9.066   1.252 -0.1369  0.3540 -0.1455
  482MOL0     O64959   4.879   8.941   1.315 -0.2223 -0.3626 -0.0983
  482MOL0     C64960   4.889   8.833   1.251 -0.5994  0.7526  0.9498
  482MOL0     C64961   4.874   8.800   1.114  0.5052 -0.2812 -0.7074
  482MOL0     C64962   4.895   8.664   1.075 -0.9853 -0.0475  0.6650
  482MOL0     C64963   4.891   8.631   0.928 -0.0536  0.9075  0.3919
  482MOL0     C64964   4.926   8.559   1.167 -0.3098  0.5026  0.1165
  482MOL0     C64965   4.968   8.421   1.140 -0.1602  0.5215  0.5517
  482MOL0     O64966   5.075   8.369   1.207  0.5499  0.0558 -0.0859
  482MOL0     C64967   5.133   8.255   1.170  0.4288  0.6938  0.4843
  482MOL0     C64968   5.194   8.241   1.043 -0.6846  0.3734  0.0488
  482MOL0     C64969   5.272   8.122   1.013 -0.8338 -0.2869 -0.6401
  482MOL0     C64970   5.298   8.022   1.114 -0.9887  0.1354 -0.1447
  482MOL0     O64971   5.389   7.923   1.088  0.5236 -0.3596  0.1432
  482MOL0     C64972   5.412   7.828   1.197  0.1078 -0.0623 -0.0616
  482MOL0     C64973   5.481   7.706   1.140 -0.3886  0.3228 -0.3127
  482MOL0     C64974   5.493   7.583   1.243 -0.3444  0.3856  0.3212
  482MOL0     C64975   5.598   7.473   1.201  1.4983 -1.2036 -0.0445
  482MOL0     C64976   5.555   7.394   1.071  0.4267 -0.2732  0.7533
  482MOL0     C64977   5.659   7.289   1.035 -0.1868  0.1792 -0.3973
  482MOL0     C64978   5.592   7.212   0.904  0.3861 -1.3886 -0.5279
  482MOL0     C64979   5.657   7.074   0.878  0.8784 -0.2603 -0.0950
  482MOL0    Cl64980   5.588   6.996   0.725 -0.0706  0.0037 -0.0539
  482MOL0     C64981   5.234   8.041   1.245  1.1758  0.9700  0.2932
  482MOL0     C64982   5.154   8.152   1.265 -0.3639 -0.0797 -0.5396
  482MOL0     O64983   4.901   8.359   1.057 -0.2600 -0.3764  0.2967
  482MOL0     C64984   4.941   8.603   1.296  0.1056 -0.8849 -0.6993
  482MOL0     C64985   4.923   8.733   1.335  0.5354  0.2022  0.7662
  482MOL0     N64986   4.406   9.475   1.102 -0.2293  0.3125 -0.4352
  482MOL0     N64987   4.418   9.603   1.092 -0.4804 -0.4824  0.3725
  482MOL0     C64988   4.750  10.686   0.767 -0.2335 -0.3655  0.2607
  482MOL0     C64989   4.840  10.786   0.739 -0.7575 -0.5390  0.5303
  482MOL0     C64990   5.205  11.043   0.658  0.5216  0.0388  0.0667
  482MOL0     C64991   5.207  11.156   0.580 -0.6352 -0.0068  0.9337
  482MOL0     C64992   5.318  11.233   0.566  0.1843  0.1477 -0.6047
  482MOL0     C64993   5.426  11.206   0.641 -0.9323 -0.6295  0.7750
  482MOL0     O64994   5.546  11.268   0.628  0.3574 -0.3654 -0.0619
  482MOL0     C64995   5.565  11.376   0.536 -0.5233  0.1162 -0.1214
  482MOL0     C64996   5.707  11.414   0.565 -0.1643  0.5164 -0.6097
  482MOL0     C64997   5.726  11.562   0.546  0.1977 -0.5159 -0.4824
  482MOL0     C64998   5.873  11.601   0.585 -0.8637 -0.0923 -0.2809
  482MOL0     C64999   5.898  11.750   0.571 -0.9674  0.6017 -0.1239
  482MOL0     C65000   5.916  11.866   0.545  0.1478  0.1150 -0.7401
  482MOL0     C65001   5.432  11.103   0.738 -0.1787  0.3171  0.0284
  482MOL0     C65002   5.313  11.021   0.747  0.3584 -0.0005  0.4684
  482MOL0     H65003   5.131  10.629   0.825  0.9618  1.1665  0.4883
  482MOL0     H65004   4.979  10.454   0.867 -2.5006 -0.7236 -0.1833
  482MOL0     H65005   4.614  10.295   0.807 -2.5767  1.1790 -2.4005
  482MOL0     H65006   4.703  10.363   0.670  2.8963  0.3192 -0.6082
  482MOL0     H65007   4.794  10.129   0.754 -2.8048 -0.2106  2.8806
  482MOL0     H65008   4.918  10.248   0.788 -1.1435  2.5518  0.0654
  482MOL0     H65009   4.817  10.243   1.021 -0.1496 -1.4183  1.3335
  482MOL0     H65010   4.693  10.133   0.944 -2.1756  3.0984  1.9150
  482MOL0     H65011   4.850   9.973   0.895 -6.2336  0.0726  2.4237
  482MOL0     H65012   4.991  10.075   0.950 -0.7527  2.4943 -0.1282
  482MOL0     H65013   4.960   9.905   1.124 -0.4510  1.2390  0.7568
  482MOL0     H65014   4.934  10.075   1.162 -1.7411  2.2823 -1.4933
  482MOL0     H65015   4.753   9.946   1.279 -1.8201  0.8378  0.8237
  482MOL0     H65016   4.672  10.019   1.140  0.4864 -0.7931 -0.7760
  482MOL0     H65017   4.690   9.816   1.008 -0.4529 -1.5605  0.3887
  482MOL0     H65018   4.796   9.743   1.149 -0.3353 -2.2783 -0.9277
  482MOL0     H65019   4.507   9.854   1.158 -0.5211 -0.4122 -0.7586
  482MOL0     H65020   4.593   9.776   1.289 -0.7400  1.8598  0.0166
  482MOL0     H65021   4.715   9.508   1.189 -1.2435 -4.2280  1.2214
  482MOL0     H65022   4.480   9.247   1.252  1.2509  0.9802  1.4572
  482MOL0     H65023   4.504   9.205   1.092  0.3261 -2.7652  3.3249
  482MOL0     H65024   4.731   9.307   1.256 -2.8236 -0.7200  1.5415
  482MOL0     H65025   4.747   9.252   1.088  0.7540  2.9390  0.7926
  482MOL0     H65026   4.664   9.029   1.171  1.3580  1.5447 -3.0629
  482MOL0     H65027   4.657   9.103   1.339  1.0859  0.8860  0.5184
  482MOL0     H65028   4.905   9.137   1.321  1.1274 -0.4606 -0.0981
  482MOL0     H65029   4.918   9.083   1.160  1.7606  4.8319  1.5888
  482MOL0     H65030   4.856   8.871   1.033 -0.7256 -1.0675 -1.1481
  482MOL0     H65031   4.897   8.720   0.865  0.3060  0.0809 -0.7922
  482MOL0     H65032   4.987   8.590   0.893 -0.1766  1.7895 -1.0699
  482MOL0     H65033   4.811   8.560   0.907  1.0274 -0.7377  1.6270
  482MOL0     H65034   5.185   8.317   0.966  1.1546  1.1612  0.5566
  482MOL0     H65035   5.330   8.114   0.922  3.1563  1.9767  1.4484
  482MOL0     H65036   5.473   7.867   1.278  0.3568 -0.8785  0.1504
  482MOL0     H65037   5.311   7.797   1.225 -0.0743  1.9556  1.7433
  482MOL0     H65038   5.421   7.683   1.052 -2.6384  3.5261  0.2213
  482MOL0     H65039   5.585   7.729   1.118  0.3798  0.1913  2.6830
  482MOL0     H65040   5.392   7.542   1.252  0.1171 -0.9647 -0.2963
  482MOL0     H65041   5.512   7.626   1.342 -2.2832 -1.1739  1.4292
  482MOL0     H65042   5.697   7.519   1.189  1.0169  0.1601  1.0383
  482MOL0     H65043   5.601   7.395   1.279 -0.1153 -1.0603  0.1901
  482MOL0     H65044   5.542   7.467   0.991 -1.1491 -2.4278 -1.0490
  482MOL0     H65045   5.456   7.348   1.075  0.4302 -0.4519 -0.7386
  482MOL0     H65046   5.753   7.333   1.000 -0.0939  0.8384  0.6437
  482MOL0     H65047   5.687   7.212   1.108 -1.1972  0.4156  0.2652
  482MOL0     H65048   5.607   7.283   0.822  0.7663 -1.0511 -0.1749
  482MOL0     H65049   5.487   7.192   0.929  1.0063 -2.3151  1.5860
  482MOL0     H65050   5.648   7.008   0.966 -0.8692  1.1472  0.8398
  482MOL0     H65051   5.764   7.087   0.863  0.5593  0.2628 -2.1271
  482MOL0     H65052   5.245   7.974   1.330 -1.3364 -0.0885 -0.1243
  482MOL0     H65053   5.100   8.168   1.357  3.5712  3.0765  1.5761
  482MOL0     H65054   4.980   8.535   1.370  3.0493 -0.1556 -1.4531
  482MOL0     H65055   4.937   8.765   1.438  0.3101 -0.5733  1.0459
  482MOL0     H65056   4.646  10.683   0.738  0.3123 -1.0665 -1.8090
  482MOL0     H65057   4.806  10.881   0.698 -2.0570 -1.0702  0.3403
  482MOL0     H65058   5.126  11.193   0.518 -0.0820 -2.3240 -1.3752
  482MOL0     H65059   5.309  11.323   0.506  2.5788 -0.9793 -2.8512
  482MOL0     H65060   5.551  11.348   0.431  1.7065 -0.9625 -0.2028
  482MOL0     H65061   5.494  11.454   0.564  0.2615  1.7695 -2.4103
  482MOL0     H65062   5.776  11.370   0.492  0.9358 -2.2259  1.8591
  482MOL0     H65063   5.726  11.390   0.670 -1.2428  0.4691 -0.4185
  482MOL0     H65064   5.653  11.619   0.605  0.0099  1.1653 -2.2170
  482MOL0     H65065   5.707  11.588   0.441 -1.4265 -0.6843 -0.2616
  482MOL0     H65066   5.951  11.542   0.536  1.6459  0.7612  2.3989
  482MOL0     H65067   5.868  11.576   0.692 -1.2661  0.0985 -0.2512
  482MOL0     H65068   5.933  11.969   0.519 -0.1791  0.7670  1.4692
  482MOL0     H65069   5.523  11.082   0.793 -0.2812  1.2872  0.6062
  482MOL0     H65070   5.328  10.939   0.817 -0.8490  0.8529  1.7748
  483MOL0     O65071   5.618   8.152   9.881 -0.2462 -0.4043 -0.3186
  483MOL0     C65072   5.622   8.133   9.759  0.6465 -0.4186 -0.7193
  483MOL0     O65073   5.588   8.228   9.668  0.4005 -0.2826  1.0708
  483MOL0     C65074   5.498   8.320   9.709  0.5814  0.3505 -0.2303
  483MOL0     C65075   5.359   8.286   9.702 -0.4039  0.5469 -0.3374
  483MOL0     C65076   5.259   8.385   9.740 -0.8131 -0.1523 -1.1148
  483MOL0     C65077   5.305   8.513   9.788  0.2251 -0.4183  0.2180
  483MOL0     O65078   5.214   8.609   9.838 -0.3359 -0.0119  0.1436
  483MOL0     C65079   5.131   8.556   9.943  0.7588 -0.8477 -0.6552
  483MOL0     C65080   5.065   8.682  10.011  0.0934 -0.4506 -0.3934
  483MOL0     C65081   4.975   8.634  10.128 -0.4831 -0.1276  0.0154
  483MOL0     C65082   4.884   8.752  10.178  0.0758  0.0044 -0.0861
  483MOL0     C65083   4.752   8.751  10.100  1.7003 -1.0104 -0.3570
  483MOL0     C65084   4.653   8.865  10.138  0.7269  0.2243 -0.0129
  483MOL0     C65085   4.701   8.990  10.070 -0.0683 -0.3329  0.0188
  483MOL0     C65086   4.590   9.091  10.058  0.1861 -0.1308  0.0669
  483MOL0     N65087   4.503   9.071   9.942 -1.0657 -0.4207  0.4729
  483MOL0     C65088   4.537   9.093   9.809  0.5960  0.2503  1.3382
  483MOL0     C65089   4.422   9.061   9.733  0.7031 -0.6346 -0.2179
  483MOL0     C65090   4.391   9.092   9.584  0.0465  1.0431 -0.1675
  483MOL0     C65091   4.311   9.221   9.560  0.0908 -0.7367  0.1693
  483MOL0     C65092   4.197   9.243   9.649  0.6003  0.4782  0.1039
  483MOL0     C65093   4.104   9.352   9.621  0.0724  0.3153  0.5883
  483MOL0     O65094   4.040   9.319   9.494 -1.0190  0.3646 -0.8249
  483MOL0     C65095   3.953   9.408   9.444 -1.3253 -0.2627 -1.3972
  483MOL0     C65096   3.901   9.518   9.502 -0.3294 -0.6121 -0.6139
  483MOL0     C65097   3.789   9.587   9.449 -1.1723  0.9523 -0.4573
  483MOL0     C65098   3.730   9.694   9.536  0.0690 -0.0640  0.7229
  483MOL0     C65099   3.720   9.527   9.332  0.1141  0.5590 -0.3517
  483MOL0     C65100   3.589   9.586   9.275 -0.3846  0.2704 -0.7757
  483MOL0     O65101   3.523   9.517   9.178 -0.0353 -0.6273  0.3107
  483MOL0     C65102   3.527   9.583   9.059 -0.5560 -0.3063 -0.2641
  483MOL0     C65103   3.453   9.704   9.039  0.1690 -0.1878 -0.0536
  483MOL0     C65104   3.450   9.785   8.925 -0.6361 -0.1926 -0.4399
  483MOL0     C65105   3.531   9.747   8.814  0.7322  0.0395 -0.2090
  483MOL0     O65106   3.527   9.816   8.694  0.0996 -0.2864 -0.5317
  483MOL0     C65107   3.573   9.951   8.705 -0.8984  0.2970  0.2106
  483MOL0     C65108   3.511  10.043   8.603  0.5284 -0.6294  0.0833
  483MOL0     C65109   3.527  10.195   8.635  0.3275 -0.2323  0.2328
  483MOL0     C65110   3.435  10.285   8.559  0.1975 -0.3839 -0.5122
  483MOL0     C65111   3.458  10.432   8.584 -0.0952  0.3287 -0.2183
  483MOL0     C65112   3.599  10.475   8.571  0.7410  0.8858  0.1235
  483MOL0     C65113   3.621  10.629   8.570 -0.2220 -0.0133  0.1222
  483MOL0     C65114   3.530  10.693   8.677  0.4635 -0.1280 -0.0098
  483MOL0    Cl65115   3.539  10.624   8.830 -0.0263  0.2909 -0.1665
  483MOL0     C65116   3.602   9.629   8.833 -0.1544 -0.3522 -0.4612
  483MOL0     C65117   3.601   9.546   8.953 -0.0124  0.4316  0.1484
  483MOL0     O65118   3.558   9.698   9.309 -0.5465  0.0074 -0.1740
  483MOL0     C65119   3.775   9.411   9.277  0.7598  0.0766  0.6270
  483MOL0     C65120   3.887   9.351   9.339 -0.2720 -0.4475 -0.3117
  483MOL0     N65121   4.342   8.997   9.823  0.2268 -0.8912 -0.1684
  483MOL0     N65122   4.388   9.000   9.943  0.5876 -0.0806 -0.2227
  483MOL0     C65123   5.438   8.539   9.795 -1.1780 -1.5213 -0.1356
  483MOL0     C65124   5.529   8.448   9.762 -0.8275  0.3522 -0.3906
  483MOL0     C65125   5.656   7.994   9.732 -0.0810 -0.5798 -0.6637
  483MOL0     C65126   5.647   7.959   9.596 -0.4171 -0.2068  0.0616
  483MOL0     C65127   5.676   7.832   9.556 -0.2534  0.4195  0.7280
  483MOL0     C65128   5.705   7.732   9.645  0.5406 -1.1711  0.5246
  483MOL0     O65129   5.741   7.613   9.588  0.6865 -0.1108 -0.6235
  483MOL0     C65130   5.775   7.514   9.683 -1.1590 -0.8811  0.1835
  483MOL0     C65131   5.833   7.397   9.597  0.4926 -0.3352  1.1983
  483MOL0     C65132   5.879   7.279   9.670  0.6272 -0.1001 -0.5716
  483MOL0     C65133   5.909   7.166   9.570  0.8695  0.5652  0.1490
  483MOL0     C65134   5.942   7.051   9.648 -0.4089  0.8374 -1.3267
  483MOL0     C65135   5.971   6.943   9.697  1.3478 -0.4721  0.1109
  483MOL0     C65136   5.695   7.762   9.783 -0.5692  1.5042  0.1448
  483MOL0     C65137   5.679   7.899   9.825 -0.3367 -0.0167 -0.1787
  483MOL0     H65138   5.322   8.190   9.667  0.0090 -0.2675  1.3287
  483MOL0     H65139   5.153   8.364   9.748 -0.5959 -0.9512 -0.1078
  483MOL0     H65140   5.046   8.497   9.907 -2.0758  0.0119  3.8436
  483MOL0     H65141   5.175   8.495  10.023 -0.2780 -1.4531 -0.5312
  483MOL0     H65142   5.140   8.753  10.045 -0.1821  0.4463 -1.6053
  483MOL0     H65143   5.004   8.732   9.934  2.6163  0.9408 -1.5987
  483MOL0     H65144   4.914   8.549  10.098 -2.1140  1.0588 -0.1324
  483MOL0     H65145   5.059   8.604  10.191 -1.4814 -1.8218  0.6029
  483MOL0     H65146   4.869   8.754  10.286  0.8518  2.8409  0.0391
  483MOL0     H65147   4.938   8.846  10.168  1.9067 -0.4812  3.6085
  483MOL0     H65148   4.757   8.753   9.991  1.2303  1.8229 -0.4113
  483MOL0     H65149   4.702   8.658  10.129  0.8356 -0.8766 -1.3766
  483MOL0     H65150   4.555   8.838  10.099  0.9814  2.7247 -2.7437
  483MOL0     H65151   4.647   8.883  10.246  0.2512  0.7946 -0.1274
  483MOL0     H65152   4.776   9.040  10.132 -0.6721  0.2181  0.3151
  483MOL0     H65153   4.759   8.972   9.979 -0.0421 -3.4364  0.5299
  483MOL0     H65154   4.636   9.190  10.051  0.4236 -0.1971  0.6321
  483MOL0     H65155   4.524   9.075  10.144  0.6554 -1.4834  0.2088
  483MOL0     H65156   4.630   9.129   9.766 -0.5857 -0.2463 -1.8642
  483MOL0     H65157   4.487   9.089   9.532  0.6100 -2.9719  0.7151
  483MOL0     H65158   4.330   9.014   9.537 -0.3983  1.1946  0.1527
  483MOL0     H65159   4.276   9.211   9.457 -0.5958 -1.2728  0.4507
  483MOL0     H65160   4.374   9.311   9.567 -2.1415  0.8429  1.0193
  483MOL0     H65161   4.218   9.251   9.756 -2.9475  3.1043  0.7875
  483MOL0     H65162   4.136   9.153   9.637  0.6594  0.3191  0.9402
  483MOL0     H65163   4.167   9.442   9.622 -0.9708  1.1049  2.9564
  483MOL0     H65164   4.033   9.368   9.703 -0.9863  3.1000 -0.7302
  483MOL0     H65165   3.946   9.566   9.588 -1.3112 -1.1686  0.2480
  483MOL0     H65166   3.796   9.726   9.618  0.5166  0.2599  0.2474
  483MOL0     H65167   3.713   9.777   9.467 -0.6091 -0.8923 -0.1155
  483MOL0     H65168   3.635   9.660   9.577 -2.1673  1.3568 -2.8175
  483MOL0     H65169   3.397   9.750   9.120 -1.7213  0.0151 -1.4066
  483MOL0     H65170   3.393   9.878   8.922  0.9066  0.7592 -1.2822
  483MOL0     H65171   3.555  10.001   8.800 -3.1908 -1.3240  0.7191
  483MOL0     H65172   3.681   9.956   8.689 -1.0603 -2.7752 -3.1460
  483MOL0     H65173   3.553  10.033   8.502 -0.3503  6.5553 -1.4996
  483MOL0     H65174   3.404  10.024   8.592  0.5406 -0.9707  0.5082
  483MOL0     H65175   3.630  10.223   8.614  0.4227 -0.4932  0.3464
  483MOL0     H65176   3.504  10.203   8.742 -1.5591  0.3780 -0.1759
  483MOL0     H65177   3.454  10.268   8.452 -0.5447 -0.4500 -0.6374
  483MOL0     H65178   3.332  10.258   8.582 -0.0745  2.1638  1.6902
  483MOL0     H65179   3.430  10.439   8.689  0.0561  1.1916 -0.2283
  483MOL0     H65180   3.381  10.486   8.528  0.0170 -2.6332 -3.6213
  483MOL0     H65181   3.653  10.427   8.653 -1.0972 -0.1431  0.7688
  483MOL0     H65182   3.639  10.441   8.475  1.1631  0.2545  0.5175
  483MOL0     H65183   3.595  10.671   8.473  1.8915 -2.9362 -1.8971
  483MOL0     H65184   3.723  10.666   8.584 -1.2833  4.5103 -2.3860
  483MOL0     H65185   3.427  10.701   8.640 -0.2816  0.7871  2.0986
  483MOL0     H65186   3.565  10.796   8.668 -0.2464  0.0680 -0.6537
  483MOL0     H65187   3.654   9.576   8.753  0.1477 -2.0983  0.8270
  483MOL0     H65188   3.673   9.465   8.959 -2.5442 -2.1757 -1.7467
  483MOL0     H65189   3.719   9.378   9.190 -2.9361  0.5819  2.6013
  483MOL0     H65190   3.933   9.260   9.304  0.1043 -0.0430 -0.8817
  483MOL0     H65191   5.463   8.633   9.843 -1.0941 -2.4469  1.7287
  483MOL0     H65192   5.634   8.474   9.766 -1.0514  1.3261 -0.6978
  483MOL0     H65193   5.636   8.026   9.512  0.0649 -1.0578 -0.6846
  483MOL0     H65194   5.674   7.808   9.450 -0.8001  1.0582  0.5875
  483MOL0     H65195   5.860   7.553   9.740 -0.7328 -0.2633 -0.8456
  483MOL0     H65196   5.689   7.485   9.745 -1.6849 -2.2781 -1.1388
  483MOL0     H65197   5.919   7.423   9.534 -0.6562 -0.4696 -0.4989
  483MOL0     H65198   5.740   7.369   9.546 -0.0965 -4.0182  3.8649
  483MOL0     H65199   5.807   7.257   9.749  2.3492  0.7638  1.3195
  483MOL0     H65200   5.979   7.291   9.714  0.0118 -1.7744  1.4601
  483MOL0     H65201   5.990   7.182   9.499  1.3352 -1.5392  0.1298
  483MOL0     H65202   5.825   7.136   9.508  0.1834 -1.3249  1.8482
  483MOL0     H65203   6.004   6.846   9.728  2.3200  0.1930  1.2035
  483MOL0     H65204   5.721   7.691   9.861  2.2918  1.6249 -0.5837
  483MOL0     H65205   5.678   7.921   9.931  0.6851 -4.0252  0.8619
  484MOL0     O65206   3.291   1.646   6.406  0.2841 -0.7715 -0.4238
  484MOL0     C65207   3.266   1.632   6.287 -0.1105 -0.4439  0.6007
  484MOL0     O65208   3.142   1.590   6.235 -0.1589 -0.2350 -0.1029
  484MOL0     C65209   3.028   1.635   6.293 -0.8125  1.3978  0.3725
  484MOL0     C65210   2.931   1.532   6.318  0.4787 -0.8610  0.2924
  484MOL0     C65211   2.814   1.558   6.381  0.5423 -0.5457 -0.2982
  484MOL0     C65212   2.793   1.695   6.424  0.1128  0.2744  0.3296
  484MOL0     O65213   2.679   1.723   6.493  0.4313 -0.1217 -0.4090
  484MOL0     C65214   2.594   1.825   6.432  0.7205 -0.5298 -0.1534
  484MOL0     C65215   2.498   1.774   6.326 -0.3212 -0.2293 -0.1694
  484MOL0     C65216   2.413   1.887   6.268 -0.8100 -0.3729 -0.1953
  484MOL0     C65217   2.330   1.824   6.158 -0.1911 -0.3229  0.3553
  484MOL0     C65218   2.241   1.930   6.096  0.2798  1.0790 -0.4810
  484MOL0     C65219   2.108   1.939   6.179  1.4442  0.0065 -0.3871
  484MOL0     C65220   2.018   2.035   6.096  0.4231 -0.1060  0.1670
  484MOL0     C65221   1.938   1.968   5.978  0.4470 -0.0427  0.8603
  484MOL0     N65222   1.938   2.051   5.857  0.6740 -0.1855 -0.1437
  484MOL0     C65223   1.883   2.173   5.844  0.8871 -0.2206  0.7417
  484MOL0     C65224   1.902   2.197   5.712 -0.8749 -0.4710 -0.0429
  484MOL0     C65225   1.867   2.330   5.641  0.2916 -0.6845  0.9995
  484MOL0     C65226   1.734   2.322   5.556  0.2360 -0.6836  0.3581
  484MOL0     C65227   1.726   2.219   5.451  0.4928 -0.7708  0.7098
  484MOL0     C65228   1.843   2.236   5.358  0.2965 -0.6793  0.8383
  484MOL0     O65229   1.823   2.155   5.237 -0.6509  0.1373 -0.6061
  484MOL0     C65230   1.839   2.015   5.243  0.1100 -0.6253  0.8809
  484MOL0     C65231   1.767   1.945   5.149  0.4210 -0.6288 -0.5602
  484MOL0     C65232   1.797   1.812   5.122  0.0539 -0.3549 -0.7908
  484MOL0     C65233   1.721   1.752   5.006 -0.2458 -0.4667 -0.1395
  484MOL0     C65234   1.868   1.740   5.225 -0.1830 -0.6717 -0.8025
  484MOL0     C65235   1.895   1.597   5.229 -0.5040 -0.4241  0.6302
  484MOL0     O65236   1.893   1.545   5.355 -0.6469 -0.2894  0.2744
  484MOL0     C65237   1.923   1.410   5.370 -0.1532  0.5232 -0.3165
  484MOL0     C65238   1.853   1.331   5.460 -0.2940 -0.3139 -0.0571
  484MOL0     C65239   1.897   1.198   5.501 -0.3845 -0.5420  0.3550
  484MOL0     C65240   2.029   1.164   5.458  0.8702  0.9802  1.2911
  484MOL0     O65241   2.096   1.053   5.489  0.1172 -0.0788  0.4751
  484MOL0     C65242   2.019   0.932   5.469  0.5076  1.2352 -0.6454
  484MOL0     C65243   2.080   0.796   5.534  0.0046 -0.6091 -0.0445
  484MOL0     C65244   2.105   0.802   5.688 -0.5653  0.3339 -0.7013
  484MOL0     C65245   2.148   0.673   5.743  0.6502  0.7004 -0.6346
  484MOL0     C65246   2.162   0.668   5.895  0.1741  0.2845 -0.6255
  484MOL0     C65247   2.057   0.726   5.996  0.1540 -0.3248 -0.2674
  484MOL0     C65248   1.924   0.643   5.997  0.2808  2.1054  0.1618
  484MOL0     C65249   1.818   0.709   6.078  0.3268  0.7262  0.0518
  484MOL0    Cl65250   1.760   0.846   5.996 -0.0244  0.4125  0.6251
  484MOL0     C65251   2.100   1.246   5.379 -0.1427  0.2426 -0.2321
  484MOL0     C65252   2.042   1.363   5.328  0.7320 -0.4142  0.3610
  484MOL0     O65253   1.920   1.534   5.131  0.9080 -0.4646  0.8922
  484MOL0     C65254   1.929   1.810   5.339 -0.0398 -0.3575 -0.4966
  484MOL0     C65255   1.918   1.952   5.337  0.7120 -0.2120 -0.1060
  484MOL0     N65256   1.976   2.096   5.646 -0.5106 -0.0256 -0.7137
  484MOL0     N65257   1.996   2.007   5.743 -0.0104 -0.9811 -0.5935
  484MOL0     C65258   2.881   1.797   6.381  0.3316  0.1910 -0.1005
  484MOL0     C65259   2.998   1.766   6.314  0.8611  0.1194  0.4576
  484MOL0     C65260   3.387   1.650   6.185 -0.5880  0.1756  0.3201
  484MOL0     C65261   3.516   1.714   6.236  0.4907  0.0754 -0.8206
  484MOL0     C65262   3.620   1.732   6.144  0.1684  0.2851 -0.2971
  484MOL0     C65263   3.595   1.713   6.005 -0.1495  0.1545  0.4643
  484MOL0     O65264   3.692   1.732   5.910 -0.0949  0.2141 -0.3144
  484MOL0     C65265   3.799   1.828   5.929 -0.1366 -0.0328  1.0218
  484MOL0     C65266   3.877   1.835   5.800  0.0725 -0.5685  0.1334
  484MOL0     C65267   3.796   1.854   5.676  0.0015 -0.8296  0.4323
  484MOL0     C65268   3.869   1.956   5.584 -0.0098  0.8982 -0.8844
  484MOL0     C65269   3.983   1.888   5.513 -0.6285 -0.2762 -0.7037
  484MOL0     C65270   4.065   1.824   5.456 -0.2789 -0.1588  0.4341
  484MOL0     C65271   3.478   1.652   5.956  0.0921 -0.2877 -0.3506
  484MOL0     C65272   3.377   1.620   6.045  0.0024 -0.6982 -0.8479
  484MOL0     H65273   2.949   1.431   6.280 -0.3139 -0.6485 -0.6948
  484MOL0     H65274   2.736   1.482   6.386 -0.9686  0.7901 -2.2284
  484MOL0     H65275   2.531   1.867   6.511 -0.3244 -0.6843 -0.8915
  484MOL0     H65276   2.650   1.913   6.398 -1.5678  1.1345  0.1450
  484MOL0     H65277   2.558   1.742   6.240 -1.6722  1.8310 -1.9833
  484MOL0     H65278   2.444   1.696   6.380  1.9263 -1.8178 -0.0496
  484MOL0     H65279   2.357   1.935   6.348 -0.0640 -0.2066  0.2294
  484MOL0     H65280   2.467   1.971   6.224 -1.3703  0.1579  0.1167
  484MOL0     H65281   2.390   1.785   6.075 -1.3912  0.5871 -0.9966
  484MOL0     H65282   2.272   1.739   6.196  0.1558 -0.7560 -0.0629
  484MOL0     H65283   2.296   2.025   6.089 -1.7499  2.4318  0.9080
  484MOL0     H65284   2.223   1.904   5.991  0.2779 -1.4360  0.0790
  484MOL0     H65285   2.063   1.840   6.188  0.0919  0.4850 -1.4536
  484MOL0     H65286   2.125   1.976   6.281  3.8422 -2.2492  0.1149
  484MOL0     H65287   1.953   2.086   6.168  0.1019  0.9699 -0.8644
  484MOL0     H65288   2.095   2.106   6.066  4.2137 -2.7494  2.5971
  484MOL0     H65289   1.839   1.943   6.017 -1.9682  0.4272 -4.1753
  484MOL0     H65290   1.995   1.883   5.941 -0.0333  1.1723 -3.0909
  484MOL0     H65291   1.815   2.224   5.912  0.0351 -0.3090 -0.0291
  484MOL0     H65292   1.852   2.410   5.713 -0.5061  0.2710 -0.1889
  484MOL0     H65293   1.949   2.370   5.581 -2.4892  2.0310 -1.3896
  484MOL0     H65294   1.738   2.422   5.511  0.1551 -1.3594 -1.2318
  484MOL0     H65295   1.651   2.324   5.627 -1.9325  1.2818 -2.0127
  484MOL0     H65296   1.633   2.225   5.394  1.4160 -1.0557 -0.8902
  484MOL0     H65297   1.729   2.116   5.489  1.0737 -2.2988 -3.0139
  484MOL0     H65298   1.937   2.214   5.409  0.9527  3.2172  1.6262
  484MOL0     H65299   1.861   2.339   5.324 -1.2095 -1.0587 -1.2742
  484MOL0     H65300   1.699   1.993   5.079 -1.6558  2.6632  3.3167
  484MOL0     H65301   1.783   1.765   4.917  0.2381 -3.4997 -0.3554
  484MOL0     H65302   1.714   1.643   5.015  2.7108 -0.6752  0.6502
  484MOL0     H65303   1.621   1.793   4.988 -0.4391 -1.4490 -1.4795
  484MOL0     H65304   1.760   1.374   5.495 -2.1847 -2.1988 -2.4307
  484MOL0     H65305   1.840   1.137   5.571  0.6662 -2.1970 -0.1646
  484MOL0     H65306   1.920   0.935   5.515  1.0184  1.3213  0.4760
  484MOL0     H65307   2.016   0.916   5.361 -0.6163  2.1308 -0.7711
  484MOL0     H65308   2.027   0.707   5.501 -1.4565  1.0733 -2.5470
  484MOL0     H65309   2.175   0.789   5.480 -0.4377 -3.0856 -0.6305
  484MOL0     H65310   2.017   0.840   5.741  0.1141  0.7134  0.1827
  484MOL0     H65311   2.188   0.871   5.710  0.0755 -0.4453 -0.6072
  484MOL0     H65312   2.070   0.600   5.717 -0.4527  0.7560  2.1527
  484MOL0     H65313   2.245   0.629   5.718 -0.0755 -0.8536 -0.8586
  484MOL0     H65314   2.253   0.726   5.911 -2.0765  4.7984 -2.3539
  484MOL0     H65315   2.196   0.571   5.932 -2.7519 -0.9438 -0.8818
  484MOL0     H65316   2.104   0.738   6.094  0.1306 -0.7599 -0.2003
  484MOL0     H65317   2.024   0.827   5.971 -1.4387 -0.6991  0.1886
  484MOL0     H65318   1.950   0.545   6.038  6.1536  3.6608  0.9701
  484MOL0     H65319   1.885   0.637   5.895 -2.9180  1.3269  1.2882
  484MOL0     H65320   1.861   0.728   6.177  0.1140 -2.8240  0.9594
  484MOL0     H65321   1.732   0.644   6.094 -0.9081  1.9842 -1.2921
  484MOL0     H65322   2.201   1.215   5.355 -0.6302 -0.8920 -0.9191
  484MOL0     H65323   2.097   1.414   5.251 -0.7864 -0.4446 -0.7902
  484MOL0     H65324   2.001   1.765   5.407  0.0344  1.6488  0.8412
  484MOL0     H65325   1.966   2.008   5.417  0.7199 -1.3499  0.7177
  484MOL0     H65326   2.870   1.902   6.407 -3.7557  0.0515 -0.6604
  484MOL0     H65327   3.069   1.842   6.281 -0.7961  1.4244 -0.2567
  484MOL0     H65328   3.528   1.741   6.340 -3.0489  0.9447 -0.4825
  484MOL0     H65329   3.714   1.766   6.187  0.7710 -0.9748 -0.5899
  484MOL0     H65330   3.753   1.925   5.950  0.6254  0.3842  0.7955
  484MOL0     H65331   3.856   1.791   6.014  0.7575  0.5753  0.7043
  484MOL0     H65332   3.937   1.744   5.785 -0.7172 -0.7854 -1.9155
  484MOL0     H65333   3.945   1.920   5.808 -1.2600  0.3834  1.8737
  484MOL0     H65334   3.707   1.913   5.703  0.7142 -0.9711  3.4574
  484MOL0     H65335   3.758   1.759   5.639 -0.0962 -0.5394 -0.2323
  484MOL0     H65336   3.904   2.047   5.635 -1.6140  2.8622 -3.0480
  484MOL0     H65337   3.800   1.992   5.507 -2.4524 -0.5712  0.4885
  484MOL0     H65338   4.138   1.771   5.398  0.0127  1.7622 -1.0919
  484MOL0     H65339   3.465   1.634   5.849 -1.1102 -0.2439 -0.2313
  484MOL0     H65340   3.276   1.600   6.012  0.1636 -1.4697 -0.8885
  485MOL0     O65341   2.654   4.146   3.719 -0.8807  0.2186  0.3010
  485MOL0     C65342   2.567   4.142   3.629 -0.3679  0.1784  0.9727
  485MOL0     O65343   2.468   4.223   3.609  0.1673 -0.0353  1.1038
  485MOL0     C65344   2.440   4.332   3.681 -0.3887 -0.0285 -0.4303
  485MOL0     C65345   2.499   4.373   3.799  0.4820 -1.3435 -0.5246
  485MOL0     C65346   2.449   4.490   3.876 -0.3981  0.1316 -0.6096
  485MOL0     C65347   2.345   4.567   3.829 -1.0680 -0.5106  1.1637
  485MOL0     O65348   2.300   4.666   3.904 -0.4196  0.4977  0.6708
  485MOL0     C65349   2.153   4.664   3.914 -0.1092 -0.5591 -0.7526
  485MOL0     C65350   2.098   4.768   4.013  0.0560  0.0013  0.7457
  485MOL0     C65351   2.077   4.907   3.949  0.7115 -0.0253 -0.2899
  485MOL0     C65352   1.998   5.002   4.045 -0.2052 -0.0857 -0.2171
  485MOL0     C65353   1.938   5.121   3.977 -0.1506 -0.0635  0.3677
  485MOL0     C65354   2.038   5.224   3.929  0.2385 -0.2637  1.2158
  485MOL0     C65355   1.977   5.351   3.869 -0.2883  0.4112 -0.4658
  485MOL0     C65356   2.057   5.478   3.890 -1.0807 -0.3776  0.5257
  485MOL0     N65357   2.197   5.488   3.842 -0.3808 -0.2490  0.1477
  485MOL0     C65358   2.237   5.496   3.712  0.2981 -0.1623  0.1748
  485MOL0     C65359   2.364   5.468   3.707  0.4222 -0.1406 -0.6563
  485MOL0     C65360   2.443   5.444   3.587 -0.8147  0.5713 -0.1705
  485MOL0     C65361   2.525   5.572   3.550 -0.0231 -0.1875  0.0091
  485MOL0     C65362   2.436   5.669   3.470 -0.1093 -0.7010  0.5658
  485MOL0     C65363   2.408   5.616   3.328 -0.0736 -0.7266 -0.2313
  485MOL0     O65364   2.381   5.723   3.239  0.1400 -0.2025  0.8420
  485MOL0     C65365   2.381   5.701   3.104  0.0084 -0.7197  0.1742
  485MOL0     C65366   2.403   5.811   3.026  0.4773  0.1413  0.0082
  485MOL0     C65367   2.403   5.805   2.883  0.1942  1.0044 -0.9500
  485MOL0     C65368   2.447   5.922   2.804 -0.2235  0.0498 -0.4984
  485MOL0     C65369   2.366   5.682   2.828 -0.3370  0.1870  0.9101
  485MOL0     C65370   2.347   5.654   2.690 -0.0145 -0.2886 -0.5526
  485MOL0     O65371   2.271   5.746   2.620  0.5622  0.0214 -0.1500
  485MOL0     C65372   2.298   5.756   2.486 -0.3680 -0.4812 -1.0176
  485MOL0     C65373   2.359   5.882   2.440 -0.0908  0.4640 -0.1477
  485MOL0     C65374   2.393   5.895   2.303 -0.4962 -0.3631  0.4168
  485MOL0     C65375   2.370   5.792   2.214  0.0816  0.0755  0.5691
  485MOL0     O65376   2.405   5.823   2.086  0.8680 -0.6164  0.1634
  485MOL0     C65377   2.419   5.713   1.987  0.0415  0.9625  0.1478
  485MOL0     C65378   2.496   5.757   1.865  0.6164 -0.4224  0.4564
  485MOL0     C65379   2.509   5.655   1.765  0.9020 -0.6307  0.0933
  485MOL0     C65380   2.600   5.702   1.658  0.2794 -0.3823  0.3687
  485MOL0     C65381   2.629   5.580   1.569 -0.1891  0.1377  1.1819
  485MOL0     C65382   2.734   5.623   1.469  0.9094  0.5917  0.0663
  485MOL0     C65383   2.765   5.496   1.379 -0.2480  0.1363  0.4358
  485MOL0     C65384   2.848   5.543   1.251  0.3972 -1.0941 -0.4499
  485MOL0    Cl65385   2.755   5.626   1.119  0.2554 -0.5826 -0.3095
  485MOL0     C65386   2.293   5.684   2.255  0.0561 -0.1253 -0.4756
  485MOL0     C65387   2.262   5.661   2.393  0.2932 -0.8774  0.3505
  485MOL0     O65388   2.408   5.553   2.640 -0.0391  0.3619  0.0637
  485MOL0     C65389   2.342   5.566   2.907 -0.0365 -0.1893  0.3725
  485MOL0     C65390   2.356   5.575   3.048  0.2273  0.2114 -0.2147
  485MOL0     N65391   2.400   5.428   3.827 -0.7308 -1.3239  0.0656
  485MOL0     N65392   2.304   5.440   3.911  0.2399  0.4819  0.4619
  485MOL0     C65393   2.286   4.526   3.704 -0.4940  0.3305 -0.4417
  485MOL0     C65394   2.322   4.408   3.644 -0.6101  0.8249  0.0757
  485MOL0     C65395   2.551   4.020   3.547  0.2560 -0.6892 -0.6670
  485MOL0     C65396   2.444   4.014   3.455 -0.1960  0.0224  0.2932
  485MOL0     C65397   2.402   3.889   3.413 -0.3713  0.8796  0.4807
  485MOL0     C65398   2.473   3.767   3.447  0.1926 -0.1739 -0.8842
  485MOL0     O65399   2.424   3.642   3.427  0.4802 -0.0293 -0.9143
  485MOL0     C65400   2.394   3.608   3.285 -0.5336  0.2598 -0.2375
  485MOL0     C65401   2.518   3.576   3.198  0.4502 -0.0659 -0.4409
  485MOL0     C65402   2.585   3.444   3.230  0.5699 -0.1285 -0.1164
  485MOL0     C65403   2.722   3.433   3.165  0.5751  0.9600 -0.1911
  485MOL0     C65404   2.796   3.311   3.213  1.2314 -0.5388  0.4040
  485MOL0     C65405   2.848   3.216   3.253  0.4892 -0.3611 -0.4156
  485MOL0     C65406   2.571   3.771   3.535 -1.0608 -0.6774 -0.4244
  485MOL0     C65407   2.611   3.896   3.590  0.3570 -0.1315  0.8244
  485MOL0     H65408   2.584   4.320   3.840  0.3121  0.0279  1.7330
  485MOL0     H65409   2.491   4.515   3.973 -0.8246 -0.4079 -0.2839
  485MOL0     H65410   2.114   4.679   3.813  4.1290  1.1963 -2.3861
  485MOL0     H65411   2.126   4.560   3.937  1.0948 -0.7518 -0.1130
  485MOL0     H65412   2.010   4.724   4.062  0.3696 -1.4856  0.0150
  485MOL0     H65413   2.171   4.778   4.094 -0.3496 -0.8371  1.2287
  485MOL0     H65414   2.178   4.935   3.917  1.2265 -3.7200 -2.4565
  485MOL0     H65415   2.019   4.895   3.857 -1.6979  0.7903  1.0537
  485MOL0     H65416   1.919   4.950   4.101 -0.3492 -0.3877 -0.6921
  485MOL0     H65417   2.068   5.045   4.117 -0.1669 -0.3618 -0.0864
  485MOL0     H65418   1.877   5.080   3.896 -0.7863 -0.7250  1.1456
  485MOL0     H65419   1.871   5.175   4.046 -0.3610  2.4084 -1.6463
  485MOL0     H65420   2.088   5.252   4.022 -0.9305 -0.4940  1.9288
  485MOL0     H65421   2.108   5.184   3.855  1.2712  2.5627  0.5201
  485MOL0     H65422   1.951   5.334   3.764 -0.4780 -0.0100 -0.3512
  485MOL0     H65423   1.886   5.364   3.929  1.2773  0.9285  1.9277
  485MOL0     H65424   2.060   5.493   3.999  0.8541  1.3457  0.3183
  485MOL0     H65425   2.010   5.568   3.848  2.0810  1.5201  0.7045
  485MOL0     H65426   2.173   5.520   3.627  1.3565 -0.5356 -0.7485
  485MOL0     H65427   2.511   5.364   3.615  2.2318  2.7172 -0.9172
  485MOL0     H65428   2.393   5.413   3.494  2.7903 -0.9040 -1.7913
  485MOL0     H65429   2.616   5.545   3.497 -0.4661 -1.3292 -0.1926
  485MOL0     H65430   2.540   5.631   3.641 -2.0304 -0.1620  0.3812
  485MOL0     H65431   2.478   5.769   3.466 -4.5465  1.3855  0.5895
  485MOL0     H65432   2.344   5.688   3.526 -0.4100 -1.2022  0.2463
  485MOL0     H65433   2.324   5.546   3.336  2.5785 -4.5271 -2.0260
  485MOL0     H65434   2.500   5.564   3.297 -0.1013  1.0638 -3.9089
  485MOL0     H65435   2.417   5.906   3.077  0.3076 -0.8883  2.0938
  485MOL0     H65436   2.353   5.978   2.806 -2.7857 -3.8422  2.1703
  485MOL0     H65437   2.535   5.975   2.841  1.5017 -1.7288 -1.8654
  485MOL0     H65438   2.483   5.893   2.705 -1.0162  0.2556 -0.8556
  485MOL0     H65439   2.374   5.963   2.511 -1.6754  3.4381 -2.9423
  485MOL0     H65440   2.449   5.980   2.265 -1.9632  0.3090 -0.3135
  485MOL0     H65441   2.452   5.620   2.035  1.2836  0.7546 -1.0496
  485MOL0     H65442   2.315   5.696   1.958 -0.5410  2.5890  1.1603
  485MOL0     H65443   2.437   5.840   1.824  1.3140  0.0085  0.3053
  485MOL0     H65444   2.590   5.802   1.898 -0.0396  2.0075 -0.7419
  485MOL0     H65445   2.413   5.620   1.724  0.1675 -0.7080  1.7856
  485MOL0     H65446   2.543   5.565   1.817 -2.4720 -1.9336  0.3064
  485MOL0     H65447   2.559   5.781   1.595  1.2618  2.1843  2.7590
  485MOL0     H65448   2.690   5.746   1.701 -0.0608  0.0689  0.6268
  485MOL0     H65449   2.536   5.541   1.526 -1.2095 -1.8347  4.7725
  485MOL0     H65450   2.659   5.497   1.633  0.6292 -0.4363  0.0862
  485MOL0     H65451   2.688   5.705   1.412 -1.5741 -0.1051  0.9234
  485MOL0     H65452   2.820   5.680   1.504 -0.0601  0.8168  2.2854
  485MOL0     H65453   2.670   5.454   1.345 -1.1917  1.9210  0.7609
  485MOL0     H65454   2.821   5.411   1.418 -1.5794 -1.8415 -1.6826
  485MOL0     H65455   2.898   5.454   1.213  2.3885 -1.6528  3.0272
  485MOL0     H65456   2.927   5.610   1.287  0.6511 -1.9644  0.6797
  485MOL0     H65457   2.260   5.616   2.177  0.6259  0.6910 -1.4463
  485MOL0     H65458   2.201   5.576   2.422  2.0973 -1.0458  4.3682
  485MOL0     H65459   2.326   5.465   2.870  2.6211 -0.7800  0.6825
  485MOL0     H65460   2.344   5.485   3.108 -0.2576 -1.9993 -3.3526
  485MOL0     H65461   2.207   4.586   3.660 -0.6735  0.2527 -0.2304
  485MOL0     H65462   2.271   4.389   3.550 -3.3345  1.4553  1.3133
  485MOL0     H65463   2.381   4.100   3.434  0.4100  0.5075  0.4567
  485MOL0     H65464   2.303   3.887   3.369 -0.1885  2.7303 -0.1186
  485MOL0     H65465   2.325   3.525   3.297  1.8938 -1.4685  3.2031
  485MOL0     H65466   2.332   3.687   3.241 -0.6424 -0.0040 -0.5618
  485MOL0     H65467   2.592   3.654   3.214  0.2158 -0.2154  1.5738
  485MOL0     H65468   2.498   3.572   3.090  1.9289 -0.3832 -0.7324
  485MOL0     H65469   2.529   3.363   3.182 -0.0611  1.3520 -2.0406
  485MOL0     H65470   2.589   3.423   3.337 -0.1776 -2.7057 -0.5306
  485MOL0     H65471   2.788   3.518   3.186  1.7321 -0.4938  2.7498
  485MOL0     H65472   2.697   3.411   3.062 -0.8193 -5.3427  1.0745
  485MOL0     H65473   2.888   3.121   3.285  0.3963  0.4385  2.3018
  485MOL0     H65474   2.620   3.678   3.560 -0.3943 -0.1202  0.4295
  485MOL0     H65475   2.680   3.900   3.674  0.1900  0.4987  0.9401
  486MOL0     O65476   1.549   8.342   4.631 -0.1606  0.5953  0.4063
  486MOL0     C65477   1.668   8.329   4.653  0.1213 -0.7954  0.6782
  486MOL0     O65478   1.727   8.360   4.779 -0.5854  0.9564  1.2083
  486MOL0     C65479   1.672   8.418   4.885  0.2464  0.9477 -0.1993
  486MOL0     C65480   1.585   8.525   4.877 -0.1727  0.1536  1.0973
  486MOL0     C65481   1.550   8.582   5.003  0.8167  0.5204  0.4746
  486MOL0     C65482   1.596   8.533   5.127  0.4740 -0.7353  0.1841
  486MOL0     O65483   1.556   8.587   5.249 -0.0452 -0.1464 -0.0769
  486MOL0     C65484   1.495   8.498   5.337 -0.3357  0.0394 -0.6901
  486MOL0     C65485   1.359   8.441   5.300  0.3381 -0.2018 -0.1840
  486MOL0     C65486   1.240   8.548   5.285  0.1255 -0.1938 -0.3477
  486MOL0     C65487   1.119   8.473   5.229 -0.6946  0.4604  0.2937
  486MOL0     C65488   1.000   8.565   5.242 -0.8685 -0.5661  0.7424
  486MOL0     C65489   0.864   8.492   5.245  0.4377  0.2990 -0.6141
  486MOL0     C65490   0.746   8.568   5.192 -0.9531  0.1681 -0.1886
  486MOL0     C65491   0.714   8.704   5.262  0.2738 -0.4090 -0.6921
  486MOL0     N65492   0.666   8.691   5.396  1.1892 -0.7382 -0.6530
  486MOL0     C65493   0.529   8.685   5.430 -0.0960 -0.4862 -0.3543
  486MOL0     C65494   0.539   8.660   5.560 -0.0182  0.2404 -0.3603
  486MOL0     C65495   0.430   8.621   5.649  0.1273 -0.4575 -0.0485
  486MOL0     C65496   0.369   8.733   5.727 -0.3743  0.6063 -0.6363
  486MOL0     C65497   0.451   8.800   5.840  0.5283  0.2120 -0.5564
  486MOL0     C65498   0.545   8.916   5.789 -0.5748 -0.4169 -0.0352
  486MOL0     O65499   0.515   9.019   5.878 -0.3047  0.9886 -0.0944
  486MOL0     C65500   0.588   9.130   5.872  0.3701 -0.1032  0.2624
  486MOL0     C65501   0.676   9.173   5.971  0.0399 -0.4035 -0.0422
  486MOL0     C65502   0.747   9.297   5.958  0.1780 -1.0388  0.3259
  486MOL0     C65503   0.858   9.328   6.056  0.0135  0.0922 -0.5299
  486MOL0     C65504   0.721   9.383   5.842  0.1586 -0.6412  0.7942
  486MOL0     C65505   0.808   9.510   5.814  0.5728  0.3154  0.7120
  486MOL0     O65506   0.757   9.577   5.708 -0.0813  0.5181 -0.1885
  486MOL0     C65507   0.825   9.676   5.652  1.3089  0.2671 -0.3994
  486MOL0     C65508   0.856   9.800   5.717  0.3127  0.1751  0.2429
  486MOL0     C65509   0.949   9.883   5.642  1.0952 -0.2937  0.0976
  486MOL0     C65510   1.003   9.857   5.510 -0.3880  0.4174 -0.7695
  486MOL0     O65511   1.078   9.965   5.473 -0.2838 -0.4478  0.3170
  486MOL0     C65512   1.130   9.940   5.344  0.0424 -0.1980  0.3763
  486MOL0     C65513   1.230  10.047   5.299 -0.2771  0.1283 -1.0510
  486MOL0     C65514   1.258  10.035   5.153 -0.0463 -0.3364  0.5473
  486MOL0     C65515   1.330   9.898   5.118  1.2317 -0.8549  0.5228
  486MOL0     C65516   1.458   9.897   5.185 -0.5950 -0.3926  0.5085
  486MOL0     C65517   1.557   9.796   5.130 -1.5583  0.0893  0.8107
  486MOL0     C65518   1.698   9.812   5.190  0.3159  0.9786  0.5675
  486MOL0     C65519   1.795   9.698   5.154  0.5122 -1.6888 -0.5072
  486MOL0    Cl65520   1.723   9.544   5.216  0.4249  0.0738 -0.3498
  486MOL0     C65521   0.961   9.737   5.452  0.0928 -0.2638 -0.2270
  486MOL0     C65522   0.872   9.645   5.522 -0.0507  0.3164  0.4892
  486MOL0     O65523   0.922   9.526   5.864  0.2003 -0.5631 -0.2123
  486MOL0     C65524   0.621   9.346   5.759 -0.0616 -0.2832 -0.2701
  486MOL0     C65525   0.555   9.223   5.776 -0.2372  0.4802 -0.2947
  486MOL0     N65526   0.669   8.667   5.610  1.1355  0.5823  0.7267
  486MOL0     N65527   0.738   8.696   5.508  0.5856  0.0613  0.2111
  486MOL0     C65528   1.682   8.433   5.130 -1.3348 -0.4923  0.4138
  486MOL0     C65529   1.721   8.371   5.012  0.5498  0.2816 -0.2116
  486MOL0     C65530   1.758   8.277   4.542  0.2826 -0.0070 -1.0791
  486MOL0     C65531   1.708   8.183   4.453  0.2289  0.0601  0.9418
  486MOL0     C65532   1.780   8.093   4.378  0.0087  0.2512 -0.5317
  486MOL0     C65533   1.922   8.111   4.374  0.1583  0.5953  0.1770
  486MOL0     O65534   1.996   8.041   4.278 -0.3394 -0.1274 -0.1330
  486MOL0     C65535   1.943   7.944   4.190 -0.4447  0.1107  0.5274
  486MOL0     C65536   1.849   7.996   4.073  0.2821 -0.1410 -0.1795
  486MOL0     C65537   1.923   8.076   3.967 -0.6016  0.3196 -0.2440
  486MOL0     C65538   1.839   8.129   3.853  0.1754 -0.0486  0.2109
  486MOL0     C65539   1.727   8.218   3.884 -1.0942 -0.3439 -0.2621
  486MOL0     C65540   1.632   8.285   3.921  0.8285  0.2086  0.2892
  486MOL0     C65541   1.988   8.196   4.466  0.7779  0.1764 -0.3735
  486MOL0     C65542   1.902   8.283   4.550 -0.6524  0.6591 -0.4416
  486MOL0     H65543   1.548   8.563   4.783  1.3101  0.0151  0.4186
  486MOL0     H65544   1.465   8.649   4.995  1.1536  0.8016 -1.3768
  486MOL0     H65545   1.559   8.413   5.363  1.9193  1.6729 -0.6339
  486MOL0     H65546   1.495   8.555   5.431  0.6181 -0.0292 -0.6402
  486MOL0     H65547   1.384   8.387   5.208  1.7105  2.4016 -1.4465
  486MOL0     H65548   1.331   8.361   5.369 -0.2891  0.5231  0.4129
  486MOL0     H65549   1.216   8.587   5.384 -0.5211 -2.3880  0.4300
  486MOL0     H65550   1.266   8.625   5.212 -1.9394  1.2863  0.3945
  486MOL0     H65551   1.136   8.446   5.125  0.5196 -2.1982  1.0935
  486MOL0     H65552   1.104   8.375   5.275 -0.0116 -0.0574 -0.5751
  486MOL0     H65553   0.999   8.621   5.336 -2.2954  0.1249  0.3421
  486MOL0     H65554   1.001   8.621   5.147  0.2452 -0.9206  0.5261
  486MOL0     H65555   0.875   8.390   5.208 -0.8355 -1.1421  2.5612
  486MOL0     H65556   0.829   8.483   5.349  0.7661  4.2724  0.0064
  486MOL0     H65557   0.774   8.595   5.090 -3.9977  3.7339 -0.2853
  486MOL0     H65558   0.648   8.522   5.209 -0.6324  0.1847  1.9308
  486MOL0     H65559   0.640   8.759   5.203 -2.9715 -0.1808  3.2215
  486MOL0     H65560   0.805   8.764   5.274  2.5695 -4.1457  3.8060
  486MOL0     H65561   0.442   8.671   5.365  1.6665 -5.6998 -2.1263
  486MOL0     H65562   0.359   8.551   5.604  0.4300 -2.7512  2.7261
  486MOL0     H65563   0.485   8.551   5.712  0.2004 -1.0261 -0.7346
  486MOL0     H65564   0.285   8.698   5.787  0.5219  0.5258  0.6041
  486MOL0     H65565   0.321   8.804   5.659 -2.8770  1.1597  1.5596
  486MOL0     H65566   0.502   8.721   5.897  2.8777  0.5207 -2.0644
  486MOL0     H65567   0.383   8.838   5.916  2.2019  1.2415  0.4981
  486MOL0     H65568   0.513   8.948   5.690  1.9088  0.2970 -0.6743
  486MOL0     H65569   0.651   8.895   5.804 -0.4569 -0.4179 -0.8395
  486MOL0     H65570   0.703   9.103   6.049  2.5177 -1.6467 -1.8963
  486MOL0     H65571   0.875   9.250   6.130 -0.8284  1.4263  1.1239
  486MOL0     H65572   0.956   9.341   6.008  0.8967 -0.9810  0.9180
  486MOL0     H65573   0.838   9.425   6.103  2.0587  2.2697 -3.6733
  486MOL0     H65574   0.803   9.818   5.810 -0.8220  0.8727 -0.5154
  486MOL0     H65575   0.977   9.977   5.688  1.5356  0.1642 -1.0768
  486MOL0     H65576   1.185   9.846   5.348 -0.4855 -0.4723  1.8260
  486MOL0     H65577   1.050   9.925   5.271 -0.1127 -2.8908  0.9827
  486MOL0     H65578   1.178  10.143   5.310 -2.2698 -0.8523 -1.3679
  486MOL0     H65579   1.314  10.047   5.368 -0.0951 -0.7653 -1.2611
  486MOL0     H65580   1.317  10.121   5.120  0.3664  0.1216  2.3257
  486MOL0     H65581   1.162  10.038   5.102  0.8747 -1.2484 -1.3213
  486MOL0     H65582   1.277   9.810   5.156 -0.5339  1.4988  4.0422
  486MOL0     H65583   1.324   9.888   5.009  3.1604 -1.2560  0.4186
  486MOL0     H65584   1.431   9.871   5.288  1.0034 -2.2924  0.4926
  486MOL0     H65585   1.491  10.000   5.169  0.1855 -0.6897  0.1842
  486MOL0     H65586   1.518   9.700   5.167 -1.4788 -0.2658  0.0087
  486MOL0     H65587   1.568   9.788   5.021 -0.9283  1.1674  0.7835
  486MOL0     H65588   1.682   9.816   5.298 -1.7604 -0.5924  0.3773
  486MOL0     H65589   1.746   9.903   5.153  0.3860  1.6945  2.3305
  486MOL0     H65590   1.891   9.716   5.203  0.2515  1.5236 -0.9644
  486MOL0     H65591   1.815   9.700   5.046  2.4386  0.7353 -0.2110
  486MOL0     H65592   0.997   9.726   5.350  1.4482 -0.8212  0.2806
  486MOL0     H65593   0.859   9.542   5.491  2.5947 -0.9512  3.0951
  486MOL0     H65594   0.614   9.395   5.662  1.7063 -2.7040 -1.7422
  486MOL0     H65595   0.470   9.215   5.709 -0.8186 -0.6368  0.5375
  486MOL0     H65596   1.720   8.398   5.226 -0.9132  0.2774  0.5394
  486MOL0     H65597   1.790   8.288   5.003  0.1644 -0.2625  1.5199
  486MOL0     H65598   1.602   8.163   4.459  0.7802 -3.2837  1.1182
  486MOL0     H65599   1.730   8.014   4.324 -1.0389 -1.9818  3.2842
  486MOL0     H65600   2.022   7.878   4.152  1.1941  1.0055  2.2293
  486MOL0     H65601   1.887   7.878   4.256 -2.4787  0.9466 -0.3075
  486MOL0     H65602   1.761   8.042   4.118  0.5747  0.5700 -0.3197
  486MOL0     H65603   1.818   7.903   4.025  2.2443 -1.3391  0.7333
  486MOL0     H65604   2.000   8.023   3.910  0.2703  2.7079 -1.4201
  486MOL0     H65605   1.981   8.146   4.028  1.2136 -1.8724  0.6610
  486MOL0     H65606   1.801   8.035   3.811  3.0536 -0.1365 -2.6476
  486MOL0     H65607   1.910   8.161   3.776  0.7302  0.9284  1.1149
  486MOL0     H65608   1.556   8.349   3.963  0.4467  0.8089 -1.2161
  486MOL0     H65609   2.096   8.201   4.456  0.7935  0.3242 -0.1438
  486MOL0     H65610   1.946   8.347   4.626  2.7927  1.6291 -2.9784
  487MOL0     O65611   5.235  10.075   1.016  0.3485 -0.4944  0.2237
  487MOL0     C65612   5.230  10.189   0.977  0.5881 -0.0299  0.1105
  487MOL0     O65613   5.205  10.294   1.054  0.9639 -0.0876  0.4684
  487MOL0     C65614   5.170  10.288   1.189  0.1608 -0.3197  0.5344
  487MOL0     C65615   5.073  10.376   1.238  0.4782  0.3327  0.4173
  487MOL0     C65616   5.033  10.391   1.370  0.0920 -0.7064  0.4043
  487MOL0     C65617   5.102  10.309   1.469  0.0909  0.4074 -0.5434
  487MOL0     O65618   5.077  10.305   1.602  0.6182  0.5242 -0.3131
  487MOL0     C65619   4.989  10.202   1.649 -1.2913 -1.0031  0.1330
  487MOL0     C65620   5.058  10.132   1.766 -0.6931  0.5217  0.7955
  487MOL0     C65621   5.183  10.039   1.739  0.5588  0.1198  0.1642
  487MOL0     C65622   5.134   9.908   1.674  0.1538 -1.4105 -0.3500
  487MOL0     C65623   5.256   9.827   1.636 -0.4753  0.8093  0.6178
  487MOL0     C65624   5.339   9.893   1.522 -0.0320  0.0703 -0.0950
  487MOL0     C65625   5.447   9.802   1.468  0.1998  0.0885 -0.9388
  487MOL0     C65626   5.428   9.770   1.321  0.8611  0.6576 -0.1228
  487MOL0     N65627   5.332   9.664   1.295 -0.6580 -0.1941 -1.1128
  487MOL0     C65628   5.198   9.686   1.289 -0.1330  0.3041  0.0921
  487MOL0     C65629   5.140   9.563   1.307  0.0652  0.3774 -0.5893
  487MOL0     C65630   4.996   9.523   1.315  0.4732 -0.4101  0.5357
  487MOL0     C65631   4.925   9.590   1.427  0.5827 -0.1121 -1.1162
  487MOL0     C65632   4.980   9.528   1.559  1.3599 -0.4285  0.9462
  487MOL0     C65633   4.939   9.387   1.568 -0.2319  0.3981  0.2518
  487MOL0     O65634   4.793   9.377   1.552  0.8373  0.1669  0.0247
  487MOL0     C65635   4.730   9.262   1.570  1.0416 -0.2053 -0.1556
  487MOL0     C65636   4.593   9.257   1.588 -0.6689 -0.9028 -1.1589
  487MOL0     C65637   4.531   9.137   1.629  0.3856 -0.4192  0.5153
  487MOL0     C65638   4.385   9.151   1.644 -0.3270  0.2435 -0.1271
  487MOL0     C65639   4.605   9.016   1.642  0.0697 -0.2769 -0.8679
  487MOL0     C65640   4.535   8.895   1.690  0.3852 -0.4418  1.2940
  487MOL0     O65641   4.616   8.814   1.759 -0.0946 -0.1450  0.6574
  487MOL0     C65642   4.545   8.724   1.828  0.9432  0.0059 -0.6834
  487MOL0     C65643   4.493   8.604   1.767 -0.5689 -1.2742 -0.9696
  487MOL0     C65644   4.435   8.502   1.840  0.3436  0.8108 -0.3678
  487MOL0     C65645   4.424   8.509   1.979  0.3494 -0.6730 -1.0586
  487MOL0     O65646   4.364   8.424   2.066 -0.3978 -0.8205 -0.9323
  487MOL0     C65647   4.364   8.290   2.015  0.1845  0.0854  0.2045
  487MOL0     C65648   4.356   8.196   2.135  0.1402 -0.2304 -1.0700
  487MOL0     C65649   4.243   8.206   2.227  0.3527  0.1203 -0.6122
  487MOL0     C65650   4.252   8.121   2.353 -0.1995  0.2364  0.4523
  487MOL0     C65651   4.133   8.135   2.459  0.5261 -0.1734 -0.7302
  487MOL0     C65652   4.168   8.059   2.583 -0.6161 -1.0449 -0.9461
  487MOL0     C65653   4.048   8.045   2.677 -1.2394 -1.0980  0.5778
  487MOL0     C65654   4.071   8.002   2.814  0.3303 -0.3022  0.1460
  487MOL0    Cl65655   3.920   8.026   2.901  0.4613 -0.2765  0.3235
  487MOL0     C65656   4.470   8.624   2.045  0.2832 -0.0618 -0.2073
  487MOL0     C65657   4.518   8.731   1.969  0.0823 -1.0519  0.7258
  487MOL0     O65658   4.423   8.869   1.647 -0.3071 -0.3067  0.5756
  487MOL0     C65659   4.746   9.022   1.626  0.3498 -0.5897 -0.0944
  487MOL0     C65660   4.806   9.141   1.584 -0.8479  0.2430 -0.3392
  487MOL0     N65661   5.248   9.476   1.325  0.3501 -1.0418  0.0271
  487MOL0     N65662   5.358   9.538   1.328  0.3560 -0.8823 -0.4284
  487MOL0     C65663   5.191  10.219   1.418 -0.9949 -0.0242 -0.5648
  487MOL0     C65664   5.230  10.202   1.287 -0.3260 -0.0833 -0.7074
  487MOL0     C65665   5.254  10.213   0.825  0.2510  0.5033 -0.7038
  487MOL0     C65666   5.261  10.341   0.775 -0.2454 -0.8393 -0.2661
  487MOL0     C65667   5.311  10.361   0.639 -0.8169 -0.5789 -0.4786
  487MOL0     C65668   5.312  10.257   0.554 -0.2442 -0.6417 -0.2191
  487MOL0     O65669   5.373  10.259   0.424 -0.4605 -0.2193 -0.1483
  487MOL0     C65670   5.513  10.294   0.427  0.8322  0.7706 -0.3744
  487MOL0     C65671   5.563  10.391   0.316 -0.0282  0.1063  1.3018
  487MOL0     C65672   5.538  10.319   0.186 -0.2607  0.3336  0.6097
  487MOL0     C65673   5.559  10.416   0.065 -0.5666  0.4682 -0.4501
  487MOL0     C65674   5.494  10.550   0.065 -0.6655  0.9889  1.1258
  487MOL0     C65675   5.421  10.652   0.058 -0.1660  0.0007 -1.4130
  487MOL0     C65676   5.298  10.129   0.604  0.2022  0.0711 -0.0367
  487MOL0     C65677   5.285  10.106   0.737  0.4510 -0.0083  0.1785
  487MOL0     H65678   5.035  10.431   1.153  3.3419 -0.3213 -1.4327
  487MOL0     H65679   4.947  10.445   1.409  0.3109 -0.0132 -0.0581
  487MOL0     H65680   4.900  10.244   1.698 -0.7036 -0.6395  0.9119
  487MOL0     H65681   4.962  10.119   1.584 -1.1392 -2.0153  1.3074
  487MOL0     H65682   5.108  10.203   1.833  2.0521  0.7292 -1.2500
  487MOL0     H65683   4.986  10.092   1.837  0.4449  0.7310  2.1113
  487MOL0     H65684   5.250  10.099   1.676  0.4498  1.6345  1.4122
  487MOL0     H65685   5.232  10.012   1.832  1.7697  1.0440 -0.1778
  487MOL0     H65686   5.076   9.859   1.753 -1.2950 -1.3457 -1.3364
  487MOL0     H65687   5.071   9.917   1.585 -2.1291  0.8391  1.3363
  487MOL0     H65688   5.310   9.798   1.726 -1.5914  2.7982  2.0052
  487MOL0     H65689   5.222   9.727   1.605  1.5483  0.0403  0.7440
  487MOL0     H65690   5.280   9.910   1.432 -0.0840 -0.3852 -0.1454
  487MOL0     H65691   5.392   9.984   1.552  1.4130 -0.3533 -1.2770
  487MOL0     H65692   5.549   9.835   1.490  1.3906 -2.2747 -2.5645
  487MOL0     H65693   5.449   9.711   1.529  0.5516  0.6647 -0.0585
  487MOL0     H65694   5.526   9.733   1.289 -0.7922 -2.8990 -1.6565
  487MOL0     H65695   5.405   9.863   1.268  2.3394  4.1462  4.6828
  487MOL0     H65696   5.155   9.782   1.266  1.4804  0.6736 -1.6623
  487MOL0     H65697   4.947   9.549   1.221  0.9102 -1.9469 -0.1428
  487MOL0     H65698   5.009   9.415   1.324 -1.1852 -0.7117 -0.2582
  487MOL0     H65699   4.818   9.569   1.430  0.7105 -0.8928 -1.6654
  487MOL0     H65700   4.943   9.698   1.426 -0.2317  0.1286  1.5395
  487MOL0     H65701   4.925   9.574   1.642 -0.6838 -0.2535 -0.4245
  487MOL0     H65702   5.087   9.533   1.579  1.5976  0.8115 -0.4840
  487MOL0     H65703   4.953   9.349   1.670 -1.6906 -2.5209 -0.5367
  487MOL0     H65704   4.993   9.320   1.500  0.9019  1.3305  0.1912
  487MOL0     H65705   4.550   9.357   1.590  1.2697  0.0226 -2.3141
  487MOL0     H65706   4.333   9.123   1.552 -1.2679 -1.0505  0.7627
  487MOL0     H65707   4.360   9.092   1.733  2.2956  2.7791  2.4940
  487MOL0     H65708   4.366   9.256   1.667 -1.1253  0.0914 -0.0614
  487MOL0     H65709   4.492   8.590   1.660 -2.2948  0.1307 -1.1772
  487MOL0     H65710   4.411   8.408   1.791  2.3338  1.3374 -2.4807
  487MOL0     H65711   4.272   8.279   1.957  1.0989 -0.1584 -1.2455
  487MOL0     H65712   4.452   8.262   1.957  0.8075  0.7018  0.8431
  487MOL0     H65713   4.362   8.093   2.100 -1.8213 -0.7228 -0.0752
  487MOL0     H65714   4.452   8.219   2.184  0.6550 -2.1217 -1.1216
  487MOL0     H65715   4.146   8.182   2.183  0.0391 -0.3840  0.3313
  487MOL0     H65716   4.243   8.310   2.261 -2.0593  0.7084 -2.1221
  487MOL0     H65717   4.252   8.017   2.318  3.3250  0.9967 -2.3270
  487MOL0     H65718   4.345   8.146   2.404  0.3414 -2.4432  0.9509
  487MOL0     H65719   4.040   8.099   2.414  2.2778 -5.1321 -0.9312
  487MOL0     H65720   4.128   8.239   2.493  0.2628 -0.3405 -0.2589
  487MOL0     H65721   4.214   7.961   2.567  0.7503 -0.8850  1.4339
  487MOL0     H65722   4.250   8.117   2.626 -0.8475  0.1861 -2.0780
  487MOL0     H65723   3.989   7.967   2.630  0.8521 -0.4113 -3.6728
  487MOL0     H65724   3.988   8.136   2.689  0.5488  0.1310  0.6600
  487MOL0     H65725   4.145   8.070   2.857  0.7096 -0.9282  0.5108
  487MOL0     H65726   4.108   7.899   2.823 -1.0286 -0.6297  3.5174
  487MOL0     H65727   4.448   8.646   2.149  0.0790 -0.6128 -0.1260
  487MOL0     H65728   4.549   8.823   2.016 -1.2330 -0.9449  1.4432
  487MOL0     H65729   4.796   8.930   1.654 -0.5172 -0.3215  2.6508
  487MOL0     H65730   4.914   9.136   1.577 -0.5090  2.8739  1.4159
  487MOL0     H65731   5.248  10.167   1.495 -2.9967  4.0620  4.2696
  487MOL0     H65732   5.311  10.133   1.264  0.7965  1.5500 -1.9155
  487MOL0     H65733   5.249  10.424   0.844  1.5574 -0.4969 -0.3171
  487MOL0     H65734   5.331  10.465   0.613 -0.5244 -0.5298 -0.0572
  487MOL0     H65735   5.542  10.339   0.522  2.2530 -1.8647  0.5437
  487MOL0     H65736   5.561  10.196   0.418 -2.0610 -0.5790 -3.6863
  487MOL0     H65737   5.668  10.413   0.334  0.0266  1.6549 -0.6095
  487MOL0     H65738   5.504  10.483   0.326 -1.5644 -0.8535  1.3203
  487MOL0     H65739   5.441  10.269   0.190 -0.4556  0.7233  0.8318
  487MOL0     H65740   5.621  10.248   0.172  2.7509  3.0503  3.1101
  487MOL0     H65741   5.511  10.371  -0.022  1.9526  0.8719 -2.1237
  487MOL0     H65742   5.665  10.422   0.041 -0.6074 -1.4109 -1.3054
  487MOL0     H65743   5.362  10.741   0.051  2.8769  2.7695  2.8859
  487MOL0     H65744   5.303  10.044   0.536 -1.4880 -1.6862  1.8888
  487MOL0     H65745   5.275  10.006   0.777 -0.5433  0.1932  0.4697
  488MOL0     O65746   6.602   3.741   0.603  0.1389 -0.5102  0.2826
  488MOL0     C65747   6.711   3.745   0.660  0.2553 -0.5530 -0.2229
  488MOL0     O65748   6.736   3.680   0.772  0.5914 -0.3809 -0.2704
  488MOL0     C65749   6.657   3.593   0.841  1.2787  1.1236 -0.0049
  488MOL0     C65750   6.677   3.585   0.975 -0.5402 -0.2122 -1.6130
  488MOL0     C65751   6.606   3.488   1.062  0.0740 -0.8037  1.9160
  488MOL0     C65752   6.516   3.413   1.002 -0.4233  0.6723 -0.0411
  488MOL0     O65753   6.438   3.345   1.092  0.1612 -0.1570  0.4404
  488MOL0     C65754   6.293   3.333   1.066 -0.9098 -0.2026  0.1649
  488MOL0     C65755   6.256   3.208   0.999 -0.0721  0.7844 -0.7384
  488MOL0     C65756   6.301   3.084   1.081 -0.6823 -0.0034  0.3237
  488MOL0     C65757   6.253   2.950   1.028  0.6380 -0.2368  0.1733
  488MOL0     C65758   6.331   2.830   1.081 -0.0162 -0.0820 -0.8238
  488MOL0     C65759   6.255   2.708   1.026 -0.4168  0.0280 -0.2619
  488MOL0     C65760   6.337   2.571   1.065  0.9074 -0.6565  0.1213
  488MOL0     C65761   6.454   2.538   0.967 -0.4315 -0.5977  0.9611
  488MOL0     N65762   6.399   2.528   0.826  1.4502 -0.8776 -0.2276
  488MOL0     C65763   6.291   2.445   0.802 -0.3528 -0.4606  0.5949
  488MOL0     C65764   6.278   2.461   0.670  0.0117 -0.0782 -0.5230
  488MOL0     C65765   6.189   2.383   0.582  0.1588  0.5111  0.1205
  488MOL0     C65766   6.249   2.259   0.535  0.2454  0.7148 -0.8419
  488MOL0     C65767   6.155   2.179   0.436 -1.3237 -0.9246  0.6529
  488MOL0     C65768   6.206   2.035   0.414 -0.6231 -0.0271 -0.5485
  488MOL0     O65769   6.184   1.946   0.527 -0.0084 -0.1866 -0.3673
  488MOL0     C65770   6.070   1.878   0.563  0.7702 -0.8405  0.2266
  488MOL0     C65771   6.090   1.802   0.676 -0.5239 -0.2046 -0.0254
  488MOL0     C65772   5.992   1.723   0.730  0.7692  0.1109  0.5409
  488MOL0     C65773   6.003   1.666   0.873  0.4047  0.3739 -0.6354
  488MOL0     C65774   5.875   1.705   0.663 -0.4971 -0.0159 -0.7450
  488MOL0     C65775   5.771   1.608   0.707 -0.1163 -0.4930 -0.6849
  488MOL0     O65776   5.804   1.484   0.762  0.2013 -0.1752 -0.4415
  488MOL0     C65777   5.710   1.387   0.790 -0.1686  0.0236  0.8121
  488MOL0     C65778   5.573   1.374   0.753  0.2710 -0.4248  0.8683
  488MOL0     C65779   5.495   1.265   0.794 -0.1843 -0.0500  0.5537
  488MOL0     C65780   5.557   1.166   0.870  0.7317 -1.3472 -0.1237
  488MOL0     O65781   5.464   1.079   0.923  0.5025  0.4074  0.0240
  488MOL0     C65782   5.531   0.965   0.990  0.2467  0.6655  0.5778
  488MOL0     C65783   5.421   0.863   1.016 -0.3453  0.1592 -0.4903
  488MOL0     C65784   5.452   0.764   1.132  0.4847  0.3415  0.3980
  488MOL0     C65785   5.392   0.783   1.271 -0.5286 -0.2549 -0.0916
  488MOL0     C65786   5.372   0.651   1.337  0.8396  0.4233 -0.2123
  488MOL0     C65787   5.320   0.667   1.483  0.0806 -0.5427 -0.0786
  488MOL0     C65788   5.294   0.540   1.558  1.3177  1.2876 -0.3346
  488MOL0     C65789   5.168   0.557   1.642 -0.9621  0.2004 -0.7834
  488MOL0    Cl65790   5.152   0.411   1.735 -0.0154 -0.5325 -0.2667
  488MOL0     C65791   5.693   1.161   0.884 -0.2020 -0.3350 -0.0870
  488MOL0     C65792   5.773   1.271   0.849  0.2480 -1.1368 -0.1360
  488MOL0     O65793   5.653   1.645   0.689 -1.1242 -0.6204  0.3347
  488MOL0     C65794   5.842   1.794   0.561 -0.0201 -0.7026 -0.2270
  488MOL0     C65795   5.935   1.895   0.514 -0.7031 -1.2634  0.6578
  488MOL0     N65796   6.371   2.555   0.629  0.4250 -0.3800  0.2065
  488MOL0     N65797   6.441   2.601   0.721 -0.2422 -0.1113 -0.1559
  488MOL0     C65798   6.490   3.419   0.865 -0.6475  0.0030 -0.4546
  488MOL0     C65799   6.564   3.506   0.783 -0.5742 -0.7761  0.0371
  488MOL0     C65800   6.812   3.835   0.602 -0.5396 -0.2986  1.0413
  488MOL0     C65801   6.942   3.841   0.656  0.0184 -0.2463  0.9081
  488MOL0     C65802   7.030   3.917   0.595 -0.3646 -0.2177  0.1132
  488MOL0     C65803   7.002   4.005   0.482  1.1075 -0.3271 -0.3826
  488MOL0     O65804   7.095   4.082   0.419 -0.9061  0.4432  0.5838
  488MOL0     C65805   7.224   4.096   0.487  0.1773  0.0609 -0.3286
  488MOL0     C65806   7.305   4.208   0.422  0.2934  0.2021  0.2647
  488MOL0     C65807   7.454   4.191   0.447 -0.8006 -0.4526  0.1379
  488MOL0     C65808   7.491   4.203   0.599 -0.5661 -0.0323 -0.1364
  488MOL0     C65809   7.486   4.083   0.674  0.8767  0.0580  0.2969
  488MOL0     C65810   7.469   3.987   0.748 -0.2229 -0.3350  0.2522
  488MOL0     C65811   6.879   3.990   0.423  0.4965  0.3396 -0.4622
  488MOL0     C65812   6.784   3.906   0.483 -0.9996  1.0893  0.2010
  488MOL0     H65813   6.752   3.650   1.019 -1.1034 -1.2036  1.0205
  488MOL0     H65814   6.637   3.486   1.166  0.3194 -0.7778  1.8449
  488MOL0     H65815   6.250   3.336   1.166 -1.0958  0.8230  0.0662
  488MOL0     H65816   6.253   3.417   1.009 -3.6227 -0.5179  1.4549
  488MOL0     H65817   6.148   3.203   0.982 -1.1199 -1.9774  4.6547
  488MOL0     H65818   6.311   3.201   0.905 -0.2518  0.0961 -0.7959
  488MOL0     H65819   6.409   3.089   1.094 -0.9890  1.7482  3.0819
  488MOL0     H65820   6.270   3.103   1.184 -0.0675 -0.9676  0.7005
  488MOL0     H65821   6.149   2.925   1.049  0.4350  1.0372  0.7853
  488MOL0     H65822   6.264   2.953   0.919  2.1997  2.3093  0.3312
  488MOL0     H65823   6.435   2.831   1.049 -0.2989 -0.7198 -1.8233
  488MOL0     H65824   6.328   2.838   1.190 -1.9969 -2.6448 -0.5767
  488MOL0     H65825   6.162   2.700   1.083 -0.1358 -3.5048 -0.0593
  488MOL0     H65826   6.237   2.710   0.918 -1.7091 -2.8995 -0.2126
  488MOL0     H65827   6.363   2.560   1.171 -1.3922  1.9969  1.0718
  488MOL0     H65828   6.255   2.499   1.060 -0.6185  0.4760  4.5225
  488MOL0     H65829   6.512   2.449   0.993  1.8047  0.7480  0.8423
  488MOL0     H65830   6.522   2.623   0.977 -0.3512 -0.4345 -0.7209
  488MOL0     H65831   6.240   2.383   0.874  1.4559 -0.5896  1.8439
  488MOL0     H65832   6.095   2.357   0.631 -0.3045  4.5854  1.8703
  488MOL0     H65833   6.169   2.459   0.506  2.4546  1.3863  0.2928
  488MOL0     H65834   6.271   2.199   0.624  2.0691  1.4916 -0.7389
  488MOL0     H65835   6.342   2.278   0.481  2.2634  0.7860  2.4404
  488MOL0     H65836   6.143   2.228   0.339  1.6973 -3.2694 -1.0737
  488MOL0     H65837   6.056   2.175   0.483 -3.3922 -0.1770 -3.2095
  488MOL0     H65838   6.312   2.031   0.388 -0.0666 -1.2763  1.5905
  488MOL0     H65839   6.160   1.990   0.326 -0.6169  1.5871 -1.4068
  488MOL0     H65840   6.192   1.806   0.714  0.6125  2.3923 -2.8618
  488MOL0     H65841   5.907   1.680   0.924  0.6726  0.4978 -0.1575
  488MOL0     H65842   6.015   1.558   0.874 -2.5408 -0.0969 -3.0339
  488MOL0     H65843   6.090   1.720   0.914  1.0794  0.4555 -2.1205
  488MOL0     H65844   5.522   1.442   0.685 -0.5201 -1.6854  0.1471
  488MOL0     H65845   5.387   1.259   0.784 -0.3101 -2.0202  2.3410
  488MOL0     H65846   5.605   0.912   0.930  2.6367  2.1211  2.0434
  488MOL0     H65847   5.579   1.004   1.080  1.1996  0.2473  0.2612
  488MOL0     H65848   5.333   0.924   1.038  2.8996  4.9060  1.1830
  488MOL0     H65849   5.403   0.813   0.921 -1.6361  3.2330 -1.9917
  488MOL0     H65850   5.559   0.749   1.147  0.2170 -0.8156  1.2819
  488MOL0     H65851   5.419   0.668   1.092  3.8018 -0.9285  0.4060
  488MOL0     H65852   5.458   0.833   1.343 -0.2934 -1.8591  0.8585
  488MOL0     H65853   5.298   0.836   1.254 -1.1476 -1.5309 -0.8342
  488MOL0     H65854   5.458   0.583   1.342  0.7921  0.3122 -0.8154
  488MOL0     H65855   5.299   0.606   1.269  1.3749  1.2439 -1.3627
  488MOL0     H65856   5.391   0.724   1.544 -1.1497 -0.4053  1.2907
  488MOL0     H65857   5.236   0.737   1.474  2.4416  2.5782  0.5401
  488MOL0     H65858   5.383   0.528   1.621  2.0798 -0.2425 -1.6549
  488MOL0     H65859   5.283   0.453   1.494  1.9415 -0.6681  2.0566
  488MOL0     H65860   5.082   0.560   1.574 -0.5130 -1.0034 -1.4454
  488MOL0     H65861   5.171   0.644   1.708 -1.1508  0.0242 -0.5391
  488MOL0     H65862   5.745   1.090   0.948 -0.5257 -0.5394 -0.0428
  488MOL0     H65863   5.874   1.288   0.883 -0.2838 -1.0069  1.4562
  488MOL0     H65864   5.740   1.796   0.524 -0.4235  2.2574  0.8389
  488MOL0     H65865   5.917   1.975   0.443  1.1859  0.1882  1.7353
  488MOL0     H65866   6.428   3.349   0.812  4.7003 -2.4546 -4.4344
  488MOL0     H65867   6.538   3.516   0.678 -1.4180  3.6878  0.4686
  488MOL0     H65868   6.971   3.800   0.752 -1.3058  3.6988  3.2627
  488MOL0     H65869   7.135   3.914   0.621 -0.0665  2.3702 -0.5018
  488MOL0     H65870   7.215   4.133   0.589 -2.2152  0.6112 -0.6799
  488MOL0     H65871   7.278   4.001   0.481 -1.6760 -1.2991  2.4744
  488MOL0     H65872   7.263   4.299   0.465 -2.2352 -1.1439  0.8245
  488MOL0     H65873   7.300   4.213   0.313 -1.8164 -4.4890 -0.0907
  488MOL0     H65874   7.496   4.278   0.396 -4.0907  1.6192  0.6389
  488MOL0     H65875   7.487   4.099   0.397 -1.9085 -0.1733 -1.1714
  488MOL0     H65876   7.415   4.267   0.644 -1.9278 -2.5794  1.4037
  488MOL0     H65877   7.595   4.237   0.603 -1.0618  1.7594 -1.0809
  488MOL0     H65878   7.453   3.904   0.813 -0.2780 -1.0814 -0.6936
  488MOL0     H65879   6.865   4.016   0.319 -2.6970 -1.1917 -0.5433
  488MOL0     H65880   6.693   3.885   0.429 -0.3125 -4.2801  0.5105
  489MOL0     O65881   0.029   2.360   9.151  0.3234 -0.0116 -0.7540
  489MOL0     C65882   0.075   2.261   9.204  0.2053  0.0717 -0.0209
  489MOL0     O65883  -0.014   2.163   9.258 -0.0692  0.5845  0.3351
  489MOL0     C65884  -0.149   2.181   9.276 -0.4121 -0.2132  0.4598
  489MOL0     C65885  -0.235   2.197   9.166  0.1212  0.1702 -0.5424
  489MOL0     C65886  -0.371   2.222   9.180 -0.4521  0.3430  0.1324
  489MOL0     C65887  -0.426   2.223   9.310  0.0149  0.3965  0.1552
  489MOL0     O65888  -0.566   2.227   9.317  0.6987  0.5366  0.4331
  489MOL0     C65889  -0.632   2.245   9.451 -1.5654  0.5227  1.1594
  489MOL0     C65890  -0.775   2.308   9.432  0.0289  0.2243  0.0052
  489MOL0     C65891  -0.847   2.239   9.309 -0.0681 -0.9826  0.1843
  489MOL0     C65892  -0.989   2.302   9.298  0.2589 -0.4343 -0.7905
  489MOL0     C65893  -1.076   2.216   9.201 -0.4744  0.1361  0.1633
  489MOL0     C65894  -1.229   2.237   9.233  0.2710 -0.7050 -0.1777
  489MOL0     C65895  -1.318   2.166   9.136  0.7266 -0.1306 -0.7110
  489MOL0     C65896  -1.443   2.235   9.089  0.9980  0.0861  0.3153
  489MOL0     N65897  -1.566   2.200   9.164 -0.5726  0.2729 -0.1337
  489MOL0     C65898  -1.633   2.086   9.147  0.1048  0.3964  0.0822
  489MOL0     C65899  -1.740   2.081   9.224  0.1405 -0.3201  0.7646
  489MOL0     C65900  -1.845   1.973   9.244  0.2127  0.2600 -0.2256
  489MOL0     C65901  -1.961   1.979   9.156  0.3285 -0.7578  0.1495
  489MOL0     C65902  -2.061   1.862   9.161  0.2795 -0.1520 -0.3983
  489MOL0     C65903  -2.183   1.888   9.073  0.9547  0.1228 -0.4783
  489MOL0     O65904  -2.257   1.772   9.067  0.1261  0.6949 -0.4592
  489MOL0     C65905  -2.372   1.755   8.995  0.4711 -0.1246  0.5898
  489MOL0     C65906  -2.424   1.627   8.981 -0.9319  0.8301 -0.6704
  489MOL0     C65907  -2.539   1.604   8.915  0.1057 -0.5332 -0.4046
  489MOL0     C65908  -2.591   1.461   8.913 -0.0391 -0.1204 -0.1291
  489MOL0     C65909  -2.619   1.712   8.860 -0.3731  0.1214 -0.7423
  489MOL0     C65910  -2.711   1.669   8.759  0.0161  0.3906  1.1294
  489MOL0     O65911  -2.838   1.709   8.778 -0.4309  0.2093  1.0937
  489MOL0     C65912  -2.929   1.678   8.675 -0.5503 -0.3833  0.0579
  489MOL0     C65913  -2.930   1.744   8.550 -0.3676 -0.7581 -1.3757
  489MOL0     C65914  -3.032   1.716   8.454  0.3193 -1.0812 -0.5307
  489MOL0     C65915  -3.124   1.608   8.472 -0.2185  0.5945 -1.8816
  489MOL0     O65916  -3.217   1.574   8.376  0.0890 -0.6328 -0.2564
  489MOL0     C65917  -3.194   1.606   8.241  0.7176 -0.5202 -0.0004
  489MOL0     C65918  -3.075   1.515   8.202 -0.2782 -0.6183  0.5067
  489MOL0     C65919  -2.999   1.555   8.070  0.0862 -0.6079 -0.0237
  489MOL0     C65920  -2.946   1.436   7.991  0.3165 -1.0712  0.0783
  489MOL0     C65921  -2.844   1.355   8.085 -0.0548  0.3677  0.2703
  489MOL0     C65922  -2.724   1.297   8.024 -0.9154  0.7127 -0.8911
  489MOL0     C65923  -2.764   1.174   7.928 -0.3222 -0.6907 -0.3026
  489MOL0     C65924  -2.844   1.219   7.812 -0.0113  1.0359  0.6405
  489MOL0    Cl65925  -2.813   1.110   7.682  0.1375  0.0142  0.0001
  489MOL0     C65926  -3.115   1.543   8.601 -0.8645 -0.2865  0.2122
  489MOL0     C65927  -3.025   1.581   8.701 -0.0853 -0.2155 -0.7690
  489MOL0     O65928  -2.677   1.591   8.674 -0.0018  0.0296  0.9936
  489MOL0     C65929  -2.566   1.839   8.876 -0.6056 -0.1054  0.2172
  489MOL0     C65930  -2.446   1.861   8.940 -1.0951  0.4032  0.1554
  489MOL0     N65931  -1.734   2.208   9.288  0.0286 -0.0976 -0.3842
  489MOL0     N65932  -1.632   2.280   9.250  0.1017 -1.2191  0.6768
  489MOL0     C65933  -0.339   2.207   9.426  0.7760  0.3671 -0.4154
  489MOL0     C65934  -0.197   2.187   9.402 -0.6518  0.0843 -0.1993
  489MOL0     C65935   0.217   2.227   9.193 -0.5814  0.4748  0.2639
  489MOL0     C65936   0.306   2.291   9.089  0.1531  0.8676  0.0569
  489MOL0     C65937   0.436   2.254   9.084 -0.6021 -0.3067  0.3438
  489MOL0     C65938   0.493   2.152   9.175  1.0278 -0.2684  0.8101
  489MOL0     O65939   0.618   2.105   9.173 -0.2718 -0.2091 -0.1499
  489MOL0     C65940   0.735   2.176   9.124 -0.4625  0.6783  0.1532
  489MOL0     C65941   0.859   2.076   9.107  0.6917  0.0998 -0.7684
  489MOL0     C65942   0.846   1.990   8.985  0.0778 -0.2425 -0.0156
  489MOL0     C65943   0.719   1.896   8.990  0.5655 -0.4690 -0.2764
  489MOL0     C65944   0.664   1.890   8.857 -0.3349  0.7094 -0.3099
  489MOL0     C65945   0.625   1.897   8.748 -0.5717 -0.0041  1.2887
  489MOL0     C65946   0.404   2.084   9.258  0.6231  0.3578 -0.0059
  489MOL0     C65947   0.276   2.130   9.275  0.7226 -0.5114 -1.0964
  489MOL0     H65948  -0.191   2.196   9.067  1.3475 -2.6443 -0.0814
  489MOL0     H65949  -0.432   2.242   9.092 -1.8323 -0.6281  0.8236
  489MOL0     H65950  -0.641   2.148   9.499 -0.1544  0.3330  1.0712
  489MOL0     H65951  -0.573   2.307   9.519 -1.5650  3.1471 -1.0190
  489MOL0     H65952  -0.841   2.279   9.515 -2.7033  0.7676 -1.8614
  489MOL0     H65953  -0.767   2.416   9.413  0.5763  0.1603 -0.1399
  489MOL0     H65954  -0.784   2.252   9.220  0.2323 -2.8825  0.0594
  489MOL0     H65955  -0.845   2.131   9.327  2.2846 -1.3168 -1.5852
  489MOL0     H65956  -1.032   2.306   9.398  1.7377 -2.0937 -0.0356
  489MOL0     H65957  -0.977   2.407   9.270 -0.0516  0.6399  2.6910
  489MOL0     H65958  -1.050   2.253   9.101  0.9762  1.2493  0.8997
  489MOL0     H65959  -1.048   2.111   9.215 -1.0297  0.1171  1.3120
  489MOL0     H65960  -1.237   2.199   9.336 -1.4211 -2.3825 -0.8718
  489MOL0     H65961  -1.250   2.344   9.234 -2.9064 -1.0209  4.9842
  489MOL0     H65962  -1.256   2.158   9.047 -0.1598  2.9685 -1.7219
  489MOL0     H65963  -1.343   2.064   9.166 -1.3482 -0.0745 -2.0460
  489MOL0     H65964  -1.454   2.194   8.989  1.7418  0.0202  0.2562
  489MOL0     H65965  -1.436   2.345   9.089 -0.5159  0.2025 -0.0785
  489MOL0     H65966  -1.617   2.006   9.075 -4.2007 -1.1173  0.4964
  489MOL0     H65967  -1.799   1.874   9.230 -2.1288 -0.7212 -1.5234
  489MOL0     H65968  -1.875   1.976   9.349  0.7626 -0.1305 -0.0498
  489MOL0     H65969  -1.925   1.997   9.054 -0.9627 -0.4205 -0.2742
  489MOL0     H65970  -2.011   2.075   9.173  0.9810 -0.7100  2.0093
  489MOL0     H65971  -2.099   1.868   9.263 -1.3755  0.2974 -1.0116
  489MOL0     H65972  -2.014   1.768   9.129 -1.4691 -1.5017  0.8191
  489MOL0     H65973  -2.143   1.923   8.977  0.5590  2.5651  0.1636
  489MOL0     H65974  -2.240   1.969   9.119 -0.7114 -0.1922 -1.9097
  489MOL0     H65975  -2.374   1.548   9.037  1.0056  2.5175  0.1120
  489MOL0     H65976  -2.700   1.459   8.914 -0.0436 -2.2038  1.3749
  489MOL0     H65977  -2.559   1.411   8.821 -1.3850 -1.9301  0.3331
  489MOL0     H65978  -2.562   1.405   9.002 -2.9745 -1.9072 -0.1744
  489MOL0     H65979  -2.860   1.823   8.527 -0.4448 -0.3300 -0.2204
  489MOL0     H65980  -3.027   1.766   8.357 -0.5274 -4.5580 -2.5367
  489MOL0     H65981  -3.286   1.591   8.183  0.0488  0.1813  0.8412
  489MOL0     H65982  -3.178   1.712   8.219 -2.2542  0.0217  0.0001
  489MOL0     H65983  -3.004   1.494   8.282  0.3554 -2.6836 -0.4998
  489MOL0     H65984  -3.122   1.415   8.200  1.0910 -1.2721 -0.7920
  489MOL0     H65985  -2.924   1.625   8.107 -0.4715  0.3089 -0.5802
  489MOL0     H65986  -3.057   1.605   7.991  1.4565  0.3643 -0.4518
  489MOL0     H65987  -3.028   1.373   7.956 -0.1614  0.7647 -2.2914
  489MOL0     H65988  -2.909   1.482   7.899  0.5489  0.7950  1.0548
  489MOL0     H65989  -2.898   1.278   8.140  3.6196 -0.8298  2.5472
  489MOL0     H65990  -2.807   1.425   8.161 -0.8325  1.2379 -0.1373
  489MOL0     H65991  -2.669   1.370   7.963 -2.8228  1.5894 -1.6575
  489MOL0     H65992  -2.658   1.253   8.100 -1.4418  1.7380  0.1797
  489MOL0     H65993  -2.813   1.087   7.973 -1.3276  0.2228  0.4223
  489MOL0     H65994  -2.672   1.130   7.889  1.4433  0.1752  2.5253
  489MOL0     H65995  -2.835   1.319   7.768 -1.8183  1.7058  1.6400
  489MOL0     H65996  -2.947   1.228   7.849 -0.5974  1.3375 -0.9579
  489MOL0     H65997  -3.191   1.471   8.629 -0.6839 -0.7181 -0.3780
  489MOL0     H65998  -3.046   1.553   8.804  1.5418 -1.4548 -0.7324
  489MOL0     H65999  -2.609   1.927   8.829 -0.9490 -0.3705  0.0254
  489MOL0     H66000  -2.420   1.966   8.952 -2.2156  0.4710  2.7920
  489MOL0     H66001  -0.386   2.200   9.524 -2.5565  0.9575 -1.8208
  489MOL0     H66002  -0.113   2.170   9.468  1.6668 -0.3218 -3.0632
  489MOL0     H66003   0.276   2.364   9.015 -0.0302 -1.8342 -2.7790
  489MOL0     H66004   0.495   2.313   9.015  0.5693 -0.7466  0.9510
  489MOL0     H66005   0.716   2.227   9.029 -2.4800 -1.4855 -0.6973
  489MOL0     H66006   0.769   2.264   9.179 -2.3190  3.5269 -2.9078
  489MOL0     H66007   0.849   2.013   9.196 -1.0168 -0.0939 -1.0531
  489MOL0     H66008   0.952   2.132   9.110  0.6309  0.2396  2.9710
  489MOL0     H66009   0.929   1.919   8.981  0.1365 -0.2510  1.1831
  489MOL0     H66010   0.843   2.061   8.902 -1.0523 -0.9269 -0.5865
  489MOL0     H66011   0.641   1.930   9.058  0.0533  1.6324 -1.8227
  489MOL0     H66012   0.752   1.794   9.011 -0.4454 -0.9916 -1.1898
  489MOL0     H66013   0.590   1.898   8.647 -1.0465 -4.1276  1.2200
  489MOL0     H66014   0.435   2.002   9.323 -0.9503 -1.3848 -1.3585
  489MOL0     H66015   0.228   2.110   9.370  2.8247  2.4265  0.7583
  490MOL0     O66016   8.270   3.480   2.179  0.0722 -0.5656 -0.3499
  490MOL0     C66017   8.353   3.505   2.268 -0.6148  0.4426  0.1953
  490MOL0     O66018   8.478   3.451   2.275  0.0576  0.2766  1.0973
  490MOL0     C66019   8.508   3.348   2.191 -0.3844 -1.0256  0.2275
  490MOL0     C66020   8.496   3.360   2.053  0.1124  0.4821 -0.2077
  490MOL0     C66021   8.529   3.263   1.964 -0.3337  0.1165 -0.6645
  490MOL0     C66022   8.594   3.147   2.011  0.1925 -0.3118  0.2916
  490MOL0     O66023   8.636   3.047   1.928 -0.5976  0.5261 -0.1827
  490MOL0     C66024   8.650   3.047   1.786  0.0337 -1.0688 -0.0735
  490MOL0     C66025   8.684   2.913   1.733  0.2203  0.1978  0.8893
  490MOL0     C66026   8.831   2.917   1.701 -0.7540 -0.0655 -0.5061
  490MOL0     C66027   8.886   2.777   1.657  0.0956  0.3266 -0.7055
  490MOL0     C66028   9.042   2.783   1.627  0.3183 -0.6054  0.0933
  490MOL0     C66029   9.132   2.833   1.752  0.2711  0.0041  0.3932
  490MOL0     C66030   9.277   2.849   1.698 -0.0688 -0.6138  0.3085
  490MOL0     C66031   9.287   2.988   1.634  0.2315  0.2892 -0.5256
  490MOL0     N66032   9.205   3.099   1.680  0.2067 -0.6327  0.1267
  490MOL0     C66033   9.214   3.160   1.803 -1.0101  0.2830 -0.6036
  490MOL0     C66034   9.109   3.241   1.813 -0.0618 -0.0855 -0.1450
  490MOL0     C66035   9.057   3.335   1.916  0.1599  0.3331  0.0070
  490MOL0     C66036   8.990   3.271   2.031  0.0273 -0.1249 -0.2111
  490MOL0     C66037   9.064   3.140   2.080 -0.2952  0.0696 -0.4590
  490MOL0     C66038   8.981   3.051   2.170 -0.7996 -0.2066 -0.1900
  490MOL0     O66039   8.930   3.128   2.273  0.4125 -0.2724  1.1208
  490MOL0     C66040   9.004   3.144   2.385  0.0444 -0.5307  0.1305
  490MOL0     C66041   9.116   3.066   2.430  0.4792  0.1136  0.0789
  490MOL0     C66042   9.185   3.096   2.548  0.2916 -0.3711 -0.4003
  490MOL0     C66043   9.293   3.008   2.591  0.2805  0.6454  0.2609
  490MOL0     C66044   9.144   3.215   2.630  0.0735  1.1999 -0.4149
  490MOL0     C66045   9.222   3.272   2.737  0.0784  0.1785  1.4232
  490MOL0     O66046   9.156   3.371   2.805  0.0685  0.3810 -0.1845
  490MOL0     C66047   9.203   3.457   2.898  0.4803 -0.4994 -0.0104
  490MOL0     C66048   9.137   3.581   2.904  0.0765 -0.5134  0.2126
  490MOL0     C66049   9.178   3.678   2.998  0.0114  0.2601 -0.3645
  490MOL0     C66050   9.293   3.649   3.078 -0.2942  0.0662  0.1944
  490MOL0     O66051   9.318   3.740   3.178 -0.1426  0.2518 -0.4413
  490MOL0     C66052   9.376   3.700   3.303 -0.1501 -0.1074  0.1726
  490MOL0     C66053   9.322   3.768   3.420  0.3811 -0.1072  0.1629
  490MOL0     C66054   9.289   3.687   3.548 -0.9440 -0.4431  0.2740
  490MOL0     C66055   9.410   3.610   3.593  0.6709  1.2519 -0.6712
  490MOL0     C66056   9.361   3.485   3.676 -0.1462  0.1123 -0.4762
  490MOL0     C66057   9.330   3.370   3.561 -0.6336 -0.2036 -0.5169
  490MOL0     C66058   9.293   3.235   3.637 -0.3443  0.1896  0.1039
  490MOL0     C66059   9.183   3.234   3.745 -0.2251  1.2766  0.9377
  490MOL0    Cl66060   9.029   3.285   3.669 -0.2330  0.2562 -0.6010
  490MOL0     C66061   9.359   3.528   3.076  0.1934 -0.0711  0.7575
  490MOL0     C66062   9.316   3.432   2.980 -0.8531  0.9010  0.4514
  490MOL0     O66063   9.334   3.230   2.754  0.2351 -0.1508 -0.4248
  490MOL0     C66064   9.021   3.264   2.588 -0.7330 -0.6920  0.1208
  490MOL0     C66065   8.953   3.238   2.468 -0.7747  0.1072 -0.5361
  490MOL0     N66066   9.041   3.241   1.692 -0.4077 -0.0360 -0.4845
  490MOL0     N66067   9.096   3.153   1.618 -0.5810  0.4539  0.0089
  490MOL0     C66068   8.623   3.133   2.146 -0.2962 -0.8226 -0.6756
  490MOL0     C66069   8.574   3.231   2.241  0.3485 -0.0558 -0.4299
  490MOL0     C66070   8.307   3.606   2.379 -0.1926  0.4118  0.3068
  490MOL0     C66071   8.205   3.708   2.350  0.6128  0.8309  0.1890
  490MOL0     C66072   8.183   3.806   2.455  0.3960  1.3952 -0.3398
  490MOL0     C66073   8.264   3.813   2.560 -0.3255 -0.0798  0.2372
  490MOL0     O66074   8.242   3.912   2.647  0.2996  0.0239 -0.3440
  490MOL0     C66075   8.369   3.989   2.670  0.6497  0.0710 -0.8746
  490MOL0     C66076   8.334   4.130   2.696  0.9327 -0.2530 -1.0711
  490MOL0     C66077   8.451   4.223   2.727  1.2477  0.0148 -0.2491
  490MOL0     C66078   8.406   4.334   2.823 -0.7447 -0.3159 -0.0700
  490MOL0     C66079   8.292   4.408   2.782 -0.3434 -0.1521  0.0065
  490MOL0     C66080   8.189   4.452   2.740  0.6946 -0.1035 -0.2154
  490MOL0     C66081   8.362   3.717   2.583  0.0631 -0.1786 -0.5372
  490MOL0     C66082   8.387   3.612   2.493  0.2467  0.0881  0.3097
  490MOL0     H66083   8.453   3.450   2.009  1.6113  1.6731  0.6689
  490MOL0     H66084   8.503   3.280   1.860 -1.6812  1.7651 -0.0955
  490MOL0     H66085   8.555   3.082   1.745 -0.2996  0.4891  1.8946
  490MOL0     H66086   8.719   3.124   1.751 -1.4880 -0.8463 -2.8729
  490MOL0     H66087   8.684   2.834   1.809  1.3365  1.7159  2.5536
  490MOL0     H66088   8.622   2.884   1.648  1.6435 -0.0519 -0.1000
  490MOL0     H66089   8.853   2.993   1.625  3.2206  1.2310  1.6568
  490MOL0     H66090   8.894   2.948   1.785  0.6435  0.3008 -1.6457
  490MOL0     H66091   8.868   2.697   1.729  0.1092  0.1476 -0.9009
  490MOL0     H66092   8.837   2.741   1.566  0.8456 -0.3239 -0.8645
  490MOL0     H66093   9.072   2.684   1.592  0.9297 -0.6582  0.7560
  490MOL0     H66094   9.070   2.856   1.551 -5.8357  0.7001 -1.4919
  490MOL0     H66095   9.091   2.917   1.807  1.5406  0.2921  0.9368
  490MOL0     H66096   9.142   2.752   1.825  2.6382 -0.1941 -0.0758
  490MOL0     H66097   9.348   2.851   1.781 -1.4759  0.4987  1.5429
  490MOL0     H66098   9.307   2.769   1.630  1.6736  1.1459 -1.1104
  490MOL0     H66099   9.252   2.959   1.534 -0.4983 -0.0723 -0.1707
  490MOL0     H66100   9.391   3.022   1.631 -1.0239  5.0072  0.2393
  490MOL0     H66101   9.283   3.118   1.875 -2.7124 -3.0404 -0.7052
  490MOL0     H66102   9.139   3.400   1.948 -1.4526  2.8496 -0.6848
  490MOL0     H66103   8.984   3.403   1.872 -1.8530 -0.8550  1.3415
  490MOL0     H66104   8.885   3.244   2.016  0.0880 -1.7768  1.7649
  490MOL0     H66105   8.981   3.344   2.113 -1.2219  1.4679 -1.6937
  490MOL0     H66106   9.158   3.172   2.125 -0.1903 -1.2390  0.3108
  490MOL0     H66107   9.077   3.075   1.994 -1.2903 -0.7839  0.0148
  490MOL0     H66108   9.032   2.959   2.199  0.3098 -0.1128 -1.6943
  490MOL0     H66109   8.901   3.014   2.104  1.8417 -0.5287 -3.5112
  490MOL0     H66110   9.146   2.977   2.375  2.7139  2.3579 -2.6725
  490MOL0     H66111   9.300   2.929   2.516 -1.2066 -0.1381  0.9068
  490MOL0     H66112   9.383   3.068   2.575 -1.0262  2.2510 -1.4884
  490MOL0     H66113   9.267   2.972   2.691 -0.0916  4.1640  1.5578
  490MOL0     H66114   9.042   3.597   2.854  0.0033 -2.3085 -0.2901
  490MOL0     H66115   9.133   3.777   3.005  2.9050  1.6012  1.8448
  490MOL0     H66116   9.375   3.594   3.329  0.5459  0.0229  0.7667
  490MOL0     H66117   9.479   3.735   3.311 -0.0486 -0.1017 -1.0014
  490MOL0     H66118   9.390   3.846   3.455 -0.7460 -0.3958  3.2692
  490MOL0     H66119   9.232   3.824   3.393  0.9725  0.5227 -0.5482
  490MOL0     H66120   9.208   3.614   3.542  0.8824 -3.1214  4.1387
  490MOL0     H66121   9.267   3.761   3.625  2.6715  1.7279 -0.5695
  490MOL0     H66122   9.465   3.588   3.501 -0.3725  1.7099 -1.4222
  490MOL0     H66123   9.477   3.661   3.664  0.0356 -0.3003  1.1426
  490MOL0     H66124   9.269   3.507   3.730  0.1766  2.0671 -0.6705
  490MOL0     H66125   9.438   3.448   3.743 -1.1718  0.8775  1.1864
  490MOL0     H66126   9.244   3.397   3.500 -1.8404 -3.5678 -0.5365
  490MOL0     H66127   9.407   3.348   3.487 -1.9426 -1.1469 -1.6433
  490MOL0     H66128   9.378   3.201   3.696 -0.1185  0.5693  0.0057
  490MOL0     H66129   9.269   3.163   3.559  0.0533  0.8747 -0.6705
  490MOL0     H66130   9.216   3.288   3.834  2.8239 -0.4336  0.9872
  490MOL0     H66131   9.160   3.133   3.780 -0.3843  1.8989  2.7633
  490MOL0     H66132   9.440   3.510   3.145 -0.6653 -0.6231  1.6491
  490MOL0     H66133   9.372   3.339   2.983  0.6261  1.7206  4.8438
  490MOL0     H66134   8.971   3.341   2.647 -1.7141  1.8614 -3.6987
  490MOL0     H66135   8.873   3.302   2.430  0.0946  1.8128  0.3917
  490MOL0     H66136   8.691   3.054   2.177 -1.0963 -1.3747 -0.3051
  490MOL0     H66137   8.601   3.223   2.346  1.2176  2.8638 -0.3487
  490MOL0     H66138   8.145   3.711   2.260  0.8467 -1.5011 -0.1048
  490MOL0     H66139   8.106   3.882   2.455 -1.3635 -0.3026 -0.5924
  490MOL0     H66140   8.423   3.941   2.752 -1.7659 -2.0512 -0.4032
  490MOL0     H66141   8.434   3.990   2.582  0.6587 -0.4718 -0.8781
  490MOL0     H66142   8.260   4.122   2.777  1.3477  1.2288 -0.5215
  490MOL0     H66143   8.277   4.171   2.612  3.3592  1.4721 -1.9942
  490MOL0     H66144   8.492   4.272   2.639  3.2276  3.1361  2.1817
  490MOL0     H66145   8.529   4.171   2.784 -0.4612 -1.1603  1.1475
  490MOL0     H66146   8.489   4.405   2.828  1.3584 -2.5744 -0.4653
  490MOL0     H66147   8.394   4.294   2.925  1.6429  2.2783  1.3569
  490MOL0     H66148   8.095   4.495   2.708 -1.3938 -3.0561  1.4933
  490MOL0     H66149   8.432   3.719   2.666  0.4007 -4.6280 -0.4763
  490MOL0     H66150   8.467   3.544   2.523 -0.3134  0.5289  3.0566
  491MOL0     O66151   0.559   4.107   6.278  0.3686 -0.0143 -0.2949
  491MOL0     C66152   0.559   4.221   6.232 -0.1720 -0.4237 -0.4532
  491MOL0     O66153   0.667   4.300   6.195  0.0811 -0.1953  0.7709
  491MOL0     C66154   0.796   4.274   6.220 -0.2850 -0.3618  0.2124
  491MOL0     C66155   0.883   4.385   6.224 -0.8327 -0.7109  0.6577
  491MOL0     C66156   1.017   4.380   6.252  0.0278 -0.1749 -0.6884
  491MOL0     C66157   1.075   4.249   6.260 -0.3724 -0.2222  0.0029
  491MOL0     O66158   1.207   4.225   6.278  0.5487  0.5691  0.2627
  491MOL0     C66159   1.296   4.334   6.314 -0.3134  0.9603 -0.1563
  491MOL0     C66160   1.453   4.279   6.308  0.8214  0.0983  0.4013
  491MOL0     C66161   1.500   4.169   6.405  0.8213  0.2486  0.4201
  491MOL0     C66162   1.649   4.100   6.378  0.3332  0.0803 -0.2233
  491MOL0     C66163   1.701   4.032   6.503  0.0160 -0.1947 -0.4553
  491MOL0     C66164   1.808   3.929   6.512 -0.1508 -0.3057  0.4369
  491MOL0     C66165   1.954   3.984   6.488 -0.1550 -0.0549 -0.6701
  491MOL0     C66166   2.047   3.858   6.461 -0.1288  0.1671  0.3639
  491MOL0     N66167   2.177   3.871   6.392  0.0868 -0.3628  0.5122
  491MOL0     C66168   2.207   3.936   6.270 -0.1271 -0.0204 -0.4104
  491MOL0     C66169   2.339   3.906   6.245  0.6051 -0.8422  0.7301
  491MOL0     C66170   2.426   3.949   6.127  0.3047  0.1764  0.4374
  491MOL0     C66171   2.352   4.001   6.002  0.0604  0.2093 -0.5471
  491MOL0     C66172   2.298   3.878   5.912 -0.2138 -0.9694  0.3912
  491MOL0     C66173   2.214   3.938   5.790  0.0240  0.2709 -0.8713
  491MOL0     O66174   2.151   3.822   5.727 -0.0575  0.7201 -0.8082
  491MOL0     C66175   2.014   3.833   5.712 -0.3099  0.3582  0.5731
  491MOL0     C66176   1.923   3.780   5.793 -0.3026 -0.6167  0.4373
  491MOL0     C66177   1.779   3.794   5.776 -0.0690  0.1762 -0.9433
  491MOL0     C66178   1.683   3.763   5.886 -0.4710  0.1871 -0.5832
  491MOL0     C66179   1.737   3.835   5.651  0.3271 -0.4138 -0.4105
  491MOL0     C66180   1.595   3.819   5.591 -0.4575  0.8803  0.1905
  491MOL0     O66181   1.596   3.854   5.464  0.0722 -0.3691 -0.2296
  491MOL0     C66182   1.508   3.799   5.378  0.5368  0.5275 -0.1101
  491MOL0     C66183   1.459   3.670   5.394  0.1689  0.1504 -0.6704
  491MOL0     C66184   1.373   3.616   5.290 -0.8512 -0.6433 -0.7770
  491MOL0     C66185   1.353   3.690   5.172  0.6614 -0.4187 -0.4036
  491MOL0     O66186   1.268   3.651   5.070  0.4822  0.4817 -0.6011
  491MOL0     C66187   1.184   3.534   5.091  0.1367  1.4781 -1.0306
  491MOL0     C66188   1.105   3.494   4.962  0.3416  1.3251  0.4354
  491MOL0     C66189   1.115   3.351   4.921  0.3568  0.2563  0.2548
  491MOL0     C66190   0.978   3.307   4.844 -0.2565  0.6230 -1.1407
  491MOL0     C66191   0.965   3.150   4.823  0.1047 -0.4374 -0.3867
  491MOL0     C66192   0.820   3.086   4.829 -0.3786  0.1326  1.1104
  491MOL0     C66193   0.740   3.127   4.699  0.8996  0.4051  0.6780
  491MOL0     C66194   0.602   3.067   4.704 -0.6252 -0.4748  0.4716
  491MOL0    Cl66195   0.502   3.156   4.825  0.0298  0.3276  0.2983
  491MOL0     C66196   1.412   3.815   5.168  0.5107  0.3305 -1.2060
  491MOL0     C66197   1.493   3.869   5.262  0.0521  0.7040 -0.2165
  491MOL0     O66198   1.504   3.769   5.660  0.6112  0.1462 -0.0287
  491MOL0     C66199   1.835   3.890   5.564 -0.3819 -1.5114 -0.5778
  491MOL0     C66200   1.970   3.884   5.592 -1.0028  0.5413 -0.1856
  491MOL0     N66201   2.398   3.834   6.350  0.2638  0.8709  0.3957
  491MOL0     N66202   2.298   3.810   6.430  0.0738  0.4453  0.7220
  491MOL0     C66203   0.991   4.132   6.236  0.7258  0.5626 -0.2655
  491MOL0     C66204   0.859   4.150   6.216  1.1509  0.5867  0.0978
  491MOL0     C66205   0.425   4.252   6.185  0.8192 -0.1323  0.0112
  491MOL0     C66206   0.307   4.183   6.230  0.1057 -0.0195  0.5630
  491MOL0     C66207   0.177   4.203   6.173 -1.3554  0.7866  0.2711
  491MOL0     C66208   0.164   4.286   6.063 -0.1886  0.7787  0.3155
  491MOL0     O66209   0.049   4.315   6.000 -0.1062  0.5931 -0.2361
  491MOL0     C66210  -0.071   4.254   6.044 -0.3356 -0.4206 -0.1835
  491MOL0     C66211  -0.193   4.311   5.987 -0.2011 -0.3317  1.8954
  491MOL0     C66212  -0.206   4.464   6.010 -0.4974  0.3703 -0.4323
  491MOL0     C66213  -0.334   4.512   5.961 -0.1683  0.6727 -0.3432
  491MOL0     C66214  -0.458   4.457   6.024 -0.7462  1.1145 -0.1395
  491MOL0     C66215  -0.559   4.417   6.075 -0.2757 -0.2820 -0.4109
  491MOL0     C66216   0.281   4.343   6.015  0.0769  1.1482  0.2158
  491MOL0     C66217   0.410   4.332   6.072 -0.6383 -1.1673 -0.5601
  491MOL0     H66218   0.821   4.473   6.214  1.3767  0.7257 -1.7481
  491MOL0     H66219   1.074   4.469   6.277 -0.9355  0.8752 -2.0791
  491MOL0     H66220   1.289   4.413   6.239  0.0678  1.6881  0.5595
  491MOL0     H66221   1.274   4.369   6.415  2.7473  0.6438  0.7179
  491MOL0     H66222   1.472   4.241   6.207 -1.3687 -1.5609  0.5572
  491MOL0     H66223   1.512   4.371   6.307 -0.9217  1.2768  0.8703
  491MOL0     H66224   1.496   4.210   6.507 -0.0756  3.0257 -0.6645
  491MOL0     H66225   1.416   4.099   6.400 -1.2696  2.4262  2.3335
  491MOL0     H66226   1.635   4.025   6.299 -0.5557 -1.1416  1.0353
  491MOL0     H66227   1.719   4.179   6.350  1.0246 -0.5784 -0.3720
  491MOL0     H66228   1.745   4.111   6.564 -0.2674 -1.1819  1.0755
  491MOL0     H66229   1.614   3.998   6.561 -0.4858 -0.1140 -1.1451
  491MOL0     H66230   1.810   3.899   6.617 -0.0441  2.3851  1.2872
  491MOL0     H66231   1.775   3.847   6.447 -2.7710  0.7345  0.3222
  491MOL0     H66232   1.956   4.036   6.391 -2.9005 -4.0675 -3.2080
  491MOL0     H66233   1.987   4.045   6.572 -1.1844 -1.3739  0.7456
  491MOL0     H66234   1.985   3.787   6.407  1.6803  0.2129 -1.9095
  491MOL0     H66235   2.066   3.812   6.559 -1.1773 -0.0044  0.4964
  491MOL0     H66236   2.131   3.987   6.211 -1.6820 -1.3690  0.3557
  491MOL0     H66237   2.486   4.035   6.159 -0.7269  1.1394 -0.1162
  491MOL0     H66238   2.506   3.878   6.104  3.4547  4.5738 -4.7602
  491MOL0     H66239   2.423   4.057   5.941  0.8225 -0.2431 -0.0961
  491MOL0     H66240   2.263   4.049   6.044 -1.7305 -3.3299  0.1092
  491MOL0     H66241   2.240   3.802   5.965 -0.6600 -0.7067  0.2794
  491MOL0     H66242   2.383   3.820   5.874 -0.1665 -1.4639  1.2252
  491MOL0     H66243   2.285   3.991   5.725  1.6002  0.0721  0.6248
  491MOL0     H66244   2.141   4.010   5.828  1.0273 -0.0223  1.7694
  491MOL0     H66245   1.961   3.728   5.881  2.2030  2.2509  1.2243
  491MOL0     H66246   1.609   3.839   5.908 -1.7320 -1.5422  1.6041
  491MOL0     H66247   1.628   3.669   5.874 -1.2208  0.3067  1.5179
  491MOL0     H66248   1.745   3.752   5.976  0.2432  0.7848 -0.9948
  491MOL0     H66249   1.463   3.612   5.486  0.1875  2.1597  0.6672
  491MOL0     H66250   1.331   3.516   5.299 -1.0565 -0.5335 -0.5233
  491MOL0     H66251   1.231   3.439   5.119 -1.5973  0.6600 -0.8145
  491MOL0     H66252   1.116   3.560   5.173  0.8531  0.7333 -0.1840
  491MOL0     H66253   1.000   3.519   4.981 -0.0704 -1.3110  2.2265
  491MOL0     H66254   1.133   3.565   4.884  0.2916 -1.9798 -2.8778
  491MOL0     H66255   1.127   3.285   5.008  1.8734 -1.0063 -0.8786
  491MOL0     H66256   1.199   3.338   4.853 -0.5313  0.6992 -0.9695
  491MOL0     H66257   0.896   3.348   4.904 -1.5274 -1.1831 -1.5647
  491MOL0     H66258   0.969   3.360   4.749 -2.4820 -0.1847 -1.4484
  491MOL0     H66259   1.033   3.092   4.886 -0.2895  0.3797  0.8429
  491MOL0     H66260   1.008   3.144   4.723  1.5102 -0.0496  0.1742
  491MOL0     H66261   0.832   2.978   4.814 -1.4473  0.1606 -0.1909
  491MOL0     H66262   0.768   3.100   4.924  0.1478  0.2496  1.3851
  491MOL0     H66263   0.797   3.107   4.608  0.0019  1.2481 -0.1058
  491MOL0     H66264   0.719   3.235   4.696 -0.3808  0.1612  0.0074
  491MOL0     H66265   0.616   2.962   4.733  0.9504 -0.2084  0.7976
  491MOL0     H66266   0.574   3.074   4.599  1.2398  2.0785  0.0445
  491MOL0     H66267   1.406   3.871   5.074 -2.2014 -0.3981 -1.5539
  491MOL0     H66268   1.548   3.961   5.249 -3.1622  2.6902 -0.8103
  491MOL0     H66269   1.810   3.933   5.467 -2.2668 -0.3462  0.3808
  491MOL0     H66270   2.045   3.926   5.525  1.5477 -1.5449  1.1369
  491MOL0     H66271   1.025   4.029   6.233 -0.4233  0.1911 -1.9596
  491MOL0     H66272   0.796   4.062   6.205  0.0034  1.6861 -3.5187
  491MOL0     H66273   0.323   4.133   6.326  0.9071 -2.2561 -0.6636
  491MOL0     H66274   0.088   4.155   6.211 -1.2837 -0.2256 -0.7834
  491MOL0     H66275  -0.068   4.149   6.015 -1.8226 -0.2945 -0.8558
  491MOL0     H66276  -0.088   4.246   6.152  1.6939 -5.5489  0.0302
  491MOL0     H66277  -0.282   4.257   6.021  0.1949 -1.0361  1.8262
  491MOL0     H66278  -0.189   4.297   5.878  1.1283  0.6358  1.7931
  491MOL0     H66279  -0.126   4.511   5.952  1.0341 -1.2949  0.2430
  491MOL0     H66280  -0.187   4.485   6.115 -0.2466  0.4997 -0.5029
  491MOL0     H66281  -0.342   4.508   5.852  0.4166 -3.8424 -0.4063
  491MOL0     H66282  -0.327   4.616   5.994  1.2510  0.1908  1.0078
  491MOL0     H66283  -0.649   4.394   6.128  0.5000  2.2876  2.3285
  491MOL0     H66284   0.263   4.411   5.932 -4.6470 -0.8478 -0.6968
  491MOL0     H66285   0.500   4.367   6.024 -0.3268 -3.0979 -1.4650
  492MOL0     O66286   2.938   9.459   0.525  0.0469  0.0575  0.0662
  492MOL0     C66287   2.973   9.469   0.640  0.1803 -1.7390 -1.1125
  492MOL0     O66288   2.907   9.543   0.740  0.5106  0.3483  0.4536
  492MOL0     C66289   2.794   9.611   0.702 -0.1667  0.1432 -0.3465
  492MOL0     C66290   2.701   9.565   0.611 -0.0498 -1.5227 -0.3215
  492MOL0     C66291   2.578   9.645   0.585 -0.7633  0.7036 -0.2360
  492MOL0     C66292   2.564   9.774   0.638 -0.7070 -0.1447  0.8420
  492MOL0     O66293   2.457   9.849   0.594 -0.6630  0.6589  0.4097
  492MOL0     C66294   2.490   9.926   0.477 -0.1578  0.2867  0.2341
  492MOL0     C66295   2.382  10.030   0.454  0.2089  0.8490  0.0926
  492MOL0     C66296   2.407  10.112   0.326 -0.0763  0.0605  0.6552
  492MOL0     C66297   2.350  10.247   0.345  0.0435  0.4473  0.1069
  492MOL0     C66298   2.391  10.355   0.239  0.2529 -0.0199  0.7107
  492MOL0     C66299   2.350  10.323   0.092  0.6696  0.4024 -0.3296
  492MOL0     C66300   2.388  10.431   0.002 -0.9598  0.2024 -0.6391
  492MOL0     C66301   2.316  10.414  -0.145 -0.0504  0.0955  0.2998
  492MOL0     N66302   2.376  10.302  -0.210 -0.1342  0.2795 -0.0986
  492MOL0     C66303   2.358  10.170  -0.175  1.0410 -0.2357  0.0929
  492MOL0     C66304   2.435  10.103  -0.257  0.6266  0.8656 -0.5102
  492MOL0     C66305   2.435   9.955  -0.267 -1.4688  0.8675  0.3367
  492MOL0     C66306   2.470   9.912  -0.416  0.0656 -0.6603  0.3189
  492MOL0     C66307   2.412   9.772  -0.440  0.2281  0.5076  0.5768
  492MOL0     C66308   2.478   9.656  -0.355  1.2109 -0.1190  0.2228
  492MOL0     O66309   2.569   9.577  -0.428 -0.4195  0.1879  0.6657
  492MOL0     C66310   2.706   9.599  -0.434 -0.5300 -0.9550  0.3656
  492MOL0     C66311   2.785   9.504  -0.504  1.0161 -0.7945  0.3423
  492MOL0     C66312   2.915   9.518  -0.524 -0.6611  0.8932  0.9995
  492MOL0     C66313   2.984   9.427  -0.629 -1.2103  0.1198 -0.0493
  492MOL0     C66314   2.992   9.621  -0.475  0.2989 -0.2648 -0.0589
  492MOL0     C66315   3.139   9.631  -0.491 -0.3191 -0.2677  0.1311
  492MOL0     O66316   3.176   9.758  -0.500  0.7581  0.4456  0.6057
  492MOL0     C66317   3.303   9.768  -0.556 -0.2741  0.2229 -0.1952
  492MOL0     C66318   3.423   9.727  -0.491 -0.7468 -0.1254 -0.9974
  492MOL0     C66319   3.544   9.747  -0.554 -0.3137  0.2216 -1.0001
  492MOL0     C66320   3.553   9.788  -0.684  0.0667 -0.8708  0.1940
  492MOL0     O66321   3.683   9.802  -0.734  0.4340  0.1275  0.3399
  492MOL0     C66322   3.722   9.746  -0.860 -0.1308  0.3839  0.0724
  492MOL0     C66323   3.776   9.599  -0.853 -0.6702 -0.5245 -0.3114
  492MOL0     C66324   3.666   9.488  -0.820  0.0735 -0.6142 -0.5153
  492MOL0     C66325   3.710   9.346  -0.850  0.5798 -1.1425  0.0900
  492MOL0     C66326   3.832   9.301  -0.766  0.4500 -0.2652 -0.6172
  492MOL0     C66327   3.849   9.146  -0.748  0.3159 -0.2595  0.3599
  492MOL0     C66328   3.995   9.107  -0.709  0.9858 -0.3676 -0.7235
  492MOL0     C66329   3.995   8.962  -0.659  0.7269  0.3634  1.6781
  492MOL0    Cl66330   4.007   8.972  -0.485  0.0400  0.1202  0.5586
  492MOL0     C66331   3.437   9.839  -0.752 -0.6055  0.0395 -0.5702
  492MOL0     C66332   3.320   9.821  -0.684 -0.4753 -1.1466 -0.4345
  492MOL0     O66333   3.206   9.533  -0.462 -0.2243  0.0091  0.8665
  492MOL0     C66334   2.919   9.712  -0.390 -1.0444  0.5412  0.3720
  492MOL0     C66335   2.773   9.707  -0.366 -1.1206 -0.5125 -0.5805
  492MOL0     N66336   2.509  10.179  -0.340  0.5459 -0.0067  0.0739
  492MOL0     N66337   2.477  10.297  -0.310 -0.4227 -0.6799 -1.3773
  492MOL0     C66338   2.667   9.823   0.722  0.0616 -0.4078  0.8373
  492MOL0     C66339   2.770   9.738   0.762  0.7140  0.6440  0.2904
  492MOL0     C66340   3.094   9.393   0.678 -0.0049 -0.5058  0.2011
  492MOL0     C66341   3.179   9.332   0.585 -0.6738 -0.4801 -0.3023
  492MOL0     C66342   3.292   9.263   0.618 -0.8421  0.3411  0.2552
  492MOL0     C66343   3.336   9.263   0.755 -0.5693 -0.0141 -1.1527
  492MOL0     O66344   3.457   9.209   0.796  0.4368 -0.2579 -0.0145
  492MOL0     C66345   3.522   9.121   0.710  0.4688  0.5612 -0.0617
  492MOL0     C66346   3.468   8.981   0.722  0.3552  0.2083  0.3735
  492MOL0     C66347   3.514   8.908   0.850 -0.5570  0.0145 -0.6136
  492MOL0     C66348   3.454   8.763   0.852  0.3289  0.9501  0.4388
  492MOL0     C66349   3.501   8.675   0.966 -0.7304 -0.0849 -0.9793
  492MOL0     C66350   3.536   8.597   1.059  0.3206  0.0819 -0.6126
  492MOL0     C66351   3.245   9.312   0.857 -0.3620  0.4283 -0.6461
  492MOL0     C66352   3.135   9.383   0.812  0.0081 -0.1431 -0.3339
  492MOL0     H66353   2.720   9.479   0.547  1.1124 -0.3467 -1.6295
  492MOL0     H66354   2.512   9.626   0.502 -1.1788 -0.0249  0.2545
  492MOL0     H66355   2.586   9.975   0.494  1.8112 -3.5977  1.5132
  492MOL0     H66356   2.506   9.876   0.381 -1.1002  1.5696 -0.6304
  492MOL0     H66357   2.280   9.992   0.449 -0.6082  2.8338  0.6112
  492MOL0     H66358   2.383  10.098   0.540 -3.8863  0.7818  0.3817
  492MOL0     H66359   2.513  10.119   0.300 -0.2005 -2.0338 -0.6756
  492MOL0     H66360   2.368  10.059   0.238  0.6139 -0.6052  0.7392
  492MOL0     H66361   2.242  10.252   0.366  0.0778  2.5539 -0.0062
  492MOL0     H66362   2.403  10.298   0.425 -0.0725  0.6315  0.0675
  492MOL0     H66363   2.351  10.451   0.274  1.8773  0.7890  0.4155
  492MOL0     H66364   2.500  10.351   0.248  0.3723  1.5924  0.1654
  492MOL0     H66365   2.383  10.221   0.070 -1.0929 -0.4566  0.8258
  492MOL0     H66366   2.241  10.324   0.086  0.5537  0.4131  1.4212
  492MOL0     H66367   2.360  10.531   0.036  0.5281  0.0371  1.2538
  492MOL0     H66368   2.498  10.425   0.001 -0.9703 -1.6697  1.3246
  492MOL0     H66369   2.323  10.506  -0.204 -0.7717 -1.6579 -2.7360
  492MOL0     H66370   2.210  10.395  -0.127 -0.1352  1.4608  1.4479
  492MOL0     H66371   2.286  10.129  -0.105 -2.4310  1.2778 -2.2853
  492MOL0     H66372   2.521   9.916  -0.212 -1.0008  0.2246 -0.8115
  492MOL0     H66373   2.341   9.910  -0.234 -1.5235  1.9298  1.7577
  492MOL0     H66374   2.572   9.922  -0.455  0.0656  0.3585  0.5466
  492MOL0     H66375   2.414   9.988  -0.472 -1.0302  0.4166  2.7284
  492MOL0     H66376   2.424   9.743  -0.545  3.2246  1.2512  0.6164
  492MOL0     H66377   2.304   9.777  -0.421  0.1042  2.5308 -0.4822
  492MOL0     H66378   2.390   9.593  -0.340 -2.9255  4.1213 -3.4881
  492MOL0     H66379   2.508   9.679  -0.253  0.7148 -4.1502  1.4755
  492MOL0     H66380   2.724   9.423  -0.543  0.6985 -0.5535  0.3428
  492MOL0     H66381   3.024   9.482  -0.714 -2.0629  4.1484  1.8912
  492MOL0     H66382   3.067   9.379  -0.577 -0.8416 -1.2011 -1.7863
  492MOL0     H66383   2.909   9.356  -0.665 -0.4334  0.1873 -1.8793
  492MOL0     H66384   3.422   9.694  -0.388  0.7769  0.7145 -0.6814
  492MOL0     H66385   3.634   9.732  -0.497 -0.7124 -2.8170 -1.0015
  492MOL0     H66386   3.635   9.748  -0.925  0.0024 -3.2381 -0.4348
  492MOL0     H66387   3.799   9.805  -0.911  1.1196 -0.0633  1.3516
  492MOL0     H66388   3.819   9.579  -0.951 -1.5407  1.5446 -1.1876
  492MOL0     H66389   3.851   9.595  -0.773 -0.4499  1.2941 -0.3728
  492MOL0     H66390   3.572   9.516  -0.868  1.3096  2.5165 -1.4350
  492MOL0     H66391   3.657   9.507  -0.713  1.0823  0.7560 -0.6429
  492MOL0     H66392   3.633   9.269  -0.836  0.2421 -0.6467  1.0641
  492MOL0     H66393   3.730   9.327  -0.956 -0.0814  0.8038 -0.4210
  492MOL0     H66394   3.819   9.348  -0.668  0.2083  2.3867 -1.8445
  492MOL0     H66395   3.925   9.344  -0.804  1.9148  0.0645  2.8997
  492MOL0     H66396   3.781   9.116  -0.668  0.1086  2.2518  1.2345
  492MOL0     H66397   3.823   9.085  -0.834 -0.3707 -2.2838  1.9374
  492MOL0     H66398   4.042   9.177  -0.639  2.2256  0.2143 -2.0741
  492MOL0     H66399   4.056   9.110  -0.800  0.6218 -2.8171 -1.1138
  492MOL0     H66400   4.079   8.902  -0.695  1.2856 -1.1014  5.0383
  492MOL0     H66401   3.909   8.899  -0.685  1.5100 -0.3261  0.6798
  492MOL0     H66402   3.435   9.891  -0.847 -3.5060  1.9042  0.3755
  492MOL0     H66403   3.229   9.857  -0.732  2.1822  2.7226 -3.1699
  492MOL0     H66404   2.981   9.793  -0.353  1.0897 -0.2439 -1.2371
  492MOL0     H66405   2.730   9.784  -0.303  1.6411  0.0846  0.7054
  492MOL0     H66406   2.658   9.926   0.758  0.1041  1.9364 -4.8507
  492MOL0     H66407   2.845   9.785   0.824  0.0757  3.1864 -0.7617
  492MOL0     H66408   3.150   9.329   0.480  3.1471  0.2583 -1.5350
  492MOL0     H66409   3.348   9.219   0.536 -1.1249 -1.7719  1.1431
  492MOL0     H66410   3.521   9.154   0.605  3.3101  0.2226 -0.2659
  492MOL0     H66411   3.626   9.123   0.744  0.6727  1.0977 -0.6882
  492MOL0     H66412   3.511   8.928   0.636 -0.8012  0.5411 -0.4421
  492MOL0     H66413   3.363   8.966   0.696  0.3671  1.3060 -0.3896
  492MOL0     H66414   3.479   8.959   0.940 -0.2210  1.0552 -1.0585
  492MOL0     H66415   3.622   8.896   0.847 -0.7009 -1.3606 -0.9899
  492MOL0     H66416   3.476   8.711   0.759 -3.5373 -2.2143  0.9863
  492MOL0     H66417   3.345   8.768   0.859  0.3817  0.0111  4.1159
  492MOL0     H66418   3.547   8.531   1.142  1.8834  0.4517 -0.4964
  492MOL0     H66419   3.249   9.309   0.965 -2.0670  3.7325 -0.3827
  492MOL0     H66420   3.059   9.412   0.883 -1.1067 -0.6514 -1.2884
  493MOL0     O66421  10.949   7.555   3.028  0.2497 -0.3569  0.2473
  493MOL0     C66422  10.901   7.656   2.986 -0.3500 -0.3831  0.4085
  493MOL0     O66423  10.962   7.776   2.989  0.1620  0.4650  0.2958
  493MOL0     C66424  11.100   7.775   3.014  0.4506  0.6270  0.3393
  493MOL0     C66425  11.152   7.880   3.087  0.1630  0.1042 -1.4903
  493MOL0     C66426  11.291   7.907   3.102 -0.4033  0.1599  0.2566
  493MOL0     C66427  11.388   7.844   3.018  1.3982 -0.3594  0.2237
  493MOL0     O66428  11.511   7.888   3.008 -0.1686 -0.5273  0.1302
  493MOL0     C66429  11.545   8.022   3.068 -0.2786  0.4043 -0.1422
  493MOL0     C66430  11.682   8.047   3.018 -0.3823  0.6562 -0.9608
  493MOL0     C66431  11.719   8.199   3.007 -1.3510 -0.2695 -0.0255
  493MOL0     C66432  11.709   8.259   2.870  0.3450  0.5469 -0.6863
  493MOL0     C66433  11.776   8.391   2.847  0.5933 -0.8755 -1.0348
  493MOL0     C66434  11.680   8.509   2.860  0.1789 -0.9937 -0.7337
  493MOL0     C66435  11.566   8.504   2.774  0.8773  0.3320  0.4854
  493MOL0     C66436  11.501   8.643   2.760 -1.6993 -0.7125 -0.2239
  493MOL0     N66437  11.364   8.621   2.714  0.8274  0.0508  0.4811
  493MOL0     C66438  11.333   8.555   2.597  0.1505  0.4576  0.9398
  493MOL0     C66439  11.204   8.533   2.602 -0.6158 -0.3853 -0.1062
  493MOL0     C66440  11.132   8.447   2.503  0.2190  0.3748 -0.7710
  493MOL0     C66441  11.023   8.524   2.425  1.4145 -0.4911 -0.1563
  493MOL0     C66442  10.938   8.432   2.330  0.4385 -0.1822 -0.1939
  493MOL0     C66443  10.800   8.490   2.308  0.8907 -1.4185  0.1369
  493MOL0     O66444  10.808   8.627   2.263  0.2300  0.1376 -0.3554
  493MOL0     C66445  10.841   8.633   2.129 -0.1795  0.2053 -0.5611
  493MOL0     C66446  10.967   8.610   2.064 -0.1700  0.3512 -0.2206
  493MOL0     C66447  10.988   8.627   1.921  0.5849  0.2495  0.7650
  493MOL0     C66448  11.136   8.622   1.868  0.3747  0.0144  0.1826
  493MOL0     C66449  10.866   8.656   1.847 -0.1155  0.6846 -0.3054
  493MOL0     C66450  10.860   8.685   1.703 -0.2678 -0.3981  0.7614
  493MOL0     O66451  10.731   8.699   1.649  0.1148  0.6408  0.3124
  493MOL0     C66452  10.720   8.705   1.511 -0.6111  0.3891  0.2794
  493MOL0     C66453  10.737   8.830   1.451  0.3466 -0.8395  0.1218
  493MOL0     C66454  10.734   8.833   1.311  0.8094 -0.2458  0.0885
  493MOL0     C66455  10.681   8.728   1.240  1.0284  0.5374 -1.0800
  493MOL0     O66456  10.653   8.713   1.104 -0.6766 -0.5732  0.6396
  493MOL0     C66457  10.606   8.835   1.054  0.5233 -0.5375  0.6698
  493MOL0     C66458  10.577   8.837   0.907 -0.3371  0.0839  0.0798
  493MOL0     C66459  10.708   8.857   0.818  0.5816  0.1661  0.1660
  493MOL0     C66460  10.691   8.936   0.692  0.1924 -1.5489  0.7478
  493MOL0     C66461  10.629   8.853   0.582  0.9091  0.3269 -0.1738
  493MOL0     C66462  10.647   8.913   0.444 -0.2076  0.0337  0.3749
  493MOL0     C66463  10.557   9.041   0.404 -0.3138  1.0082  1.0582
  493MOL0     C66464  10.412   9.001   0.392  0.0896 -0.0967 -0.3471
  493MOL0    Cl66465  10.385   8.930   0.226 -0.0789  0.1151  0.5580
  493MOL0     C66466  10.659   8.608   1.308  0.3828 -0.7237  0.5812
  493MOL0     C66467  10.680   8.594   1.439 -0.6055  0.2993  0.2440
  493MOL0     O66468  10.970   8.704   1.643 -0.1594  0.0073  0.8008
  493MOL0     C66469  10.742   8.658   1.918 -0.7134  0.3245 -0.2745
  493MOL0     C66470  10.723   8.648   2.049 -0.3987  0.1348 -0.0377
  493MOL0     N66471  11.146   8.598   2.709 -0.5359  0.4355  0.6012
  493MOL0     N66472  11.247   8.653   2.781  0.1549 -0.3784  0.1366
  493MOL0     C66473  11.336   7.725   2.953  0.3843 -0.1819 -0.2266
  493MOL0     C66474  11.196   7.684   2.963 -1.0321 -0.1845  0.0998
  493MOL0     C66475  10.761   7.646   2.941  0.2736  0.1657  0.7031
  493MOL0     C66476  10.691   7.759   2.897 -0.6010  0.0035  0.3189
  493MOL0     C66477  10.556   7.742   2.864 -0.2090 -0.1033 -0.2450
  493MOL0     C66478  10.502   7.610   2.861  0.2841 -0.4814  0.0893
  493MOL0     O66479  10.378   7.591   2.801 -0.2563  0.5863 -0.2762
  493MOL0     C66480  10.267   7.529   2.867 -0.5821  0.1795 -0.2583
  493MOL0     C66481  10.211   7.415   2.764 -0.7997 -0.4897 -0.3522
  493MOL0     C66482  10.074   7.375   2.800  0.5279  0.5872 -0.3645
  493MOL0     C66483  10.030   7.287   2.683  0.0062  0.2129  0.4142
  493MOL0     C66484   9.899   7.218   2.703 -0.4807  0.8179 -0.0726
  493MOL0     C66485   9.805   7.152   2.712  1.4241  0.3804  0.5808
  493MOL0     C66486  10.574   7.499   2.895  0.3387 -0.1978  0.9478
  493MOL0     C66487  10.698   7.512   2.948 -0.7416 -0.1025  0.1782
  493MOL0     H66488  11.083   7.945   3.140  1.4534  1.5541 -1.5168
  493MOL0     H66489  11.311   8.002   3.151  0.2971  0.3869 -0.4430
  493MOL0     H66490  11.478   8.094   3.020  0.3984  3.2603  2.7648
  493MOL0     H66491  11.540   8.044   3.175  0.4194  1.7777 -0.3698
  493MOL0     H66492  11.742   8.012   3.103 -1.6191  1.0245  0.0895
  493MOL0     H66493  11.700   7.982   2.931  0.1779 -0.1752 -0.2403
  493MOL0     H66494  11.663   8.266   3.072  0.7146 -1.1164  2.8416
  493MOL0     H66495  11.825   8.214   3.032 -1.1483 -0.1801 -0.8940
  493MOL0     H66496  11.749   8.178   2.809 -3.7812 -1.0121 -1.6709
  493MOL0     H66497  11.604   8.266   2.837 -0.1756  3.1591  1.1956
  493MOL0     H66498  11.862   8.405   2.914 -1.0307  0.0472  0.9605
  493MOL0     H66499  11.803   8.396   2.741 -1.5389 -0.6607 -1.5999
  493MOL0     H66500  11.648   8.502   2.965  0.2244  0.1448 -0.6318
  493MOL0     H66501  11.730   8.606   2.852 -1.1351 -0.1597  0.5679
  493MOL0     H66502  11.587   8.456   2.678  1.1384  2.2648 -0.4846
  493MOL0     H66503  11.489   8.450   2.828  3.6444 -2.1834  2.2363
  493MOL0     H66504  11.550   8.704   2.684 -0.9803 -2.4432 -1.2144
  493MOL0     H66505  11.510   8.690   2.859 -1.4118 -0.8285 -0.1917
  493MOL0     H66506  11.402   8.502   2.533  0.1889 -2.1365  2.9720
  493MOL0     H66507  11.208   8.409   2.434  1.7488  0.4525  0.8231
  493MOL0     H66508  11.096   8.353   2.545  1.5103  0.9850  1.8836
  493MOL0     H66509  11.078   8.603   2.371  1.2643  0.5144  1.1108
  493MOL0     H66510  10.954   8.557   2.503  1.4993 -2.0816  0.6296
  493MOL0     H66511  10.910   8.344   2.390 -0.1455  2.2402  3.4123
  493MOL0     H66512  10.998   8.406   2.242  1.6063 -0.5666  0.6835
  493MOL0     H66513  10.741   8.494   2.400  0.9649  0.6259  0.1499
  493MOL0     H66514  10.746   8.439   2.227  3.1256  1.0852 -3.2193
  493MOL0     H66515  11.044   8.587   2.137 -1.2162 -4.3703 -0.2577
  493MOL0     H66516  11.170   8.726   1.876  0.8444 -0.2300  1.6421
  493MOL0     H66517  11.193   8.556   1.934 -0.1943  0.3824  1.0651
  493MOL0     H66518  11.140   8.582   1.767 -0.3222 -1.8620  0.8622
  493MOL0     H66519  10.772   8.916   1.507 -0.1810 -0.3428 -0.3003
  493MOL0     H66520  10.749   8.931   1.269  1.0886 -0.4270 -0.2395
  493MOL0     H66521  10.518   8.858   1.115 -0.2941 -1.4290 -0.1395
  493MOL0     H66522  10.672   8.919   1.079 -0.4153 -0.6942  4.2631
  493MOL0     H66523  10.527   8.748   0.870  0.8993 -0.3174 -0.7037
  493MOL0     H66524  10.508   8.920   0.887 -0.4945 -0.2207 -0.6505
  493MOL0     H66525  10.741   8.758   0.783  0.4059 -0.0619  0.6420
  493MOL0     H66526  10.790   8.900   0.877 -2.7472  0.8684  4.7686
  493MOL0     H66527  10.625   9.021   0.711  2.3607  0.5275 -0.4402
  493MOL0     H66528  10.791   8.972   0.666  1.6195 -4.0040  2.4203
  493MOL0     H66529  10.526   8.827   0.609  0.4744  2.7256  0.7471
  493MOL0     H66530  10.675   8.754   0.576  0.1001 -0.5863  4.6276
  493MOL0     H66531  10.753   8.936   0.434  0.4299 -1.8759  2.1666
  493MOL0     H66532  10.620   8.835   0.373 -3.8783  1.2190  0.2095
  493MOL0     H66533  10.598   9.082   0.311 -0.1493  0.9916  1.1227
  493MOL0     H66534  10.567   9.126   0.472 -0.0854  0.1479  2.1278
  493MOL0     H66535  10.344   9.083   0.418 -2.4505 -2.4592  1.0581
  493MOL0     H66536  10.385   8.922   0.464 -1.1055 -1.0289 -1.7544
  493MOL0     H66537  10.613   8.529   1.250  0.7890 -0.1130 -0.6004
  493MOL0     H66538  10.673   8.497   1.488  2.1432 -0.2088 -0.2018
  493MOL0     H66539  10.644   8.666   1.872 -0.7701 -1.8252 -0.6679
  493MOL0     H66540  10.624   8.649   2.092 -0.9912  3.1218 -1.2183
  493MOL0     H66541  11.412   7.660   2.912  1.7103  0.5481  0.9502
  493MOL0     H66542  11.165   7.588   2.922  0.7358 -3.1146  4.7771
  493MOL0     H66543  10.745   7.852   2.882  1.6234 -1.2069  0.4373
  493MOL0     H66544  10.490   7.820   2.828 -0.3334  0.3689  0.9829
  493MOL0     H66545  10.295   7.477   2.959 -0.2197 -0.2806 -0.6233
  493MOL0     H66546  10.184   7.598   2.884  1.1592  1.7370  2.6207
  493MOL0     H66547  10.280   7.330   2.757  1.2976  1.1932 -1.4994
  493MOL0     H66548  10.213   7.462   2.665  1.6848  0.6344  0.1640
  493MOL0     H66549   9.998   7.453   2.786 -1.9933 -2.1626 -3.6950
  493MOL0     H66550  10.059   7.317   2.891  0.4783 -0.1937 -0.8667
  493MOL0     H66551  10.103   7.210   2.659 -0.0000  0.5060 -0.5635
  493MOL0     H66552  10.011   7.357   2.601 -3.2483  0.4169  1.2121
  493MOL0     H66553   9.712   7.104   2.731  1.2190  0.4243 -0.2559
  493MOL0     H66554  10.536   7.399   2.877 -0.7429  0.4664 -0.7025
  493MOL0     H66555  10.756   7.430   2.990 -0.6488  0.0334  0.3175
  494MOL0     O66556   8.769   1.501   3.676 -0.1368 -0.3190  0.2580
  494MOL0     C66557   8.879   1.542   3.718 -0.6431 -0.1661  0.1399
  494MOL0     O66558   9.004   1.510   3.669 -0.9218 -0.0002 -0.5299
  494MOL0     C66559   9.027   1.445   3.549  0.4449  0.0904  0.3188
  494MOL0     C66560   8.955   1.468   3.429  1.1084 -0.3004  0.5761
  494MOL0     C66561   9.005   1.430   3.305  1.0917  0.8541  0.2093
  494MOL0     C66562   9.128   1.358   3.291  0.9044  0.1658 -0.0976
  494MOL0     O66563   9.189   1.299   3.189  0.3102  0.7338  0.3186
  494MOL0     C66564   9.144   1.330   3.055  0.5480  0.4728  0.6368
  494MOL0     C66565   9.201   1.226   2.958 -0.0550  0.0629 -0.3594
  494MOL0     C66566   9.355   1.247   2.936 -0.0733 -0.9003 -0.0485
  494MOL0     C66567   9.439   1.122   2.930 -0.3168  0.5103  0.8275
  494MOL0     C66568   9.581   1.137   2.869  1.3182 -0.5400  0.0708
  494MOL0     C66569   9.649   1.002   2.861 -0.8587 -0.5543  0.1953
  494MOL0     C66570   9.794   1.018   2.799  1.3426 -0.3142 -0.2939
  494MOL0     C66571   9.804   0.911   2.692 -0.0934 -0.1509 -0.1444
  494MOL0     N66572   9.924   0.929   2.608 -0.7128 -0.0556 -0.0287
  494MOL0     C66573  10.048   0.886   2.652  0.3138 -0.3737  0.4533
  494MOL0     C66574  10.137   0.970   2.578  0.5577 -0.3320 -0.7852
  494MOL0     C66575  10.287   0.952   2.575  0.2878 -0.0977 -0.4496
  494MOL0     C66576  10.336   0.809   2.532 -0.0712  0.2588 -0.1900
  494MOL0     C66577  10.472   0.812   2.459 -0.3327  0.9794 -0.3014
  494MOL0     C66578  10.576   0.830   2.561 -1.2433  0.3294 -0.9393
  494MOL0     O66579  10.608   0.962   2.620 -0.3927 -0.7774  0.2363
  494MOL0     C66580  10.700   0.955   2.715 -0.3950 -0.4966 -0.1106
  494MOL0     C66581  10.674   1.041   2.823 -0.1037  0.5114  0.4820
  494MOL0     C66582  10.759   1.049   2.940  0.6817  0.4053 -0.5340
  494MOL0     C66583  10.708   1.139   3.048 -0.4225  0.6424  0.2639
  494MOL0     C66584  10.887   0.986   2.932  0.4782  0.4458  0.2262
  494MOL0     C66585  10.993   1.009   3.027  0.9239  0.7794 -0.3278
  494MOL0     O66586  11.116   0.963   2.998  0.6724  0.8868  0.2127
  494MOL0     C66587  11.221   0.995   3.073 -0.1928  0.2707  0.0275
  494MOL0     C66588  11.272   0.907   3.176 -0.2255  0.9061 -0.1357
  494MOL0     C66589  11.371   0.953   3.266 -0.5024  0.4445  0.3933
  494MOL0     C66590  11.432   1.074   3.249  0.1319 -0.1438  0.1411
  494MOL0     O66591  11.522   1.112   3.345 -0.5108 -0.0699 -0.9201
  494MOL0     C66592  11.514   1.248   3.394 -0.4335 -0.3586  0.9660
  494MOL0     C66593  11.637   1.259   3.488  0.2233  1.2783  0.2800
  494MOL0     C66594  11.625   1.403   3.552  0.0648  0.4545 -0.6424
  494MOL0     C66595  11.729   1.431   3.660 -0.3452  1.3383 -0.0386
  494MOL0     C66596  11.753   1.575   3.681 -0.4418 -0.6516  0.5629
  494MOL0     C66597  11.856   1.587   3.797  0.2815 -0.5222  0.9335
  494MOL0     C66598  11.914   1.729   3.808  0.5834 -0.7193  1.4871
  494MOL0     C66599  12.042   1.733   3.885 -0.9060  0.8917 -0.9814
  494MOL0    Cl66600  12.130   1.875   3.841 -0.2259  0.1400  0.3076
  494MOL0     C66601  11.389   1.168   3.151  1.0971 -0.5638 -0.3403
  494MOL0     C66602  11.279   1.126   3.074 -1.3378  0.5175  0.3490
  494MOL0     O66603  10.968   1.077   3.126 -0.4293  0.0476  0.8285
  494MOL0     C66604  10.905   0.896   2.818 -0.4985 -1.2714  0.0829
  494MOL0     C66605  10.813   0.888   2.713 -0.4857  0.0984 -0.3115
  494MOL0     N66606  10.061   1.049   2.488 -0.0631  0.4591 -0.8985
  494MOL0     N66607   9.940   1.037   2.529  0.2166  0.3459  0.6744
  494MOL0     C66608   9.187   1.328   3.414  0.3173 -1.4577 -0.3615
  494MOL0     C66609   9.144   1.367   3.543  0.2539 -0.2558  0.5339
  494MOL0     C66610   8.873   1.644   3.824 -0.5520  1.0740  0.7159
  494MOL0     C66611   8.754   1.678   3.888  0.1755 -1.1040  0.7991
  494MOL0     C66612   8.755   1.785   3.977  0.2005 -0.4684 -0.2559
  494MOL0     C66613   8.877   1.846   4.010 -0.2228 -0.2218 -0.3711
  494MOL0     O66614   8.884   1.961   4.093 -0.1196 -0.0733 -0.6593
  494MOL0     C66615   8.784   2.066   4.063  0.6419 -0.1680  0.1138
  494MOL0     C66616   8.792   2.128   3.922  0.1180 -0.0729 -0.7582
  494MOL0     C66617   8.913   2.225   3.919  0.6368 -0.0560  0.2618
  494MOL0     C66618   8.899   2.297   3.781  0.9715  0.3476  0.5528
  494MOL0     C66619   8.985   2.416   3.762 -0.9729  0.7495 -0.3810
  494MOL0     C66620   9.064   2.510   3.774 -0.6753 -0.5318 -0.0207
  494MOL0     C66621   8.992   1.815   3.951 -0.0951 -0.2186 -0.5576
  494MOL0     C66622   8.995   1.712   3.855  0.2698 -0.3353  0.2878
  494MOL0     H66623   8.868   1.533   3.432  1.4909  0.5732 -3.0395
  494MOL0     H66624   8.946   1.450   3.216  0.3908 -0.8512  0.2465
  494MOL0     H66625   9.036   1.313   3.061  1.0465 -3.8187  0.3961
  494MOL0     H66626   9.169   1.430   3.019  1.0970 -0.0052 -0.3529
  494MOL0     H66627   9.185   1.125   2.997  2.4733 -2.0035 -4.0481
  494MOL0     H66628   9.143   1.243   2.867  1.2901 -2.4973 -1.8061
  494MOL0     H66629   9.353   1.298   2.839 -1.1983  0.0527  0.4503
  494MOL0     H66630   9.402   1.317   3.006 -0.4084  0.3914 -1.0692
  494MOL0     H66631   9.446   1.067   3.024 -0.3039 -2.5696 -0.8530
  494MOL0     H66632   9.395   1.061   2.849  2.8979 -0.0045 -0.6878
  494MOL0     H66633   9.572   1.189   2.773  2.8109 -3.2401 -1.6347
  494MOL0     H66634   9.639   1.189   2.946 -1.5671 -2.3537  3.8288
  494MOL0     H66635   9.651   0.966   2.964  1.7849  1.6228  1.0180
  494MOL0     H66636   9.583   0.936   2.804 -2.2582  1.3407 -0.5021
  494MOL0     H66637   9.788   1.121   2.762  0.2466 -0.3767 -0.3058
  494MOL0     H66638   9.869   1.013   2.879 -0.6764  0.4210  1.7614
  494MOL0     H66639   9.716   0.928   2.629 -0.5177  2.2964  0.9743
  494MOL0     H66640   9.805   0.809   2.733  0.0825  0.1199  0.5241
  494MOL0     H66641  10.071   0.807   2.723  0.0839 -1.5170 -0.6992
  494MOL0     H66642  10.324   1.025   2.503  1.5594 -1.1422 -0.9067
  494MOL0     H66643  10.335   0.977   2.670  1.4574 -0.7900 -0.8375
  494MOL0     H66644  10.263   0.766   2.464 -1.0954 -2.1793  2.2948
  494MOL0     H66645  10.329   0.748   2.622 -0.5564  0.7963  0.1438
  494MOL0     H66646  10.473   0.891   2.383 -0.6816  1.3592  0.0863
  494MOL0     H66647  10.493   0.713   2.416 -1.9773 -0.1383  1.3436
  494MOL0     H66648  10.668   0.805   2.508 -0.5381  0.6423  0.0843
  494MOL0     H66649  10.566   0.752   2.637  0.4760  0.7226 -0.2469
  494MOL0     H66650  10.591   1.111   2.812 -0.4163 -0.1077 -1.4539
  494MOL0     H66651  10.605   1.173   3.038 -0.3092  1.8530  2.5159
  494MOL0     H66652  10.731   1.107   3.150  2.5065  1.4403 -0.0512
  494MOL0     H66653  10.770   1.229   3.043  3.2089 -1.4332  2.7961
  494MOL0     H66654  11.230   0.809   3.194  2.8875 -0.3451  1.1777
  494MOL0     H66655  11.408   0.882   3.339 -3.9061 -0.0318  1.8712
  494MOL0     H66656  11.505   1.322   3.314 -2.6926 -0.3988  1.1191
  494MOL0     H66657  11.417   1.263   3.443 -0.8547  0.9098 -0.1730
  494MOL0     H66658  11.641   1.175   3.558  0.7197  2.9664  2.4287
  494MOL0     H66659  11.732   1.266   3.434  0.1354 -1.7794 -0.4073
  494MOL0     H66660  11.522   1.418   3.585 -0.6910  2.3597 -3.4798
  494MOL0     H66661  11.640   1.471   3.468 -0.3994  1.8205  0.3497
  494MOL0     H66662  11.689   1.388   3.752  1.4404 -0.5673 -0.0825
  494MOL0     H66663  11.828   1.385   3.656 -0.8310  0.2026  0.4786
  494MOL0     H66664  11.659   1.622   3.709 -0.1109 -0.5243  1.4880
  494MOL0     H66665  11.790   1.618   3.587 -0.0411  0.9434  1.4168
  494MOL0     H66666  11.798   1.564   3.887 -1.0279 -1.7993 -0.1665
  494MOL0     H66667  11.937   1.515   3.783  1.4340  1.0048 -0.7226
  494MOL0     H66668  11.838   1.794   3.854  2.2209  2.8731 -0.4046
  494MOL0     H66669  11.924   1.753   3.702 -0.5826 -0.0821  1.5023
  494MOL0     H66670  12.108   1.647   3.870  3.2536  3.4731  0.7544
  494MOL0     H66671  12.019   1.731   3.992  0.6425  0.3760 -0.6388
  494MOL0     H66672  11.425   1.267   3.127 -0.2735 -0.1836 -0.9464
  494MOL0     H66673  11.238   1.191   2.997  1.5477 -0.8740 -2.6368
  494MOL0     H66674  11.004   0.853   2.810  0.9975  1.3164  2.6420
  494MOL0     H66675  10.843   0.840   2.620  2.5801 -2.0300  1.5883
  494MOL0     H66676   9.279   1.271   3.416  0.4912 -1.2038 -0.8361
  494MOL0     H66677   9.210   1.346   3.626  1.3749 -3.2137 -0.9449
  494MOL0     H66678   8.659   1.628   3.870 -0.9772  1.3666 -0.3960
  494MOL0     H66679   8.661   1.824   4.014  1.3556  0.0202  2.4392
  494MOL0     H66680   8.684   2.024   4.076  1.9724 -2.6404  4.4386
  494MOL0     H66681   8.795   2.159   4.120 -3.7196 -0.1494  1.2786
  494MOL0     H66682   8.697   2.182   3.910 -1.1840 -1.7472  1.2303
  494MOL0     H66683   8.823   2.059   3.843  2.2660  0.0648 -0.0950
  494MOL0     H66684   9.003   2.164   3.926  0.0124 -0.8730  1.4099
  494MOL0     H66685   8.903   2.296   4.002  0.0658 -2.0219  1.9424
  494MOL0     H66686   8.798   2.328   3.751  0.8836  2.3322  2.5764
  494MOL0     H66687   8.933   2.225   3.706  0.9338 -1.0807  1.8570
  494MOL0     H66688   9.128   2.593   3.796  1.0732 -2.5868  3.4610
  494MOL0     H66689   9.081   1.868   3.984 -0.4805  0.9192 -1.3173
  494MOL0     H66690   9.091   1.681   3.815  0.9016  0.6009  1.0145
  495MOL0     O66691   5.076   2.762  10.688  0.3707 -0.2051 -0.1279
  495MOL0     C66692   5.124   2.784  10.575  0.8861 -0.6854 -0.0499
  495MOL0     O66693   5.234   2.866  10.557  0.6775  0.6216 -1.2096
  495MOL0     C66694   5.300   2.905  10.668 -0.3147 -0.9425 -0.2207
  495MOL0     C66695   5.243   2.994  10.757 -0.1125 -0.4557  0.5181
  495MOL0     C66696   5.322   3.046  10.865  0.0780 -0.4901  0.2466
  495MOL0     C66697   5.450   3.004  10.883 -0.2924  0.6601 -0.4474
  495MOL0     O66698   5.520   3.039  10.997  0.0589 -0.2396 -0.1614
  495MOL0     C66699   5.443   3.057  11.117 -0.3594  0.5358 -0.0071
  495MOL0     C66700   5.534   3.050  11.245  0.0028 -0.4221  0.7521
  495MOL0     C66701   5.453   3.002  11.375 -0.1030 -0.1151  0.3334
  495MOL0     C66702   5.541   2.942  11.485  0.1400  0.5209 -0.4184
  495MOL0     C66703   5.604   3.048  11.578  1.0812  0.3379  0.4690
  495MOL0     C66704   5.528   3.060  11.710 -0.4063  0.0180  0.2111
  495MOL0     C66705   5.537   3.204  11.767  1.1230  0.2529  0.2276
  495MOL0     C66706   5.479   3.193  11.902 -0.7517 -0.8727  0.2021
  495MOL0     N66707   5.523   3.293  12.001  0.1469  0.5976 -0.0339
  495MOL0     C66708   5.573   3.415  11.964 -0.8351  0.2861 -0.8692
  495MOL0     C66709   5.594   3.482  12.083 -0.9053 -0.9032 -0.0730
  495MOL0     C66710   5.650   3.626  12.097 -0.0113 -0.5044  0.5238
  495MOL0     C66711   5.793   3.649  12.146 -1.1784  0.2347  0.1076
  495MOL0     C66712   5.895   3.561  12.059 -0.1495 -0.0214 -0.4914
  495MOL0     C66713   5.941   3.622  11.932 -0.3038  0.0594 -0.5113
  495MOL0     O66714   5.841   3.601  11.831  0.1900  0.3180  0.2095
  495MOL0     C66715   5.880   3.621  11.700  0.1148  0.0084 -0.6430
  495MOL0     C66716   5.795   3.568  11.611 -0.4293  0.4894  0.0002
  495MOL0     C66717   5.816   3.572  11.474  0.1663  0.8433 -0.4696
  495MOL0     C66718   5.700   3.532  11.392 -0.0638  0.2444  0.0565
  495MOL0     C66719   5.942   3.605  11.425  0.8700  1.4242  0.0850
  495MOL0     C66720   5.985   3.613  11.276  0.0293  0.1997 -0.2338
  495MOL0     O66721   6.113   3.658  11.250  0.1139  0.8400  0.1958
  495MOL0     C66722   6.144   3.665  11.114  0.2476  0.0789  0.5207
  495MOL0     C66723   6.179   3.550  11.043 -0.2952  0.2274  0.8674
  495MOL0     C66724   6.186   3.556  10.904  0.4691 -0.7409  0.6218
  495MOL0     C66725   6.172   3.689  10.838  0.3333  0.1243 -0.5033
  495MOL0     O66726   6.181   3.693  10.702 -0.7348  0.0302  0.3344
  495MOL0     C66727   6.117   3.798  10.625  0.5390 -0.9577  0.5309
  495MOL0     C66728   6.176   3.800  10.478 -0.0332 -0.2870 -0.1499
  495MOL0     C66729   6.097   3.901  10.390 -0.1716  0.0156  0.1697
  495MOL0     C66730   6.124   3.888  10.240 -0.9986  0.9637  0.1041
  495MOL0     C66731   6.021   3.955  10.147  0.0221 -0.3119 -0.6505
  495MOL0     C66732   5.998   4.109  10.177  0.4153  0.4729  0.1726
  495MOL0     C66733   5.900   4.173  10.084  0.9144 -0.4952  0.2291
  495MOL0     C66734   5.955   4.293  10.003  0.6534 -0.1076 -0.2278
  495MOL0    Cl66735   6.005   4.242   9.847  0.2526  0.1586 -0.1805
  495MOL0     C66736   6.156   3.805  10.916 -0.6011 -0.5081  0.0435
  495MOL0     C66737   6.136   3.792  11.048  0.4448  0.0290 -0.9962
  495MOL0     O66738   5.903   3.577  11.195 -1.0318 -0.2970 -0.0328
  495MOL0     C66739   6.038   3.649  11.519 -0.7043  0.1865  0.4498
  495MOL0     C66740   6.013   3.645  11.655  0.7605  0.2413 -0.1757
  495MOL0     N66741   5.559   3.397  12.187  0.2914 -0.6129  0.0562
  495MOL0     N66742   5.509   3.290  12.136 -0.4034 -0.3382 -0.1360
  495MOL0     C66743   5.502   2.906  10.798  0.0736 -0.2003  0.5864
  495MOL0     C66744   5.433   2.857  10.684 -0.3324  0.2514 -0.7332
  495MOL0     C66745   5.050   2.717  10.463  0.5125  0.6874  0.1033
  495MOL0     C66746   4.950   2.615  10.484  0.8819 -0.2547  0.2886
  495MOL0     C66747   4.899   2.547  10.378 -0.1500 -0.3620 -0.3942
  495MOL0     C66748   4.931   2.592  10.254  0.1212 -0.2207  0.1581
  495MOL0     O66749   4.857   2.523  10.164  0.0295  0.5022  0.7045
  495MOL0     C66750   4.893   2.511  10.030  0.6038  0.1676 -0.3466
  495MOL0     C66751   4.895   2.368   9.985  0.4368 -0.1446  0.2722
  495MOL0     C66752   4.976   2.344   9.851  0.1756  0.3217 -0.5009
  495MOL0     C66753   4.901   2.378   9.720 -0.2726  0.1235 -0.2860
  495MOL0     C66754   4.757   2.350   9.711 -0.8684  0.4872  0.7523
  495MOL0     C66755   4.645   2.312   9.700  0.6333  0.4098 -0.1388
  495MOL0     C66756   5.021   2.693  10.228 -0.2279 -0.4192  0.7175
  495MOL0     C66757   5.082   2.755  10.338  0.2674 -0.5881 -0.8053
  495MOL0     H66758   5.136   3.007  10.751 -0.4108 -2.9569 -0.8923
  495MOL0     H66759   5.266   3.110  10.932 -0.7248  1.3012 -2.0100
  495MOL0     H66760   5.394   3.154  11.106  0.0070  0.5885 -1.3719
  495MOL0     H66761   5.367   2.981  11.138  3.8653 -3.2397  4.1468
  495MOL0     H66762   5.604   2.968  11.229 -0.0818 -0.1611 -1.0983
  495MOL0     H66763   5.575   3.150  11.265  0.4230 -0.4566  0.0644
  495MOL0     H66764   5.399   3.092  11.404  1.4519  2.5643 -4.0223
  495MOL0     H66765   5.378   2.927  11.350  0.5469 -0.4143 -0.8070
  495MOL0     H66766   5.478   2.878  11.548  3.0941 -0.8345  1.4037
  495MOL0     H66767   5.604   2.867  11.436 -0.9072 -1.0378  0.5183
  495MOL0     H66768   5.709   3.024  11.595  1.4311  0.1521 -1.5910
  495MOL0     H66769   5.595   3.142  11.522 -3.7622 -0.7989 -1.1712
  495MOL0     H66770   5.423   3.028  11.709  0.1003 -1.8964  1.7144
  495MOL0     H66771   5.588   2.997  11.777 -0.1824  1.3376  1.2896
  495MOL0     H66772   5.643   3.227  11.777  0.9983  0.2984  1.5902
  495MOL0     H66773   5.484   3.273  11.700  0.2927  2.2412  2.7844
  495MOL0     H66774   5.501   3.095  11.946  2.8272 -1.0375 -1.6124
  495MOL0     H66775   5.370   3.207  11.898 -0.6964 -0.0583  1.1797
  495MOL0     H66776   5.599   3.438  11.861 -1.3736 -1.6742 -1.4984
  495MOL0     H66777   5.647   3.662  11.994  2.3698 -0.5155  0.4068
  495MOL0     H66778   5.592   3.696  12.158 -3.0725 -0.0573 -2.6111
  495MOL0     H66779   5.797   3.621  12.251  3.1187 -2.0991 -0.4419
  495MOL0     H66780   5.823   3.753  12.130 -3.1213  0.4887 -2.7448
  495MOL0     H66781   5.858   3.460  12.036  0.5840 -0.8071  1.6154
  495MOL0     H66782   5.981   3.532  12.120 -1.3533 -0.2561  1.1659
  495MOL0     H66783   6.039   3.578  11.911  0.3586  0.1711  1.9321
  495MOL0     H66784   5.951   3.731  11.933  3.4325 -0.1557 -1.0955
  495MOL0     H66785   5.702   3.530  11.652 -1.1465  0.6563 -1.4261
  495MOL0     H66786   5.720   3.432  11.352  0.0056  0.1533  0.3192
  495MOL0     H66787   5.607   3.534  11.449  0.0635  2.0897  0.2459
  495MOL0     H66788   5.673   3.608  11.317 -3.2918  0.9716  1.7601
  495MOL0     H66789   6.191   3.448  11.079 -0.6708 -0.2564 -0.3302
  495MOL0     H66790   6.199   3.465  10.846  1.1694  1.1076 -2.3269
  495MOL0     H66791   6.010   3.773  10.623 -0.0366  1.3702 -0.4415
  495MOL0     H66792   6.138   3.901  10.655  1.1107 -0.1178 -2.4750
  495MOL0     H66793   6.284   3.819  10.481  0.0246 -0.4593 -0.8561
  495MOL0     H66794   6.158   3.698  10.443 -4.6428  0.2231  0.1036
  495MOL0     H66795   6.116   4.003  10.423 -2.1611 -0.2989  2.5973
  495MOL0     H66796   5.989   3.885  10.399 -1.0481  3.8761 -1.6411
  495MOL0     H66797   6.226   3.924  10.222 -1.0954  1.5922  0.7546
  495MOL0     H66798   6.116   3.780  10.224 -0.8164  0.0101  4.8975
  495MOL0     H66799   5.926   3.906  10.168  1.1604 -1.6521  1.7979
  495MOL0     H66800   6.052   3.938  10.043  3.2927  1.4909 -0.0989
  495MOL0     H66801   5.970   4.108  10.283 -0.4487 -0.0199 -0.0539
  495MOL0     H66802   6.089   4.170  10.175  1.1059 -0.5103  0.6660
  495MOL0     H66803   5.820   4.205  10.151  1.4764 -1.2422  1.2837
  495MOL0     H66804   5.855   4.105  10.011 -0.6942  1.4323 -0.6843
  495MOL0     H66805   6.026   4.350  10.064  0.6090 -0.7357  0.4297
  495MOL0     H66806   5.873   4.364   9.987  0.7340 -0.1046 -0.6259
  495MOL0     H66807   6.151   3.903  10.869  2.1259 -0.8112 -1.0896
  495MOL0     H66808   6.118   3.884  11.104 -0.2800 -0.5398 -0.2750
  495MOL0     H66809   6.139   3.679  11.493 -0.0819 -0.8893  1.5005
  495MOL0     H66810   6.094   3.684  11.716 -0.7116  0.7552  1.5674
  495MOL0     H66811   5.605   2.875  10.810  1.0700  2.0937 -1.2339
  495MOL0     H66812   5.489   2.783  10.629 -0.5316 -1.9045  1.7696
  495MOL0     H66813   4.932   2.587  10.588 -1.7120  1.4567  0.4025
  495MOL0     H66814   4.833   2.463  10.396  1.2481 -1.0729  1.7967
  495MOL0     H66815   4.827   2.567   9.963  1.5691 -0.4582 -1.8682
  495MOL0     H66816   4.998   2.541  10.020  1.7158 -3.5944 -1.8587
  495MOL0     H66817   4.789   2.343   9.976 -0.1397  2.3720 -0.7730
  495MOL0     H66818   4.933   2.310  10.070 -3.0660 -0.7984  1.5407
  495MOL0     H66819   5.000   2.237   9.855  0.6278  0.3664 -1.6163
  495MOL0     H66820   5.069   2.401   9.840  0.7299 -0.3984  0.3382
  495MOL0     H66821   4.943   2.330   9.631 -2.7148  2.5817 -2.9778
  495MOL0     H66822   4.928   2.484   9.712 -0.5645  0.1135 -1.5345
  495MOL0     H66823   4.543   2.282   9.709  0.7637  0.2182  0.7898
  495MOL0     H66824   5.050   2.735  10.132  3.3215  2.0325  2.6207
  495MOL0     H66825   5.146   2.838  10.310  0.2414  0.2524  1.3680
  496MOL0     O66826   2.098   2.525   6.911 -0.8410  0.0982 -0.2753
  496MOL0     C66827   2.206   2.593   6.917  0.4254  0.4559  0.0693
  496MOL0     O66828   2.291   2.611   6.809 -0.5327 -0.6386 -0.7452
  496MOL0     C66829   2.242   2.581   6.686  0.5304  0.1488  0.0547
  496MOL0     C66830   2.105   2.589   6.639 -0.4210  0.0611  0.3541
  496MOL0     C66831   2.083   2.571   6.504  0.0228 -0.6666  0.1642
  496MOL0     C66832   2.187   2.557   6.416  0.4016 -0.1613  0.0841
  496MOL0     O66833   2.167   2.554   6.274 -0.5196  0.5689  0.4320
  496MOL0     C66834   2.043   2.509   6.215 -0.0179  1.1092  0.9051
  496MOL0     C66835   2.058   2.450   6.067  0.7237 -0.1275 -0.1926
  496MOL0     C66836   2.172   2.506   5.983 -0.5069 -0.7664 -0.7658
  496MOL0     C66837   2.183   2.430   5.847  0.0347  0.3666  0.8619
  496MOL0     C66838   2.278   2.519   5.772  0.2183  0.1871 -0.1475
  496MOL0     C66839   2.289   2.486   5.622  0.4971 -0.0763 -0.2444
  496MOL0     C66840   2.409   2.397   5.594  0.6193 -1.0741 -0.2524
  496MOL0     C66841   2.420   2.368   5.448 -0.2062 -0.3389  0.0198
  496MOL0     N66842   2.532   2.449   5.404  0.4754  0.2020  0.3655
  496MOL0     C66843   2.540   2.586   5.397 -0.1885 -0.3718 -0.0188
  496MOL0     C66844   2.654   2.611   5.341 -0.7006 -0.2565  0.8902
  496MOL0     C66845   2.708   2.749   5.318  0.2503 -0.0063  0.1095
  496MOL0     C66846   2.832   2.784   5.396  0.6895 -0.3111 -0.9293
  496MOL0     C66847   2.881   2.920   5.335 -0.0321 -0.0446 -0.0116
  496MOL0     C66848   3.007   2.958   5.392 -0.6781 -0.6021  0.0732
  496MOL0     O66849   3.058   3.070   5.310  0.3785  1.2292  0.5866
  496MOL0     C66850   3.182   3.127   5.325  1.0255  0.3478 -0.2218
  496MOL0     C66851   3.253   3.146   5.200  0.5644 -0.9614  0.3167
  496MOL0     C66852   3.379   3.213   5.200  0.2084  0.8004 -0.4065
  496MOL0     C66853   3.423   3.279   5.070  0.9121 -0.5693  1.0406
  496MOL0     C66854   3.451   3.224   5.321 -0.4399 -0.2874  0.2353
  496MOL0     C66855   3.589   3.297   5.320 -0.2467  0.5714  0.7073
  496MOL0     O66856   3.666   3.251   5.426  0.1198  0.2064  0.2784
  496MOL0     C66857   3.789   3.305   5.446  0.1360  0.1094  0.3061
  496MOL0     C66858   3.892   3.214   5.464  0.7154  0.0478  0.1601
  496MOL0     C66859   4.010   3.273   5.505 -0.7188 -0.1666 -0.5095
  496MOL0     C66860   4.031   3.415   5.529 -0.6641  0.4390 -0.3771
  496MOL0     O66861   4.145   3.470   5.580 -0.0426  0.2443  0.1023
  496MOL0     C66862   4.256   3.397   5.617 -0.2302 -0.1810 -0.4528
  496MOL0     C66863   4.217   3.353   5.763  0.1967 -0.3860 -0.4858
  496MOL0     C66864   4.152   3.463   5.856  0.1736 -0.3335 -1.7049
  496MOL0     C66865   4.267   3.557   5.911  0.3887 -0.4281  1.1400
  496MOL0     C66866   4.218   3.669   6.009  0.4151  0.4323 -0.2289
  496MOL0     C66867   4.159   3.620   6.141 -0.1760  0.5812 -0.7653
  496MOL0     C66868   4.271   3.576   6.239  1.2246  0.8321  0.0866
  496MOL0     C66869   4.271   3.426   6.268  0.5759 -0.0780 -0.1375
  496MOL0    Cl66870   4.401   3.399   6.388 -0.1291  0.1163  0.0460
  496MOL0     C66871   3.920   3.503   5.515 -0.5348 -1.2066 -0.8428
  496MOL0     C66872   3.802   3.446   5.482  0.2481  0.0728  0.2401
  496MOL0     O66873   3.619   3.394   5.248  0.2766 -0.0373  0.3151
  496MOL0     C66874   3.385   3.201   5.444  0.5500 -0.1173  0.2473
  496MOL0     C66875   3.250   3.152   5.445  0.0950  0.2985 -0.2337
  496MOL0     N66876   2.707   2.491   5.298 -0.3954  0.2812  0.8899
  496MOL0     N66877   2.639   2.392   5.340 -0.4007 -0.2344 -0.3148
  496MOL0     C66878   2.312   2.550   6.456  0.0348  0.1177 -0.6469
  496MOL0     C66879   2.342   2.576   6.590 -0.4326 -0.1147  0.3336
  496MOL0     C66880   2.238   2.641   7.056  0.2330 -0.8789  0.4825
  496MOL0     C66881   2.358   2.698   7.094 -1.1032 -0.7982 -0.0522
  496MOL0     C66882   2.383   2.751   7.223 -0.0202  0.1354 -0.2904
  496MOL0     C66883   2.289   2.740   7.322 -0.0494 -0.3400  0.4358
  496MOL0     O66884   2.319   2.788   7.448 -0.3625 -0.6859  0.8269
  496MOL0     C66885   2.330   2.674   7.535 -0.5384 -0.3705  0.1469
  496MOL0     C66886   2.377   2.730   7.676  0.0043  0.0765 -0.4245
  496MOL0     C66887   2.514   2.789   7.665 -0.0292  0.6138 -0.2034
  496MOL0     C66888   2.603   2.689   7.727  0.2426 -1.0384 -0.2048
  496MOL0     C66889   2.735   2.761   7.756  0.1122  0.8017 -0.0557
  496MOL0     C66890   2.832   2.810   7.771 -0.7920  0.7803  0.3665
  496MOL0     C66891   2.168   2.691   7.289 -0.2200  0.2981 -0.6709
  496MOL0     C66892   2.140   2.646   7.159  0.3564 -0.2182 -0.0558
  496MOL0     H66893   2.018   2.595   6.704 -0.2800 -2.1876  0.8445
  496MOL0     H66894   1.985   2.568   6.458  0.1583  0.7255 -0.2553
  496MOL0     H66895   1.997   2.431   6.276  1.3814 -2.1706 -1.9329
  496MOL0     H66896   1.972   2.592   6.209 -2.1256 -0.6983 -1.3512
  496MOL0     H66897   2.055   2.341   6.073 -0.5777 -0.1777 -1.3775
  496MOL0     H66898   1.971   2.486   6.012  1.7661  1.1407 -1.0853
  496MOL0     H66899   2.148   2.611   5.966 -3.6613 -1.4780 -1.2015
  496MOL0     H66900   2.259   2.473   6.041 -0.7653 -0.0144  0.0610
  496MOL0     H66901   2.234   2.334   5.856  1.5612  1.0287 -0.3208
  496MOL0     H66902   2.092   2.416   5.788 -0.1695 -4.6541  1.9875
  496MOL0     H66903   2.246   2.622   5.790 -3.2027 -0.7943  0.1010
  496MOL0     H66904   2.371   2.507   5.828  1.2476  0.1586 -1.8085
  496MOL0     H66905   2.195   2.455   5.574  0.8177 -1.6786  0.0985
  496MOL0     H66906   2.326   2.579   5.579 -0.8460  1.2130  1.2493
  496MOL0     H66907   2.496   2.448   5.636 -1.3353  2.6154 -0.2868
  496MOL0     H66908   2.392   2.299   5.640  0.2210 -1.7233 -1.7107
  496MOL0     H66909   2.329   2.396   5.394  0.2898  0.9347 -0.2086
  496MOL0     H66910   2.445   2.265   5.422 -3.3689 -0.5127 -2.9549
  496MOL0     H66911   2.470   2.657   5.440 -1.5482 -0.5145 -1.8592
  496MOL0     H66912   2.728   2.753   5.211 -2.8601 -0.7382 -0.6073
  496MOL0     H66913   2.630   2.823   5.341  0.4563 -0.7154  3.6913
  496MOL0     H66914   2.908   2.711   5.363  1.2445 -0.3683  0.4121
  496MOL0     H66915   2.819   2.796   5.504  1.5028  2.5738 -1.0835
  496MOL0     H66916   2.805   2.994   5.359 -0.2142 -0.5608  1.0335
  496MOL0     H66917   2.897   2.905   5.227  0.6577 -1.2215  0.2286
  496MOL0     H66918   3.084   2.880   5.395  1.3584  1.2372  4.6777
  496MOL0     H66919   2.990   2.985   5.497 -1.8580 -0.5229 -0.1225
  496MOL0     H66920   3.192   3.125   5.113 -3.0972  1.3772  2.0922
  496MOL0     H66921   3.437   3.387   5.080  2.8413 -0.6651 -0.1498
  496MOL0     H66922   3.519   3.234   5.044  0.8331 -0.4386  0.5077
  496MOL0     H66923   3.363   3.253   4.982  2.1132  0.3865 -0.0912
  496MOL0     H66924   3.879   3.111   5.434  1.5414 -0.2421  0.7670
  496MOL0     H66925   4.089   3.199   5.508 -1.4445 -1.0094 -1.4285
  496MOL0     H66926   4.288   3.316   5.550  1.2766 -0.8055  0.9639
  496MOL0     H66927   4.340   3.465   5.633  0.2488 -1.4745  3.5707
  496MOL0     H66928   4.155   3.263   5.757 -0.2848  0.0222 -2.1898
  496MOL0     H66929   4.310   3.316   5.808  1.9051  0.1772 -3.2825
  496MOL0     H66930   4.115   3.417   5.948  0.6878 -0.8770 -1.7633
  496MOL0     H66931   4.067   3.526   5.829  1.0885  2.9820  2.0986
  496MOL0     H66932   4.347   3.505   5.964  2.0889  0.2886 -0.5809
  496MOL0     H66933   4.308   3.610   5.824 -1.6899  5.3616  3.2261
  496MOL0     H66934   4.151   3.723   5.942  1.5502  1.1098 -0.8551
  496MOL0     H66935   4.296   3.744   6.027  0.3075  0.6241 -0.5476
  496MOL0     H66936   4.105   3.695   6.199 -2.5955 -2.8276  1.8414
  496MOL0     H66937   4.088   3.538   6.125  0.5656 -0.5823  1.4620
  496MOL0     H66938   4.247   3.628   6.332  0.8637 -0.5632  0.8003
  496MOL0     H66939   4.366   3.624   6.217  1.7323  0.2785  1.0073
  496MOL0     H66940   4.296   3.367   6.178 -3.1926  1.0556 -2.1497
  496MOL0     H66941   4.173   3.396   6.307  0.7781 -0.8996 -0.2407
  496MOL0     H66942   3.938   3.602   5.554 -1.8449 -1.0938 -0.5014
  496MOL0     H66943   3.714   3.508   5.476  0.4023  0.1805 -1.9064
  496MOL0     H66944   3.434   3.205   5.541  2.2024  0.2149 -0.5586
  496MOL0     H66945   3.224   3.123   5.547 -0.9250 -3.6070 -1.4503
  496MOL0     H66946   2.383   2.528   6.377  0.1118 -4.5461  0.4535
  496MOL0     H66947   2.446   2.586   6.618 -0.6857  2.0880  0.6698
  496MOL0     H66948   2.436   2.691   7.018  0.8768 -1.5594  1.9631
  496MOL0     H66949   2.483   2.792   7.232  0.1327 -0.5920  1.9548
  496MOL0     H66950   2.236   2.620   7.544 -1.4382  1.2112  0.5470
  496MOL0     H66951   2.410   2.605   7.507  0.1638  0.0656  1.0192
  496MOL0     H66952   2.370   2.662   7.760  1.3646  0.7032  0.2279
  496MOL0     H66953   2.308   2.814   7.693 -4.4466 -3.2770 -0.1194
  496MOL0     H66954   2.509   2.887   7.713  2.5212  0.7193 -0.0080
  496MOL0     H66955   2.550   2.801   7.562 -0.4907 -0.7712 -0.5391
  496MOL0     H66956   2.611   2.600   7.665  0.5724  0.9788 -3.2814
  496MOL0     H66957   2.568   2.657   7.825  2.0315 -2.3905  0.0526
  496MOL0     H66958   2.927   2.859   7.785  0.4868 -1.7295  1.1099
  496MOL0     H66959   2.093   2.678   7.367 -0.3133 -1.1215 -0.9686
  496MOL0     H66960   2.035   2.621   7.149  0.5639 -0.0518 -4.7140
  497MOL0     O66961   1.910   4.194   5.752 -0.3130 -0.1523  0.4923
  497MOL0     C66962   1.907   4.310   5.711 -0.0235  0.0304  0.9284
  497MOL0     O66963   2.009   4.374   5.641 -0.0644 -0.2323  0.6890
  497MOL0     C66964   2.104   4.294   5.592 -0.9939  0.7239 -0.3012
  497MOL0     C66965   2.064   4.197   5.496 -1.0322  0.0645 -0.7118
  497MOL0     C66966   2.158   4.126   5.422  0.0369 -0.6773 -0.3021
  497MOL0     C66967   2.292   4.161   5.425  0.3033  0.0052 -0.5282
  497MOL0     O66968   2.351   4.085   5.332  0.9417  0.0142 -0.1049
  497MOL0     C66969   2.492   4.084   5.319 -0.5726 -0.0831  0.1457
  497MOL0     C66970   2.547   3.932   5.296  0.1049 -0.0344 -1.1143
  497MOL0     C66971   2.484   3.839   5.398 -0.0533  0.4394  0.0301
  497MOL0     C66972   2.472   3.690   5.338 -0.2032 -0.3163  0.4343
  497MOL0     C66973   2.451   3.591   5.445  0.2251  0.2178  0.1333
  497MOL0     C66974   2.308   3.599   5.491  0.5130 -0.5538 -1.2327
  497MOL0     C66975   2.274   3.515   5.615  0.2315  1.2367 -0.3835
  497MOL0     C66976   2.218   3.372   5.589  1.3530  0.4379 -0.0227
  497MOL0     N66977   2.110   3.389   5.498  0.2767  0.1347 -0.2623
  497MOL0     C66978   1.997   3.461   5.520 -0.2653  1.0227 -0.2134
  497MOL0     C66979   1.921   3.430   5.416  0.1481  0.2887 -0.7201
  497MOL0     C66980   1.772   3.477   5.382  0.8002  0.9620 -0.1324
  497MOL0     C66981   1.771   3.565   5.256  1.0181 -0.2711 -0.1716
  497MOL0     C66982   1.855   3.703   5.256  0.2029  0.4192  0.3443
  497MOL0     C66983   1.823   3.799   5.137  0.2500  0.5553 -0.1309
  497MOL0     O66984   1.853   3.936   5.172  0.4171 -0.2215 -0.5771
  497MOL0     C66985   1.974   3.987   5.121 -0.1306 -0.5855 -0.3599
  497MOL0     C66986   2.078   3.911   5.065  0.2454  0.1040 -0.7853
  497MOL0     C66987   2.179   3.975   4.989  0.0710 -0.0210  0.1136
  497MOL0     C66988   2.273   3.891   4.917 -0.2458  0.7781  0.3158
  497MOL0     C66989   2.193   4.110   4.998  0.3932 -0.5676  0.2740
  497MOL0     C66990   2.307   4.188   4.944  0.5037  0.8979 -0.1824
  497MOL0     O66991   2.387   4.136   4.841  0.6046  0.0829 -0.4263
  497MOL0     C66992   2.516   4.171   4.812  1.0758  0.1447  0.5533
  497MOL0     C66993   2.611   4.214   4.904  0.1945 -0.1445  0.0937
  497MOL0     C66994   2.741   4.246   4.867 -0.4179  1.0550  1.0663
  497MOL0     C66995   2.785   4.228   4.728 -0.7370  0.3755 -0.5049
  497MOL0     O66996   2.918   4.253   4.687  0.2493 -0.0374  0.0928
  497MOL0     C66997   2.937   4.385   4.633 -1.1290  0.0416  0.5411
  497MOL0     C66998   3.008   4.480   4.734 -0.5608  0.8925  0.3738
  497MOL0     C66999   3.138   4.425   4.784 -0.1502 -0.1603  0.4157
  497MOL0     C67000   3.220   4.535   4.843 -0.7709  0.6656 -0.1488
  497MOL0     C67001   3.348   4.478   4.915 -0.1548  0.0733  0.2659
  497MOL0     C67002   3.415   4.577   5.002  0.1464  0.0739  0.1159
  497MOL0     C67003   3.513   4.673   4.926 -0.9055  0.0006  0.7525
  497MOL0     C67004   3.662   4.700   4.975  0.7684  0.0582 -0.5627
  497MOL0    Cl67005   3.769   4.555   4.936 -0.3411  0.1200  0.2499
  497MOL0     C67006   2.698   4.165   4.646  0.2564  0.6314 -0.4504
  497MOL0     C67007   2.558   4.143   4.678 -0.0860  0.2464 -0.0251
  497MOL0     O67008   2.333   4.301   4.999  0.4532 -0.0033 -0.1037
  497MOL0     C67009   2.103   4.187   5.068 -0.8444 -0.0930  0.4848
  497MOL0     C67010   1.996   4.127   5.121  0.1485  0.1776 -0.5990
  497MOL0     N67011   2.000   3.351   5.324  0.2782  0.1221 -0.3719
  497MOL0     N67012   2.113   3.327   5.379 -0.4525 -0.2821  0.2908
  497MOL0     C67013   2.333   4.257   5.525 -0.5026  0.1671  1.3470
  497MOL0     C67014   2.243   4.326   5.604  0.4802  0.7816 -0.3875
  497MOL0     C67015   1.799   4.389   5.772 -0.4214  0.1449  0.1783
  497MOL0     C67016   1.735   4.355   5.894 -0.6949  0.3175  0.2891
  497MOL0     C67017   1.633   4.433   5.946  0.6312  0.2140 -0.9856
  497MOL0     C67018   1.597   4.552   5.885 -0.1932 -0.2451  0.0941
  497MOL0     O67019   1.475   4.601   5.930  0.6073 -0.8362  0.5351
  497MOL0     C67020   1.443   4.737   5.889 -0.5113 -0.1408 -0.2147
  497MOL0     C67021   1.328   4.776   5.989  0.2420 -0.0181  0.1110
  497MOL0     C67022   1.293   4.686   6.111  0.1673 -0.5923 -0.4206
  497MOL0     C67023   1.192   4.742   6.200 -0.9066 -0.0343  0.0792
  497MOL0     C67024   1.052   4.730   6.151  0.6477  0.6937 -0.0567
  497MOL0     C67025   0.937   4.730   6.134  0.6827 -0.5281 -0.6606
  497MOL0     C67026   1.669   4.596   5.771 -0.6655  0.3928  0.5620
  497MOL0     C67027   1.763   4.518   5.720  0.1302 -0.6724 -0.0886
  497MOL0     H67028   1.958   4.172   5.504 -2.0428  3.8611 -0.0129
  497MOL0     H67029   2.111   4.051   5.360 -1.8202  0.2766 -0.1335
  497MOL0     H67030   2.527   4.152   5.241 -3.0367 -2.3802 -3.2403
  497MOL0     H67031   2.548   4.112   5.409 -1.7417  0.7553  0.6321
  497MOL0     H67032   2.517   3.904   5.195  0.1805 -1.6752 -0.7225
  497MOL0     H67033   2.655   3.925   5.306 -0.0119 -1.1784 -0.3335
  497MOL0     H67034   2.562   3.826   5.474  3.3357  3.2637 -2.6380
  497MOL0     H67035   2.386   3.869   5.435  0.8881  1.6877  1.6561
  497MOL0     H67036   2.401   3.674   5.257 -0.3717  0.0274  0.5113
  497MOL0     H67037   2.563   3.666   5.282  0.5437  3.2801 -0.2039
  497MOL0     H67038   2.463   3.486   5.414  0.3276  0.0198  0.8223
  497MOL0     H67039   2.531   3.615   5.515  0.3001 -1.7815  0.8080
  497MOL0     H67040   2.286   3.695   5.538 -1.1968 -2.6965  2.9221
  497MOL0     H67041   2.236   3.584   5.410  0.5626  1.9478 -1.8054
  497MOL0     H67042   2.361   3.504   5.680 -1.4635  0.3053  1.8999
  497MOL0     H67043   2.196   3.569   5.669  0.5046  2.6207 -1.3343
  497MOL0     H67044   2.177   3.331   5.681  2.3650  2.6625  1.5299
  497MOL0     H67045   2.290   3.295   5.561 -0.0158 -1.7985  2.2802
  497MOL0     H67046   1.973   3.528   5.602  1.9433 -1.1118  2.3471
  497MOL0     H67047   1.711   3.390   5.357  2.0542  0.6427 -2.4415
  497MOL0     H67048   1.737   3.525   5.474  0.6797  0.3143  0.1636
  497MOL0     H67049   1.671   3.599   5.226  1.9382  0.6145 -2.4563
  497MOL0     H67050   1.808   3.501   5.176  0.3629 -1.0694  0.1551
  497MOL0     H67051   1.962   3.684   5.260  0.3167 -0.5699 -3.6119
  497MOL0     H67052   1.821   3.749   5.350  3.1880  3.5581  0.0823
  497MOL0     H67053   1.718   3.777   5.117  1.0597 -1.1491 -3.0638
  497MOL0     H67054   1.869   3.755   5.048 -1.4164 -4.5163  1.2138
  497MOL0     H67055   2.083   3.803   5.073 -0.7293 -0.2563 -3.7398
  497MOL0     H67056   2.378   3.904   4.945  0.3301 -0.1557 -1.2863
  497MOL0     H67057   2.245   3.785   4.916  1.9728  0.1485 -0.4161
  497MOL0     H67058   2.264   3.922   4.813  1.4940  0.9587  0.1936
  497MOL0     H67059   2.585   4.212   5.009 -1.5000  3.0101 -0.1382
  497MOL0     H67060   2.798   4.277   4.953 -1.3012 -1.9365  2.8808
  497MOL0     H67061   3.004   4.381   4.546  0.2972 -2.5434  1.6170
  497MOL0     H67062   2.841   4.431   4.608 -0.3583  1.6005  0.3397
  497MOL0     H67063   3.025   4.578   4.690  0.3790  0.3112 -0.5980
  497MOL0     H67064   2.948   4.489   4.825 -0.4090 -2.2433  0.8937
  497MOL0     H67065   3.207   4.381   4.712 -1.6316 -2.4167  0.2808
  497MOL0     H67066   3.121   4.335   4.844 -0.2339 -1.5371 -1.5758
  497MOL0     H67067   3.250   4.605   4.765  1.8961  0.5462  0.6555
  497MOL0     H67068   3.157   4.588   4.916 -0.9753  1.7364 -1.0778
  497MOL0     H67069   3.417   4.436   4.842 -2.5875 -1.7526 -1.1229
  497MOL0     H67070   3.323   4.392   4.978  1.1717  2.0795  3.8366
  497MOL0     H67071   3.340   4.642   5.048 -0.3907  1.1412 -2.1472
  497MOL0     H67072   3.471   4.528   5.083  4.6225  0.0365 -2.6444
  497MOL0     H67073   3.470   4.772   4.906  0.8510  1.0866  1.9909
  497MOL0     H67074   3.505   4.628   4.827  1.0620  1.6404 -0.2336
  497MOL0     H67075   3.655   4.722   5.082 -1.6375 -1.6572 -0.3016
  497MOL0     H67076   3.698   4.792   4.929  0.2499  0.3060 -0.4803
  497MOL0     H67077   2.724   4.132   4.546  0.2709  1.3991 -0.7074
  497MOL0     H67078   2.477   4.118   4.611 -1.7856  3.5139  0.5749
  497MOL0     H67079   2.122   4.294   5.072 -1.1142  0.0051 -0.4912
  497MOL0     H67080   1.918   4.189   5.165 -1.0632 -0.4674 -1.7670
  497MOL0     H67081   2.438   4.283   5.539 -0.1257 -0.3979 -0.1411
  497MOL0     H67082   2.273   4.404   5.673  1.2311  1.4379 -1.4193
  497MOL0     H67083   1.775   4.265   5.941  0.1582  0.4616 -0.1236
  497MOL0     H67084   1.574   4.403   6.032  2.0751 -0.6278 -0.2576
  497MOL0     H67085   1.528   4.804   5.877  0.0859 -1.2032 -2.4563
  497MOL0     H67086   1.400   4.734   5.788 -0.9170 -4.3553 -0.1132
  497MOL0     H67087   1.244   4.758   5.923  1.4024 -0.5905 -1.2609
  497MOL0     H67088   1.331   4.884   6.005 -0.7423  0.4951 -2.6661
  497MOL0     H67089   1.381   4.667   6.173 -0.4797 -3.1893 -0.1642
  497MOL0     H67090   1.269   4.583   6.083 -4.7554  0.3077 -0.2993
  497MOL0     H67091   1.222   4.845   6.223 -0.4085  0.0762 -0.9943
  497MOL0     H67092   1.203   4.699   6.300  2.8598  0.7295  0.1372
  497MOL0     H67093   0.834   4.753   6.115  1.1455  0.3653 -2.2609
  497MOL0     H67094   1.641   4.682   5.712  0.6241  0.4734  0.0382
  497MOL0     H67095   1.812   4.559   5.632 -0.2537  0.1665  0.0813
  498MOL0     O67096   1.619   1.664   8.055  0.4945 -0.3668  0.6382
  498MOL0     C67097   1.601   1.582   7.960 -1.1137 -0.4732 -0.8309
  498MOL0     O67098   1.563   1.450   7.973 -0.4879 -0.3652 -0.9293
  498MOL0     C67099   1.540   1.411   8.104  0.0403  0.4163  0.1618
  498MOL0     C67100   1.634   1.400   8.209  0.1606  0.2500  0.8539
  498MOL0     C67101   1.585   1.346   8.327 -0.2567  0.1511  0.0931
  498MOL0     C67102   1.457   1.314   8.357  0.5860 -0.6543 -0.1097
  498MOL0     O67103   1.428   1.260   8.478  0.7199  0.3911  0.4054
  498MOL0     C67104   1.301   1.276   8.525 -0.6735  0.9414  0.3085
  498MOL0     C67105   1.317   1.246   8.666  0.4958  0.6196 -0.3200
  498MOL0     C67106   1.184   1.264   8.741 -1.2977 -0.5688 -0.6701
  498MOL0     C67107   1.208   1.277   8.898 -0.7348 -1.2703 -0.6321
  498MOL0     C67108   1.074   1.244   8.962  0.1743 -0.3369 -0.6540
  498MOL0     C67109   1.102   1.229   9.110  0.0230 -0.4906 -0.6585
  498MOL0     C67110   0.967   1.223   9.177  0.8213 -0.3850  0.3250
  498MOL0     C67111   0.982   1.169   9.324 -0.4592  0.3433 -0.1623
  498MOL0     N67112   0.850   1.134   9.385  0.1793  0.1483 -0.4070
  498MOL0     C67113   0.757   1.052   9.335  0.8752  0.4431 -0.3244
  498MOL0     C67114   0.658   1.040   9.436 -0.1430  0.5895 -0.0965
  498MOL0     C67115   0.551   0.923   9.441 -0.2948  0.2172 -0.8663
  498MOL0     C67116   0.610   0.795   9.492  0.2029  0.5357  0.5880
  498MOL0     C67117   0.510   0.670   9.473 -0.3128  0.5101  1.7730
  498MOL0     C67118   0.594   0.540   9.502  0.1085  0.3465 -0.6296
  498MOL0     O67119   0.643   0.530   9.634  0.0848 -0.3142  0.3630
  498MOL0     C67120   0.698   0.412   9.684  0.1444 -0.3505 -0.2034
  498MOL0     C67121   0.761   0.422   9.813 -0.0757  0.3276  0.4700
  498MOL0     C67122   0.816   0.304   9.877  0.7880  0.7572  0.4131
  498MOL0     C67123   0.877   0.322  10.017 -0.5544  0.3551  0.3418
  498MOL0     C67124   0.815   0.182   9.808 -0.6938  0.4337  1.2621
  498MOL0     C67125   0.878   0.059   9.853  0.4342 -0.0094 -0.6817
  498MOL0     O67126   0.911   0.035   9.989 -0.5088 -0.6335 -0.2088
  498MOL0     C67127   0.990  -0.077   9.997 -0.2937  0.3218 -0.7731
  498MOL0     C67128   0.921  -0.196  10.022 -0.9882 -0.2661 -0.2759
  498MOL0     C67129   0.984  -0.310  10.058  0.6809 -0.0913 -0.1260
  498MOL0     C67130   1.128  -0.308  10.054  0.8343 -0.1189  0.2826
  498MOL0     O67131   1.200  -0.430  10.062  0.4075 -0.4962 -0.1933
  498MOL0     C67132   1.337  -0.435  10.021  1.4092 -0.4114  0.3721
  498MOL0     C67133   1.387  -0.574  10.039  0.0016  0.0761 -0.5588
  498MOL0     C67134   1.367  -0.656  10.167  0.5368  0.1943  0.3411
  498MOL0     C67135   1.451  -0.777  10.179  0.4639  0.5222 -0.4377
  498MOL0     C67136   1.381  -0.895  10.261  0.6690 -0.0622 -0.6668
  498MOL0     C67137   1.364  -0.867  10.410 -0.1128 -0.0452  0.2662
  498MOL0     C67138   1.491  -0.829  10.481  0.5964 -0.4670  0.5629
  498MOL0     C67139   1.471  -0.864  10.629  1.1943 -0.3291  0.5543
  498MOL0    Cl67140   1.571  -0.750  10.720  0.1423  0.6253 -0.3444
  498MOL0     C67141   1.198  -0.183  10.030  0.7288  0.0359 -0.9773
  498MOL0     C67142   1.123  -0.071  10.003  0.5076  0.2439  0.6814
  498MOL0     O67143   0.909  -0.006   9.754 -1.4283 -0.1203 -0.0157
  498MOL0     C67144   0.763   0.187   9.675  1.4777 -0.2199 -0.3623
  498MOL0     C67145   0.700   0.292   9.617 -0.2654 -0.1878 -0.1130
  498MOL0     N67146   0.700   1.115   9.540 -0.4706  0.2918 -0.2473
  498MOL0     N67147   0.820   1.161   9.517  0.1821 -0.1499 -0.6099
  498MOL0     C67148   1.356   1.350   8.262 -0.3226  0.2301  0.1998
  498MOL0     C67149   1.407   1.401   8.133 -0.6100  0.6944 -0.5058
  498MOL0     C67150   1.625   1.624   7.829  0.5671 -0.2493  0.0653
  498MOL0     C67151   1.614   1.756   7.781 -0.0213 -1.0831 -0.7290
  498MOL0     C67152   1.638   1.788   7.653 -0.1005  0.1985  0.3206
  498MOL0     C67153   1.668   1.688   7.562  0.4833  0.2161 -0.1756
  498MOL0     O67154   1.672   1.732   7.430  0.4069  0.8021 -0.3557
  498MOL0     C67155   1.669   1.638   7.316 -0.4361  0.3173  0.4570
  498MOL0     C67156   1.801   1.627   7.227  0.3408  0.3988 -0.1552
  498MOL0     C67157   1.871   1.758   7.224  0.5260  0.1515 -0.5856
  498MOL0     C67158   1.956   1.820   7.335  0.7617 -0.0858 -0.2272
  498MOL0     C67159   2.101   1.830   7.293  0.5460  0.1414  0.6313
  498MOL0     C67160   2.207   1.843   7.238  0.5854  0.9286  0.3847
  498MOL0     C67161   1.688   1.560   7.601  0.1254 -0.2541 -0.4150
  498MOL0     C67162   1.663   1.525   7.732 -0.5678 -0.7578  0.4381
  498MOL0     H67163   1.740   1.413   8.190  0.6789 -3.0352  1.0400
  498MOL0     H67164   1.656   1.337   8.409 -0.9219 -1.4742  0.5311
  498MOL0     H67165   1.261   1.377   8.507  0.2202  1.5115  1.3725
  498MOL0     H67166   1.234   1.202   8.481  0.9167 -0.4340  0.1387
  498MOL0     H67167   1.349   1.146   8.697 -2.0458  0.7111  3.3580
  498MOL0     H67168   1.398   1.307   8.708 -0.1545 -0.4680  2.8477
  498MOL0     H67169   1.143   1.359   8.704  2.8161  2.0951  0.9816
  498MOL0     H67170   1.131   1.172   8.713 -1.6021 -1.3593  2.1887
  498MOL0     H67171   1.287   1.211   8.932 -0.0196 -1.2987 -2.2574
  498MOL0     H67172   1.244   1.380   8.910 -1.9627 -1.0376  1.6206
  498MOL0     H67173   1.019   1.338   8.950 -0.6931 -0.4641  1.9029
  498MOL0     H67174   1.020   1.160   8.917  0.4086 -0.3178 -0.9746
  498MOL0     H67175   1.151   1.134   9.136 -0.7335 -0.6979  0.0625
  498MOL0     H67176   1.160   1.308   9.158  0.5783 -0.9519 -0.5597
  498MOL0     H67177   0.920   1.321   9.175 -0.2313 -0.8541  1.0975
  498MOL0     H67178   0.896   1.156   9.127  1.0942  0.3793 -1.1544
  498MOL0     H67179   1.036   1.241   9.386 -0.1435 -0.6172  0.7046
  498MOL0     H67180   1.043   1.078   9.319 -1.7836 -0.5150 -2.5915
  498MOL0     H67181   0.776   0.989   9.249 -3.5960  0.5772 -1.6355
  498MOL0     H67182   0.468   0.958   9.503 -0.1702  1.9925 -1.6636
  498MOL0     H67183   0.506   0.915   9.342  0.3596  6.0084 -1.9771
  498MOL0     H67184   0.654   0.784   9.592  0.6784 -0.7185  0.2681
  498MOL0     H67185   0.704   0.777   9.440  1.8043  1.5968  2.9124
  498MOL0     H67186   0.467   0.668   9.372  1.5387  4.1135  0.7435
  498MOL0     H67187   0.434   0.689   9.549 -0.4551 -2.3871  2.4506
  498MOL0     H67188   0.666   0.518   9.423 -0.7407 -2.0235 -0.8370
  498MOL0     H67189   0.518   0.461   9.507 -3.5427  3.6381  1.2010
  498MOL0     H67190   0.769   0.513   9.871  0.5476  1.8289 -1.8405
  498MOL0     H67191   0.985   0.304  10.008 -0.8983 -1.7787 -0.2140
  498MOL0     H67192   0.846   0.417  10.062  0.4649 -0.1492  2.2330
  498MOL0     H67193   0.845   0.247  10.091 -1.3625 -0.1597 -0.5043
  498MOL0     H67194   0.812  -0.195  10.026 -0.9967 -0.9580 -0.2233
  498MOL0     H67195   0.939  -0.406  10.080  1.6413 -0.5175  0.0672
  498MOL0     H67196   1.329  -0.420   9.913 -0.2630  1.0732  0.6443
  498MOL0     H67197   1.393  -0.358  10.074  3.0745 -1.7881  0.7257
  498MOL0     H67198   1.338  -0.629   9.958 -0.6065 -0.1277 -0.0612
  498MOL0     H67199   1.495  -0.574  10.020 -0.0215 -0.4813 -0.7145
  498MOL0     H67200   1.262  -0.685  10.166  0.5206  0.2724 -0.8491
  498MOL0     H67201   1.380  -0.600  10.261  1.0484  2.4300 -0.9794
  498MOL0     H67202   1.474  -0.825  10.083 -2.2145  0.4275 -1.1080
  498MOL0     H67203   1.549  -0.760  10.223  0.9596 -0.0308 -1.2930
  498MOL0     H67204   1.449  -0.980  10.258  2.1491  1.0049  0.6014
  498MOL0     H67205   1.279  -0.911  10.227  0.3866  1.7802 -0.7876
  498MOL0     H67206   1.294  -0.783  10.420  0.9474  1.0290 -0.9583
  498MOL0     H67207   1.322  -0.964  10.439 -2.7041 -0.2069 -3.3927
  498MOL0     H67208   1.505  -0.722  10.466  0.2363 -0.3831  0.8033
  498MOL0     H67209   1.579  -0.880  10.442  0.7040 -1.9233  2.5404
  498MOL0     H67210   1.510  -0.964  10.649 -0.6065 -0.5630  3.4714
  498MOL0     H67211   1.366  -0.856  10.658  0.7312  2.4014 -1.4066
  498MOL0     H67212   1.306  -0.183  10.036  0.8109 -1.7437 -1.7390
  498MOL0     H67213   1.172   0.026  10.003  1.2267 -0.1147  0.0602
  498MOL0     H67214   0.768   0.101   9.609  0.6186 -2.5714  2.3945
  498MOL0     H67215   0.648   0.280   9.522 -1.0837  0.7425  0.1994
  498MOL0     H67216   1.255   1.311   8.274  1.1219 -3.6739  1.3411
  498MOL0     H67217   1.323   1.401   8.064 -2.3646 -0.6961  1.5012
  498MOL0     H67218   1.566   1.837   7.835  2.0036 -1.1341  1.3169
  498MOL0     H67219   1.620   1.889   7.617 -3.6161  0.4203  2.2251
  498MOL0     H67220   1.624   1.543   7.348  0.3190 -0.4887 -0.7852
  498MOL0     H67221   1.596   1.681   7.247 -0.7394  2.3294  1.9399
  498MOL0     H67222   1.766   1.604   7.126 -5.6359 -0.8176  1.7698
  498MOL0     H67223   1.868   1.550   7.268 -1.7751  0.0978  3.1209
  498MOL0     H67224   1.800   1.833   7.186 -3.8225 -2.7747  0.9782
  498MOL0     H67225   1.951   1.739   7.152  3.9601 -2.0391  3.4225
  498MOL0     H67226   1.953   1.755   7.423 -2.4384 -2.0280 -1.5929
  498MOL0     H67227   1.912   1.910   7.378  1.7997 -0.2470  1.2304
  498MOL0     H67228   2.300   1.861   7.189  0.9242 -3.5278 -1.0364
  498MOL0     H67229   1.712   1.482   7.530 -0.5393 -1.9175  1.1140
  498MOL0     H67230   1.672   1.419   7.755  3.6038 -0.9190 -0.9785
  499MOL0     O67231   1.581   2.112   7.692 -0.7848  0.1989  0.0829
  499MOL0     C67232   1.583   2.232   7.659  0.6632 -0.4819  0.4824
  499MOL0     O67233   1.565   2.334   7.741  0.3474 -1.2247 -0.6177
  499MOL0     C67234   1.491   2.327   7.854  0.0558  0.7016 -0.8320
  499MOL0     C67235   1.499   2.442   7.930  0.1009 -0.4623  0.2610
  499MOL0     C67236   1.436   2.447   8.059  0.3886  0.5767  0.2665
  499MOL0     C67237   1.353   2.336   8.104 -0.2140  1.3031 -0.7044
  499MOL0     O67238   1.285   2.322   8.220 -1.0090 -0.6833  0.2632
  499MOL0     C67239   1.142   2.319   8.202  0.2816 -0.0173  0.0384
  499MOL0     C67240   1.070   2.358   8.332 -0.2842  0.4703 -1.1064
  499MOL0     C67241   1.104   2.500   8.368  0.0604  0.1708  0.0682
  499MOL0     C67242   1.240   2.526   8.436  0.6921  0.0900 -1.0849
  499MOL0     C67243   1.246   2.650   8.526 -0.4830 -0.5663 -0.3040
  499MOL0     C67244   1.148   2.644   8.652  0.6682  0.8476  0.3590
  499MOL0     C67245   1.063   2.780   8.658  0.1229 -0.4806  0.5922
  499MOL0     C67246   0.967   2.783   8.775  0.5368 -0.1855 -0.2568
  499MOL0     N67247   0.885   2.666   8.784  0.2924 -0.4410 -1.4516
  499MOL0     C67248   0.810   2.627   8.680 -0.2836 -0.9756 -0.2198
  499MOL0     C67249   0.788   2.497   8.697 -0.3362 -0.2306 -0.7584
  499MOL0     C67250   0.710   2.411   8.606 -0.6288  0.0592  0.0063
  499MOL0     C67251   0.556   2.432   8.624 -0.0254 -0.7870 -0.1720
  499MOL0     C67252   0.483   2.346   8.522 -0.7647 -0.7530  0.1637
  499MOL0     C67253   0.500   2.195   8.554 -0.6599  1.1129  0.0288
  499MOL0     O67254   0.401   2.115   8.494 -0.1817 -0.1724  0.6307
  499MOL0     C67255   0.405   2.089   8.357 -0.5274 -0.3519  0.9137
  499MOL0     C67256   0.302   2.005   8.307 -0.6246  0.5075  0.2023
  499MOL0     C67257   0.305   1.956   8.175  0.3514  0.6736  0.2631
  499MOL0     C67258   0.180   1.875   8.135 -0.1122 -0.2625 -0.6489
  499MOL0     C67259   0.409   2.001   8.082  0.0982  1.1414  0.6876
  499MOL0     C67260   0.420   1.965   7.940 -0.7766  0.1055  0.4941
  499MOL0     O67261   0.546   1.966   7.888  0.3394 -1.0777  0.5502
  499MOL0     C67262   0.587   1.938   7.759 -0.0970  0.5240 -0.9524
  499MOL0     C67263   0.722   1.948   7.753  0.3993 -0.3667  0.7826
  499MOL0     C67264   0.780   1.911   7.623  0.5527  0.3681 -0.4250
  499MOL0     C67265   0.706   1.889   7.509  0.7320  0.1702 -0.6375
  499MOL0     O67266   0.758   1.868   7.388 -0.0695  0.1114 -0.4672
  499MOL0     C67267   0.899   1.894   7.372 -0.1828 -0.5537  0.1496
  499MOL0     C67268   0.941   1.927   7.226 -0.5019 -0.3660 -0.5738
  499MOL0     C67269   0.960   1.803   7.137 -0.6501 -0.6066 -0.2276
  499MOL0     C67270   1.053   1.842   7.018  0.0478  0.8153  0.0521
  499MOL0     C67271   0.997   1.950   6.920 -0.8040  0.2031  0.7623
  499MOL0     C67272   0.841   1.944   6.894  0.9401  1.4001  0.2254
  499MOL0     C67273   0.805   2.035   6.765 -0.5975 -0.1275 -0.6714
  499MOL0     C67274   0.675   1.997   6.699 -0.1516 -0.3602  0.3005
  499MOL0    Cl67275   0.590   2.137   6.622  0.0090  0.0152 -0.0614
  499MOL0     C67276   0.561   1.895   7.519 -0.3760  0.2589 -0.1483
  499MOL0     C67277   0.507   1.919   7.643 -0.2116 -0.3682  0.7558
  499MOL0     O67278   0.318   1.945   7.877 -0.7213 -0.0642  0.5136
  499MOL0     C67279   0.509   2.081   8.136 -0.0941 -0.7336 -0.4341
  499MOL0     C67280   0.504   2.120   8.267 -0.4841  0.7236 -0.1324
  499MOL0     N67281   0.812   2.468   8.835 -0.3521  0.3331 -1.0686
  499MOL0     N67282   0.871   2.576   8.884  0.5642 -0.3354 -0.6176
  499MOL0     C67283   1.355   2.221   8.023 -0.1551 -0.4549 -0.3294
  499MOL0     C67284   1.430   2.210   7.907  0.0107  0.8842 -0.8570
  499MOL0     C67285   1.604   2.264   7.512 -0.5769 -1.0035 -0.4046
  499MOL0     C67286   1.640   2.164   7.413 -0.4651 -0.0321  0.4578
  499MOL0     C67287   1.645   2.197   7.282  0.3309 -0.2079 -0.0977
  499MOL0     C67288   1.632   2.329   7.244  0.7627 -1.0703 -0.0012
  499MOL0     O67289   1.660   2.347   7.112  0.2058 -0.4374  0.4587
  499MOL0     C67290   1.645   2.467   7.043  1.3822 -0.6317 -0.8787
  499MOL0     C67291   1.633   2.439   6.891  0.4972  0.1150  0.1818
  499MOL0     C67292   1.755   2.356   6.831  0.2881 -0.4727  0.6485
  499MOL0     C67293   1.763   2.358   6.668 -0.6358 -0.1642  0.0479
  499MOL0     C67294   1.875   2.283   6.626  0.7000  0.3127  1.3184
  499MOL0     C67295   1.976   2.224   6.587 -0.1604  0.2135 -0.0602
  499MOL0     C67296   1.589   2.429   7.329 -0.6974  1.2321  0.2821
  499MOL0     C67297   1.580   2.402   7.467  0.4160 -0.2020  0.4733
  499MOL0     H67298   1.547   2.533   7.897  0.4338 -0.3851  0.9378
  499MOL0     H67299   1.447   2.539   8.116  2.5644  0.4831  0.1011
  499MOL0     H67300   1.110   2.384   8.120 -0.3212  1.7749  1.6099
  499MOL0     H67301   1.116   2.218   8.170  0.1633  0.5959 -1.9466
  499MOL0     H67302   0.962   2.340   8.329 -0.1040 -1.9809  2.1618
  499MOL0     H67303   1.109   2.288   8.407 -2.3227  0.0569 -0.3835
  499MOL0     H67304   1.103   2.567   8.282  3.0013 -0.6113 -0.6939
  499MOL0     H67305   1.020   2.538   8.427  1.3008 -0.0053  2.0440
  499MOL0     H67306   1.264   2.435   8.491 -0.3835  1.1645  1.3358
  499MOL0     H67307   1.322   2.535   8.365 -0.2588  0.5681 -2.1380
  499MOL0     H67308   1.350   2.668   8.555  0.5993 -0.2072 -3.9706
  499MOL0     H67309   1.223   2.737   8.465 -0.9445 -1.7434 -1.8632
  499MOL0     H67310   1.073   2.569   8.626  0.3432  1.6148 -1.0371
  499MOL0     H67311   1.212   2.628   8.738  3.2175  0.7728 -1.4277
  499MOL0     H67312   1.131   2.865   8.655 -0.4001 -0.0729  0.0739
  499MOL0     H67313   0.997   2.790   8.571 -0.4962 -1.3814  0.9407
  499MOL0     H67314   0.908   2.875   8.771  2.5354  1.1256 -2.2237
  499MOL0     H67315   1.036   2.798   8.859 -0.9301  0.8924  0.8102
  499MOL0     H67316   0.789   2.677   8.586  2.9714 -0.7911 -0.9691
  499MOL0     H67317   0.735   2.421   8.499 -3.8710 -3.6359 -1.3389
  499MOL0     H67318   0.740   2.310   8.635  0.4387  0.1643 -0.6652
  499MOL0     H67319   0.546   2.538   8.600  0.7115 -1.4821 -4.1730
  499MOL0     H67320   0.525   2.412   8.727  1.4129 -0.0512  0.4370
  499MOL0     H67321   0.515   2.358   8.418  1.6607 -1.8605  0.7335
  499MOL0     H67322   0.375   2.363   8.527 -0.7093 -0.4010  0.2199
  499MOL0     H67323   0.505   2.187   8.663  3.6875  0.1585 -0.0663
  499MOL0     H67324   0.592   2.155   8.510 -1.9331  1.1693 -2.8466
  499MOL0     H67325   0.230   1.976   8.383 -0.3209 -0.7082  0.0437
  499MOL0     H67326   0.183   1.807   8.049 -1.4718 -0.1720 -0.8008
  499MOL0     H67327   0.145   1.819   8.223  0.0938  1.8876  0.8687
  499MOL0     H67328   0.112   1.957   8.109 -3.4375 -2.4808  0.3297
  499MOL0     H67329   0.785   1.970   7.838 -3.1418  2.3028  3.0277
  499MOL0     H67330   0.887   1.922   7.611  0.3849  2.9841  0.0331
  499MOL0     H67331   0.909   1.990   7.425 -1.0680  1.3242 -2.8595
  499MOL0     H67332   0.959   1.819   7.423 -0.3182  1.1674  3.1042
  499MOL0     H67333   0.861   1.987   7.181  1.7079  1.0970 -2.7830
  499MOL0     H67334   1.028   1.992   7.225 -0.3818 -0.4775  0.7648
  499MOL0     H67335   0.866   1.762   7.100  1.1443 -0.7441 -5.5714
  499MOL0     H67336   1.018   1.732   7.196  3.7691  1.9370 -1.0309
  499MOL0     H67337   1.149   1.883   7.053  0.3258 -0.8969  1.4603
  499MOL0     H67338   1.075   1.748   6.968 -3.6634 -0.0191 -0.2643
  499MOL0     H67339   1.048   1.942   6.823 -2.5248 -2.5298 -0.0259
  499MOL0     H67340   1.032   2.042   6.967  0.8216 -0.7216  1.4427
  499MOL0     H67341   0.814   1.842   6.866  1.2218  1.6550 -1.0329
  499MOL0     H67342   0.785   1.981   6.980 -0.8742 -0.8691  0.1077
  499MOL0     H67343   0.891   2.050   6.699  0.5026 -0.1762  0.7136
  499MOL0     H67344   0.784   2.135   6.804 -0.2389  0.2940 -1.5359
  499MOL0     H67345   0.605   1.958   6.774  1.0603 -1.6092  0.8143
  499MOL0     H67346   0.694   1.909   6.637  1.6146 -0.2201  0.5807
  499MOL0     H67347   0.496   1.891   7.432 -0.7307  2.2673 -0.0187
  499MOL0     H67348   0.400   1.929   7.659  0.3013  0.6385  4.4337
  499MOL0     H67349   0.587   2.110   8.067  0.1261 -0.9867 -0.2914
  499MOL0     H67350   0.592   2.173   8.303  1.3999 -2.1818 -0.1121
  499MOL0     H67351   1.280   2.144   8.040 -0.2882 -0.2539 -0.0008
  499MOL0     H67352   1.436   2.110   7.864  0.1362  1.4265 -2.1597
  499MOL0     H67353   1.668   2.062   7.436  2.3537  0.5782  0.1237
  499MOL0     H67354   1.674   2.111   7.223 -0.5945 -1.9487  1.8342
  499MOL0     H67355   1.548   2.510   7.071  1.3931 -2.3964  2.3240
  499MOL0     H67356   1.731   2.533   7.059  0.9185  0.3108 -2.0835
  499MOL0     H67357   1.625   2.530   6.830  0.8995  1.3319  1.8642
  499MOL0     H67358   1.540   2.382   6.881 -0.0238  0.9858 -0.0836
  499MOL0     H67359   1.760   2.253   6.869  0.7261 -0.7610 -0.1678
  499MOL0     H67360   1.847   2.399   6.870 -0.6058  2.1819  0.0259
  499MOL0     H67361   1.786   2.463   6.649  3.1977  0.1347  4.3909
  499MOL0     H67362   1.670   2.324   6.621 -1.2794  1.4644  0.0944
  499MOL0     H67363   2.059   2.176   6.539 -1.3194 -0.2203 -1.7587
  499MOL0     H67364   1.560   2.521   7.278 -2.3417 -0.8522 -2.8141
  499MOL0     H67365   1.538   2.475   7.535  0.3445 -0.4671  0.7167
  500MOL0     O67366   0.049   7.133   8.386 -0.5701  0.5019 -0.6054
  500MOL0     C67367   0.086   7.148   8.506  0.7579  0.6003  1.3541
  500MOL0     O67368   0.105   7.053   8.598  0.4966 -0.4999  0.5298
  500MOL0     C67369   0.058   6.923   8.575  1.1550 -0.0644  0.2999
  500MOL0     C67370   0.086   6.839   8.687  0.8051  0.4042  0.3489
  500MOL0     C67371   0.068   6.700   8.690  0.8798 -0.0151 -0.3422
  500MOL0     C67372   0.010   6.642   8.574  0.0509  0.0073 -0.1247
  500MOL0     O67373  -0.012   6.508   8.563 -0.3674  0.5290 -0.8256
  500MOL0     C67374   0.113   6.427   8.594 -0.3517  0.0588  0.4598
  500MOL0     C67375   0.115   6.277   8.546  1.2954 -0.5746 -0.0188
  500MOL0     C67376   0.083   6.258   8.394  0.2140 -0.3120  0.6332
  500MOL0     C67377   0.192   6.300   8.296  0.0483 -0.4332  0.2126
  500MOL0     C67378   0.164   6.248   8.151  0.0054  0.3513 -0.1864
  500MOL0     C67379   0.260   6.320   8.061  0.2708  0.0393  0.2802
  500MOL0     C67380   0.187   6.431   7.982  0.3794  0.9775 -0.5753
  500MOL0     C67381   0.140   6.552   8.061 -0.7425  0.8407  0.2604
  500MOL0     N67382   0.111   6.668   7.969  0.3067 -0.8264  0.0948
  500MOL0     C67383   0.060   6.790   8.013  0.4799  0.1175 -0.1941
  500MOL0     C67384   0.030   6.861   7.894 -1.0542  0.8073  0.5289
  500MOL0     C67385  -0.027   7.001   7.894 -0.0537  0.3292  0.6764
  500MOL0     C67386  -0.084   7.063   8.018 -0.9282 -0.6441 -0.2204
  500MOL0     C67387  -0.123   7.212   8.002  0.7409  0.1873 -1.0974
  500MOL0     C67388  -0.168   7.280   8.139 -0.5684  0.2623  0.4047
  500MOL0     O67389  -0.290   7.221   8.191 -0.2575  0.0563 -0.4710
  500MOL0     C67390  -0.317   7.268   8.312  0.1740 -0.8283  0.1582
  500MOL0     C67391  -0.380   7.388   8.326  0.3968  0.0670 -0.0554
  500MOL0     C67392  -0.385   7.454   8.454 -0.4407  0.2892 -0.2435
  500MOL0     C67393  -0.454   7.585   8.476  0.6873  0.4817  0.1988
  500MOL0     C67394  -0.331   7.386   8.573  0.5815  0.2162  0.3969
  500MOL0     C67395  -0.335   7.439   8.705  0.6592  0.1772 -0.1909
  500MOL0     O67396  -0.217   7.423   8.777 -0.0006  0.0260 -0.1500
  500MOL0     C67397  -0.223   7.472   8.899  0.0362  0.5087  0.7103
  500MOL0     C67398  -0.277   7.396   8.998 -0.3595  1.2096 -1.7748
  500MOL0     C67399  -0.253   7.431   9.134 -0.5203  0.5158  1.0028
  500MOL0     C67400  -0.161   7.528   9.176 -1.1988 -0.7552  1.0461
  500MOL0     O67401  -0.139   7.538   9.313 -0.0198 -0.5839 -0.1457
  500MOL0     C67402  -0.034   7.618   9.366 -0.9930  0.3182 -0.3011
  500MOL0     C67403  -0.007   7.581   9.514  0.0782 -0.2322 -0.8751
  500MOL0     C67404  -0.125   7.574   9.609 -0.4235 -0.1846 -0.1319
  500MOL0     C67405  -0.082   7.574   9.754 -0.2287 -0.0461 -0.3937
  500MOL0     C67406  -0.196   7.603   9.854  0.2189 -0.2670 -0.5603
  500MOL0     C67407  -0.340   7.575   9.807  0.3611 -0.0205  0.2992
  500MOL0     C67408  -0.447   7.575   9.921  0.2688 -1.3819  0.2928
  500MOL0     C67409  -0.598   7.582   9.868 -0.4516  0.7282  0.8165
  500MOL0    Cl67410  -0.636   7.747   9.830  0.3971 -0.0500 -0.1403
  500MOL0     C67411  -0.111   7.606   9.069 -0.7567  0.5786  0.0809
  500MOL0     C67412  -0.140   7.574   8.936  0.2876  0.7203 -2.0468
  500MOL0     O67413  -0.438   7.489   8.752 -0.5829  0.5422 -0.2139
  500MOL0     C67414  -0.262   7.264   8.544  0.3832  0.3558 -0.3718
  500MOL0     C67415  -0.264   7.205   8.422  0.1417  0.5230  1.9011
  500MOL0     N67416   0.057   6.777   7.791  0.0307  1.1251 -0.6310
  500MOL0     N67417   0.109   6.666   7.833  0.2436  0.1449 -1.3266
  500MOL0     C67418  -0.038   6.718   8.468 -1.1536  0.0866  0.9616
  500MOL0     C67419  -0.004   6.860   8.468 -0.3285  0.2049 -0.0867
  500MOL0     C67420   0.101   7.284   8.543  0.3402 -0.0765  0.1551
  500MOL0     C67421   0.125   7.313   8.680 -0.1841  0.2559  1.3312
  500MOL0     C67422   0.133   7.449   8.719 -0.1205  0.2917 -0.6627
  500MOL0     C67423   0.114   7.559   8.631  0.5030 -0.1959  0.5402
  500MOL0     O67424   0.103   7.687   8.672 -0.2072 -0.3870 -0.1853
  500MOL0     C67425   0.022   7.790   8.614  0.9481  0.5243  0.3834
  500MOL0     C67426   0.057   7.928   8.679  0.0142  0.7372 -0.5790
  500MOL0     C67427   0.001   7.937   8.818  0.1125  0.7684 -0.0369
  500MOL0     C67428   0.067   8.048   8.892 -0.2055  0.3609  0.1363
  500MOL0     C67429  -0.018   8.127   8.982 -0.5643  0.3649  0.7083
  500MOL0     C67430  -0.096   8.192   9.040 -1.3220 -0.7575 -0.3156
  500MOL0     C67431   0.107   7.532   8.497 -0.2862  0.7140 -0.4236
  500MOL0     C67432   0.097   7.394   8.457 -0.1996 -0.0977 -1.2021
  500MOL0     H67433   0.127   6.893   8.771 -1.0874 -0.3981  1.8842
  500MOL0     H67434   0.082   6.647   8.783 -0.0179  3.1655  1.7493
  500MOL0     H67435   0.188   6.483   8.537 -1.8220  0.3857 -1.2727
  500MOL0     H67436   0.132   6.423   8.701 -1.1952  2.0373  0.7380
  500MOL0     H67437   0.213   6.232   8.564  1.3814 -0.2457  0.3389
  500MOL0     H67438   0.029   6.228   8.593  0.1970  1.1544 -0.1438
  500MOL0     H67439   0.074   6.151   8.376  1.7645 -0.4283  0.3546
  500MOL0     H67440  -0.006   6.311   8.361  0.7320  1.5028  1.9610
  500MOL0     H67441   0.192   6.410   8.299 -0.2203 -0.4134 -0.3317
  500MOL0     H67442   0.283   6.255   8.336  0.7911  0.1619 -0.7334
  500MOL0     H67443   0.173   6.140   8.136  2.0447  0.6947 -1.9163
  500MOL0     H67444   0.060   6.272   8.128 -0.3336 -0.4443  0.5053
  500MOL0     H67445   0.356   6.344   8.110 -0.3152 -0.2410  1.6192
  500MOL0     H67446   0.284   6.243   7.987 -0.6719 -0.3808  0.4013
  500MOL0     H67447   0.252   6.459   7.899 -1.8871  3.1948 -1.7277
  500MOL0     H67448   0.096   6.391   7.936 -2.6558  4.6388  1.6100
  500MOL0     H67449   0.203   6.585   8.144  1.1196 -1.0807 -0.2959
  500MOL0     H67450   0.052   6.520   8.116  0.7032  0.9722  2.8164
  500MOL0     H67451   0.056   6.827   8.115 -2.2663  0.2164 -0.2559
  500MOL0     H67452   0.057   7.064   7.863  0.9165 -1.9531 -1.6799
  500MOL0     H67453  -0.100   7.003   7.812  0.2256 -0.6306  0.3855
  500MOL0     H67454  -0.022   7.046   8.106 -0.4427 -1.3518 -0.6910
  500MOL0     H67455  -0.176   7.008   8.039 -0.8135 -0.7040  0.1230
  500MOL0     H67456  -0.207   7.206   7.932 -1.4003 -0.3693  1.3703
  500MOL0     H67457  -0.050   7.277   7.953  0.9262  2.1089  1.5385
  500MOL0     H67458  -0.188   7.384   8.111 -0.2299 -0.6132 -3.8605
  500MOL0     H67459  -0.078   7.284   8.201 -0.9931 -0.2029  1.0590
  500MOL0     H67460  -0.427   7.434   8.240 -3.9461 -2.5398  0.6566
  500MOL0     H67461  -0.410   7.640   8.559 -1.4332  1.1561  0.9500
  500MOL0     H67462  -0.447   7.651   8.389  2.6658 -1.4555 -1.2215
  500MOL0     H67463  -0.556   7.550   8.495  0.2165  1.8062  0.1776
  500MOL0     H67464  -0.338   7.312   8.967  2.8627 -2.3447  0.6390
  500MOL0     H67465  -0.296   7.367   9.209  0.3322 -0.2839  0.8336
  500MOL0     H67466   0.056   7.585   9.313 -2.4656 -3.0430 -1.0008
  500MOL0     H67467  -0.058   7.723   9.348 -1.6800 -0.0731 -1.8860
  500MOL0     H67468   0.046   7.487   9.531  2.0837  1.3423  2.6444
  500MOL0     H67469   0.055   7.665   9.547 -0.6414  0.6765 -1.7936
  500MOL0     H67470  -0.187   7.485   9.594 -0.4245 -0.1170 -0.5416
  500MOL0     H67471  -0.177   7.668   9.586 -0.6890 -0.5889 -1.2324
  500MOL0     H67472  -0.053   7.470   9.775  0.7143  0.7842  3.1408
  500MOL0     H67473   0.010   7.631   9.773 -0.3753 -0.5761  2.2623
  500MOL0     H67474  -0.183   7.710   9.875  2.5638  0.4235 -4.5404
  500MOL0     H67475  -0.176   7.539   9.940  1.5607 -1.9962 -2.0810
  500MOL0     H67476  -0.371   7.648   9.731 -0.4879 -2.3666 -1.7288
  500MOL0     H67477  -0.359   7.481   9.754 -2.9171  0.9069 -0.4215
  500MOL0     H67478  -0.424   7.666   9.977 -0.5243 -1.9027  1.5057
  500MOL0     H67479  -0.429   7.491   9.988 -2.6669 -2.6664 -0.3746
  500MOL0     H67480  -0.653   7.541   9.953  2.1980 -3.4144  0.8333
  500MOL0     H67481  -0.622   7.512   9.787 -0.1622 -0.8789  2.0581
  500MOL0     H67482  -0.027   7.674   9.077 -1.4999  2.2127 -3.7180
  500MOL0     H67483  -0.087   7.616   8.851  1.3311  0.1166 -1.7190
  500MOL0     H67484  -0.213   7.205   8.621  0.9250  0.2002 -0.8323
  500MOL0     H67485  -0.232   7.103   8.402 -2.7869  0.0352 -1.1007
  500MOL0     H67486  -0.069   6.666   8.379  2.1561  0.6596 -0.6994
  500MOL0     H67487  -0.025   6.916   8.377  1.6921 -2.8773 -2.6884
  500MOL0     H67488   0.128   7.233   8.753 -1.0017 -1.0667 -0.0225
  500MOL0     H67489   0.153   7.461   8.824 -0.2111  0.1329 -0.6276
  500MOL0     H67490   0.061   7.780   8.512  0.6621 -1.2276  0.4170
  500MOL0     H67491  -0.086   7.774   8.619  0.9713  0.7209  1.9249
  500MOL0     H67492   0.023   8.007   8.612  1.8106 -0.2848 -2.8310
  500MOL0     H67493   0.165   7.941   8.688  0.1143 -0.4068  0.0301
  500MOL0     H67494   0.010   7.847   8.880  1.8235 -0.3002 -1.7109
  500MOL0     H67495  -0.106   7.955   8.808  0.1627  2.0648  1.3825
  500MOL0     H67496   0.111   8.119   8.821  5.2581 -2.7791 -0.2204
  500MOL0     H67497   0.144   8.003   8.955 -0.8941 -1.1460 -0.0609
  500MOL0     H67498  -0.174   8.241   9.095 -1.6678 -2.9410  1.2526
  500MOL0     H67499   0.104   7.602   8.413 -0.9805  0.2831 -0.7684
  500MOL0     H67500   0.083   7.390   8.349  0.0234 -1.9295 -1.1978
  501MOL0     O67501   7.801   6.631   5.117  0.7282 -0.0200  0.0722
  501MOL0     C67502   7.893   6.680   5.174  0.6127 -0.4004 -0.6264
  501MOL0     O67503   7.940   6.803   5.146  0.0769 -0.0296 -0.1566
  501MOL0     C67504   7.910   6.897   5.045 -0.6571  0.5888 -0.2586
  501MOL0     C67505   7.967   7.019   5.050 -0.1139 -0.1661  0.6071
  501MOL0     C67506   7.958   7.109   4.946  0.5676  1.0892  0.3468
  501MOL0     C67507   7.894   7.069   4.826 -0.0269  0.0759 -1.0746
  501MOL0     O67508   7.874   7.154   4.715 -0.7150 -0.2477  0.5554
  501MOL0     C67509   7.888   7.293   4.744  0.2141  0.2405  0.6604
  501MOL0     C67510   7.826   7.358   4.622 -0.6824  0.1453  0.5212
  501MOL0     C67511   7.936   7.352   4.504 -0.4987 -0.7864 -0.9873
  501MOL0     C67512   7.902   7.407   4.370 -0.0744  1.1255  0.2806
  501MOL0     C67513   7.942   7.545   4.353 -0.1513 -0.9514  1.1115
  501MOL0     C67514   8.094   7.572   4.347  0.0528  0.3350 -0.4917
  501MOL0     C67515   8.111   7.717   4.309  0.7126 -0.2971  0.3504
  501MOL0     C67516   8.250   7.761   4.281 -0.2799  0.1731 -0.8982
  501MOL0     N67517   8.339   7.806   4.400  0.7513 -0.0529 -0.6722
  501MOL0     C67518   8.402   7.727   4.500 -0.0278 -1.1109  0.6257
  501MOL0     C67519   8.453   7.809   4.593  0.2500  0.6750  0.0433
  501MOL0     C67520   8.532   7.750   4.701 -1.0015  0.8011 -0.8335
  501MOL0     C67521   8.686   7.776   4.681  0.2470  0.7347 -0.4537
  501MOL0     C67522   8.744   7.689   4.571 -0.7270  0.1375 -0.1543
  501MOL0     C67523   8.890   7.721   4.556  0.0354 -1.2481  1.2748
  501MOL0     O67524   8.946   7.620   4.473 -1.1443 -0.2645 -0.3717
  501MOL0     C67525   9.079   7.601   4.477 -0.3372 -0.5313 -0.0139
  501MOL0     C67526   9.140   7.586   4.603 -0.3411  0.3411 -0.2015
  501MOL0     C67527   9.278   7.579   4.619  0.3265 -0.3579 -0.1018
  501MOL0     C67528   9.327   7.588   4.761  0.0760  0.6872  0.0268
  501MOL0     C67529   9.367   7.578   4.504 -0.0322 -0.0331 -0.5675
  501MOL0     C67530   9.518   7.561   4.521  0.8245  0.1614  0.1744
  501MOL0     O67531   9.583   7.540   4.400  0.5249 -0.9503 -0.3695
  501MOL0     C67532   9.715   7.561   4.393  0.2390 -0.1811 -0.3655
  501MOL0     C67533   9.807   7.486   4.462 -0.2855 -0.9665  1.1387
  501MOL0     C67534   9.943   7.514   4.459 -0.8453 -0.5444 -0.6981
  501MOL0     C67535   9.993   7.602   4.356  0.8332 -0.1547  1.0335
  501MOL0     O67536  10.126   7.620   4.355 -1.0103 -0.5144  0.9791
  501MOL0     C67537  10.181   7.751   4.337 -0.4007  0.6768 -0.0953
  501MOL0     C67538  10.316   7.719   4.285 -0.3398  0.7117  0.1799
  501MOL0     C67539  10.421   7.819   4.337  0.8320  0.9339  0.3371
  501MOL0     C67540  10.552   7.800   4.250  0.1553  0.2961 -1.2161
  501MOL0     C67541  10.666   7.878   4.318 -0.3277  0.1160  0.1257
  501MOL0     C67542  10.657   8.027   4.303 -0.0193 -0.0067  0.4374
  501MOL0     C67543  10.701   8.098   4.433  0.5321 -0.0263 -0.1357
  501MOL0     C67544  10.761   8.236   4.402  0.1485  0.0826 -0.3636
  501MOL0    Cl67545  10.941   8.216   4.363  0.0363 -0.3851  0.2429
  501MOL0     C67546   9.895   7.668   4.279  0.7356  1.8670 -0.1534
  501MOL0     C67547   9.758   7.639   4.288  0.4217 -0.4011 -0.3580
  501MOL0     O67548   9.572   7.555   4.634 -0.0799 -0.5105  0.2824
  501MOL0     C67549   9.306   7.600   4.372 -0.4982  0.8519 -0.1101
  501MOL0     C67550   9.161   7.610   4.373 -0.2531  0.3037  0.5512
  501MOL0     N67551   8.424   7.946   4.550 -0.0326  0.0777  0.6426
  501MOL0     N67552   8.355   7.938   4.439  0.6953  0.8903 -0.0133
  501MOL0     C67553   7.838   6.938   4.824  0.7885  0.6918  0.9480
  501MOL0     C67554   7.841   6.858   4.931 -0.1415  1.0431  0.2953
  501MOL0     C67555   7.937   6.618   5.298  0.6575 -0.2905 -0.3633
  501MOL0     C67556   7.907   6.487   5.330  0.1276 -0.4727  0.4343
  501MOL0     C67557   7.941   6.424   5.451  0.8471  0.7022  0.7373
  501MOL0     C67558   8.006   6.498   5.546 -0.3413 -0.7484 -0.4598
  501MOL0     O67559   8.025   6.464   5.674 -0.4300  0.4382  0.6844
  501MOL0     C67560   7.975   6.343   5.728 -0.6776 -0.3791 -0.2362
  501MOL0     C67561   8.039   6.328   5.867 -0.0453 -0.0077  0.1697
  501MOL0     C67562   7.991   6.190   5.924 -0.4289  0.3361  0.0225
  501MOL0     C67563   8.003   6.165   6.082  0.3329  0.0332 -0.2514
  501MOL0     C67564   8.145   6.175   6.113  0.0168 -0.1435 -0.5866
  501MOL0     C67565   8.268   6.183   6.130  0.0495  0.7383  0.1805
  501MOL0     C67566   8.035   6.634   5.519 -0.7603 -0.1208 -0.2922
  501MOL0     C67567   8.006   6.699   5.402 -0.4036  0.5246  0.1342
  501MOL0     H67568   8.027   7.054   5.133  1.2646 -2.7790  0.8212
  501MOL0     H67569   7.996   7.209   4.964  2.5340  0.4350  0.1269
  501MOL0     H67570   7.834   7.319   4.836 -1.6776 -0.5729 -0.1560
  501MOL0     H67571   7.991   7.321   4.766  0.8684 -1.5571  0.0952
  501MOL0     H67572   7.732   7.309   4.597 -0.9834  0.0316  1.8225
  501MOL0     H67573   7.810   7.466   4.625 -0.5814  0.1393  2.1082
  501MOL0     H67574   8.030   7.394   4.540 -2.1508  2.3010  0.0301
  501MOL0     H67575   7.941   7.242   4.499 -0.9753 -0.8586 -0.0645
  501MOL0     H67576   7.955   7.347   4.296  2.8319 -0.2742  3.2409
  501MOL0     H67577   7.794   7.389   4.362 -0.2792  1.7378  1.5291
  501MOL0     H67578   7.903   7.577   4.256  2.5594  0.4419  0.3819
  501MOL0     H67579   7.892   7.603   4.431 -0.7947  1.1251 -0.7156
  501MOL0     H67580   8.142   7.570   4.445  1.4203  1.4042 -1.1154
  501MOL0     H67581   8.152   7.504   4.285  2.6290  3.2221 -1.4780
  501MOL0     H67582   8.040   7.740   4.229  1.8900  1.1521 -0.3128
  501MOL0     H67583   8.069   7.777   4.390 -1.6547 -0.1743 -0.8538
  501MOL0     H67584   8.248   7.849   4.217  1.9004  1.4258  0.6103
  501MOL0     H67585   8.310   7.685   4.230  0.2259  0.6367 -1.0046
  501MOL0     H67586   8.402   7.619   4.494 -1.9062 -1.0993 -3.3770
  501MOL0     H67587   8.510   7.786   4.802 -0.1870 -1.5809  0.2526
  501MOL0     H67588   8.516   7.642   4.714 -0.6721  1.1186  3.6450
  501MOL0     H67589   8.750   7.758   4.768 -1.5951  5.1786  2.1254
  501MOL0     H67590   8.706   7.881   4.660  1.0745  0.8590  0.8373
  501MOL0     H67591   8.700   7.707   4.472  1.7152  2.0654 -0.9835
  501MOL0     H67592   8.736   7.585   4.601 -0.7270  0.6232  1.6169
  501MOL0     H67593   8.937   7.719   4.655  3.2816 -3.0732 -0.1335
  501MOL0     H67594   8.909   7.822   4.518  3.6196 -1.9707  0.7990
  501MOL0     H67595   9.078   7.568   4.690  0.6993 -0.5170  0.3727
  501MOL0     H67596   9.357   7.489   4.797 -1.2719 -0.3471 -1.5400
  501MOL0     H67597   9.405   7.662   4.776  2.1887 -1.5755  0.9988
  501MOL0     H67598   9.245   7.625   4.823  0.6816  4.0297 -0.9811
  501MOL0     H67599   9.778   7.408   4.532 -1.8017 -1.5262 -0.0409
  501MOL0     H67600  10.019   7.458   4.513  0.5491  1.5718 -0.3740
  501MOL0     H67601  10.134   7.815   4.261 -1.1877  0.2006 -0.0248
  501MOL0     H67602  10.177   7.801   4.434 -3.3752 -3.5600  2.3096
  501MOL0     H67603  10.349   7.618   4.312 -1.5801  0.0861 -0.5871
  501MOL0     H67604  10.318   7.718   4.176  1.3419  0.8342  0.1770
  501MOL0     H67605  10.455   7.801   4.440  5.9322  1.9793 -0.8752
  501MOL0     H67606  10.385   7.920   4.319 -1.4599 -0.5025 -4.9349
  501MOL0     H67607  10.586   7.697   4.237 -0.3163  0.0616 -0.6677
  501MOL0     H67608  10.538   7.832   4.147  1.8501 -2.8199 -2.5451
  501MOL0     H67609  10.751   7.853   4.254 -0.1566 -0.6724  0.6518
  501MOL0     H67610  10.695   7.844   4.417 -0.3495  3.0609  1.2370
  501MOL0     H67611  10.715   8.077   4.225 -2.6042  1.2408 -0.7984
  501MOL0     H67612  10.552   8.046   4.278  0.3277 -0.4658 -1.4586
  501MOL0     H67613  10.779   8.046   4.489  2.3169 -0.0113 -2.4660
  501MOL0     H67614  10.617   8.112   4.502  1.6917  1.2222  1.0914
  501MOL0     H67615  10.755   8.294   4.495 -0.4713  2.7240 -1.9599
  501MOL0     H67616  10.696   8.285   4.329 -0.3376  1.5266  0.9929
  501MOL0     H67617   9.935   7.748   4.218 -0.6803  0.3955 -3.2223
  501MOL0     H67618   9.682   7.683   4.224 -0.1298 -0.7614  0.0386
  501MOL0     H67619   9.369   7.589   4.284 -0.9833 -0.9911 -0.2698
  501MOL0     H67620   9.108   7.619   4.279  1.4355 -1.5390 -0.6662
  501MOL0     H67621   7.787   6.925   4.729 -1.4803  1.7912  1.9451
  501MOL0     H67622   7.788   6.763   4.927 -3.0940  2.2831  3.9612
  501MOL0     H67623   7.852   6.434   5.253 -2.1251  3.9325 -1.3524
  501MOL0     H67624   7.899   6.325   5.464  1.7533  0.0142 -1.1306
  501MOL0     H67625   7.866   6.330   5.721 -0.5692 -1.3968 -0.2906
  501MOL0     H67626   8.015   6.262   5.666  1.5582 -0.6917  1.4917
  501MOL0     H67627   8.021   6.406   5.941 -1.4998  0.0427 -0.2042
  501MOL0     H67628   8.145   6.320   5.840  0.2086 -1.7774  1.5272
  501MOL0     H67629   8.057   6.120   5.873 -0.4200 -1.8601  2.8252
  501MOL0     H67630   7.884   6.177   5.904 -0.5147  1.8110 -0.5964
  501MOL0     H67631   7.968   6.064   6.103 -2.2520  1.3884  2.7910
  501MOL0     H67632   7.933   6.218   6.147 -1.0165  0.6282 -2.1072
  501MOL0     H67633   8.373   6.180   6.149 -0.2770 -0.0561  2.0312
  501MOL0     H67634   8.073   6.697   5.599  0.7916 -2.1735  0.6966
  501MOL0     H67635   8.032   6.805   5.396 -2.5496  1.1990  1.5829
  502MOL0     O67636   5.180   8.989   5.144  0.7131  0.3660  0.4523
  502MOL0     C67637   5.159   8.977   5.024  0.8511  0.2852  0.0781
  502MOL0     O67638   5.060   8.909   4.967  0.3979 -0.3907  0.3196
  502MOL0     C67639   4.947   8.880   5.049  0.6134  0.1876  0.2440
  502MOL0     C67640   4.843   8.977   5.078  0.1723 -0.2769  0.5739
  502MOL0     C67641   4.732   8.945   5.152 -0.3534  0.1075  0.8780
  502MOL0     C67642   4.714   8.817   5.196  0.5555 -0.0994 -0.0694
  502MOL0     O67643   4.610   8.780   5.278 -0.2115  0.3169 -0.4346
  502MOL0     C67644   4.483   8.848   5.275 -0.3764 -0.1442 -0.1037
  502MOL0     C67645   4.382   8.774   5.360 -0.0284 -0.1763 -1.1917
  502MOL0     C67646   4.410   8.806   5.514 -0.4635 -0.7095  0.1325
  502MOL0     C67647   4.432   8.956   5.558 -0.0789 -0.4214 -0.0712
  502MOL0     C67648   4.402   8.981   5.707  0.7800  0.0146 -0.4460
  502MOL0     C67649   4.445   9.123   5.760 -0.5451 -0.4505 -0.0674
  502MOL0     C67650   4.376   9.166   5.894  0.3776 -0.7025 -0.2964
  502MOL0     C67651   4.434   9.308   5.940  0.4964 -0.4829 -0.3048
  502MOL0     N67652   4.575   9.319   5.983  0.1750  0.7196  0.3360
  502MOL0     C67653   4.665   9.429   5.974  0.5062  0.5932  0.0722
  502MOL0     C67654   4.773   9.401   6.043 -0.0899  0.3414 -0.4620
  502MOL0     C67655   4.898   9.498   6.050  0.4828 -0.0554 -0.1262
  502MOL0     C67656   4.898   9.594   6.169 -0.0858  0.1970 -0.3589
  502MOL0     C67657   4.765   9.656   6.195 -0.4166 -0.0061  0.2550
  502MOL0     C67658   4.688   9.587   6.307 -1.0759 -0.5128  0.7790
  502MOL0     O67659   4.582   9.677   6.339  0.4715  0.7195 -0.0876
  502MOL0     C67660   4.556   9.707   6.473  0.2749  0.8435 -0.6480
  502MOL0     C67661   4.497   9.833   6.488  0.3888 -0.0230  0.1859
  502MOL0     C67662   4.480   9.888   6.616 -0.0039  0.7272 -0.0013
  502MOL0     C67663   4.405  10.022   6.632 -0.0907 -0.2537  0.1970
  502MOL0     C67664   4.520   9.805   6.734 -0.2933 -0.3080 -0.1643
  502MOL0     C67665   4.515   9.859   6.873  0.0179 -0.8796  0.1579
  502MOL0     O67666   4.506   9.771   6.976  0.3834  0.8414  0.6141
  502MOL0     C67667   4.557   9.796   7.098  0.3609  0.1452  0.5469
  502MOL0     C67668   4.647   9.892   7.137 -0.0817 -0.4588  0.0966
  502MOL0     C67669   4.693   9.903   7.267 -0.0077 -1.2376  0.6945
  502MOL0     C67670   4.638   9.823   7.360  0.0202  0.2678  0.0522
  502MOL0     O67671   4.675   9.824   7.491 -0.0261 -0.3713 -1.3125
  502MOL0     C67672   4.811   9.837   7.539  0.5532  0.8118  1.2356
  502MOL0     C67673   4.882   9.694   7.530 -0.9394  0.1461  0.3234
  502MOL0     C67674   5.033   9.721   7.542  0.6214  0.3673  0.4446
  502MOL0     C67675   5.074   9.769   7.678  0.3697  0.5329 -0.2898
  502MOL0     C67676   5.117   9.644   7.762  0.3156  0.3620 -0.6291
  502MOL0     C67677   5.079   9.652   7.913 -0.5783 -1.4900  0.5022
  502MOL0     C67678   5.152   9.762   7.984  0.1969 -0.4600  0.6092
  502MOL0     C67679   5.155   9.748   8.143  0.8486 -0.3976  0.7776
  502MOL0    Cl67680   5.260   9.896   8.192  0.1586 -0.0667  0.3490
  502MOL0     C67681   4.541   9.730   7.329  0.3073  0.6257 -0.6183
  502MOL0     C67682   4.499   9.713   7.193  1.7545 -0.2703 -0.4065
  502MOL0     O67683   4.514   9.979   6.890 -0.5435 -1.0730  0.6164
  502MOL0     C67684   4.563   9.679   6.710 -0.0217 -0.2039 -0.6827
  502MOL0     C67685   4.589   9.630   6.582 -0.1782  0.0652 -0.1773
  502MOL0     N67686   4.737   9.298   6.132 -0.3695  1.1158  0.1183
  502MOL0     N67687   4.621   9.245   6.092 -0.2335  0.5881 -0.0132
  502MOL0     C67688   4.803   8.716   5.154 -0.7122 -0.0491  0.4108
  502MOL0     C67689   4.924   8.747   5.083 -0.7854 -0.3179  0.4067
  502MOL0     C67690   5.236   9.066   4.933 -0.5187  0.5703  1.1587
  502MOL0     C67691   5.237   9.046   4.794  0.1663  0.6483 -0.2142
  502MOL0     C67692   5.301   9.140   4.706 -1.4597  0.1533 -0.7077
  502MOL0     C67693   5.378   9.247   4.758 -0.6840 -0.1253  0.3466
  502MOL0     O67694   5.435   9.324   4.658 -0.5779  0.5582 -0.5909
  502MOL0     C67695   5.523   9.429   4.698 -0.4953  1.6127 -0.0322
  502MOL0     C67696   5.580   9.486   4.563  0.9467  0.5787 -0.2769
  502MOL0     C67697   5.699   9.588   4.583  0.7362 -0.2817  0.5130
  502MOL0     C67698   5.747   9.651   4.450 -0.6977  0.2381  0.8089
  502MOL0     C67699   5.803   9.546   4.361  0.5406  0.3231 -0.2231
  502MOL0     C67700   5.829   9.448   4.297  1.3985  0.1441  0.2596
  502MOL0     C67701   5.385   9.260   4.900 -0.3589  0.1386 -0.0292
  502MOL0     C67702   5.303   9.174   4.983 -0.9190 -0.3597 -0.9967
  502MOL0     H67703   4.855   9.083   5.056  0.6098 -0.3822  0.2936
  502MOL0     H67704   4.663   9.026   5.169 -0.5039 -0.1280  1.4310
  502MOL0     H67705   4.500   8.953   5.299  1.6953 -0.0301 -1.7572
  502MOL0     H67706   4.447   8.841   5.172 -1.6363 -0.4261  0.3401
  502MOL0     H67707   4.284   8.820   5.340  0.4256  1.6594  0.5393
  502MOL0     H67708   4.384   8.666   5.343  1.9871 -0.1076 -1.6946
  502MOL0     H67709   4.334   8.760   5.578  0.5757 -2.4677  0.1663
  502MOL0     H67710   4.497   8.754   5.553 -0.1802  0.6310  1.3626
  502MOL0     H67711   4.534   8.994   5.545 -1.0938  3.4268  1.7975
  502MOL0     H67712   4.375   9.028   5.499  2.6493  1.7400 -0.3079
  502MOL0     H67713   4.292   8.981   5.712  0.7397  0.5775 -1.1848
  502MOL0     H67714   4.435   8.900   5.774  3.4128  1.2945 -0.1051
  502MOL0     H67715   4.552   9.115   5.779 -0.3463 -1.5882 -1.4801
  502MOL0     H67716   4.426   9.201   5.685 -0.3090  0.2558  0.5927
  502MOL0     H67717   4.267   9.171   5.891  0.2604 -2.7595 -0.8701
  502MOL0     H67718   4.398   9.093   5.973  4.2215  2.1629  1.6320
  502MOL0     H67719   4.369   9.344   6.021 -1.8523 -2.0588 -1.3632
  502MOL0     H67720   4.419   9.376   5.855 -0.8268 -1.4435 -0.8816
  502MOL0     H67721   4.668   9.510   5.902 -4.6055  0.7048 -0.3796
  502MOL0     H67722   4.987   9.436   6.066  0.3469  0.1013  1.4234
  502MOL0     H67723   4.906   9.561   5.961  1.2628  0.2606  0.1529
  502MOL0     H67724   4.964   9.675   6.138  1.2591  0.0058  1.8409
  502MOL0     H67725   4.934   9.534   6.253 -1.1166  0.9248  0.6229
  502MOL0     H67726   4.696   9.670   6.111  1.5741  0.0173 -1.4427
  502MOL0     H67727   4.776   9.756   6.238  1.7645 -0.1701  0.1679
  502MOL0     H67728   4.751   9.571   6.395 -0.9662  2.3675  1.2933
  502MOL0     H67729   4.639   9.494   6.275  0.8801 -1.0238 -0.9952
  502MOL0     H67730   4.465   9.888   6.400  0.4946 -0.1621  0.0601
  502MOL0     H67731   4.470  10.107   6.657 -1.0785  0.5077  0.2256
  502MOL0     H67732   4.358  10.042   6.535 -0.0311  0.5854  0.3326
  502MOL0     H67733   4.335  10.010   6.715 -0.5883  1.2511  0.0275
  502MOL0     H67734   4.704   9.957   7.072 -0.6423  0.6468  0.6853
  502MOL0     H67735   4.773   9.973   7.288  1.1459 -1.2536 -2.9353
  502MOL0     H67736   4.875   9.912   7.492  0.5585  1.1800  1.8088
  502MOL0     H67737   4.803   9.869   7.644  0.3102 -2.4109  2.3333
  502MOL0     H67738   4.853   9.633   7.615  4.6788  0.3108  2.7667
  502MOL0     H67739   4.859   9.639   7.438  0.5440  1.6299 -1.0208
  502MOL0     H67740   5.057   9.793   7.463  0.6557 -0.1964 -0.0608
  502MOL0     H67741   5.082   9.627   7.515 -2.6827 -0.7038 -2.4999
  502MOL0     H67742   5.148   9.850   7.680 -1.4867  2.3290  2.4859
  502MOL0     H67743   4.989   9.809   7.735 -2.1650 -1.5593 -2.3265
  502MOL0     H67744   5.224   9.620   7.755  0.6299  0.7999  1.7831
  502MOL0     H67745   5.068   9.548   7.740  1.7925 -0.5131 -0.2793
  502MOL0     H67746   4.971   9.669   7.917 -0.4990  0.8144 -2.8651
  502MOL0     H67747   5.107   9.564   7.973  0.0622 -0.6108  1.5346
  502MOL0     H67748   5.104   9.854   7.949 -0.1180 -1.0888 -0.6657
  502MOL0     H67749   5.255   9.778   7.950 -0.4905  2.2022 -0.4465
  502MOL0     H67750   5.202   9.653   8.171  1.5868  0.2035  1.6661
  502MOL0     H67751   5.053   9.765   8.179  0.6353  2.3721 -0.8687
  502MOL0     H67752   4.503   9.666   7.408 -0.9884  0.5070 -1.3122
  502MOL0     H67753   4.423   9.639   7.170 -1.6936  2.7710  0.1599
  502MOL0     H67754   4.611   9.616   6.784 -0.7029  1.0848  0.8972
  502MOL0     H67755   4.633   9.532   6.570  1.1106  0.5017  0.7930
  502MOL0     H67756   4.792   8.610   5.176 -0.5034 -0.7875 -2.6461
  502MOL0     H67757   5.003   8.678   5.055 -1.1235 -0.4188 -0.3337
  502MOL0     H67758   5.184   8.967   4.742  0.1348 -0.6146  1.6554
  502MOL0     H67759   5.293   9.135   4.598  0.4401  1.6516 -0.9643
  502MOL0     H67760   5.486   9.504   4.769  2.1155  2.0686  0.9746
  502MOL0     H67761   5.609   9.390   4.753  1.8608  2.9334 -2.5738
  502MOL0     H67762   5.504   9.535   4.503  0.0477  1.2115  1.3312
  502MOL0     H67763   5.595   9.394   4.506 -1.4674 -0.1517  0.1375
  502MOL0     H67764   5.770   9.532   4.644  2.7455  0.3546 -1.1344
  502MOL0     H67765   5.667   9.672   4.645 -1.5540 -0.4604 -0.3160
  502MOL0     H67766   5.835   9.711   4.474  0.9816 -1.5101 -0.6451
  502MOL0     H67767   5.662   9.709   4.414  0.0369  1.8894  1.6014
  502MOL0     H67768   5.853   9.359   4.243 -0.7150 -1.8871  2.4010
  502MOL0     H67769   5.448   9.337   4.943 -0.7405  1.1785 -1.2757
  502MOL0     H67770   5.304   9.190   5.091 -1.1473  0.0951 -1.0590
  503MOL0     O67771   2.815   2.648   1.591  0.0276  0.4253 -0.0443
  503MOL0     C67772   2.715   2.576   1.608 -0.1363 -0.2150 -1.2018
  503MOL0     O67773   2.603   2.609   1.681 -0.3213 -0.0032  0.5860
  503MOL0     C67774   2.600   2.731   1.754  0.4049 -0.7755 -0.6049
  503MOL0     C67775   2.464   2.776   1.787 -0.0456 -0.3345  0.1893
  503MOL0     C67776   2.437   2.883   1.859  0.2078  0.1570 -0.2737
  503MOL0     C67777   2.546   2.959   1.910  0.4884  0.8603 -0.1552
  503MOL0     O67778   2.541   3.076   1.978 -0.1134  0.3744  0.6185
  503MOL0     C67779   2.412   3.114   2.030 -0.5592  0.2244 -0.0446
  503MOL0     C67780   2.421   3.257   2.075 -0.1538  0.3084 -0.0061
  503MOL0     C67781   2.416   3.356   1.954 -0.0391 -0.1041  0.7475
  503MOL0     C67782   2.394   3.504   2.003 -0.1921  0.0529 -0.2347
  503MOL0     C67783   2.390   3.604   1.885  0.2263 -0.0142 -0.2145
  503MOL0     C67784   2.523   3.631   1.808 -0.4755  0.6939  0.2189
  503MOL0     C67785   2.618   3.726   1.886 -0.1341  0.0430  0.3510
  503MOL0     C67786   2.763   3.708   1.840 -0.3730 -0.1567 -0.1406
  503MOL0     N67787   2.848   3.791   1.918  0.0014 -0.3708 -0.0931
  503MOL0     C67788   2.888   3.926   1.898  0.0006 -0.3750 -0.2169
  503MOL0     C67789   2.932   3.970   2.020 -0.1404  0.1279 -0.5633
  503MOL0     C67790   2.977   4.106   2.048 -1.4292 -0.1027  0.4603
  503MOL0     C67791   3.122   4.097   2.103 -0.3851 -0.2770 -0.5606
  503MOL0     C67792   3.143   4.180   2.228 -0.2209  1.0473 -0.0077
  503MOL0     C67793   3.277   4.126   2.278 -0.6204 -0.4216 -0.3602
  503MOL0     O67794   3.328   4.225   2.373 -0.2155  0.0011  0.1229
  503MOL0     C67795   3.377   4.177   2.494  0.7908 -0.4391  0.0985
  503MOL0     C67796   3.363   4.268   2.592 -0.6021 -0.0813 -0.0122
  503MOL0     C67797   3.405   4.231   2.724 -0.3590 -0.2205  0.0617
  503MOL0     C67798   3.381   4.331   2.845  0.4706 -0.0677  0.2345
  503MOL0     C67799   3.465   4.101   2.749  0.3267  0.1183 -0.0859
  503MOL0     C67800   3.510   4.063   2.887 -0.2477  0.9273  0.2328
  503MOL0     O67801   3.437   4.099   2.989  0.0687  0.5390 -0.3263
  503MOL0     C67802   3.468   4.092   3.118  0.1961  0.1985  0.7816
  503MOL0     C67803   3.418   4.191   3.199  0.0229 -1.1958 -0.3197
  503MOL0     C67804   3.445   4.212   3.329  0.6628 -0.6580  0.2530
  503MOL0     C67805   3.529   4.120   3.395  0.4513 -0.3842  0.2944
  503MOL0     O67806   3.548   4.134   3.535  0.1787  0.0624 -0.1658
  503MOL0     C67807   3.633   4.046   3.610  0.4326  0.5946 -0.7505
  503MOL0     C67808   3.566   3.911   3.635 -0.1038 -0.5773 -0.4862
  503MOL0     C67809   3.640   3.808   3.727 -0.2036  0.1083 -0.2624
  503MOL0     C67810   3.726   3.868   3.844 -0.3450 -0.5341 -0.7887
  503MOL0     C67811   3.656   3.934   3.966 -0.1154 -0.2697  0.7019
  503MOL0     C67812   3.547   3.866   4.045  1.0348 -1.5730 -0.0406
  503MOL0     C67813   3.591   3.734   4.113  0.8607 -0.3691 -0.2160
  503MOL0     C67814   3.474   3.658   4.165  0.9347 -0.3883  0.3556
  503MOL0    Cl67815   3.331   3.634   4.055 -0.1610 -0.0912  0.1329
  503MOL0     C67816   3.574   4.015   3.324 -0.0698 -0.9159  0.5761
  503MOL0     C67817   3.549   4.000   3.186  0.1249  0.0987 -0.0512
  503MOL0     O67818   3.595   3.972   2.894  0.7017 -0.1741 -1.0506
  503MOL0     C67819   3.500   4.017   2.637  0.0042 -0.5220  0.4165
  503MOL0     C67820   3.449   4.053   2.510  0.3853  0.2777  0.7910
  503MOL0     N67821   2.928   3.861   2.110  0.6988 -0.8911  0.4872
  503MOL0     N67822   2.876   3.763   2.046  0.1838  0.0367 -0.1297
  503MOL0     C67823   2.680   2.911   1.876  0.0075 -1.0255 -0.6705
  503MOL0     C67824   2.707   2.809   1.796  0.1402  0.7678 -0.3318
  503MOL0     C67825   2.706   2.443   1.533  0.5514  0.2800  1.0307
  503MOL0     C67826   2.586   2.364   1.555 -0.7785  0.7727  1.0164
  503MOL0     C67827   2.569   2.243   1.483  0.4912 -0.2286 -0.5226
  503MOL0     C67828   2.665   2.197   1.397 -0.0299  0.3477 -0.8640
  503MOL0     O67829   2.625   2.090   1.325  0.2256 -0.1413  0.2095
  503MOL0     C67830   2.724   1.986   1.305  1.1108 -0.3002  0.0049
  503MOL0     C67831   2.785   1.914   1.418  1.4365 -0.2836 -0.1519
  503MOL0     C67832   2.685   1.845   1.518  0.0762  0.5812  0.0048
  503MOL0     C67833   2.764   1.786   1.636  0.2324  0.4479  0.3891
  503MOL0     C67834   2.658   1.729   1.729  0.6495 -0.4354 -0.8461
  503MOL0     C67835   2.583   1.684   1.815 -0.6191 -0.4826 -0.9348
  503MOL0     C67836   2.783   2.262   1.378 -0.1653 -1.0455 -0.3510
  503MOL0     C67837   2.795   2.388   1.443  0.5138  0.2079  0.4098
  503MOL0     H67838   2.378   2.729   1.740 -0.4949  2.7475 -2.4789
  503MOL0     H67839   2.334   2.912   1.874  0.8356  1.5974  1.7143
  503MOL0     H67840   2.335   3.105   1.953  1.3416  1.3217 -2.1970
  503MOL0     H67841   2.386   3.046   2.112 -0.6530 -0.5068 -0.6684
  503MOL0     H67842   2.346   3.270   2.154  0.5014  0.6695  0.5727
  503MOL0     H67843   2.521   3.275   2.118  0.0318  3.0327 -1.3488
  503MOL0     H67844   2.509   3.351   1.897 -0.2963 -0.7992  0.3760
  503MOL0     H67845   2.336   3.332   1.883  0.4366 -1.1981  0.5714
  503MOL0     H67846   2.304   3.511   2.064 -0.5444  1.4273 -0.8644
  503MOL0     H67847   2.481   3.534   2.064  0.3921 -1.7857 -0.1195
  503MOL0     H67848   2.302   3.567   1.832 -1.9563  1.2816  2.2375
  503MOL0     H67849   2.359   3.700   1.927  5.1897  0.7562  2.3909
  503MOL0     H67850   2.578   3.538   1.794  2.5430  2.2273  0.9904
  503MOL0     H67851   2.491   3.692   1.723 -0.1143  1.8537  0.8895
  503MOL0     H67852   2.582   3.828   1.871 -1.3992 -0.6463 -1.7382
  503MOL0     H67853   2.620   3.699   1.992 -3.7905 -0.7277  0.3580
  503MOL0     H67854   2.782   3.745   1.738 -0.8264 -1.9153 -0.9071
  503MOL0     H67855   2.795   3.604   1.830  0.5580  0.2729 -2.2942
  503MOL0     H67856   2.860   3.990   1.815  1.0206  0.1182 -0.1944
  503MOL0     H67857   2.989   4.168   1.959  4.2061 -0.7984  0.3582
  503MOL0     H67858   2.907   4.157   2.115  1.3879  2.2544  1.8312
  503MOL0     H67859   3.192   4.125   2.024 -0.9027 -3.4928 -2.3573
  503MOL0     H67860   3.139   3.990   2.119  0.1698 -0.0126  0.7707
  503MOL0     H67861   3.067   4.166   2.305  1.9137 -1.6108  1.8218
  503MOL0     H67862   3.136   4.287   2.206 -1.7308  1.2190  1.1498
  503MOL0     H67863   3.355   4.120   2.201  1.4979  5.2500  0.8586
  503MOL0     H67864   3.260   4.033   2.333 -0.4527  0.8521  1.9663
  503MOL0     H67865   3.320   4.365   2.568  2.7734  0.8412 -3.4662
  503MOL0     H67866   3.343   4.429   2.816  0.9641  0.1954  0.4624
  503MOL0     H67867   3.301   4.283   2.901  1.9947 -1.2866  1.4638
  503MOL0     H67868   3.464   4.346   2.914 -0.2749  0.1375  1.0975
  503MOL0     H67869   3.358   4.270   3.154  0.4903  0.1264  1.2660
  503MOL0     H67870   3.401   4.294   3.386 -2.0405 -1.0914 -1.0331
  503MOL0     H67871   3.730   4.036   3.560  0.6045 -3.9640  0.0918
  503MOL0     H67872   3.627   4.099   3.706 -1.8689  1.0711 -1.1010
  503MOL0     H67873   3.467   3.942   3.670  0.6811  0.0491  1.2804
  503MOL0     H67874   3.548   3.841   3.553 -1.6275 -2.7227  1.5482
  503MOL0     H67875   3.716   3.750   3.674  1.1897 -1.1025  2.8019
  503MOL0     H67876   3.572   3.728   3.759  0.3890 -0.7571 -1.1214
  503MOL0     H67877   3.788   3.780   3.861 -0.5692 -0.5733 -0.1306
  503MOL0     H67878   3.793   3.944   3.803  0.2425 -1.3017 -1.2748
  503MOL0     H67879   3.628   4.028   3.919  3.3939  0.1845 -0.7779
  503MOL0     H67880   3.731   3.972   4.036  0.5047  1.9207 -1.0322
  503MOL0     H67881   3.514   3.940   4.118  0.9283  0.2370 -1.8105
  503MOL0     H67882   3.474   3.825   3.975  0.9296 -4.1264  1.4219
  503MOL0     H67883   3.663   3.765   4.190  1.0127  1.3451 -1.0004
  503MOL0     H67884   3.641   3.671   4.039 -1.5335 -2.5029 -0.1598
  503MOL0     H67885   3.443   3.710   4.256  0.7681 -1.1390  0.7370
  503MOL0     H67886   3.508   3.561   4.203 -4.1244 -2.7546 -0.3206
  503MOL0     H67887   3.625   3.936   3.379 -0.5920 -0.4709  1.7420
  503MOL0     H67888   3.579   3.908   3.137  2.6475  1.5935 -1.5388
  503MOL0     H67889   3.556   3.924   2.646  4.2621  1.8238  0.5989
  503MOL0     H67890   3.468   3.982   2.430 -0.5445 -0.8455  1.5277
  503MOL0     H67891   2.766   2.964   1.916 -0.9140  1.3331 -1.6042
  503MOL0     H67892   2.808   2.781   1.768 -0.4035  1.3430 -3.2106
  503MOL0     H67893   2.505   2.396   1.619 -1.0501  2.1288  0.0461
  503MOL0     H67894   2.479   2.182   1.477 -1.7234  2.9605 -2.8714
  503MOL0     H67895   2.676   1.906   1.248  0.2156  1.6869 -2.2006
  503MOL0     H67896   2.801   2.032   1.244 -1.1851 -0.3850 -3.2182
  503MOL0     H67897   2.845   1.983   1.479 -0.6006 -0.1384  1.7844
  503MOL0     H67898   2.847   1.850   1.355  0.3053 -0.8214 -0.7463
  503MOL0     H67899   2.625   1.770   1.466  0.2690 -2.4884  3.7627
  503MOL0     H67900   2.606   1.911   1.552 -0.0009  0.0748  0.8200
  503MOL0     H67901   2.816   1.871   1.681 -2.0360  2.8696 -1.2248
  503MOL0     H67902   2.833   1.710   1.599 -0.7613  0.7749 -2.3733
  503MOL0     H67903   2.524   1.652   1.898  1.3343 -0.9280  0.3573
  503MOL0     H67904   2.858   2.229   1.307 -0.4063 -1.5769 -0.3644
  503MOL0     H67905   2.881   2.454   1.432  1.5938 -0.9664  1.3931
  504MOL0     O67906   1.005   4.955  10.403  0.3976 -0.1097 -0.1451
  504MOL0     C67907   0.980   4.834  10.410 -0.6977  0.3089 -0.2604
  504MOL0     O67908   0.934   4.765  10.314 -0.4162 -0.0422  0.1194
  504MOL0     C67909   0.885   4.815  10.194  1.0314  0.1789  0.1122
  504MOL0     C67910   0.904   4.751  10.077 -0.5393  0.3055 -0.4676
  504MOL0     C67911   0.862   4.795   9.952  0.8408 -0.4249 -0.2393
  504MOL0     C67912   0.777   4.909   9.937  0.4240 -1.0784  0.0339
  504MOL0     O67913   0.723   4.948   9.815 -0.0508 -0.7501  0.1177
  504MOL0     C67914   0.696   4.846   9.712  0.8118 -0.3238 -0.4539
  504MOL0     C67915   0.559   4.779   9.714 -0.1350 -0.2097 -0.3845
  504MOL0     C67916   0.464   4.864   9.637  0.5577  0.6107 -0.0278
  504MOL0     C67917   0.447   5.009   9.671 -0.1292 -0.0052  0.2628
  504MOL0     C67918   0.363   5.073   9.566 -0.1792 -1.0723 -0.1560
  504MOL0     C67919   0.430   5.104   9.436  0.2449  0.3104 -0.2261
  504MOL0     C67920   0.346   5.210   9.368  0.6465  0.4736 -0.9407
  504MOL0     C67921   0.429   5.278   9.261 -0.8181  0.1972  0.6624
  504MOL0     N67922   0.346   5.382   9.199 -0.2843  0.1411  0.4931
  504MOL0     C67923   0.405   5.484   9.124 -0.1489  0.3890  0.3870
  504MOL0     C67924   0.313   5.585   9.129  0.2192  0.7051  0.6919
  504MOL0     C67925   0.330   5.723   9.077 -0.9504  0.3202 -1.0818
  504MOL0     C67926   0.204   5.755   8.988 -1.2739 -0.2763  0.5357
  504MOL0     C67927   0.185   5.649   8.876 -0.1495  0.3203 -0.5814
  504MOL0     C67928   0.316   5.614   8.803  0.3761 -0.0254  0.0945
  504MOL0     O67929   0.291   5.502   8.714  0.3154  0.2616 -0.8150
  504MOL0     C67930   0.219   5.514   8.599  0.2969 -0.2637 -0.6881
  504MOL0     C67931   0.163   5.631   8.550 -0.7874  0.7350 -0.7285
  504MOL0     C67932   0.097   5.628   8.423 -0.0238 -0.6321  0.9221
  504MOL0     C67933   0.058   5.757   8.356 -0.3784  0.8183 -0.2519
  504MOL0     C67934   0.070   5.504   8.360 -0.1715  0.3527 -0.9563
  504MOL0     C67935   0.010   5.492   8.229  0.1241 -0.3869  0.2550
  504MOL0     O67936   0.066   5.512   8.104 -0.5242  0.2435 -0.2390
  504MOL0     C67937   0.199   5.506   8.068 -0.3833  0.7569  0.7272
  504MOL0     C67938   0.311   5.543   8.147  0.5805  0.7947  0.3667
  504MOL0     C67939   0.443   5.535   8.094 -0.0565 -0.1738 -0.2300
  504MOL0     C67940   0.462   5.469   7.978 -1.4118  0.1507 -0.0173
  504MOL0     O67941   0.595   5.454   7.926  1.1749  0.4705  0.4369
  504MOL0     C67942   0.632   5.548   7.824 -0.1863  0.5709  0.3213
  504MOL0     C67943   0.782   5.540   7.810 -0.6564  0.3883 -0.3542
  504MOL0     C67944   0.858   5.547   7.947 -0.4586 -0.0337  0.0459
  504MOL0     C67945   0.808   5.664   8.034 -0.8536  0.1801 -0.5980
  504MOL0     C67946   0.861   5.641   8.174 -0.6133  0.1935  0.6643
  504MOL0     C67947   0.813   5.757   8.266  0.9467  0.8547  0.0508
  504MOL0     C67948   0.701   5.717   8.364 -0.1187 -0.8001 -0.6969
  504MOL0     C67949   0.622   5.840   8.403  0.5091 -0.2297  0.0218
  504MOL0    Cl67950   0.511   5.887   8.270 -0.7424 -0.6837 -0.3113
  504MOL0     C67951   0.357   5.422   7.898  0.6510 -0.0529 -0.6451
  504MOL0     C67952   0.226   5.451   7.937 -0.2562  0.4570  0.4845
  504MOL0     O67953  -0.106   5.461   8.246  0.5046 -0.0165 -0.0764
  504MOL0     C67954   0.101   5.383   8.429 -0.0254  0.7953 -0.4081
  504MOL0     C67955   0.188   5.392   8.544 -0.7509  0.6895  0.9182
  504MOL0     N67956   0.203   5.539   9.187 -1.3098 -0.5270 -0.9623
  504MOL0     N67957   0.219   5.415   9.226  0.7582  0.0285 -0.8403
  504MOL0     C67958   0.752   4.976  10.057  0.6442 -0.9075 -0.1919
  504MOL0     C67959   0.807   4.940  10.185 -0.4511 -0.6414 -0.1414
  504MOL0     C67960   1.018   4.772  10.541  0.3528 -0.1933  0.7251
  504MOL0     C67961   0.965   4.640  10.566 -0.3712 -0.6674 -0.3461
  504MOL0     C67962   0.996   4.579  10.687 -0.2089 -0.5611 -0.1683
  504MOL0     C67963   1.075   4.646  10.785  0.0863  0.0329  0.4593
  504MOL0     O67964   1.122   4.588  10.898 -0.1816  0.1357 -0.2600
  504MOL0     C67965   1.049   4.476  10.965  0.3307 -0.7677  0.6696
  504MOL0     C67966   1.116   4.458  11.100 -0.4638 -0.6588  0.6293
  504MOL0     C67967   1.059   4.339  11.172  0.1006  0.0148 -0.6441
  504MOL0     C67968   1.154   4.283  11.279  0.0123 -0.7345 -0.2016
  504MOL0     C67969   1.100   4.166  11.345  0.2829 -0.4552  0.0686
  504MOL0     C67970   1.061   4.062  11.387  0.9509 -0.7766  0.3871
  504MOL0     C67971   1.129   4.776  10.752 -0.4826 -0.2381 -0.1757
  504MOL0     C67972   1.093   4.834  10.634 -0.8400  0.0702 -0.8579
  504MOL0     H67973   0.968   4.664  10.069  2.4721  2.3615 -0.3596
  504MOL0     H67974   0.886   4.735   9.865  1.2346 -0.6938  0.0566
  504MOL0     H67975   0.712   4.897   9.617  2.4252  1.8162  0.8839
  504MOL0     H67976   0.770   4.765   9.709  0.4249 -0.7125 -4.0090
  504MOL0     H67977   0.560   4.679   9.671  4.2214 -0.1828 -0.7219
  504MOL0     H67978   0.525   4.770   9.817 -1.3107  1.0190 -0.6240
  504MOL0     H67979   0.488   4.857   9.530  1.4273 -0.4598  0.2151
  504MOL0     H67980   0.365   4.824   9.661  0.6839 -1.0889 -2.0128
  504MOL0     H67981   0.405   5.036   9.769 -0.0055 -1.7824  0.8326
  504MOL0     H67982   0.548   5.052   9.667 -0.6367  1.1083 -1.4841
  504MOL0     H67983   0.277   5.006   9.553 -0.0447 -1.5152  1.0694
  504MOL0     H67984   0.341   5.169   9.614  0.1527 -1.5011  0.8734
  504MOL0     H67985   0.522   5.158   9.464  0.6681  0.9568 -2.6070
  504MOL0     H67986   0.443   5.011   9.381 -1.0404 -0.7783  1.2401
  504MOL0     H67987   0.248   5.185   9.326  0.0965  2.7776 -1.2026
  504MOL0     H67988   0.315   5.285   9.442 -0.4213 -1.1778  0.3601
  504MOL0     H67989   0.456   5.204   9.186  0.5886  0.2862  1.0586
  504MOL0     H67990   0.512   5.325   9.315 -0.2454 -0.4858  0.3921
  504MOL0     H67991   0.505   5.481   9.081 -0.5868 -3.6843 -0.7643
  504MOL0     H67992   0.342   5.799   9.155 -2.0492 -1.1245  0.5453
  504MOL0     H67993   0.422   5.737   9.019 -0.2652 -1.7485 -0.5839
  504MOL0     H67994   0.219   5.856   8.950  3.8900 -1.2740 -0.8606
  504MOL0     H67995   0.114   5.763   9.050 -0.6129 -1.1156  1.6467
  504MOL0     H67996   0.112   5.702   8.814 -3.2500  0.3392  2.7502
  504MOL0     H67997   0.139   5.558   8.916  3.7723 -1.4302  0.4202
  504MOL0     H67998   0.390   5.593   8.881 -1.9042 -0.2716  2.2939
  504MOL0     H67999   0.350   5.705   8.754 -0.4279  0.2831  0.0933
  504MOL0     H68000   0.196   5.722   8.598  0.3470  0.1891 -0.4550
  504MOL0     H68001   0.140   5.784   8.288  1.6389  0.5860  1.9679
  504MOL0     H68002  -0.040   5.760   8.308 -0.7804  0.6577  0.5492
  504MOL0     H68003   0.067   5.836   8.431 -1.5704 -1.0951  2.0452
  504MOL0     H68004   0.291   5.587   8.244  0.2323  1.8953 -0.1919
  504MOL0     H68005   0.521   5.586   8.150  0.3333  0.4121 -1.2880
  504MOL0     H68006   0.579   5.527   7.730  1.8809  0.3178 -0.8363
  504MOL0     H68007   0.609   5.654   7.843 -3.4010 -0.1300  0.9158
  504MOL0     H68008   0.815   5.444   7.769  0.7743  0.4268  0.6418
  504MOL0     H68009   0.817   5.620   7.744  2.0800 -0.0699  0.4185
  504MOL0     H68010   0.964   5.569   7.930  0.5471 -5.1419 -2.3321
  504MOL0     H68011   0.858   5.446   7.990  3.1275 -0.5445 -0.7879
  504MOL0     H68012   0.857   5.747   7.984 -2.1630  1.1591 -0.3312
  504MOL0     H68013   0.700   5.678   8.045 -0.8749 -0.8487  0.8673
  504MOL0     H68014   0.969   5.630   8.171 -0.6688 -0.5710  1.2199
  504MOL0     H68015   0.819   5.547   8.211  0.9012 -1.5013 -1.6627
  504MOL0     H68016   0.907   5.790   8.311  0.3563  1.2846  1.0092
  504MOL0     H68017   0.775   5.833   8.198 -2.4329 -0.4349  0.2652
  504MOL0     H68018   0.750   5.673   8.451 -1.4064  2.3938  1.8504
  504MOL0     H68019   0.627   5.646   8.325 -0.2957 -0.3825 -1.1232
  504MOL0     H68020   0.690   5.926   8.415  2.1917 -1.4540 -0.3940
  504MOL0     H68021   0.576   5.815   8.499  1.1162 -2.4697 -0.2329
  504MOL0     H68022   0.380   5.368   7.807  0.3975  1.0495 -1.3737
  504MOL0     H68023   0.141   5.420   7.877 -0.7291 -2.7518  2.5554
  504MOL0     H68024   0.060   5.289   8.396  1.5716 -0.1941  0.3020
  504MOL0     H68025   0.222   5.305   8.598 -1.8925 -0.5479 -0.2592
  504MOL0     H68026   0.685   5.061  10.063  2.2476  0.2755  3.3750
  504MOL0     H68027   0.788   4.992  10.278  1.2358  0.0754 -0.1596
  504MOL0     H68028   0.903   4.590  10.493  2.7308 -4.9383 -0.4730
  504MOL0     H68029   0.979   4.471  10.688  0.8190 -0.7352  0.5178
  504MOL0     H68030   0.946   4.507  10.985  1.0933  1.6786  1.1246
  504MOL0     H68031   1.050   4.393  10.894  0.0572 -1.4355  1.4251
  504MOL0     H68032   1.104   4.553  11.151  0.4176  0.4766 -1.1711
  504MOL0     H68033   1.223   4.442  11.081 -0.2724  1.3844 -0.2313
  504MOL0     H68034   1.035   4.258  11.102  3.0212 -1.9386  0.4180
  504MOL0     H68035   0.971   4.373  11.226  0.2739  0.7254 -0.8003
  504MOL0     H68036   1.169   4.354  11.360 -1.2286  0.1597 -0.7133
  504MOL0     H68037   1.246   4.250  11.228 -1.3077  0.2027 -3.4908
  504MOL0     H68038   1.008   3.979  11.430  2.8426 -1.4193  1.5606
  504MOL0     H68039   1.201   4.825  10.818 -0.1989  1.1332 -1.4537
  504MOL0     H68040   1.137   4.929  10.602 -0.5896  1.0863  2.1195
  505MOL0     O68041   9.852   6.257   6.920  0.1913 -0.0155  0.0794
  505MOL0     C68042   9.943   6.197   6.973  0.6218 -1.0534  0.6378
  505MOL0     O68043  10.014   6.095   6.913  0.3727  0.7278 -0.5240
  505MOL0     C68044   9.979   6.061   6.784  0.1088 -0.3060  0.1776
  505MOL0     C68045   9.854   6.013   6.749 -0.5679 -0.5178  0.5372
  505MOL0     C68046   9.821   5.995   6.613 -0.5790 -0.7012 -0.1057
  505MOL0     C68047   9.909   6.005   6.512  0.4063 -0.2672  0.6635
  505MOL0     O68048   9.861   5.976   6.382 -0.2037  1.3448 -0.5886
  505MOL0     C68049   9.921   6.017   6.260  0.9243 -0.9800 -0.7359
  505MOL0     C68050   9.834   6.010   6.136 -0.1982 -0.3949  0.0123
  505MOL0     C68051   9.898   6.062   6.008 -1.5380 -0.5153  0.8971
  505MOL0     C68052   9.806   6.064   5.892  0.4613  0.8645  0.1819
  505MOL0     C68053   9.878   6.114   5.772  1.0398 -0.5473  0.2923
  505MOL0     C68054   9.800   6.079   5.644  0.8592  0.3898  0.4150
  505MOL0     C68055   9.841   6.166   5.526 -0.9233 -1.1792 -0.0555
  505MOL0     C68056   9.968   6.118   5.473 -0.7722  0.2371 -0.2198
  505MOL0     N68057   9.969   5.993   5.399  1.0446  0.1078 -0.9698
  505MOL0     C68058   9.917   5.974   5.277 -0.0458 -0.0181  0.4333
  505MOL0     C68059   9.927   5.842   5.255 -0.5976  0.3386  0.8958
  505MOL0     C68060   9.873   5.786   5.124  0.0736  0.1797  0.2091
  505MOL0     C68061   9.724   5.774   5.143 -0.1075 -0.8512  0.0045
  505MOL0     C68062   9.639   5.905   5.136  0.2537 -0.6639  0.5167
  505MOL0     C68063   9.497   5.857   5.126  0.0490 -0.2548 -0.5728
  505MOL0     O68064   9.422   5.972   5.084 -0.1295 -0.2669  0.2077
  505MOL0     C68065   9.400   6.003   4.958  0.1092 -0.2636 -0.2246
  505MOL0     C68066   9.369   5.898   4.860  0.8369 -0.6442 -0.7196
  505MOL0     C68067   9.346   5.935   4.729 -0.4184 -0.3276 -1.0049
  505MOL0     C68068   9.312   5.831   4.619 -0.0855  0.5548 -0.0059
  505MOL0     C68069   9.362   6.075   4.690 -0.6272  0.1012  0.1475
  505MOL0     C68070   9.347   6.136   4.557 -0.5065 -0.1611 -0.3039
  505MOL0     O68071   9.250   6.073   4.478 -0.2236  0.2965  0.1217
  505MOL0     C68072   9.245   6.126   4.347  0.0143  0.8149  0.1840
  505MOL0     C68073   9.303   6.061   4.235  0.5628  0.0194 -0.0918
  505MOL0     C68074   9.286   6.117   4.099 -0.1146  0.5320 -0.0941
  505MOL0     C68075   9.201   6.226   4.079 -0.6969  0.1541 -0.5151
  505MOL0     O68076   9.189   6.289   3.961 -0.3202  1.0264 -0.1018
  505MOL0     C68077   9.213   6.225   3.837  0.1432  0.5460  0.8022
  505MOL0     C68078   9.162   6.323   3.727 -0.5052  1.0937  0.3452
  505MOL0     C68079   9.189   6.250   3.594 -0.9179  0.4467 -0.2952
  505MOL0     C68080   9.169   6.348   3.472 -0.6736 -0.4685  0.5080
  505MOL0     C68081   9.226   6.294   3.340 -0.7726  0.5426  0.0706
  505MOL0     C68082   9.207   6.400   3.235 -0.5738 -0.8598 -0.9156
  505MOL0     C68083   9.209   6.342   3.094 -0.3070  0.3418 -0.0438
  505MOL0     C68084   9.071   6.298   3.045  0.8148  0.2484  0.3824
  505MOL0    Cl68085   9.093   6.168   2.921  0.5803  0.0435  0.2398
  505MOL0     C68086   9.140   6.287   4.195  0.3090 -0.1622  1.3577
  505MOL0     C68087   9.164   6.240   4.324 -0.6662  0.4564 -0.9064
  505MOL0     O68088   9.414   6.238   4.517 -0.0035 -0.3541 -0.3819
  505MOL0     C68089   9.404   6.171   4.788  0.5700  0.6230 -0.1848
  505MOL0     C68090   9.422   6.133   4.920  0.8437 -0.5775 -1.1026
  505MOL0     N68091   9.993   5.785   5.367  0.7140  0.1202 -0.3589
  505MOL0     N68092  10.011   5.881   5.453 -0.9705  0.2986  0.2040
  505MOL0     C68093  10.035   6.054   6.542 -0.4693  0.9050  0.1293
  505MOL0     C68094  10.069   6.078   6.673 -0.9807  0.4624  0.0288
  505MOL0     C68095   9.977   6.228   7.115  0.0270  0.0190  0.5804
  505MOL0     C68096  10.066   6.142   7.179  0.4386  0.1269  0.5122
  505MOL0     C68097  10.086   6.149   7.318  0.2990 -0.7500 -0.8943
  505MOL0     C68098  10.013   6.245   7.393 -0.5976  0.7459 -0.8297
  505MOL0     O68099  10.016   6.255   7.532 -0.1460  0.0607  0.0456
  505MOL0     C68100   9.948   6.166   7.610 -0.7302  0.1690  0.4408
  505MOL0     C68101   9.838   6.237   7.683 -0.0248  0.3280 -0.0710
  505MOL0     C68102   9.759   6.142   7.768 -0.4762 -0.4200 -0.4014
  505MOL0     C68103   9.641   6.224   7.827 -0.5154  0.3464 -0.5580
  505MOL0     C68104   9.568   6.137   7.924 -0.3917  0.9978  0.0498
  505MOL0     C68105   9.481   6.068   7.976 -0.0294 -0.7338 -0.4216
  505MOL0     C68106   9.942   6.341   7.323  0.6297  0.0646  1.0350
  505MOL0     C68107   9.909   6.330   7.183 -0.7856 -0.7224  0.4277
  505MOL0     H68108   9.771   6.000   6.817 -2.0655  0.2382 -1.0874
  505MOL0     H68109   9.718   5.982   6.581  0.0991 -0.4394 -2.6709
  505MOL0     H68110   9.968   6.114   6.280  0.5196 -1.4497  3.2675
  505MOL0     H68111  10.007   5.951   6.243  1.7724 -1.0242  2.9043
  505MOL0     H68112   9.797   5.908   6.124  0.8594 -0.5729 -2.3941
  505MOL0     H68113   9.749   6.075   6.156 -0.5931 -1.3262  1.5005
  505MOL0     H68114   9.931   6.166   6.023 -0.0478 -0.7446 -0.4374
  505MOL0     H68115   9.989   6.012   5.975 -1.5007 -0.9809  1.6804
  505MOL0     H68116   9.772   5.961   5.877 -1.1369  1.1096  1.8151
  505MOL0     H68117   9.709   6.107   5.915  0.4029 -0.4033  2.5987
  505MOL0     H68118   9.897   6.221   5.784 -0.8450  0.0973 -1.6736
  505MOL0     H68119   9.975   6.068   5.753  1.0544  0.5442 -2.8535
  505MOL0     H68120   9.809   5.971   5.627  2.0049  0.4941  0.3294
  505MOL0     H68121   9.692   6.094   5.650  0.9740  2.0457 -1.0144
  505MOL0     H68122   9.763   6.175   5.450  0.5426 -2.5598 -1.8467
  505MOL0     H68123   9.853   6.265   5.572  2.0526 -1.8509  0.8767
  505MOL0     H68124  10.037   6.118   5.558 -1.8770  1.6423  0.7223
  505MOL0     H68125  10.012   6.194   5.407  1.8539 -1.0543 -0.0814
  505MOL0     H68126   9.889   6.053   5.208 -0.4141 -0.8549 -0.4005
  505MOL0     H68127   9.907   5.849   5.041  2.1292 -0.1721  0.7226
  505MOL0     H68128   9.927   5.692   5.109  2.5294  1.2475  1.6626
  505MOL0     H68129   9.712   5.738   5.246  1.3247 -0.3156  0.3847
  505MOL0     H68130   9.691   5.713   5.059 -1.5200  0.9143 -0.7890
  505MOL0     H68131   9.671   5.956   5.044  1.8126  0.2961  1.5451
  505MOL0     H68132   9.653   5.972   5.221  1.0568  0.2632 -0.3117
  505MOL0     H68133   9.461   5.821   5.223 -1.5888  2.5829 -0.0242
  505MOL0     H68134   9.490   5.775   5.053 -0.2320 -0.6217 -0.1376
  505MOL0     H68135   9.357   5.796   4.895  3.1013 -0.6118  0.2472
  505MOL0     H68136   9.206   5.846   4.599 -0.5445 -1.5204  0.5948
  505MOL0     H68137   9.376   5.835   4.531  2.2847  2.3531  1.6414
  505MOL0     H68138   9.333   5.734   4.665  1.7092  0.3829 -1.0795
  505MOL0     H68139   9.361   5.972   4.255 -0.0620 -0.5490 -0.7809
  505MOL0     H68140   9.349   6.068   4.025 -2.2883 -0.2096 -1.5561
  505MOL0     H68141   9.318   6.202   3.819 -0.1484 -1.0601  0.9914
  505MOL0     H68142   9.163   6.128   3.839 -1.0027  1.1074  3.0701
  505MOL0     H68143   9.054   6.335   3.738 -0.8629 -1.5561  0.3068
  505MOL0     H68144   9.220   6.415   3.739  2.9726 -1.0721  1.4845
  505MOL0     H68145   9.130   6.161   3.570 -0.5319 -0.2811  1.3110
  505MOL0     H68146   9.292   6.214   3.589 -0.4551  1.7509 -0.5876
  505MOL0     H68147   9.063   6.357   3.445 -0.5660  1.4615  0.5990
  505MOL0     H68148   9.212   6.447   3.491  0.6777 -0.4081 -2.4049
  505MOL0     H68149   9.151   6.216   3.327 -3.5403  2.7882  1.4856
  505MOL0     H68150   9.330   6.259   3.340 -1.0624 -0.3684  0.9791
  505MOL0     H68151   9.114   6.454   3.260 -0.7166 -1.3935 -0.2478
  505MOL0     H68152   9.292   6.467   3.247 -2.1523  1.2693 -1.0298
  505MOL0     H68153   9.283   6.263   3.080  0.9947  1.8499 -2.5449
  505MOL0     H68154   9.234   6.438   3.047  0.5188  0.7104  1.1095
  505MOL0     H68155   9.008   6.381   3.011 -1.7385 -0.3585  3.1384
  505MOL0     H68156   9.017   6.251   3.127  1.9874 -3.2770 -0.7059
  505MOL0     H68157   9.069   6.368   4.181 -1.5231 -1.6815  1.2433
  505MOL0     H68158   9.127   6.295   4.409 -0.8518 -0.3743 -0.4343
  505MOL0     H68159   9.407   6.277   4.764  2.0986  0.6611  0.0416
  505MOL0     H68160   9.435   6.211   4.994  1.0335 -1.1485 -0.5224
  505MOL0     H68161  10.118   6.054   6.471 -1.2569  1.1523 -0.8144
  505MOL0     H68162  10.169   6.103   6.709 -2.1770  0.7175  3.4719
  505MOL0     H68163  10.126   6.067   7.129  0.6569  1.9310 -2.1470
  505MOL0     H68164  10.158   6.087   7.371  2.3274  3.6445  2.1768
  505MOL0     H68165   9.896   6.097   7.542  0.3744 -1.2290  0.9635
  505MOL0     H68166  10.021   6.104   7.662 -0.8700  0.0519  0.4989
  505MOL0     H68167   9.770   6.298   7.622 -0.8993  0.2137  0.7499
  505MOL0     H68168   9.892   6.301   7.754  2.0032  0.3056 -1.5266
  505MOL0     H68169   9.816   6.094   7.848 -2.3727 -3.7412 -0.8538
  505MOL0     H68170   9.718   6.061   7.706  2.7276 -0.9255 -2.0683
  505MOL0     H68171   9.566   6.246   7.751 -0.2756  1.4242 -0.4894
  505MOL0     H68172   9.683   6.314   7.872  3.5674 -1.4074 -0.4567
  505MOL0     H68173   9.409   6.006   8.025  3.2018 -2.3078  2.8807
  505MOL0     H68174   9.896   6.426   7.373 -2.3725 -1.7856  1.6743
  505MOL0     H68175   9.859   6.411   7.131  2.2740 -0.2810 -2.1649
  506MOL0     O68176   7.484   9.362  10.576 -0.1327 -0.2206  0.5089
  506MOL0     C68177   7.487   9.381  10.459 -1.2156 -1.0975  0.0698
  506MOL0     O68178   7.538   9.310  10.370 -0.4385 -0.6308  0.6701
  506MOL0     C68179   7.605   9.198  10.401  0.3560  0.1717 -0.4557
  506MOL0     C68180   7.560   9.101  10.497  0.0752 -0.5921  0.0354
  506MOL0     C68181   7.648   8.996  10.542  0.5508 -0.5465  0.1660
  506MOL0     C68182   7.766   8.967  10.471  0.1819  0.1584 -0.0789
  506MOL0     O68183   7.841   8.863  10.519 -0.6478 -0.0362  0.3116
  506MOL0     C68184   7.962   8.816  10.450  0.0257 -0.1923  0.2515
  506MOL0     C68185   8.050   8.719  10.538 -0.6006 -0.0703  0.3877
  506MOL0     C68186   8.161   8.636  10.456  0.2223  1.2075  0.3487
  506MOL0     C68187   8.093   8.532  10.362 -0.3734  0.3990 -0.4391
  506MOL0     C68188   8.203   8.443  10.296 -0.7048 -0.4096 -0.8314
  506MOL0     C68189   8.156   8.361  10.180 -0.9177  0.1559  0.8799
  506MOL0     C68190   8.262   8.290  10.095 -0.1920  0.5609  0.0842
  506MOL0     C68191   8.357   8.198  10.180 -0.5554 -0.6411 -0.4268
  506MOL0     N68192   8.452   8.119  10.083 -0.4253 -1.2022 -0.2628
  506MOL0     C68193   8.401   8.005  10.026 -0.6711  0.5830 -0.1459
  506MOL0     C68194   8.477   7.978   9.914  0.0253 -1.3943  0.4696
  506MOL0     C68195   8.448   7.866   9.808 -0.8345  1.0020 -0.2311
  506MOL0     C68196   8.307   7.892   9.743 -1.1989 -0.1699 -0.6596
  506MOL0     C68197   8.299   8.044   9.697 -0.6447 -0.9091  0.8938
  506MOL0     C68198   8.412   8.082   9.598 -0.4902  0.3698  0.1307
  506MOL0     O68199   8.396   8.013   9.474 -0.2948 -0.4831 -0.3523
  506MOL0     C68200   8.308   8.071   9.389 -0.2571  0.2501 -0.4735
  506MOL0     C68201   8.316   8.017   9.259  1.2843  0.2338 -0.3213
  506MOL0     C68202   8.231   8.065   9.152 -0.6475 -0.4002 -0.1175
  506MOL0     C68203   8.232   7.996   9.021 -0.1870 -0.2757 -0.2172
  506MOL0     C68204   8.144   8.174   9.179 -0.2284  0.4004  0.3271
  506MOL0     C68205   8.070   8.241   9.076 -0.0161 -0.2404 -0.3637
  506MOL0     O68206   8.004   8.182   8.974  0.1311 -0.2027 -0.2623
  506MOL0     C68207   7.925   8.252   8.889 -0.1594 -0.4953 -0.3500
  506MOL0     C68208   7.987   8.361   8.821 -0.0438 -0.0587  0.6527
  506MOL0     C68209   7.910   8.427   8.726  0.5729  0.0934 -0.2288
  506MOL0     C68210   7.783   8.392   8.686  0.4254  1.4755 -0.6086
  506MOL0     O68211   7.723   8.463   8.590 -0.7262 -0.4695 -0.2968
  506MOL0     C68212   7.586   8.433   8.567 -0.8158  0.3820  0.9980
  506MOL0     C68213   7.528   8.516   8.458  0.5454 -0.2895  0.5739
  506MOL0     C68214   7.623   8.528   8.334 -0.3664  1.1703  0.2340
  506MOL0     C68215   7.674   8.383   8.294  0.1180 -0.2678  0.7369
  506MOL0     C68216   7.757   8.384   8.169 -0.2144  0.4406  0.1620
  506MOL0     C68217   7.899   8.336   8.197  1.2704 -1.3406 -0.8938
  506MOL0     C68218   7.978   8.323   8.064 -0.1705 -0.4432 -0.6680
  506MOL0     C68219   8.122   8.277   8.105  0.6603 -0.2017 -0.7243
  506MOL0    Cl68220   8.223   8.271   7.961  0.3738  0.3845 -0.0791
  506MOL0     C68221   7.733   8.272   8.751 -0.1689 -0.1222  0.8933
  506MOL0     C68222   7.797   8.207   8.857  0.4639 -0.0940  0.7410
  506MOL0     O68223   8.071   8.361   9.094  0.0637 -0.2961  0.4840
  506MOL0     C68224   8.142   8.238   9.308 -0.0278 -0.5073  0.0308
  506MOL0     C68225   8.223   8.188   9.407  0.3591 -0.2431  0.2706
  506MOL0     N68226   8.574   8.074   9.912 -0.1891  0.2376 -0.0937
  506MOL0     N68227   8.553   8.171   9.995 -0.4565 -0.0031  0.3003
  506MOL0     C68228   7.801   9.049  10.359 -0.5477  0.2093  0.4892
  506MOL0     C68229   7.725   9.161  10.335  0.0097 -0.0558  0.5140
  506MOL0     C68230   7.429   9.504  10.407  0.4079  0.4392 -0.3379
  506MOL0     C68231   7.443   9.552  10.278 -0.8778  0.6111  0.8889
  506MOL0     C68232   7.380   9.666  10.232 -0.6052 -0.4276 -0.0696
  506MOL0     C68233   7.302   9.750  10.314 -1.0884  0.5900  1.0353
  506MOL0     O68234   7.255   9.856  10.259  0.1017 -1.2719 -0.3087
  506MOL0     C68235   7.127   9.921  10.295  0.3897  0.7196 -0.5406
  506MOL0     C68236   7.090  10.021  10.187 -0.8331 -0.2704  0.8998
  506MOL0     C68237   7.016  10.147  10.232  0.3418  0.1186  0.5534
  506MOL0     C68238   6.873  10.113  10.278 -0.4754  0.3286 -0.0052
  506MOL0     C68239   6.798  10.229  10.325 -0.4265  0.2953  0.8311
  506MOL0     C68240   6.730  10.312  10.378 -0.1533  0.4883 -0.1720
  506MOL0     C68241   7.292   9.709  10.443 -0.4199 -0.4759  0.6886
  506MOL0     C68242   7.347   9.582  10.491 -0.6161 -0.1249  0.3394
  506MOL0     H68243   7.460   9.111  10.536 -0.7928  0.6506 -2.3044
  506MOL0     H68244   7.605   8.936  10.621  0.9694 -2.4971 -1.0410
  506MOL0     H68245   7.928   8.759  10.363  0.0091 -0.8078  0.6482
  506MOL0     H68246   8.027   8.897  10.417  0.2300 -0.3068  0.3657
  506MOL0     H68247   8.103   8.775  10.616  1.7429 -4.1545  2.0548
  506MOL0     H68248   7.992   8.645  10.593 -1.5401  1.1641  1.1085
  506MOL0     H68249   8.224   8.704  10.399 -0.0516  2.2377  1.2304
  506MOL0     H68250   8.237   8.590  10.520  2.2513 -1.3076 -3.4688
  506MOL0     H68251   8.023   8.469  10.419 -1.3552  0.9909 -0.9780
  506MOL0     H68252   8.043   8.587  10.282 -0.2696  0.8670 -0.1871
  506MOL0     H68253   8.289   8.507  10.275 -1.3668  1.0434  0.6853
  506MOL0     H68254   8.241   8.378  10.375  1.7220 -0.6075 -2.0694
  506MOL0     H68255   8.097   8.282  10.227  2.1980 -2.6679  0.4285
  506MOL0     H68256   8.099   8.423  10.110  1.9630  1.7143 -0.2636
  506MOL0     H68257   8.219   8.234  10.012 -0.4242  0.1145  0.5045
  506MOL0     H68258   8.318   8.371  10.047  0.6744 -1.2640 -2.1827
  506MOL0     H68259   8.290   8.127  10.228  0.6459 -2.2899 -1.0666
  506MOL0     H68260   8.416   8.254  10.253  0.3811 -0.6220 -1.1781
  506MOL0     H68261   8.309   7.947  10.028  1.0300 -2.3462  0.3205
  506MOL0     H68262   8.520   7.853   9.726  0.6679  0.1568  1.1703
  506MOL0     H68263   8.444   7.768   9.858 -1.2355  0.6406 -0.9511
  506MOL0     H68264   8.220   7.883   9.808 -0.2907 -0.1653  0.5994
  506MOL0     H68265   8.296   7.830   9.653 -0.6028 -0.8765 -0.2620
  506MOL0     H68266   8.314   8.120   9.774  1.9826  2.2089 -2.3430
  506MOL0     H68267   8.205   8.069   9.649  0.7681 -2.1700 -2.9049
  506MOL0     H68268   8.511   8.055   9.636 -0.3922 -2.2575 -1.7141
  506MOL0     H68269   8.419   8.189   9.577  1.8886 -0.2517 -3.1015
  506MOL0     H68270   8.362   7.919   9.256 -1.9138 -1.5336  2.0986
  506MOL0     H68271   8.272   8.067   8.947 -1.5197 -0.6192 -1.3104
  506MOL0     H68272   8.295   7.907   9.024 -0.7445 -0.7076 -0.9409
  506MOL0     H68273   8.130   7.977   8.988  0.8135 -1.2077 -3.1583
  506MOL0     H68274   8.093   8.381   8.832  0.9776 -2.8565 -2.3241
  506MOL0     H68275   7.949   8.517   8.680 -1.3645  1.1823  0.1709
  506MOL0     H68276   7.559   8.330   8.543 -0.2163  0.7392 -1.5394
  506MOL0     H68277   7.541   8.453   8.665 -2.0262 -1.5101  0.8829
  506MOL0     H68278   7.430   8.475   8.430  0.7910 -0.9446  0.6449
  506MOL0     H68279   7.511   8.614   8.503  1.1623 -1.4709  3.6442
  506MOL0     H68280   7.701   8.603   8.350 -1.8786  2.4381  2.1471
  506MOL0     H68281   7.576   8.566   8.243 -0.5231  1.3286  0.3809
  506MOL0     H68282   7.729   8.326   8.370  2.1377 -2.3586 -2.1063
  506MOL0     H68283   7.594   8.313   8.269  1.0297  0.3090 -5.3685
  506MOL0     H68284   7.771   8.478   8.114  1.7760 -0.4533 -0.9687
  506MOL0     H68285   7.709   8.315   8.099 -1.3051  1.2941  0.0419
  506MOL0     H68286   7.936   8.412   8.266 -1.2295 -1.3753  0.5787
  506MOL0     H68287   7.885   8.242   8.250 -2.8811 -0.8037 -0.6750
  506MOL0     H68288   7.977   8.418   8.009  1.6765 -0.1609 -0.2779
  506MOL0     H68289   7.926   8.252   7.998 -1.3771  1.1408 -1.4947
  506MOL0     H68290   8.122   8.177   8.150 -1.3071 -0.1897 -0.5969
  506MOL0     H68291   8.175   8.341   8.176 -0.1905 -1.0925  0.7652
  506MOL0     H68292   7.645   8.217   8.719  1.1443 -0.8491 -1.7312
  506MOL0     H68293   7.746   8.120   8.899  0.9972 -1.7232 -1.8085
  506MOL0     H68294   8.079   8.322   9.335 -1.0087 -1.7750  1.8191
  506MOL0     H68295   8.224   8.239   9.503  2.1356  0.6689 -0.1788
  506MOL0     H68296   7.887   9.029  10.296 -0.2812  1.5536  0.3896
  506MOL0     H68297   7.760   9.231  10.260  0.8207  0.0759  1.0112
  506MOL0     H68298   7.495   9.488  10.208 -0.4787  1.2085  0.6284
  506MOL0     H68299   7.382   9.689  10.126  1.6497 -2.1584 -0.4930
  506MOL0     H68300   7.052   9.843  10.308 -0.4644  1.0696 -2.8406
  506MOL0     H68301   7.141   9.968  10.393 -1.3418 -1.0939  0.6567
  506MOL0     H68302   7.029   9.972  10.111 -0.6557 -0.2162  0.7240
  506MOL0     H68303   7.185  10.052  10.144 -1.2908 -1.9741 -1.5089
  506MOL0     H68304   7.008  10.211  10.144 -4.2622 -1.9464 -0.8003
  506MOL0     H68305   7.082  10.196  10.305 -0.2610  1.8721 -0.0342
  506MOL0     H68306   6.881  10.038  10.358 -0.9694 -1.8938 -1.9044
  506MOL0     H68307   6.821  10.058  10.198 -0.7645 -1.4526  1.3282
  506MOL0     H68308   6.659  10.386  10.408 -0.1383 -0.1119  1.4478
  506MOL0     H68309   7.239   9.772  10.514  2.7866  4.7835 -0.9911
  506MOL0     H68310   7.324   9.545  10.590 -2.2485 -0.5931 -0.1814
  507MOL0     O68311  10.806   1.622   3.282  0.1761 -0.2083 -0.0038
  507MOL0     C68312  10.810   1.612   3.404  0.3597  0.2648 -0.1342
  507MOL0     O68313  10.892   1.686   3.488 -0.2602  0.1910  0.8449
  507MOL0     C68314  10.990   1.774   3.451  0.2390  1.1296  0.2490
  507MOL0     C68315  10.988   1.839   3.324  0.0658 -0.0007  0.6151
  507MOL0     C68316  11.082   1.939   3.299 -0.5949 -0.3700 -0.0297
  507MOL0     C68317  11.174   1.987   3.396 -0.6471  1.0623  0.8319
  507MOL0     O68318  11.253   2.089   3.347  0.6995 -1.0847 -0.3737
  507MOL0     C68319  11.334   2.162   3.440 -0.8465  1.0207  0.6321
  507MOL0     C68320  11.437   2.245   3.359 -0.3050 -0.0967 -0.4856
  507MOL0     C68321  11.372   2.382   3.307 -0.1004 -0.3932  0.1235
  507MOL0     C68322  11.460   2.455   3.209 -0.0314 -0.1907  1.2349
  507MOL0     C68323  11.388   2.577   3.149 -0.2000  0.1018 -0.6913
  507MOL0     C68324  11.274   2.554   3.045 -0.7063 -0.2848  0.1371
  507MOL0     C68325  11.305   2.481   2.913  0.9504  0.9435  0.1298
  507MOL0     C68326  11.196   2.470   2.809  0.3768  1.1704 -0.1635
  507MOL0     N68327  11.075   2.411   2.864  0.1078  0.0298  0.2746
  507MOL0     C68328  11.065   2.283   2.905  0.1585 -1.0864 -0.6950
  507MOL0     C68329  10.944   2.287   2.976  0.4553 -0.2486  0.0665
  507MOL0     C68330  10.874   2.173   3.039 -0.8302  0.4189  0.0470
  507MOL0     C68331  10.814   2.087   2.932 -0.4688 -0.0049  0.0272
  507MOL0     C68332  10.698   2.161   2.859  0.1255 -0.4750  0.2745
  507MOL0     C68333  10.581   2.063   2.810  0.3219 -0.3229 -0.3954
  507MOL0     O68334  10.460   2.128   2.772 -0.5132 -0.8857 -0.5364
  507MOL0     C68335  10.360   2.056   2.713 -0.4186  0.1864  0.1374
  507MOL0     C68336  10.353   1.920   2.712  0.1428 -0.0774 -0.1178
  507MOL0     C68337  10.253   1.853   2.638  0.5291  0.5529  0.3023
  507MOL0     C68338  10.270   1.702   2.647  0.7125 -0.0630  0.3851
  507MOL0     C68339  10.152   1.924   2.573  0.0008 -0.0261 -0.3235
  507MOL0     C68340  10.034   1.852   2.508 -0.5464  0.3115 -0.2345
  507MOL0     O68341   9.936   1.935   2.462 -0.1487 -0.6716 -0.6169
  507MOL0     C68342   9.855   1.876   2.370  0.1959 -0.5265  0.6502
  507MOL0     C68343   9.896   1.805   2.257 -0.7548 -0.2099 -0.2430
  507MOL0     C68344   9.806   1.766   2.156 -0.2018  0.3394 -0.3676
  507MOL0     C68345   9.676   1.801   2.159  0.8572 -0.5127  0.1514
  507MOL0     O68346   9.589   1.772   2.060  0.3130  0.3875  0.6511
  507MOL0     C68347   9.458   1.730   2.099  0.0877  0.4253  1.1997
  507MOL0     C68348   9.386   1.698   1.971  0.0604  0.1020 -0.7924
  507MOL0     C68349   9.354   1.810   1.874 -0.3813  0.2429  0.4927
  507MOL0     C68350   9.280   1.764   1.747 -0.5734 -0.2124  0.4554
  507MOL0     C68351   9.266   1.873   1.641  0.5227 -0.9240 -0.3324
  507MOL0     C68352   9.187   1.821   1.518  0.0949 -0.9050  0.0712
  507MOL0     C68353   9.171   1.927   1.410 -0.4458  0.1993  1.0597
  507MOL0     C68354   9.305   1.999   1.372 -0.5408  1.0502 -0.1239
  507MOL0    Cl68355   9.285   2.127   1.244  0.4109 -0.4299  0.3303
  507MOL0     C68356   9.636   1.889   2.258  0.4905 -0.0396 -0.8382
  507MOL0     C68357   9.719   1.916   2.371 -0.5055 -0.5928 -0.1015
  507MOL0     O68358  10.052   1.728   2.485 -0.1084 -0.4754  0.1019
  507MOL0     C68359  10.159   2.064   2.580  0.8752 -0.4164  0.8116
  507MOL0     C68360  10.265   2.129   2.644  0.1638 -0.7181 -0.3209
  507MOL0     N68361  10.904   2.420   2.985 -0.0263  0.5290 -0.0744
  507MOL0     N68362  10.980   2.493   2.914  0.4194  0.3547  0.5342
  507MOL0     C68363  11.171   1.921   3.522 -0.4930 -0.3910  0.4531
  507MOL0     C68364  11.090   1.807   3.543 -0.3561  0.4952 -0.7076
  507MOL0     C68365  10.715   1.529   3.474  0.1098  0.0585 -0.4165
  507MOL0     C68366  10.697   1.528   3.611 -0.9230 -0.2977  0.4590
  507MOL0     C68367  10.611   1.437   3.678  0.5025 -0.9106 -0.0559
  507MOL0     C68368  10.544   1.339   3.606  0.4446  0.8463 -0.1957
  507MOL0     O68369  10.471   1.246   3.683  0.4631 -0.0298  1.1533
  507MOL0     C68370  10.357   1.174   3.638 -0.0587 -0.1626 -0.8834
  507MOL0     C68371  10.322   1.067   3.742 -0.3208 -0.5643 -0.8051
  507MOL0     C68372  10.413   0.943   3.736  0.2828  0.3834 -0.3115
  507MOL0     C68373  10.565   0.969   3.730 -1.2441  1.2964  0.7247
  507MOL0     C68374  10.626   0.834   3.750 -0.2982 -0.8586 -0.3621
  507MOL0     C68375  10.672   0.721   3.763 -0.4634 -0.1343  0.5977
  507MOL0     C68376  10.567   1.337   3.465 -0.0062  0.2724  1.3683
  507MOL0     C68377  10.644   1.440   3.406 -1.2199  0.2727  0.2535
  507MOL0     H68378  10.915   1.821   3.246  2.7710 -1.6869 -1.7554
  507MOL0     H68379  11.086   1.998   3.208  0.0469  2.4578  1.7118
  507MOL0     H68380  11.263   2.217   3.502 -3.6363  0.2493 -1.6648
  507MOL0     H68381  11.390   2.096   3.506 -0.7980  1.0057  0.5759
  507MOL0     H68382  11.534   2.267   3.405 -0.7297  0.8509 -0.0251
  507MOL0     H68383  11.457   2.196   3.263 -0.3338 -0.2286 -0.4238
  507MOL0     H68384  11.278   2.351   3.260  0.5418 -1.8956 -0.2220
  507MOL0     H68385  11.351   2.445   3.394 -2.4091  0.9359 -1.2979
  507MOL0     H68386  11.551   2.479   3.265 -3.0590  1.3950  6.2035
  507MOL0     H68387  11.477   2.383   3.128 -2.7445 -0.4356  0.7908
  507MOL0     H68388  11.339   2.630   3.231 -1.7174 -2.8759  0.4622
  507MOL0     H68389  11.466   2.644   3.112  0.7107  0.1095  1.1677
  507MOL0     H68390  11.197   2.495   3.096  1.1744 -0.9097  2.4631
  507MOL0     H68391  11.231   2.652   3.023 -0.8121 -0.6278 -1.2913
  507MOL0     H68392  11.391   2.525   2.862 -0.0197 -0.2405 -2.7377
  507MOL0     H68393  11.331   2.375   2.923 -0.5791 -0.6232 -7.0360
  507MOL0     H68394  11.230   2.402   2.730  0.2602 -0.5911  1.2339
  507MOL0     H68395  11.177   2.571   2.772  0.1971  3.4452  5.2900
  507MOL0     H68396  11.118   2.188   2.899  2.7344 -0.2687  4.1059
  507MOL0     H68397  10.946   2.120   3.103 -1.1126 -0.3167 -0.2461
  507MOL0     H68398  10.791   2.209   3.101 -0.8254  0.1952  0.1859
  507MOL0     H68399  10.754   2.019   2.993 -2.9084  2.4648  0.5877
  507MOL0     H68400  10.877   2.041   2.856 -1.1867 -2.2068  0.6919
  507MOL0     H68401  10.737   2.215   2.773  3.5690 -0.9335  1.3800
  507MOL0     H68402  10.658   2.232   2.933  0.3077  1.0286 -1.0259
  507MOL0     H68403  10.556   1.997   2.894 -1.0624 -2.4751 -2.3740
  507MOL0     H68404  10.610   1.992   2.732  0.2269  0.9388 -1.6092
  507MOL0     H68405  10.428   1.859   2.763 -1.8400 -1.5461  1.1906
  507MOL0     H68406  10.282   1.656   2.549 -1.4720 -2.6126  1.1973
  507MOL0     H68407  10.362   1.687   2.705  0.3325 -0.0664  1.0001
  507MOL0     H68408  10.192   1.648   2.701  1.7865 -2.7854 -0.6131
  507MOL0     H68409  10.001   1.784   2.241 -0.9119  0.5543 -2.7157
  507MOL0     H68410   9.828   1.697   2.075 -1.4269 -3.0349  1.9144
  507MOL0     H68411   9.467   1.635   2.153  1.5648 -1.0210 -1.3724
  507MOL0     H68412   9.416   1.807   2.163 -0.6929 -1.1748  2.7017
  507MOL0     H68413   9.442   1.616   1.926 -1.0846 -1.8401  1.1528
  507MOL0     H68414   9.289   1.665   2.007  0.9811 -2.9142 -0.8346
  507MOL0     H68415   9.450   1.849   1.839 -0.2023  1.0937  1.8463
  507MOL0     H68416   9.309   1.897   1.923 -1.8121 -1.7194  2.9079
  507MOL0     H68417   9.331   1.674   1.710  1.0467  1.1505 -0.7565
  507MOL0     H68418   9.183   1.729   1.786 -0.4165 -0.0709  0.9858
  507MOL0     H68419   9.365   1.916   1.620 -0.0553 -0.2531 -1.7870
  507MOL0     H68420   9.204   1.948   1.690  0.4572 -2.1111  1.4953
  507MOL0     H68421   9.232   1.725   1.490 -1.3279 -1.3769 -0.6689
  507MOL0     H68422   9.084   1.799   1.546 -1.3141  3.2428 -1.1266
  507MOL0     H68423   9.096   2.004   1.432  1.1825  1.2852  3.2488
  507MOL0     H68424   9.135   1.883   1.316  1.6969 -0.3491  0.4514
  507MOL0     H68425   9.381   1.926   1.342 -2.3105 -0.8923 -0.1357
  507MOL0     H68426   9.345   2.050   1.460 -3.1633 -0.2128  1.9815
  507MOL0     H68427   9.539   1.936   2.248 -1.0311 -2.7998 -0.0603
  507MOL0     H68428   9.700   1.989   2.449 -0.2226 -0.8505  0.2066
  507MOL0     H68429  10.098   2.123   2.513 -0.5132 -1.9888  0.6246
  507MOL0     H68430  10.278   2.233   2.615 -3.2919  0.5548  1.9702
  507MOL0     H68431  11.234   1.958   3.602 -0.0397  0.3776 -0.2427
  507MOL0     H68432  11.074   1.768   3.644 -1.0659  1.5917 -0.3742
  507MOL0     H68433  10.764   1.589   3.671  1.1485  1.6953 -3.5205
  507MOL0     H68434  10.599   1.436   3.786 -2.3829  1.8742 -0.1905
  507MOL0     H68435  10.273   1.242   3.629 -1.2430 -1.7797 -2.6650
  507MOL0     H68436  10.370   1.125   3.541  1.8190 -2.6622  0.4756
  507MOL0     H68437  10.223   1.035   3.708 -0.1421  0.4077 -2.3373
  507MOL0     H68438  10.303   1.109   3.841 -1.7693 -0.1646 -1.2295
  507MOL0     H68439  10.401   0.880   3.648  1.6069  0.9538 -0.9221
  507MOL0     H68440  10.391   0.879   3.822 -0.7645 -2.2791 -2.4297
  507MOL0     H68441  10.594   1.042   3.806 -0.4555  0.6535  1.0585
  507MOL0     H68442  10.608   0.998   3.634 -0.3547 -2.2969 -0.1032
  507MOL0     H68443  10.721   0.626   3.753  2.7016  1.5471 -1.2357
  507MOL0     H68444  10.520   1.258   3.406 -1.6708  2.0335  0.2078
  507MOL0     H68445  10.652   1.433   3.297  0.9385  0.7124  0.3256
  508MOL0     O68446   8.177   5.844   9.327  0.6531 -0.5396  0.1064
  508MOL0     C68447   8.132   5.866   9.214  0.0822 -0.2907  0.7281
  508MOL0     O68448   8.115   5.997   9.161 -0.1743 -0.3131 -0.4231
  508MOL0     C68449   8.169   6.089   9.246 -1.1459 -0.6718 -0.0615
  508MOL0     C68450   8.304   6.094   9.273  0.0297 -0.0488  0.1529
  508MOL0     C68451   8.374   6.177   9.358 -0.5681 -0.6586  0.7633
  508MOL0     C68452   8.308   6.281   9.422  0.3645  0.4192  1.0496
  508MOL0     O68453   8.380   6.383   9.480 -0.4737 -0.0620  0.5392
  508MOL0     C68454   8.523   6.370   9.493  0.1280 -0.0601 -0.2534
  508MOL0     C68455   8.590   6.482   9.567 -0.3208  0.5960 -0.7568
  508MOL0     C68456   8.715   6.444   9.645  0.2130  0.4184 -0.6551
  508MOL0     C68457   8.811   6.335   9.589 -0.7953  0.0546 -0.4002
  508MOL0     C68458   8.923   6.274   9.685  0.0135  0.3153 -0.8847
  508MOL0     C68459   8.978   6.139   9.631  1.0250  0.1385 -0.5430
  508MOL0     C68460   9.100   6.153   9.545 -0.4543  0.4050  0.7836
  508MOL0     C68461   9.217   6.212   9.635 -0.3964 -0.3129  0.0273
  508MOL0     N68462   9.317   6.285   9.560  0.0457 -0.2103  0.0498
  508MOL0     C68463   9.415   6.240   9.473 -0.5040 -0.0891  0.5275
  508MOL0     C68464   9.477   6.353   9.424 -0.3327  0.5779 -0.4530
  508MOL0     C68465   9.563   6.328   9.304  0.3520 -0.5204 -0.2341
  508MOL0     C68466   9.704   6.285   9.376 -1.1555  0.3345  0.5036
  508MOL0     C68467   9.801   6.226   9.276 -0.2796  0.0348 -0.0855
  508MOL0     C68468   9.944   6.224   9.333  1.0225  0.2721  0.3713
  508MOL0     O68469   9.991   6.365   9.327 -0.0463  0.1874  0.7047
  508MOL0     C68470  10.105   6.388   9.403 -0.2255  0.4156 -0.5153
  508MOL0     C68471  10.143   6.518   9.438 -0.4031 -0.3803 -1.3171
  508MOL0     C68472  10.255   6.558   9.526  0.6863 -0.1048  0.7974
  508MOL0     C68473  10.277   6.707   9.566  0.1636 -0.7086 -0.3510
  508MOL0     C68474  10.330   6.455   9.581  0.7713  0.1588  0.2639
  508MOL0     C68475  10.440   6.469   9.678 -0.4698 -0.0527  0.1669
  508MOL0     O68476  10.533   6.371   9.684  0.2336 -0.2571  0.1505
  508MOL0     C68477  10.659   6.382   9.735 -0.2024 -0.5650  0.5237
  508MOL0     C68478  10.718   6.499   9.766  0.5614 -0.9269 -0.0162
  508MOL0     C68479  10.839   6.512   9.828  0.2841 -0.0999 -0.4814
  508MOL0     C68480  10.908   6.388   9.866 -0.3729  0.9913 -0.0222
  508MOL0     O68481  11.030   6.377   9.935 -0.4058 -0.5157  0.4626
  508MOL0     C68482  11.140   6.414   9.861 -0.0382 -0.9918 -0.0317
  508MOL0     C68483  11.264   6.440   9.958 -0.6876  0.1996 -0.3928
  508MOL0     C68484  11.238   6.546  10.061 -0.2613  0.1768  0.5225
  508MOL0     C68485  11.377   6.600  10.105  0.5996 -0.1875 -0.4760
  508MOL0     C68486  11.365   6.651  10.249 -0.5940 -0.4830 -0.1079
  508MOL0     C68487  11.513   6.710  10.285  1.2011  0.9520  0.3514
  508MOL0     C68488  11.522   6.792  10.420 -1.0652 -0.1339  0.3923
  508MOL0     C68489  11.663   6.829  10.460 -0.0954  0.4819 -0.1286
  508MOL0    Cl68490  11.731   6.956  10.359 -0.0034  0.6894 -0.0764
  508MOL0     C68491  10.848   6.269   9.828 -0.0854 -0.5225  0.2127
  508MOL0     C68492  10.724   6.264   9.759 -0.3384  0.4326  0.1374
  508MOL0     O68493  10.442   6.566   9.748 -0.1356 -0.1698 -0.0945
  508MOL0     C68494  10.300   6.321   9.544  0.4289 -0.1541 -0.7155
  508MOL0     C68495  10.187   6.287   9.459 -0.4546  0.0649 -0.7586
  508MOL0     N68496   9.430   6.470   9.488 -0.2834 -0.0049 -0.5799
  508MOL0     N68497   9.335   6.419   9.572  0.0524  0.0707 -0.4081
  508MOL0     C68498   8.179   6.300   9.375 -0.3418 -0.3891  0.1433
  508MOL0     C68499   8.117   6.209   9.293  0.1028  0.2708 -0.8859
  508MOL0     C68500   8.113   5.754   9.123 -1.0162  0.1294 -0.6621
  508MOL0     C68501   8.033   5.753   9.014 -0.8368 -0.0003  0.4326
  508MOL0     C68502   8.023   5.647   8.925  0.0583  0.3927  0.1845
  508MOL0     C68503   8.069   5.522   8.947 -0.8069 -1.0035  0.0665
  508MOL0     O68504   8.028   5.423   8.863 -0.1303  0.4974 -0.2964
  508MOL0     C68505   8.068   5.288   8.885  0.3077 -0.4470 -0.5434
  508MOL0     C68506   7.973   5.191   8.804 -0.6493 -0.2803  0.5096
  508MOL0     C68507   8.000   5.202   8.659 -0.1286 -0.4900  1.5385
  508MOL0     C68508   7.923   5.099   8.587  0.3361  0.1949  0.7310
  508MOL0     C68509   7.948   5.093   8.439 -0.2065  0.5969  0.4569
  508MOL0     C68510   7.952   5.079   8.316 -0.7080  0.3465 -0.2588
  508MOL0     C68511   8.155   5.511   9.056  0.9302 -0.0836 -0.9866
  508MOL0     C68512   8.174   5.627   9.147 -0.7723  0.1787  0.4255
  508MOL0     H68513   8.375   6.029   9.224 -2.1997 -2.5943  0.0691
  508MOL0     H68514   8.479   6.150   9.368  0.3145  2.3302  0.3975
  508MOL0     H68515   8.530   6.286   9.562 -0.6780 -0.5819 -0.7896
  508MOL0     H68516   8.575   6.357   9.398  0.1282 -3.3201  0.1055
  508MOL0     H68517   8.621   6.561   9.499  0.8141 -0.4751 -1.5276
  508MOL0     H68518   8.511   6.513   9.635  1.2205  1.1326  0.8639
  508MOL0     H68519   8.776   6.532   9.667 -1.9370  1.6891  0.5397
  508MOL0     H68520   8.674   6.406   9.739  2.4307  1.8232  0.9770
  508MOL0     H68521   8.755   6.260   9.532 -0.9388 -0.1187 -0.0367
  508MOL0     H68522   8.869   6.387   9.513 -1.0158 -0.3461 -0.8539
  508MOL0     H68523   9.005   6.347   9.690 -0.3080  1.2182 -4.9951
  508MOL0     H68524   8.885   6.249   9.784 -1.0951 -3.0003 -2.0154
  508MOL0     H68525   9.001   6.086   9.724  1.6638  1.9840  0.3907
  508MOL0     H68526   8.899   6.089   9.573  0.4959  1.8728 -1.3657
  508MOL0     H68527   9.131   6.056   9.506  3.8952  1.2228  1.7627
  508MOL0     H68528   9.071   6.218   9.461 -0.5214 -1.2837 -0.5665
  508MOL0     H68529   9.271   6.136   9.694 -0.3688  1.3178  2.2156
  508MOL0     H68530   9.182   6.277   9.716 -1.0539 -0.0841 -0.4390
  508MOL0     H68531   9.418   6.135   9.447 -5.1323  0.0529 -1.5277
  508MOL0     H68532   9.519   6.261   9.230 -0.7416  0.7767 -0.8065
  508MOL0     H68533   9.566   6.425   9.252 -0.4260 -0.0032  0.6601
  508MOL0     H68534   9.691   6.213   9.457 -0.9889 -0.7433 -0.4022
  508MOL0     H68535   9.748   6.375   9.419 -0.6310  2.0521 -3.2546
  508MOL0     H68536   9.794   6.283   9.183 -0.1963  0.9150  0.4434
  508MOL0     H68537   9.775   6.122   9.256  1.7894 -1.1626  2.6670
  508MOL0     H68538  10.007   6.149   9.286 -2.9864 -1.5191 -2.7655
  508MOL0     H68539   9.924   6.188   9.435 -0.1131  0.8346  0.3690
  508MOL0     H68540  10.079   6.598   9.403 -1.3074 -0.4702  0.0233
  508MOL0     H68541  10.221   6.778   9.504 -0.4393  0.2753  1.2669
  508MOL0     H68542  10.245   6.718   9.670 -2.1584 -1.2708 -0.9330
  508MOL0     H68543  10.383   6.730   9.577 -0.0480 -0.8338  2.6805
  508MOL0     H68544  10.667   6.590   9.737 -0.2263 -1.1000  0.7703
  508MOL0     H68545  10.884   6.610   9.836 -0.4302  0.3093 -1.2936
  508MOL0     H68546  11.169   6.339   9.787  1.8015 -0.1719 -0.2042
  508MOL0     H68547  11.106   6.498   9.799 -0.6344 -2.4063 -1.6913
  508MOL0     H68548  11.282   6.352  10.021  0.5886  1.6429  1.3473
  508MOL0     H68549  11.353   6.460   9.898 -0.4612  0.2160 -0.0533
  508MOL0     H68550  11.176   6.499  10.138 -2.2906  0.4329 -0.8512
  508MOL0     H68551  11.165   6.619  10.024  0.3366 -0.4301 -2.0712
  508MOL0     H68552  11.444   6.513  10.099 -1.8081 -2.0326 -2.9867
  508MOL0     H68553  11.410   6.676  10.034  0.3129  2.0394  1.6489
  508MOL0     H68554  11.326   6.577  10.319 -0.9077  1.2003  1.5908
  508MOL0     H68555  11.300   6.739  10.247  0.1633  0.0916 -1.1162
  508MOL0     H68556  11.586   6.629  10.276 -0.9594 -0.8652 -3.0114
  508MOL0     H68557  11.543   6.779  10.205  0.1218  0.4874 -0.4742
  508MOL0     H68558  11.489   6.734  10.507  1.4670  0.2566  1.6973
  508MOL0     H68559  11.472   6.889  10.416 -1.1475 -0.2015 -1.8192
  508MOL0     H68560  11.719   6.735  10.461 -2.8071 -1.2353 -0.7542
  508MOL0     H68561  11.659   6.876  10.559  1.5266  3.1140 -1.1854
  508MOL0     H68562  10.895   6.177   9.863 -1.2219 -0.4538  1.9952
  508MOL0     H68563  10.690   6.164   9.733  0.5922 -0.1863  1.2049
  508MOL0     H68564  10.357   6.237   9.582  0.3591 -0.1808 -0.6707
  508MOL0     H68565  10.173   6.180   9.447  1.6292 -0.0755 -2.7193
  508MOL0     H68566   8.131   6.397   9.372 -2.6931 -1.4247  1.4058
  508MOL0     H68567   8.011   6.223   9.276 -0.4742  1.6371  2.8636
  508MOL0     H68568   7.985   5.845   8.984  1.6809  0.6726 -1.9051
  508MOL0     H68569   7.952   5.662   8.844 -1.7390  3.2174  2.1019
  508MOL0     H68570   8.170   5.279   8.847  1.3312  1.4498  1.4827
  508MOL0     H68571   8.061   5.263   8.992 -0.9038  1.7222 -0.0548
  508MOL0     H68572   7.867   5.216   8.815 -0.3186  2.0592 -0.8532
  508MOL0     H68573   8.012   5.095   8.838  2.3208 -0.1592 -2.1317
  508MOL0     H68574   8.105   5.201   8.629 -0.7966  1.9179 -1.3732
  508MOL0     H68575   7.961   5.300   8.630 -1.5926 -0.6061  3.0114
  508MOL0     H68576   7.817   5.123   8.592  0.9801  3.3602  1.5136
  508MOL0     H68577   7.938   5.007   8.644 -0.8555  0.1261  0.9483
  508MOL0     H68578   7.961   5.065   8.210  0.6121 -2.1319  0.1117
  508MOL0     H68579   8.203   5.416   9.078  1.0273  0.5048  1.7292
  508MOL0     H68580   8.238   5.618   9.234 -0.4592  3.5534  0.6583
  509MOL0     O68581   9.248   4.555   3.404 -0.2303  0.3008  0.7210
  509MOL0     C68582   9.339   4.580   3.321  0.2959 -0.7976  0.5979
  509MOL0     O68583   9.448   4.650   3.358  0.4272 -0.3607  0.0170
  509MOL0     C68584   9.462   4.719   3.471 -0.2344 -0.8754  0.4003
  509MOL0     C68585   9.584   4.724   3.532 -0.3483 -0.2937  0.4491
  509MOL0     C68586   9.618   4.810   3.642  0.2067  0.0333  0.4469
  509MOL0     C68587   9.516   4.892   3.695 -0.7942 -0.2418  0.8965
  509MOL0     O68588   9.545   4.958   3.810 -0.7824 -0.5702  0.4170
  509MOL0     C68589   9.451   5.057   3.859 -0.1686  0.6984  0.0721
  509MOL0     C68590   9.456   5.181   3.779  0.4323 -0.8177  0.0622
  509MOL0     C68591   9.364   5.305   3.823 -0.4554 -0.1301  0.0251
  509MOL0     C68592   9.345   5.311   3.977  0.5994 -0.2094 -0.8356
  509MOL0     C68593   9.245   5.427   4.016  0.5890 -0.0581  0.0750
  509MOL0     C68594   9.169   5.414   4.157  0.3147  1.0176  0.8880
  509MOL0     C68595   9.068   5.301   4.146  1.1829  1.2770  0.1414
  509MOL0     C68596   8.934   5.338   4.080  0.2320 -0.5503 -0.1419
  509MOL0     N68597   8.856   5.437   4.156 -0.3298  0.2761  0.3732
  509MOL0     C68598   8.726   5.403   4.193  0.9014 -0.5838 -0.2791
  509MOL0     C68599   8.654   5.518   4.195 -0.8132 -0.1730 -0.2739
  509MOL0     C68600   8.503   5.532   4.207 -0.1013 -0.9649  0.2789
  509MOL0     C68601   8.466   5.658   4.273  0.1022 -1.2394 -0.8134
  509MOL0     C68602   8.533   5.678   4.406 -1.1479  0.1709 -0.7538
  509MOL0     C68603   8.458   5.782   4.481  0.4274 -0.0325  0.2998
  509MOL0     O68604   8.332   5.730   4.515 -0.5121 -0.1691 -0.2662
  509MOL0     C68605   8.218   5.793   4.463  0.6783 -0.9944 -0.0246
  509MOL0     C68606   8.213   5.890   4.361  0.2628  0.0273  0.4160
  509MOL0     C68607   8.095   5.958   4.334 -0.1527 -0.1564  0.2296
  509MOL0     C68608   8.098   6.065   4.215 -0.8841  0.4087  0.1122
  509MOL0     C68609   7.979   5.948   4.412 -0.2484 -0.0685  0.5474
  509MOL0     C68610   7.857   6.042   4.417 -0.5266  0.0933  0.2635
  509MOL0     O68611   7.745   5.990   4.475  0.1614  1.0395 -0.1098
  509MOL0     C68612   7.638   6.076   4.473 -0.0109  0.8928  1.0658
  509MOL0     C68613   7.585   6.131   4.592  0.7889  0.7394  0.2182
  509MOL0     C68614   7.461   6.188   4.596  0.1476 -0.7699  0.2533
  509MOL0     C68615   7.384   6.208   4.478 -0.2800  0.0674 -1.7963
  509MOL0     O68616   7.264   6.262   4.464 -0.3180  0.8434  0.0989
  509MOL0     C68617   7.229   6.357   4.566 -0.3245  0.7032  0.4229
  509MOL0     C68618   7.133   6.291   4.666 -0.4843 -0.3847  0.4318
  509MOL0     C68619   6.993   6.247   4.611 -0.1494  0.9654  1.4594
  509MOL0     C68620   6.951   6.118   4.679 -0.0322  0.0242 -0.0553
  509MOL0     C68621   6.819   6.062   4.618  0.1300  0.9059 -0.7095
  509MOL0     C68622   6.776   5.936   4.699  0.6811 -0.3454 -0.5513
  509MOL0     C68623   6.872   5.823   4.655 -0.8108  0.3212 -0.2474
  509MOL0     C68624   6.813   5.708   4.569 -0.7294 -0.6306  0.6967
  509MOL0    Cl68625   6.928   5.566   4.581 -0.4292  0.1802 -0.0939
  509MOL0     C68626   7.441   6.170   4.357 -0.1335 -0.4269 -0.0352
  509MOL0     C68627   7.566   6.102   4.350  1.4213  0.6467 -0.5871
  509MOL0     O68628   7.861   6.156   4.369 -0.1087  0.6299  0.1835
  509MOL0     C68629   7.985   5.845   4.506 -0.6548 -0.4198 -0.2006
  509MOL0     C68630   8.100   5.764   4.530 -0.7885 -0.2926  0.1353
  509MOL0     N68631   8.743   5.613   4.149 -0.3905  0.3039  0.3917
  509MOL0     N68632   8.861   5.573   4.133  0.9508  0.2403  0.5587
  509MOL0     C68633   9.391   4.887   3.631  0.2658 -0.8831  0.1080
  509MOL0     C68634   9.367   4.803   3.525 -0.4936  0.2004  0.1907
  509MOL0     C68635   9.314   4.561   3.179  0.3983  1.1152 -0.1219
  509MOL0     C68636   9.333   4.668   3.082  0.3130 -0.3590 -0.5596
  509MOL0     C68637   9.330   4.640   2.947  0.2844  0.3433  0.0269
  509MOL0     C68638   9.304   4.514   2.899  0.7076  1.0220  0.1803
  509MOL0     O68639   9.304   4.494   2.758 -0.5712 -0.0009  0.4405
  509MOL0     C68640   9.399   4.395   2.700 -0.2372 -0.2434 -0.4288
  509MOL0     C68641   9.530   4.469   2.667  0.4682  0.4023  0.2870
  509MOL0     C68642   9.519   4.596   2.577 -0.6282  0.2019  0.0656
  509MOL0     C68643   9.646   4.619   2.486 -0.1403  0.6547 -0.1183
  509MOL0     C68644   9.629   4.751   2.414  0.3633 -0.5929  0.7265
  509MOL0     C68645   9.610   4.852   2.346  0.4588 -0.2226  0.2352
  509MOL0     C68646   9.282   4.406   2.999  0.1091 -0.4036 -0.1319
  509MOL0     C68647   9.278   4.435   3.138  0.4083  0.1284 -0.5869
  509MOL0     H68648   9.655   4.661   3.479  0.4840  1.9309 -1.3088
  509MOL0     H68649   9.714   4.809   3.693  1.9429 -2.5883 -2.5426
  509MOL0     H68650   9.352   5.013   3.867 -0.1668  0.7644  0.4869
  509MOL0     H68651   9.487   5.081   3.959  0.5673  1.0552 -0.2655
  509MOL0     H68652   9.555   5.217   3.808 -0.8295  0.7712  2.7688
  509MOL0     H68653   9.445   5.167   3.671 -1.4481  2.7822 -0.3927
  509MOL0     H68654   9.406   5.399   3.790 -1.7918  0.3465 -0.3783
  509MOL0     H68655   9.267   5.292   3.773  0.3711  1.6052 -2.1685
  509MOL0     H68656   9.299   5.217   4.011 -2.4013  1.5733  0.4669
  509MOL0     H68657   9.438   5.323   4.033 -0.0925 -1.9629  0.8179
  509MOL0     H68658   9.306   5.518   4.020 -1.6445  1.5377 -0.0781
  509MOL0     H68659   9.173   5.434   3.934 -1.2046  2.6910  1.7372
  509MOL0     H68660   9.253   5.394   4.224  1.1523 -2.3358 -0.9353
  509MOL0     H68661   9.126   5.512   4.182  0.8349  1.8327 -1.1513
  509MOL0     H68662   9.101   5.204   4.110  0.4450  1.5908 -1.4955
  509MOL0     H68663   9.035   5.273   4.246 -0.5345  0.6361 -0.5640
  509MOL0     H68664   8.883   5.242   4.077 -2.2899  0.6334  1.0366
  509MOL0     H68665   8.951   5.389   3.985  0.6706  1.1614  0.8116
  509MOL0     H68666   8.681   5.304   4.197  2.1884 -1.2364 -1.4726
  509MOL0     H68667   8.449   5.515   4.113  0.6267  4.1368 -1.3263
  509MOL0     H68668   8.470   5.458   4.281  0.2160  0.9057  2.3759
  509MOL0     H68669   8.359   5.645   4.294  0.4144 -0.6608  1.3392
  509MOL0     H68670   8.472   5.747   4.210 -2.7103 -0.5718 -0.3181
  509MOL0     H68671   8.636   5.716   4.400 -1.5081  1.5107  0.7328
  509MOL0     H68672   8.520   5.594   4.474 -1.1690  0.5137 -0.3310
  509MOL0     H68673   8.468   5.876   4.426  3.1426  0.3664  1.2780
  509MOL0     H68674   8.523   5.811   4.565 -0.8375  3.2455  0.2704
  509MOL0     H68675   8.303   5.912   4.305 -0.2192  2.7270  0.5767
  509MOL0     H68676   8.088   6.166   4.256 -4.2980  0.1864  0.1629
  509MOL0     H68677   8.197   6.058   4.168 -0.9686 -1.1475  0.1325
  509MOL0     H68678   8.023   6.045   4.137 -2.0660  1.7168  0.8779
  509MOL0     H68679   7.636   6.104   4.685 -2.6650 -1.4041  1.6810
  509MOL0     H68680   7.407   6.198   4.690  0.2511  0.1609  0.2259
  509MOL0     H68681   7.319   6.399   4.611  0.5216 -2.0903  1.5799
  509MOL0     H68682   7.182   6.443   4.517  0.9337  1.3786  0.3462
  509MOL0     H68683   7.181   6.200   4.705  1.4198  1.1804  1.9473
  509MOL0     H68684   7.123   6.357   4.752 -1.5416  2.2786 -1.5911
  509MOL0     H68685   7.002   6.239   4.502 -3.6096  1.0807  1.0675
  509MOL0     H68686   6.914   6.320   4.632  0.7120  1.7791  1.9560
  509MOL0     H68687   7.026   6.039   4.672  0.3518  0.2345  1.3782
  509MOL0     H68688   6.932   6.136   4.785  1.1672 -0.0616  0.1898
  509MOL0     H68689   6.834   6.035   4.513  2.1523 -2.2275  0.2492
  509MOL0     H68690   6.739   6.137   4.624  0.7573  1.4619  2.2492
  509MOL0     H68691   6.783   5.960   4.805  2.0377  1.7153 -1.0327
  509MOL0     H68692   6.674   5.910   4.672  0.3021 -0.7980  1.2043
  509MOL0     H68693   6.930   5.781   4.738 -2.8019  2.1875  2.2417
  509MOL0     H68694   6.950   5.860   4.587  0.9265 -1.5439  0.6244
  509MOL0     H68695   6.798   5.744   4.467 -1.5769  0.4551  1.1901
  509MOL0     H68696   6.718   5.679   4.617 -0.2816  0.2802  2.2164
  509MOL0     H68697   7.393   6.196   4.263  0.6864  0.0309 -0.3407
  509MOL0     H68698   7.618   6.072   4.259  0.4555  2.7449 -1.9119
  509MOL0     H68699   7.894   5.837   4.565 -1.4340  4.0521 -0.3971
  509MOL0     H68700   8.105   5.679   4.596 -1.6210 -1.4112 -1.1857
  509MOL0     H68701   9.310   4.938   3.682 -0.6098  1.0408 -2.9278
  509MOL0     H68702   9.266   4.807   3.485 -0.2733 -0.5534 -0.4677
  509MOL0     H68703   9.378   4.762   3.110 -1.8920  1.0384 -1.4168
  509MOL0     H68704   9.345   4.714   2.869  2.7575 -0.4058 -0.3094
  509MOL0     H68705   9.418   4.315   2.772  1.3143  0.6895  0.2562
  509MOL0     H68706   9.349   4.353   2.612 -1.9050  1.8236 -0.5417
  509MOL0     H68707   9.591   4.394   2.617  0.3115  0.4930 -0.0469
  509MOL0     H68708   9.578   4.500   2.760  0.8023  0.9848 -0.0683
  509MOL0     H68709   9.499   4.674   2.651 -2.0941 -0.1021  0.0218
  509MOL0     H68710   9.429   4.598   2.515  0.2646 -2.0978 -1.4304
  509MOL0     H68711   9.666   4.531   2.423 -1.5956 -0.1199  0.4417
  509MOL0     H68712   9.734   4.623   2.549 -0.4807 -0.5788  0.4785
  509MOL0     H68713   9.600   4.944   2.292  0.8014 -0.9456 -1.0978
  509MOL0     H68714   9.261   4.310   2.954  0.0749 -0.8157  0.7418
  509MOL0     H68715   9.256   4.353   3.206 -1.7030  0.2053 -1.0984
  510MOL0     O68716   1.936   1.911   9.769 -0.4119 -2.0411 -0.0327
  510MOL0     C68717   1.941   2.039   9.795  0.1174  0.6983  0.0559
  510MOL0     O68718   2.033   2.127   9.740 -0.3159  0.4096  0.0579
  510MOL0     C68719   2.162   2.081   9.723  0.9290  1.0920 -0.0906
  510MOL0     C68720   2.242   2.060   9.832 -0.1348 -0.5129  0.0833
  510MOL0     C68721   2.377   2.023   9.819 -0.2739 -0.0022 -0.1400
  510MOL0     C68722   2.432   1.980   9.693  0.8779 -0.1047 -0.7147
  510MOL0     O68723   2.565   1.950   9.683  0.4396  0.3126  0.8546
  510MOL0     C68724   2.616   1.894   9.559 -0.1797 -0.6755  0.2435
  510MOL0     C68725   2.769   1.890   9.560 -0.0657 -0.7359  0.5617
  510MOL0     C68726   2.841   1.770   9.645 -1.0315  0.2704  1.2717
  510MOL0     C68727   2.805   1.629   9.599  0.4988  0.1657 -0.2510
  510MOL0     C68728   2.858   1.608   9.455 -0.4189  0.9490  0.4243
  510MOL0     C68729   2.832   1.466   9.414 -0.1111 -0.7361 -0.2918
  510MOL0     C68730   2.866   1.441   9.265  1.0839 -0.6284 -1.0143
  510MOL0     C68731   2.835   1.297   9.234 -0.1035 -0.1506 -0.1401
  510MOL0     N68732   2.875   1.262   9.091  0.7490 -0.1821  0.1645
  510MOL0     C68733   2.996   1.236   9.042 -0.7277 -0.2170 -0.1674
  510MOL0     C68734   2.973   1.226   8.904 -0.3754 -1.5760  0.2255
  510MOL0     C68735   3.069   1.210   8.792 -0.1526 -0.0149  0.3523
  510MOL0     C68736   3.111   1.060   8.759  0.1887  0.6680 -0.3364
  510MOL0     C68737   3.255   1.051   8.702  0.1385  0.7091  0.2354
  510MOL0     C68738   3.287   0.916   8.645 -0.0826  0.7115 -0.2624
  510MOL0     O68739   3.425   0.902   8.610 -0.3771  0.0717  0.2848
  510MOL0     C68740   3.481   0.931   8.487 -0.2658  0.4527  0.3738
  510MOL0     C68741   3.408   0.922   8.372  0.6527 -0.6527  0.7616
  510MOL0     C68742   3.463   0.934   8.244 -0.9342  0.1758 -0.7852
  510MOL0     C68743   3.379   0.895   8.124  0.2483 -0.9812  1.1264
  510MOL0     C68744   3.604   0.963   8.238 -0.4659  0.8548  0.0157
  510MOL0     C68745   3.682   0.974   8.115 -0.1264  0.7265  0.0598
  510MOL0     O68746   3.810   0.972   8.131 -0.0231 -0.2373 -0.1502
  510MOL0     C68747   3.903   0.982   8.029  0.1543 -0.2208  0.1507
  510MOL0     C68748   4.024   0.912   8.026  0.1782 -0.0653 -0.3179
  510MOL0     C68749   4.126   0.935   7.935 -0.7001  0.0184  0.4617
  510MOL0     C68750   4.095   1.015   7.823  0.2477  1.0447  0.6467
  510MOL0     O68751   4.177   1.038   7.716  0.2089 -0.0113 -0.2019
  510MOL0     C68752   4.319   1.068   7.726 -1.1960 -1.0801  1.0154
  510MOL0     C68753   4.343   1.195   7.800  0.2837 -0.3556 -0.9533
  510MOL0     C68754   4.332   1.313   7.707 -0.3326  0.1780  0.0062
  510MOL0     C68755   4.189   1.364   7.687 -0.5873 -0.2073 -0.3160
  510MOL0     C68756   4.208   1.497   7.612  0.0202 -1.0399 -0.1825
  510MOL0     C68757   4.086   1.592   7.603 -0.2607  0.5120  0.7534
  510MOL0     C68758   3.975   1.515   7.516  0.0584 -0.5537  1.1171
  510MOL0     C68759   3.877   1.616   7.454 -0.2116  0.6106 -0.2114
  510MOL0    Cl68760   3.955   1.766   7.379 -0.4466 -0.0181 -0.3655
  510MOL0     C68761   3.970   1.074   7.813  0.2790 -0.3329  0.0660
  510MOL0     C68762   3.877   1.060   7.920 -0.6165  0.0295  0.4789
  510MOL0     O68763   3.627   0.997   8.008  0.4090 -0.7434 -0.0018
  510MOL0     C68764   3.676   0.998   8.356 -0.0600 -0.4734 -0.0447
  510MOL0     C68765   3.614   0.977   8.482  0.1278 -0.2565  0.0294
  510MOL0     N68766   2.837   1.250   8.880 -0.0273  0.5766 -0.3745
  510MOL0     N68767   2.784   1.268   8.993 -0.9011  0.2007 -0.0746
  510MOL0     C68768   2.343   2.001   9.596 -0.1354 -0.5378  0.8631
  510MOL0     C68769   2.213   2.052   9.601 -0.0044  0.6752 -0.3689
  510MOL0     C68770   1.844   2.088   9.890  0.0593  0.2992  0.1000
  510MOL0     C68771   1.727   2.013   9.926 -0.1355  0.2268 -0.6914
  510MOL0     C68772   1.630   2.058  10.020  0.1991 -0.5216 -0.3463
  510MOL0     C68773   1.646   2.183  10.071 -0.0853  0.7072  0.2466
  510MOL0     O68774   1.560   2.219  10.168 -0.5110  0.3147  0.2647
  510MOL0     C68775   1.586   2.330  10.256  0.1864 -0.0682 -0.1025
  510MOL0     C68776   1.708   2.319  10.348 -0.0827  0.5074  0.4753
  510MOL0     C68777   1.780   2.445  10.375 -0.2909  0.4079 -0.7950
  510MOL0     C68778   1.908   2.415  10.460  0.7746 -0.1146 -0.0690
  510MOL0     C68779   1.919   2.454  10.601  0.2514  0.2157 -0.0589
  510MOL0     C68780   1.940   2.476  10.713  0.1401 -0.2843  0.5058
  510MOL0     C68781   1.761   2.256  10.033 -0.2841  0.5611  0.6850
  510MOL0     C68782   1.855   2.218   9.939 -0.0702  0.1721 -0.4514
  510MOL0     H68783   2.197   2.058   9.931 -0.3674 -0.6055 -0.0252
  510MOL0     H68784   2.443   1.999   9.903 -1.2437  0.3916  0.7557
  510MOL0     H68785   2.578   1.795   9.530 -2.6380  0.1347  0.5021
  510MOL0     H68786   2.590   1.962   9.477  1.5602  5.0201  3.8717
  510MOL0     H68787   2.807   1.887   9.457 -1.4073 -1.4417  0.0680
  510MOL0     H68788   2.793   1.993   9.588 -2.6392  0.6472 -1.8280
  510MOL0     H68789   2.948   1.786   9.654 -1.2900  1.3644  2.8290
  510MOL0     H68790   2.818   1.777   9.751  1.3438 -1.7206  1.9858
  510MOL0     H68791   2.850   1.547   9.655 -2.0814 -2.3529 -1.5744
  510MOL0     H68792   2.697   1.616   9.610  0.3521 -5.0844 -4.0001
  510MOL0     H68793   2.807   1.675   9.385 -1.7488  1.3637  1.7575
  510MOL0     H68794   2.965   1.631   9.450 -0.2318 -0.1365 -1.8549
  510MOL0     H68795   2.883   1.396   9.481 -2.9033 -4.3057 -1.5711
  510MOL0     H68796   2.728   1.441   9.433  0.0416 -0.7213  0.6302
  510MOL0     H68797   2.803   1.506   9.204  2.0986  1.7729  0.3527
  510MOL0     H68798   2.970   1.466   9.242  1.6672 -0.3266  1.6157
  510MOL0     H68799   2.729   1.280   9.256 -0.5941 -0.0810 -2.2657
  510MOL0     H68800   2.901   1.237   9.297  0.8060  0.6377 -0.3161
  510MOL0     H68801   3.088   1.223   9.098 -1.7885  0.5847  1.8575
  510MOL0     H68802   3.014   1.240   8.703 -2.0005 -1.2877  1.0025
  510MOL0     H68803   3.155   1.279   8.799  0.6891 -1.1735  2.4443
  510MOL0     H68804   3.042   1.014   8.687  1.4267 -1.2573 -0.3454
  510MOL0     H68805   3.118   1.006   8.854  2.1418  1.5922  0.0999
  510MOL0     H68806   3.325   1.082   8.780 -2.0107  1.1593  2.1071
  510MOL0     H68807   3.268   1.130   8.627  1.1911 -0.5436 -0.9542
  510MOL0     H68808   3.217   0.884   8.568 -2.4554  0.7981  1.7092
  510MOL0     H68809   3.289   0.846   8.729  0.7437  0.7024 -0.2858
  510MOL0     H68810   3.301   0.902   8.382  0.2390 -0.0268 -1.6899
  510MOL0     H68811   3.345   0.990   8.083 -1.5478 -1.1484  2.1142
  510MOL0     H68812   3.425   0.820   8.059  0.6220  2.1070 -2.4617
  510MOL0     H68813   3.284   0.845   8.147 -0.9149 -0.1007 -1.4559
  510MOL0     H68814   4.046   0.849   8.112  2.0441  1.7891  0.6567
  510MOL0     H68815   4.230   0.905   7.933 -1.3579 -2.4549 -0.8091
  510MOL0     H68816   4.371   0.981   7.767  0.3902 -1.7193 -1.9967
  510MOL0     H68817   4.362   1.078   7.626  1.3517  0.4089  2.1588
  510MOL0     H68818   4.278   1.205   7.888 -2.8936  1.0057 -3.2564
  510MOL0     H68819   4.443   1.190   7.843 -0.3850 -0.0437  0.7355
  510MOL0     H68820   4.363   1.292   7.604 -1.5025  0.5779 -0.4423
  510MOL0     H68821   4.389   1.398   7.747 -2.0413  0.1176  2.7947
  510MOL0     H68822   4.132   1.292   7.627  1.2713 -1.8352 -0.2060
  510MOL0     H68823   4.136   1.379   7.782 -1.6198  2.2640 -1.1940
  510MOL0     H68824   4.248   1.476   7.513  2.7174 -0.0248  0.5861
  510MOL0     H68825   4.299   1.550   7.643  1.9247 -3.8131 -0.6949
  510MOL0     H68826   4.044   1.621   7.699 -0.5876  0.0047  0.7692
  510MOL0     H68827   4.124   1.672   7.539  1.5180  0.6470  1.9046
  510MOL0     H68828   3.937   1.435   7.580  0.2163 -2.2316 -0.7866
  510MOL0     H68829   4.023   1.455   7.438 -0.0502 -0.5323  1.0337
  510MOL0     H68830   3.825   1.656   7.541 -0.0440  1.9279 -0.6902
  510MOL0     H68831   3.813   1.565   7.381 -1.5442 -1.0633  1.9951
  510MOL0     H68832   3.946   1.132   7.725  2.2581 -2.3622 -1.9504
  510MOL0     H68833   3.790   1.124   7.904 -0.2207 -0.1361 -3.2060
  510MOL0     H68834   3.782   1.023   8.345 -0.1599 -0.4912 -1.2315
  510MOL0     H68835   3.668   0.981   8.576 -1.0899 -0.1557  0.7514
  510MOL0     H68836   2.367   1.973   9.494 -0.3684 -0.9189  0.9114
  510MOL0     H68837   2.148   2.078   9.518  0.7045 -1.7849 -1.7731
  510MOL0     H68838   1.714   1.919   9.873 -0.3280  0.5590 -1.2400
  510MOL0     H68839   1.546   1.993  10.042  0.9210 -1.1394  0.6365
  510MOL0     H68840   1.603   2.417  10.190  1.0335  0.4538  0.7778
  510MOL0     H68841   1.498   2.355  10.316 -1.0802  3.1750 -2.9310
  510MOL0     H68842   1.771   2.242  10.301 -0.1256  0.5386  0.3655
  510MOL0     H68843   1.681   2.270  10.442  0.5158 -0.8953 -0.0621
  510MOL0     H68844   1.721   2.524  10.422  2.5186  0.8899  2.3507
  510MOL0     H68845   1.807   2.482  10.276 -2.3055 -0.6785 -1.8122
  510MOL0     H68846   1.979   2.477  10.404  0.1026  2.5726  1.8550
  510MOL0     H68847   1.939   2.311  10.448 -1.6771 -0.9055 -0.1124
  510MOL0     H68848   1.964   2.508  10.813  2.5535  0.4056 -0.2361
  510MOL0     H68849   1.796   2.352  10.070  4.5917  0.1563 -2.0079
  510MOL0     H68850   1.934   2.289   9.913  0.4790 -0.5713 -0.8486
  511MOL0     O68851   3.216   4.573   2.234  0.1610  0.3310  0.1602
  511MOL0     C68852   3.219   4.610   2.111 -0.3698 -0.6765  0.7148
  511MOL0     O68853   3.316   4.680   2.064 -0.8821 -0.3800 -0.9139
  511MOL0     C68854   3.417   4.719   2.141 -0.1542 -0.6661 -0.3160
  511MOL0     C68855   3.526   4.637   2.157 -0.9618  0.4068  0.5923
  511MOL0     C68856   3.634   4.666   2.234 -0.2566 -0.3958 -0.2766
  511MOL0     C68857   3.629   4.796   2.298 -0.0682  1.7020  0.1972
  511MOL0     O68858   3.732   4.848   2.368 -0.1932  0.8906  0.1799
  511MOL0     C68859   3.863   4.790   2.359  1.0703  0.5322  0.2303
  511MOL0     C68860   3.967   4.861   2.441  0.2951 -0.0868 -0.2089
  511MOL0     C68861   4.000   5.006   2.400  0.0246  0.1343 -0.1870
  511MOL0     C68862   3.942   5.111   2.500 -0.1413  1.1103 -0.8143
  511MOL0     C68863   3.995   5.114   2.642 -0.1871  0.1444 -0.9996
  511MOL0     C68864   4.149   5.108   2.657  0.2723  0.4041  1.0850
  511MOL0     C68865   4.205   5.132   2.802  0.5959  0.0185  0.1930
  511MOL0     C68866   4.163   5.265   2.865  0.1070 -0.3410 -0.1607
  511MOL0     N68867   4.229   5.382   2.810 -0.8282  0.4883 -0.0183
  511MOL0     C68868   4.193   5.442   2.693 -0.0619 -0.4679  0.0835
  511MOL0     C68869   4.283   5.539   2.671  0.5434 -0.6334  0.6682
  511MOL0     C68870   4.262   5.650   2.580 -0.7451 -0.0980  0.0667
  511MOL0     C68871   4.167   5.758   2.637 -0.1903 -0.1616 -0.0662
  511MOL0     C68872   4.148   5.896   2.563 -0.0500  0.8997  0.1145
  511MOL0     C68873   4.164   5.864   2.410 -1.0548 -0.2434  0.4809
  511MOL0     O68874   4.129   5.986   2.343 -0.5003  0.5606  0.8069
  511MOL0     C68875   4.002   6.038   2.317 -0.6418 -0.8516  0.9770
  511MOL0     C68876   3.999   6.162   2.251  0.2569  0.3032  0.7888
  511MOL0     C68877   3.877   6.225   2.207  0.0101 -0.2745  0.0885
  511MOL0     C68878   3.887   6.352   2.122 -0.0923  0.2260  0.6581
  511MOL0     C68879   3.756   6.158   2.233  0.1897  0.0717  0.7213
  511MOL0     C68880   3.617   6.212   2.195 -0.5876 -1.0386  0.1188
  511MOL0     O68881   3.515   6.144   2.244  0.0020  0.8366  0.3908
  511MOL0     C68882   3.393   6.179   2.191 -0.0717  0.6773  0.6924
  511MOL0     C68883   3.332   6.090   2.092 -1.1776 -0.6956 -0.2453
  511MOL0     C68884   3.200   6.097   2.064 -0.0214 -0.3702  0.0621
  511MOL0     C68885   3.124   6.197   2.130 -0.0248  0.3605  0.7275
  511MOL0     O68886   2.987   6.209   2.111  1.0503  0.5190  0.1162
  511MOL0     C68887   2.924   6.137   2.004  0.7142 -0.3988  0.3132
  511MOL0     C68888   2.776   6.174   1.994  0.9336  0.2841 -0.0335
  511MOL0     C68889   2.756   6.239   1.861  0.3487  0.4268 -0.1581
  511MOL0     C68890   2.782   6.143   1.742 -0.7710 -0.4098 -0.6692
  511MOL0     C68891   2.804   6.205   1.606  0.2708 -0.1438 -0.3354
  511MOL0     C68892   2.819   6.090   1.504 -0.8473 -0.4211  0.7084
  511MOL0     C68893   2.816   6.138   1.349  0.1210 -1.3472 -0.3007
  511MOL0     C68894   2.809   6.013   1.266 -0.3942 -0.2542 -0.3275
  511MOL0    Cl68895   2.641   5.936   1.248 -0.3401  0.0460  0.4672
  511MOL0     C68896   3.182   6.282   2.227  0.2147 -0.2538 -1.5216
  511MOL0     C68897   3.315   6.278   2.257  0.4467  1.0866 -1.3444
  511MOL0     O68898   3.610   6.315   2.128 -0.1809  0.4593 -0.0829
  511MOL0     C68899   3.772   6.035   2.307  0.0084 -0.9870 -0.2978
  511MOL0     C68900   3.887   5.985   2.357 -0.4918 -0.0277  0.1939
  511MOL0     N68901   4.380   5.527   2.775 -0.7566  1.0395 -0.5784
  511MOL0     N68902   4.345   5.435   2.854 -0.5576  0.5539 -0.2818
  511MOL0     C68903   3.518   4.876   2.289  0.1998  1.1002  0.1715
  511MOL0     C68904   3.410   4.834   2.213 -0.3374 -0.9012  1.0250
  511MOL0     C68905   3.104   4.581   2.015  0.8351 -0.6480 -0.8719
  511MOL0     C68906   3.105   4.595   1.877  0.6264 -0.2831  0.6509
  511MOL0     C68907   3.001   4.562   1.789  0.1100  0.9795 -0.9147
  511MOL0     C68908   2.890   4.501   1.849 -1.0253 -0.0399  0.0975
  511MOL0     O68909   2.775   4.462   1.788  0.1469  0.1889 -0.6035
  511MOL0     C68910   2.654   4.532   1.826 -0.4141 -0.1681  0.7872
  511MOL0     C68911   2.549   4.507   1.719 -0.1513 -0.3637 -0.0669
  511MOL0     C68912   2.593   4.549   1.581  0.4495  0.9649 -0.2126
  511MOL0     C68913   2.582   4.697   1.539  0.6368 -0.3009 -0.0274
  511MOL0     C68914   2.442   4.726   1.535 -0.4612 -0.3752 -0.1631
  511MOL0     C68915   2.329   4.749   1.546  0.1325  0.3394 -0.8327
  511MOL0     C68916   2.890   4.493   1.990 -0.4263  0.0823 -0.5009
  511MOL0     C68917   2.984   4.544   2.074  0.9328  0.3118  0.3568
  511MOL0     H68918   3.537   4.551   2.091  3.3806  2.3470 -1.6159
  511MOL0     H68919   3.714   4.596   2.257  1.8535  1.9077 -0.2649
  511MOL0     H68920   3.859   4.687   2.398  0.8885 -0.4981 -2.2864
  511MOL0     H68921   3.883   4.788   2.252  2.6228 -1.1890  0.5000
  511MOL0     H68922   3.932   4.865   2.545 -0.0108 -1.8349 -0.2181
  511MOL0     H68923   4.058   4.800   2.449  2.2124  2.3493 -1.9244
  511MOL0     H68924   4.107   5.027   2.392 -0.7709  5.1600 -0.6493
  511MOL0     H68925   3.951   5.013   2.303 -0.6238 -1.4423 -0.0027
  511MOL0     H68926   3.966   5.209   2.458  2.2279  0.0896 -2.0724
  511MOL0     H68927   3.835   5.091   2.501  0.1911 -0.9197 -0.6853
  511MOL0     H68928   3.959   5.205   2.692  1.7183  0.2101  0.3578
  511MOL0     H68929   3.960   5.030   2.702  1.0977  1.7341  2.2425
  511MOL0     H68930   4.180   5.008   2.625 -1.2427  0.7157 -1.6941
  511MOL0     H68931   4.199   5.184   2.597 -0.3362  0.2971  0.4286
  511MOL0     H68932   4.164   5.050   2.862 -0.2363 -0.4484 -0.9701
  511MOL0     H68933   4.314   5.127   2.791  0.2981 -2.4513 -3.0679
  511MOL0     H68934   4.192   5.258   2.970 -0.6253  2.1091  0.2924
  511MOL0     H68935   4.055   5.283   2.871  0.1213 -0.5019  0.8398
  511MOL0     H68936   4.103   5.435   2.633  0.3642 -0.5661 -0.5622
  511MOL0     H68937   4.358   5.703   2.580 -0.5048 -0.3814  2.7661
  511MOL0     H68938   4.225   5.615   2.484  0.5413  0.5806 -0.7061
  511MOL0     H68939   4.203   5.789   2.735  0.5929  2.1655 -1.0285
  511MOL0     H68940   4.069   5.710   2.648  0.0570 -0.9383 -1.0087
  511MOL0     H68941   4.231   5.961   2.592  0.5794  0.1509  0.0135
  511MOL0     H68942   4.047   5.932   2.585  0.5865  1.6924  1.9276
  511MOL0     H68943   4.125   5.770   2.371  0.2446 -0.5737 -0.1010
  511MOL0     H68944   4.271   5.846   2.391 -1.0826  0.1183 -0.0492
  511MOL0     H68945   4.097   6.208   2.240  0.0867  0.1048 -2.6259
  511MOL0     H68946   3.828   6.438   2.156  0.7472  1.3233 -0.5859
  511MOL0     H68947   3.990   6.386   2.111 -0.2440  1.3800  2.3934
  511MOL0     H68948   3.849   6.337   2.021 -2.0980  3.6631  0.7455
  511MOL0     H68949   3.390   6.008   2.051  0.2179  1.3506 -2.5995
  511MOL0     H68950   3.162   6.022   1.996 -1.8833 -0.0068  0.6531
  511MOL0     H68951   2.985   6.160   1.915  0.0997  0.2760  0.0590
  511MOL0     H68952   2.929   6.029   2.022 -3.6155 -0.9075 -0.4658
  511MOL0     H68953   2.713   6.087   2.010  0.8403  0.7720  2.7542
  511MOL0     H68954   2.741   6.232   2.081 -2.9870 -1.2437 -0.4029
  511MOL0     H68955   2.828   6.320   1.849  0.3030  0.3537 -0.9972
  511MOL0     H68956   2.657   6.286   1.863 -0.5137 -1.3272  2.5779
  511MOL0     H68957   2.882   6.098   1.750  1.2651  3.9597  2.9020
  511MOL0     H68958   2.708   6.064   1.755 -1.0722 -0.2409 -1.3432
  511MOL0     H68959   2.892   6.267   1.625 -2.6160  3.2576  4.2583
  511MOL0     H68960   2.723   6.271   1.574  3.1485  4.1975  0.4179
  511MOL0     H68961   2.908   6.034   1.535 -0.1064  0.2490 -0.1493
  511MOL0     H68962   2.734   6.022   1.511 -2.2575  0.8587 -2.3125
  511MOL0     H68963   2.905   6.196   1.321  1.1161 -2.9599 -0.6025
  511MOL0     H68964   2.724   6.195   1.333  0.1796 -1.0469  0.3726
  511MOL0     H68965   2.876   5.941   1.315  2.0120  1.9307 -0.1939
  511MOL0     H68966   2.830   6.036   1.161 -1.5832 -1.0694 -0.7647
  511MOL0     H68967   3.118   6.341   2.293  0.7688 -0.9342 -0.3489
  511MOL0     H68968   3.362   6.325   2.343 -1.0326 -2.3105  1.5686
  511MOL0     H68969   3.681   5.979   2.331 -2.1049  2.0836 -0.5555
  511MOL0     H68970   3.895   5.888   2.405  2.4841 -0.5494 -1.0941
  511MOL0     H68971   3.521   4.967   2.348 -1.5162 -1.4145  4.6433
  511MOL0     H68972   3.314   4.885   2.207  1.1388  2.0017  0.5066
  511MOL0     H68973   3.188   4.645   1.828 -0.8307  0.8433 -0.7986
  511MOL0     H68974   2.995   4.578   1.682 -1.8954 -2.1718 -1.4310
  511MOL0     H68975   2.609   4.493   1.918 -3.6557 -1.6687 -1.2592
  511MOL0     H68976   2.681   4.638   1.825  2.7477 -0.8824 -0.1426
  511MOL0     H68977   2.451   4.549   1.743 -1.7509 -4.2235  0.8395
  511MOL0     H68978   2.533   4.399   1.717 -0.6493 -0.2821 -0.7012
  511MOL0     H68979   2.531   4.493   1.510 -1.3571  0.9143  1.3388
  511MOL0     H68980   2.697   4.520   1.560  0.4776  1.0083 -0.1340
  511MOL0     H68981   2.608   4.701   1.433 -0.1391 -1.6500 -0.2957
  511MOL0     H68982   2.639   4.764   1.604  1.4200 -0.4951 -0.4973
  511MOL0     H68983   2.229   4.789   1.544 -0.1271 -0.3215 -1.7420
  511MOL0     H68984   2.805   4.437   2.029  1.3053 -2.3867 -0.0413
  511MOL0     H68985   2.979   4.541   2.182 -0.1175  0.0486  0.3119
  512MOL0     O68986   6.310   1.828   5.989 -0.4061 -0.0208  0.0899
  512MOL0     C68987   6.273   1.879   5.883  0.6062 -0.4866  0.6765
  512MOL0     O68988   6.260   2.007   5.852 -0.2060 -1.2033 -0.3214
  512MOL0     C68989   6.290   2.111   5.926  0.2261  0.3839  0.3669
  512MOL0     C68990   6.392   2.117   6.017 -0.4294 -0.2964 -0.4843
  512MOL0     C68991   6.428   2.238   6.075 -0.6924  0.0301 -0.4853
  512MOL0     C68992   6.351   2.355   6.058 -0.0101 -0.2173  0.3017
  512MOL0     O68993   6.369   2.470   6.121 -0.3800  0.1654  0.3901
  512MOL0     C68994   6.486   2.484   6.204 -0.1652  0.4810  0.1029
  512MOL0     C68995   6.601   2.502   6.111  0.3545  0.0259  0.1692
  512MOL0     C68996   6.602   2.642   6.045  1.2889 -0.4079  0.3415
  512MOL0     C68997   6.500   2.658   5.933 -0.4569  0.2011  0.5323
  512MOL0     C68998   6.503   2.797   5.862 -1.3462  0.6217  1.0877
  512MOL0     C68999   6.367   2.864   5.874  0.5170  0.8169 -0.2290
  512MOL0     C69000   6.353   3.013   5.839  0.0714  0.2916 -0.3065
  512MOL0     C69001   6.412   3.032   5.694  0.3930 -0.8683 -0.0061
  512MOL0     N69002   6.351   2.959   5.585  0.2566 -0.3967 -0.1390
  512MOL0     C69003   6.222   2.972   5.551  1.0659 -0.0532 -0.2754
  512MOL0     C69004   6.206   2.908   5.435  0.6274  0.0238  0.2796
  512MOL0     C69005   6.069   2.887   5.373 -0.2256  0.3337  0.1177
  512MOL0     C69006   5.986   2.769   5.429 -0.2029 -0.8234 -0.9059
  512MOL0     C69007   5.885   2.784   5.551 -0.3045  0.6256 -0.0793
  512MOL0     C69008   5.751   2.828   5.500  0.8691  0.5234  0.4727
  512MOL0     O69009   5.749   2.964   5.485  0.2497 -0.7652 -0.4161
  512MOL0     C69010   5.690   3.041   5.584 -0.0271 -0.1247  0.5036
  512MOL0     C69011   5.689   3.005   5.714  0.9950  0.1886 -0.5325
  512MOL0     C69012   5.614   3.077   5.808 -0.8524  0.1148 -0.1310
  512MOL0     C69013   5.608   3.015   5.945  0.1101  0.6529  0.1934
  512MOL0     C69014   5.534   3.192   5.762  0.3560  0.5068  1.0974
  512MOL0     C69015   5.447   3.267   5.854  0.6888 -0.2306 -0.7569
  512MOL0     O69016   5.459   3.250   5.988 -0.3828  0.8505 -0.6728
  512MOL0     C69017   5.361   3.285   6.072  0.0553  0.0075  0.4581
  512MOL0     C69018   5.263   3.193   6.092 -0.6996  1.0944 -0.4376
  512MOL0     C69019   5.175   3.195   6.202  0.0082 -0.7472  0.7542
  512MOL0     C69020   5.179   3.313   6.290 -0.7710  0.0941  0.9900
  512MOL0     O69021   5.089   3.304   6.396  0.6738 -0.1061 -0.2697
  512MOL0     C69022   5.068   3.421   6.475 -0.0164 -0.3854 -0.2209
  512MOL0     C69023   4.999   3.376   6.596  0.0394 -0.3858 -0.4663
  512MOL0     C69024   4.961   3.503   6.675 -0.6325  0.0217  0.6236
  512MOL0     C69025   4.883   3.466   6.795 -0.2260  1.2643 -0.0445
  512MOL0     C69026   4.798   3.592   6.831 -0.7624 -0.3154  0.7170
  512MOL0     C69027   4.717   3.563   6.956 -0.6275  0.2370  0.9299
  512MOL0     C69028   4.675   3.689   7.035  0.3719 -0.0043  0.7589
  512MOL0     C69029   4.625   3.801   6.953  0.4140  0.8023 -0.0427
  512MOL0    Cl69030   4.604   3.950   7.042 -0.3217 -0.5146 -0.6980
  512MOL0     C69031   5.282   3.412   6.268  0.3786 -0.4072 -0.1136
  512MOL0     C69032   5.362   3.396   6.156 -0.4374  0.2065  1.1632
  512MOL0     O69033   5.377   3.353   5.804 -0.1640  0.5720  0.4783
  512MOL0     C69034   5.534   3.223   5.621  0.3422 -0.9855 -0.8229
  512MOL0     C69035   5.617   3.150   5.540  0.2306 -0.0296  0.1194
  512MOL0     N69036   6.330   2.851   5.404  0.1646  0.5880 -0.0908
  512MOL0     N69037   6.419   2.888   5.495  1.1185 -0.2142 -0.1553
  512MOL0     C69038   6.245   2.342   5.968  0.7338 -1.1338 -0.5636
  512MOL0     C69039   6.208   2.224   5.906 -0.1967  0.7889 -0.4308
  512MOL0     C69040   6.256   1.789   5.772  0.0062  0.4660 -0.1850
  512MOL0     C69041   6.337   1.679   5.758 -0.4917 -0.1702  0.2229
  512MOL0     C69042   6.339   1.600   5.651 -0.5097 -0.0975  0.1781
  512MOL0     C69043   6.238   1.612   5.554 -1.0346  0.0336  0.1552
  512MOL0     O69044   6.235   1.503   5.464 -0.1666  1.1419 -0.4310
  512MOL0     C69045   6.122   1.482   5.384  0.8703 -0.5917  0.5019
  512MOL0     C69046   6.114   1.346   5.321  0.3098  1.0417  0.0038
  512MOL0     C69047   5.971   1.328   5.262 -0.1802 -0.5146 -1.0664
  512MOL0     C69048   5.970   1.202   5.185 -0.8726  0.3993  0.4857
  512MOL0     C69049   5.989   1.219   5.041 -0.5753  0.2043  0.9985
  512MOL0     C69050   6.014   1.236   4.928  0.5201  0.8201  1.0029
  512MOL0     C69051   6.156   1.718   5.551  0.3382  0.3876  0.0077
  512MOL0     C69052   6.171   1.809   5.658  0.8039 -0.1614  0.0173
  512MOL0     H69053   6.448   2.030   6.053  0.1683  0.8280  1.4961
  512MOL0     H69054   6.519   2.244   6.133 -0.6790  0.5881 -0.5685
  512MOL0     H69055   6.481   2.569   6.272  0.3389 -2.0661  3.5958
  512MOL0     H69056   6.502   2.398   6.269 -5.3211 -0.1944  0.8829
  512MOL0     H69057   6.689   2.493   6.175  0.0755  1.7522  0.8443
  512MOL0     H69058   6.615   2.414   6.047  0.5236 -0.2772  0.6226
  512MOL0     H69059   6.579   2.728   6.108  1.0016 -0.6229  0.5299
  512MOL0     H69060   6.704   2.659   6.009  1.0222  1.7069  0.4432
  512MOL0     H69061   6.509   2.587   5.850  0.4050  3.0303 -1.9886
  512MOL0     H69062   6.400   2.652   5.977 -1.1455  2.5333 -0.5685
  512MOL0     H69063   6.584   2.863   5.893 -0.5102  0.6227 -0.9334
  512MOL0     H69064   6.526   2.768   5.759 -0.2643 -3.7232  2.3539
  512MOL0     H69065   6.297   2.800   5.820 -1.6685  1.2523  1.9539
  512MOL0     H69066   6.327   2.843   5.973  0.3249  1.9593 -0.0534
  512MOL0     H69067   6.251   3.049   5.853 -1.7852 -3.8119 -1.8004
  512MOL0     H69068   6.421   3.070   5.903  0.7398  0.6021 -1.2698
  512MOL0     H69069   6.515   2.996   5.692  1.4257  1.4457  3.4925
  512MOL0     H69070   6.414   3.140   5.679  1.8656 -0.3915  2.9689
  512MOL0     H69071   6.136   3.011   5.605  0.1305  1.3048 -2.6262
  512MOL0     H69072   6.012   2.980   5.385  1.9351  1.7327  0.0533
  512MOL0     H69073   6.074   2.892   5.264 -5.1277  2.1933 -0.2754
  512MOL0     H69074   6.054   2.690   5.462  2.4606  1.1293 -1.3519
  512MOL0     H69075   5.939   2.718   5.344 -1.9496 -0.7194 -0.0368
  512MOL0     H69076   5.920   2.840   5.638 -1.3788  0.8089  0.2444
  512MOL0     H69077   5.876   2.688   5.602 -2.5995  0.7881 -0.1144
  512MOL0     H69078   5.671   2.796   5.567 -0.3442  1.5571 -0.4423
  512MOL0     H69079   5.741   2.786   5.399  1.9639 -0.1611  0.6267
  512MOL0     H69080   5.766   2.934   5.740  1.0837  0.0114 -1.2652
  512MOL0     H69081   5.611   3.098   6.017 -2.7051  0.3444  0.7824
  512MOL0     H69082   5.515   2.959   5.957 -0.2298  0.5202 -2.4434
  512MOL0     H69083   5.686   2.941   5.965 -0.9164  0.2114  3.0962
  512MOL0     H69084   5.251   3.118   6.015  0.9741  0.4627 -0.1296
  512MOL0     H69085   5.102   3.119   6.227 -2.9377  2.0593  1.5152
  512MOL0     H69086   5.162   3.472   6.499  0.2308 -0.2374 -1.4591
  512MOL0     H69087   5.007   3.488   6.413 -0.2247  0.6496  1.0592
  512MOL0     H69088   4.908   3.319   6.574 -0.3736 -0.9753  2.3734
  512MOL0     H69089   5.065   3.307   6.649 -0.5423 -0.2521  0.4494
  512MOL0     H69090   4.906   3.569   6.608  0.5862  0.4768  0.0540
  512MOL0     H69091   5.041   3.571   6.707 -2.0321  0.9504  2.3965
  512MOL0     H69092   4.817   3.379   6.789 -0.2425  1.1653  1.2525
  512MOL0     H69093   4.957   3.458   6.875  1.2505  1.4982 -1.3318
  512MOL0     H69094   4.726   3.626   6.756 -1.4248 -0.4092  1.3017
  512MOL0     H69095   4.865   3.677   6.851  2.1273 -2.2516 -0.1178
  512MOL0     H69096   4.625   3.517   6.917  0.8501 -2.4873  0.3948
  512MOL0     H69097   4.759   3.493   7.029  0.7187 -0.4175 -0.4059
  512MOL0     H69098   4.768   3.740   7.062 -1.0557  1.2320  3.8693
  512MOL0     H69099   4.618   3.666   7.126 -0.3477  2.9025  1.1427
  512MOL0     H69100   4.523   3.770   6.927  0.2321 -1.1296  2.5935
  512MOL0     H69101   4.689   3.827   6.868 -1.7290  2.4127 -1.2537
  512MOL0     H69102   5.283   3.501   6.331  1.2273  1.6239 -2.8072
  512MOL0     H69103   5.445   3.467   6.151 -0.1796  0.0662  3.0158
  512MOL0     H69104   5.467   3.288   5.566  2.7352  1.3846 -1.1990
  512MOL0     H69105   5.605   3.170   5.434 -0.1888 -0.5002  0.0770
  512MOL0     H69106   6.177   2.422   5.941  1.6110 -0.9029 -2.1895
  512MOL0     H69107   6.124   2.215   5.838 -0.9520 -3.1325  0.7533
  512MOL0     H69108   6.412   1.645   5.829  1.6343 -0.8371 -2.1952
  512MOL0     H69109   6.397   1.509   5.642  1.3609  0.8065  2.3629
  512MOL0     H69110   6.034   1.504   5.444 -0.6572  0.4825 -1.9666
  512MOL0     H69111   6.114   1.558   5.305 -0.3983 -2.2817 -1.0761
  512MOL0     H69112   6.132   1.272   5.400  1.3483  2.4330  1.1195
  512MOL0     H69113   6.185   1.345   5.238  1.7681  0.7974  1.2058
  512MOL0     H69114   5.945   1.420   5.209 -0.4757  0.9467  1.4764
  512MOL0     H69115   5.888   1.328   5.333  0.3880 -4.0621 -0.2135
  512MOL0     H69116   5.877   1.149   5.207  0.9021 -2.0950  2.5654
  512MOL0     H69117   6.050   1.129   5.204 -1.8715 -0.6173  0.9152
  512MOL0     H69118   6.011   1.236   4.821  0.3982  0.1844  1.0042
  512MOL0     H69119   6.072   1.734   5.485  0.6254 -0.6259 -0.6249
  512MOL0     H69120   6.123   1.906   5.660 -0.5465 -0.8029  0.3279
  513MOL0     O69121   0.356  10.830   5.470 -0.6434  0.0890  0.5499
  513MOL0     C69122   0.306  10.943   5.445 -0.4239  0.4642  0.9097
  513MOL0     O69123   0.308  11.043   5.536 -0.4433 -0.3856 -0.0322
  513MOL0     C69124   0.350  11.013   5.665  1.0436  0.1919  0.3142
  513MOL0     C69125   0.463  11.072   5.727 -0.0885  0.5346 -0.5673
  513MOL0     C69126   0.511  11.044   5.858  0.1305 -0.6028  0.3152
  513MOL0     C69127   0.458  10.938   5.924 -0.3224 -0.5623  0.6378
  513MOL0     O69128   0.496  10.887   6.045  0.9142  0.0090  0.3081
  513MOL0     C69129   0.618  10.923   6.115 -0.8424 -0.4074  0.1451
  513MOL0     C69130   0.698  10.798   6.134  0.0404 -0.5947  0.2045
  513MOL0     C69131   0.797  10.807   6.249 -0.3547  0.3446  0.0098
  513MOL0     C69132   0.895  10.696   6.254  0.1275 -0.3406  1.0255
  513MOL0     C69133   0.943  10.683   6.395 -0.1836  0.8246 -0.2227
  513MOL0     C69134   1.050  10.567   6.385 -0.0114  0.5621  0.6978
  513MOL0     C69135   1.145  10.562   6.506  0.4902  0.5656  0.2447
  513MOL0     C69136   1.059  10.561   6.631 -0.5396  0.1453 -0.5470
  513MOL0     N69137   0.983  10.435   6.656  0.3987 -0.3819 -0.5099
  513MOL0     C69138   0.852  10.390   6.639 -1.2972 -0.4207  0.1216
  513MOL0     C69139   0.847  10.267   6.676  0.4719  0.3652  0.9175
  513MOL0     C69140   0.731  10.175   6.674 -0.3527  1.2381 -0.1982
  513MOL0     C69141   0.683  10.160   6.817  0.7116  0.5387  0.3462
  513MOL0     C69142   0.545  10.084   6.837  0.2553  0.5800 -0.1252
  513MOL0     C69143   0.428  10.177   6.811  0.5599 -0.4826  0.4148
  513MOL0     O69144   0.394  10.201   6.666 -0.2041  0.3010 -0.5478
  513MOL0     C69145   0.332  10.104   6.589  0.0431  1.0049 -0.4263
  513MOL0     C69146   0.299   9.977   6.624  0.2322  0.4492 -0.2114
  513MOL0     C69147   0.225   9.896   6.532 -0.6727  0.6665 -1.1008
  513MOL0     C69148   0.176   9.761   6.580 -0.3320 -0.2617  0.3427
  513MOL0     C69149   0.203   9.935   6.403  0.8435 -0.6696  0.7264
  513MOL0     C69150   0.118   9.859   6.303  0.3582  0.3093 -0.7664
  513MOL0     O69151   0.033   9.942   6.239  0.5559  0.4957 -0.4136
  513MOL0     C69152  -0.061   9.887   6.157  1.1650 -0.0413  0.1314
  513MOL0     C69153  -0.032   9.785   6.066  0.9269  0.6398 -0.5280
  513MOL0     C69154  -0.130   9.709   5.999 -0.3588 -0.1459  0.3930
  513MOL0     C69155  -0.263   9.746   6.006  0.3332 -0.2768 -0.0886
  513MOL0     O69156  -0.369   9.677   5.944 -0.2291 -0.6493 -0.3684
  513MOL0     C69157  -0.349   9.618   5.821  0.0478 -0.5419  0.0547
  513MOL0     C69158  -0.449   9.506   5.789  0.5411 -0.3426 -0.0080
  513MOL0     C69159  -0.434   9.394   5.889 -0.3615  0.3495  0.5653
  513MOL0     C69160  -0.580   9.351   5.914  0.8253  0.0080 -0.7686
  513MOL0     C69161  -0.615   9.253   5.806 -1.0048 -0.4901  1.0144
  513MOL0     C69162  -0.767   9.230   5.794  0.2678 -0.0474 -0.3267
  513MOL0     C69163  -0.832   9.161   5.919 -0.0407 -0.2946 -1.0896
  513MOL0     C69164  -0.991   9.167   5.920 -0.0326  0.5331  0.1578
  513MOL0    Cl69165  -1.081   9.104   5.784  0.1897  0.4661  0.4943
  513MOL0     C69166  -0.292   9.849   6.089  0.3282 -0.6629  0.2576
  513MOL0     C69167  -0.196   9.917   6.161  0.2537 -0.0488 -0.2838
  513MOL0     O69168   0.156   9.746   6.263  0.1416 -0.4427 -1.0205
  513MOL0     C69169   0.249  10.071   6.368  0.1210 -0.1618 -0.7188
  513MOL0     C69170   0.305  10.155   6.462 -0.4008 -0.6471  0.5229
  513MOL0     N69171   0.973  10.228   6.713  0.5956 -1.4480 -0.5969
  513MOL0     N69172   1.044  10.332   6.707  0.4670  0.0218  0.7363
  513MOL0     C69173   0.357  10.871   5.861 -0.5794  0.0235  0.3258
  513MOL0     C69174   0.300  10.900   5.739 -0.3403 -0.1724 -0.6182
  513MOL0     C69175   0.217  10.966   5.326 -1.4514 -0.2211 -1.4314
  513MOL0     C69176   0.187  11.099   5.290 -0.4663  0.7538 -0.9832
  513MOL0     C69177   0.119  11.135   5.174 -0.3306  0.8402  0.0607
  513MOL0     C69178   0.071  11.037   5.085  0.4193  0.6414  0.2670
  513MOL0     O69179   0.005  11.086   4.970 -0.1960  0.3539  0.1973
  513MOL0     C69180   0.002  10.994   4.853  0.6619  0.5292  0.2008
  513MOL0     C69181  -0.092  11.049   4.757  0.6232  0.1445 -0.0532
  513MOL0     C69182  -0.240  11.034   4.801  0.5725 -0.4507  0.1293
  513MOL0     C69183  -0.351  11.058   4.699 -0.2135  0.7307 -0.6991
  513MOL0     C69184  -0.331  11.180   4.623 -0.7914  0.4506 -0.1995
  513MOL0     C69185  -0.341  11.279   4.573  0.6535 -0.6145  0.5313
  513MOL0     C69186   0.116  10.899   5.116  0.8502  0.6757 -1.0033
  513MOL0     C69187   0.194  10.869   5.227 -0.4562  0.5073 -0.1888
  513MOL0     H69188   0.519  11.149   5.673  0.2344  1.5946  1.2053
  513MOL0     H69189   0.595  11.098   5.900  0.4665 -1.5281  0.8795
  513MOL0     H69190   0.684  10.986   6.056 -0.4603 -2.3411 -1.6181
  513MOL0     H69191   0.594  10.972   6.210 -0.6364  0.7082 -0.3700
  513MOL0     H69192   0.627  10.718   6.156 -0.8421  0.4512  1.3133
  513MOL0     H69193   0.737  10.780   6.034 -0.1128 -1.7642  0.3402
  513MOL0     H69194   0.858  10.897   6.266  0.5027 -0.6238  2.6494
  513MOL0     H69195   0.741  10.804   6.343  0.7310 -0.1788  0.6684
  513MOL0     H69196   0.843  10.605   6.224 -1.9738  1.4836 -1.2275
  513MOL0     H69197   0.973  10.709   6.179  3.1890  1.4029  4.2026
  513MOL0     H69198   0.994  10.776   6.425  2.3375 -1.0469  1.7223
  513MOL0     H69199   0.857  10.665   6.459  0.5776 -0.7445  0.4026
  513MOL0     H69200   0.998  10.471   6.377 -0.5156  0.6823  2.1541
  513MOL0     H69201   1.116  10.582   6.299 -3.5343 -1.7975 -2.7651
  513MOL0     H69202   1.204  10.470   6.494 -0.3303  0.4212 -4.2044
  513MOL0     H69203   1.204  10.654   6.498 -1.9714  2.4917  2.5180
  513MOL0     H69204   0.992  10.647   6.617  0.1812  0.4027 -2.7713
  513MOL0     H69205   1.132  10.579   6.710 -0.1207  3.0270 -1.4730
  513MOL0     H69206   0.768  10.452   6.609 -1.9060 -0.8160  0.9953
  513MOL0     H69207   0.651  10.211   6.608 -4.2363 -1.5548  2.5345
  513MOL0     H69208   0.764  10.078   6.636 -2.4438  0.2292  0.4249
  513MOL0     H69209   0.668  10.260   6.859 -2.3287 -0.6863  2.5520
  513MOL0     H69210   0.762  10.108   6.874  2.0282  0.4356 -1.4841
  513MOL0     H69211   0.539  10.043   6.939 -0.1403  3.2976  1.0366
  513MOL0     H69212   0.535   9.998   6.770 -1.1521  2.0183 -1.8545
  513MOL0     H69213   0.437  10.270   6.869 -1.1696  1.9606 -2.9173
  513MOL0     H69214   0.345  10.117   6.850  1.0122 -3.1351 -2.3466
  513MOL0     H69215   0.316   9.926   6.719 -5.1865  1.1684  1.4724
  513MOL0     H69216   0.198   9.754   6.687  0.9883  2.1359  0.3011
  513MOL0     H69217   0.068   9.746   6.575 -0.5530  1.1746  0.3005
  513MOL0     H69218   0.229   9.686   6.521 -1.6115  0.1752 -1.4425
  513MOL0     H69219   0.072   9.764   6.041  0.0975 -3.0306 -1.5914
  513MOL0     H69220  -0.096   9.625   5.938  0.5452  1.4666 -1.4285
  513MOL0     H69221  -0.358   9.701   5.751  0.8488 -0.3567  0.1633
  513MOL0     H69222  -0.247   9.583   5.809 -0.1452 -0.6301 -1.5177
  513MOL0     H69223  -0.546   9.556   5.785  0.5821 -0.0744  1.6307
  513MOL0     H69224  -0.410   9.469   5.693  2.8511  1.2409  0.2554
  513MOL0     H69225  -0.391   9.431   5.982  1.4706 -0.7165  0.1847
  513MOL0     H69226  -0.372   9.311   5.854 -0.8629  1.2452 -2.8348
  513MOL0     H69227  -0.574   9.299   6.010 -1.8031  1.9968  0.6137
  513MOL0     H69228  -0.642   9.440   5.931 -1.3635 -1.9144  2.0011
  513MOL0     H69229  -0.562   9.158   5.818 -0.8118 -0.4434  0.5482
  513MOL0     H69230  -0.579   9.302   5.715  2.4707  0.3709  2.6855
  513MOL0     H69231  -0.819   9.318   5.755  0.5499 -0.7310 -2.3794
  513MOL0     H69232  -0.783   9.152   5.718 -1.3456  1.3080 -1.4407
  513MOL0     H69233  -0.796   9.217   6.006 -1.9838 -0.0762 -0.3804
  513MOL0     H69234  -0.804   9.055   5.920  1.1713 -0.0246  1.2774
  513MOL0     H69235  -1.022   9.272   5.916  1.8862  1.1068 -1.3980
  513MOL0     H69236  -1.022   9.122   6.015  0.8810  0.7001  0.5437
  513MOL0     H69237  -0.397   9.876   6.102  0.1301  0.0506 -2.2859
  513MOL0     H69238  -0.229   9.983   6.241  0.5542 -1.0974  0.7421
  513MOL0     H69239   0.219  10.113   6.272 -1.7332  1.4411  0.4823
  513MOL0     H69240   0.324  10.262   6.459  0.5060 -0.7937  0.6638
  513MOL0     H69241   0.319  10.794   5.928  1.0509 -0.4371  0.7580
  513MOL0     H69242   0.210  10.845   5.712 -1.3251  2.5258 -3.5344
  513MOL0     H69243   0.209  11.181   5.358 -2.3575  0.2272  0.3597
  513MOL0     H69244   0.093  11.236   5.144  3.0236  1.5105 -1.0020
  513MOL0     H69245   0.103  10.982   4.813  1.4422  1.6142  1.7244
  513MOL0     H69246  -0.039  10.896   4.878 -3.5309  1.8571 -0.7176
  513MOL0     H69247  -0.076  10.992   4.665  1.1980  0.7614 -0.3418
  513MOL0     H69248  -0.064  11.151   4.730 -0.5484 -0.0802 -2.4646
  513MOL0     H69249  -0.256  11.098   4.888  0.8947 -1.8498  1.2686
  513MOL0     H69250  -0.258  10.931   4.835  0.5738  0.1824  2.2148
  513MOL0     H69251  -0.439  11.074   4.761  0.4470  0.0406  0.4573
  513MOL0     H69252  -0.356  10.977   4.625  2.3518 -1.0135  0.8669
  513MOL0     H69253  -0.353  11.380   4.542  1.7718  0.2332  2.6269
  513MOL0     H69254   0.087  10.817   5.051 -0.7819  1.3195 -1.1603
  513MOL0     H69255   0.224  10.766   5.242 -2.8905 -0.4455 -1.3621
  514MOL0     O69256   0.186   5.281   1.370  0.1114 -0.4048  0.5020
  514MOL0     C69257   0.143   5.348   1.271 -0.1572  0.1040  0.7801
  514MOL0     O69258   0.014   5.388   1.237 -0.4168 -0.8289 -0.4118
  514MOL0     C69259  -0.079   5.399   1.328 -0.0230 -0.1528 -0.9998
  514MOL0     C69260  -0.147   5.283   1.377 -0.6242 -0.0166 -0.4344
  514MOL0     C69261  -0.248   5.294   1.473 -0.4166 -0.0488  0.4081
  514MOL0     C69262  -0.268   5.419   1.533  1.1714  1.2224  0.1415
  514MOL0     O69263  -0.356   5.429   1.647  0.7528  0.3010  0.5452
  514MOL0     C69264  -0.298   5.502   1.760  0.4692 -0.7096  0.3803
  514MOL0     C69265  -0.391   5.512   1.880 -0.5380 -0.4752  0.0371
  514MOL0     C69266  -0.399   5.371   1.951  1.0872  0.8045 -0.1352
  514MOL0     C69267  -0.552   5.356   1.994  0.4981  0.8027 -0.4634
  514MOL0     C69268  -0.570   5.432   2.133  0.0312 -0.3854  0.0402
  514MOL0     C69269  -0.613   5.352   2.256  0.7824  0.2640 -0.1362
  514MOL0     C69270  -0.748   5.268   2.242 -0.0934 -0.7479  0.8856
  514MOL0     C69271  -0.800   5.206   2.367 -0.3694  1.2902  0.0407
  514MOL0     N69272  -0.755   5.062   2.382  0.3544  0.0758  0.0084
  514MOL0     C69273  -0.836   4.954   2.402  0.3388  0.4110  0.2997
  514MOL0     C69274  -0.755   4.847   2.412  0.6601 -0.4832  0.4781
  514MOL0     C69275  -0.808   4.708   2.462  0.7469 -0.0089  0.1326
  514MOL0     C69276  -0.807   4.601   2.356 -0.1538 -0.7308 -0.3536
  514MOL0     C69277  -0.668   4.541   2.343 -0.8867 -0.7525 -0.1581
  514MOL0     C69278  -0.644   4.426   2.240 -0.7726 -0.3281 -0.4664
  514MOL0     O69279  -0.498   4.395   2.227  0.4969 -0.1209  1.1952
  514MOL0     C69280  -0.454   4.285   2.164 -0.5093  0.1210  0.0398
  514MOL0     C69281  -0.319   4.279   2.126  0.5675  0.3715  0.4523
  514MOL0     C69282  -0.270   4.177   2.043  0.2718 -0.1286 -1.0856
  514MOL0     C69283  -0.137   4.192   1.994 -0.4100  0.2831  0.3796
  514MOL0     C69284  -0.352   4.069   1.996  1.0737  0.4140 -0.8270
  514MOL0     C69285  -0.313   3.953   1.901 -0.1842 -0.4000  0.3268
  514MOL0     O69286  -0.396   3.863   1.869  0.1512 -0.5280 -0.0248
  514MOL0     C69287  -0.376   3.729   1.859 -0.5606  0.4109  0.3461
  514MOL0     C69288  -0.276   3.662   1.930  0.2072  0.6267 -0.7013
  514MOL0     C69289  -0.245   3.527   1.897  0.4546 -0.6433 -0.6515
  514MOL0     C69290  -0.324   3.460   1.807 -0.4366  0.3174  0.7005
  514MOL0     O69291  -0.287   3.336   1.764  0.2215  0.7571  0.5091
  514MOL0     C69292  -0.178   3.264   1.819 -0.0931 -0.5448  0.8534
  514MOL0     C69293  -0.160   3.142   1.716 -0.6730 -0.3559 -0.1110
  514MOL0     C69294  -0.006   3.105   1.734  0.7258 -0.2702  0.5770
  514MOL0     C69295   0.042   2.985   1.642  0.3688 -0.6775  0.2414
  514MOL0     C69296  -0.028   2.850   1.665 -0.0208 -0.0385  0.7759
  514MOL0     C69297  -0.166   2.812   1.593 -0.5651 -0.2450 -0.0258
  514MOL0     C69298  -0.170   2.835   1.436 -0.1568 -0.2989 -0.6220
  514MOL0     C69299  -0.265   2.942   1.401 -0.0471  0.5133 -0.9379
  514MOL0    Cl69300  -0.219   2.995   1.232 -0.7556 -0.0138  0.3342
  514MOL0     C69301  -0.430   3.523   1.738 -0.2880  0.0341 -0.5804
  514MOL0     C69302  -0.457   3.661   1.765  0.1108  0.0070  0.1203
  514MOL0     O69303  -0.200   3.947   1.865 -0.0904  0.3367  0.2429
  514MOL0     C69304  -0.487   4.078   2.034 -1.0674  0.4956 -0.0114
  514MOL0     C69305  -0.536   4.181   2.116  0.2223 -0.7148 -0.0952
  514MOL0     N69306  -0.619   4.888   2.398 -0.3108 -0.4274 -0.2563
  514MOL0     N69307  -0.633   5.012   2.354  0.1387  0.0834 -0.1880
  514MOL0     C69308  -0.202   5.538   1.485  0.1452  0.3172 -0.3943
  514MOL0     C69309  -0.108   5.526   1.380 -0.3752 -1.2147 -0.3920
  514MOL0     C69310   0.254   5.384   1.170  0.8849 -0.2787  0.6841
  514MOL0     C69311   0.240   5.495   1.084  0.5157  0.1153 -0.6281
  514MOL0     C69312   0.336   5.530   0.996  0.8248  0.1108 -0.0446
  514MOL0     C69313   0.444   5.447   0.975 -0.0595  0.0153  0.8567
  514MOL0     O69314   0.537   5.494   0.886  1.2318 -0.2068 -0.1663
  514MOL0     C69315   0.499   5.469   0.755 -0.4746  0.1944  0.1209
  514MOL0     C69316   0.445   5.595   0.702 -0.1000 -1.0310 -1.0262
  514MOL0     C69317   0.539   5.723   0.711  0.2841  1.2822 -0.3910
  514MOL0     C69318   0.491   5.849   0.656 -0.1380  0.7164 -0.0709
  514MOL0     C69319   0.471   5.835   0.512  0.9655  0.2382 -0.0419
  514MOL0     C69320   0.461   5.847   0.390  1.0145 -0.5279 -0.1473
  514MOL0     C69321   0.466   5.337   1.053 -0.5983  0.3051  0.2705
  514MOL0     C69322   0.378   5.304   1.153  0.6768 -0.6634 -0.5563
  514MOL0     H69323  -0.124   5.184   1.339 -0.6432  0.3384 -1.3887
  514MOL0     H69324  -0.299   5.206   1.512  2.1097 -1.0320  1.6915
  514MOL0     H69325  -0.196   5.471   1.788  0.6042  0.4653  1.2839
  514MOL0     H69326  -0.276   5.606   1.735 -2.4307  0.2525  1.5331
  514MOL0     H69327  -0.339   5.571   1.955  0.5746 -1.5694  0.1599
  514MOL0     H69328  -0.486   5.557   1.847 -1.0753 -1.3423  0.3522
  514MOL0     H69329  -0.371   5.291   1.882 -2.5672  0.1310 -1.0662
  514MOL0     H69330  -0.341   5.376   2.044  0.7005  1.4099  0.0797
  514MOL0     H69331  -0.621   5.381   1.913  1.4086 -0.1400 -1.5702
  514MOL0     H69332  -0.586   5.252   2.004 -1.6333  1.1888 -2.7023
  514MOL0     H69333  -0.483   5.494   2.154 -1.5579  1.6477  1.0458
  514MOL0     H69334  -0.649   5.507   2.119  1.3983  1.8440  3.1413
  514MOL0     H69335  -0.528   5.287   2.283 -0.3207 -1.9573 -1.7109
  514MOL0     H69336  -0.621   5.426   2.335  0.0307 -0.6655  0.6837
  514MOL0     H69337  -0.826   5.328   2.195  1.4528 -0.3262 -1.3041
  514MOL0     H69338  -0.731   5.180   2.178  2.5714  0.7199 -0.6207
  514MOL0     H69339  -0.909   5.216   2.367 -0.2038  3.5316  0.6661
  514MOL0     H69340  -0.766   5.260   2.456 -1.5814 -0.7508  1.8507
  514MOL0     H69341  -0.942   4.952   2.424  0.5120 -0.9873  1.1131
  514MOL0     H69342  -0.749   4.683   2.551  1.5257  0.6419 -0.1882
  514MOL0     H69343  -0.911   4.720   2.496  0.0885 -2.6987 -0.6956
  514MOL0     H69344  -0.850   4.647   2.267 -2.7085  0.7329  1.4713
  514MOL0     H69345  -0.874   4.521   2.390 -1.2263  0.5217  0.6019
  514MOL0     H69346  -0.638   4.497   2.439 -0.4832 -0.7988 -0.3016
  514MOL0     H69347  -0.605   4.624   2.310 -3.2730  1.3287  0.2723
  514MOL0     H69348  -0.677   4.445   2.137 -0.6556 -0.9161 -0.6162
  514MOL0     H69349  -0.715   4.349   2.271 -1.9050 -0.1031 -2.3080
  514MOL0     H69350  -0.257   4.367   2.140 -0.1744  0.8845  0.5696
  514MOL0     H69351  -0.088   4.103   2.034 -4.3798 -2.5291 -0.4449
  514MOL0     H69352  -0.134   4.199   1.885  0.3164 -0.8170  0.3135
  514MOL0     H69353  -0.093   4.282   2.039  0.3889  0.7907 -1.3144
  514MOL0     H69354  -0.199   3.705   1.994  0.0046 -0.2246  0.1211
  514MOL0     H69355  -0.165   3.485   1.957 -0.2939 -0.5429  0.4351
  514MOL0     H69356  -0.088   3.326   1.820  2.0842 -3.4570 -0.1994
  514MOL0     H69357  -0.203   3.233   1.921 -3.1441  2.1192  1.0869
  514MOL0     H69358  -0.215   3.057   1.758  2.4869 -1.9555  1.0324
  514MOL0     H69359  -0.188   3.173   1.615 -3.1765  1.5460  1.0639
  514MOL0     H69360   0.016   3.073   1.836  1.1732 -1.0947  0.2270
  514MOL0     H69361   0.058   3.191   1.713  1.4550 -0.7842  0.6817
  514MOL0     H69362   0.029   3.009   1.537  0.8460  2.1499  0.7419
  514MOL0     H69363   0.150   2.978   1.663  0.6382 -0.8162 -1.1016
  514MOL0     H69364  -0.038   2.832   1.773 -1.5584 -2.3089  0.3316
  514MOL0     H69365   0.058   2.787   1.642  1.3268  2.3045 -1.0530
  514MOL0     H69366  -0.212   2.722   1.635  1.9237 -0.1402  3.3314
  514MOL0     H69367  -0.241   2.883   1.629 -0.7273 -0.4564  0.0513
  514MOL0     H69368  -0.227   2.752   1.394 -1.4764  2.5014 -5.1055
  514MOL0     H69369  -0.073   2.847   1.386  1.7631  0.6195  2.9594
  514MOL0     H69370  -0.252   3.027   1.470  1.4230 -0.7728  0.4462
  514MOL0     H69371  -0.368   2.907   1.403 -0.7051  2.3504  0.7888
  514MOL0     H69372  -0.491   3.473   1.664 -0.0299  0.1615 -0.8833
  514MOL0     H69373  -0.538   3.707   1.709  0.1736  1.1570  0.9536
  514MOL0     H69374  -0.556   3.999   2.009 -2.1878  0.7507  2.0285
  514MOL0     H69375  -0.642   4.190   2.138 -0.1700  0.9370 -2.3000
  514MOL0     H69376  -0.225   5.640   1.514  2.2635  0.8154 -0.2737
  514MOL0     H69377  -0.054   5.612   1.345 -1.1163  0.4517  2.2659
  514MOL0     H69378   0.152   5.557   1.095 -0.0172 -0.8433  0.8224
  514MOL0     H69379   0.306   5.620   0.945 -0.2216 -0.6681 -0.8485
  514MOL0     H69380   0.591   5.436   0.707 -0.8836 -2.1626  0.7992
  514MOL0     H69381   0.431   5.383   0.748 -2.4470  1.7570 -0.9363
  514MOL0     H69382   0.341   5.612   0.732 -0.0663 -3.4382  0.7278
  514MOL0     H69383   0.417   5.591   0.597 -0.1682 -1.5029 -0.9926
  514MOL0     H69384   0.639   5.703   0.673 -0.2116 -1.3842 -0.4456
  514MOL0     H69385   0.543   5.739   0.819  1.0091  0.8620 -0.3526
  514MOL0     H69386   0.573   5.920   0.672  0.1347  0.5794 -0.7990
  514MOL0     H69387   0.399   5.880   0.707 -0.2975  0.9828 -0.5175
  514MOL0     H69388   0.456   5.868   0.285 -2.8472 -0.1189 -0.0195
  514MOL0     H69389   0.555   5.281   1.026 -1.5570 -0.3702 -1.5876
  514MOL0     H69390   0.406   5.222   1.218  2.8252  1.1678  1.0202
  515MOL0     O69391   7.767   1.595  10.099 -0.0677  0.6631  1.0778
  515MOL0     C69392   7.864   1.613  10.175 -0.4189 -0.2839 -0.0194
  515MOL0     O69393   7.983   1.663  10.144 -0.5368  0.2757 -0.2791
  515MOL0     C69394   8.026   1.695  10.012 -0.1902  0.0849  0.6524
  515MOL0     C69395   8.162   1.695   9.987 -0.2037  1.2925 -0.6340
  515MOL0     C69396   8.218   1.724   9.870 -0.4701  0.5257 -0.2802
  515MOL0     C69397   8.136   1.764   9.766  0.3603  0.2749  0.1221
  515MOL0     O69398   8.199   1.807   9.647 -0.1181 -0.0192 -0.0780
  515MOL0     C69399   8.119   1.807   9.533 -1.0354 -0.0089 -0.2052
  515MOL0     C69400   8.227   1.817   9.420  0.0330 -0.0930  1.0344
  515MOL0     C69401   8.166   1.839   9.283 -0.1123  0.6588 -0.6022
  515MOL0     C69402   8.264   1.907   9.187 -1.2268  0.8887  0.3311
  515MOL0     C69403   8.206   1.947   9.044 -0.9170 -0.4197  0.3834
  515MOL0     C69404   8.211   1.827   8.960 -0.1392 -0.1285 -0.1136
  515MOL0     C69405   8.108   1.815   8.846 -0.3719 -0.7785  0.1916
  515MOL0     C69406   8.131   1.691   8.764  1.1038  0.7773  0.2443
  515MOL0     N69407   8.022   1.674   8.671 -0.3636  0.3819  0.0149
  515MOL0     C69408   8.019   1.692   8.531 -0.2149 -0.5385  0.0565
  515MOL0     C69409   7.910   1.633   8.485  0.0395  0.5688 -0.7409
  515MOL0     C69410   7.860   1.606   8.346  0.7424  1.0521  0.1932
  515MOL0     C69411   7.833   1.454   8.316  1.3532  0.5337  0.2200
  515MOL0     C69412   7.963   1.391   8.268  0.1504 -0.3872  0.0480
  515MOL0     C69413   8.039   1.335   8.398  0.2208 -0.1396 -0.2996
  515MOL0     O69414   8.160   1.271   8.362 -0.8818 -0.1465 -0.1701
  515MOL0     C69415   8.248   1.234   8.466 -0.1199  0.0949 -0.4299
  515MOL0     C69416   8.387   1.224   8.428  0.6610 -0.4524 -0.0792
  515MOL0     C69417   8.489   1.185   8.508 -0.3817 -0.7478  0.2010
  515MOL0     C69418   8.620   1.187   8.447 -0.4497  0.3448 -0.3380
  515MOL0     C69419   8.465   1.157   8.645 -0.2532  0.7172  0.4991
  515MOL0     C69420   8.563   1.127   8.751  0.9227  0.2767 -0.4663
  515MOL0     O69421   8.707   1.147   8.729  0.0120  1.0555 -0.6468
  515MOL0     C69422   8.789   1.070   8.808 -0.4150  0.2813  0.1303
  515MOL0     C69423   8.749   0.938   8.853  0.5744 -0.0569 -0.1292
  515MOL0     C69424   8.847   0.859   8.921  0.7333  0.9410 -0.2743
  515MOL0     C69425   8.968   0.913   8.956 -0.4143 -0.3570 -0.9243
  515MOL0     O69426   9.062   0.825   9.022  0.7505 -0.4861  0.4404
  515MOL0     C69427   9.194   0.858   9.037  0.4276  0.1653 -0.1654
  515MOL0     C69428   9.262   0.756   9.137  0.6816  0.4504  0.2751
  515MOL0     C69429   9.403   0.796   9.172  0.5316  1.6938 -0.8267
  515MOL0     C69430   9.467   0.674   9.254 -0.1963 -0.6503  1.2855
  515MOL0     C69431   9.619   0.686   9.269  0.2500  0.3656  0.4126
  515MOL0     C69432   9.654   0.800   9.365 -0.3594 -0.6207 -0.1119
  515MOL0     C69433   9.803   0.808   9.375  0.1587 -0.9043  0.0786
  515MOL0     C69434   9.861   0.914   9.471 -0.2967  0.6517  0.1540
  515MOL0    Cl69435   9.792   0.906   9.634  0.2838 -0.1349 -0.5945
  515MOL0     C69436   9.009   1.034   8.893 -0.5597 -0.3466 -0.3461
  515MOL0     C69437   8.918   1.111   8.826  0.0155 -0.0768  0.6119
  515MOL0     O69438   8.518   1.113   8.864 -0.2088  0.2581  0.1136
  515MOL0     C69439   8.332   1.176   8.688 -0.0996 -0.7366 -0.4580
  515MOL0     C69440   8.224   1.211   8.601 -0.4553 -0.5613  0.1388
  515MOL0     N69441   7.843   1.588   8.594 -0.0864  0.0502 -0.0874
  515MOL0     N69442   7.903   1.634   8.702  0.4348 -0.8517 -0.0993
  515MOL0     C69443   7.999   1.773   9.783 -1.0130  0.1787  1.4402
  515MOL0     C69444   7.942   1.730   9.905 -0.2852  0.2791  1.7089
  515MOL0     C69445   7.838   1.607  10.323  0.3264 -0.0676  0.8930
  515MOL0     C69446   7.950   1.606  10.413 -0.4479 -0.7158  0.1745
  515MOL0     C69447   7.935   1.625  10.548 -0.3318 -0.3810 -0.2849
  515MOL0     C69448   7.811   1.621  10.607 -0.9622  0.0120 -0.6682
  515MOL0     O69449   7.786   1.642  10.741  0.1462  0.2593  0.1407
  515MOL0     C69450   7.894   1.673  10.832  0.1895 -0.2115 -0.4711
  515MOL0     C69451   7.968   1.550  10.886  0.0662  0.2329  0.3215
  515MOL0     C69452   8.041   1.580  11.008  0.1519  0.0792  0.4250
  515MOL0     C69453   8.188   1.589  10.979 -1.3379 -0.3499 -0.2011
  515MOL0     C69454   8.258   1.618  11.103 -0.0763 -0.1756 -0.3882
  515MOL0     C69455   8.299   1.633  11.220  0.0126  0.1846  0.0382
  515MOL0     C69456   7.697   1.621  10.523 -0.9392  1.4248 -0.7358
  515MOL0     C69457   7.716   1.609  10.386  0.2748 -1.0364 -0.4635
  515MOL0     H69458   8.226   1.662  10.068 -3.6809  2.9594  3.1132
  515MOL0     H69459   8.326   1.731   9.863 -0.0480 -1.2840  2.8135
  515MOL0     H69460   8.060   1.716   9.514 -3.4309  1.3897  0.0605
  515MOL0     H69461   8.043   1.886   9.538 -0.4159  0.5110  1.4913
  515MOL0     H69462   8.289   1.905   9.439  0.2375 -0.5904  2.9006
  515MOL0     H69463   8.278   1.721   9.434 -2.7057 -1.6982  0.5632
  515MOL0     H69464   8.141   1.738   9.252 -1.8038  0.5519  0.9160
  515MOL0     H69465   8.077   1.900   9.302  1.9063  3.2860  1.1980
  515MOL0     H69466   8.299   2.004   9.225 -0.3802  0.7854 -0.1568
  515MOL0     H69467   8.355   1.848   9.172 -1.2673  1.2585 -1.6709
  515MOL0     H69468   8.102   1.980   9.050 -0.1814  2.6800 -1.7606
  515MOL0     H69469   8.271   2.019   8.992  0.8136 -2.6938 -0.7695
  515MOL0     H69470   8.305   1.819   8.904 -1.7937  0.2132 -3.1820
  515MOL0     H69471   8.191   1.737   9.019  0.0902 -0.5650 -0.6923
  515MOL0     H69472   8.011   1.794   8.891 -0.8546 -4.0471 -2.0650
  515MOL0     H69473   8.120   1.903   8.781  5.0785 -0.6832  0.8611
  515MOL0     H69474   8.134   1.608   8.835 -2.4640 -0.8735 -1.2894
  515MOL0     H69475   8.228   1.677   8.716  1.1504  0.9876  0.2730
  515MOL0     H69476   8.091   1.739   8.464  1.3951 -0.4832  1.7679
  515MOL0     H69477   7.767   1.664   8.336 -0.5014 -0.8313  0.3311
  515MOL0     H69478   7.934   1.645   8.276  0.1103 -1.6547 -2.1490
  515MOL0     H69479   7.763   1.461   8.232  1.6543 -3.4372 -0.5208
  515MOL0     H69480   7.786   1.403   8.400 -1.2489  2.0667 -0.1780
  515MOL0     H69481   8.031   1.452   8.208 -1.6039  0.0167 -1.6341
  515MOL0     H69482   7.958   1.306   8.199  2.1768  0.5313 -1.3190
  515MOL0     H69483   7.970   1.275   8.458  0.5680 -0.6761 -0.4264
  515MOL0     H69484   8.057   1.424   8.459  0.6192 -0.9065  0.7352
  515MOL0     H69485   8.407   1.243   8.322 -2.3591  0.2091 -0.6194
  515MOL0     H69486   8.611   1.150   8.345  2.3448  3.9613 -2.1084
  515MOL0     H69487   8.651   1.290   8.431  1.3022  0.0281  0.7710
  515MOL0     H69488   8.707   1.139   8.493 -2.2284 -0.0530  2.9033
  515MOL0     H69489   8.665   0.875   8.821  0.5628 -0.1232  0.0330
  515MOL0     H69490   8.820   0.757   8.947  1.0252  0.9814  0.1897
  515MOL0     H69491   9.243   0.834   8.942 -0.6225  3.6104 -1.7252
  515MOL0     H69492   9.210   0.964   9.058 -1.5133  0.7604 -1.3825
  515MOL0     H69493   9.210   0.772   9.232 -1.0353  3.1001 -1.0042
  515MOL0     H69494   9.249   0.657   9.094 -1.7547  1.7474 -2.2397
  515MOL0     H69495   9.401   0.881   9.241  4.5189  0.5450  0.9740
  515MOL0     H69496   9.465   0.811   9.083  2.1465 -1.8619 -0.4813
  515MOL0     H69497   9.419   0.669   9.352 -0.3239  3.3182  1.5907
  515MOL0     H69498   9.445   0.588   9.190 -0.6328  0.2928  0.1242
  515MOL0     H69499   9.644   0.722   9.169 -0.3312  2.1165  0.8734
  515MOL0     H69500   9.670   0.603   9.318  2.3033  2.7075  2.5170
  515MOL0     H69501   9.614   0.899   9.343  3.9103  1.5094  0.6883
  515MOL0     H69502   9.600   0.774   9.457 -2.4583 -0.2133 -1.1439
  515MOL0     H69503   9.838   0.844   9.278 -0.0043 -0.5729  0.1415
  515MOL0     H69504   9.846   0.712   9.407  0.9920 -0.4811  0.2707
  515MOL0     H69505   9.855   1.003   9.408  2.5409  0.6810 -0.2048
  515MOL0     H69506   9.969   0.910   9.486 -0.0071  2.5979 -1.0876
  515MOL0     H69507   9.112   1.066   8.890 -0.3650 -0.9580 -3.6948
  515MOL0     H69508   8.953   1.199   8.773 -1.0785  0.3117  0.5272
  515MOL0     H69509   8.302   1.162   8.792  0.6116  2.2524  0.2541
  515MOL0     H69510   8.123   1.220   8.639 -1.1997 -0.2836 -1.8029
  515MOL0     H69511   7.932   1.811   9.706 -1.6800 -1.2595  1.2728
  515MOL0     H69512   7.835   1.719   9.917 -0.4506  0.3715  0.4345
  515MOL0     H69513   8.046   1.585  10.369 -0.3784  1.9682 -1.1604
  515MOL0     H69514   8.025   1.624  10.608 -1.3314 -0.2845  1.2730
  515MOL0     H69515   7.979   1.721  10.781  1.7824 -2.0855  0.2639
  515MOL0     H69516   7.852   1.735  10.912  0.5407 -1.0386  0.3702
  515MOL0     H69517   8.027   1.489  10.817  1.0487 -0.6124  1.8536
  515MOL0     H69518   7.886   1.480  10.906 -1.0223  0.8349 -1.7286
  515MOL0     H69519   8.017   1.502  11.081 -0.0673 -0.0682  0.1960
  515MOL0     H69520   8.011   1.673  11.058 -1.0554 -1.6677  3.2064
  515MOL0     H69521   8.208   1.675  10.915 -0.0320  0.9573  1.8708
  515MOL0     H69522   8.231   1.494  10.944  3.2335 -0.4003  4.4325
  515MOL0     H69523   8.326   1.629  11.324  1.6181  1.7827 -0.2642
  515MOL0     H69524   7.601   1.633  10.572 -1.1691 -1.5015 -0.3096
  515MOL0     H69525   7.624   1.626  10.331  0.0355 -1.3254 -0.1532
  516MOL0     O69526   6.399   6.182   4.238 -0.4892 -0.0694 -0.5974
  516MOL0     C69527   6.501   6.228   4.282 -0.7560  0.1136 -0.7006
  516MOL0     O69528   6.518   6.348   4.348 -0.6837 -0.0262 -0.2990
  516MOL0     C69529   6.414   6.423   4.389  0.0133 -0.3685 -0.0068
  516MOL0     C69530   6.283   6.376   4.424  0.4062 -0.0091 -0.7519
  516MOL0     C69531   6.185   6.462   4.485 -0.7027 -0.4927 -0.3028
  516MOL0     C69532   6.208   6.598   4.495 -0.1246  0.3846 -0.0162
  516MOL0     O69533   6.100   6.678   4.537 -0.0122  0.9259 -0.0045
  516MOL0     C69534   6.136   6.789   4.616  0.5137 -0.0943  1.1464
  516MOL0     C69535   6.136   6.925   4.545 -0.4367  0.1008  0.0665
  516MOL0     C69536   6.000   6.985   4.517  0.2409  0.4874  0.0806
  516MOL0     C69537   5.985   7.103   4.418  0.5576 -0.7102 -0.0369
  516MOL0     C69538   6.048   7.079   4.281  0.1351 -0.3644  0.0180
  516MOL0     C69539   5.996   7.171   4.167  0.4244 -0.2628  0.7083
  516MOL0     C69540   6.022   7.125   4.021 -0.2072  0.1719 -0.1913
  516MOL0     C69541   6.042   7.242   3.922 -0.7749  0.0127 -0.0213
  516MOL0     N69542   6.042   7.193   3.783  0.8410 -0.1959 -1.1392
  516MOL0     C69543   5.929   7.180   3.710  0.5963  0.2564  0.6366
  516MOL0     C69544   5.971   7.153   3.581  0.2587 -0.3728 -0.2716
  516MOL0     C69545   5.871   7.110   3.476 -0.9585 -0.3370  0.1002
  516MOL0     C69546   5.811   7.222   3.400 -0.0370  0.5562  1.1417
  516MOL0     C69547   5.712   7.171   3.299  0.4743 -0.2424 -0.0900
  516MOL0     C69548   5.644   7.293   3.241 -0.4910 -0.1217  0.2251
  516MOL0     O69549   5.559   7.362   3.330 -0.7033 -0.3371 -0.0344
  516MOL0     C69550   5.524   7.490   3.288  1.4191  0.0033 -0.7805
  516MOL0     C69551   5.397   7.530   3.328  0.0502  0.3307  0.3792
  516MOL0     C69552   5.341   7.641   3.276  0.0607 -0.9200  0.5318
  516MOL0     C69553   5.195   7.665   3.313 -0.6079 -0.0532  0.6854
  516MOL0     C69554   5.409   7.741   3.203 -0.2756  0.3553  0.9432
  516MOL0     C69555   5.356   7.868   3.152 -0.0582 -0.2381 -1.0540
  516MOL0     O69556   5.405   7.911   3.040  0.0686 -0.8615  0.2008
  516MOL0     C69557   5.345   8.006   2.962 -0.2095 -0.1087 -0.2002
  516MOL0     C69558   5.311   7.966   2.837  0.4254  0.2666  0.3473
  516MOL0     C69559   5.243   8.050   2.746  0.5771  0.1654  0.7987
  516MOL0     C69560   5.207   8.175   2.794  0.4561 -0.9976  0.4037
  516MOL0     O69561   5.140   8.248   2.703  0.5150 -0.2098  0.4123
  516MOL0     C69562   5.106   8.384   2.737 -0.5106 -0.0890  0.1096
  516MOL0     C69563   5.041   8.450   2.617  0.7408  0.5878  0.5847
  516MOL0     C69564   4.930   8.352   2.570  0.1779 -0.1224  0.6318
  516MOL0     C69565   4.999   8.262   2.454 -0.2916  0.7040  0.8983
  516MOL0     C69566   4.882   8.184   2.384 -0.0820  0.5180 -1.0776
  516MOL0     C69567   4.919   8.104   2.266  0.8627  0.8239  0.7032
  516MOL0     C69568   4.803   8.023   2.201 -0.2733  0.1348  0.5752
  516MOL0     C69569   4.723   7.940   2.297  0.3808  0.3549  0.2502
  516MOL0    Cl69570   4.588   8.025   2.380 -0.7584 -0.1536  0.0152
  516MOL0     C69571   5.243   8.214   2.927  0.4819  0.1457  0.4004
  516MOL0     C69572   5.313   8.131   3.006  0.2334  0.1323 -0.2291
  516MOL0     O69573   5.291   7.941   3.231  0.6497 -0.1002  0.0083
  516MOL0     C69574   5.538   7.702   3.166 -0.3032 -0.4856 -0.1562
  516MOL0     C69575   5.594   7.572   3.198 -0.3067  0.4161  0.5030
  516MOL0     N69576   6.109   7.144   3.587  1.3265  0.6526  0.6067
  516MOL0     N69577   6.146   7.165   3.702 -0.6003 -0.4163 -0.1633
  516MOL0     C69578   6.339   6.647   4.456 -0.3444 -0.1275  0.2283
  516MOL0     C69579   6.439   6.562   4.405  0.4306 -0.4711  0.3812
  516MOL0     C69580   6.625   6.144   4.261 -1.2649 -1.2128 -0.2319
  516MOL0     C69581   6.609   6.013   4.214 -0.0175  1.3520  0.5355
  516MOL0     C69582   6.717   5.927   4.174 -0.4120 -0.8254  0.4113
  516MOL0     C69583   6.846   5.979   4.188  0.5051 -0.7632  0.0108
  516MOL0     O69584   6.959   5.896   4.163 -0.2941 -0.4249  0.3849
  516MOL0     C69585   7.091   5.915   4.220 -0.1085 -0.1866 -0.8260
  516MOL0     C69586   7.147   5.784   4.255  0.3727  0.7369 -0.3242
  516MOL0     C69587   7.194   5.695   4.139 -0.9329  0.9480  0.3213
  516MOL0     C69588   7.306   5.775   4.048 -0.3441  0.6810 -0.4323
  516MOL0     C69589   7.423   5.776   4.138 -0.7095 -0.4275 -0.7215
  516MOL0     C69590   7.515   5.776   4.219 -1.0327  0.2844 -0.9004
  516MOL0     C69591   6.867   6.110   4.243  0.5602  0.2640  0.0699
  516MOL0     C69592   6.755   6.187   4.279  0.5387  0.1339 -0.9725
  516MOL0     H69593   6.249   6.272   4.421 -0.9370  0.3831 -0.1062
  516MOL0     H69594   6.094   6.420   4.528  0.6446  0.3230  3.7685
  516MOL0     H69595   6.066   6.788   4.700 -0.2345 -2.1777  0.5716
  516MOL0     H69596   6.233   6.773   4.666  0.8812 -1.2044  0.1384
  516MOL0     H69597   6.194   6.989   4.613 -2.8357 -0.6012  3.0043
  516MOL0     H69598   6.193   6.912   4.453 -1.0609 -1.9416 -0.0725
  516MOL0     H69599   5.934   6.914   4.467 -0.0773  0.5184  0.4511
  516MOL0     H69600   5.961   7.014   4.615  2.2975  0.0057  1.1005
  516MOL0     H69601   5.880   7.128   4.400  0.3272 -1.8338 -0.3397
  516MOL0     H69602   6.045   7.189   4.449  2.8003 -1.0731 -2.9346
  516MOL0     H69603   6.157   7.086   4.286  0.0150  0.7912  1.6559
  516MOL0     H69604   6.030   6.980   4.238  2.6229 -0.5860 -0.6818
  516MOL0     H69605   5.890   7.194   4.184  0.1675  2.0717 -2.9204
  516MOL0     H69606   6.044   7.268   4.182  2.5153 -0.6700 -2.4684
  516MOL0     H69607   6.110   7.060   4.011  0.0211  0.6201 -1.2333
  516MOL0     H69608   5.940   7.065   3.981  1.8175 -1.5874 -2.0226
  516MOL0     H69609   6.137   7.291   3.945 -0.6870 -1.2177  2.6762
  516MOL0     H69610   5.958   7.312   3.918 -0.6397  0.3100 -5.5148
  516MOL0     H69611   5.823   7.194   3.727  0.9540  1.8845  1.6901
  516MOL0     H69612   5.928   7.064   3.396 -3.1416  0.0099 -1.7617
  516MOL0     H69613   5.801   7.038   3.519  0.3719 -3.2215 -2.2063
  516MOL0     H69614   5.886   7.288   3.355  1.9623 -1.2203  1.7008
  516MOL0     H69615   5.752   7.286   3.466 -0.6650  1.4787 -0.2636
  516MOL0     H69616   5.637   7.099   3.333  1.3636 -2.5100 -2.5741
  516MOL0     H69617   5.774   7.124   3.223  0.5779  2.3778 -1.7631
  516MOL0     H69618   5.591   7.274   3.148 -0.5593  0.8762  0.0421
  516MOL0     H69619   5.725   7.356   3.204 -0.8530 -0.1970 -0.7246
  516MOL0     H69620   5.340   7.460   3.387  0.4610  0.2225  0.6473
  516MOL0     H69621   5.198   7.740   3.392 -0.7930 -0.9000  1.5192
  516MOL0     H69622   5.132   7.695   3.229  0.3552  1.6065  0.5115
  516MOL0     H69623   5.150   7.575   3.357 -2.5711 -0.6772 -2.3034
  516MOL0     H69624   5.329   7.862   2.808  0.9473 -0.8028  4.0342
  516MOL0     H69625   5.213   8.038   2.642 -0.2032  3.0925  0.6021
  516MOL0     H69626   5.039   8.379   2.823  1.7739 -3.4806  1.9146
  516MOL0     H69627   5.204   8.431   2.751  0.7631 -2.6786  0.6324
  516MOL0     H69628   5.003   8.552   2.630  0.2595  0.2287  2.2526
  516MOL0     H69629   5.106   8.456   2.529 -2.1940 -0.4540 -1.8287
  516MOL0     H69630   4.856   8.408   2.512  1.8979  3.1017  1.3544
  516MOL0     H69631   4.879   8.293   2.647 -2.0485 -2.4949 -2.3707
  516MOL0     H69632   5.050   8.321   2.377  0.8026 -2.4355 -0.9801
  516MOL0     H69633   5.067   8.185   2.491 -0.6398  0.4489  1.0176
  516MOL0     H69634   4.808   8.260   2.356  0.7602  0.8010 -2.6663
  516MOL0     H69635   4.848   8.105   2.451  0.0314  1.3297 -0.0231
  516MOL0     H69636   4.946   8.173   2.186  0.8984 -0.2985 -0.2682
  516MOL0     H69637   5.008   8.043   2.283  0.1794 -0.4314 -0.1423
  516MOL0     H69638   4.840   7.954   2.124  1.3960  0.8240  0.7158
  516MOL0     H69639   4.740   8.097   2.150  0.1885 -1.2747 -2.2639
  516MOL0     H69640   4.788   7.891   2.369 -1.0138 -1.9379  0.0460
  516MOL0     H69641   4.675   7.858   2.242 -0.2858  0.0568  1.2504
  516MOL0     H69642   5.209   8.309   2.968  1.2156 -0.3852  2.3747
  516MOL0     H69643   5.351   8.163   3.102  0.6454  0.6291 -0.5580
  516MOL0     H69644   5.595   7.764   3.097  0.6897  0.3480  1.3467
  516MOL0     H69645   5.695   7.570   3.159 -1.3071  0.2758 -2.3524
  516MOL0     H69646   6.367   6.750   4.439  1.6499 -1.1966 -4.3907
  516MOL0     H69647   6.540   6.602   4.400  0.5118 -0.6062  0.8556
  516MOL0     H69648   6.509   5.971   4.207  0.3754  0.3538  0.7427
  516MOL0     H69649   6.708   5.824   4.141 -4.3209 -0.7472  0.7670
  516MOL0     H69650   7.159   5.979   4.162 -1.4596  0.7426 -1.4350
  516MOL0     H69651   7.089   5.965   4.317 -2.5645  0.1638 -1.0029
  516MOL0     H69652   7.071   5.725   4.307  1.1958 -3.7413 -3.6081
  516MOL0     H69653   7.230   5.792   4.326 -0.9363  2.0156  1.1304
  516MOL0     H69654   7.106   5.656   4.086 -0.1148 -4.0038  2.1200
  516MOL0     H69655   7.237   5.605   4.183 -2.5006 -1.0720 -1.9672
  516MOL0     H69656   7.278   5.867   3.998 -0.0275  1.0752  0.1021
  516MOL0     H69657   7.338   5.708   3.968  1.4997  1.2206 -0.2023
  516MOL0     H69658   7.599   5.768   4.286  0.4920 -0.2572 -2.8027
  516MOL0     H69659   6.959   6.163   4.265 -1.6853  4.5777  0.1149
  516MOL0     H69660   6.775   6.285   4.322  0.9601  0.1762 -1.2504
  517MOL0     O69661   4.690  10.153   1.582  0.4158  0.0336 -0.0740
  517MOL0     C69662   4.591  10.112   1.514 -0.0586 -0.4274 -0.3550
  517MOL0     O69663   4.561  10.164   1.393 -0.1316 -0.0085  0.5943
  517MOL0     C69664   4.599  10.296   1.376 -0.4205 -0.5071  0.6094
  517MOL0     C69665   4.548  10.399   1.460  0.2433  1.7812  0.8956
  517MOL0     C69666   4.573  10.536   1.431 -0.6681 -0.1098 -0.4140
  517MOL0     C69667   4.637  10.569   1.310 -0.7453  0.6682  0.8714
  517MOL0     O69668   4.650  10.707   1.288 -0.1127  0.0352  0.8597
  517MOL0     C69669   4.745  10.756   1.186 -0.1005 -0.1670 -0.2647
  517MOL0     C69670   4.896  10.722   1.218  0.3465  0.9051  0.5181
  517MOL0     C69671   5.002  10.807   1.141  0.4873 -0.3565  0.1846
  517MOL0     C69672   5.137  10.741   1.175 -0.8937 -0.7650 -0.0929
  517MOL0     C69673   5.250  10.806   1.099  0.7361 -0.2375  0.3801
  517MOL0     C69674   5.389  10.741   1.121  0.5177 -0.5107 -0.1155
  517MOL0     C69675   5.496  10.835   1.060  0.2348 -1.3862 -0.3605
  517MOL0     C69676   5.633  10.794   1.114  0.3601 -0.0980 -0.4058
  517MOL0     N69677   5.749  10.859   1.045 -0.2076 -0.0326  0.3749
  517MOL0     C69678   5.781  10.992   1.048  0.2958 -0.0385 -0.2925
  517MOL0     C69679   5.865  11.010   0.941 -1.1660  0.9647  0.6727
  517MOL0     C69680   5.897  11.141   0.876 -1.1449 -0.3296  0.2935
  517MOL0     C69681   5.920  11.259   0.971 -0.6217  0.3928  0.8839
  517MOL0     C69682   5.986  11.377   0.903 -0.6643 -0.1330 -0.9379
  517MOL0     C69683   6.011  11.491   1.013  0.3981  0.3418 -0.1021
  517MOL0     O69684   5.890  11.554   1.060  0.0853  0.1315 -0.5043
  517MOL0     C69685   5.903  11.619   1.181 -0.9181 -0.4788 -0.1254
  517MOL0     C69686   6.013  11.699   1.230 -0.2043  0.4437  0.3438
  517MOL0     C69687   6.037  11.726   1.367 -0.3536 -1.0341  0.1826
  517MOL0     C69688   6.149  11.826   1.396 -0.4087 -0.6586 -0.2814
  517MOL0     C69689   5.947  11.679   1.462  0.2689  0.4113  0.7577
  517MOL0     C69690   5.955  11.718   1.602 -0.3328 -0.6038 -0.5582
  517MOL0     O69691   5.848  11.710   1.691 -0.1058  0.2273  0.7495
  517MOL0     C69692   5.877  11.753   1.814 -0.1918  0.5324  0.2060
  517MOL0     C69693   5.918  11.664   1.906 -0.7438 -0.6906  0.2060
  517MOL0     C69694   5.945  11.699   2.040  0.9839  0.6226  1.4654
  517MOL0     C69695   5.910  11.827   2.083  0.4564  0.4617  0.8346
  517MOL0     O69696   5.959  11.859   2.209  0.2440 -0.3638  0.5523
  517MOL0     C69697   5.860  11.875   2.311 -0.1310 -0.5910  0.6920
  517MOL0     C69698   5.910  11.864   2.455 -0.2178 -0.3177  0.1493
  517MOL0     C69699   6.006  11.753   2.481 -0.0750 -0.5496  0.7702
  517MOL0     C69700   6.089  11.753   2.608  0.7604  0.0173  0.2990
  517MOL0     C69701   6.020  11.706   2.741  1.3400  0.5654  0.4342
  517MOL0     C69702   6.123  11.695   2.857 -0.4172  0.8294 -0.3347
  517MOL0     C69703   6.067  11.683   3.004  1.5212 -0.0705  0.1581
  517MOL0     C69704   6.153  11.767   3.095  0.3640  0.7907  0.0931
  517MOL0    Cl69705   6.319  11.711   3.107  0.2765  0.0267  0.1047
  517MOL0     C69706   5.852  11.922   1.994  0.5674  0.6232  1.1076
  517MOL0     C69707   5.843  11.884   1.856 -0.7026 -0.1469 -0.7994
  517MOL0     O69708   6.075  11.729   1.640 -0.1025 -0.2694 -0.0119
  517MOL0     C69709   5.839  11.597   1.416  0.0981  0.1421 -0.0733
  517MOL0     C69710   5.823  11.568   1.279  0.4956  0.8725 -0.0381
  517MOL0     N69711   5.882  10.895   0.884 -0.4773 -0.4834 -0.5423
  517MOL0     N69712   5.819  10.798   0.941  0.3847  0.6532  0.2197
  517MOL0     C69713   4.682  10.468   1.226 -0.3361  0.3002  0.9489
  517MOL0     C69714   4.664  10.336   1.258 -0.5372  0.8518 -0.1919
  517MOL0     C69715   4.529   9.985   1.539  0.7919  0.2599 -0.2739
  517MOL0     C69716   4.388   9.972   1.542  0.3460 -0.3058  0.0779
  517MOL0     C69717   4.334   9.844   1.557  0.0015 -0.0429 -1.1446
  517MOL0     C69718   4.408   9.732   1.588 -0.5127  0.6746  0.3425
  517MOL0     O69719   4.356   9.604   1.613 -0.1124  0.3732  0.8589
  517MOL0     C69720   4.322   9.571   1.747  0.7018  0.7199  0.2928
  517MOL0     C69721   4.193   9.500   1.769  0.3414  1.0613 -0.2563
  517MOL0     C69722   4.180   9.477   1.913 -0.4061  0.0825 -0.2411
  517MOL0     C69723   4.041   9.412   1.933  0.1278 -1.2687  1.3333
  517MOL0     C69724   4.030   9.336   2.049 -0.3880  1.0320 -0.0365
  517MOL0     C69725   4.022   9.279   2.155  0.0454 -0.1536 -1.0687
  517MOL0     C69726   4.550   9.754   1.597 -0.3840  0.6445  0.8595
  517MOL0     C69727   4.608   9.879   1.574 -0.1358 -0.0986  0.5448
  517MOL0     H69728   4.475  10.366   1.534 -3.9122  1.8755 -2.7502
  517MOL0     H69729   4.520  10.606   1.495  1.8508 -0.6794  2.5565
  517MOL0     H69730   4.726  10.728   1.082  1.5610 -2.3355 -0.0499
  517MOL0     H69731   4.747  10.866   1.186 -1.5103 -0.1121 -0.9003
  517MOL0     H69732   4.912  10.742   1.325  3.4068  4.1883 -0.3762
  517MOL0     H69733   4.916  10.617   1.197 -1.0040  0.7316 -0.0325
  517MOL0     H69734   4.975  10.815   1.035 -0.5902  3.1865  0.5838
  517MOL0     H69735   5.000  10.908   1.182 -0.3921  1.2467 -3.4047
  517MOL0     H69736   5.155  10.748   1.282  2.6736  0.6994 -0.6419
  517MOL0     H69737   5.139  10.634   1.155  3.4300 -0.4742 -2.5822
  517MOL0     H69738   5.220  10.801   0.994 -3.4315 -2.2088  1.4835
  517MOL0     H69739   5.259  10.914   1.117 -1.8849 -0.1237  1.3712
  517MOL0     H69740   5.404  10.740   1.229  2.2313 -0.5642 -0.3289
  517MOL0     H69741   5.398  10.644   1.072  0.9351  0.6702 -2.5236
  517MOL0     H69742   5.498  10.822   0.952 -1.9375 -1.8049 -0.3884
  517MOL0     H69743   5.480  10.941   1.082 -1.6963 -1.9613  1.2727
  517MOL0     H69744   5.642  10.686   1.097 -1.1886 -0.5666  1.4366
  517MOL0     H69745   5.633  10.816   1.221  0.7433 -0.8327 -0.2517
  517MOL0     H69746   5.743  11.070   1.113 -0.9480 -0.7135 -0.1828
  517MOL0     H69747   5.989  11.124   0.819  0.3786  2.3218  1.7134
  517MOL0     H69748   5.811  11.146   0.810 -1.7697 -1.1956  1.0173
  517MOL0     H69749   5.985  11.237   1.056 -0.4819  3.0311  1.5172
  517MOL0     H69750   5.822  11.280   1.015  0.3172  0.6195  2.9775
  517MOL0     H69751   5.926  11.412   0.818 -2.3694 -0.6652  0.0154
  517MOL0     H69752   6.084  11.351   0.861  0.5476  1.1752  0.9265
  517MOL0     H69753   6.073  11.563   0.959 -0.6191  1.6308  0.3974
  517MOL0     H69754   6.070  11.449   1.095 -0.7304 -1.6477 -0.2655
  517MOL0     H69755   6.081  11.726   1.151 -1.3065 -3.5375 -2.2665
  517MOL0     H69756   6.202  11.854   1.304 -1.6744  0.2210 -0.7733
  517MOL0     H69757   6.117  11.917   1.447  0.1457 -2.1483  2.9333
  517MOL0     H69758   6.220  11.779   1.465 -1.5276 -0.3027  1.1370
  517MOL0     H69759   5.948  11.565   1.872 -1.9316 -0.6711 -0.9680
  517MOL0     H69760   5.981  11.633   2.118  0.2843 -1.4378  0.1639
  517MOL0     H69761   5.827  11.978   2.290  0.0304 -0.7298 -0.3107
  517MOL0     H69762   5.779  11.805   2.289  0.6838 -0.4909 -3.4328
  517MOL0     H69763   5.976  11.950   2.469  2.2737 -1.7189 -2.0793
  517MOL0     H69764   5.827  11.869   2.527 -2.0969 -1.4970 -1.8238
  517MOL0     H69765   6.075  11.734   2.399 -0.0793  1.0713  0.3549
  517MOL0     H69766   5.944  11.663   2.486  0.5237 -0.9554  0.9803
  517MOL0     H69767   6.171  11.681   2.591  0.3774  0.2482 -3.2162
  517MOL0     H69768   6.133  11.852   2.623 -0.7594  1.6213 -4.4247
  517MOL0     H69769   5.972  11.610   2.723 -0.8400  1.5886  0.4298
  517MOL0     H69770   5.943  11.777   2.772  2.0442  0.9297  1.4188
  517MOL0     H69771   6.191  11.613   2.833 -1.3291 -0.4754  1.3572
  517MOL0     H69772   6.193  11.778   2.850 -2.5877  2.7405 -0.4830
  517MOL0     H69773   6.056  11.577   3.029 -2.7140  0.3805  0.9189
  517MOL0     H69774   5.968  11.730   3.006  0.6653 -1.4775 -2.6737
  517MOL0     H69775   6.125  11.758   3.201  1.8508 -2.5030  0.3141
  517MOL0     H69776   6.142  11.873   3.070 -2.5830 -0.3339 -4.6609
  517MOL0     H69777   5.844  12.020   2.040  0.1433  2.3738 -2.3720
  517MOL0     H69778   5.795  11.960   1.795 -0.5987  0.9316  0.4048
  517MOL0     H69779   5.779  11.545   1.489 -0.5190 -0.9232 -1.2908
  517MOL0     H69780   5.742  11.503   1.251 -0.2096  1.0099  1.5371
  517MOL0     H69781   4.720  10.489   1.126 -0.6027 -4.7258 -0.5098
  517MOL0     H69782   4.696  10.265   1.182  0.2850  0.7566  0.2255
  517MOL0     H69783   4.322  10.057   1.529  1.8302  0.4856 -3.6365
  517MOL0     H69784   4.230   9.834   1.529 -0.4063 -3.0169  0.9626
  517MOL0     H69785   4.401   9.515   1.798 -1.0679 -0.7325  1.5769
  517MOL0     H69786   4.320   9.660   1.811  0.6067 -0.2509  1.6793
  517MOL0     H69787   4.213   9.414   1.704  1.4130  1.8199 -0.9620
  517MOL0     H69788   4.107   9.555   1.729 -1.2502 -0.6480  0.6298
  517MOL0     H69789   4.183   9.578   1.953 -0.9347 -0.1115  0.2972
  517MOL0     H69790   4.262   9.418   1.955 -0.2134 -0.0863 -0.8411
  517MOL0     H69791   4.014   9.345   1.851  3.5883  0.8176 -1.8290
  517MOL0     H69792   3.974   9.499   1.935 -1.7668 -2.6456  3.8206
  517MOL0     H69793   4.033   9.237   2.253  2.3901 -0.8629 -1.5685
  517MOL0     H69794   4.621   9.674   1.618 -1.6640 -1.3049 -1.6536
  517MOL0     H69795   4.713   9.900   1.589  0.1114  0.8671 -2.0208
  518MOL0     O69796  10.338   8.687   7.363  0.3833 -0.0167  0.7801
  518MOL0     C69797  10.454   8.655   7.389 -0.3271  0.5169 -0.3219
  518MOL0     O69798  10.489   8.528   7.448  0.5555  0.2049  0.1150
  518MOL0     C69799  10.386   8.466   7.518 -0.8520  0.4560  0.2471
  518MOL0     C69800  10.280   8.404   7.450 -0.0223  0.6366 -0.7883
  518MOL0     C69801  10.175   8.349   7.537  0.6197  0.1741 -0.4492
  518MOL0     C69802  10.177   8.351   7.674 -0.3270 -1.2769  0.4845
  518MOL0     O69803  10.074   8.300   7.746  0.0881 -0.3089  0.4249
  518MOL0     C69804  10.105   8.194   7.847  0.5894 -0.5324  0.3854
  518MOL0     C69805   9.964   8.151   7.907  0.2481  0.7151 -0.0222
  518MOL0     C69806   9.877   8.264   7.961 -0.2630 -0.3554  0.1922
  518MOL0     C69807   9.729   8.216   7.985  0.0132  0.7043  1.3413
  518MOL0     C69808   9.706   8.190   8.131  0.1204  0.8357 -0.0997
  518MOL0     C69809   9.760   8.056   8.175  0.1507 -0.7133 -0.1800
  518MOL0     C69810   9.698   8.030   8.314  1.2610 -0.8469  0.1179
  518MOL0     C69811   9.752   7.901   8.371 -0.0461  0.2728 -0.1939
  518MOL0     N69812   9.715   7.887   8.509 -0.1525 -1.3516 -0.4207
  518MOL0     C69813   9.794   7.914   8.619  0.6165 -0.9271  0.2380
  518MOL0     C69814   9.728   7.849   8.719 -1.2226 -0.0113  0.3912
  518MOL0     C69815   9.764   7.863   8.860 -0.3595  0.3328  0.2130
  518MOL0     C69816   9.868   7.763   8.897  1.1178  0.1790 -0.2268
  518MOL0     C69817   9.860   7.720   9.049  0.7305 -0.9325 -0.2419
  518MOL0     C69818   9.792   7.584   9.075 -0.2530  0.4535  0.0681
  518MOL0     O69819   9.776   7.564   9.212  0.2381  0.1366 -0.6801
  518MOL0     C69820   9.753   7.433   9.255  0.1168  1.1485 -0.7044
  518MOL0     C69821   9.762   7.407   9.391 -0.7767 -0.2508 -0.7391
  518MOL0     C69822   9.755   7.276   9.444  0.4197  0.0544  0.6975
  518MOL0     C69823   9.765   7.270   9.588 -0.0613  1.3706 -0.0077
  518MOL0     C69824   9.768   7.167   9.351 -0.6874  0.0781  0.1346
  518MOL0     C69825   9.776   7.032   9.393  0.6137  0.9772 -0.3960
  518MOL0     O69826   9.729   6.993   9.518 -0.2071  0.4514 -0.0088
  518MOL0     C69827   9.774   6.869   9.556  0.8155  1.0337  0.1105
  518MOL0     C69828   9.895   6.846   9.609 -0.6469 -1.5070 -0.9926
  518MOL0     C69829   9.931   6.723   9.665 -1.1147  0.2571  0.4062
  518MOL0     C69830   9.852   6.614   9.662 -0.2450 -0.1936  0.1368
  518MOL0     O69831   9.890   6.486   9.696  0.2617 -0.1870  0.4363
  518MOL0     C69832   9.946   6.474   9.826 -0.0726  0.2668  0.3503
  518MOL0     C69833  10.061   6.373   9.829  0.0094  0.0691 -0.5212
  518MOL0     C69834  10.168   6.410   9.932 -0.2226 -0.8383 -0.0142
  518MOL0     C69835  10.274   6.291   9.941  0.2485 -0.2206  0.6345
  518MOL0     C69836  10.389   6.338  10.025 -0.3003  0.4971 -0.8934
  518MOL0     C69837  10.505   6.228  10.041  0.5213  1.2692 -0.0956
  518MOL0     C69838  10.477   6.115  10.150 -0.2921  0.5136  0.0104
  518MOL0     C69839  10.591   6.023  10.156  0.2828 -0.6965  0.8869
  518MOL0    Cl69840  10.568   5.887  10.269  0.1195 -0.3984 -0.3667
  518MOL0     C69841   9.720   6.634   9.605 -0.2980  0.0860  0.1952
  518MOL0     C69842   9.684   6.760   9.553 -0.1750  0.3984  0.3512
  518MOL0     O69843   9.851   6.962   9.325 -0.0886  0.2966  0.3279
  518MOL0     C69844   9.755   7.197   9.214  0.0666  0.0232  0.1930
  518MOL0     C69845   9.739   7.329   9.168  0.6214 -0.2831  0.2425
  518MOL0     N69846   9.611   7.798   8.670 -0.4100  0.0448  0.1760
  518MOL0     N69847   9.604   7.822   8.545 -0.2695 -0.1124  0.2164
  518MOL0     C69848  10.284   8.407   7.740 -0.4209  0.1204 -0.2140
  518MOL0     C69849  10.389   8.466   7.659  0.5875 -0.2877 -0.7923
  518MOL0     C69850  10.564   8.746   7.346 -0.4174  0.2275 -0.1199
  518MOL0     C69851  10.535   8.841   7.246 -0.1014 -0.2892  0.1600
  518MOL0     C69852  10.642   8.920   7.199 -0.7449 -0.6486 -0.0268
  518MOL0     C69853  10.777   8.892   7.234  0.4899  0.3586  0.8052
  518MOL0     O69854  10.877   8.953   7.178 -1.0583 -0.7077  0.1920
  518MOL0     C69855  11.003   8.880   7.163  1.0816  0.6285 -0.3621
  518MOL0     C69856  11.088   8.933   7.062  0.2920 -1.3942 -0.1550
  518MOL0     C69857  11.114   9.082   7.094 -0.5202 -1.2358  0.2240
  518MOL0     C69858  11.209   9.142   6.989  0.2269  0.3254  0.0266
  518MOL0     C69859  11.242   9.287   7.015  0.5516 -0.0093  0.4954
  518MOL0     C69860  11.254   9.408   7.022  0.0510 -0.0292  0.2191
  518MOL0     C69861  10.792   8.801   7.335 -0.6856 -1.1774 -0.4265
  518MOL0     C69862  10.688   8.734   7.403  0.5359  0.1993  0.7754
  518MOL0     H69863  10.272   8.406   7.341 -0.5152  0.8550 -0.7498
  518MOL0     H69864  10.093   8.299   7.486  1.4059 -0.3858 -1.2012
  518MOL0     H69865  10.145   8.107   7.795 -2.4948 -1.4462 -0.6630
  518MOL0     H69866  10.173   8.225   7.928  2.6623  0.6364 -1.6898
  518MOL0     H69867   9.907   8.099   7.830  0.9636  3.4262 -2.5328
  518MOL0     H69868   9.970   8.076   7.987 -0.2329  0.3693 -0.2996
  518MOL0     H69869   9.924   8.307   8.050  0.4735  2.2389 -1.3350
  518MOL0     H69870   9.888   8.333   7.877  3.7078 -0.2400  0.6306
  518MOL0     H69871   9.658   8.296   7.962  0.0999  0.3771 -0.1467
  518MOL0     H69872   9.704   8.135   7.918  2.5804  0.4178  0.6104
  518MOL0     H69873   9.755   8.272   8.183  2.0472 -1.2046  1.5243
  518MOL0     H69874   9.599   8.188   8.152  0.1495  1.2262  0.0871
  518MOL0     H69875   9.740   7.973   8.108 -0.7878 -0.8398  0.2356
  518MOL0     H69876   9.869   8.057   8.185  0.2642 -0.2931 -1.3301
  518MOL0     H69877   9.712   8.113   8.384 -0.9115 -1.4776  1.4197
  518MOL0     H69878   9.591   8.029   8.291  1.3755  4.7108 -2.3082
  518MOL0     H69879   9.861   7.909   8.364  0.1281 -1.3817  0.2895
  518MOL0     H69880   9.729   7.808   8.319  1.4068 -0.7654  0.9475
  518MOL0     H69881   9.890   7.965   8.620  0.4213 -0.5406 -0.0287
  518MOL0     H69882   9.809   7.962   8.875  4.3392 -1.1193 -2.2249
  518MOL0     H69883   9.670   7.858   8.915  0.4963 -1.2994  1.6114
  518MOL0     H69884   9.969   7.787   8.863  0.3543  0.6869 -2.2384
  518MOL0     H69885   9.835   7.677   8.838  0.3538  0.2630  0.0715
  518MOL0     H69886   9.815   7.790   9.119  1.7257  2.0226 -2.3779
  518MOL0     H69887   9.966   7.724   9.077  1.0683 -0.0390 -1.5397
  518MOL0     H69888   9.858   7.506   9.035 -0.0418  2.5446 -4.2410
  518MOL0     H69889   9.702   7.588   9.013 -0.5358  3.7757  0.5192
  518MOL0     H69890   9.778   7.491   9.458 -1.5130 -0.5740 -0.1502
  518MOL0     H69891   9.723   7.363   9.629  0.7598  1.0989  1.5448
  518MOL0     H69892   9.701   7.201   9.644  1.0823  1.9467  2.1443
  518MOL0     H69893   9.866   7.240   9.618 -2.3167 -5.6358  2.6398
  518MOL0     H69894   9.942   6.944   9.605 -3.2053 -0.0591 -6.6591
  518MOL0     H69895  10.020   6.728   9.727 -0.9375 -0.8622  0.2755
  518MOL0     H69896   9.975   6.571   9.866  1.9559 -0.3891  0.5762
  518MOL0     H69897   9.863   6.453   9.894  0.5495  0.2688  1.1194
  518MOL0     H69898  10.019   6.277   9.861  0.5336  1.3928  5.2695
  518MOL0     H69899  10.091   6.364   9.725 -0.4393  0.2330 -0.6677
  518MOL0     H69900  10.131   6.418  10.034  1.2820 -1.1229  0.5866
  518MOL0     H69901  10.221   6.503   9.910  1.1794 -1.6552 -0.2279
  518MOL0     H69902  10.228   6.199   9.978 -0.1388 -0.7157 -0.9949
  518MOL0     H69903  10.307   6.265   9.839 -2.3378 -1.6589  0.0673
  518MOL0     H69904  10.355   6.370  10.124  0.8878 -4.3856  1.3738
  518MOL0     H69905  10.434   6.427   9.978 -1.4439  0.9526 -1.1526
  518MOL0     H69906  10.534   6.183   9.945  1.3000  0.2422  0.5985
  518MOL0     H69907  10.589   6.285  10.082  2.6031 -3.1617  2.4465
  518MOL0     H69908  10.386   6.069  10.110  2.0940 -0.7385 -4.6908
  518MOL0     H69909  10.462   6.153  10.252 -2.6750  0.5512 -0.2899
  518MOL0     H69910  10.673   6.080  10.200 -0.4302  1.4360 -0.3832
  518MOL0     H69911  10.625   5.995  10.055 -1.3365  0.4607 -0.0338
  518MOL0     H69912   9.653   6.549   9.612  0.0459 -0.1096  1.2028
  518MOL0     H69913   9.588   6.774   9.503 -0.0407 -5.2065 -2.2745
  518MOL0     H69914   9.757   7.119   9.139 -0.9090 -2.1704  2.3151
  518MOL0     H69915   9.731   7.347   9.062 -1.1627  0.1116  0.4175
  518MOL0     H69916  10.283   8.416   7.848 -2.1901  1.5531 -0.3081
  518MOL0     H69917  10.470   8.517   7.712 -1.2703 -1.4447  3.6053
  518MOL0     H69918  10.444   8.858   7.190 -1.6757 -1.1029  2.2916
  518MOL0     H69919  10.625   9.006   7.135 -0.8921 -0.5095  0.1979
  518MOL0     H69920  11.070   8.870   7.249  0.0191  0.5898  0.4756
  518MOL0     H69921  10.984   8.777   7.131  0.3957  0.8613 -0.7038
  518MOL0     H69922  11.037   8.923   6.966 -0.1464 -0.0019 -0.0896
  518MOL0     H69923  11.187   8.885   7.055  0.5233 -0.8933 -0.3679
  518MOL0     H69924  11.171   9.084   7.188  0.4000 -1.9606 -0.3072
  518MOL0     H69925  11.031   9.152   7.107  1.5910  1.2949  1.1796
  518MOL0     H69926  11.156   9.131   6.894 -1.2257 -3.2566  1.0950
  518MOL0     H69927  11.303   9.086   6.984  0.2409  0.3868 -0.4094
  518MOL0     H69928  11.261   9.515   7.017  2.6212  0.0582  2.8043
  518MOL0     H69929  10.887   8.788   7.386 -2.6212 -2.8321  3.0746
  518MOL0     H69930  10.712   8.666   7.485 -0.6003  2.5742  3.2364
  519MOL0     O69931   4.047   7.931   6.475  1.5865 -0.2160  0.0371
  519MOL0     C69932   4.119   7.831   6.448  0.1280  0.0648 -0.6630
  519MOL0     O69933   4.091   7.699   6.476 -0.1634 -0.3604 -0.2359
  519MOL0     C69934   3.979   7.674   6.555 -0.1787 -0.7320 -0.0957
  519MOL0     C69935   3.876   7.599   6.510  0.0787 -0.6774  0.2614
  519MOL0     C69936   3.776   7.566   6.596 -0.4546  0.4612  0.5042
  519MOL0     C69937   3.771   7.611   6.722 -0.0347 -0.5396  0.1232
  519MOL0     O69938   3.673   7.575   6.811  0.0004 -0.0894 -0.4058
  519MOL0     C69939   3.633   7.438   6.810 -0.7542  0.2282  1.0542
  519MOL0     C69940   3.666   7.380   6.953 -1.2240 -0.8844  0.6685
  519MOL0     C69941   3.814   7.389   7.001 -0.0266  0.4398  0.0841
  519MOL0     C69942   3.814   7.413   7.150 -0.4106 -0.7722 -0.8874
  519MOL0     C69943   3.920   7.323   7.222 -0.4356 -1.2142 -0.2570
  519MOL0     C69944   3.867   7.172   7.221  1.0210  0.1186  0.2500
  519MOL0     C69945   3.975   7.072   7.219  0.1081  0.6517 -0.8039
  519MOL0     C69946   4.020   7.037   7.069  0.2237 -0.0850 -0.5180
  519MOL0     N69947   4.134   6.950   7.066  0.2910 -0.0382 -0.0790
  519MOL0     C69948   4.259   6.976   7.124  0.0084 -0.8377  0.4178
  519MOL0     C69949   4.320   6.861   7.118 -0.3643 -0.0407 -0.6499
  519MOL0     C69950   4.459   6.825   7.160 -0.0868 -0.6683  0.3875
  519MOL0     C69951   4.548   6.831   7.040  0.1110  1.1434 -0.5062
  519MOL0     C69952   4.523   6.713   6.940 -0.5189  0.7961 -0.6478
  519MOL0     C69953   4.644   6.684   6.851 -1.4381 -0.1482  0.6003
  519MOL0     O69954   4.657   6.788   6.750 -0.4543 -0.1386 -0.1674
  519MOL0     C69955   4.700   6.745   6.627  0.6827 -0.6139  0.0451
  519MOL0     C69956   4.771   6.841   6.555  0.8681 -0.2753 -0.3588
  519MOL0     C69957   4.816   6.818   6.426  0.6883  0.1387 -0.0907
  519MOL0     C69958   4.874   6.932   6.354 -0.3012  0.2990  0.5975
  519MOL0     C69959   4.793   6.685   6.373 -0.4310  0.4463 -0.4953
  519MOL0     C69960   4.826   6.640   6.230  0.0489  0.5258 -0.9331
  519MOL0     O69961   4.786   6.513   6.199  0.1541 -0.8592 -1.2742
  519MOL0     C69962   4.851   6.463   6.092 -0.5052  0.3117  0.0769
  519MOL0     C69963   4.786   6.456   5.973 -1.0019  0.7056  0.3079
  519MOL0     C69964   4.847   6.421   5.853 -0.8313 -0.3954  0.0393
  519MOL0     C69965   4.975   6.365   5.864 -0.2125  0.4278  1.0041
  519MOL0     O69966   5.035   6.309   5.752  0.3847 -0.1074 -0.1422
  519MOL0     C69967   5.141   6.392   5.694 -0.4098  1.0515  0.0112
  519MOL0     C69968   5.130   6.396   5.543 -0.4023 -0.2343  0.4685
  519MOL0     C69969   5.025   6.494   5.504  0.4591 -0.3796  0.0302
  519MOL0     C69970   5.038   6.506   5.352 -0.1612 -0.2178  0.0257
  519MOL0     C69971   4.924   6.606   5.317  0.3380 -0.1099  0.4272
  519MOL0     C69972   4.921   6.653   5.174 -0.1546 -0.6261 -0.1760
  519MOL0     C69973   4.828   6.769   5.165  1.0439  0.0272  0.1430
  519MOL0     C69974   4.827   6.817   5.018  0.1661 -0.0617 -0.4158
  519MOL0    Cl69975   4.708   6.935   4.989 -0.3704 -0.1900 -0.2060
  519MOL0     C69976   5.045   6.368   5.981  0.2412 -0.1230  0.4980
  519MOL0     C69977   4.988   6.420   6.097 -0.1176  0.1660 -0.1518
  519MOL0     O69978   4.868   6.720   6.147  0.5399 -0.4875 -0.0322
  519MOL0     C69979   4.718   6.595   6.444 -0.2756 -0.1371 -0.2518
  519MOL0     C69980   4.665   6.622   6.572  0.1999  0.1297  0.2321
  519MOL0     N69981   4.246   6.768   7.044  0.3772  0.4489  0.5346
  519MOL0     N69982   4.125   6.824   7.022 -0.1645 -0.0342 -0.7616
  519MOL0     C69983   3.874   7.694   6.778 -0.0224  0.0389 -0.6971
  519MOL0     C69984   3.976   7.728   6.691 -0.4703 -0.7389  0.3414
  519MOL0     C69985   4.257   7.852   6.395 -0.2793  0.2180  0.3642
  519MOL0     C69986   4.311   7.979   6.376 -0.5775 -1.1118 -0.6973
  519MOL0     C69987   4.441   7.998   6.361 -0.7180 -0.4751  0.3825
  519MOL0     C69988   4.527   7.892   6.356 -0.0359 -0.0347 -0.3086
  519MOL0     O69989   4.656   7.913   6.330  0.2807 -0.3442  0.0639
  519MOL0     C69990   4.746   7.815   6.379 -0.5474  0.4379 -0.7690
  519MOL0     C69991   4.882   7.872   6.421  1.1616 -0.2699  0.0423
  519MOL0     C69992   4.872   7.996   6.521  0.2653  0.7701 -0.1172
  519MOL0     C69993   4.988   8.091   6.509  0.0415 -0.1367 -0.3714
  519MOL0     C69994   4.949   8.218   6.578  0.8946  1.2356 -0.3598
  519MOL0     C69995   4.918   8.328   6.628 -0.2170  0.6438  0.3125
  519MOL0     C69996   4.474   7.761   6.372 -0.6669 -0.6648 -0.6442
  519MOL0     C69997   4.343   7.740   6.387  0.3985  0.0093 -1.2516
  519MOL0     H69998   3.879   7.567   6.406  2.7145 -1.9612  0.6670
  519MOL0     H69999   3.711   7.484   6.567  0.3456 -0.5755  1.5652
  519MOL0     H70000   3.528   7.429   6.782 -1.3178 -0.6210  3.3047
  519MOL0     H70001   3.692   7.374   6.743 -0.1346  0.8177  1.0252
  519MOL0     H70002   3.589   7.415   7.022 -1.9318 -1.5162  0.2089
  519MOL0     H70003   3.648   7.272   6.945 -0.4890 -0.9653 -0.1109
  519MOL0     H70004   3.852   7.292   6.969 -3.1771  0.0476 -3.1445
  519MOL0     H70005   3.870   7.468   6.950 -2.6501  1.6074 -1.2419
  519MOL0     H70006   3.830   7.515   7.185 -1.2654 -1.7797  2.9603
  519MOL0     H70007   3.715   7.387   7.189  0.4272 -1.5888  0.7795
  519MOL0     H70008   4.010   7.324   7.160  1.7039  1.7238  2.5819
  519MOL0     H70009   3.936   7.354   7.325 -2.5692 -3.3225  0.7943
  519MOL0     H70010   3.807   7.158   7.312  1.8976  2.4756  1.2733
  519MOL0     H70011   3.807   7.156   7.131  0.7716  0.9156  0.2655
  519MOL0     H70012   4.059   7.096   7.286  2.2040 -2.6628 -1.9705
  519MOL0     H70013   3.940   6.975   7.255  1.3114 -0.5828 -2.7726
  519MOL0     H70014   4.049   7.131   7.021 -2.3463  0.2925 -1.5477
  519MOL0     H70015   3.943   6.990   7.006 -1.0162  0.6872  0.3772
  519MOL0     H70016   4.283   7.074   7.164  2.1949 -0.8755 -0.6972
  519MOL0     H70017   4.504   6.899   7.227  1.4368 -0.2289 -1.0627
  519MOL0     H70018   4.473   6.726   7.203 -0.8396 -0.7361  0.4817
  519MOL0     H70019   4.650   6.827   7.079 -0.9754  1.4177  2.6703
  519MOL0     H70020   4.538   6.920   6.977 -1.7921  0.3731 -1.3890
  519MOL0     H70021   4.435   6.723   6.875  0.1020  2.5349 -1.2864
  519MOL0     H70022   4.511   6.626   7.004  3.6548  0.3335 -0.2113
  519MOL0     H70023   4.646   6.580   6.817  2.1759  0.2374 -0.8246
  519MOL0     H70024   4.738   6.701   6.903 -2.1291  1.9856  1.2841
  519MOL0     H70025   4.786   6.937   6.605 -0.1009  0.2072 -0.9668
  519MOL0     H70026   4.886   7.018   6.421 -5.7460  0.5673  1.7502
  519MOL0     H70027   4.972   6.909   6.312 -0.3408  0.9147  0.1652
  519MOL0     H70028   4.803   6.965   6.278 -0.4207  2.3700  1.5428
  519MOL0     H70029   4.682   6.489   5.972 -1.6993 -1.3306  0.0721
  519MOL0     H70030   4.807   6.410   5.753  2.1140 -0.7315 -1.2228
  519MOL0     H70031   5.156   6.489   5.743  1.0809 -1.1422  4.4867
  519MOL0     H70032   5.231   6.332   5.712  0.8857  2.7451 -0.6450
  519MOL0     H70033   5.230   6.434   5.518  0.7219 -2.1124  1.8353
  519MOL0     H70034   5.117   6.303   5.486  2.1717  1.0132 -2.4825
  519MOL0     H70035   5.041   6.593   5.546  0.7012 -0.9105  1.2343
  519MOL0     H70036   4.929   6.455   5.538  1.9815 -1.9105  2.9455
  519MOL0     H70037   5.140   6.543   5.343  0.9462 -0.9709  5.7151
  519MOL0     H70038   5.017   6.414   5.296  1.1705  0.3517 -1.4696
  519MOL0     H70039   4.924   6.690   5.386 -1.9946  0.1865  0.1338
  519MOL0     H70040   4.827   6.558   5.336  0.3655 -0.4068 -0.1512
  519MOL0     H70041   5.018   6.698   5.156 -1.9809  4.3349  0.6892
  519MOL0     H70042   4.898   6.569   5.108  1.7809 -0.4618 -1.1140
  519MOL0     H70043   4.862   6.851   5.229 -0.8859  0.1785  1.0427
  519MOL0     H70044   4.726   6.751   5.202  1.2176 -1.6439 -0.1016
  519MOL0     H70045   4.797   6.731   4.958 -1.8165  0.8646 -0.8031
  519MOL0     H70046   4.927   6.849   4.988 -0.1385 -1.4623 -3.2632
  519MOL0     H70047   5.150   6.340   5.974 -0.0332 -1.3002  0.9129
  519MOL0     H70048   5.045   6.417   6.189 -1.2537  1.0716  0.6137
  519MOL0     H70049   4.699   6.497   6.401  2.5148  0.3276 -2.9460
  519MOL0     H70050   4.616   6.537   6.618 -0.3662  0.5780  0.4790
  519MOL0     H70051   3.862   7.715   6.883 -0.7515 -3.8737  0.1809
  519MOL0     H70052   4.062   7.788   6.719  0.5790 -2.8792  1.9670
  519MOL0     H70053   4.246   8.066   6.371  0.6448 -0.1079  0.0468
  519MOL0     H70054   4.477   8.099   6.349 -0.0858 -0.7720 -0.2971
  519MOL0     H70055   4.705   7.765   6.467 -0.0347  1.4518  0.0704
  519MOL0     H70056   4.770   7.740   6.303 -1.2721 -0.3067 -0.2827
  519MOL0     H70057   4.946   7.898   6.336 -0.8102  0.4278 -1.3116
  519MOL0     H70058   4.928   7.804   6.492  0.4949  1.1041  1.8707
  519MOL0     H70059   4.857   7.953   6.620 -0.2096 -0.7135 -0.7932
  519MOL0     H70060   4.789   8.058   6.486  1.5728  1.7224 -1.7143
  519MOL0     H70061   5.016   8.112   6.406  0.0893  0.2845 -0.2760
  519MOL0     H70062   5.061   8.022   6.553 -0.4510 -0.5559 -0.2010
  519MOL0     H70063   4.888   8.421   6.671 -0.2238  1.3461 -1.1562
  519MOL0     H70064   4.543   7.678   6.375 -0.0220 -0.1693 -1.4389
  519MOL0     H70065   4.306   7.638   6.388 -2.3371  0.9417 -0.4855
  520MOL0     O70066  10.684   1.866   3.648  0.2604 -0.9783 -0.1468
  520MOL0     C70067  10.696   1.949   3.558  1.2994  0.1324  1.4049
  520MOL0     O70068  10.760   2.072   3.565  0.8776 -0.1923  0.3013
  520MOL0     C70069  10.825   2.120   3.683  0.2518  0.0776  0.1483
  520MOL0     C70070  10.893   2.033   3.772 -0.0350 -0.0222 -0.6895
  520MOL0     C70071  10.939   2.081   3.895  0.3152 -1.1251 -0.4279
  520MOL0     C70072  10.929   2.218   3.921 -0.2554 -0.1116 -1.2847
  520MOL0     O70073  11.003   2.268   4.023  0.0264 -0.1235 -0.0104
  520MOL0     C70074  10.940   2.333   4.128 -0.1548  0.3508 -0.1491
  520MOL0     C70075  10.988   2.474   4.135 -0.5025 -0.4172 -0.3616
  520MOL0     C70076  10.984   2.529   4.281 -0.0794 -0.1738  0.7466
  520MOL0     C70077  10.838   2.558   4.325  0.6787 -0.0982 -0.1029
  520MOL0     C70078  10.818   2.578   4.481 -0.0009 -0.5910  0.3664
  520MOL0     C70079  10.671   2.626   4.515 -0.1678 -0.1830  0.2356
  520MOL0     C70080  10.655   2.658   4.666  0.5836 -1.0529  0.1595
  520MOL0     C70081  10.502   2.656   4.710 -0.5205 -0.1387  0.5438
  520MOL0     N70082  10.499   2.640   4.857  0.3740  0.2834  0.3207
  520MOL0     C70083  10.512   2.736   4.959  0.0645 -0.1567 -0.6949
  520MOL0     C70084  10.519   2.663   5.076  0.4722  0.2653  0.2776
  520MOL0     C70085  10.535   2.706   5.217 -0.3029  0.2364 -0.0924
  520MOL0     C70086  10.510   2.852   5.246  0.2794 -0.7618 -1.3164
  520MOL0     C70087  10.568   2.896   5.382 -0.0496 -0.1008 -1.3374
  520MOL0     C70088  10.479   2.849   5.504 -0.3946  0.2165 -0.3788
  520MOL0     O70089  10.540   2.902   5.626 -0.2432 -0.0441 -0.8849
  520MOL0     C70090  10.468   2.882   5.741  0.2388 -0.2885 -0.6847
  520MOL0     C70091  10.363   2.799   5.757 -0.1072 -1.1784  0.1687
  520MOL0     C70092  10.295   2.786   5.885  0.1711 -0.6782  0.3542
  520MOL0     C70093  10.181   2.686   5.890 -0.0133 -0.5312  1.3385
  520MOL0     C70094  10.347   2.858   5.997 -0.6729 -0.6747  0.8638
  520MOL0     C70095  10.289   2.874   6.129  0.0818  1.3586  0.2168
  520MOL0     O70096  10.337   2.967   6.214  0.5934  0.0235  0.6079
  520MOL0     C70097  10.247   3.026   6.300 -0.8609  0.4002 -0.1212
  520MOL0     C70098  10.173   3.140   6.261  0.3463 -0.0146 -0.1053
  520MOL0     C70099  10.109   3.222   6.360 -0.0969 -0.0822  0.2558
  520MOL0     C70100  10.115   3.184   6.499  0.6240  0.3344 -0.9263
  520MOL0     O70101  10.041   3.237   6.611  0.1068  0.3585  0.0805
  520MOL0     C70102   9.998   3.370   6.604  0.3064  0.1636 -0.5302
  520MOL0     C70103  10.007   3.417   6.744 -0.1282  0.2422  0.2745
  520MOL0     C70104   9.934   3.552   6.773  0.3529 -0.2429 -0.4031
  520MOL0     C70105   9.775   3.553   6.768 -0.8972 -0.7571 -0.0771
  520MOL0     C70106   9.707   3.502   6.900  0.0365  0.5766  0.4617
  520MOL0     C70107   9.749   3.591   7.021  0.9482  0.3459 -0.0425
  520MOL0     C70108   9.631   3.565   7.124 -1.2309  0.0391  0.5447
  520MOL0     C70109   9.645   3.660   7.245  0.7121  0.6271  0.1158
  520MOL0    Cl70110   9.527   3.649   7.379  0.6054 -0.1265  0.2943
  520MOL0     C70111  10.189   3.066   6.538  0.3477  0.0716 -1.0491
  520MOL0     C70112  10.246   2.984   6.437 -0.1129 -1.0986 -0.3278
  520MOL0     O70113  10.183   2.808   6.151 -0.0051  0.0836 -0.9954
  520MOL0     C70114  10.459   2.942   5.977 -0.6369  0.3145 -0.5397
  520MOL0     C70115  10.521   2.953   5.847  0.7443  0.0950 -0.9149
  520MOL0     N70116  10.504   2.533   5.042 -1.0355  0.2738  0.0409
  520MOL0     N70117  10.505   2.520   4.922  0.0353 -0.3423  0.4652
  520MOL0     C70118  10.875   2.305   3.826  0.5994  0.4104 -0.7624
  520MOL0     C70119  10.817   2.254   3.710  0.3847  0.1620 -0.3070
  520MOL0     C70120  10.623   1.913   3.433  0.3385 -0.3924  0.1910
  520MOL0     C70121  10.527   1.812   3.423  0.8097 -0.6333  0.4194
  520MOL0     C70122  10.469   1.771   3.302 -0.9911  0.6151 -0.6549
  520MOL0     C70123  10.501   1.856   3.195 -0.5280 -0.8033  0.4978
  520MOL0     O70124  10.464   1.829   3.065  0.2014 -0.0866 -1.1108
  520MOL0     C70125  10.369   1.734   3.032  0.4633 -0.3036 -1.0800
  520MOL0     C70126  10.431   1.596   3.018 -0.0799 -0.3682 -0.9365
  520MOL0     C70127  10.329   1.492   2.977  1.4402  0.3990 -1.0019
  520MOL0     C70128  10.346   1.411   2.847 -0.3058 -0.3967 -0.7666
  520MOL0     C70129  10.253   1.302   2.858  0.5353 -0.1271 -0.0586
  520MOL0     C70130  10.167   1.215   2.881 -0.3627 -0.2877 -0.6127
  520MOL0     C70131  10.586   1.959   3.203 -0.7624  1.4057 -0.2137
  520MOL0     C70132  10.651   1.984   3.323 -0.5915 -0.2080  0.6116
  520MOL0     H70133  10.884   1.928   3.744 -1.1626 -0.8219  2.3235
  520MOL0     H70134  10.992   2.014   3.963  1.3139  1.0501  1.0281
  520MOL0     H70135  10.831   2.325   4.133 -0.0692 -0.4552  0.8657
  520MOL0     H70136  10.977   2.278   4.215 -0.6096 -1.1646 -0.8763
  520MOL0     H70137  11.089   2.474   4.093 -0.0361 -1.1594  0.7040
  520MOL0     H70138  10.938   2.537   4.061  2.6342  2.7402 -0.0619
  520MOL0     H70139  11.024   2.452   4.347 -0.0237  0.6435  1.6932
  520MOL0     H70140  11.046   2.619   4.292 -0.4675  0.3189 -0.9011
  520MOL0     H70141  10.799   2.644   4.270 -0.3546  1.5662  2.9850
  520MOL0     H70142  10.776   2.469   4.309 -0.8834  1.0544 -0.8170
  520MOL0     H70143  10.848   2.496   4.547  0.1658  0.9204  2.2482
  520MOL0     H70144  10.895   2.652   4.504  1.3268 -1.9385  0.3781
  520MOL0     H70145  10.649   2.717   4.459  1.9735  0.5001  0.4236
  520MOL0     H70146  10.595   2.554   4.481 -1.0162 -0.0388  1.7482
  520MOL0     H70147  10.702   2.568   4.708  1.3321 -1.6264 -1.7680
  520MOL0     H70148  10.705   2.752   4.689  0.0802 -0.5970 -0.5667
  520MOL0     H70149  10.450   2.570   4.667  1.7637 -1.5246  0.4006
  520MOL0     H70150  10.447   2.747   4.686 -0.6085 -0.0911  0.9261
  520MOL0     H70151  10.509   2.844   4.948  0.6257 -0.2483 -1.8900
  520MOL0     H70152  10.461   2.655   5.280  0.3971 -2.3430 -1.2316
  520MOL0     H70153  10.632   2.664   5.245  0.5109  0.7504 -1.9940
  520MOL0     H70154  10.402   2.869   5.251  0.5564  0.8217  2.6862
  520MOL0     H70155  10.559   2.923   5.179  2.3967  0.4553  1.3253
  520MOL0     H70156  10.568   3.005   5.389 -1.5544 -0.1406 -0.3897
  520MOL0     H70157  10.673   2.863   5.390  0.2067  0.9590  0.0006
  520MOL0     H70158  10.484   2.740   5.507  0.9713  0.2830  1.5135
  520MOL0     H70159  10.377   2.887   5.486 -0.2100  0.7099 -0.3995
  520MOL0     H70160  10.320   2.757   5.666  1.2569  0.3495 -1.2476
  520MOL0     H70161  10.197   2.609   5.814  0.4578  0.2756  0.6052
  520MOL0     H70162  10.168   2.641   5.989 -2.7265 -0.3872  1.1338
  520MOL0     H70163  10.088   2.735   5.858  2.2595  2.4837 -1.2783
  520MOL0     H70164  10.180   3.172   6.158  1.6267 -3.0586 -1.0597
  520MOL0     H70165  10.044   3.308   6.347  1.8373  2.1204  3.6668
  520MOL0     H70166  10.053   3.431   6.532  3.4343 -0.7866  0.8927
  520MOL0     H70167   9.893   3.359   6.574 -0.0272  0.4334  0.4880
  520MOL0     H70168   9.955   3.354   6.817 -1.6979  3.3796  2.0745
  520MOL0     H70169  10.114   3.413   6.765 -0.8793 -2.0787  5.0242
  520MOL0     H70170   9.975   3.621   6.699 -1.3927  1.7902  0.4039
  520MOL0     H70171   9.965   3.594   6.869  0.5089 -0.9896 -0.1213
  520MOL0     H70172   9.759   3.661   6.765  2.0686 -0.2060  0.3583
  520MOL0     H70173   9.748   3.496   6.678  1.1122  0.5226 -1.5918
  520MOL0     H70174   9.720   3.394   6.909 -0.6329 -0.0256 -3.8432
  520MOL0     H70175   9.603   3.505   6.867  0.4198 -5.0393 -2.4482
  520MOL0     H70176   9.840   3.547   7.064  1.2309 -1.2153 -2.1083
  520MOL0     H70177   9.762   3.698   7.005  0.2506  0.4207 -0.1138
  520MOL0     H70178   9.625   3.465   7.167 -0.3809  0.0894  0.7976
  520MOL0     H70179   9.541   3.580   7.065 -2.4171 -1.4119  1.9161
  520MOL0     H70180   9.655   3.762   7.206 -0.2389  0.1204 -1.5851
  520MOL0     H70181   9.738   3.630   7.293  0.3381 -1.1349 -0.1610
  520MOL0     H70182  10.180   3.046   6.644  0.1661 -1.3759 -1.3185
  520MOL0     H70183  10.309   2.905   6.476  1.0767  0.9283  2.1924
  520MOL0     H70184  10.513   3.002   6.050  2.4060  0.1545 -2.4665
  520MOL0     H70185  10.612   3.012   5.849  1.0487 -0.3678 -1.0304
  520MOL0     H70186  10.892   2.411   3.841  0.1798  0.0254  4.4423
  520MOL0     H70187  10.769   2.315   3.633  2.0192 -3.0397 -4.2305
  520MOL0     H70188  10.486   1.771   3.514 -2.9416  2.0010  0.1716
  520MOL0     H70189  10.407   1.683   3.289  3.3431 -2.3475 -4.4040
  520MOL0     H70190  10.287   1.719   3.103  0.9447  0.6893 -0.2912
  520MOL0     H70191  10.313   1.767   2.944 -0.9428 -0.0037 -0.1012
  520MOL0     H70192  10.461   1.558   3.116 -1.5615 -0.5242 -0.5209
  520MOL0     H70193  10.509   1.599   2.941  0.0158 -2.8539 -1.0053
  520MOL0     H70194  10.233   1.543   2.968  0.2774 -1.6962 -1.2751
  520MOL0     H70195  10.325   1.418   3.058 -0.3030 -0.1216 -1.5187
  520MOL0     H70196  10.449   1.376   2.849  0.0551  0.5447 -1.8991
  520MOL0     H70197  10.319   1.467   2.757  0.1481  1.1651  0.0388
  520MOL0     H70198  10.080   1.153   2.889 -1.4019  1.0960 -0.6508
  520MOL0     H70199  10.602   2.016   3.111  0.9928  0.7624 -0.3383
  520MOL0     H70200  10.734   2.054   3.331 -1.0411  0.2171  1.7927
  521MOL0     O70201   4.245   0.873  10.850 -0.1715 -0.7905  0.3805
  521MOL0     C70202   4.335   0.905  10.769 -0.7709  0.3758  0.0977
  521MOL0     O70203   4.469   0.938  10.804  1.0393  0.1034 -0.6286
  521MOL0     C70204   4.529   0.951  10.929  0.2424 -0.4299 -0.2139
  521MOL0     C70205   4.465   0.959  11.047 -0.4589 -1.1047 -1.2054
  521MOL0     C70206   4.540   0.966  11.171  0.6161 -0.1534 -0.3602
  521MOL0     C70207   4.679   0.979  11.172  0.5903  0.2259 -0.0280
  521MOL0     O70208   4.740   1.010  11.282 -0.4199  0.5172  0.4137
  521MOL0     C70209   4.842   1.112  11.265 -0.2881 -0.4966 -0.3677
  521MOL0     C70210   4.915   1.141  11.396  0.0989 -0.5611  0.0159
  521MOL0     C70211   4.828   1.194  11.509 -0.2624  0.1220 -0.5002
  521MOL0     C70212   4.739   1.078  11.578 -0.1772  0.4184 -0.0733
  521MOL0     C70213   4.648   1.133  11.691 -0.0801 -0.5039  0.8254
  521MOL0     C70214   4.506   1.164  11.648  0.1447 -0.0419 -0.2222
  521MOL0     C70215   4.417   1.189  11.767  0.3081 -0.0303 -0.4432
  521MOL0     C70216   4.269   1.201  11.724  0.1685  0.6564 -0.5869
  521MOL0     N70217   4.212   1.100  11.625 -0.1075 -0.1743  0.2455
  521MOL0     C70218   4.240   1.096  11.497  0.0214  0.6724 -0.4566
  521MOL0     C70219   4.157   1.000  11.439  0.3391  0.2047 -0.4689
  521MOL0     C70220   4.129   0.964  11.296  0.5250 -0.1958 -0.4814
  521MOL0     C70221   4.045   0.832  11.278  0.5633 -1.2746 -0.6864
  521MOL0     C70222   4.151   0.724  11.251  0.0630 -0.2097 -0.0987
  521MOL0     C70223   4.088   0.590  11.223  0.7008 -0.1544 -0.4546
  521MOL0     O70224   4.197   0.507  11.210 -0.1625 -0.0280  0.0944
  521MOL0     C70225   4.170   0.378  11.239  0.4354  0.8962  0.1739
  521MOL0     C70226   4.055   0.304  11.201  0.0090 -0.1934 -0.0839
  521MOL0     C70227   4.013   0.177  11.246  0.2316  0.2322 -0.8606
  521MOL0     C70228   3.877   0.121  11.192  0.8454 -0.0885  0.2644
  521MOL0     C70229   4.092   0.121  11.344 -0.4350  0.3172 -0.2379
  521MOL0     C70230   4.057  -0.006  11.408  0.5396 -0.6092 -0.5866
  521MOL0     O70231   3.927  -0.059  11.400 -0.3817  0.4816  0.9257
  521MOL0     C70232   3.919  -0.191  11.420 -0.3599 -0.2350 -0.1446
  521MOL0     C70233   3.847  -0.254  11.529  0.5371 -0.7306  1.2194
  521MOL0     C70234   3.869  -0.390  11.557  0.1036 -0.0629  0.6003
  521MOL0     C70235   3.925  -0.472  11.460  0.2462  0.4882  0.7679
  521MOL0     O70236   3.937  -0.609  11.491 -0.1274 -0.0437  0.2848
  521MOL0     C70237   3.915  -0.712  11.396 -0.7724 -0.1401  0.3074
  521MOL0     C70238   4.054  -0.767  11.357 -0.4055 -0.5218  0.0770
  521MOL0     C70239   4.042  -0.904  11.303 -0.1787 -0.1211 -0.3163
  521MOL0     C70240   4.183  -0.967  11.294  0.0537 -0.2023  0.5854
  521MOL0     C70241   4.191  -1.095  11.206  0.4115 -0.0146  0.6426
  521MOL0     C70242   4.170  -1.054  11.058 -0.5818  1.6412  0.8713
  521MOL0     C70243   4.158  -1.183  10.967 -0.4468  0.1076  0.0198
  521MOL0     C70244   4.302  -1.245  10.951 -0.1126  1.2604  0.1055
  521MOL0    Cl70245   4.420  -1.127  10.875 -0.1408  0.5195 -0.0636
  521MOL0     C70246   3.980  -0.409  11.343 -0.3559 -0.0561  0.5615
  521MOL0     C70247   3.976  -0.271  11.329  0.1406 -1.3784  0.5350
  521MOL0     O70248   4.153  -0.070  11.455 -0.0638 -0.1439  0.0185
  521MOL0     C70249   4.213   0.189  11.390 -0.9800  0.1568 -0.1923
  521MOL0     C70250   4.246   0.319  11.339  0.9687  0.5361 -0.0766
  521MOL0     N70251   4.070   0.966  11.543  0.2388 -0.2102 -0.0691
  521MOL0     N70252   4.100   1.024  11.649  0.5859 -1.6173  0.1312
  521MOL0     C70253   4.738   0.977  11.048 -0.3569  1.0906  0.1960
  521MOL0     C70254   4.670   0.944  10.933  0.0892  0.0021  0.2184
  521MOL0     C70255   4.308   0.909  10.621 -0.7517 -0.0746  0.1623
  521MOL0     C70256   4.403   0.951  10.530 -1.1478  0.3318 -0.3095
  521MOL0     C70257   4.387   0.953  10.394  0.0718 -0.8460 -0.1431
  521MOL0     C70258   4.265   0.920  10.333 -0.2354  0.3976  0.0814
  521MOL0     O70259   4.246   0.920  10.194 -0.2119  0.5358  0.3830
  521MOL0     C70260   4.164   0.817  10.128 -0.8375  0.7296 -0.3585
  521MOL0     C70261   4.256   0.727  10.043  0.8516  0.0564 -0.0613
  521MOL0     C70262   4.172   0.604   9.986 -0.3966  0.0299  0.3357
  521MOL0     C70263   4.200   0.594   9.825 -0.2154 -0.0353  0.4049
  521MOL0     C70264   4.094   0.517   9.769 -0.8577  1.5013 -0.0816
  521MOL0     C70265   4.016   0.444   9.705 -0.1179 -0.0033 -0.8491
  521MOL0     C70266   4.162   0.880  10.427  0.4962  0.6198  0.0674
  521MOL0     C70267   4.184   0.878  10.562 -0.2171  0.8869 -1.1066
  521MOL0     H70268   4.359   0.943  11.063 -0.3091  1.1766  4.1703
  521MOL0     H70269   4.489   0.976  11.266  1.3533  0.6919 -0.0358
  521MOL0     H70270   4.930   1.076  11.211  0.6767 -1.2038  1.5707
  521MOL0     H70271   4.805   1.202  11.215 -2.2866 -0.8206  0.4356
  521MOL0     H70272   4.958   1.045  11.429 -3.3486 -1.9839  0.7950
  521MOL0     H70273   4.998   1.211  11.386 -0.4401  0.2436  1.0376
  521MOL0     H70274   4.899   1.231  11.583 -1.3466  0.9514  0.1576
  521MOL0     H70275   4.761   1.277  11.487  0.1306 -0.0795 -2.8135
  521MOL0     H70276   4.668   1.028  11.511 -0.1586  0.2344  0.0463
  521MOL0     H70277   4.804   0.998  11.614 -2.4111 -1.6773 -0.4256
  521MOL0     H70278   4.656   1.064  11.776  2.3466 -0.3715  0.7864
  521MOL0     H70279   4.689   1.226  11.731 -1.0832  0.5478 -0.4777
  521MOL0     H70280   4.503   1.239  11.568 -0.9092  0.7865  0.5685
  521MOL0     H70281   4.464   1.080  11.593 -1.0371  0.8893 -0.7821
  521MOL0     H70282   4.428   1.100  11.829  0.4262 -2.0651 -3.2038
  521MOL0     H70283   4.438   1.282  11.820  1.1549 -0.9606  0.8990
  521MOL0     H70284   4.250   1.301  11.685  0.7845  1.1782  0.3975
  521MOL0     H70285   4.205   1.193  11.813  0.2291  4.0556 -0.0831
  521MOL0     H70286   4.314   1.140  11.430  1.6373 -0.4763  0.5147
  521MOL0     H70287   4.063   1.039  11.252  0.7824  0.2399 -0.1309
  521MOL0     H70288   4.216   0.970  11.230 -0.3782  2.5882 -1.5614
  521MOL0     H70289   3.973   0.834  11.197  0.2723 -0.0907 -0.4181
  521MOL0     H70290   3.983   0.810  11.366  0.9873 -0.3722 -0.1438
  521MOL0     H70291   4.223   0.715  11.333  1.4897 -0.2631 -1.3240
  521MOL0     H70292   4.214   0.747  11.165  0.1032  1.0608  0.2557
  521MOL0     H70293   4.019   0.589  11.137  1.0602  0.0576 -0.7466
  521MOL0     H70294   4.038   0.565  11.317 -1.4013 -0.1139 -1.4891
  521MOL0     H70295   4.000   0.355  11.122  0.0062  0.1831  0.1589
  521MOL0     H70296   3.901   0.035  11.129 -3.8577 -1.4045 -0.0889
  521MOL0     H70297   3.808   0.090  11.271  1.7615 -2.3484  0.2456
  521MOL0     H70298   3.825   0.188  11.123 -1.4616 -1.3434  0.7128
  521MOL0     H70299   3.821  -0.181  11.605  1.7284 -0.9005  1.8166
  521MOL0     H70300   3.838  -0.431  11.652 -0.8023 -1.8221 -0.3948
  521MOL0     H70301   3.862  -0.794  11.444  0.0323 -1.2044 -0.5896
  521MOL0     H70302   3.879  -0.675  11.300  3.0988 -1.0750 -1.7271
  521MOL0     H70303   4.096  -0.690  11.291  2.4377 -0.3311  1.9530
  521MOL0     H70304   4.108  -0.757  11.451 -0.0808  2.6867 -0.3109
  521MOL0     H70305   3.994  -0.908  11.204  0.4850 -2.0100 -0.6131
  521MOL0     H70306   3.977  -0.968  11.363 -0.0497 -1.5880 -1.6587
  521MOL0     H70307   4.263  -0.900  11.263 -0.1154 -1.4890 -3.1745
  521MOL0     H70308   4.208  -1.002  11.395 -1.3832 -1.0532  0.6773
  521MOL0     H70309   4.104  -1.151  11.241 -0.1358  0.4777  0.0903
  521MOL0     H70310   4.287  -1.141  11.231  1.2949  1.6675  0.4492
  521MOL0     H70311   4.076  -1.000  11.041 -0.2416  1.7155 -1.0704
  521MOL0     H70312   4.249  -0.983  11.033  0.1952  0.5059 -0.0436
  521MOL0     H70313   4.125  -1.158  10.866  0.9657  1.2818 -0.1879
  521MOL0     H70314   4.093  -1.253  11.020  0.6196 -0.9277 -0.0051
  521MOL0     H70315   4.308  -1.343  10.903  0.9753  1.2940  0.1476
  521MOL0     H70316   4.342  -1.257  11.052  0.4896  1.5031 -0.0975
  521MOL0     H70317   4.023  -0.468  11.263 -1.1748 -1.8689  1.4006
  521MOL0     H70318   4.032  -0.234  11.243 -0.9129 -1.5497 -0.2494
  521MOL0     H70319   4.283   0.149  11.463 -1.4054 -1.0930 -0.4424
  521MOL0     H70320   4.341   0.365  11.365  1.2109 -0.0540  0.0887
  521MOL0     H70321   4.846   0.973  11.040 -0.3909  1.8140 -0.7335
  521MOL0     H70322   4.736   0.931  10.849 -0.3215  1.2191 -0.3229
  521MOL0     H70323   4.501   0.982  10.565 -1.0793  0.0468 -0.2489
  521MOL0     H70324   4.465   0.979  10.323  0.5530  0.5858  0.8708
  521MOL0     H70325   4.117   0.745  10.196 -0.0992 -1.1787 -1.7902
  521MOL0     H70326   4.075   0.861  10.083 -0.0029  0.8247 -1.9657
  521MOL0     H70327   4.339   0.682  10.098  0.8621 -1.4046 -1.1983
  521MOL0     H70328   4.296   0.776   9.954  0.9175 -3.3056 -2.0672
  521MOL0     H70329   4.065   0.614  10.006 -1.2672  0.1610 -3.4872
  521MOL0     H70330   4.191   0.506  10.030  3.0799 -0.5592 -2.0952
  521MOL0     H70331   4.288   0.532   9.802 -0.9730 -0.3556 -1.8981
  521MOL0     H70332   4.201   0.690   9.773 -2.8307 -2.0752 -4.0225
  521MOL0     H70333   3.958   0.369   9.655  1.0408 -1.6834  0.1916
  521MOL0     H70334   4.071   0.829  10.399 -0.1320  2.0834 -0.6741
  521MOL0     H70335   4.112   0.831  10.628 -1.8399 -0.6879 -3.7749
  522MOL0     O70336   3.019   4.931   1.514 -1.0283  0.6081 -0.1986
  522MOL0     C70337   3.105   4.910   1.595  0.4511 -0.4414 -1.5214
  522MOL0     O70338   3.238   4.900   1.580  0.1259 -0.2561  0.5767
  522MOL0     C70339   3.299   4.929   1.462  0.0706  1.1319  0.1862
  522MOL0     C70340   3.403   5.022   1.457  0.2485 -0.0370  0.0709
  522MOL0     C70341   3.470   5.057   1.346  0.8215 -0.1686 -0.4749
  522MOL0     C70342   3.434   4.991   1.227 -0.1269  0.2299 -0.6179
  522MOL0     O70343   3.484   5.022   1.104 -0.2395 -0.5478  0.0021
  522MOL0     C70344   3.613   5.095   1.091 -0.5052 -0.5146  0.2002
  522MOL0     C70345   3.731   5.009   1.144 -1.2298  0.9944  0.7193
  522MOL0     C70346   3.769   4.898   1.046 -0.4337  1.5647  0.2672
  522MOL0     C70347   3.913   4.845   1.071  0.6187 -0.8780 -0.3558
  522MOL0     C70348   3.944   4.737   0.968 -0.1700 -0.5871 -1.0808
  522MOL0     C70349   4.050   4.645   1.024  0.2070  0.4647 -0.8821
  522MOL0     C70350   4.041   4.505   0.956 -0.3998 -0.6268  0.1145
  522MOL0     C70351   4.083   4.498   0.810 -0.5591  0.0069  0.0360
  522MOL0     N70352   4.064   4.368   0.755  0.2144  0.3939  0.2547
  522MOL0     C70353   3.961   4.344   0.678  0.6223 -0.5682  0.1298
  522MOL0     C70354   3.956   4.215   0.643  0.1185  0.8609  0.2384
  522MOL0     C70355   3.866   4.145   0.546  0.3159  0.1924 -0.2894
  522MOL0     C70356   3.795   4.029   0.602  0.2627  0.5783 -0.0259
  522MOL0     C70357   3.879   3.906   0.624  0.6923  0.7096 -0.7168
  522MOL0     C70358   3.792   3.784   0.670  0.0584 -0.0352 -0.4076
  522MOL0     O70359   3.740   3.811   0.799 -0.6940  0.9571 -0.5761
  522MOL0     C70360   3.654   3.716   0.849 -1.2125 -0.7779  0.0427
  522MOL0     C70361   3.610   3.595   0.788  0.6405 -0.4860  1.0031
  522MOL0     C70362   3.504   3.516   0.843 -0.7180  0.3770 -0.6913
  522MOL0     C70363   3.447   3.405   0.764 -0.1095 -0.0670 -0.2480
  522MOL0     C70364   3.455   3.545   0.969  0.2861 -0.2524  0.2514
  522MOL0     C70365   3.345   3.474   1.033 -0.4102 -0.2921  0.0072
  522MOL0     O70366   3.361   3.344   1.071  0.1442 -0.5037  0.0155
  522MOL0     C70367   3.242   3.267   1.087  0.2244  1.1415  0.9925
  522MOL0     C70368   3.212   3.206   1.212  0.8789  0.5822 -0.6731
  522MOL0     C70369   3.109   3.113   1.235 -0.2104  0.0075  1.0643
  522MOL0     C70370   3.029   3.085   1.123 -0.1565 -0.1011 -0.0201
  522MOL0     O70371   2.916   3.006   1.127 -0.2641 -1.1130  0.4495
  522MOL0     C70372   2.855   2.994   1.252 -0.4227 -0.7422 -0.1498
  522MOL0     C70373   2.736   2.891   1.244 -0.2968  0.1298  0.2169
  522MOL0     C70374   2.768   2.752   1.181  0.1693 -0.0352 -0.7132
  522MOL0     C70375   2.645   2.657   1.168  0.2555  0.2608 -0.4110
  522MOL0     C70376   2.686   2.513   1.117 -0.6713 -0.9237 -0.5397
  522MOL0     C70377   2.559   2.433   1.082 -0.0680  0.0123  0.6590
  522MOL0     C70378   2.597   2.303   1.002  0.7605  0.4050  0.8558
  522MOL0     C70379   2.472   2.232   0.951 -0.6239  0.0235 -0.4769
  522MOL0    Cl70380   2.504   2.088   0.843  0.0556 -0.3073  0.3719
  522MOL0     C70381   3.069   3.128   0.998 -0.5025  0.9793 -0.1748
  522MOL0     C70382   3.168   3.226   0.979  0.9074  0.1013 -0.3020
  522MOL0     O70383   3.240   3.538   1.059 -0.2969 -0.3253 -0.0854
  522MOL0     C70384   3.500   3.662   1.031 -0.4031  0.6721 -0.3060
  522MOL0     C70385   3.597   3.746   0.969  0.4095  0.5191 -0.6569
  522MOL0     N70386   4.046   4.163   0.733  0.5758  0.0416 -0.3908
  522MOL0     N70387   4.105   4.249   0.804  0.8377 -0.0746 -0.1524
  522MOL0     C70388   3.334   4.897   1.222 -1.2219 -0.4033  0.7758
  522MOL0     C70389   3.265   4.856   1.336 -0.6778  0.3774  0.0633
  522MOL0     C70390   3.048   4.908   1.733  0.3761  0.1439  0.4206
  522MOL0     C70391   2.913   4.890   1.766 -0.2220 -0.5310 -0.6546
  522MOL0     C70392   2.883   4.887   1.904 -0.2024 -0.0509 -0.3842
  522MOL0     C70393   2.979   4.920   2.002 -0.3036  0.0819  0.5474
  522MOL0     O70394   2.951   4.919   2.137  0.6155 -0.0891 -0.7633
  522MOL0     C70395   2.838   4.838   2.190  0.1758 -0.1281 -0.7190
  522MOL0     C70396   2.707   4.917   2.197  0.1498 -0.2688 -0.1867
  522MOL0     C70397   2.580   4.830   2.227 -0.3809  0.9084  0.3966
  522MOL0     C70398   2.557   4.724   2.119 -0.4558  0.1650 -0.3884
  522MOL0     C70399   2.515   4.796   2.000  0.1156  0.4360  0.5240
  522MOL0     C70400   2.464   4.849   1.904 -0.1273 -0.5946 -0.5793
  522MOL0     C70401   3.109   4.955   1.966 -0.9421 -0.0928  0.3859
  522MOL0     C70402   3.136   4.931   1.835 -0.2302  0.7319 -0.0612
  522MOL0     H70403   3.438   5.068   1.549 -1.5822 -3.3635  2.6358
  522MOL0     H70404   3.540   5.140   1.349  0.9791 -0.3263  1.4428
  522MOL0     H70405   3.636   5.112   0.985 -0.0459 -0.4218  0.3151
  522MOL0     H70406   3.618   5.190   1.143 -0.6452 -0.4097  0.0225
  522MOL0     H70407   3.827   5.061   1.147 -0.6091  0.1960 -2.3055
  522MOL0     H70408   3.713   4.984   1.249 -1.7415  1.3592  0.7207
  522MOL0     H70409   3.696   4.817   1.055 -0.6305  1.9077  2.1638
  522MOL0     H70410   3.759   4.927   0.941 -1.3655 -0.1278 -0.1449
  522MOL0     H70411   3.976   4.931   1.045 -0.7577  0.5623  0.8613
  522MOL0     H70412   3.913   4.810   1.175 -1.5342  1.8607  0.6920
  522MOL0     H70413   3.853   4.687   0.935  0.0343  0.9514 -4.4010
  522MOL0     H70414   3.990   4.774   0.875  0.1692  4.8675  0.8814
  522MOL0     H70415   4.150   4.687   1.014  0.4377  0.3185  0.5712
  522MOL0     H70416   4.028   4.634   1.131 -0.8028  0.4055 -1.0856
  522MOL0     H70417   4.096   4.440   1.024 -0.9687  0.6824  1.8965
  522MOL0     H70418   3.937   4.471   0.963 -0.0232 -1.4933  1.8659
  522MOL0     H70419   4.188   4.528   0.803 -0.0178 -1.9437 -0.9785
  522MOL0     H70420   4.017   4.567   0.756  0.1566 -0.0752 -0.9793
  522MOL0     H70421   3.892   4.403   0.618  0.5858 -0.6316  0.1100
  522MOL0     H70422   3.794   4.222   0.516 -0.0452 -0.9032 -2.4656
  522MOL0     H70423   3.915   4.114   0.453 -1.5314  3.2856 -2.5002
  522MOL0     H70424   3.711   4.009   0.534  0.2172  4.6915 -1.4677
  522MOL0     H70425   3.759   4.055   0.702 -1.7160 -0.5805 -0.3919
  522MOL0     H70426   3.952   3.915   0.705 -1.1966  2.6975  0.8765
  522MOL0     H70427   3.934   3.865   0.539  2.7794 -0.2044  0.9520
  522MOL0     H70428   3.869   3.707   0.664  1.5580  1.1817  1.7461
  522MOL0     H70429   3.706   3.770   0.604 -1.3121 -1.1339  1.5003
  522MOL0     H70430   3.633   3.566   0.686 -0.8120  1.7913 -0.0515
  522MOL0     H70431   3.339   3.388   0.771 -0.0419 -0.0537  0.9324
  522MOL0     H70432   3.464   3.416   0.656 -0.1403 -1.6091 -0.4265
  522MOL0     H70433   3.489   3.312   0.803 -3.0844 -1.2223  0.4734
  522MOL0     H70434   3.279   3.210   1.297  1.0233 -6.0396  0.0698
  522MOL0     H70435   3.089   3.059   1.327  0.5069 -1.2677  0.5106
  522MOL0     H70436   2.925   2.948   1.322  1.4660  1.1149 -0.7293
  522MOL0     H70437   2.808   3.085   1.294 -1.4825 -1.2384 -0.2151
  522MOL0     H70438   2.689   2.863   1.339 -1.5187 -0.0581 -0.4138
  522MOL0     H70439   2.655   2.940   1.189  1.0713 -0.2175 -2.2674
  522MOL0     H70440   2.834   2.698   1.249  0.0161 -2.7285 -2.5223
  522MOL0     H70441   2.820   2.753   1.085 -1.0500  0.2074 -1.3935
  522MOL0     H70442   2.600   2.644   1.266  0.7162  1.1551 -0.0668
  522MOL0     H70443   2.571   2.693   1.095 -2.2958 -2.2066  0.8086
  522MOL0     H70444   2.748   2.468   1.194  1.7311  2.3643 -0.3661
  522MOL0     H70445   2.747   2.543   1.031 -2.3351  2.2670 -0.7375
  522MOL0     H70446   2.507   2.404   1.174 -0.8062  0.0453  0.2536
  522MOL0     H70447   2.488   2.491   1.023 -0.2263  1.1020  1.8865
  522MOL0     H70448   2.652   2.228   1.059 -2.0186 -2.3920  0.1541
  522MOL0     H70449   2.654   2.346   0.919  2.6821 -1.7482  0.9731
  522MOL0     H70450   2.419   2.307   0.891  2.7840  3.6107  0.5648
  522MOL0     H70451   2.408   2.197   1.032 -1.0098 -3.7321 -2.2068
  522MOL0     H70452   3.021   3.099   0.905 -2.6381  0.7616  0.9290
  522MOL0     H70453   3.178   3.274   0.882 -2.6329  1.5266 -0.1239
  522MOL0     H70454   3.468   3.695   1.129  2.1499  2.8541 -0.0939
  522MOL0     H70455   3.631   3.833   1.023 -1.1436  2.6793 -2.9320
  522MOL0     H70456   3.304   4.857   1.126  0.3341  0.6379 -0.2014
  522MOL0     H70457   3.192   4.777   1.322  1.1339 -1.1257 -1.7077
  522MOL0     H70458   2.847   4.860   1.686  0.9227  0.5340 -2.0649
  522MOL0     H70459   2.785   4.852   1.936  0.6659 -1.4800  0.8044
  522MOL0     H70460   2.828   4.757   2.118  3.5134 -1.3266 -0.0072
  522MOL0     H70461   2.863   4.783   2.281 -1.8071 -0.4382 -0.3029
  522MOL0     H70462   2.685   4.973   2.105 -0.1830  0.8833  0.5743
  522MOL0     H70463   2.709   4.993   2.276 -5.4133  1.9201 -1.6410
  522MOL0     H70464   2.490   4.891   2.239 -2.2184 -1.6541  0.7418
  522MOL0     H70465   2.599   4.793   2.328 -1.0749  2.8416  1.2759
  522MOL0     H70466   2.480   4.650   2.140 -0.1938 -0.2135 -0.7413
  522MOL0     H70467   2.642   4.660   2.093  0.7534  1.7957 -0.6191
  522MOL0     H70468   2.409   4.912   1.838  0.2352  1.3297  0.8620
  522MOL0     H70469   3.182   4.977   2.043 -0.3200 -4.4330  1.2661
  522MOL0     H70470   3.242   4.940   1.811 -0.2209 -1.7748 -1.2892
  523MOL0     O70471   7.883  10.930   9.871  0.0932  0.0426 -0.6370
  523MOL0     C70472   7.870  10.943   9.994 -0.2278  0.6579 -0.0293
  523MOL0     O70473   7.961  11.016  10.066  0.6910 -0.5328 -0.3572
  523MOL0     C70474   8.095  11.018  10.022  0.6070 -0.9482 -0.1240
  523MOL0     C70475   8.172  11.132  10.058 -0.0843  0.0441 -0.3222
  523MOL0     C70476   8.304  11.141  10.019  0.2071 -0.4977  0.6893
  523MOL0     C70477   8.363  11.040   9.945  0.5526 -0.1513  0.2743
  523MOL0     O70478   8.492  11.040   9.907 -0.2142  0.2050  0.5706
  523MOL0     C70479   8.589  11.067  10.012 -0.2518  0.4482 -0.0471
  523MOL0     C70480   8.666  11.193   9.990  1.2291 -0.0733  0.1181
  523MOL0     C70481   8.777  11.191   9.880 -0.1204 -0.6596 -0.2051
  523MOL0     C70482   8.870  11.318   9.906 -0.6456  0.0427  0.8698
  523MOL0     C70483   9.007  11.312   9.829 -0.1390  0.7105  0.3017
  523MOL0     C70484   9.078  11.446   9.850  0.4846 -0.5710 -0.8595
  523MOL0     C70485   9.229  11.440   9.905  0.7148 -0.6397  1.5004
  523MOL0     C70486   9.308  11.565   9.870 -0.4020 -0.4590  0.3195
  523MOL0     N70487   9.441  11.573   9.925  0.3417 -0.3784 -0.0679
  523MOL0     C70488   9.516  11.464   9.938 -0.5414  1.7190  1.0377
  523MOL0     C70489   9.631  11.505   9.994  0.1930 -0.7625  0.4325
  523MOL0     C70490   9.748  11.419  10.046 -0.1557 -0.0727  0.0619
  523MOL0     C70491   9.877  11.500  10.052  0.0335  0.7500 -0.3205
  523MOL0     C70492   9.970  11.439  10.153 -0.4865  0.3527  0.3577
  523MOL0     C70493  10.117  11.484  10.119 -0.2490  0.1965 -0.8156
  523MOL0     O70494  10.193  11.519  10.240  0.0782 -0.0071  0.1827
  523MOL0     C70495  10.234  11.427  10.330 -0.3281 -0.5841 -0.0370
  523MOL0     C70496  10.327  11.477  10.415 -0.2344  0.7571 -0.4497
  523MOL0     C70497  10.386  11.399  10.507  0.1224 -0.1797  0.5438
  523MOL0     C70498  10.487  11.469  10.586  0.5811 -0.4371  0.6454
  523MOL0     C70499  10.369  11.255  10.498 -0.2810 -0.2155 -0.1384
  523MOL0     C70500  10.447  11.153  10.561 -0.6127  0.5903 -1.3332
  523MOL0     O70501  10.398  11.029  10.562  0.4626  0.3366  0.3069
  523MOL0     C70502  10.480  10.931  10.590  0.0064 -0.1241 -0.2465
  523MOL0     C70503  10.534  10.865  10.487 -0.1088  0.4317 -0.1310
  523MOL0     C70504  10.634  10.768  10.501 -0.2782  0.8816 -0.6357
  523MOL0     C70505  10.672  10.735  10.640 -1.0767  0.8365  0.5689
  523MOL0     O70506  10.765  10.636  10.662  0.2439  0.3691 -0.4958
  523MOL0     C70507  10.906  10.686  10.662  0.0685 -0.5489  0.2880
  523MOL0     C70508  10.983  10.582  10.737 -0.9432 -0.7333 -0.2215
  523MOL0     C70509  11.004  10.599  10.888 -1.2911 -0.6132 -0.4000
  523MOL0     C70510  11.089  10.485  10.946  0.9439  0.1440 -0.4411
  523MOL0     C70511  11.061  10.476  11.098  0.6478 -0.3540 -0.3396
  523MOL0     C70512  11.142  10.359  11.156 -0.4522  0.2948 -0.3126
  523MOL0     C70513  11.299  10.390  11.166 -0.0554 -0.3890  0.9346
  523MOL0     C70514  11.371  10.320  11.289  0.5218  0.0982 -0.2699
  523MOL0    Cl70515  11.538  10.387  11.282 -0.0252 -0.4120 -0.1953
  523MOL0     C70516  10.609  10.797  10.747 -0.3075  0.6436  1.0838
  523MOL0     C70517  10.505  10.892  10.724 -1.1456 -0.1082  0.8291
  523MOL0     O70518  10.561  11.187  10.591 -0.5009  0.5541  0.2831
  523MOL0     C70519  10.266  11.214  10.415  0.9332  0.0132 -0.4937
  523MOL0     C70520  10.201  11.289  10.327 -0.5167 -0.9480 -0.2169
  523MOL0     N70521   9.627  11.651   9.992  0.4777  0.3265 -0.7046
  523MOL0     N70522   9.518  11.686   9.939 -0.5534 -0.5659  0.9981
  523MOL0     C70523   8.293  10.929   9.907  0.0866  0.6312  0.0438
  523MOL0     C70524   8.158  10.916   9.943  0.4473 -0.2300 -0.5413
  523MOL0     C70525   7.745  10.879  10.050 -0.0244  0.0709  0.6773
  523MOL0     C70526   7.730  10.845  10.186  0.3258  0.0753  0.5894
  523MOL0     C70527   7.609  10.794  10.227  0.2123  0.2370  0.0699
  523MOL0     C70528   7.496  10.786  10.146 -0.3933  1.0031  0.3929
  523MOL0     O70529   7.374  10.740  10.182 -0.4520 -0.0910 -0.3521
  523MOL0     C70530   7.326  10.780  10.306 -0.9805  0.2883 -0.8967
  523MOL0     C70531   7.174  10.783  10.310  0.0006  0.2503  0.6637
  523MOL0     C70532   7.138  10.633  10.327  0.5199 -0.6775  0.0898
  523MOL0     C70533   6.990  10.617  10.305  0.2992 -0.0792  0.2762
  523MOL0     C70534   6.919  10.697  10.408  0.4205  0.3422 -0.1777
  523MOL0     C70535   6.854  10.747  10.492  0.2937 -0.5764  0.1369
  523MOL0     C70536   7.515  10.820  10.010 -0.6336  0.5313 -0.2319
  523MOL0     C70537   7.638  10.861   9.962 -1.5963 -0.1177 -0.9869
  523MOL0     H70538   8.126  11.215  10.110 -0.8134  0.4412 -1.5671
  523MOL0     H70539   8.358  11.234  10.035  0.3798 -0.1692 -1.4027
  523MOL0     H70540   8.536  11.070  10.108 -2.3798 -2.1071 -1.0069
  523MOL0     H70541   8.662  10.988  10.030 -0.5865  0.5009  1.7179
  523MOL0     H70542   8.600  11.276   9.965  3.4362  1.0195 -2.5855
  523MOL0     H70543   8.701  11.221  10.090  0.5217 -1.2464  0.7115
  523MOL0     H70544   8.846  11.107   9.890  1.4520  0.3569 -1.8386
  523MOL0     H70545   8.743  11.174   9.777  0.1958 -1.4150 -0.1947
  523MOL0     H70546   8.809  11.408   9.894 -0.0096  0.3633 -0.0646
  523MOL0     H70547   8.897  11.318  10.012 -0.6002 -0.5380  0.8606
  523MOL0     H70548   9.076  11.235   9.864  1.4750  2.8239  2.0417
  523MOL0     H70549   8.987  11.292   9.723 -0.0867 -1.0230  0.5904
  523MOL0     H70550   9.082  11.501   9.756 -2.3018 -0.0693 -0.7899
  523MOL0     H70551   9.023  11.504   9.926  3.5573  0.8875  0.4076
  523MOL0     H70552   9.224  11.458  10.013 -3.5089  1.3351  1.1838
  523MOL0     H70553   9.281  11.349   9.872 -1.3392 -1.0683 -0.8420
  523MOL0     H70554   9.259  11.655   9.909  2.4188  0.7942  1.2357
  523MOL0     H70555   9.298  11.578   9.761  3.3259 -1.4666 -0.2803
  523MOL0     H70556   9.495  11.358   9.931 -0.1231  1.6442  0.8817
  523MOL0     H70557   9.725  11.393  10.149 -1.3957 -0.1271 -0.2090
  523MOL0     H70558   9.771  11.332   9.983 -0.0025 -1.2494  1.7027
  523MOL0     H70559   9.846  11.594  10.097 -1.4659  0.7762 -1.3053
  523MOL0     H70560   9.918  11.512   9.951  1.1663  0.0000  0.0380
  523MOL0     H70561   9.968  11.330  10.167  1.0068  0.4206  1.2730
  523MOL0     H70562   9.948  11.470  10.255 -0.7785  0.0697  0.3842
  523MOL0     H70563  10.124  11.568  10.050 -1.0030 -0.7670 -2.1237
  523MOL0     H70564  10.173  11.410  10.061  0.8421  1.0004 -0.8105
  523MOL0     H70565  10.376  11.572  10.397  1.6637 -0.0455  0.2054
  523MOL0     H70566  10.498  11.576  10.566  4.3222 -0.3295  2.3919
  523MOL0     H70567  10.452  11.459  10.689  0.6333 -1.4003  0.5807
  523MOL0     H70568  10.583  11.420  10.567  0.4739 -1.0160  1.5197
  523MOL0     H70569  10.492  10.886  10.389 -0.7972 -2.8315 -0.6451
  523MOL0     H70570  10.694  10.730  10.419  0.1515 -2.0226  0.8940
  523MOL0     H70571  10.949  10.696  10.562  1.9974  1.2861  1.2107
  523MOL0     H70572  10.907  10.791  10.693 -2.9321  0.7501 -3.2681
  523MOL0     H70573  10.951  10.478  10.724  3.8785 -2.4706 -0.3578
  523MOL0     H70574  11.089  10.584  10.707 -0.3266  3.0143  1.6262
  523MOL0     H70575  10.903  10.596  10.931 -0.7140  1.0062  1.1871
  523MOL0     H70576  11.052  10.694  10.911  0.1196 -1.3042 -0.4033
  523MOL0     H70577  11.043  10.399  10.897  1.0748 -2.0264  2.9520
  523MOL0     H70578  11.197  10.486  10.929  1.0490 -1.4157  0.0472
  523MOL0     H70579  10.955  10.456  11.114  0.4943 -0.4158 -1.3756
  523MOL0     H70580  11.095  10.567  11.147  0.6800 -0.8177  0.5084
  523MOL0     H70581  11.107  10.347  11.259  1.2235  2.9920  0.6609
  523MOL0     H70582  11.115  10.267  11.103 -1.6457  0.1096  0.5776
  523MOL0     H70583  11.310  10.499  11.163  0.4098 -0.4421  0.6542
  523MOL0     H70584  11.337  10.348  11.073 -0.7776  0.9862 -0.0272
  523MOL0     H70585  11.367  10.211  11.288 -3.1212 -0.1035  4.1362
  523MOL0     H70586  11.321  10.348  11.383 -0.0687  0.8710 -0.7998
  523MOL0     H70587  10.644  10.763  10.844 -2.8474 -3.1774  0.8910
  523MOL0     H70588  10.447  10.940  10.802  1.4513  0.9701  2.2528
  523MOL0     H70589  10.247  11.107  10.402 -0.6665 -0.0130  1.5214
  523MOL0     H70590  10.134  11.246  10.254 -3.2358  2.7040 -0.1469
  523MOL0     H70591   8.339  10.850   9.848 -0.7064 -0.1460  0.4413
  523MOL0     H70592   8.124  10.816   9.920 -0.8914 -1.0972  4.1389
  523MOL0     H70593   7.811  10.867  10.255  2.5825  1.1449 -2.2101
  523MOL0     H70594   7.614  10.770  10.333  3.4184 -0.1709 -0.0624
  523MOL0     H70595   7.372  10.725  10.388  0.8592 -1.3052 -2.8859
  523MOL0     H70596   7.352  10.886  10.320 -1.6459  0.0455  3.9167
  523MOL0     H70597   7.131  10.820  10.217 -0.6819 -0.2332  0.7808
  523MOL0     H70598   7.137  10.846  10.392 -1.3310  1.7563 -1.0141
  523MOL0     H70599   7.171  10.578  10.415 -1.8523 -3.7454 -0.7478
  523MOL0     H70600   7.180  10.576  10.244  5.2075 -0.8286  2.2514
  523MOL0     H70601   6.969  10.511  10.320 -0.1340  0.2379  2.2549
  523MOL0     H70602   6.955  10.644  10.205  2.3672 -0.8764 -0.7149
  523MOL0     H70603   6.783  10.782  10.564 -0.4229  1.4339 -1.4553
  523MOL0     H70604   7.439  10.806   9.934  0.6004  2.6561 -1.9814
  523MOL0     H70605   7.640  10.872   9.854 -0.4517  0.0739 -0.9538
  524MOL0     O70606   4.901   3.143   1.152  0.2330 -0.8741 -0.3351
  524MOL0     C70607   4.986   3.147   1.065  0.3090 -0.5325 -0.8835
  524MOL0     O70608   5.002   3.052   0.967  0.3633  0.6914  0.9593
  524MOL0     C70609   4.928   2.939   0.963 -0.6162 -0.2826 -0.9197
  524MOL0     C70610   4.940   2.854   1.064  0.7760  0.2306  0.4381
  524MOL0     C70611   4.863   2.735   1.058  0.4945 -0.2273  0.0755
  524MOL0     C70612   4.773   2.705   0.960 -0.2948 -0.1895 -0.0752
  524MOL0     O70613   4.699   2.594   0.979  0.7278 -0.3821 -0.2389
  524MOL0     C70614   4.596   2.562   0.874 -0.4631  0.0273  0.2949
  524MOL0     C70615   4.542   2.412   0.888 -1.3920 -0.2640  0.6286
  524MOL0     C70616   4.429   2.397   0.997  1.0870  0.9885  0.3347
  524MOL0     C70617   4.293   2.417   0.924  0.6576 -0.1909 -0.2159
  524MOL0     C70618   4.173   2.389   1.022 -0.4522  0.4171  0.0519
  524MOL0     C70619   4.047   2.403   0.937 -0.2598  0.1834  0.3489
  524MOL0     C70620   3.935   2.305   0.982 -0.4253  0.4897  0.3469
  524MOL0     C70621   3.798   2.319   0.918  0.3870 -0.5017 -0.1128
  524MOL0     N70622   3.780   2.209   0.830 -0.8212 -0.1955  0.3590
  524MOL0     C70623   3.832   2.208   0.698 -0.8123 -0.3118 -1.2885
  524MOL0     C70624   3.811   2.085   0.657 -0.4264  0.2298  0.0940
  524MOL0     C70625   3.868   2.017   0.536  0.0460 -0.4921  0.1769
  524MOL0     C70626   4.017   1.995   0.546  0.4301  0.1263  0.0874
  524MOL0     C70627   4.070   1.896   0.436 -0.0447  1.1783  0.2352
  524MOL0     C70628   4.215   1.874   0.459 -0.5524  0.6405  0.7610
  524MOL0     O70629   4.246   1.765   0.368  0.1266 -0.2627 -0.1084
  524MOL0     C70630   4.370   1.712   0.355 -0.1475  0.0752  0.8746
  524MOL0     C70631   4.395   1.643   0.233  0.8102  0.2176  0.3191
  524MOL0     C70632   4.518   1.580   0.210 -0.6640 -0.4428 -0.7148
  524MOL0     C70633   4.543   1.504   0.084 -1.0011 -1.2655  0.2359
  524MOL0     C70634   4.631   1.604   0.304  0.3845 -0.4098  0.1215
  524MOL0     C70635   4.767   1.540   0.287  0.0788  0.5949 -0.2261
  524MOL0     O70636   4.827   1.506   0.402 -0.2533 -0.6200  0.5393
  524MOL0     C70637   4.965   1.478   0.407  1.2164  0.2164 -0.5269
  524MOL0     C70638   5.033   1.523   0.516  0.1695  0.2538  0.0086
  524MOL0     C70639   5.172   1.504   0.526 -0.1235  0.4785 -0.3408
  524MOL0     C70640   5.245   1.446   0.414 -0.5901  0.2064  0.4724
  524MOL0     O70641   5.377   1.417   0.427 -0.4229  0.4556 -0.0829
  524MOL0     C70642   5.458   1.450   0.305  0.1763 -1.2968  0.2342
  524MOL0     C70643   5.597   1.484   0.347 -0.5749 -0.0116  0.3236
  524MOL0     C70644   5.682   1.520   0.229 -0.7308 -0.0260  0.0559
  524MOL0     C70645   5.805   1.605   0.270 -0.4442 -0.4552  0.4951
  524MOL0     C70646   5.930   1.561   0.202  1.4218  0.2275 -0.3375
  524MOL0     C70647   6.052   1.619   0.262 -0.5112 -0.0406 -0.5414
  524MOL0     C70648   6.174   1.552   0.214  1.0084 -1.0301 -0.3555
  524MOL0     C70649   6.298   1.623   0.284 -0.3158  0.2950 -0.9468
  524MOL0    Cl70650   6.342   1.795   0.239  0.1914 -0.0907  0.1211
  524MOL0     C70651   5.177   1.411   0.291 -0.4072  0.5458 -0.8233
  524MOL0     C70652   5.037   1.425   0.297  0.0223 -1.1187  0.1224
  524MOL0     O70653   4.821   1.538   0.172 -0.4913  0.7933 -0.1640
  524MOL0     C70654   4.599   1.678   0.417 -0.7401  0.9526 -0.0055
  524MOL0     C70655   4.478   1.737   0.443 -0.2626  0.1753  0.1044
  524MOL0     N70656   3.747   2.012   0.753  0.7618  1.2750 -1.3829
  524MOL0     N70657   3.732   2.086   0.855 -0.1969  0.0449 -0.1887
  524MOL0     C70658   4.752   2.810   0.854  0.3509 -0.2210 -0.3707
  524MOL0     C70659   4.837   2.922   0.858 -1.0572 -0.2610 -0.8468
  524MOL0     C70660   5.079   3.262   1.057 -0.1988  0.0353  0.0663
  524MOL0     C70661   5.066   3.375   1.143 -0.4902  0.4024  0.6912
  524MOL0     C70662   5.174   3.469   1.127 -0.2066  0.6399 -0.6821
  524MOL0     C70663   5.288   3.446   1.039  0.1058  0.1057 -0.4379
  524MOL0     O70664   5.396   3.533   1.046 -0.2086  0.0621 -0.6130
  524MOL0     C70665   5.503   3.522   0.953  0.2623 -0.1811 -0.3616
  524MOL0     C70666   5.592   3.640   0.982  0.3540 -0.9951 -0.2340
  524MOL0     C70667   5.534   3.779   0.935 -1.5006  0.0725  1.4161
  524MOL0     C70668   5.643   3.882   0.891 -0.8363  0.3781  0.2089
  524MOL0     C70669   5.764   3.884   0.980 -0.6773 -0.4261 -0.0617
  524MOL0     C70670   5.872   3.894   1.042  0.3157 -0.8677 -0.1662
  524MOL0     C70671   5.288   3.339   0.956  0.5508 -0.2658  0.0483
  524MOL0     C70672   5.180   3.251   0.960 -0.1653  0.3201 -0.6825
  524MOL0     H70673   5.000   2.872   1.152  0.7438 -0.4013  0.5926
  524MOL0     H70674   4.878   2.664   1.139  0.9094  1.5949  1.6722
  524MOL0     H70675   4.516   2.635   0.888 -1.2045 -0.7163 -0.0617
  524MOL0     H70676   4.623   2.575   0.769 -3.9401  2.3175 -0.4993
  524MOL0     H70677   4.500   2.375   0.794 -0.7571  1.3197 -0.3070
  524MOL0     H70678   4.626   2.350   0.920  0.1795  1.0878 -0.6717
  524MOL0     H70679   4.427   2.295   1.036 -1.0799  0.8722  0.0421
  524MOL0     H70680   4.442   2.465   1.082  0.1702  2.1342 -0.4018
  524MOL0     H70681   4.289   2.520   0.888  5.6999 -0.6509 -3.0358
  524MOL0     H70682   4.286   2.345   0.841  0.7026  0.1828 -0.5462
  524MOL0     H70683   4.175   2.283   1.050  1.7111 -0.6150 -3.4310
  524MOL0     H70684   4.180   2.463   1.103  1.7631  0.8801 -0.4819
  524MOL0     H70685   4.030   2.510   0.953  0.4053  0.2707  0.5221
  524MOL0     H70686   4.067   2.376   0.833 -1.6261 -5.6271  1.2318
  524MOL0     H70687   3.972   2.202   0.982 -2.4899 -0.3006  0.5181
  524MOL0     H70688   3.920   2.323   1.088  0.9438 -1.2322  0.8814
  524MOL0     H70689   3.794   2.416   0.866  1.3048  0.3425  1.3071
  524MOL0     H70690   3.714   2.317   0.987  0.2928 -3.4898 -0.1869
  524MOL0     H70691   3.900   2.277   0.648 -1.7798  0.6958 -1.2249
  524MOL0     H70692   3.810   1.927   0.517  1.0306 -0.9539 -0.7592
  524MOL0     H70693   3.861   2.082   0.449  0.5402  1.3439  1.4409
  524MOL0     H70694   4.050   1.960   0.644  1.5645 -2.1189 -1.0282
  524MOL0     H70695   4.063   2.092   0.523 -0.5453  0.1572 -1.9541
  524MOL0     H70696   4.043   1.939   0.339 -0.6017 -1.5207 -0.8947
  524MOL0     H70697   4.024   1.798   0.448  0.2166  0.6190 -2.7311
  524MOL0     H70698   4.230   1.841   0.562  0.3825  1.4092  0.8862
  524MOL0     H70699   4.278   1.961   0.439  1.6059 -1.2983 -1.6414
  524MOL0     H70700   4.315   1.626   0.162  0.2393 -3.7394  1.6761
  524MOL0     H70701   4.627   1.436   0.104 -1.5171 -1.5025  1.7308
  524MOL0     H70702   4.455   1.449   0.047 -1.5776 -0.1634 -0.0629
  524MOL0     H70703   4.565   1.563  -0.005 -4.7124  0.8900  0.5442
  524MOL0     H70704   4.993   1.584   0.597  2.0570  0.9334  0.4768
  524MOL0     H70705   5.220   1.542   0.616  1.6755 -0.0532 -1.0352
  524MOL0     H70706   5.451   1.369   0.232  1.2634 -1.7412  0.6011
  524MOL0     H70707   5.411   1.535   0.255 -1.2963 -0.1630  3.2477
  524MOL0     H70708   5.599   1.568   0.417  0.7157  0.6747 -0.4941
  524MOL0     H70709   5.632   1.399   0.407 -0.0403 -0.6371 -0.8353
  524MOL0     H70710   5.635   1.573   0.146 -0.1840 -0.0061 -0.2480
  524MOL0     H70711   5.724   1.422   0.203  0.4285  0.7539 -1.0926
  524MOL0     H70712   5.796   1.705   0.226 -2.5453 -1.5557 -1.8581
  524MOL0     H70713   5.810   1.607   0.379 -5.0434 -3.2346  1.0411
  524MOL0     H70714   5.923   1.585   0.095 -1.9521 -1.6977 -0.7018
  524MOL0     H70715   5.939   1.452   0.196 -0.0809  0.0817 -0.3693
  524MOL0     H70716   6.063   1.722   0.228  2.6926 -0.1757 -0.2652
  524MOL0     H70717   6.059   1.618   0.371  0.6018  3.0660 -0.4703
  524MOL0     H70718   6.195   1.555   0.106 -1.0540  2.1626 -0.7976
  524MOL0     H70719   6.173   1.448   0.249  0.8835 -1.2464 -0.9799
  524MOL0     H70720   6.381   1.557   0.258  0.2522  0.2704  0.7626
  524MOL0     H70721   6.286   1.621   0.393 -1.1086  2.8357 -0.9219
  524MOL0     H70722   5.208   1.375   0.194  0.2001  2.7362 -1.4985
  524MOL0     H70723   4.983   1.380   0.215 -0.4138  2.2500 -1.5856
  524MOL0     H70724   4.671   1.701   0.495 -2.7473 -0.8175  2.5430
  524MOL0     H70725   4.473   1.808   0.525  2.7393  0.3897  0.1876
  524MOL0     H70726   4.671   2.800   0.782  0.5558 -1.1970 -0.4846
  524MOL0     H70727   4.814   3.012   0.801  2.6924  1.5404  0.1576
  524MOL0     H70728   4.984   3.386   1.213  0.3908  0.1570  1.8057
  524MOL0     H70729   5.177   3.562   1.185 -1.6009  0.0964  0.3134
  524MOL0     H70730   5.555   3.427   0.972 -0.7581 -1.1453 -2.0711
  524MOL0     H70731   5.465   3.516   0.850 -2.5354  0.3576  0.5546
  524MOL0     H70732   5.690   3.633   0.935  1.9836  2.4707  2.2355
  524MOL0     H70733   5.617   3.632   1.089 -0.2172 -3.2963 -0.2123
  524MOL0     H70734   5.462   3.802   1.013 -2.2422  0.0229  0.7617
  524MOL0     H70735   5.490   3.759   0.836  3.3711 -2.2116 -0.6388
  524MOL0     H70736   5.602   3.983   0.885  0.6820  1.4512  4.5600
  524MOL0     H70737   5.678   3.869   0.788  0.2859  4.2658 -0.0460
  524MOL0     H70738   5.968   3.898   1.090  0.2828 -1.4864 -0.0400
  524MOL0     H70739   5.362   3.317   0.880  0.6405  0.0338  0.0498
  524MOL0     H70740   5.177   3.163   0.896 -2.5669 -0.9872  1.0712
  525MOL0     O70741  10.148   2.957   2.224 -0.0626  0.8258  1.0172
  525MOL0     C70742  10.128   2.844   2.272 -0.3351 -1.1888 -0.5457
  525MOL0     O70743  10.063   2.832   2.397 -0.4106  0.1054  0.0447
  525MOL0     C70744   9.990   2.939   2.436 -0.1978 -0.5733 -0.0643
  525MOL0     C70745  10.039   3.037   2.522  0.5467 -0.7351 -0.3173
  525MOL0     C70746   9.968   3.154   2.538 -1.0387 -1.1352 -1.0521
  525MOL0     C70747   9.850   3.183   2.471 -0.2640  0.9270  0.2862
  525MOL0     O70748   9.793   3.299   2.498  0.1924  0.1648 -0.5627
  525MOL0     C70749   9.659   3.298   2.522  0.5525 -0.1899  0.1943
  525MOL0     C70750   9.606   3.421   2.605 -0.7557  0.1620  0.6699
  525MOL0     C70751   9.678   3.551   2.550  0.2735 -0.0668 -0.3677
  525MOL0     C70752   9.650   3.665   2.642 -0.5921 -0.1705 -0.3167
  525MOL0     C70753   9.721   3.795   2.597 -0.3959  0.4612  0.4914
  525MOL0     C70754   9.685   3.846   2.454 -0.9963 -0.5926  0.3023
  525MOL0     C70755   9.700   3.991   2.421 -0.1828 -0.7135 -0.0229
  525MOL0     C70756   9.830   4.066   2.470 -0.0479 -0.3836 -0.1838
  525MOL0     N70757   9.840   4.184   2.380 -0.7746 -0.7801  0.2299
  525MOL0     C70758   9.890   4.178   2.253 -0.8324 -0.4012  0.1379
  525MOL0     C70759   9.868   4.295   2.203 -0.3190 -0.5088 -0.0636
  525MOL0     C70760   9.934   4.349   2.077 -0.2834 -0.8190 -1.1297
  525MOL0     C70761   9.866   4.295   1.949 -0.0105  0.8213  0.1197
  525MOL0     C70762   9.957   4.297   1.827 -0.0807  0.3039  0.7116
  525MOL0     C70763   9.991   4.442   1.775  0.3302  0.3080  0.0157
  525MOL0     O70764  10.102   4.498   1.834 -0.8242  0.3797  0.1531
  525MOL0     C70765  10.222   4.475   1.768  0.7801 -0.2361 -0.3440
  525MOL0     C70766  10.324   4.549   1.817 -0.1779  0.0703  0.7542
  525MOL0     C70767  10.464   4.526   1.802  0.6236  0.5752 -0.0734
  525MOL0     C70768  10.565   4.615   1.866  0.2672 -0.2218  0.1267
  525MOL0     C70769  10.494   4.437   1.692  0.1859  0.5894  0.9900
  525MOL0     C70770  10.626   4.412   1.645 -1.0560  0.7475  0.7755
  525MOL0     O70771  10.731   4.440   1.724 -0.1624 -0.8665 -0.4536
  525MOL0     C70772  10.853   4.412   1.676  1.5391 -1.2697  0.4344
  525MOL0     C70773  10.913   4.295   1.716  0.5006  0.0449  0.5969
  525MOL0     C70774  11.036   4.255   1.654  0.5930 -0.5329 -0.0064
  525MOL0     C70775  11.098   4.335   1.555  0.0517 -0.1709 -0.3616
  525MOL0     O70776  11.214   4.293   1.500 -0.2414 -0.1188  0.5353
  525MOL0     C70777  11.329   4.315   1.586 -0.3237  0.7026  0.0502
  525MOL0     C70778  11.464   4.271   1.524 -0.5225  0.0735 -0.6306
  525MOL0     C70779  11.590   4.296   1.613  0.2835  0.3292 -0.1721
  525MOL0     C70780  11.604   4.438   1.660 -0.9121 -0.2316 -0.1773
  525MOL0     C70781  11.735   4.455   1.747  0.2122  0.5712  0.8756
  525MOL0     C70782  11.695   4.422   1.894  1.0899 -0.9411  0.0859
  525MOL0     C70783  11.808   4.416   1.992 -0.3757 -0.0389 -0.7811
  525MOL0     C70784  11.780   4.383   2.140  1.3857 -0.3138  0.1575
  525MOL0    Cl70785  11.618   4.444   2.180  0.1510  0.0220  0.1593
  525MOL0     C70786  11.033   4.459   1.509  0.6230 -0.3646 -0.1032
  525MOL0     C70787  10.913   4.495   1.577 -0.7395 -0.2136  0.2458
  525MOL0     O70788  10.632   4.354   1.528 -0.4473 -0.5318 -0.2194
  525MOL0     C70789  10.380   4.368   1.622 -0.4520 -0.0456  0.0388
  525MOL0     C70790  10.251   4.393   1.663 -0.2813  0.2107 -0.6045
  525MOL0     N70791   9.814   4.379   2.296  0.1151  0.1233 -0.3024
  525MOL0     N70792   9.799   4.309   2.408  0.5283  0.0277 -0.1215
  525MOL0     C70793   9.789   3.081   2.397 -0.0282  0.6437 -0.3163
  525MOL0     C70794   9.855   2.961   2.384 -0.3368  0.5611  0.3170
  525MOL0     C70795  10.156   2.722   2.196 -0.2229  0.1395  0.0144
  525MOL0     C70796  10.198   2.726   2.070  0.0197  0.2793  1.4178
  525MOL0     C70797  10.221   2.621   1.981 -0.0580 -0.4746  0.7014
  525MOL0     C70798  10.229   2.493   2.033 -0.0814  0.0793  0.1397
  525MOL0     O70799  10.288   2.383   1.977  0.1065  0.1957  0.1268
  525MOL0     C70800  10.247   2.337   1.852  0.3546  1.1537 -0.7469
  525MOL0     C70801  10.137   2.219   1.862  0.0017 -0.5576 -1.0767
  525MOL0     C70802  10.046   2.233   1.743  0.5063 -0.3820  0.4792
  525MOL0     C70803  10.116   2.175   1.614  0.1954 -0.3300 -0.2586
  525MOL0     C70804  10.037   2.233   1.503 -0.0577 -0.3385 -0.3010
  525MOL0     C70805   9.989   2.289   1.409  0.6488 -0.0594  0.4998
  525MOL0     C70806  10.209   2.481   2.167  0.1910  0.3962  0.1853
  525MOL0     C70807  10.173   2.588   2.250 -0.8412 -0.4425 -0.2687
  525MOL0     H70808  10.136   3.025   2.569 -0.0735 -1.6883  0.7663
  525MOL0     H70809  10.018   3.235   2.591  0.8092 -3.2706  0.7159
  525MOL0     H70810   9.604   3.306   2.428  2.1463  0.6698 -0.6942
  525MOL0     H70811   9.612   3.213   2.573  1.6221 -1.2487 -0.5235
  525MOL0     H70812   9.500   3.430   2.581 -0.3053  1.6194 -0.9607
  525MOL0     H70813   9.634   3.397   2.708  2.5499 -0.2121 -0.1971
  525MOL0     H70814   9.784   3.530   2.535  0.3123  1.6446 -3.1893
  525MOL0     H70815   9.638   3.571   2.451 -0.1710 -1.6403 -0.5409
  525MOL0     H70816   9.543   3.687   2.652 -0.2231  0.7350  2.4144
  525MOL0     H70817   9.682   3.647   2.746 -0.5734  1.3338 -0.0415
  525MOL0     H70818   9.683   3.873   2.664 -0.1639  1.4666 -0.5146
  525MOL0     H70819   9.829   3.781   2.605 -0.5006  0.1415  1.3604
  525MOL0     H70820   9.750   3.793   2.385  1.7324 -0.0060  2.2531
  525MOL0     H70821   9.582   3.813   2.436 -1.3045 -0.0092  0.9191
  525MOL0     H70822   9.697   4.006   2.312  1.3532 -1.2446 -0.1601
  525MOL0     H70823   9.625   4.052   2.472  2.7890  1.0371  2.5984
  525MOL0     H70824   9.923   4.010   2.458 -0.6978 -1.7028  0.7104
  525MOL0     H70825   9.816   4.104   2.572  1.2821 -1.3990  0.3905
  525MOL0     H70826   9.949   4.099   2.208 -2.5503 -2.2740  0.9704
  525MOL0     H70827   9.947   4.458   2.082  0.7259 -0.9733  0.2558
  525MOL0     H70828  10.037   4.311   2.082  1.0375  2.4600 -0.7152
  525MOL0     H70829   9.776   4.356   1.937  0.3552  0.9707 -2.5786
  525MOL0     H70830   9.824   4.194   1.962  1.5429  0.0710 -0.4515
  525MOL0     H70831   9.903   4.230   1.759  1.7314 -1.1934  0.6463
  525MOL0     H70832  10.046   4.236   1.844 -0.1050  0.6029  2.0017
  525MOL0     H70833   9.913   4.507   1.815  2.4423  1.0328  3.3286
  525MOL0     H70834   9.996   4.439   1.666  0.6609  0.9658  0.0125
  525MOL0     H70835  10.301   4.637   1.877  0.2851 -0.2159  1.3604
  525MOL0     H70836  10.655   4.574   1.913  1.5135  2.3852  0.2250
  525MOL0     H70837  10.602   4.696   1.802 -2.1513  2.5269  1.9409
  525MOL0     H70838  10.517   4.673   1.946  4.1412 -2.9392  5.0101
  525MOL0     H70839  10.875   4.224   1.789 -0.4000 -1.1402 -0.9460
  525MOL0     H70840  11.082   4.165   1.693 -1.7387 -0.9494  2.0360
  525MOL0     H70841  11.337   4.419   1.619  2.2335  0.9527 -1.1329
  525MOL0     H70842  11.325   4.264   1.682  2.0495  1.3280  0.5486
  525MOL0     H70843  11.454   4.164   1.501 -0.7681  0.0418 -0.3706
  525MOL0     H70844  11.479   4.350   1.450  0.1668  2.9685  2.3571
  525MOL0     H70845  11.681   4.262   1.563  0.6462 -0.8530  1.2392
  525MOL0     H70846  11.587   4.225   1.695  0.8378 -0.6983 -1.0147
  525MOL0     H70847  11.621   4.492   1.567 -2.2863  0.8423  0.1611
  525MOL0     H70848  11.516   4.482   1.708 -1.0518 -1.8312  1.1514
  525MOL0     H70849  11.767   4.559   1.740 -0.3205  0.6623 -0.3887
  525MOL0     H70850  11.824   4.400   1.715 -0.3671 -0.0606  0.3139
  525MOL0     H70851  11.626   4.505   1.917  1.0012 -1.0185  0.1004
  525MOL0     H70852  11.633   4.332   1.901 -0.8136  0.4271  3.9653
  525MOL0     H70853  11.856   4.514   2.003 -0.2174 -0.3649  2.1922
  525MOL0     H70854  11.887   4.351   1.953 -0.0106 -1.6611  2.3725
  525MOL0     H70855  11.866   4.415   2.201  2.6602 -2.1001 -0.6071
  525MOL0     H70856  11.773   4.277   2.167 -0.5315 -0.2012  0.2631
  525MOL0     H70857  11.079   4.515   1.429  2.9292 -0.5239  1.0493
  525MOL0     H70858  10.851   4.577   1.541 -1.6606 -0.1668  1.8287
  525MOL0     H70859  10.391   4.294   1.544  2.9687 -0.9517  1.1974
  525MOL0     H70860  10.175   4.330   1.617 -1.4933  2.1287 -1.3755
  525MOL0     H70861   9.696   3.092   2.342  0.6838 -2.2820 -2.3408
  525MOL0     H70862   9.806   2.898   2.310 -2.8652  0.3371  2.0407
  525MOL0     H70863  10.206   2.824   2.025 -0.7544  0.7864  2.3614
  525MOL0     H70864  10.266   2.630   1.882 -0.1341 -1.1404  0.6025
  525MOL0     H70865  10.207   2.419   1.791  0.2298  0.6457 -1.3551
  525MOL0     H70866  10.339   2.307   1.801  2.8279  4.6987  1.1762
  525MOL0     H70867  10.079   2.236   1.953  1.4866 -1.2127  0.0271
  525MOL0     H70868  10.174   2.117   1.873 -1.4149 -1.0955 -1.1531
  525MOL0     H70869  10.016   2.335   1.718 -1.0901 -1.4187 -2.3728
  525MOL0     H70870   9.957   2.170   1.754 -1.0661  1.7289  0.3301
  525MOL0     H70871  10.126   2.066   1.618 -0.3161 -0.3539  0.7928
  525MOL0     H70872  10.219   2.212   1.620 -0.0802  0.2973  0.8714
  525MOL0     H70873   9.943   2.333   1.323 -1.9261 -0.1550  1.7410
  525MOL0     H70874  10.217   2.382   2.210  0.7434 -0.1577 -1.1265
  525MOL0     H70875  10.169   2.551   2.352 -1.2204 -1.8025 -0.7453
  526MOL0     O70876   1.572   8.313   2.328 -0.0686  0.0401 -0.1323
  526MOL0     C70877   1.498   8.338   2.232 -0.2964  0.4076  0.0716
  526MOL0     O70878   1.367   8.348   2.242 -0.3461 -0.2391 -0.4169
  526MOL0     C70879   1.299   8.327   2.352 -0.6485 -0.3098  0.4078
  526MOL0     C70880   1.298   8.208   2.420  0.1211 -0.0601 -0.7255
  526MOL0     C70881   1.225   8.204   2.542 -0.2894  0.7744  0.3722
  526MOL0     C70882   1.146   8.316   2.582  0.3289  0.2271  0.2930
  526MOL0     O70883   1.083   8.319   2.706 -0.3498 -0.3934  0.6217
  526MOL0     C70884   1.000   8.214   2.746  0.8968  0.2890 -0.2199
  526MOL0     C70885   0.904   8.273   2.838 -0.3346 -0.3310 -0.4645
  526MOL0     C70886   0.836   8.173   2.935  0.3679 -0.3211 -0.2536
  526MOL0     C70887   0.679   8.202   2.968 -0.5931  0.2569  0.7585
  526MOL0     C70888   0.630   8.140   3.098 -0.7262  0.2407 -0.1330
  526MOL0     C70889   0.640   7.992   3.105  0.1483  0.1203 -1.1977
  526MOL0     C70890   0.565   7.946   3.234 -0.5847  0.2392  0.7063
  526MOL0     C70891   0.645   7.979   3.362  0.8568  0.4216  0.6890
  526MOL0     N70892   0.576   7.917   3.481  0.2537 -0.7753 -0.4910
  526MOL0     C70893   0.518   7.976   3.591 -1.1383 -1.1947 -0.0609
  526MOL0     C70894   0.478   7.875   3.671 -0.5842  0.0604  1.1758
  526MOL0     C70895   0.433   7.877   3.809  0.1836 -0.3835  0.5262
  526MOL0     C70896   0.313   7.971   3.812 -0.3841  1.3107 -1.4193
  526MOL0     C70897   0.259   7.961   3.952 -0.5145 -0.7915 -0.3985
  526MOL0     C70898   0.129   8.037   3.998 -0.6600  0.2476  0.4413
  526MOL0     O70899   0.102   7.996   4.135  0.2661  0.4036  0.0456
  526MOL0     C70900  -0.015   7.923   4.148 -0.7397 -0.5385 -0.2826
  526MOL0     C70901  -0.055   7.825   4.060 -0.2654  0.3169  0.8825
  526MOL0     C70902  -0.169   7.743   4.085 -0.7151  0.0834 -0.7725
  526MOL0     C70903  -0.188   7.633   3.986 -0.6751 -0.6163 -0.5649
  526MOL0     C70904  -0.250   7.766   4.202 -0.1319 -1.4302  0.5713
  526MOL0     C70905  -0.373   7.696   4.241 -1.0203 -0.9889  0.6679
  526MOL0     O70906  -0.469   7.762   4.315 -0.7522 -0.8565  0.7644
  526MOL0     C70907  -0.551   7.679   4.393  0.0512  0.0004 -0.8066
  526MOL0     C70908  -0.549   7.695   4.530  0.1154 -0.7228 -0.9107
  526MOL0     C70909  -0.620   7.613   4.624  0.0937 -0.4644 -0.1653
  526MOL0     C70910  -0.693   7.509   4.571 -0.3332  0.2398 -0.7254
  526MOL0     O70911  -0.765   7.433   4.653  0.2078  0.6631 -0.8776
  526MOL0     C70912  -0.877   7.362   4.611 -0.4277  0.2866  0.0778
  526MOL0     C70913  -0.958   7.304   4.730  1.6047 -0.0434  1.1739
  526MOL0     C70914  -1.103   7.333   4.739  0.0990  0.7392  0.4916
  526MOL0     C70915  -1.151   7.479   4.700 -0.5863 -0.0022  0.2537
  526MOL0     C70916  -1.287   7.524   4.767  0.6400 -0.1679  0.9660
  526MOL0     C70917  -1.271   7.597   4.909 -0.1974 -1.0311 -0.5503
  526MOL0     C70918  -1.249   7.749   4.881 -0.3027 -1.1142 -0.2547
  526MOL0     C70919  -1.235   7.828   5.008  0.2612  0.3965  0.0085
  526MOL0    Cl70920  -1.066   7.858   5.068 -0.2316 -0.0687  0.0155
  526MOL0     C70921  -0.701   7.489   4.434 -0.7390 -1.1485 -0.2379
  526MOL0     C70922  -0.630   7.576   4.347  1.1834 -0.5139 -0.5838
  526MOL0     O70923  -0.381   7.579   4.217  0.1755  0.0946  0.1116
  526MOL0     C70924  -0.223   7.879   4.275 -0.6727 -0.4543  0.4595
  526MOL0     C70925  -0.100   7.956   4.252  0.1580  1.0919 -0.9565
  526MOL0     N70926   0.490   7.759   3.598 -0.5194  0.1795 -0.0529
  526MOL0     N70927   0.550   7.783   3.483  0.5557 -0.6241 -0.4130
  526MOL0     C70928   1.146   8.437   2.517 -0.3034  0.3909  1.2763
  526MOL0     C70929   1.228   8.439   2.391  0.0559 -1.0217  0.1733
  526MOL0     C70930   1.556   8.368   2.103  0.1823 -0.9092 -0.1974
  526MOL0     C70931   1.684   8.330   2.069  0.2690  0.3805  0.4440
  526MOL0     C70932   1.729   8.349   1.933  0.0408 -1.3339 -0.6627
  526MOL0     C70933   1.652   8.416   1.834  0.8834 -0.1779 -0.5517
  526MOL0     O70934   1.697   8.443   1.710 -0.1031 -0.1106 -0.8083
  526MOL0     C70935   1.828   8.412   1.669 -0.1886 -0.3089 -1.5297
  526MOL0     C70936   1.875   8.498   1.564  0.2116 -0.3012  0.1654
  526MOL0     C70937   1.785   8.511   1.442 -0.1759 -0.4321 -0.0328
  526MOL0     C70938   1.748   8.377   1.359  0.6485 -0.3818 -0.2525
  526MOL0     C70939   1.821   8.359   1.230  0.4344 -0.0638 -0.5687
  526MOL0     C70940   1.853   8.350   1.113  0.0540  0.5015 -0.8895
  526MOL0     C70941   1.524   8.454   1.873  0.9481  0.6699 -0.3282
  526MOL0     C70942   1.480   8.436   1.999 -0.0245 -0.9169  0.1507
  526MOL0     H70943   1.365   8.130   2.386  3.4232  2.7954 -1.3702
  526MOL0     H70944   1.245   8.106   2.584  3.2128  0.1213 -2.3245
  526MOL0     H70945   0.947   8.166   2.663 -2.1017  1.6676  0.7352
  526MOL0     H70946   1.067   8.144   2.796  1.1290  0.3278 -0.4696
  526MOL0     H70947   0.966   8.336   2.903  2.8556 -4.4276  0.9133
  526MOL0     H70948   0.819   8.324   2.792 -4.0205  0.2587  5.8044
  526MOL0     H70949   0.846   8.071   2.898 -1.2421  0.0921 -2.0355
  526MOL0     H70950   0.900   8.170   3.023  2.0334 -0.0525 -1.4220
  526MOL0     H70951   0.671   8.309   2.984 -0.2771  0.5342 -0.7953
  526MOL0     H70952   0.622   8.181   2.877  2.8341 -0.5263 -1.4002
  526MOL0     H70953   0.697   8.182   3.173  3.9642 -0.4079 -3.5508
  526MOL0     H70954   0.524   8.164   3.110 -1.4198 -1.7399 -1.7510
  526MOL0     H70955   0.574   7.958   3.025 -1.5454 -0.5888  0.4437
  526MOL0     H70956   0.744   7.959   3.111 -0.2743 -1.0086  1.1071
  526MOL0     H70957   0.467   7.992   3.245  1.2596  3.7523  5.9184
  526MOL0     H70958   0.562   7.837   3.221  1.1060  0.4996 -3.8352
  526MOL0     H70959   0.668   8.082   3.390  4.4055 -0.9491  3.5892
  526MOL0     H70960   0.749   7.945   3.354  0.2817 -1.5864  1.3069
  526MOL0     H70961   0.521   8.075   3.634 -1.1875  0.2279 -3.0754
  526MOL0     H70962   0.401   7.777   3.841 -1.3180  0.6490  2.5210
  526MOL0     H70963   0.512   7.917   3.874 -1.4176  1.7839  1.2639
  526MOL0     H70964   0.240   7.945   3.734 -4.5655  1.8817  1.9477
  526MOL0     H70965   0.335   8.075   3.789  0.1063  0.7230 -3.9800
  526MOL0     H70966   0.333   7.994   4.025 -0.9964 -1.1680  0.2721
  526MOL0     H70967   0.237   7.855   3.971 -0.4073 -0.6883  0.2940
  526MOL0     H70968   0.047   8.017   3.928  0.9923 -0.1538 -1.4751
  526MOL0     H70969   0.155   8.143   3.984  2.3085 -0.6359 -1.5954
  526MOL0     H70970  -0.005   7.815   3.965 -1.1131 -2.6513  0.6433
  526MOL0     H70971  -0.102   7.598   3.929 -1.4272 -1.9250 -0.9602
  526MOL0     H70972  -0.230   7.554   4.050 -2.8455  0.1586 -0.9229
  526MOL0     H70973  -0.280   7.648   3.927 -2.6879  0.4239  2.5914
  526MOL0     H70974  -0.487   7.780   4.556 -1.2381  0.3773 -1.1341
  526MOL0     H70975  -0.612   7.617   4.732  2.0187  3.6092 -0.2763
  526MOL0     H70976  -0.935   7.434   4.551  1.1945  1.2413 -0.4184
  526MOL0     H70977  -0.845   7.277   4.551 -0.6848  0.4562 -0.3073
  526MOL0     H70978  -0.942   7.196   4.721  2.0794  0.2026 -2.2884
  526MOL0     H70979  -0.916   7.330   4.828 -1.3391 -1.6779  3.0198
  526MOL0     H70980  -1.137   7.302   4.839  0.4803  0.8693  0.6631
  526MOL0     H70981  -1.141   7.270   4.658 -0.8451  2.2190 -0.2661
  526MOL0     H70982  -1.075   7.555   4.721  0.5393 -1.4712  1.7575
  526MOL0     H70983  -1.169   7.475   4.592 -0.5416  1.3664  0.1822
  526MOL0     H70984  -1.356   7.439   4.779  1.0850 -0.2774  3.0380
  526MOL0     H70985  -1.337   7.580   4.687 -0.1474 -2.0747  0.0609
  526MOL0     H70986  -1.362   7.576   4.967  0.3987 -0.8067  0.4886
  526MOL0     H70987  -1.187   7.560   4.968  0.0748 -1.8699 -1.4368
  526MOL0     H70988  -1.331   7.791   4.823  3.1149  2.1999 -3.2064
  526MOL0     H70989  -1.159   7.766   4.821  1.9725  0.2411  3.2182
  526MOL0     H70990  -1.282   7.777   5.092 -1.9361  1.4853 -0.5050
  526MOL0     H70991  -1.288   7.923   4.995  0.3066  0.2808 -1.0847
  526MOL0     H70992  -0.756   7.407   4.389  0.1054 -1.2491 -1.1179
  526MOL0     H70993  -0.646   7.563   4.241 -1.6154  0.1440 -0.3369
  526MOL0     H70994  -0.282   7.916   4.358 -0.4970  2.6330 -0.6550
  526MOL0     H70995  -0.074   8.026   4.331 -0.4064 -2.0165  2.2444
  526MOL0     H70996   1.089   8.517   2.562  1.3961  0.0625  4.3037
  526MOL0     H70997   1.229   8.518   2.316 -2.9991 -1.7922 -0.8135
  526MOL0     H70998   1.734   8.285   2.154  1.7070  2.1793  0.6336
  526MOL0     H70999   1.827   8.314   1.901  0.6032  0.1801 -0.6510
  526MOL0     H71000   1.905   8.421   1.746 -0.5014  2.9633 -1.4575
  526MOL0     H71001   1.826   8.313   1.623  0.1989 -1.6814  1.1998
  526MOL0     H71002   1.978   8.465   1.547  0.7915 -0.3331  3.0759
  526MOL0     H71003   1.864   8.600   1.603 -0.6781 -0.0795 -0.6446
  526MOL0     H71004   1.813   8.596   1.379  1.3318 -0.5074  0.4896
  526MOL0     H71005   1.687   8.540   1.482  0.7001  1.0416  1.1917
  526MOL0     H71006   1.643   8.372   1.331  0.7634 -2.6077 -0.4341
  526MOL0     H71007   1.755   8.281   1.412 -1.3356 -0.2890  0.2519
  526MOL0     H71008   1.892   8.318   1.018 -0.2447 -1.4229 -0.4020
  526MOL0     H71009   1.469   8.505   1.794 -0.1960 -1.4022 -0.9258
  526MOL0     H71010   1.385   8.484   2.019  0.5191 -0.4506  1.7095
  527MOL0     O71011   3.435   4.543   0.106  0.1903 -0.6758 -0.5631
  527MOL0     C71012   3.370   4.606   0.026 -0.3508  1.1531  0.3753
  527MOL0     O71013   3.303   4.726   0.061  0.0292 -0.3784 -0.5726
  527MOL0     C71014   3.302   4.760   0.201 -0.9640 -0.4377 -0.2790
  527MOL0     C71015   3.220   4.688   0.294 -1.1798 -0.0223 -0.3597
  527MOL0     C71016   3.221   4.732   0.428 -0.0224 -0.3763 -0.6302
  527MOL0     C71017   3.295   4.845   0.475  0.3553  0.5909  0.3602
  527MOL0     O71018   3.294   4.865   0.606  0.7655 -0.2991 -0.8276
  527MOL0     C71019   3.398   4.953   0.658 -0.0747  0.3546  0.1829
  527MOL0     C71020   3.442   4.901   0.799  1.0326 -0.4254  0.1874
  527MOL0     C71021   3.475   4.748   0.805 -0.1342  0.8405 -0.0130
  527MOL0     C71022   3.599   4.701   0.733  0.5327 -0.5287  0.0580
  527MOL0     C71023   3.654   4.559   0.763  0.7376 -0.4128 -0.0410
  527MOL0     C71024   3.552   4.446   0.734 -0.2092 -0.3548 -0.0478
  527MOL0     C71025   3.500   4.438   0.588 -0.5283  0.7548 -0.3815
  527MOL0     C71026   3.377   4.345   0.573 -0.8076 -1.2862 -0.2361
  527MOL0     N71027   3.420   4.208   0.595 -0.0008  0.2765 -0.9262
  527MOL0     C71028   3.414   4.147   0.720  0.8186  0.0653 -0.0308
  527MOL0     C71029   3.362   4.020   0.696 -0.2364 -0.3181  0.3266
  527MOL0     C71030   3.347   3.901   0.790 -0.4762  0.3547  0.2934
  527MOL0     C71031   3.211   3.832   0.774  0.1940 -0.3325 -0.3308
  527MOL0     C71032   3.096   3.939   0.791 -0.4711  0.6527 -0.3006
  527MOL0     C71033   2.960   3.882   0.776  0.3040  0.3628 -0.2630
  527MOL0     O71034   2.943   3.779   0.884  0.0419  0.4197  0.9146
  527MOL0     C71035   2.850   3.686   0.873 -0.6123  0.2310  0.4492
  527MOL0     C71036   2.741   3.702   0.791  0.5644  0.9223 -0.6392
  527MOL0     C71037   2.653   3.592   0.763  0.6224  0.4793  0.1933
  527MOL0     C71038   2.527   3.629   0.687  0.3264  0.4610  0.8809
  527MOL0     C71039   2.671   3.468   0.821  0.3597 -0.1586  0.5544
  527MOL0     C71040   2.586   3.349   0.807 -0.2330 -0.4607 -1.1721
  527MOL0     O71041   2.581   3.274   0.917  0.3754 -0.1949 -0.1676
  527MOL0     C71042   2.590   3.139   0.905  0.8622 -0.3462 -0.4487
  527MOL0     C71043   2.716   3.071   0.892 -0.7288 -0.0867  1.2659
  527MOL0     C71044   2.725   2.936   0.857 -0.1270  0.3335 -0.7747
  527MOL0     C71045   2.613   2.852   0.843 -0.5285 -0.2339 -1.1053
  527MOL0     O71046   2.627   2.721   0.796 -0.5686 -0.0467 -0.2250
  527MOL0     C71047   2.509   2.683   0.721  1.5193  0.3463  0.4405
  527MOL0     C71048   2.535   2.573   0.618  0.2595 -0.9332 -0.0519
  527MOL0     C71049   2.409   2.533   0.528 -0.3498  0.0316  0.9780
  527MOL0     C71050   2.442   2.444   0.407  0.1809 -0.4735 -0.1197
  527MOL0     C71051   2.310   2.415   0.337 -0.4100  0.8879  0.1541
  527MOL0     C71052   2.326   2.333   0.208 -0.8534 -0.0533  0.5534
  527MOL0     C71053   2.184   2.322   0.141  0.5156 -0.4491 -0.0327
  527MOL0     C71054   2.167   2.225   0.025 -0.4920  0.3922  0.4462
  527MOL0    Cl71055   2.217   2.287  -0.140 -0.1734  0.0181 -0.1332
  527MOL0     C71056   2.485   2.912   0.877  0.4650  0.0102  0.4877
  527MOL0     C71057   2.474   3.050   0.909  0.0092 -0.8942 -0.8223
  527MOL0     O71058   2.534   3.328   0.702 -0.2912 -0.3146 -0.6767
  527MOL0     C71059   2.784   3.454   0.906 -1.1633 -0.4444 -1.2638
  527MOL0     C71060   2.865   3.559   0.934  1.2701 -0.5507 -0.0649
  527MOL0     N71061   3.356   4.006   0.560 -0.0408 -0.6586  0.6625
  527MOL0     N71062   3.395   4.116   0.501  0.0850  0.1105 -0.5490
  527MOL0     C71063   3.368   4.918   0.378  0.3065  0.5173 -0.6285
  527MOL0     C71064   3.362   4.876   0.246  0.4703 -0.2591  1.3498
  527MOL0     C71065   3.340   4.553  -0.117 -0.4264 -0.0819 -0.8208
  527MOL0     C71066   3.208   4.555  -0.164  0.7170  0.7430 -0.3345
  527MOL0     C71067   3.176   4.524  -0.293  0.1404  0.2739 -0.1124
  527MOL0     C71068   3.277   4.485  -0.382  0.2852 -0.8714 -0.1848
  527MOL0     O71069   3.251   4.446  -0.510  0.2107  0.4597 -0.3114
  527MOL0     C71070   3.292   4.531  -0.623 -0.1724  0.0823 -0.0449
  527MOL0     C71071   3.166   4.583  -0.696 -0.7945  0.6930 -0.3822
  527MOL0     C71072   3.177   4.631  -0.835 -0.2548 -0.5481  1.0221
  527MOL0     C71073   3.051   4.676  -0.892 -0.1522 -0.0607 -0.8205
  527MOL0     C71074   3.008   4.805  -0.831 -0.6577  0.5237 -0.5287
  527MOL0     C71075   2.975   4.914  -0.789  0.1399  0.4029  0.2973
  527MOL0     C71076   3.405   4.465  -0.332 -0.2442 -0.2993  0.8025
  527MOL0     C71077   3.439   4.498  -0.203 -0.6574 -0.0050 -1.0066
  527MOL0     H71078   3.155   4.605   0.273  0.8963 -2.0497  0.7757
  527MOL0     H71079   3.173   4.662   0.496 -0.1555 -0.9384 -1.2927
  527MOL0     H71080   3.494   4.949   0.606  2.3852 -0.2378  4.3307
  527MOL0     H71081   3.374   5.057   0.678  0.2367  0.9032 -2.0893
  527MOL0     H71082   3.538   4.950   0.816  1.6139 -0.4840 -2.4717
  527MOL0     H71083   3.363   4.930   0.869  0.0657  0.2021 -1.1322
  527MOL0     H71084   3.497   4.729   0.910  0.3227 -0.1663 -0.2807
  527MOL0     H71085   3.388   4.688   0.777  0.7577 -0.6115  0.2263
  527MOL0     H71086   3.573   4.716   0.628  0.4952 -3.4820 -0.4335
  527MOL0     H71087   3.671   4.776   0.766  0.3940 -1.4979  2.8579
  527MOL0     H71088   3.747   4.539   0.709 -0.2767 -0.9184 -1.6782
  527MOL0     H71089   3.672   4.555   0.871  0.1185  1.7343  0.1951
  527MOL0     H71090   3.597   4.355   0.774  1.1438 -0.3236 -1.4106
  527MOL0     H71091   3.466   4.466   0.799 -0.6650  2.4508 -1.3353
  527MOL0     H71092   3.481   4.536   0.541 -1.6253  1.6478  1.7904
  527MOL0     H71093   3.578   4.398   0.522 -1.4375  1.9082 -2.2537
  527MOL0     H71094   3.352   4.360   0.467  1.2938 -3.5030 -1.1490
  527MOL0     H71095   3.293   4.379   0.634  1.2213  0.8051  1.6024
  527MOL0     H71096   3.437   4.183   0.820 -2.9627 -0.1691  1.0702
  527MOL0     H71097   3.423   3.825   0.772  0.4394  0.4087  3.3559
  527MOL0     H71098   3.358   3.928   0.895 -1.9686 -2.2812  1.2094
  527MOL0     H71099   3.209   3.755   0.852 -0.2244 -0.4786 -0.4851
  527MOL0     H71100   3.206   3.792   0.673  1.8791 -0.6882 -0.2994
  527MOL0     H71101   3.122   4.019   0.721  1.9097 -1.7191 -2.3906
  527MOL0     H71102   3.105   3.984   0.890 -1.9715 -0.6727  0.4910
  527MOL0     H71103   2.939   3.847   0.675  0.8905  3.6008 -1.6251
  527MOL0     H71104   2.892   3.966   0.794 -0.2974 -0.3038  0.6679
  527MOL0     H71105   2.715   3.800   0.753  1.7676  0.1840 -3.6800
  527MOL0     H71106   2.537   3.588   0.586  0.1130  3.2256 -0.3727
  527MOL0     H71107   2.440   3.582   0.734  1.1658 -1.0269  0.9966
  527MOL0     H71108   2.500   3.735   0.674  0.5454  0.4466  0.3078
  527MOL0     H71109   2.808   3.119   0.925 -0.2697 -1.3679  1.9072
  527MOL0     H71110   2.819   2.884   0.843  4.0513  5.1027  4.5392
  527MOL0     H71111   2.428   2.663   0.792  1.6812  0.0600  0.5453
  527MOL0     H71112   2.479   2.774   0.669 -1.1832 -0.3414  0.6360
  527MOL0     H71113   2.620   2.598   0.554 -0.0745  0.2857 -0.0380
  527MOL0     H71114   2.552   2.491   0.688 -0.5073  1.8500  3.6973
  527MOL0     H71115   2.358   2.618   0.484 -1.5884 -0.7425  0.8612
  527MOL0     H71116   2.331   2.489   0.592 -4.4153  1.6068 -2.4212
  527MOL0     H71117   2.507   2.501   0.340 -1.5395  2.9049  0.8834
  527MOL0     H71118   2.492   2.351   0.438  0.0591 -0.3606  0.4254
  527MOL0     H71119   2.261   2.508   0.308 -1.9125 -0.2165 -1.0141
  527MOL0     H71120   2.237   2.376   0.409 -1.3669  2.3241  0.0017
  527MOL0     H71121   2.403   2.373   0.142 -0.1639  2.0291  2.5196
  527MOL0     H71122   2.359   2.233   0.240 -2.6072 -0.2554  1.9267
  527MOL0     H71123   2.144   2.414   0.096  0.0194 -1.3009 -1.4178
  527MOL0     H71124   2.111   2.293   0.217  2.7991  2.2299  3.5181
  527MOL0     H71125   2.059   2.209   0.018 -0.4704  0.6715 -0.7549
  527MOL0     H71126   2.224   2.132   0.035 -0.6278  0.0064 -1.7727
  527MOL0     H71127   2.398   2.848   0.890 -0.7271  1.4493 -0.0676
  527MOL0     H71128   2.379   3.102   0.917  0.5073 -0.1240  0.6774
  527MOL0     H71129   2.811   3.355   0.940 -2.8575 -0.3925  0.3821
  527MOL0     H71130   2.944   3.543   1.007  0.2914  1.7443  1.6346
  527MOL0     H71131   3.410   5.011   0.415 -2.1351  0.0191  4.3329
  527MOL0     H71132   3.415   4.929   0.169 -3.2947  1.0087 -0.6143
  527MOL0     H71133   3.130   4.606  -0.109  1.4045  1.0721  0.3704
  527MOL0     H71134   3.075   4.536  -0.330 -1.0929 -0.7146  2.6778
  527MOL0     H71135   3.359   4.610  -0.587  2.5295 -1.9017 -0.4059
  527MOL0     H71136   3.346   4.470  -0.696  1.0020  0.5506  0.4053
  527MOL0     H71137   3.144   4.669  -0.633 -1.7802  0.2126 -0.0614
  527MOL0     H71138   3.087   4.511  -0.673  0.3935 -1.0551 -1.5350
  527MOL0     H71139   3.212   4.554  -0.904 -2.1567 -2.3723  2.0007
  527MOL0     H71140   3.250   4.711  -0.849 -0.3943 -0.3454  1.4219
  527MOL0     H71141   2.969   4.611  -0.859  1.9104 -2.3831  0.0084
  527MOL0     H71142   3.051   4.678  -1.001  1.7447  3.3117 -0.8751
  527MOL0     H71143   2.948   5.014  -0.761  0.6821  0.7361 -0.3221
  527MOL0     H71144   3.475   4.406  -0.391 -1.3126 -1.8338  1.0042
  527MOL0     H71145   3.542   4.469  -0.187  0.5179  2.6396 -3.1239
  528MOL0     O71146   1.741   6.025  11.478  0.1706 -0.3611  0.0446
  528MOL0     C71147   1.821   5.944  11.523 -0.0587 -0.3975 -0.7120
  528MOL0     O71148   1.955   5.954  11.499 -0.4808  0.0624  0.0075
  528MOL0     C71149   1.989   6.052  11.405 -0.0168  0.6634 -0.2110
  528MOL0     C71150   2.070   6.161  11.436 -0.2179  1.0811  0.7283
  528MOL0     C71151   2.112   6.237  11.325 -0.1262  0.5795 -0.1657
  528MOL0     C71152   2.081   6.210  11.192 -0.1252  0.0555 -0.7664
  528MOL0     O71153   2.121   6.304  11.107  0.4372 -0.5963 -0.0917
  528MOL0     C71154   2.080   6.291  10.969 -0.8177 -0.1667  0.3202
  528MOL0     C71155   2.145   6.420  10.900 -0.0522 -0.1793  0.2995
  528MOL0     C71156   2.296   6.422  10.911 -0.6491 -0.7643 -0.4092
  528MOL0     C71157   2.345   6.560  10.852  0.1516 -0.3771 -0.1233
  528MOL0     C71158   2.359   6.559  10.700  0.1087 -0.0339  0.2611
  528MOL0     C71159   2.423   6.677  10.632 -0.0090  0.0930  0.2331
  528MOL0     C71160   2.341   6.802  10.647  0.2217  0.3191  0.2445
  528MOL0     C71161   2.410   6.933  10.620  0.8165  1.0596  0.0621
  528MOL0     N71162   2.443   6.944  10.473 -0.3080  0.3102  0.3519
  528MOL0     C71163   2.560   6.908  10.402 -0.7517  0.4447 -0.2392
  528MOL0     C71164   2.533   6.939  10.266 -0.1715 -0.5977  0.1774
  528MOL0     C71165   2.624   6.893  10.153 -0.9562  1.2560  0.1427
  528MOL0     C71166   2.662   7.014  10.074 -0.2485 -0.3202  0.9492
  528MOL0     C71167   2.739   6.983   9.939 -0.1202 -1.3601 -0.3936
  528MOL0     C71168   2.865   6.895   9.958  0.3078 -0.2361  0.3968
  528MOL0     O71169   2.962   6.964  10.023  0.9818  0.3486 -0.6902
  528MOL0     C71170   3.002   6.922  10.145  0.3382  0.4093  0.3382
  528MOL0     C71171   2.985   7.007  10.255  0.3155 -0.0323 -0.2178
  528MOL0     C71172   3.028   6.966  10.383  0.2230  0.5668  0.4385
  528MOL0     C71173   3.017   7.070  10.486 -0.5739  0.3495 -0.7044
  528MOL0     C71174   3.099   6.843  10.411  0.9297  0.4709  0.4065
  528MOL0     C71175   3.133   6.783  10.546 -0.9807 -0.2567 -0.3848
  528MOL0     O71176   3.076   6.844  10.661  0.3954  0.3063 -0.0977
  528MOL0     C71177   3.123   6.789  10.777  0.0937 -0.1176 -0.0991
  528MOL0     C71178   3.039   6.695  10.842  0.0671  0.9958  0.8343
  528MOL0     C71179   3.096   6.620  10.948 -0.3501 -0.4278 -1.1283
  528MOL0     C71180   3.221   6.652  11.004 -0.2443  0.7878  1.4754
  528MOL0     O71181   3.264   6.566  11.101 -0.8906 -0.2818 -0.0200
  528MOL0     C71182   3.369   6.604  11.187  0.5239  0.2008  0.5732
  528MOL0     C71183   3.317   6.691  11.296 -0.9338 -0.2083 -0.6306
  528MOL0     C71184   3.438   6.763  11.358  0.0824  1.1600 -0.3837
  528MOL0     C71185   3.467   6.895  11.293 -0.2826 -0.9255  0.4162
  528MOL0     C71186   3.592   6.955  11.353  0.1439 -0.5796  0.0978
  528MOL0     C71187   3.585   7.033  11.489 -0.1650  0.1949 -0.3264
  528MOL0     C71188   3.456   7.100  11.523 -0.1927 -0.5308  0.4283
  528MOL0     C71189   3.449   7.241  11.456 -0.5984 -0.2615  0.4123
  528MOL0    Cl71190   3.297   7.312  11.519 -0.5071 -0.3500  0.3318
  528MOL0     C71191   3.291   6.749  10.941  0.0261 -1.0748  0.3510
  528MOL0     C71192   3.251   6.819  10.826  0.5434 -0.6745 -0.5112
  528MOL0     O71193   3.193   6.681  10.538 -0.3545 -0.0940 -0.5845
  528MOL0     C71194   3.115   6.759  10.297 -0.3667  0.5322 -0.2203
  528MOL0     C71195   3.062   6.792  10.168  0.7570  0.1071 -0.5204
  528MOL0     N71196   2.408   6.993  10.248  0.5573 -0.4478  0.0296
  528MOL0     N71197   2.361   7.000  10.370  0.0418  0.3883 -0.0713
  528MOL0     C71198   2.007   6.093  11.165 -0.1910 -0.5290  0.3070
  528MOL0     C71199   1.960   6.015  11.273 -0.2512  0.0475 -0.0617
  528MOL0     C71200   1.774   5.826  11.610  1.0101  0.7309 -0.4865
  528MOL0     C71201   1.638   5.830  11.648 -0.3990  0.0645  0.2723
  528MOL0     C71202   1.589   5.741  11.737 -0.1540  0.2434 -1.1765
  528MOL0     C71203   1.665   5.636  11.776 -0.8397 -0.2972 -0.0172
  528MOL0     O71204   1.605   5.554  11.870  0.1068 -0.1674 -0.0749
  528MOL0     C71205   1.689   5.444  11.923 -0.3650  0.0675 -0.1753
  528MOL0     C71206   1.616   5.367  12.030 -0.1461 -0.4746  0.3814
  528MOL0     C71207   1.489   5.291  11.986  0.2001  0.5640  0.7454
  528MOL0     C71208   1.410   5.253  12.108 -0.6791  0.5852 -0.0431
  528MOL0     C71209   1.299   5.170  12.071 -0.2078  0.7282  0.7021
  528MOL0     C71210   1.211   5.098  12.041  0.2253 -0.0773 -0.5210
  528MOL0     C71211   1.805   5.633  11.742 -0.2317 -0.1376 -1.1227
  528MOL0     C71212   1.857   5.730  11.660 -0.3972  0.2889 -0.0265
  528MOL0     H71213   2.094   6.196  11.536  0.3885  1.5291  0.4295
  528MOL0     H71214   2.177   6.322  11.343  1.2076 -0.5071  0.3938
  528MOL0     H71215   2.133   6.205  10.927  2.0353  0.6843  1.9584
  528MOL0     H71216   1.971   6.287  10.965 -0.9556  1.9373  0.7812
  528MOL0     H71217   2.117   6.418  10.794  1.0917  2.2268 -0.0967
  528MOL0     H71218   2.099   6.501  10.956  2.5526 -0.6317  3.2998
  528MOL0     H71219   2.338   6.398  11.009 -1.7769  0.7018  0.4789
  528MOL0     H71220   2.329   6.344  10.842 -0.1535 -0.9762  0.0557
  528MOL0     H71221   2.285   6.644  10.888 -1.6195 -0.8885 -1.7085
  528MOL0     H71222   2.448   6.569  10.887 -0.0437  2.2299 -0.0787
  528MOL0     H71223   2.400   6.462  10.671 -1.0002 -0.7444  0.9863
  528MOL0     H71224   2.254   6.547  10.672 -0.5783 -0.7700  2.8855
  528MOL0     H71225   2.522   6.695  10.675  2.1440 -2.6799 -2.9970
  528MOL0     H71226   2.441   6.640  10.531  1.8173 -0.5521  0.7596
  528MOL0     H71227   2.258   6.807  10.576 -1.3560 -1.2686  1.8872
  528MOL0     H71228   2.288   6.796  10.742  1.9955 -0.1382  1.2482
  528MOL0     H71229   2.505   6.946  10.674  2.8749  3.1950 -3.6169
  528MOL0     H71230   2.352   7.020  10.651  0.6378  1.5847 -1.6055
  528MOL0     H71231   2.644   6.852  10.440 -0.4607  0.0259 -1.4563
  528MOL0     H71232   2.708   6.837  10.194 -2.4044 -0.4254  0.9693
  528MOL0     H71233   2.563   6.826  10.091 -2.9173  1.4245  1.7650
  528MOL0     H71234   2.712   7.078  10.148 -2.1539 -1.2640  3.1620
  528MOL0     H71235   2.569   7.061  10.041 -0.0707 -3.3520 -5.4725
  528MOL0     H71236   2.767   7.080   9.898  0.6186 -0.3568  2.2387
  528MOL0     H71237   2.664   6.934   9.877 -1.1845  0.6744 -0.7783
  528MOL0     H71238   2.894   6.875   9.854 -0.6495 -0.5304  0.1709
  528MOL0     H71239   2.846   6.804  10.014  0.1633 -0.8083 -0.5553
  528MOL0     H71240   2.945   7.107  10.242 -0.8924 -0.3554  0.7959
  528MOL0     H71241   3.110   7.081  10.545  0.6542  0.4320 -2.5749
  528MOL0     H71242   2.983   7.168  10.451 -1.4228  0.7717  1.1497
  528MOL0     H71243   2.943   7.035  10.558  1.1339 -1.7568  0.1500
  528MOL0     H71244   2.941   6.693  10.794  1.6120  0.1182 -2.5867
  528MOL0     H71245   3.048   6.535  10.996 -0.9661  1.0499  1.0282
  528MOL0     H71246   3.409   6.514  11.236  1.8567  1.2638  1.5066
  528MOL0     H71247   3.447   6.660  11.136 -1.9816  4.2228  0.7306
  528MOL0     H71248   3.252   6.773  11.261  2.4761  3.6678  1.2758
  528MOL0     H71249   3.258   6.651  11.379  1.2165  4.3946  3.6733
  528MOL0     H71250   3.527   6.699  11.357 -0.9057 -0.2765 -0.7553
  528MOL0     H71251   3.418   6.778  11.464 -2.7314 -1.4084 -0.4205
  528MOL0     H71252   3.507   6.864  11.196 -0.8680 -3.8565  1.0099
  528MOL0     H71253   3.383   6.963  11.302  0.4515 -0.0369  0.6986
  528MOL0     H71254   3.642   7.025  11.285  2.3450 -1.1646  1.0243
  528MOL0     H71255   3.658   6.869  11.372 -2.4170 -2.8202 -0.6402
  528MOL0     H71256   3.594   6.955  11.565 -2.6763 -0.3723 -0.5496
  528MOL0     H71257   3.676   7.094  11.493 -0.5051  0.6559  0.7467
  528MOL0     H71258   3.463   7.124  11.630  1.7067 -3.1815  0.9991
  528MOL0     H71259   3.382   7.025  11.494 -1.3952  0.4519  0.8746
  528MOL0     H71260   3.432   7.226  11.349 -3.9733  1.9881  0.5074
  528MOL0     H71261   3.529   7.306  11.494 -2.3092  0.9806  2.0593
  528MOL0     H71262   3.384   6.789  10.982 -0.2797 -0.2693  0.2914
  528MOL0     H71263   3.305   6.905  10.788  0.7205 -1.4052 -1.9495
  528MOL0     H71264   3.161   6.660  10.297 -0.1967  0.6113 -0.0543
  528MOL0     H71265   3.087   6.717  10.093  0.4490 -0.7509  0.2253
  528MOL0     H71266   1.990   6.068  11.061 -0.9966  1.8165 -0.1905
  528MOL0     H71267   1.908   5.920  11.265  1.4414 -1.0100  0.9885
  528MOL0     H71268   1.565   5.899  11.607 -1.8694 -0.7528  1.4439
  528MOL0     H71269   1.486   5.760  11.765 -0.4188 -0.9264 -1.3081
  528MOL0     H71270   1.705   5.375  11.840 -0.1999 -1.4842  1.1121
  528MOL0     H71271   1.787   5.477  11.962 -0.5011 -1.0894  1.2501
  528MOL0     H71272   1.599   5.435  12.114  0.0729 -0.6483  0.5686
  528MOL0     H71273   1.686   5.292  12.068  2.8566  2.3477  0.9651
  528MOL0     H71274   1.521   5.202  11.933 -0.6388 -0.0391  1.2363
  528MOL0     H71275   1.427   5.352  11.919  0.9106  1.5407  0.9439
  528MOL0     H71276   1.367   5.333  12.169 -1.7309 -0.5827  0.7877
  528MOL0     H71277   1.481   5.206  12.177  0.7216  3.1745  0.4163
  528MOL0     H71278   1.125   5.039  12.015 -1.4793  1.8687  0.4269
  528MOL0     H71279   1.870   5.562  11.792 -1.7197  0.2574  1.5908
  528MOL0     H71280   1.964   5.737  11.641 -0.8280 -0.0983 -2.9951
  529MOL0     O71281   1.326  11.363   2.471 -0.0940 -0.3476  0.7316
  529MOL0     C71282   1.212  11.406   2.448 -0.8064  0.5048  0.2495
  529MOL0     O71283   1.113  11.414   2.544  0.4189 -0.3972  1.1555
  529MOL0     C71284   1.145  11.377   2.671 -0.9503 -0.3485 -0.1345
  529MOL0     C71285   1.091  11.262   2.734 -0.5222  0.5401  0.2411
  529MOL0     C71286   1.146  11.223   2.861 -0.0639 -0.3608  0.1325
  529MOL0     C71287   1.222  11.314   2.935  0.5214  0.6417  0.2649
  529MOL0     O71288   1.259  11.294   3.066 -0.0257 -0.6357  0.6395
  529MOL0     C71289   1.212  11.170   3.135 -0.3199  0.1230  0.2886
  529MOL0     C71290   1.295  11.129   3.252  0.5693 -0.5449 -0.3069
  529MOL0     C71291   1.303  11.221   3.370  0.4639 -0.4472  0.1416
  529MOL0     C71292   1.178  11.241   3.457 -0.3087 -0.5189  0.7874
  529MOL0     C71293   1.180  11.371   3.537 -0.2880 -0.3463  0.2561
  529MOL0     C71294   1.053  11.365   3.614  0.2597 -0.3979  0.8084
  529MOL0     C71295   1.042  11.479   3.711  0.2377  0.0873 -1.0934
  529MOL0     C71296   1.112  11.467   3.841 -0.2016  0.2351 -0.7225
  529MOL0     N71297   1.031  11.421   3.962 -0.2477 -0.1932 -0.0765
  529MOL0     C71298   0.910  11.354   3.961 -0.0564 -0.4343  0.5333
  529MOL0     C71299   0.864  11.331   4.090  0.0964  0.2189 -0.2695
  529MOL0     C71300   0.745  11.259   4.140 -0.4105  0.5919  0.1935
  529MOL0     C71301   0.759  11.109   4.114  0.0706 -0.1420 -0.6968
  529MOL0     C71302   0.634  11.033   4.169 -0.2575 -0.2684 -0.4454
  529MOL0     C71303   0.632  11.014   4.322 -0.1441 -0.6638  0.0174
  529MOL0     O71304   0.730  10.930   4.360  0.4480 -0.0060 -0.1140
  529MOL0     C71305   0.716  10.872   4.477 -0.2771  0.3602 -1.0682
  529MOL0     C71306   0.671  10.742   4.511 -0.7582 -0.6028  0.6268
  529MOL0     C71307   0.684  10.694   4.642  0.3455 -0.1372 -0.2135
  529MOL0     C71308   0.633  10.547   4.657 -0.6271  0.1114  0.3350
  529MOL0     C71309   0.729  10.776   4.748 -0.5772 -0.5002  0.2857
  529MOL0     C71310   0.745  10.736   4.888  0.0477  0.4265  0.4730
  529MOL0     O71311   0.822  10.803   4.980  0.1643  0.0397  0.1566
  529MOL0     C71312   0.809  10.770   5.111  0.0906 -0.3271  0.3895
  529MOL0     C71313   0.695  10.811   5.187 -0.7914  0.0824 -0.4491
  529MOL0     C71314   0.699  10.794   5.325  0.4677  0.2482 -0.5746
  529MOL0     C71315   0.810  10.738   5.387 -0.1726 -0.1624  0.2314
  529MOL0     O71316   0.805  10.725   5.518 -0.0812  0.3941 -0.2133
  529MOL0     C71317   0.933  10.682   5.584 -0.0558 -0.8075  0.6515
  529MOL0     C71318   0.904  10.654   5.730  0.4285 -0.1308  0.4371
  529MOL0     C71319   0.832  10.522   5.745  1.2389  0.6597  0.5393
  529MOL0     C71320   0.808  10.476   5.890 -0.1099 -0.1331  0.0620
  529MOL0     C71321   0.773  10.328   5.905 -0.7736  0.4546  0.4908
  529MOL0     C71322   0.770  10.283   6.054  0.7967  0.2148 -0.2142
  529MOL0     C71323   0.729  10.139   6.071 -0.5268  0.2145  0.3140
  529MOL0     C71324   0.714  10.110   6.216  0.7408  0.6701  0.4284
  529MOL0    Cl71325   0.715   9.925   6.225  0.3938 -0.3725 -0.3408
  529MOL0     C71326   0.924  10.701   5.309  0.3128 -0.6071  0.3532
  529MOL0     C71327   0.921  10.732   5.175 -0.1413  0.3419 -0.6703
  529MOL0     O71328   0.684  10.629   4.912  0.3849 -0.3871  0.2441
  529MOL0     C71329   0.778  10.899   4.708  0.4283  0.1155 -0.1160
  529MOL0     C71330   0.780  10.944   4.574 -0.3911  0.0987  1.0355
  529MOL0     N71331   0.954  11.400   4.176 -0.4294  0.2772  1.0050
  529MOL0     N71332   1.052  11.441   4.097 -0.8655 -0.3115 -0.2977
  529MOL0     C71333   1.280  11.425   2.868 -0.3291 -0.0050 -0.1922
  529MOL0     C71334   1.242  11.454   2.736 -0.3436  1.1067  0.6770
  529MOL0     C71335   1.179  11.470   2.321  0.9488 -0.7661 -0.5374
  529MOL0     C71336   1.273  11.473   2.217 -0.0209  0.5465 -0.7522
  529MOL0     C71337   1.246  11.549   2.108  0.6125  0.3704  0.5510
  529MOL0     C71338   1.134  11.629   2.095 -0.0612 -1.2403 -0.3749
  529MOL0     O71339   1.136  11.731   2.008  0.4160 -0.1838  0.2535
  529MOL0     C71340   1.034  11.825   2.009 -0.3716  0.3760  0.1705
  529MOL0     C71341   0.902  11.771   1.952  0.3362  0.3640  0.5467
  529MOL0     C71342   0.769  11.866   1.983 -0.0539  0.0657  0.9756
  529MOL0     C71343   0.741  11.879   2.136  0.7979 -0.0436  0.3313
  529MOL0     C71344   0.694  11.754   2.197 -0.4267 -0.4986  0.7382
  529MOL0     C71345   0.654  11.653   2.244  1.2881 -0.4544 -0.1702
  529MOL0     C71346   1.038  11.610   2.193  0.5770  0.6828  0.5984
  529MOL0     C71347   1.057  11.529   2.299  0.3497  0.4008 -0.2462
  529MOL0     H71348   1.026  11.194   2.681  1.3144 -0.9072 -0.2483
  529MOL0     H71349   1.125  11.120   2.890  2.2026 -1.2960 -1.3093
  529MOL0     H71350   1.109  11.172   3.171 -0.4128  0.6797  0.0038
  529MOL0     H71351   1.229  11.090   3.063  2.3933  1.8657 -1.1804
  529MOL0     H71352   1.258  11.036   3.296 -0.6318  0.6881  1.4248
  529MOL0     H71353   1.397  11.124   3.211 -0.4526  0.9266 -3.2855
  529MOL0     H71354   1.387  11.181   3.428  2.1554 -0.1739 -1.9925
  529MOL0     H71355   1.324  11.318   3.324 -1.4594  1.9286  3.8241
  529MOL0     H71356   1.089  11.233   3.394 -1.0644 -3.6231  2.0719
  529MOL0     H71357   1.157  11.158   3.526 -1.1740  0.1124  1.3006
  529MOL0     H71358   1.260  11.358   3.610 -0.9811 -1.8144  0.7955
  529MOL0     H71359   1.201  11.465   3.485  2.3947 -1.6821 -1.2491
  529MOL0     H71360   0.967  11.386   3.551  0.9641  0.4092  0.0995
  529MOL0     H71361   1.048  11.268   3.666 -0.2923 -0.8777 -0.1143
  529MOL0     H71362   1.087  11.571   3.672  1.1520  1.7003  3.1930
  529MOL0     H71363   0.935  11.491   3.730 -0.1037 -0.4451 -2.5234
  529MOL0     H71364   1.150  11.564   3.875  1.8395 -0.1521 -1.7279
  529MOL0     H71365   1.194  11.396   3.830 -3.4548 -4.2989  1.4891
  529MOL0     H71366   0.845  11.339   3.876  0.3932 -2.6471  0.5349
  529MOL0     H71367   0.725  11.276   4.246 -2.1041  1.6306 -0.2399
  529MOL0     H71368   0.654  11.287   4.085 -0.0150  0.7805 -0.3866
  529MOL0     H71369   0.853  11.076   4.158 -2.4251 -2.0897  3.8959
  529MOL0     H71370   0.767  11.088   4.007 -0.7377 -1.2391 -0.5687
  529MOL0     H71371   0.644  10.932   4.127 -1.1180 -0.9619  0.9552
  529MOL0     H71372   0.544  11.085   4.136  0.7869  0.7504 -1.8426
  529MOL0     H71373   0.539  10.964   4.348  1.0091 -2.0965  1.6560
  529MOL0     H71374   0.645  11.105   4.382  2.7755 -2.0987  1.8258
  529MOL0     H71375   0.618  10.686   4.434 -2.6496  1.0959  0.5991
  529MOL0     H71376   0.579  10.522   4.565 -1.8723  0.6596  0.9013
  529MOL0     H71377   0.712  10.473   4.668 -1.2516 -1.1077 -2.4170
  529MOL0     H71378   0.555  10.524   4.730  1.3457 -2.0047  1.9236
  529MOL0     H71379   0.609  10.837   5.126  0.4287  3.6751 -0.9181
  529MOL0     H71380   0.604  10.814   5.374 -0.6716 -2.5704 -1.4086
  529MOL0     H71381   0.983  10.600   5.532  3.0000  2.2302 -1.6951
  529MOL0     H71382   1.012  10.758   5.580 -0.5225 -0.3371  0.0724
  529MOL0     H71383   1.000  10.654   5.783  0.6190 -0.9875  0.1089
  529MOL0     H71384   0.847  10.739   5.767 -0.2615 -1.0870  1.6586
  529MOL0     H71385   0.875  10.447   5.677 -2.0684 -1.3705  0.4452
  529MOL0     H71386   0.731  10.521   5.701 -0.0076 -2.7656  2.9653
  529MOL0     H71387   0.885  10.500   5.963 -1.2750 -0.0257  1.3033
  529MOL0     H71388   0.718  10.532   5.918  0.3037  0.3752  0.3649
  529MOL0     H71389   0.858  10.276   5.860 -1.4896  0.0236 -0.3917
  529MOL0     H71390   0.683  10.301   5.850  0.1887 -0.9173 -0.4440
  529MOL0     H71391   0.864  10.306   6.106  0.8505  3.5539 -1.5367
  529MOL0     H71392   0.690  10.340   6.103 -1.7658 -2.1793 -1.3604
  529MOL0     H71393   0.817  10.080   6.044 -0.3184  0.5042  0.3466
  529MOL0     H71394   0.638  10.101   6.023 -0.5464  1.9480 -1.1497
  529MOL0     H71395   0.622  10.154   6.255 -0.4112  0.4647 -1.8839
  529MOL0     H71396   0.797  10.152   6.273  1.6863  0.4794 -0.7812
  529MOL0     H71397   1.014  10.649   5.341 -0.3207 -1.7079  0.3583
  529MOL0     H71398   1.011  10.723   5.116 -0.1879  0.6834 -0.7994
  529MOL0     H71399   0.803  10.973   4.783  0.9568 -0.5930  0.4183
  529MOL0     H71400   0.813  11.041   4.538 -3.1563  0.3440 -1.2673
  529MOL0     H71401   1.349  11.483   2.929 -2.8299  2.0737  0.8888
  529MOL0     H71402   1.298  11.521   2.673 -0.3985 -1.5600 -2.4800
  529MOL0     H71403   1.364  11.416   2.234 -1.0150 -0.1401  3.3867
  529MOL0     H71404   1.315  11.559   2.025 -0.1434  4.8694  0.2066
  529MOL0     H71405   1.029  11.858   2.113 -2.7449 -3.7524  1.5676
  529MOL0     H71406   1.069  11.914   1.954  5.1578 -1.9247 -0.7555
  529MOL0     H71407   0.890  11.672   1.998  4.6394 -0.8194 -0.4283
  529MOL0     H71408   0.902  11.753   1.844  0.7389 -3.2318  1.0181
  529MOL0     H71409   0.685  11.820   1.930 -0.4512 -0.3388  1.9327
  529MOL0     H71410   0.775  11.969   1.948 -1.7365  0.6073  2.1495
  529MOL0     H71411   0.659  11.952   2.130  0.5256 -0.4441 -3.1880
  529MOL0     H71412   0.829  11.918   2.187  2.2229  0.1573 -2.1222
  529MOL0     H71413   0.613  11.559   2.276 -2.7107  1.2968  0.4323
  529MOL0     H71414   0.937  11.648   2.185  0.8026  0.9646 -1.2917
  529MOL0     H71415   0.981  11.519   2.375 -2.8716 -1.8135 -3.4147
  530MOL0     O71416   5.027   4.310   5.433  0.0088 -0.5062 -0.3745
  530MOL0     C71417   5.074   4.425   5.445  0.4784 -0.7007 -1.1379
  530MOL0     O71418   5.058   4.507   5.554 -0.1849  0.5323 -0.3053
  530MOL0     C71419   4.967   4.490   5.653  0.4582 -1.1958 -0.6036
  530MOL0     C71420   4.981   4.573   5.769  0.2345  0.5820  0.2632
  530MOL0     C71421   4.882   4.569   5.866  0.1410  0.1488 -0.4927
  530MOL0     C71422   4.758   4.500   5.850  0.5050  0.2638  0.3576
  530MOL0     O71423   4.649   4.497   5.933 -0.3502  0.5735  0.2378
  530MOL0     C71424   4.653   4.585   6.049  0.8009 -0.1921 -0.0330
  530MOL0     C71425   4.516   4.581   6.120  0.5040 -0.1361 -0.0705
  530MOL0     C71426   4.489   4.713   6.192  0.1502 -0.0952  0.2645
  530MOL0     C71427   4.586   4.723   6.316  0.6238  0.6366  0.1758
  530MOL0     C71428   4.558   4.847   6.404 -0.0473  0.1412 -0.1545
  530MOL0     C71429   4.416   4.851   6.461 -0.1833  0.0358 -0.1986
  530MOL0     C71430   4.397   4.979   6.556 -0.1117  1.0213 -0.4028
  530MOL0     C71431   4.278   4.970   6.653  1.1076 -0.9575 -0.4714
  530MOL0     N71432   4.287   5.059   6.776 -0.1805  0.4189 -0.1090
  530MOL0     C71433   4.332   5.187   6.780 -0.2343  0.4155  0.0138
  530MOL0     C71434   4.285   5.239   6.899  0.3998 -0.5752  0.4625
  530MOL0     C71435   4.297   5.386   6.948  0.2203 -0.8157 -0.1570
  530MOL0     C71436   4.450   5.427   6.962 -0.0253 -0.5543 -0.3699
  530MOL0     C71437   4.471   5.560   7.031 -0.9623 -0.2686 -0.6390
  530MOL0     C71438   4.614   5.597   7.079 -0.9865 -0.4966 -0.2763
  530MOL0     O71439   4.632   5.517   7.200 -0.4013  0.5166 -0.6389
  530MOL0     C71440   4.751   5.535   7.266 -0.7856  0.0992  0.0556
  530MOL0     C71441   4.768   5.459   7.384 -0.2621 -0.7943  0.7582
  530MOL0     C71442   4.879   5.477   7.469 -0.2811  0.4772 -0.4154
  530MOL0     C71443   4.865   5.417   7.613 -0.2093  0.1322  1.0151
  530MOL0     C71444   4.980   5.569   7.436 -0.0396  0.4573  0.5830
  530MOL0     C71445   5.097   5.604   7.519  1.1186 -0.4427  0.1188
  530MOL0     O71446   5.131   5.738   7.536 -0.0376  0.2508  0.3696
  530MOL0     C71447   5.231   5.783   7.619 -0.0535  0.2024 -0.2692
  530MOL0     C71448   5.358   5.713   7.631  0.0516  0.7575  0.0929
  530MOL0     C71449   5.464   5.768   7.706  1.4054 -0.8443 -0.5723
  530MOL0     C71450   5.441   5.897   7.771 -0.8397  0.1485  0.2927
  530MOL0     O71451   5.530   5.939   7.865  0.3913  1.0450  0.3763
  530MOL0     C71452   5.672   5.944   7.841 -0.2738 -0.6556  0.7876
  530MOL0     C71453   5.726   5.996   7.971  1.1375 -0.4853 -0.4140
  530MOL0     C71454   5.695   6.142   7.972 -0.3789  0.3474 -0.7890
  530MOL0     C71455   5.765   6.207   8.089 -0.3864  0.0466  0.5113
  530MOL0     C71456   5.676   6.315   8.143  0.1596  0.1184  0.0314
  530MOL0     C71457   5.760   6.400   8.250 -0.5595  0.8880  0.7340
  530MOL0     C71458   5.676   6.468   8.364  0.0832  0.8942 -0.1073
  530MOL0     C71459   5.735   6.436   8.502 -0.0351  0.1251  0.4949
  530MOL0    Cl71460   5.891   6.510   8.503  0.1939 -0.4049  0.0422
  530MOL0     C71461   5.323   5.968   7.752 -0.3233 -0.1023 -0.7143
  530MOL0     C71462   5.221   5.905   7.689  0.0574  1.0222 -0.0511
  530MOL0     O71463   5.169   5.510   7.541 -0.4672 -0.4513 -0.8210
  530MOL0     C71464   4.957   5.654   7.321  0.2192  0.5392  0.4251
  530MOL0     C71465   4.846   5.628   7.237 -0.4510  0.2730  0.1164
  530MOL0     N71466   4.215   5.141   6.962  0.5012  0.4962  0.3098
  530MOL0     N71467   4.193   5.045   6.872  0.1667  0.3543  0.0235
  530MOL0     C71468   4.750   4.414   5.731  0.0062 -0.7191 -0.0545
  530MOL0     C71469   4.854   4.408   5.638 -0.2103 -0.5094 -0.7383
  530MOL0     C71470   5.159   4.468   5.334  1.0930  0.5374  0.1576
  530MOL0     C71471   5.158   4.400   5.210 -0.0523  0.6998  0.1511
  530MOL0     C71472   5.236   4.451   5.099 -0.2671 -0.3074 -0.1601
  530MOL0     C71473   5.324   4.561   5.113  0.2555 -0.3735  0.4015
  530MOL0     O71474   5.390   4.613   5.001  0.5242 -0.3122 -0.6473
  530MOL0     C71475   5.496   4.707   5.027 -0.2927  0.6370  0.1449
  530MOL0     C71476   5.561   4.733   4.888  0.1465 -0.4973 -0.0220
  530MOL0     C71477   5.461   4.764   4.774 -0.1831 -0.0168 -0.2753
  530MOL0     C71478   5.537   4.802   4.646  0.8808 -0.5013  0.9399
  530MOL0     C71479   5.627   4.919   4.658  0.0093 -0.3424 -0.2217
  530MOL0     C71480   5.701   5.024   4.656  0.3094 -0.8579 -0.1711
  530MOL0     C71481   5.317   4.629   5.234  0.7965 -0.4622 -0.5478
  530MOL0     C71482   5.243   4.577   5.344 -0.1970  0.0475  0.3135
  530MOL0     H71483   5.063   4.643   5.755  1.9814 -1.9121 -3.6119
  530MOL0     H71484   4.903   4.643   5.942 -0.7612 -0.7145  0.6305
  530MOL0     H71485   4.733   4.547   6.112  0.3691  1.8363  1.8665
  530MOL0     H71486   4.678   4.687   6.016 -1.0725  0.7109  1.1426
  530MOL0     H71487   4.435   4.558   6.051 -0.1494  0.0403  0.6175
  530MOL0     H71488   4.514   4.497   6.190  3.0924 -0.6095 -0.4698
  530MOL0     H71489   4.526   4.794   6.127  0.2179 -1.4684 -1.4988
  530MOL0     H71490   4.383   4.724   6.214 -0.1625  2.0039 -1.8688
  530MOL0     H71491   4.574   4.627   6.366  0.4026 -1.7519 -3.9768
  530MOL0     H71492   4.688   4.722   6.277  0.6198 -2.1652  0.0177
  530MOL0     H71493   4.626   4.850   6.490 -2.5094  0.6128  1.8986
  530MOL0     H71494   4.585   4.929   6.337  2.4152  1.4799  2.2710
  530MOL0     H71495   4.350   4.857   6.374  0.0664 -3.0372 -0.7416
  530MOL0     H71496   4.380   4.757   6.504  0.2764 -0.3912 -0.7286
  530MOL0     H71497   4.488   4.973   6.616 -0.0635  0.6715 -0.5152
  530MOL0     H71498   4.387   5.075   6.503 -0.6587  2.7584  2.5849
  530MOL0     H71499   4.267   4.864   6.678 -0.2600 -1.2587 -2.1196
  530MOL0     H71500   4.190   5.004   6.597  1.6612  1.0853 -0.2079
  530MOL0     H71501   4.380   5.251   6.707  0.4354 -3.9151 -3.7581
  530MOL0     H71502   4.239   5.452   6.883  0.4709  0.2986  0.7078
  530MOL0     H71503   4.248   5.388   7.047  0.3199  0.1864 -0.1148
  530MOL0     H71504   4.490   5.435   6.861 -1.1881  2.0872 -0.6911
  530MOL0     H71505   4.507   5.348   7.013  0.4519  0.4731  0.7400
  530MOL0     H71506   4.401   5.568   7.114  0.4208  0.6309  0.4948
  530MOL0     H71507   4.440   5.643   6.966  1.3679  1.2395  0.0395
  530MOL0     H71508   4.613   5.704   7.100 -0.7132  0.1238 -3.0450
  530MOL0     H71509   4.692   5.573   7.007  0.7257 -0.9236  1.6237
  530MOL0     H71510   4.701   5.387   7.428 -1.1340  0.3045  1.2892
  530MOL0     H71511   4.758   5.402   7.627 -0.4910  0.0704 -0.9343
  530MOL0     H71512   4.918   5.321   7.614  0.1143  0.3100  2.4666
  530MOL0     H71513   4.900   5.484   7.691  1.1239 -0.3388  0.8466
  530MOL0     H71514   5.369   5.618   7.579 -2.1161  0.5637 -0.0663
  530MOL0     H71515   5.559   5.716   7.720  2.7685  1.4846 -0.5711
  530MOL0     H71516   5.708   5.842   7.829 -3.7711 -1.9431  0.2057
  530MOL0     H71517   5.694   6.006   7.753  1.0455  0.6725  1.9883
  530MOL0     H71518   5.679   5.951   8.059  0.1532  0.4303 -0.4522
  530MOL0     H71519   5.833   5.979   7.982  1.1673  0.8715  2.1342
  530MOL0     H71520   5.588   6.150   7.990 -0.4242 -2.5209  0.7378
  530MOL0     H71521   5.703   6.193   7.876 -2.2250  1.2078 -0.5313
  530MOL0     H71522   5.781   6.140   8.174  1.2290  1.9978  1.8016
  530MOL0     H71523   5.860   6.239   8.047  0.3972 -3.1929 -0.5230
  530MOL0     H71524   5.588   6.272   8.192  1.1909 -3.5237 -1.0030
  530MOL0     H71525   5.650   6.383   8.062  0.5383  0.7596  0.4354
  530MOL0     H71526   5.829   6.327   8.292 -0.0959  0.5434 -0.5835
  530MOL0     H71527   5.816   6.481   8.202  0.6620 -0.1667  0.3291
  530MOL0     H71528   5.577   6.422   8.359  0.8622 -1.2270  1.9130
  530MOL0     H71529   5.668   6.575   8.344  0.9905  1.2169  1.1763
  530MOL0     H71530   5.736   6.327   8.515 -1.6660  0.0433  0.1240
  530MOL0     H71531   5.677   6.480   8.584  1.0566  3.6475 -0.4614
  530MOL0     H71532   5.300   6.061   7.801 -0.4874 -1.7039  2.4727
  530MOL0     H71533   5.125   5.956   7.685 -2.0596 -2.3079  2.6062
  530MOL0     H71534   5.022   5.736   7.294  0.9509  0.4426  1.8361
  530MOL0     H71535   4.828   5.705   7.163  3.7519  0.0131 -1.4471
  530MOL0     H71536   4.652   4.369   5.717 -0.5271 -0.7303  3.0829
  530MOL0     H71537   4.832   4.346   5.552  0.5035 -0.7082 -0.7876
  530MOL0     H71538   5.094   4.312   5.208  0.5596  0.2193  0.8447
  530MOL0     H71539   5.229   4.398   5.005  2.2499  4.5713 -3.5038
  530MOL0     H71540   5.472   4.806   5.067  1.3507  0.8488  0.6609
  530MOL0     H71541   5.565   4.654   5.093 -0.4306 -1.8603 -1.5880
  530MOL0     H71542   5.621   4.650   4.848  0.2262 -1.1809  1.4438
  530MOL0     H71543   5.632   4.816   4.886 -0.9574  0.4568 -1.7996
  530MOL0     H71544   5.390   4.841   4.808  1.1131 -0.0433  2.8788
  530MOL0     H71545   5.391   4.680   4.772 -1.0821  0.3687  4.0686
  530MOL0     H71546   5.476   4.816   4.556  1.9380  2.0944  0.5391
  530MOL0     H71547   5.603   4.718   4.621  0.3898 -0.6399  0.0725
  530MOL0     H71548   5.769   5.106   4.664 -1.1560  0.2605  1.6916
  530MOL0     H71549   5.360   4.727   5.252  0.9714 -0.6842  0.3049
  530MOL0     H71550   5.241   4.620   5.443 -0.1999  0.2702  0.2161
  531MOL0     O71551   5.273   1.571   6.820 -0.0449  1.0975 -0.3839
  531MOL0     C71552   5.381   1.558   6.762  0.0511  0.8204  0.5546
  531MOL0     O71553   5.419   1.638   6.645  0.5242  0.4235  0.2280
  531MOL0     C71554   5.335   1.741   6.618 -1.4552 -0.7773  1.2917
  531MOL0     C71555   5.289   1.842   6.701  0.9876  0.1429 -0.1847
  531MOL0     C71556   5.198   1.927   6.646 -0.3333 -1.2300 -0.5937
  531MOL0     C71557   5.147   1.928   6.511 -0.2619  0.5316 -0.3292
  531MOL0     O71558   5.034   2.012   6.483 -0.7364  0.6790  1.0209
  531MOL0     C71559   4.982   2.017   6.346 -0.2096  0.5702 -0.3340
  531MOL0     C71560   4.896   2.137   6.319  0.6248  0.1036  0.4973
  531MOL0     C71561   4.768   2.101   6.238  0.8303 -0.3016 -0.0416
  531MOL0     C71562   4.810   2.052   6.100  0.7920 -0.0937 -0.0333
  531MOL0     C71563   4.695   1.990   6.016 -0.3490 -0.1856 -0.3569
  531MOL0     C71564   4.745   1.952   5.863  0.2487 -0.3151 -0.6723
  531MOL0     C71565   4.802   2.056   5.781  0.0427 -0.2883  0.8885
  531MOL0     C71566   4.807   1.998   5.645 -0.4827 -0.1563 -0.0477
  531MOL0     N71567   4.830   2.103   5.545 -0.7561 -0.6525 -0.2035
  531MOL0     C71568   4.757   2.222   5.525  1.1131 -0.5847  0.6378
  531MOL0     C71569   4.810   2.268   5.414  0.0107 -0.9262  0.0591
  531MOL0     C71570   4.767   2.398   5.372  0.6261  0.5766 -0.3363
  531MOL0     C71571   4.886   2.482   5.335 -0.1301  0.7973 -0.7625
  531MOL0     C71572   4.997   2.496   5.443  0.0033 -0.2050 -0.6675
  531MOL0     C71573   4.927   2.538   5.581 -0.0106 -0.5943  0.2759
  531MOL0     O71574   5.029   2.599   5.671  0.3276  0.4778 -0.1709
  531MOL0     C71575   5.139   2.523   5.699  0.6241  0.7927  0.6234
  531MOL0     C71576   5.128   2.388   5.736  0.1224 -0.3042  0.6273
  531MOL0     C71577   5.239   2.312   5.763  0.2797 -0.2809 -0.2684
  531MOL0     C71578   5.225   2.164   5.810  0.1547 -0.1896 -0.2168
  531MOL0     C71579   5.368   2.372   5.764 -0.4293  0.5449  0.1701
  531MOL0     C71580   5.486   2.293   5.802 -0.5816  0.5015  0.5704
  531MOL0     O71581   5.516   2.167   5.742 -0.0598 -0.4927 -0.8755
  531MOL0     C71582   5.617   2.078   5.806  0.5536 -1.4190 -0.6960
  531MOL0     C71583   5.718   2.107   5.905 -0.0809 -0.9666 -0.1223
  531MOL0     C71584   5.818   2.009   5.929  0.3749  0.4534  0.8761
  531MOL0     C71585   5.838   1.888   5.854  0.7130  0.4757  1.1053
  531MOL0     O71586   5.944   1.803   5.880 -0.4060  0.9646 -0.1731
  531MOL0     C71587   5.946   1.754   6.019 -0.7508  0.1144 -1.2840
  531MOL0     C71588   5.969   1.604   6.014 -0.3897  0.7527 -0.2000
  531MOL0     C71589   5.842   1.531   5.958 -0.3019  1.2518  0.1470
  531MOL0     C71590   5.867   1.378   5.959  0.6949 -0.9415  0.2267
  531MOL0     C71591   5.967   1.334   5.857 -0.2870  0.7500  0.6345
  531MOL0     C71592   6.044   1.212   5.898  0.1624 -0.6130  0.2268
  531MOL0     C71593   6.102   1.154   5.772  0.7479  0.5037 -0.4347
  531MOL0     C71594   6.171   1.021   5.796  0.0258  0.4889 -0.5436
  531MOL0    Cl71595   6.262   0.938   5.661  0.1393 -0.1209 -0.0937
  531MOL0     C71596   5.742   1.860   5.760  0.4372  0.1117 -0.4869
  531MOL0     C71597   5.635   1.954   5.742 -0.1613 -0.2432 -0.4035
  531MOL0     O71598   5.563   2.358   5.871  0.5551 -0.0590  0.3422
  531MOL0     C71599   5.376   2.505   5.732  0.1963 -0.9078 -0.2939
  531MOL0     C71600   5.265   2.583   5.693  0.9766 -0.4715  0.9493
  531MOL0     N71601   4.918   2.193   5.374  0.4298  0.2373 -0.2630
  531MOL0     N71602   4.939   2.102   5.465 -0.2067  0.1897  0.4926
  531MOL0     C71603   5.209   1.846   6.418 -0.1502 -1.4768 -0.0535
  531MOL0     C71604   5.279   1.744   6.480  0.0455 -1.0404  0.1097
  531MOL0     C71605   5.459   1.442   6.801 -0.2448 -0.5404 -0.1954
  531MOL0     C71606   5.401   1.345   6.886  0.3344 -1.3149 -0.6882
  531MOL0     C71607   5.473   1.242   6.942  0.6810  0.1022  0.2579
  531MOL0     C71608   5.611   1.231   6.905  0.1621 -0.3068 -0.6826
  531MOL0     O71609   5.706   1.138   6.942 -0.0290  1.0913 -0.1635
  531MOL0     C71610   5.666   1.035   7.038 -0.5353 -0.4022  0.4649
  531MOL0     C71611   5.762   1.032   7.159  0.2166 -0.6427  0.8277
  531MOL0     C71612   5.771   1.157   7.235 -0.0188  0.5006  0.0211
  531MOL0     C71613   5.866   1.140   7.359 -0.8832 -0.7190  0.8206
  531MOL0     C71614   5.843   1.240   7.462 -0.6112 -0.0163 -0.1752
  531MOL0     C71615   5.813   1.300   7.565 -0.7420 -0.6867  0.9532
  531MOL0     C71616   5.668   1.326   6.820  0.9988  0.7222  0.7108
  531MOL0     C71617   5.590   1.435   6.768 -0.5989  0.3550 -0.2788
  531MOL0     H71618   5.312   1.850   6.807  0.9770 -1.0542 -0.0679
  531MOL0     H71619   5.157   2.002   6.712  1.4453  2.4200 -3.3312
  531MOL0     H71620   5.065   2.009   6.274  0.6250 -2.7561  0.8337
  531MOL0     H71621   4.919   1.928   6.344 -0.9294  1.0733 -0.2766
  531MOL0     H71622   4.867   2.184   6.414  0.3828 -0.8357  0.8974
  531MOL0     H71623   4.953   2.210   6.260 -2.4064  0.7449 -1.8669
  531MOL0     H71624   4.707   2.026   6.288  0.5911 -1.5882 -2.1469
  531MOL0     H71625   4.698   2.184   6.225 -1.4771 -2.1693 -0.2663
  531MOL0     H71626   4.838   2.147   6.053 -3.6805  0.5117 -1.9833
  531MOL0     H71627   4.893   1.981   6.093  2.6638  2.1433 -1.9086
  531MOL0     H71628   4.677   1.893   6.062 -0.3167  1.1786  2.7995
  531MOL0     H71629   4.608   2.056   6.016 -1.1069 -1.0251 -3.4482
  531MOL0     H71630   4.814   1.869   5.883  2.8452  2.0822  0.9265
  531MOL0     H71631   4.662   1.909   5.806  0.8047  0.2852 -1.9781
  531MOL0     H71632   4.742   2.147   5.784  1.0043  0.4914 -1.3737
  531MOL0     H71633   4.905   2.065   5.818  0.0505 -2.3418  1.4994
  531MOL0     H71634   4.720   1.946   5.604  0.2195 -0.1310 -1.6590
  531MOL0     H71635   4.877   1.919   5.617 -0.3777  0.9771 -3.4381
  531MOL0     H71636   4.678   2.270   5.582 -0.3059 -1.8334 -0.2078
  531MOL0     H71637   4.707   2.386   5.282 -0.9374 -0.2447  0.7711
  531MOL0     H71638   4.699   2.443   5.445 -1.4036 -1.4487 -0.8915
  531MOL0     H71639   4.857   2.585   5.313 -4.0077  0.6538  2.4272
  531MOL0     H71640   4.931   2.447   5.242  2.0746  1.2383  0.0674
  531MOL0     H71641   5.057   2.578   5.404  2.4736 -2.0285 -0.8827
  531MOL0     H71642   5.061   2.409   5.453  1.4459  0.7168 -1.5834
  531MOL0     H71643   4.872   2.460   5.633 -1.6208  2.7554  4.1908
  531MOL0     H71644   4.853   2.615   5.556  0.1751 -0.2587  0.7476
  531MOL0     H71645   5.024   2.356   5.744 -0.3314  0.5268 -1.2918
  531MOL0     H71646   5.125   2.127   5.836  0.7671 -0.1620  2.5334
  531MOL0     H71647   5.270   2.089   5.745  0.6848  1.1178 -1.4033
  531MOL0     H71648   5.277   2.157   5.907  0.6765  2.3840 -0.2319
  531MOL0     H71649   5.728   2.203   5.954  1.6000 -1.3659  0.3496
  531MOL0     H71650   5.903   2.026   5.995 -0.0499  2.4043  0.9639
  531MOL0     H71651   6.027   1.810   6.066 -0.7515  0.7893 -2.0729
  531MOL0     H71652   5.858   1.777   6.079  0.2613 -0.9312  0.6973
  531MOL0     H71653   6.063   1.583   5.962 -0.8983  3.8723 -2.6373
  531MOL0     H71654   5.999   1.564   6.111  0.2263  2.9551  0.5724
  531MOL0     H71655   5.827   1.541   5.850 -0.0797 -0.4639 -0.0602
  531MOL0     H71656   5.749   1.551   6.012 -2.5609 -3.4342 -1.4796
  531MOL0     H71657   5.905   1.347   6.057  0.0767 -1.4405  0.3132
  531MOL0     H71658   5.778   1.316   5.943  0.2032 -0.3377  0.5688
  531MOL0     H71659   6.045   1.408   5.837 -0.0073 -0.0879 -1.6319
  531MOL0     H71660   5.922   1.316   5.760  1.2999 -2.3351  0.3354
  531MOL0     H71661   6.118   1.242   5.973  0.8193  1.2530 -1.0847
  531MOL0     H71662   5.980   1.137   5.945 -1.9002  0.7871 -0.2128
  531MOL0     H71663   6.185   1.215   5.735  1.0274 -0.0299 -0.7061
  531MOL0     H71664   6.025   1.138   5.696  1.6655 -2.7253 -0.8169
  531MOL0     H71665   6.098   0.957   5.846  1.6019 -0.6788  0.3306
  531MOL0     H71666   6.251   1.045   5.866 -0.9535 -1.0172  1.1547
  531MOL0     H71667   5.742   1.768   5.703 -1.7639 -0.0287 -0.3620
  531MOL0     H71668   5.564   1.931   5.664 -2.7415 -2.6698  2.3742
  531MOL0     H71669   5.470   2.556   5.753 -1.9000  1.6062  4.6279
  531MOL0     H71670   5.272   2.691   5.681  0.7797 -0.5781 -0.3490
  531MOL0     H71671   5.177   1.860   6.315  0.2730  1.1222  0.0927
  531MOL0     H71672   5.304   1.664   6.411  0.5083 -0.1181 -0.8008
  531MOL0     H71673   5.299   1.325   6.917  1.2367 -0.6527  3.0964
  531MOL0     H71674   5.420   1.165   6.996 -0.3705  0.0862 -0.7628
  531MOL0     H71675   5.561   1.029   7.066 -1.0719 -5.5200 -1.4943
  531MOL0     H71676   5.668   0.944   6.977 -0.1120  1.2547 -2.1579
  531MOL0     H71677   5.856   0.992   7.122  0.4967 -0.0931  0.9389
  531MOL0     H71678   5.712   0.959   7.224 -4.0630  2.6720  1.7149
  531MOL0     H71679   5.670   1.179   7.273 -0.1726  0.7599 -0.5363
  531MOL0     H71680   5.810   1.234   7.169 -1.9749 -0.2591 -2.1760
  531MOL0     H71681   5.968   1.155   7.323 -1.0063 -2.8603 -0.6464
  531MOL0     H71682   5.858   1.038   7.397  1.9750 -1.8360 -1.2244
  531MOL0     H71683   5.775   1.355   7.649  0.6142 -0.6867  1.5906
  531MOL0     H71684   5.772   1.308   6.795  1.1531  0.3889  1.5841
  531MOL0     H71685   5.643   1.507   6.706 -0.3807 -0.0664 -0.5880
  532MOL0     O71686   8.278   2.105   0.109 -0.3539  0.1327  0.5102
  532MOL0     C71687   8.352   2.032   0.174 -0.5081  0.6320 -0.7545
  532MOL0     O71688   8.313   1.918   0.233  0.3534 -0.2829 -0.1019
  532MOL0     C71689   8.181   1.881   0.216 -0.2855 -0.2308 -0.5553
  532MOL0     C71690   8.087   1.932   0.304  1.1042 -0.6882  0.4622
  532MOL0     C71691   7.947   1.897   0.308  0.0937  0.5878  0.3715
  532MOL0     C71692   7.897   1.814   0.198 -0.8472 -0.2666  0.1194
  532MOL0     O71693   7.761   1.809   0.182  0.0991  0.4993 -0.6467
  532MOL0     C71694   7.702   1.885   0.075 -0.2311 -0.4492  0.1426
  532MOL0     C71695   7.720   1.818  -0.059 -0.3536  1.3059  0.0836
  532MOL0     C71696   7.663   1.675  -0.060  0.2978 -0.4171 -0.4955
  532MOL0     C71697   7.713   1.586  -0.175 -0.2493  0.2221 -0.7294
  532MOL0     C71698   7.696   1.645  -0.317 -0.3613 -0.4532  0.0309
  532MOL0     C71699   7.678   1.542  -0.432 -0.4452  0.1960 -0.7473
  532MOL0     C71700   7.560   1.437  -0.437  0.2888 -0.5134 -0.3511
  532MOL0     C71701   7.427   1.517  -0.450 -0.6629  0.5395 -0.8370
  532MOL0     N71702   7.305   1.424  -0.458 -0.8707 -0.6665  0.1018
  532MOL0     C71703   7.268   1.326  -0.371 -0.4565  0.4368  0.5604
  532MOL0     C71704   7.171   1.258  -0.447 -0.5169 -0.4789 -0.3516
  532MOL0     C71705   7.093   1.132  -0.423  0.3474  0.3901 -0.0815
  532MOL0     C71706   7.181   1.004  -0.434 -0.2935 -0.6709 -0.0551
  532MOL0     C71707   7.224   0.959  -0.299  0.5552 -0.2068 -0.1992
  532MOL0     C71708   7.275   0.813  -0.329  1.1290 -0.9962 -0.0589
  532MOL0     O71709   7.315   0.769  -0.200 -0.3335  0.0574  0.0817
  532MOL0     C71710   7.367   0.646  -0.184  0.2685  0.6209  1.1396
  532MOL0     C71711   7.447   0.623  -0.079 -0.2908  0.7040 -1.4314
  532MOL0     C71712   7.476   0.497  -0.031 -0.5578  0.1359  0.8119
  532MOL0     C71713   7.556   0.471   0.095  0.1335  0.0465  0.8016
  532MOL0     C71714   7.430   0.394  -0.109 -0.2294  0.1925  0.0458
  532MOL0     C71715   7.465   0.255  -0.090  0.1373 -0.3785 -1.0515
  532MOL0     O71716   7.565   0.204  -0.161  0.1120  0.7690  0.3378
  532MOL0     C71717   7.625   0.083  -0.136  0.1962 -0.4225  0.7340
  532MOL0     C71718   7.638   0.018  -0.008 -0.1687 -0.3043  0.1435
  532MOL0     C71719   7.712  -0.099  -0.003  0.2164  0.1685  0.5176
  532MOL0     C71720   7.785  -0.145  -0.114  0.6376  0.2162  0.1684
  532MOL0     O71721   7.846  -0.267  -0.102 -1.0550  0.1894  0.0485
  532MOL0     C71722   7.794  -0.379  -0.020 -0.0482 -0.2626 -0.1956
  532MOL0     C71723   7.901  -0.483   0.019 -0.3577  0.3601  0.9234
  532MOL0     C71724   7.852  -0.578   0.120 -0.0389  0.3529  0.4241
  532MOL0     C71725   7.974  -0.666   0.153  0.8186  0.0327 -0.1597
  532MOL0     C71726   7.950  -0.763   0.273  0.3363 -1.0198  0.2633
  532MOL0     C71727   8.076  -0.829   0.317 -0.4223 -1.3901  0.5958
  532MOL0     C71728   8.057  -0.946   0.420  0.8189  0.0289  0.3612
  532MOL0     C71729   7.976  -1.068   0.375 -0.3957  0.5474 -0.3637
  532MOL0    Cl71730   7.993  -1.187   0.518  0.1205  0.0118 -0.0340
  532MOL0     C71731   7.786  -0.077  -0.229 -0.0534  0.4221  0.2509
  532MOL0     C71732   7.700   0.032  -0.244  0.6345 -0.2124 -0.2659
  532MOL0     O71733   7.395   0.197  -0.011 -0.9301 -0.0884 -0.4694
  532MOL0     C71734   7.355   0.413  -0.229 -0.5990 -0.0324 -0.1914
  532MOL0     C71735   7.313   0.542  -0.260  0.1214  0.2376  0.5985
  532MOL0     N71736   7.155   1.315  -0.569 -0.3754 -0.9221 -0.4677
  532MOL0     N71737   7.230   1.422  -0.573 -2.0571 -0.3930 -0.0070
  532MOL0     C71738   7.988   1.773   0.104  1.0818  0.9134  0.0142
  532MOL0     C71739   8.125   1.801   0.113 -0.7061 -0.2304  0.3416
  532MOL0     C71740   8.495   2.053   0.161 -0.5405  0.6632 -0.2047
  532MOL0     C71741   8.586   2.036   0.266 -0.2841 -0.5809 -0.1582
  532MOL0     C71742   8.717   2.082   0.264 -0.5233  0.0537 -0.4026
  532MOL0     C71743   8.765   2.139   0.149 -0.1649  0.1271 -0.1254
  532MOL0     O71744   8.892   2.193   0.145 -0.0480  0.3139  0.0524
  532MOL0     C71745   8.938   2.293   0.234  0.0715 -0.7638  0.2191
  532MOL0     C71746   8.923   2.440   0.186 -0.3765 -0.4899 -0.6428
  532MOL0     C71747   9.015   2.463   0.064  0.6427  0.0630  0.8493
  532MOL0     C71748   8.953   2.438  -0.081 -0.0054 -0.8639 -0.3025
  532MOL0     C71749   9.042   2.437  -0.197  0.7754 -0.3800 -0.9052
  532MOL0     C71750   9.116   2.454  -0.290  0.5643 -0.2951 -0.5213
  532MOL0     C71751   8.686   2.143   0.037 -0.8964 -0.4292  0.0227
  532MOL0     C71752   8.554   2.097   0.042 -0.0127  0.6942 -0.5199
  532MOL0     H71753   8.125   1.986   0.390 -0.8187 -0.1430  1.0207
  532MOL0     H71754   7.874   1.923   0.384 -0.1583 -2.0828  1.1491
  532MOL0     H71755   7.601   1.874   0.115 -1.1387 -3.1850 -2.4808
  532MOL0     H71756   7.736   1.989   0.070 -1.2616 -0.1408 -2.9073
  532MOL0     H71757   7.660   1.866  -0.137 -1.3250  1.1306  0.7012
  532MOL0     H71758   7.822   1.828  -0.098 -1.2474  0.5409 -2.7385
  532MOL0     H71759   7.677   1.619   0.033 -1.0418  1.1317  0.6891
  532MOL0     H71760   7.554   1.690  -0.058  0.6293  2.3536 -0.4870
  532MOL0     H71761   7.820   1.571  -0.157 -0.4779  0.5452  1.1814
  532MOL0     H71762   7.669   1.486  -0.162  2.5066 -0.8462  1.5138
  532MOL0     H71763   7.623   1.727  -0.318  2.6215  2.4544 -0.5193
  532MOL0     H71764   7.785   1.704  -0.345 -1.7495  1.2227 -1.0739
  532MOL0     H71765   7.673   1.607  -0.520 -1.4337 -0.4296 -1.1761
  532MOL0     H71766   7.761   1.472  -0.420  0.3973  1.4654  1.3796
  532MOL0     H71767   7.573   1.374  -0.526 -1.6367  1.7439 -2.3667
  532MOL0     H71768   7.560   1.369  -0.351  1.0771 -0.2166 -0.1057
  532MOL0     H71769   7.437   1.577  -0.541 -0.7676 -0.0477 -1.2374
  532MOL0     H71770   7.409   1.589  -0.369  0.4209  1.9889 -1.8367
  532MOL0     H71771   7.304   1.300  -0.272  0.1282  3.3008  1.1965
  532MOL0     H71772   7.030   1.140  -0.334  1.7401  0.9460  0.8955
  532MOL0     H71773   7.016   1.132  -0.501 -0.9523  4.7857  0.8682
  532MOL0     H71774   7.267   1.026  -0.498 -0.2368  2.7265  1.0116
  532MOL0     H71775   7.116   0.925  -0.474 -3.4445  0.0867  3.0539
  532MOL0     H71776   7.135   0.953  -0.236 -0.3160 -1.5121 -1.4924
  532MOL0     H71777   7.295   1.037  -0.272 -0.0382  0.8245 -1.4824
  532MOL0     H71778   7.360   0.831  -0.395 -1.1649  2.2161 -2.4561
  532MOL0     H71779   7.200   0.751  -0.379 -0.5790  1.8799 -1.3332
  532MOL0     H71780   7.475   0.705  -0.013 -2.3517  1.7721 -1.7816
  532MOL0     H71781   7.639   0.543   0.095  1.0452 -0.9799  1.1860
  532MOL0     H71782   7.493   0.480   0.183 -0.8815 -1.2800  0.2434
  532MOL0     H71783   7.593   0.368   0.100 -1.8658 -0.8022 -0.4600
  532MOL0     H71784   7.577   0.053   0.075 -3.0150 -0.2751 -1.7993
  532MOL0     H71785   7.724  -0.141   0.097  0.5134  1.0135  0.8479
  532MOL0     H71786   7.741  -0.329   0.062  1.1490 -0.3272  0.6351
  532MOL0     H71787   7.723  -0.443  -0.074  0.4903  0.0417 -1.2910
  532MOL0     H71788   7.937  -0.535  -0.071 -0.0129  0.9459  0.7209
  532MOL0     H71789   7.977  -0.417   0.063 -3.1800  3.3025  1.7389
  532MOL0     H71790   7.781  -0.643   0.067 -1.0249  2.9862 -1.7093
  532MOL0     H71791   7.811  -0.531   0.210  0.6856 -0.0488  0.9780
  532MOL0     H71792   8.007  -0.718   0.063  0.3389  1.0566 -0.9418
  532MOL0     H71793   8.056  -0.601   0.183  2.8610 -1.3787 -2.3487
  532MOL0     H71794   7.868  -0.830   0.247 -1.3572 -0.1403  2.9706
  532MOL0     H71795   7.908  -0.706   0.356  1.7603  1.0760 -0.3693
  532MOL0     H71796   8.123  -0.872   0.228  0.1484  1.2873 -0.4813
  532MOL0     H71797   8.143  -0.757   0.364  1.4993 -1.6636 -1.5752
  532MOL0     H71798   8.010  -0.898   0.507 -0.4936  1.2277 -0.9643
  532MOL0     H71799   8.157  -0.973   0.454  0.6975 -0.3205  0.4493
  532MOL0     H71800   8.020  -1.108   0.283 -4.4332 -1.4640 -1.7065
  532MOL0     H71801   7.871  -1.038   0.361 -0.6808 -0.7107 -1.1835
  532MOL0     H71802   7.839  -0.120  -0.314 -2.5567  0.3753 -1.4059
  532MOL0     H71803   7.687   0.073  -0.344 -2.2021  0.5906  0.3314
  532MOL0     H71804   7.325   0.325  -0.286 -0.2159 -0.6448  0.5456
  532MOL0     H71805   7.242   0.546  -0.341  0.8008 -2.6343 -0.2184
  532MOL0     H71806   7.949   1.720   0.018  1.4951 -0.3668  0.5890
  532MOL0     H71807   8.197   1.777   0.035  1.2835 -2.2398  2.6505
  532MOL0     H71808   8.562   2.006   0.367 -0.0218  0.0770  0.1067
  532MOL0     H71809   8.783   2.071   0.349  3.1621  3.4134 -2.5341
  532MOL0     H71810   8.887   2.279   0.330  0.1541 -0.5912  0.2900
  532MOL0     H71811   9.043   2.274   0.257  0.8627  2.0862 -0.5791
  532MOL0     H71812   8.952   2.507   0.268 -0.7497 -1.0016 -0.0789
  532MOL0     H71813   8.826   2.474   0.148  0.0538  0.6276 -0.7997
  532MOL0     H71814   9.110   2.410   0.077 -0.1602 -0.9852  3.0233
  532MOL0     H71815   9.042   2.568   0.052 -0.9010  0.5156  1.1182
  532MOL0     H71816   8.892   2.529  -0.087  2.1622  1.1254  3.6919
  532MOL0     H71817   8.895   2.345  -0.075 -0.2490 -0.6204  2.0583
  532MOL0     H71818   9.182   2.465  -0.374  1.9095  0.3676  0.5794
  532MOL0     H71819   8.742   2.172  -0.052  0.8838  0.1997  1.2706
  532MOL0     H71820   8.491   2.109  -0.045 -1.4748 -0.8074  0.2857
  533MOL0     O71821   7.092   4.404   7.896  0.6211 -0.3713  0.1681
  533MOL0     C71822   7.180   4.469   7.835 -1.0719 -0.1448 -0.0714
  533MOL0     O71823   7.172   4.599   7.793  0.5241  0.3103  0.4127
  533MOL0     C71824   7.051   4.656   7.774  1.1290 -0.2098  0.1871
  533MOL0     C71825   6.924   4.591   7.749 -0.0417  0.0848  0.1239
  533MOL0     C71826   6.811   4.663   7.730 -0.1809  0.0562 -0.0699
  533MOL0     C71827   6.807   4.807   7.736 -0.0131  0.2220  0.3918
  533MOL0     O71828   6.699   4.879   7.706  0.0337  0.7178 -0.2622
  533MOL0     C71829   6.568   4.824   7.735 -0.4152 -0.4973 -0.3258
  533MOL0     C71830   6.474   4.832   7.613  0.4186  0.1967 -0.2759
  533MOL0     C71831   6.534   4.770   7.485 -0.0904 -1.3143 -0.3570
  533MOL0     C71832   6.597   4.886   7.393 -0.2934 -0.1873 -0.4643
  533MOL0     C71833   6.693   4.843   7.284 -0.8144  0.2068 -0.8518
  533MOL0     C71834   6.601   4.762   7.195 -0.0057 -0.3944  0.3582
  533MOL0     C71835   6.654   4.739   7.056 -0.6973  0.7856 -0.1448
  533MOL0     C71836   6.553   4.648   6.992  0.2514  0.0544 -0.6293
  533MOL0     N71837   6.604   4.510   7.005 -0.0331 -0.1295  0.3403
  533MOL0     C71838   6.547   4.417   7.092 -0.6724  0.1221 -1.0163
  533MOL0     C71839   6.628   4.300   7.062  0.5081 -0.6413 -0.4866
  533MOL0     C71840   6.613   4.162   7.113  1.6386 -0.0612 -0.4714
  533MOL0     C71841   6.749   4.109   7.171 -0.1495  0.6444  0.6144
  533MOL0     C71842   6.762   3.982   7.242  0.3801 -0.0814 -0.5660
  533MOL0     C71843   6.703   3.988   7.383 -0.3872 -0.3251  0.2220
  533MOL0     O71844   6.615   3.884   7.395  0.6240 -0.2854 -0.3487
  533MOL0     C71845   6.504   3.910   7.468  0.0165 -0.1906 -0.2627
  533MOL0     C71846   6.499   3.901   7.611 -0.8883 -0.4397 -0.2858
  533MOL0     C71847   6.371   3.915   7.668  0.0048 -0.6509  0.1786
  533MOL0     C71848   6.353   3.926   7.812  0.0427  0.7742  0.7501
  533MOL0     C71849   6.247   3.942   7.592  0.4770 -0.4153 -0.3917
  533MOL0     C71850   6.109   3.945   7.651  0.1349  0.1138 -0.4559
  533MOL0     O71851   6.029   4.039   7.589  0.3551 -0.1835 -0.2277
  533MOL0     C71852   5.896   4.061   7.628  0.9260  0.2789 -0.3832
  533MOL0     C71853   5.801   3.969   7.669  0.2425 -0.3683 -0.1928
  533MOL0     C71854   5.667   3.995   7.694  0.4840 -0.5462  0.2696
  533MOL0     C71855   5.626   4.126   7.717 -0.1083  0.7415 -0.4493
  533MOL0     O71856   5.505   4.155   7.774  0.9726  0.8691  0.0600
  533MOL0     C71857   5.393   4.082   7.709 -0.6111 -0.7135  0.3064
  533MOL0     C71858   5.262   4.111   7.783  0.3546  0.0623 -0.9962
  533MOL0     C71859   5.145   4.009   7.759  1.4198 -0.2869 -0.4940
  533MOL0     C71860   5.163   3.883   7.838 -0.4444 -0.8396 -0.3188
  533MOL0     C71861   5.043   3.793   7.817  1.0931  0.7227 -0.1535
  533MOL0     C71862   4.930   3.826   7.914 -0.2086  0.2802 -0.1866
  533MOL0     C71863   4.821   3.721   7.906  0.9960  0.8771  0.1100
  533MOL0     C71864   4.690   3.786   7.936  0.4308 -0.2098  0.6443
  533MOL0    Cl71865   4.554   3.680   7.945  0.5658  0.4698 -0.2759
  533MOL0     C71866   5.718   4.226   7.675 -0.0624  0.2446  0.9672
  533MOL0     C71867   5.840   4.192   7.625  0.3285  0.1534  0.4921
  533MOL0     O71868   6.076   3.900   7.756  0.1551 -0.1540 -0.0521
  533MOL0     C71869   6.260   3.956   7.448 -0.0135  0.1451 -0.4724
  533MOL0     C71870   6.392   3.929   7.398 -0.2720 -0.3652  0.1346
  533MOL0     N71871   6.727   4.336   6.968 -0.4218 -0.2421  0.4927
  533MOL0     N71872   6.716   4.459   6.944  0.6611  0.0537 -0.5580
  533MOL0     C71873   6.933   4.863   7.734 -0.1646 -0.9561  0.8273
  533MOL0     C71874   7.054   4.797   7.741 -0.0475 -0.5942 -0.3979
  533MOL0     C71875   7.304   4.406   7.801  0.4733 -0.9779  0.2250
  533MOL0     C71876   7.422   4.475   7.814 -0.9663 -0.0580 -1.0846
  533MOL0     C71877   7.540   4.409   7.796 -0.5374  0.4136 -0.6388
  533MOL0     C71878   7.544   4.271   7.759 -0.6605 -0.1591  0.0993
  533MOL0     O71879   7.666   4.224   7.746  0.0649 -0.0853  0.6700
  533MOL0     C71880   7.686   4.097   7.676  0.8626 -0.6211  0.1982
  533MOL0     C71881   7.835   4.068   7.698 -0.2272  0.0545 -0.5207
  533MOL0     C71882   7.862   3.934   7.768  0.1512 -0.7133  0.1596
  533MOL0     C71883   8.004   3.912   7.811  0.6080 -0.4626 -1.7392
  533MOL0     C71884   8.032   3.773   7.831  1.0464 -0.2767 -0.6524
  533MOL0     C71885   8.051   3.652   7.849 -0.1066  0.7745  0.1847
  533MOL0     C71886   7.423   4.200   7.733 -0.5940  0.4450 -0.3277
  533MOL0     C71887   7.306   4.272   7.747 -0.3973 -0.2512  0.2966
  533MOL0     H71888   6.918   4.483   7.739  2.4948  0.0000 -1.2761
  533MOL0     H71889   6.721   4.612   7.697 -0.0811  1.1279 -2.2378
  533MOL0     H71890   6.579   4.722   7.772  2.0873 -1.1292 -2.4884
  533MOL0     H71891   6.522   4.888   7.812  0.9933  0.9025 -0.5842
  533MOL0     H71892   6.391   4.765   7.637  1.2962 -1.8548 -2.5433
  533MOL0     H71893   6.446   4.937   7.607  0.8897  0.4209  1.1238
  533MOL0     H71894   6.609   4.698   7.517 -1.5248 -1.2880  3.6346
  533MOL0     H71895   6.460   4.713   7.428 -2.0307  1.1046 -0.4460
  533MOL0     H71896   6.516   4.943   7.347 -2.5350 -1.2162  1.9559
  533MOL0     H71897   6.653   4.956   7.456 -2.9999 -1.7449  4.1988
  533MOL0     H71898   6.736   4.933   7.240 -1.0710  1.9848  2.2736
  533MOL0     H71899   6.775   4.784   7.327  0.3258  1.1203 -1.7283
  533MOL0     H71900   6.590   4.663   7.241 -1.4796 -1.5133 -2.1746
  533MOL0     H71901   6.500   4.803   7.195  0.2135  0.6128 -3.8051
  533MOL0     H71902   6.668   4.837   7.011  2.8693 -0.9118 -3.2720
  533MOL0     H71903   6.748   4.683   7.053  0.2262  2.1009  2.0057
  533MOL0     H71904   6.546   4.671   6.886  0.9690 -0.3479 -0.7706
  533MOL0     H71905   6.454   4.661   7.036  0.5104  2.7755 -0.7175
  533MOL0     H71906   6.469   4.445   7.162 -1.2861  2.1434 -2.4094
  533MOL0     H71907   6.533   4.162   7.187  0.0273  0.5431 -2.1396
  533MOL0     H71908   6.585   4.088   7.038  2.8088 -1.6956  0.6494
  533MOL0     H71909   6.780   4.192   7.236  0.7991  3.5939 -3.2168
  533MOL0     H71910   6.813   4.093   7.084 -0.9727 -1.0544  0.2881
  533MOL0     H71911   6.867   3.952   7.253  0.4215 -0.9443 -2.8223
  533MOL0     H71912   6.718   3.894   7.195  0.6861 -0.4813 -0.1194
  533MOL0     H71913   6.664   4.090   7.389 -0.7278 -0.3204 -1.5853
  533MOL0     H71914   6.782   3.983   7.459 -0.2249  0.7588  0.1371
  533MOL0     H71915   6.578   3.878   7.681 -0.8456  0.1690 -0.1326
  533MOL0     H71916   6.288   4.006   7.847 -1.5770 -0.8193  1.5670
  533MOL0     H71917   6.310   3.839   7.863 -0.6701  1.5395  1.4785
  533MOL0     H71918   6.451   3.942   7.858 -0.5759 -0.6404  2.7034
  533MOL0     H71919   5.820   3.863   7.657 -3.1009 -1.2255  1.1348
  533MOL0     H71920   5.599   3.912   7.705  1.2025 -1.5744 -2.2370
  533MOL0     H71921   5.387   4.137   7.615  1.8734 -0.3261  0.3153
  533MOL0     H71922   5.399   3.974   7.692 -4.1025 -0.6876 -2.0772
  533MOL0     H71923   5.276   4.092   7.890  1.5785  0.1629 -1.1277
  533MOL0     H71924   5.229   4.215   7.777  0.6565  0.4588  2.2515
  533MOL0     H71925   5.134   3.984   7.653 -0.5256 -2.1831  0.0954
  533MOL0     H71926   5.056   4.061   7.794  2.1866 -1.1015  3.0106
  533MOL0     H71927   5.253   3.831   7.803 -1.1364 -1.3100 -1.4581
  533MOL0     H71928   5.187   3.904   7.943 -2.4026 -2.4747  0.5147
  533MOL0     H71929   5.063   3.689   7.842 -3.6900 -0.4903 -0.4843
  533MOL0     H71930   5.005   3.781   7.716  0.8986 -1.5277  0.1418
  533MOL0     H71931   4.958   3.830   8.019  0.7789 -4.4669 -0.0344
  533MOL0     H71932   4.899   3.930   7.899  3.2719  1.1257 -3.0482
  533MOL0     H71933   4.846   3.635   7.970 -0.0503  0.1121 -0.4665
  533MOL0     H71934   4.812   3.684   7.803 -0.5682 -0.9413  0.8287
  533MOL0     H71935   4.671   3.866   7.864  1.1061  0.5277  1.2671
  533MOL0     H71936   4.693   3.836   8.033 -2.5514 -0.6928  1.0611
  533MOL0     H71937   5.680   4.327   7.688  1.3904  0.6421  2.5224
  533MOL0     H71938   5.903   4.272   7.589 -0.7789  0.4266 -0.9233
  533MOL0     H71939   6.183   3.960   7.372  2.5167  0.8297 -3.1942
  533MOL0     H71940   6.410   3.924   7.291 -0.7499 -2.4665  0.0919
  533MOL0     H71941   6.920   4.970   7.716 -1.7198 -1.2235  0.2101
  533MOL0     H71942   7.151   4.845   7.729 -0.8450  0.9013 -1.1740
  533MOL0     H71943   7.431   4.583   7.824 -1.5676 -0.1599  1.0486
  533MOL0     H71944   7.635   4.447   7.833 -0.6551  1.5547 -1.4720
  533MOL0     H71945   7.618   4.021   7.716 -0.3160 -0.5496 -1.5605
  533MOL0     H71946   7.676   4.115   7.569  1.4598 -0.6692  0.1321
  533MOL0     H71947   7.882   4.138   7.769 -1.1286  1.1228 -0.9377
  533MOL0     H71948   7.895   4.070   7.607  0.1510 -1.1306 -0.3059
  533MOL0     H71949   7.842   3.853   7.697 -0.2424  0.2461 -0.8653
  533MOL0     H71950   7.796   3.927   7.854 -0.1770 -0.7257 -0.0896
  533MOL0     H71951   8.023   3.965   7.905  0.0010 -2.4192 -0.4491
  533MOL0     H71952   8.064   3.973   7.743  1.6339  0.9380  0.3134
  533MOL0     H71953   8.058   3.546   7.862  0.5225  0.8971  0.9590
  533MOL0     H71954   7.427   4.097   7.699  0.0578  0.0288  0.9842
  533MOL0     H71955   7.213   4.223   7.718 -0.9032 -1.9288  4.1058
  534MOL0     O71956   3.383   8.622   4.758 -0.6324  0.0235 -0.0461
  534MOL0     C71957   3.374   8.745   4.748  0.1890 -0.1279 -0.8070
  534MOL0     O71958   3.345   8.820   4.854 -0.6711 -0.9283  0.4366
  534MOL0     C71959   3.319   8.766   4.981  0.7178  1.1293 -0.3126
  534MOL0     C71960   3.316   8.857   5.089 -1.1074 -0.5843 -0.3891
  534MOL0     C71961   3.268   8.838   5.218 -0.8205 -0.0761 -0.4960
  534MOL0     C71962   3.230   8.708   5.258 -0.2319  0.2796  1.2652
  534MOL0     O71963   3.191   8.680   5.380  0.3209  0.0226 -0.0484
  534MOL0     C71964   3.299   8.652   5.468 -0.5577 -0.4019  0.1888
  534MOL0     C71965   3.350   8.515   5.476  0.2265  0.0715 -0.4164
  534MOL0     C71966   3.245   8.423   5.537  0.2009  0.2084  0.0210
  534MOL0     C71967   3.296   8.283   5.607 -0.3651  0.1214  0.1100
  534MOL0     C71968   3.181   8.208   5.666 -0.2103 -0.0206 -0.6793
  534MOL0     C71969   3.136   8.278   5.793  0.0725 -0.3761 -0.8413
  534MOL0     C71970   3.116   8.181   5.903 -1.0203  0.2549  0.1451
  534MOL0     C71971   2.996   8.095   5.862 -0.2690  0.2639 -0.6380
  534MOL0     N71972   2.940   8.008   5.978  0.3262  0.4821 -0.0823
  534MOL0     C71973   2.853   8.045   6.076 -0.0237 -0.3385  0.9177
  534MOL0     C71974   2.855   7.937   6.157 -0.6458  0.1346 -0.6538
  534MOL0     C71975   2.751   7.923   6.271 -0.1221  0.6128 -0.5217
  534MOL0     C71976   2.834   7.916   6.396 -0.4218 -0.8228  0.1344
  534MOL0     C71977   2.757   7.845   6.510  0.4247 -0.1452  0.4549
  534MOL0     C71978   2.847   7.837   6.635  0.0206 -0.0274 -0.3941
  534MOL0     O71979   2.777   7.770   6.745 -0.4090  0.0670  0.4591
  534MOL0     C71980   2.844   7.706   6.848  1.4903  0.1357 -1.0998
  534MOL0     C71981   2.987   7.689   6.849  1.0563  0.7782  0.4790
  534MOL0     C71982   3.045   7.629   6.971 -0.3517  0.0394  1.1491
  534MOL0     C71983   3.192   7.577   6.972  0.1190  0.2170 -0.2370
  534MOL0     C71984   2.965   7.580   7.075  0.6793  0.6754 -0.0241
  534MOL0     C71985   3.010   7.511   7.205  1.3004  0.5324  0.1274
  534MOL0     O71986   2.916   7.431   7.270  0.4561  0.1335  0.5370
  534MOL0     C71987   2.951   7.370   7.384  0.6106 -0.1108  0.7620
  534MOL0     C71988   2.987   7.232   7.378  0.4093  0.6094  0.1077
  534MOL0     C71989   3.027   7.164   7.486  0.0385 -1.1170  0.5796
  534MOL0     C71990   3.044   7.225   7.612 -0.6386 -0.1404  0.2963
  534MOL0     O71991   3.081   7.149   7.716 -0.1293 -1.1773 -0.2944
  534MOL0     C71992   3.213   7.087   7.700 -0.7078  0.0926 -0.4160
  534MOL0     C71993   3.190   6.943   7.667 -0.9460 -0.5350  0.7831
  534MOL0     C71994   3.277   6.837   7.749  0.9575  0.0642 -0.0336
  534MOL0     C71995   3.251   6.859   7.902  0.9868  0.8594 -0.1088
  534MOL0     C71996   3.315   6.734   7.970  0.2094 -0.4263 -0.1634
  534MOL0     C71997   3.378   6.759   8.110 -0.0063 -0.1522 -0.9333
  534MOL0     C71998   3.508   6.851   8.112  0.5244  0.0175  0.3401
  534MOL0     C71999   3.501   6.952   8.231  0.3128  0.1214 -0.1368
  534MOL0    Cl72000   3.351   7.055   8.220 -0.0631 -0.5389  0.8853
  534MOL0     C72001   3.002   7.361   7.627  1.2835  0.1436 -0.4712
  534MOL0     C72002   2.953   7.439   7.515 -0.0940  0.3601 -0.7914
  534MOL0     O72003   3.124   7.526   7.250  0.6853 -0.5051  0.1553
  534MOL0     C72004   2.828   7.584   7.055  1.0493 -0.4319 -0.4642
  534MOL0     C72005   2.773   7.665   6.956 -0.6978  0.0571 -0.6835
  534MOL0     N72006   2.961   7.850   6.123 -0.1074 -0.0284 -0.1216
  534MOL0     N72007   2.996   7.893   6.007 -0.4788 -0.0846 -0.0500
  534MOL0     C72008   3.215   8.614   5.146  0.4617  0.5888  0.6320
  534MOL0     C72009   3.274   8.634   5.016  0.7041 -0.0283 -0.4646
  534MOL0     C72010   3.386   8.816   4.617  0.1759  0.1189 -0.8894
  534MOL0     C72011   3.349   8.951   4.618  0.5759  0.0605  0.3387
  534MOL0     C72012   3.369   9.028   4.503 -0.5179 -0.1888  0.8529
  534MOL0     C72013   3.438   8.980   4.390 -0.5142 -0.2332  0.3007
  534MOL0     O72014   3.480   9.056   4.285 -0.1525 -0.4530 -0.5736
  534MOL0     C72015   3.383   9.160   4.246  0.0885 -0.4616  0.5499
  534MOL0     C72016   3.411   9.195   4.100 -0.0589 -0.3987 -1.2511
  534MOL0     C72017   3.310   9.315   4.069 -0.4918 -0.0890 -0.3073
  534MOL0     C72018   3.357   9.363   3.934  0.7007 -0.7687  0.2340
  534MOL0     C72019   3.331   9.276   3.825  0.0322 -0.6795  0.1612
  534MOL0     C72020   3.301   9.214   3.733  0.9043 -0.4729  0.1126
  534MOL0     C72021   3.487   8.852   4.401  0.0486  0.0673 -0.5166
  534MOL0     C72022   3.477   8.768   4.516  1.3332 -0.5009 -0.0116
  534MOL0     H72023   3.351   8.960   5.087  4.1250 -2.0508  1.4261
  534MOL0     H72024   3.269   8.926   5.283 -2.9142  1.1529 -1.9953
  534MOL0     H72025   3.386   8.711   5.437 -0.3494  0.0402  1.5455
  534MOL0     H72026   3.262   8.679   5.567 -0.3417 -1.7735  0.6687
  534MOL0     H72027   3.371   8.478   5.375  0.6964  0.1854 -0.3587
  534MOL0     H72028   3.431   8.515   5.549 -3.2413 -2.1248  3.8847
  534MOL0     H72029   3.197   8.487   5.612  1.2059  0.6339  0.3209
  534MOL0     H72030   3.171   8.393   5.463 -0.5738  0.5930  0.6242
  534MOL0     H72031   3.330   8.213   5.530 -0.0550 -0.7454  1.0066
  534MOL0     H72032   3.376   8.303   5.679 -0.7756  0.6716  0.4210
  534MOL0     H72033   3.093   8.191   5.603  0.1308  0.8855 -1.4248
  534MOL0     H72034   3.227   8.112   5.694  1.1398  1.2764  1.9693
  534MOL0     H72035   3.211   8.347   5.833 -0.3550 -0.4064  0.0262
  534MOL0     H72036   3.043   8.333   5.777 -0.3288 -0.9389 -0.4455
  534MOL0     H72037   3.199   8.119   5.940 -2.5851 -2.3884 -0.4977
  534MOL0     H72038   3.075   8.223   5.995 -0.5970 -5.4605  3.4721
  534MOL0     H72039   3.020   8.029   5.778  3.9996 -0.3725  0.8400
  534MOL0     H72040   2.913   8.156   5.825 -1.0792 -0.6471 -0.3762
  534MOL0     H72041   2.786   8.130   6.087 -0.9140 -1.1970  2.4256
  534MOL0     H72042   2.680   8.006   6.271 -0.2608  0.5078 -1.3008
  534MOL0     H72043   2.714   7.821   6.253  0.8734 -0.3538  2.3825
  534MOL0     H72044   2.876   8.012   6.428  2.1236 -1.0124 -2.1608
  534MOL0     H72045   2.928   7.863   6.379 -0.3179 -1.5028  2.5321
  534MOL0     H72046   2.728   7.743   6.482  2.5364 -0.1009 -2.4325
  534MOL0     H72047   2.660   7.891   6.532 -0.5419 -1.7788 -0.2136
  534MOL0     H72048   2.875   7.934   6.676  1.7432 -1.6684  2.6257
  534MOL0     H72049   2.942   7.785   6.620  0.5010 -0.4829  3.4155
  534MOL0     H72050   3.054   7.706   6.765 -1.7755 -0.7812 -2.2924
  534MOL0     H72051   3.250   7.629   7.048  3.1860 -2.5600 -0.4843
  534MOL0     H72052   3.204   7.471   6.996  0.1312 -0.5789 -3.3217
  534MOL0     H72053   3.243   7.589   6.876 -1.5627  1.8360 -1.0091
  534MOL0     H72054   2.977   7.182   7.283 -3.5190  2.3361 -0.5649
  534MOL0     H72055   3.049   7.059   7.471  0.0734 -1.1007  0.5144
  534MOL0     H72056   3.286   7.136   7.635  1.0450 -1.4142  0.3178
  534MOL0     H72057   3.253   7.088   7.802 -3.7003 -1.6182  0.9144
  534MOL0     H72058   3.085   6.923   7.691 -1.7609  3.6732  1.5318
  534MOL0     H72059   3.203   6.917   7.562 -1.0346 -1.1290  0.9149
  534MOL0     H72060   3.383   6.836   7.721  1.6829 -2.4567  2.3381
  534MOL0     H72061   3.241   6.736   7.731 -0.2402  0.3710  0.5248
  534MOL0     H72062   3.307   6.946   7.936 -0.1867  1.6929 -0.2546
  534MOL0     H72063   3.147   6.875   7.930 -0.2506  0.2063 -3.8051
  534MOL0     H72064   3.398   6.700   7.907  1.4510 -1.9495  2.1642
  534MOL0     H72065   3.240   6.654   7.976  1.6253 -2.0941 -2.6948
  534MOL0     H72066   3.305   6.808   8.175  2.5781  0.2357  1.8885
  534MOL0     H72067   3.404   6.665   8.160 -0.2658  0.0376 -0.4344
  534MOL0     H72068   3.527   6.907   8.020  2.0588 -0.9866 -0.0022
  534MOL0     H72069   3.597   6.788   8.123  0.3975 -0.2246 -0.0103
  534MOL0     H72070   3.592   7.011   8.245 -0.0704  0.7424 -0.2619
  534MOL0     H72071   3.503   6.903   8.329  2.3477  1.8340  0.7530
  534MOL0     H72072   3.003   7.385   7.733  1.8458 -1.0912 -0.1782
  534MOL0     H72073   2.912   7.539   7.524 -2.1137 -0.2704 -2.2596
  534MOL0     H72074   2.762   7.531   7.124 -1.1097 -0.4907 -2.4386
  534MOL0     H72075   2.665   7.673   6.954 -0.6781  0.5321 -0.2366
  534MOL0     H72076   3.162   8.521   5.162  2.9433 -0.7886  1.2294
  534MOL0     H72077   3.245   8.568   4.935  1.7197  2.3345 -2.9209
  534MOL0     H72078   3.292   8.995   4.699 -1.5329  0.9158 -1.4826
  534MOL0     H72079   3.343   9.133   4.514 -3.4245 -0.1828 -3.4264
  534MOL0     H72080   3.278   9.131   4.252 -0.5671  1.2544 -1.5857
  534MOL0     H72081   3.392   9.231   4.330  1.1601 -0.5215  0.5035
  534MOL0     H72082   3.396   9.108   4.035 -1.7609 -1.1251  0.0334
  534MOL0     H72083   3.516   9.225   4.100 -0.5958  1.7634  0.5314
  534MOL0     H72084   3.324   9.395   4.142 -2.1156 -0.1567  0.1066
  534MOL0     H72085   3.208   9.275   4.070 -1.3138  1.9238  0.0795
  534MOL0     H72086   3.465   9.382   3.945  0.9697 -1.7072 -0.7314
  534MOL0     H72087   3.310   9.458   3.907  3.2141  0.8636  1.2550
  534MOL0     H72088   3.284   9.148   3.651  2.0954 -0.7062  0.0340
  534MOL0     H72089   3.551   8.822   4.318  3.1307 -1.5777  2.2279
  534MOL0     H72090   3.532   8.675   4.505  0.3157 -1.2245  0.7804
  535MOL0     O72091   3.150   5.187   1.097 -0.0813  0.0321  0.1127
  535MOL0     C72092   3.096   5.232   1.192 -0.9049  0.2247  1.1699
  535MOL0     O72093   2.966   5.218   1.224 -0.2801  0.3690 -0.8337
  535MOL0     C72094   2.880   5.145   1.150 -0.5147 -0.1376 -0.5416
  535MOL0     C72095   2.765   5.210   1.109 -0.4206 -0.4736 -0.0710
  535MOL0     C72096   2.670   5.147   1.025 -0.1750  0.7536  0.2092
  535MOL0     C72097   2.704   5.020   0.976 -0.8950  0.1021  0.5421
  535MOL0     O72098   2.616   4.955   0.887 -0.1863  0.0910 -0.0576
  535MOL0     C72099   2.607   4.813   0.872 -0.3562  0.3021  0.6707
  535MOL0     C72100   2.513   4.771   0.754  0.2913  0.2588 -0.9436
  535MOL0     C72101   2.515   4.860   0.625 -0.1792 -0.2098 -0.8644
  535MOL0     C72102   2.653   4.889   0.558  0.4526 -0.7256 -0.3987
  535MOL0     C72103   2.635   4.918   0.410  0.0423 -0.1821 -0.1688
  535MOL0     C72104   2.568   5.053   0.369  0.3245  0.5241  0.0952
  535MOL0     C72105   2.531   5.054   0.221 -0.6996  0.3852 -0.1334
  535MOL0     C72106   2.434   5.179   0.205  0.0026  1.0654  1.5159
  535MOL0     N72107   2.332   5.181   0.091 -0.5270 -0.6182  0.6312
  535MOL0     C72108   2.224   5.264   0.090  0.5447  0.2193 -1.3837
  535MOL0     C72109   2.132   5.213   0.004 -0.2574 -0.1145 -0.2093
  535MOL0     C72110   1.992   5.258  -0.020 -0.2569  0.9902 -0.6666
  535MOL0     C72111   1.988   5.406  -0.080  0.3125 -0.4401  1.2408
  535MOL0     C72112   1.839   5.446  -0.083  0.2550 -0.0097  0.5119
  535MOL0     C72113   1.787   5.558  -0.181 -0.2044 -0.1508 -1.0788
  535MOL0     O72114   1.785   5.512  -0.319  0.3607 -0.9405  0.2246
  535MOL0     C72115   1.812   5.619  -0.407 -0.1704  0.6619  0.6635
  535MOL0     C72116   1.729   5.732  -0.417  0.7001 -0.2736  0.2807
  535MOL0     C72117   1.760   5.835  -0.499  0.0356 -0.2814 -0.0480
  535MOL0     C72118   1.654   5.942  -0.503  0.4499  0.1082 -0.3531
  535MOL0     C72119   1.873   5.829  -0.584 -1.0382  0.7261  0.4378
  535MOL0     C72120   1.905   5.935  -0.687  0.4276 -0.2939  0.1647
  535MOL0     O72121   1.841   6.058  -0.686 -0.5388 -0.2101  0.3559
  535MOL0     C72122   1.808   6.106  -0.814  0.0089  0.1883 -0.0231
  535MOL0     C72123   1.706   6.046  -0.890  0.1069  0.4666  0.8029
  535MOL0     C72124   1.685   6.081  -1.027  0.1688  0.4912 -0.7483
  535MOL0     C72125   1.772   6.167  -1.087 -0.0879  0.6022  0.7357
  535MOL0     O72126   1.755   6.218  -1.214  0.2527 -0.2490  0.1322
  535MOL0     C72127   1.742   6.108  -1.309 -0.2310  0.8898 -0.7417
  535MOL0     C72128   1.870   6.122  -1.408  0.2839  0.3986 -1.0485
  535MOL0     C72129   1.870   6.010  -1.513  0.9673 -0.0063  0.0359
  535MOL0     C72130   1.954   6.047  -1.642  0.0840  0.8921  0.3731
  535MOL0     C72131   1.908   5.955  -1.761  0.3261 -0.0817  0.4744
  535MOL0     C72132   1.996   5.990  -1.891 -0.5675  0.1537 -0.0681
  535MOL0     C72133   1.946   5.893  -2.007 -0.6678 -0.9532 -0.2725
  535MOL0     C72134   2.047   5.774  -2.033  0.2577 -0.2323 -0.0552
  535MOL0    Cl72135   1.962   5.638  -2.130  0.1503  0.2719  0.0158
  535MOL0     C72136   1.883   6.222  -1.011 -0.0861 -0.1209 -0.7941
  535MOL0     C72137   1.898   6.197  -0.874  0.3689  1.7621  0.0026
  535MOL0     O72138   1.987   5.897  -0.770  0.5323  0.9202  0.4537
  535MOL0     C72139   1.955   5.717  -0.568 -0.3907 -0.1436  0.1521
  535MOL0     C72140   1.928   5.620  -0.473 -0.4861  0.0432  1.3120
  535MOL0     N72141   2.192   5.093  -0.047  0.9612 -0.5020  0.1775
  535MOL0     N72142   2.302   5.073   0.008 -0.9176 -0.3717 -0.4966
  535MOL0     C72143   2.817   4.945   1.016  0.2211 -0.9283 -0.9417
  535MOL0     C72144   2.898   5.009   1.109 -0.8958 -0.7022  0.2779
  535MOL0     C72145   3.180   5.294   1.292  0.4479 -0.2504 -0.7395
  535MOL0     C72146   3.138   5.324   1.429 -0.0628 -0.4587  0.3094
  535MOL0     C72147   3.201   5.416   1.523  0.1333  0.4210  0.5785
  535MOL0     C72148   3.331   5.462   1.488 -0.4075  0.4430 -0.0828
  535MOL0     O72149   3.426   5.515   1.578  0.3997  0.1757  0.9877
  535MOL0     C72150   3.397   5.523   1.713  0.7288 -0.8458  0.2516
  535MOL0     C72151   3.357   5.655   1.758  0.0599 -0.5004  0.6257
  535MOL0     C72152   3.341   5.652   1.909  0.1385  0.3061  1.2786
  535MOL0     C72153   3.260   5.771   1.959  0.2643  0.9066 -0.1191
  535MOL0     C72154   3.124   5.762   1.918 -0.1162  0.4730 -0.5674
  535MOL0     C72155   3.009   5.746   1.883  0.1635 -0.1623  0.2326
  535MOL0     C72156   3.379   5.432   1.356 -0.6774 -0.2955  0.6834
  535MOL0     C72157   3.303   5.355   1.270 -0.0708  0.0991  0.3787
  535MOL0     H72158   2.743   5.314   1.129  0.3684  0.2420 -2.5303
  535MOL0     H72159   2.585   5.203   0.989 -1.0438 -0.2962  0.5512
  535MOL0     H72160   2.698   4.766   0.833 -2.7939 -3.3897 -1.1090
  535MOL0     H72161   2.589   4.762   0.967  2.5517 -0.4885  0.8872
  535MOL0     H72162   2.539   4.669   0.725 -1.8681 -0.7878  0.5004
  535MOL0     H72163   2.413   4.780   0.800  0.2641  0.1316 -0.9779
  535MOL0     H72164   2.445   4.819   0.551 -3.3782  1.3665  1.0491
  535MOL0     H72165   2.462   4.952   0.652 -1.1091 -1.4259  1.9013
  535MOL0     H72166   2.703   4.974   0.605  2.0367 -0.9138 -1.6428
  535MOL0     H72167   2.717   4.803   0.579 -0.1241 -0.6465  1.8496
  535MOL0     H72168   2.737   4.915   0.370  0.2392  1.4673  0.1552
  535MOL0     H72169   2.583   4.833   0.365 -3.4987  2.7107 -2.1242
  535MOL0     H72170   2.477   5.051   0.430 -0.5372 -4.1881 -1.0169
  535MOL0     H72171   2.627   5.142   0.395 -1.7830  2.4740 -1.3455
  535MOL0     H72172   2.615   5.066   0.153 -0.6334 -0.3913 -0.1985
  535MOL0     H72173   2.471   4.964   0.207 -1.6063  0.9367  0.1130
  535MOL0     H72174   2.488   5.274   0.201 -1.0906  2.0807  5.7504
  535MOL0     H72175   2.400   5.197   0.307  2.8515  1.4522  2.4910
  535MOL0     H72176   2.221   5.358   0.145 -4.4672 -1.5393  2.1658
  535MOL0     H72177   1.931   5.188  -0.077 -0.3092 -1.6485  2.3825
  535MOL0     H72178   1.946   5.266   0.079  3.2854 -1.0080  1.3290
  535MOL0     H72179   2.029   5.426  -0.179  1.2332 -0.5802  1.5881
  535MOL0     H72180   2.043   5.474  -0.014  1.2765 -0.4904  0.5087
  535MOL0     H72181   1.802   5.475   0.015 -1.2511 -0.5602  0.1430
  535MOL0     H72182   1.782   5.354  -0.101  0.2207 -0.2661  1.8465
  535MOL0     H72183   1.866   5.634  -0.176 -0.6953  0.2742  1.7678
  535MOL0     H72184   1.691   5.591  -0.141 -0.6754 -1.9400 -0.6646
  535MOL0     H72185   1.638   5.718  -0.360  0.7786  0.0588  0.4898
  535MOL0     H72186   1.590   5.953  -0.415  0.9718  1.4122 -0.1192
  535MOL0     H72187   1.704   6.039  -0.499  4.4347 -1.7029 -0.3674
  535MOL0     H72188   1.586   5.925  -0.587  2.6771  0.9041 -2.4417
  535MOL0     H72189   1.643   5.969  -0.845 -0.2575 -0.5764 -1.3362
  535MOL0     H72190   1.612   6.046  -1.099  0.6567 -1.2868 -0.4237
  535MOL0     H72191   1.749   6.010  -1.260  0.5882  0.6035 -1.4106
  535MOL0     H72192   1.648   6.116  -1.365 -1.9075  0.8509  1.9046
  535MOL0     H72193   1.874   6.218  -1.461  1.4820 -1.2053 -4.1044
  535MOL0     H72194   1.961   6.106  -1.350 -2.5719 -4.1303  2.8591
  535MOL0     H72195   1.766   5.983  -1.534 -0.0009  1.6684  2.2163
  535MOL0     H72196   1.912   5.919  -1.471  2.1848  0.4836 -0.0605
  535MOL0     H72197   1.947   6.152  -1.671  0.6596  0.1057 -3.0027
  535MOL0     H72198   2.058   6.019  -1.626  0.8881  3.3885 -0.0314
  535MOL0     H72199   1.802   5.975  -1.779  0.6278  1.6410  0.4873
  535MOL0     H72200   1.911   5.848  -1.737 -1.6868 -0.1193  0.7380
  535MOL0     H72201   1.989   6.095  -1.922 -0.5383 -0.2605 -1.5606
  535MOL0     H72202   2.101   5.968  -1.867 -0.1040  1.3022 -0.9694
  535MOL0     H72203   1.925   5.948  -2.099  1.7718  4.4482  1.9839
  535MOL0     H72204   1.854   5.855  -1.962 -0.2621  0.9607  2.4560
  535MOL0     H72205   2.082   5.725  -1.942  1.3870  2.1923  0.8915
  535MOL0     H72206   2.128   5.819  -2.091 -1.6181 -2.1650 -4.7106
  535MOL0     H72207   1.949   6.296  -1.057 -2.4012  3.5183  1.1958
  535MOL0     H72208   1.986   6.225  -0.817  0.4479 -1.8209  1.8811
  535MOL0     H72209   2.045   5.701  -0.628  0.8652 -0.4708  2.0295
  535MOL0     H72210   2.002   5.541  -0.465  1.4084  1.6172  0.2713
  535MOL0     H72211   2.842   4.844   0.984  3.7497  0.5804 -3.5107
  535MOL0     H72212   2.984   4.971   1.162 -0.2014  1.8725  1.1563
  535MOL0     H72213   3.054   5.262   1.460 -0.8147  1.7197  3.0302
  535MOL0     H72214   3.157   5.460   1.612 -0.7230  2.5253 -0.8184
  535MOL0     H72215   3.324   5.446   1.740  0.1525 -0.8618 -1.2710
  535MOL0     H72216   3.484   5.494   1.773 -0.9144  1.2959  4.0750
  535MOL0     H72217   3.262   5.680   1.711  0.4923 -0.6083 -0.3262
  535MOL0     H72218   3.438   5.721   1.725  0.3296 -2.0522 -2.0948
  535MOL0     H72219   3.442   5.655   1.950  3.2259 -2.0349 -4.7911
  535MOL0     H72220   3.289   5.563   1.944 -5.6317  2.8356  0.2866
  535MOL0     H72221   3.309   5.857   1.913 -1.4180  2.6951  1.3025
  535MOL0     H72222   3.262   5.768   2.069 -0.6594 -0.0405 -0.1102
  535MOL0     H72223   2.902   5.747   1.880  0.1668  1.6126 -1.3489
  535MOL0     H72224   3.478   5.463   1.326  0.9208 -4.2747  1.2519
  535MOL0     H72225   3.326   5.329   1.167  0.7860 -1.1336  0.8605
  536MOL0     O72226   9.881   6.824   8.565  0.6275 -0.0522  0.1838
  536MOL0     C72227   9.810   6.746   8.628 -0.2890  1.4294  0.0093
  536MOL0     O72228   9.826   6.698   8.757 -1.0627  0.1839 -0.0794
  536MOL0     C72229   9.955   6.684   8.820  0.0046 -0.9558  0.3873
  536MOL0     C72230   9.957   6.667   8.959 -1.1400  0.2127 -0.0437
  536MOL0     C72231  10.079   6.653   9.021  0.4461  0.3223 -0.5965
  536MOL0     C72232  10.208   6.672   8.959 -0.0250 -0.9729 -0.5775
  536MOL0     O72233  10.331   6.660   9.036 -0.2353 -0.9971 -0.2854
  536MOL0     C72234  10.325   6.703   9.174  0.1334  0.6662  0.5614
  536MOL0     C72235  10.455   6.722   9.249  0.6515 -0.4783 -0.1897
  536MOL0     C72236  10.529   6.594   9.251 -0.5176  0.1780 -0.4844
  536MOL0     C72237  10.645   6.575   9.353  0.2752  0.1579  0.2891
  536MOL0     C72238  10.741   6.462   9.318 -0.2291  0.5693  0.0438
  536MOL0     C72239  10.870   6.445   9.409 -0.2256 -0.9533  0.7311
  536MOL0     C72240  10.992   6.536   9.369  0.3126  0.0928  0.3825
  536MOL0     C72241  11.091   6.556   9.491  0.1503 -0.2475 -0.2421
  536MOL0     N72242  11.211   6.637   9.444 -0.1562 -0.2539 -1.0794
  536MOL0     C72243  11.254   6.750   9.512  0.5131  0.1183  0.1325
  536MOL0     C72244  11.383   6.770   9.486 -0.2791 -0.3530 -0.1211
  536MOL0     C72245  11.474   6.885   9.505 -0.0973 -0.7444  0.3751
  536MOL0     C72246  11.430   6.975   9.619 -0.3865 -0.6057 -1.0864
  536MOL0     C72247  11.537   7.071   9.667 -0.2902 -0.1768 -0.1122
  536MOL0     C72248  11.655   6.991   9.742 -0.7217 -0.3254  0.0551
  536MOL0     O72249  11.608   6.960   9.871 -0.1542 -0.4032  0.2666
  536MOL0     C72250  11.660   6.843   9.924 -0.6244 -0.5989 -0.4953
  536MOL0     C72251  11.763   6.841  10.015 -0.7474 -0.4487  0.7172
  536MOL0     C72252  11.819   6.725  10.066 -0.4695  0.3429  0.8257
  536MOL0     C72253  11.950   6.736  10.146  0.2593 -0.6080 -0.3929
  536MOL0     C72254  11.767   6.596  10.034 -0.3928  0.6116  0.0101
  536MOL0     C72255  11.810   6.457  10.078 -0.4748 -0.6299  0.6890
  536MOL0     O72256  11.713   6.358  10.086  0.3462 -0.0469  0.0386
  536MOL0     C72257  11.745   6.228  10.109  0.3650 -0.2057  0.0949
  536MOL0     C72258  11.784   6.182  10.237 -0.0573  0.7549 -1.2329
  536MOL0     C72259  11.810   6.050  10.261  0.1187 -0.8888 -0.0962
  536MOL0     C72260  11.793   5.954  10.160  0.9507  0.2602 -0.5394
  536MOL0     O72261  11.843   5.827  10.156  0.9112  0.1042 -0.2361
  536MOL0     C72262  11.862   5.761  10.280 -0.1615 -0.6229  0.4671
  536MOL0     C72263  11.774   5.636  10.279 -0.3952  0.1698  0.0428
  536MOL0     C72264  11.618   5.668  10.281  0.0962  0.2960  0.3810
  536MOL0     C72265  11.534   5.549  10.322  0.1225 -0.2417 -0.8564
  536MOL0     C72266  11.391   5.581  10.280  0.2252 -0.8371  0.0232
  536MOL0     C72267  11.315   5.452  10.287  0.6318 -0.0155 -0.0088
  536MOL0     C72268  11.280   5.384  10.155 -0.2007 -0.2435 -0.6100
  536MOL0     C72269  11.256   5.231  10.168 -0.4669 -0.9067  0.1934
  536MOL0    Cl72270  11.230   5.170  10.000 -0.2292  0.3314 -0.2451
  536MOL0     C72271  11.754   5.998  10.035 -0.7098 -0.5374 -0.7738
  536MOL0     C72272  11.728   6.134  10.011  0.7192 -0.2736 -0.3771
  536MOL0     O72273  11.929   6.444  10.081  0.3795 -0.3307  0.0302
  536MOL0     C72274  11.656   6.601   9.943 -0.4630 -0.0193 -0.1774
  536MOL0     C72275  11.609   6.724   9.888 -1.1801  0.2602 -0.1484
  536MOL0     N72276  11.431   6.666   9.422 -0.2506  0.1027 -0.6437
  536MOL0     N72277  11.330   6.582   9.405  0.1634  0.6563  1.0563
  536MOL0     C72278  10.208   6.706   8.823 -0.3630 -0.0768  0.2859
  536MOL0     C72279  10.081   6.696   8.755 -0.2387 -0.3656 -0.3925
  536MOL0     C72280   9.692   6.687   8.572 -0.4370  0.8545  0.7669
  536MOL0     C72281   9.689   6.683   8.438 -0.1039  1.0106 -0.2217
  536MOL0     C72282   9.591   6.609   8.371 -0.9732 -0.3867  0.0571
  536MOL0     C72283   9.490   6.551   8.440  0.1428 -0.9414  1.2792
  536MOL0     O72284   9.379   6.489   8.379 -0.1560  0.1208 -1.2962
  536MOL0     C72285   9.327   6.552   8.264  0.3117 -0.9004  0.3896
  536MOL0     C72286   9.377   6.469   8.143  0.0480 -0.5761  0.0011
  536MOL0     C72287   9.329   6.552   8.018 -0.8048  0.1277 -0.6459
  536MOL0     C72288   9.329   6.466   7.891 -0.3668  0.4939 -0.7261
  536MOL0     C72289   9.239   6.351   7.906 -0.5347  0.1909  0.0124
  536MOL0     C72290   9.169   6.250   7.917  0.5612 -0.0714 -0.1242
  536MOL0     C72291   9.495   6.554   8.576  0.1832 -0.3620  0.2039
  536MOL0     C72292   9.599   6.618   8.646 -0.4597  0.8513 -0.0811
  536MOL0     H72293   9.864   6.660   9.014 -1.1532  3.5553  0.5622
  536MOL0     H72294  10.082   6.610   9.121 -0.1335 -0.2782 -0.8302
  536MOL0     H72295  10.270   6.797   9.166 -4.9903 -1.8821  1.0471
  536MOL0     H72296  10.262   6.626   9.220  0.8324  0.9197  2.0232
  536MOL0     H72297  10.516   6.788   9.187 -1.2320 -0.5688 -2.2682
  536MOL0     H72298  10.451   6.760   9.351  4.4636  1.2281 -0.4950
  536MOL0     H72299  10.460   6.513   9.278 -1.2198  0.9021 -0.0488
  536MOL0     H72300  10.572   6.585   9.151  0.9355  0.4003  0.0972
  536MOL0     H72301  10.709   6.664   9.352  3.6947 -2.1239 -1.0099
  536MOL0     H72302  10.594   6.572   9.450 -0.1452  1.9225  0.1587
  536MOL0     H72303  10.686   6.367   9.315 -0.7390  0.8764 -0.7682
  536MOL0     H72304  10.775   6.477   9.215  2.4948 -3.3754  0.1884
  536MOL0     H72305  10.847   6.473   9.512  2.5364 -0.8998  1.3874
  536MOL0     H72306  10.886   6.337   9.402 -0.0925 -0.8393 -3.3137
  536MOL0     H72307  11.035   6.501   9.275 -1.6549 -0.6032 -0.3090
  536MOL0     H72308  10.960   6.641   9.360 -0.7389  0.1048  3.2138
  536MOL0     H72309  11.130   6.461   9.530 -0.2829  0.1593  1.2526
  536MOL0     H72310  11.039   6.600   9.577  0.1796  1.1949 -0.9367
  536MOL0     H72311  11.190   6.815   9.570  1.4904  1.2374 -0.0157
  536MOL0     H72312  11.573   6.839   9.509 -0.3432 -1.5292 -1.4695
  536MOL0     H72313  11.475   6.946   9.414  0.1054 -1.0411  0.1754
  536MOL0     H72314  11.402   6.912   9.704  0.0025 -0.1441 -0.6094
  536MOL0     H72315  11.328   7.014   9.615 -0.4465 -0.2037  1.9670
  536MOL0     H72316  11.491   7.146   9.733 -2.6351 -2.0583  0.5186
  536MOL0     H72317  11.579   7.130   9.584  1.6401 -0.4157  0.6358
  536MOL0     H72318  11.746   7.050   9.760 -0.5190 -1.1444  1.9884
  536MOL0     H72319  11.687   6.915   9.670  0.5302  2.0488 -2.0384
  536MOL0     H72320  11.819   6.933  10.025  1.0365 -1.3424 -0.4543
  536MOL0     H72321  12.036   6.748  10.079 -0.9663 -0.9174 -2.0769
  536MOL0     H72322  11.939   6.824  10.210 -0.7688 -0.8948 -0.1652
  536MOL0     H72323  11.970   6.646  10.204 -2.3100 -1.7166 -1.0825
  536MOL0     H72324  11.798   6.251  10.320 -1.4733 -0.9510  0.5133
  536MOL0     H72325  11.842   6.024  10.361  0.7831 -0.6760 -0.2450
  536MOL0     H72326  11.970   5.746  10.293  0.2740  0.7476 -1.1273
  536MOL0     H72327  11.844   5.823  10.368  1.4588  0.4650  0.0870
  536MOL0     H72328  11.792   5.582  10.185 -0.6757  0.3547 -0.1209
  536MOL0     H72329  11.800   5.570  10.362  2.3791 -0.0903 -0.9329
  536MOL0     H72330  11.605   5.705  10.179 -0.4478 -0.5128  0.1464
  536MOL0     H72331  11.612   5.741  10.362  2.2517 -0.3602  1.2050
  536MOL0     H72332  11.573   5.461  10.270  2.2594  0.6371 -0.8450
  536MOL0     H72333  11.542   5.537  10.431 -1.3070 -1.4212 -0.8538
  536MOL0     H72334  11.402   5.617  10.178  5.0627  0.2153  0.6453
  536MOL0     H72335  11.348   5.661  10.341 -2.6333 -0.8378 -1.8344
  536MOL0     H72336  11.374   5.377  10.341  0.7566 -1.3925 -1.9562
  536MOL0     H72337  11.225   5.482  10.341 -1.5931 -0.8926 -2.9745
  536MOL0     H72338  11.370   5.396  10.093  0.6137 -0.6021  0.4678
  536MOL0     H72339  11.189   5.430  10.116 -0.6039 -0.3858  0.1510
  536MOL0     H72340  11.177   5.209  10.241 -1.0181  3.9320  1.4076
  536MOL0     H72341  11.353   5.188  10.197  0.4995 -0.6992 -2.4770
  536MOL0     H72342  11.745   5.941   9.943 -0.4340  1.0753 -1.8461
  536MOL0     H72343  11.695   6.162   9.911  0.4485 -2.9237 -1.1137
  536MOL0     H72344  11.606   6.509   9.917  0.8006 -1.2519  1.5110
  536MOL0     H72345  11.538   6.706   9.807 -2.9863  0.1879  1.3752
  536MOL0     H72346  10.292   6.726   8.758  0.9823 -1.1701  1.6344
  536MOL0     H72347  10.095   6.712   8.648  3.4561 -1.3466 -0.1611
  536MOL0     H72348   9.757   6.740   8.375  1.9599 -1.7527 -0.6925
  536MOL0     H72349   9.589   6.618   8.263  1.7106  0.3033 -0.0100
  536MOL0     H72350   9.218   6.562   8.269  0.5192  1.8483  2.3863
  536MOL0     H72351   9.362   6.656   8.260 -1.9945 -0.0966 -0.3455
  536MOL0     H72352   9.325   6.373   8.140  2.3065 -1.9338 -4.6634
  536MOL0     H72353   9.484   6.448   8.153 -0.1493 -1.2956  0.7250
  536MOL0     H72354   9.393   6.640   8.006  1.5823 -1.6022 -1.4434
  536MOL0     H72355   9.228   6.589   8.039 -1.2604  0.7781 -3.6301
  536MOL0     H72356   9.433   6.436   7.875  0.7152  2.1743  2.2720
  536MOL0     H72357   9.297   6.517   7.800  1.2979 -1.4347 -2.4831
  536MOL0     H72358   9.092   6.175   7.914 -0.0833  0.5762  0.1548
  536MOL0     H72359   9.420   6.503   8.636  2.5243 -0.8682  2.9483
  536MOL0     H72360   9.615   6.608   8.753 -1.9053 -0.3047  0.0654
  537MOL0     O72361   9.301   2.388   7.046 -0.7120 -0.9654 -0.0662
  537MOL0     C72362   9.251   2.484   6.989 -0.2449  0.6187  0.1668
  537MOL0     O72363   9.168   2.473   6.875 -0.6458 -0.0756  0.0367
  537MOL0     C72364   9.108   2.362   6.844  0.5516 -0.5767  0.4741
  537MOL0     C72365   9.075   2.347   6.702  0.3101  0.4516 -0.2136
  537MOL0     C72366   9.003   2.225   6.667  0.1034  0.2332 -1.4478
  537MOL0     C72367   8.954   2.135   6.768  1.4974  0.1768 -0.7141
  537MOL0     O72368   8.895   2.017   6.731  0.6773  0.4613  0.9185
  537MOL0     C72369   8.998   1.916   6.720  0.1887  0.5166 -0.6469
  537MOL0     C72370   9.062   1.918   6.574  0.0830  0.5630 -0.9659
  537MOL0     C72371   9.162   1.811   6.556 -0.0105 -0.0049  0.0687
  537MOL0     C72372   9.243   1.844   6.426  0.3853 -0.0625 -0.2456
  537MOL0     C72373   9.314   1.712   6.370 -0.9921  1.4547  0.0524
  537MOL0     C72374   9.405   1.750   6.254 -0.1724 -0.6649  0.3938
  537MOL0     C72375   9.488   1.633   6.199 -0.8592  0.6702 -0.1521
  537MOL0     C72376   9.561   1.646   6.069  0.7337  0.0192 -0.2206
  537MOL0     N72377   9.485   1.686   5.949  0.4850 -0.9482 -0.3940
  537MOL0     C72378   9.433   1.822   5.921 -0.5789  0.2584 -0.0464
  537MOL0     C72379   9.348   1.797   5.815 -0.3366  0.0613  0.2827
  537MOL0     C72380   9.254   1.887   5.742 -0.4995 -0.2425 -0.2937
  537MOL0     C72381   9.264   1.887   5.588 -0.0675 -0.3839 -0.5235
  537MOL0     C72382   9.193   2.009   5.549  0.6943 -0.7916  0.4296
  537MOL0     C72383   9.170   2.015   5.401 -1.0032  0.4023  0.3568
  537MOL0     O72384   9.118   2.143   5.376  0.3605  0.3430 -0.5607
  537MOL0     C72385   9.084   2.170   5.252 -0.3593 -0.2523 -0.1159
  537MOL0     C72386   8.995   2.281   5.233  0.0574  0.1681  1.8247
  537MOL0     C72387   8.928   2.317   5.121  0.7954 -1.0236  0.7215
  537MOL0     C72388   8.847   2.444   5.121  0.0380  0.1466 -0.6909
  537MOL0     C72389   8.941   2.239   5.004 -0.4758 -0.5041  0.2100
  537MOL0     C72390   8.863   2.247   4.885  0.1139  0.2864 -0.6309
  537MOL0     O72391   8.922   2.204   4.763 -0.5908  0.0346  0.0903
  537MOL0     C72392   8.855   2.238   4.642 -0.7102 -0.4503 -1.0464
  537MOL0     C72393   8.832   2.144   4.545 -0.4167 -0.3597  0.3955
  537MOL0     C72394   8.765   2.178   4.424 -0.2844 -0.3264 -0.2154
  537MOL0     C72395   8.712   2.305   4.413 -0.1422  0.1855 -0.1111
  537MOL0     O72396   8.618   2.320   4.312 -0.2321  1.1302  0.1469
  537MOL0     C72397   8.552   2.444   4.282 -0.6214  0.1699  0.6125
  537MOL0     C72398   8.637   2.551   4.204  0.8614 -0.0463  0.2640
  537MOL0     C72399   8.661   2.508   4.053  0.3991 -0.8362 -0.4596
  537MOL0     C72400   8.743   2.602   3.963 -1.5408 -0.1852  0.3045
  537MOL0     C72401   8.682   2.742   3.952 -0.2493 -0.1229  0.6725
  537MOL0     C72402   8.777   2.830   3.871 -0.3206  0.9870  0.6497
  537MOL0     C72403   8.764   2.812   3.716 -0.1615  0.4348 -0.0734
  537MOL0     C72404   8.855   2.892   3.634  0.1550  0.9238  0.5125
  537MOL0    Cl72405   9.016   2.819   3.633 -0.9131  0.0460  0.2627
  537MOL0     C72406   8.749   2.406   4.501  0.8052 -0.2781 -0.6362
  537MOL0     C72407   8.830   2.368   4.613  0.4295 -0.3836  0.2318
  537MOL0     O72408   8.752   2.292   4.902  0.2051 -0.6903 -0.2797
  537MOL0     C72409   9.032   2.131   5.009 -0.4614 -0.5490 -0.3194
  537MOL0     C72410   9.098   2.097   5.132 -0.0082  0.2714 -0.1296
  537MOL0     N72411   9.345   1.661   5.781 -0.2512 -0.8461 -0.5375
  537MOL0     N72412   9.422   1.597   5.866  0.0061  0.1257  0.1659
  537MOL0     C72413   8.968   2.169   6.902 -0.0120 -0.1186  0.2343
  537MOL0     C72414   9.050   2.277   6.936 -0.7820 -0.1774 -0.7641
  537MOL0     C72415   9.288   2.610   7.042  0.8954  0.9655 -0.0535
  537MOL0     C72416   9.235   2.721   6.991  0.5975 -0.6573 -0.0729
  537MOL0     C72417   9.271   2.852   7.031  0.2595  0.4363  0.0810
  537MOL0     C72418   9.366   2.873   7.126 -0.7480  0.1031 -0.8735
  537MOL0     O72419   9.417   2.995   7.146  0.1651 -0.4126 -0.4338
  537MOL0     C72420   9.409   3.025   7.290 -0.1440 -0.0561  1.0272
  537MOL0     C72421   9.556   3.058   7.319 -0.2857  0.5813  0.2020
  537MOL0     C72422   9.628   3.163   7.226 -0.9732  0.0023 -0.0232
  537MOL0     C72423   9.730   3.074   7.148  1.1170  1.0619 -0.0243
  537MOL0     C72424   9.755   3.106   7.009 -0.7964  0.5492 -0.1922
  537MOL0     C72425   9.780   3.133   6.891 -0.5164  0.3032  0.9754
  537MOL0     C72426   9.423   2.756   7.179 -0.5482  0.8474 -0.6313
  537MOL0     C72427   9.368   2.631   7.155  0.1873  0.6880 -0.2237
  537MOL0     H72428   9.123   2.422   6.641 -0.9773  0.6023 -1.0792
  537MOL0     H72429   9.004   2.205   6.561  1.8605 -0.1541 -1.3924
  537MOL0     H72430   9.071   1.924   6.801 -0.2241 -1.6485 -0.0050
  537MOL0     H72431   8.952   1.820   6.741 -1.5414  1.7777  1.7768
  537MOL0     H72432   8.978   1.912   6.504 -2.7109 -1.6301  2.2479
  537MOL0     H72433   9.104   2.016   6.552  0.1468  1.1982  1.6878
  537MOL0     H72434   9.224   1.804   6.646  0.5114 -1.4201 -0.3662
  537MOL0     H72435   9.101   1.720   6.551 -0.2495  0.2143 -3.4424
  537MOL0     H72436   9.178   1.893   6.353  1.3934 -0.5429 -1.5205
  537MOL0     H72437   9.325   1.913   6.446 -0.2476  0.2826  1.2495
  537MOL0     H72438   9.378   1.656   6.439 -2.1120 -0.9536 -0.7505
  537MOL0     H72439   9.245   1.630   6.348 -0.6739 -0.2066  4.2567
  537MOL0     H72440   9.342   1.796   6.177  2.0970  2.9818  0.4758
  537MOL0     H72441   9.478   1.829   6.273 -0.6250 -0.5419  1.7908
  537MOL0     H72442   9.560   1.613   6.278 -2.9549  2.6009  2.4653
  537MOL0     H72443   9.424   1.545   6.191 -0.6922  0.6291 -1.1788
  537MOL0     H72444   9.596   1.545   6.044  1.3049  0.2096 -0.2114
  537MOL0     H72445   9.640   1.722   6.078 -0.5744  1.5734 -1.3481
  537MOL0     H72446   9.459   1.914   5.972  2.4404 -0.0543 -0.8577
  537MOL0     H72447   9.147   1.876   5.762 -0.3859  0.6717  0.9370
  537MOL0     H72448   9.283   1.989   5.769  1.6420 -0.4162 -1.6668
  537MOL0     H72449   9.209   1.805   5.541  1.7643 -0.2713 -3.0582
  537MOL0     H72450   9.372   1.889   5.567  0.3159 -0.3399  1.2698
  537MOL0     H72451   9.243   2.100   5.584  2.8485 -1.4622 -0.7259
  537MOL0     H72452   9.087   2.001   5.574 -0.6822 -2.7150 -4.6908
  537MOL0     H72453   9.121   1.930   5.353  0.4923  0.8645 -2.1467
  537MOL0     H72454   9.273   2.005   5.366 -0.5310 -1.8193  2.1289
  537MOL0     H72455   8.994   2.354   5.313 -0.1064  0.3672  1.6432
  537MOL0     H72456   8.874   2.510   5.038 -0.3719 -0.1989 -1.1034
  537MOL0     H72457   8.741   2.417   5.126  0.3270 -0.9050  0.4313
  537MOL0     H72458   8.858   2.497   5.216 -0.4331  1.8532 -1.5643
  537MOL0     H72459   8.839   2.038   4.566 -1.2266 -0.7627 -1.1926
  537MOL0     H72460   8.754   2.092   4.359 -0.9904 -2.8257  2.9493
  537MOL0     H72461   8.464   2.422   4.220  1.0985  1.1774 -2.3909
  537MOL0     H72462   8.527   2.489   4.379 -2.5408  1.2710 -0.3280
  537MOL0     H72463   8.579   2.643   4.201  0.5905 -0.2356 -0.8133
  537MOL0     H72464   8.732   2.574   4.253  2.2390 -3.4280 -0.5185
  537MOL0     H72465   8.562   2.499   4.006  0.5483  0.7307 -1.1447
  537MOL0     H72466   8.709   2.410   4.044 -1.4103 -1.6196 -3.0238
  537MOL0     H72467   8.841   2.596   4.011 -1.5247 -0.9821  0.1877
  537MOL0     H72468   8.743   2.553   3.865 -2.6742  0.4798 -0.0495
  537MOL0     H72469   8.667   2.795   4.047 -0.3730  1.4616 -0.1869
  537MOL0     H72470   8.590   2.734   3.894  1.0557  0.1886 -1.5340
  537MOL0     H72471   8.760   2.936   3.888 -0.5656  1.3363 -1.5197
  537MOL0     H72472   8.882   2.811   3.892  0.3200  2.3201 -1.1338
  537MOL0     H72473   8.665   2.849   3.690 -0.9963 -0.2616  1.9141
  537MOL0     H72474   8.753   2.710   3.677 -0.0203  1.3748 -2.7232
  537MOL0     H72475   8.858   2.993   3.677  0.3330  0.8722  0.6228
  537MOL0     H72476   8.834   2.898   3.527 -1.1759  1.2582  0.7796
  537MOL0     H72477   8.711   2.507   4.493  2.4907  0.7350  2.4655
  537MOL0     H72478   8.851   2.443   4.688 -1.9748  0.2470  0.3465
  537MOL0     H72479   9.053   2.068   4.924 -1.6710 -0.0127 -1.0404
  537MOL0     H72480   9.153   2.004   5.141 -1.3875 -0.4734  1.0028
  537MOL0     H72481   8.946   2.105   6.987  2.1743 -4.5910 -2.2526
  537MOL0     H72482   9.065   2.299   7.041 -4.6773  0.9163 -0.2754
  537MOL0     H72483   9.169   2.704   6.907  1.5326 -0.8587 -0.7898
  537MOL0     H72484   9.229   2.935   6.974 -0.9017  1.0460  1.7336
  537MOL0     H72485   9.350   3.118   7.291  0.0114  0.0962 -1.0612
  537MOL0     H72486   9.354   2.951   7.349 -1.6421 -1.0366 -1.4464
  537MOL0     H72487   9.605   2.960   7.327 -4.7672 -1.8648  1.4445
  537MOL0     H72488   9.563   3.104   7.418  0.1456  2.4887 -0.6734
  537MOL0     H72489   9.689   3.228   7.289 -2.3924 -0.5108  1.9910
  537MOL0     H72490   9.564   3.231   7.169 -1.1264  0.4224  0.6361
  537MOL0     H72491   9.695   2.971   7.148  1.1628  0.9001 -4.1931
  537MOL0     H72492   9.813   3.071   7.220 -1.1298  2.6169  2.8631
  537MOL0     H72493   9.798   3.150   6.787 -3.0290 -3.2241 -0.2303
  537MOL0     H72494   9.503   2.762   7.252 -1.2937  0.9080  0.1938
  537MOL0     H72495   9.415   2.541   7.194  0.2026 -0.3572 -2.5112
  538MOL0     O72496   7.939   4.487   5.405 -0.7146 -0.8318  0.3956
  538MOL0     C72497   8.002   4.486   5.514  1.0042  0.2641  0.9799
  538MOL0     O72498   8.113   4.408   5.533  0.3119 -0.5893  0.2061
  538MOL0     C72499   8.146   4.296   5.462  0.1097  0.6634 -1.1401
  538MOL0     C72500   8.275   4.252   5.486  0.1657  0.5161  0.3785
  538MOL0     C72501   8.324   4.125   5.427 -0.6310 -0.2637  0.0048
  538MOL0     C72502   8.240   4.051   5.350  0.5780  0.2167  0.5056
  538MOL0     O72503   8.276   3.935   5.291  0.1911  0.5505 -0.8928
  538MOL0     C72504   8.193   3.817   5.322  0.1382  0.6403  0.2617
  538MOL0     C72505   8.244   3.693   5.250  0.2571 -0.8483  0.0509
  538MOL0     C72506   8.131   3.616   5.182  0.5501 -0.2799 -0.3621
  538MOL0     C72507   8.169   3.533   5.059 -0.2214  1.3047 -0.0097
  538MOL0     C72508   8.037   3.498   4.975 -0.4073  0.2048  0.2318
  538MOL0     C72509   8.062   3.416   4.847 -0.7638  0.0700  1.1761
  538MOL0     C72510   7.944   3.396   4.755 -0.0190  0.3517 -0.2269
  538MOL0     C72511   7.865   3.521   4.714 -0.5991 -0.2319 -0.5856
  538MOL0     N72512   7.958   3.585   4.621  0.8272 -0.6783 -0.1431
  538MOL0     C72513   7.989   3.541   4.501  0.0677  0.6786  0.4747
  538MOL0     C72514   8.083   3.618   4.454 -1.2305 -0.5670  0.0788
  538MOL0     C72515   8.157   3.605   4.321  0.7987 -0.6588  0.6898
  538MOL0     C72516   8.256   3.490   4.325 -1.3116 -0.9921 -0.5121
  538MOL0     C72517   8.363   3.518   4.432  0.2364  0.3333 -0.4607
  538MOL0     C72518   8.341   3.428   4.560 -0.7213 -0.4935  1.4552
  538MOL0     O72519   8.347   3.289   4.512 -0.7356  0.3380  0.2460
  538MOL0     C72520   8.284   3.194   4.584  0.0469 -0.4938 -0.2928
  538MOL0     C72521   8.289   3.182   4.726  0.8001  0.3148 -0.3518
  538MOL0     C72522   8.249   3.071   4.799  0.3099  0.8898 -0.0076
  538MOL0     C72523   8.263   3.065   4.958  0.2266  0.2374  1.6521
  538MOL0     C72524   8.178   2.968   4.728 -1.0956  0.3413  0.5808
  538MOL0     C72525   8.124   2.841   4.776  0.4854  0.6297  0.1928
  538MOL0     O72526   8.176   2.800   4.894  0.1488 -0.2888 -0.1255
  538MOL0     C72527   8.131   2.682   4.941 -0.2946  0.3583 -0.6328
  538MOL0     C72528   8.168   2.566   4.877  0.2019 -0.9869 -0.1411
  538MOL0     C72529   8.100   2.451   4.906  0.0208 -0.5669 -0.3334
  538MOL0     C72530   8.005   2.440   5.016  0.2390  0.4670 -0.9378
  538MOL0     O72531   7.924   2.331   5.053  0.1980 -0.0149  1.0495
  538MOL0     C72532   7.919   2.217   4.971  0.2586  0.3984 -1.1844
  538MOL0     C72533   7.810   2.137   5.030 -0.1987 -0.5082 -0.2913
  538MOL0     C72534   7.801   2.003   4.950 -0.1011  1.0533 -0.4495
  538MOL0     C72535   7.731   1.886   5.029 -0.4838  0.4024  0.0372
  538MOL0     C72536   7.723   1.748   4.955 -0.9098  0.3511  0.1624
  538MOL0     C72537   7.730   1.637   5.057  0.3654  0.2284  0.6579
  538MOL0     C72538   7.868   1.599   5.111 -0.8884  0.2416  0.4787
  538MOL0     C72539   7.950   1.507   5.009  0.0563 -0.2412 -0.7834
  538MOL0    Cl72540   7.846   1.380   4.937 -0.3110  0.1573 -0.1384
  538MOL0     C72541   7.986   2.555   5.101 -0.8230 -0.0729 -0.2390
  538MOL0     C72542   8.043   2.679   5.055 -0.4880 -0.0731  0.5145
  538MOL0     O72543   8.031   2.783   4.714  0.5918 -0.1770 -0.5084
  538MOL0     C72544   8.165   2.983   4.584  0.5337  0.4491 -0.8412
  538MOL0     C72545   8.222   3.097   4.515  0.2742 -0.1541  0.4849
  538MOL0     N72546   8.112   3.717   4.549  0.4397 -0.2414  0.1755
  538MOL0     N72547   8.031   3.689   4.648  0.0859 -0.6962 -0.0607
  538MOL0     C72548   8.103   4.089   5.332 -0.5187 -0.0821 -1.4097
  538MOL0     C72549   8.064   4.213   5.382  0.1726 -0.1660 -0.0691
  538MOL0     C72550   7.972   4.592   5.623  0.1035 -0.2181  0.0959
  538MOL0     C72551   8.044   4.592   5.746  0.0604  0.2419 -0.2240
  538MOL0     C72552   8.023   4.691   5.843  0.2980 -0.2432  0.4971
  538MOL0     C72553   7.916   4.782   5.824 -0.9291 -1.4271 -1.1121
  538MOL0     O72554   7.888   4.854   5.936  0.3395 -0.3286 -0.3018
  538MOL0     C72555   7.839   4.991   5.920  0.4211 -0.3372  0.7794
  538MOL0     C72556   7.860   5.048   6.063 -0.1637 -0.7337  0.0613
  538MOL0     C72557   8.007   5.065   6.100  0.1185  0.0327  0.9685
  538MOL0     C72558   8.082   5.167   6.015 -0.4533  0.0201 -0.6293
  538MOL0     C72559   8.129   5.114   5.888  0.2580 -0.3663 -0.3734
  538MOL0     C72560   8.191   5.076   5.796  1.3381 -0.0511  0.4203
  538MOL0     C72561   7.839   4.776   5.710  0.4644  0.3206  1.0930
  538MOL0     C72562   7.872   4.687   5.602 -0.3169 -0.0270  0.1867
  538MOL0     H72563   8.333   4.309   5.557 -2.7284  0.5280  2.9397
  538MOL0     H72564   8.428   4.098   5.443 -0.5860  0.4962  1.2097
  538MOL0     H72565   8.185   3.782   5.426 -6.6860 -3.1926 -0.9742
  538MOL0     H72566   8.090   3.830   5.289  0.4747  1.3152 -0.5766
  538MOL0     H72567   8.325   3.711   5.180 -1.1487 -0.3722 -1.5218
  538MOL0     H72568   8.276   3.622   5.327 -5.6927  0.0830  4.0389
  538MOL0     H72569   8.077   3.553   5.254  0.8081 -1.5129 -1.2168
  538MOL0     H72570   8.071   3.693   5.133 -1.3433 -1.2451  0.2984
  538MOL0     H72571   8.234   3.601   5.003  1.1158 -0.7558 -1.1082
  538MOL0     H72572   8.225   3.443   5.085  3.0304  2.9508 -0.7321
  538MOL0     H72573   7.969   3.450   5.047 -0.4673  4.1976  3.1896
  538MOL0     H72574   8.001   3.598   4.953  0.3612  0.3296 -0.5055
  538MOL0     H72575   8.146   3.460   4.791 -0.5685 -2.8223 -1.0253
  538MOL0     H72576   8.089   3.315   4.878 -0.1783  0.4779  2.0278
  538MOL0     H72577   7.978   3.338   4.669 -0.3984 -0.1718 -0.0355
  538MOL0     H72578   7.857   3.347   4.802 -1.4446  1.8745 -1.1535
  538MOL0     H72579   7.841   3.574   4.806  2.6874 -0.4680  0.5486
  538MOL0     H72580   7.768   3.505   4.666 -0.7190  0.9145 -0.7550
  538MOL0     H72581   7.946   3.455   4.451  1.0474 -0.7856  2.0561
  538MOL0     H72582   8.090   3.604   4.234  0.1621  0.5160  1.1510
  538MOL0     H72583   8.220   3.691   4.299  0.1477 -0.3242  0.1161
  538MOL0     H72584   8.317   3.483   4.234 -1.4755 -0.2801 -0.6886
  538MOL0     H72585   8.207   3.395   4.344  0.2494 -1.4519  1.7481
  538MOL0     H72586   8.364   3.620   4.472 -4.2648 -0.2978  1.9148
  538MOL0     H72587   8.464   3.486   4.404 -0.2759 -0.1296 -1.8387
  538MOL0     H72588   8.237   3.453   4.587 -1.7045 -1.3842 -1.2157
  538MOL0     H72589   8.415   3.449   4.638  2.0296 -1.6302 -0.6789
  538MOL0     H72590   8.337   3.258   4.788  1.1727 -1.3813  1.5302
  538MOL0     H72591   8.167   3.036   5.001  1.1911 -2.8909  1.9310
  538MOL0     H72592   8.332   2.989   4.995 -1.4698 -0.7559  2.8858
  538MOL0     H72593   8.300   3.161   4.995  1.3829  0.5312 -0.1156
  538MOL0     H72594   8.246   2.558   4.802 -0.3448 -2.8304 -0.5610
  538MOL0     H72595   8.115   2.362   4.846  0.8014 -1.1976  0.7698
  538MOL0     H72596   7.916   2.230   4.862 -2.7781  2.5087 -0.9775
  538MOL0     H72597   8.009   2.160   4.994  0.8979  0.9601 -2.1774
  538MOL0     H72598   7.830   2.126   5.137  0.9168  2.8461 -0.0490
  538MOL0     H72599   7.720   2.196   5.013  0.7383  0.4504 -2.3316
  538MOL0     H72600   7.902   1.964   4.934 -1.6648 -3.8148 -0.2080
  538MOL0     H72601   7.756   2.017   4.852  2.7124  1.4408 -1.7868
  538MOL0     H72602   7.784   1.876   5.124 -0.4537  1.6917  0.1764
  538MOL0     H72603   7.627   1.912   5.050 -0.5314 -0.7584  1.4171
  538MOL0     H72604   7.807   1.747   4.885  2.9019 -2.0096  4.1870
  538MOL0     H72605   7.627   1.736   4.904 -1.1294  0.2427  0.5876
  538MOL0     H72606   7.658   1.660   5.137 -1.5893 -0.2615 -0.8948
  538MOL0     H72607   7.680   1.553   5.009 -0.7554  0.6310  1.0838
  538MOL0     H72608   7.864   1.538   5.202 -3.0458 -0.9224 -0.3201
  538MOL0     H72609   7.927   1.690   5.119  1.8531 -1.0334 -2.7903
  538MOL0     H72610   8.038   1.472   5.063  0.8905  1.1598 -1.1876
  538MOL0     H72611   7.987   1.574   4.931 -0.2445 -2.1959 -2.7096
  538MOL0     H72612   7.941   2.555   5.200 -0.7797 -2.1666 -0.1646
  538MOL0     H72613   8.019   2.773   5.103 -0.6226 -0.5463  1.3970
  538MOL0     H72614   8.112   2.911   4.523  1.3295 -0.1458 -0.8327
  538MOL0     H72615   8.218   3.097   4.406 -0.9634 -0.8579  0.5163
  538MOL0     H72616   8.031   4.021   5.287  1.0966 -1.2742 -2.3219
  538MOL0     H72617   7.963   4.245   5.358  0.3057  0.1753 -0.1853
  538MOL0     H72618   8.120   4.520   5.775 -2.0670 -2.0319  0.0496
  538MOL0     H72619   8.075   4.691   5.938  0.2157  1.1383  0.5580
  538MOL0     H72620   7.891   5.050   5.844  0.1250 -2.4954 -1.2329
  538MOL0     H72621   7.735   4.995   5.887  1.2833  0.2546 -2.1446
  538MOL0     H72622   7.812   4.983   6.137 -0.1997  0.3121  0.9771
  538MOL0     H72623   7.807   5.144   6.067  2.6374  0.8631  1.8989
  538MOL0     H72624   8.055   4.967   6.087  0.3047  0.2778 -0.3918
  538MOL0     H72625   8.022   5.094   6.204  1.1847  0.9658  0.5843
  538MOL0     H72626   8.170   5.209   6.062  0.2935 -2.0408 -0.0840
  538MOL0     H72627   8.004   5.240   5.989 -2.4313 -1.5433  0.5451
  538MOL0     H72628   8.241   5.056   5.703 -0.1644  2.9152 -1.1650
  538MOL0     H72629   7.767   4.856   5.693  0.8473  0.8247  1.7971
  538MOL0     H72630   7.824   4.689   5.505  1.3450 -0.1889 -0.6874
  539MOL0     O72631   8.460   3.659   3.211 -0.0660  0.9710 -0.9456
  539MOL0     C72632   8.398   3.550   3.198 -0.0248  0.0711  0.1208
  539MOL0     O72633   8.397   3.447   3.292 -0.3783 -0.2420 -0.5209
  539MOL0     C72634   8.471   3.459   3.410  0.5648 -0.9291  0.1197
  539MOL0     C72635   8.417   3.547   3.512  0.2054  0.3725  0.0211
  539MOL0     C72636   8.490   3.563   3.631 -0.1726  0.7544 -0.0092
  539MOL0     C72637   8.621   3.519   3.648  0.7902  0.4328 -0.2267
  539MOL0     O72638   8.693   3.570   3.750  0.2882 -0.5336 -0.9924
  539MOL0     C72639   8.826   3.522   3.773 -0.3182  0.1704 -0.0637
  539MOL0     C72640   8.920   3.601   3.866 -0.6262  0.2313  0.1260
  539MOL0     C72641   8.847   3.669   3.981 -0.1469 -0.1624 -0.8615
  539MOL0     C72642   8.752   3.582   4.060 -0.3691  0.8247 -0.8036
  539MOL0     C72643   8.708   3.638   4.199 -0.3703 -0.8817  0.5238
  539MOL0     C72644   8.606   3.759   4.172  0.0055  1.1731  0.4466
  539MOL0     C72645   8.584   3.830   4.304  0.5728  0.8395 -0.4333
  539MOL0     C72646   8.523   3.964   4.252 -0.1274  0.0311 -1.0215
  539MOL0     N72647   8.638   4.050   4.222 -0.4977 -0.2495 -0.5944
  539MOL0     C72648   8.703   4.128   4.319  0.3660 -0.0831  0.0138
  539MOL0     C72649   8.794   4.202   4.245 -0.4114  0.4090 -0.3632
  539MOL0     C72650   8.890   4.309   4.310 -0.1753  0.0964  0.1927
  539MOL0     C72651   8.967   4.245   4.428  0.6104 -0.8000 -0.0256
  539MOL0     C72652   9.046   4.125   4.381  0.1707  0.4739  1.0705
  539MOL0     C72653   9.150   4.073   4.495  1.0979  0.3742  1.0581
  539MOL0     O72654   9.252   3.998   4.425 -0.3300  0.9419  0.6762
  539MOL0     C72655   9.238   3.862   4.395 -0.4822  0.1087 -0.5926
  539MOL0     C72656   9.293   3.820   4.278  0.2330 -0.2327  1.0662
  539MOL0     C72657   9.257   3.697   4.216  0.3978 -0.0008  0.9205
  539MOL0     C72658   9.313   3.673   4.074 -0.4855  1.1157 -1.0010
  539MOL0     C72659   9.175   3.605   4.289  0.7174  0.7068  0.0844
  539MOL0     C72660   9.135   3.476   4.228 -0.6099 -0.2476  0.0246
  539MOL0     O72661   9.217   3.414   4.126 -0.4037 -0.2878 -0.2856
  539MOL0     C72662   9.201   3.274   4.114 -0.1631 -0.3575  0.5166
  539MOL0     C72663   9.302   3.183   4.141  0.6788  0.2847 -0.1898
  539MOL0     C72664   9.299   3.047   4.131 -0.1355 -0.6409 -0.0926
  539MOL0     C72665   9.170   2.999   4.103  0.4094  1.2067  1.1799
  539MOL0     O72666   9.138   2.859   4.105 -0.2363 -0.3219  1.3129
  539MOL0     C72667   9.237   2.757   4.111 -0.5361  0.5768 -1.0846
  539MOL0     C72668   9.151   2.621   4.119 -0.4269  0.8145 -0.4573
  539MOL0     C72669   9.212   2.521   4.226  0.3828  0.0488  0.2123
  539MOL0     C72670   9.153   2.384   4.202 -0.0997  0.5404 -0.0421
  539MOL0     C72671   9.221   2.264   4.264 -0.0566 -0.2412  1.2425
  539MOL0     C72672   9.145   2.133   4.243  0.4687  0.4913  0.9974
  539MOL0     C72673   9.231   2.010   4.293  0.7866 -0.4893 -0.4240
  539MOL0     C72674   9.160   1.876   4.282  0.5805 -0.1533  0.5015
  539MOL0    Cl72675   9.290   1.763   4.324 -0.0216 -0.1473  0.1920
  539MOL0     C72676   9.066   3.084   4.065  0.2998 -0.7524 -0.1783
  539MOL0     C72677   9.081   3.222   4.073 -0.3299 -0.3432 -0.9081
  539MOL0     O72678   9.043   3.421   4.286 -0.3651  0.0173 -0.2427
  539MOL0     C72679   9.130   3.649   4.413 -0.1288  0.7026  0.8949
  539MOL0     C72680   9.160   3.772   4.472  0.6476  0.0069 -0.2056
  539MOL0     N72681   8.776   4.161   4.113 -0.8262  0.0742  0.3469
  539MOL0     N72682   8.703   4.056   4.101  0.9904  0.1716  0.8056
  539MOL0     C72683   8.667   3.421   3.555 -0.6364  0.8239 -0.9155
  539MOL0     C72684   8.589   3.386   3.439  0.0077  0.2983  0.4204
  539MOL0     C72685   8.300   3.530   3.088  0.2111 -0.1373  0.2702
  539MOL0     C72686   8.231   3.413   3.085  0.4508  0.2276 -1.3218
  539MOL0     C72687   8.150   3.380   2.980 -0.2577 -1.1133  1.0577
  539MOL0     C72688   8.145   3.462   2.863  0.0276  0.8562  0.0817
  539MOL0     O72689   8.063   3.426   2.759 -0.2869 -0.4870 -0.5812
  539MOL0     C72690   8.115   3.445   2.628 -0.3083 -1.3076 -0.5743
  539MOL0     C72691   8.028   3.380   2.523 -0.2629  0.3126 -0.2462
  539MOL0     C72692   7.886   3.455   2.524  0.3429  0.6746  1.2454
  539MOL0     C72693   7.826   3.441   2.385  0.6341 -1.1625 -0.2427
  539MOL0     C72694   7.853   3.563   2.302 -0.1719  0.9095  0.8814
  539MOL0     C72695   7.867   3.643   2.219  0.0849  0.3973  0.1549
  539MOL0     C72696   8.211   3.586   2.865  0.8237  1.0847  0.0674
  539MOL0     C72697   8.300   3.613   2.972  0.5071 -0.1031  0.7327
  539MOL0     H72698   8.322   3.594   3.489 -1.5739 -1.7686  2.4218
  539MOL0     H72699   8.451   3.625   3.711  1.8717  0.5861  1.1942
  539MOL0     H72700   8.818   3.425   3.823  3.7845 -0.8204 -0.9868
  539MOL0     H72701   8.882   3.509   3.680 -0.4227  1.4804 -0.3187
  539MOL0     H72702   8.994   3.526   3.895 -0.3671  0.1282 -0.7703
  539MOL0     H72703   8.976   3.667   3.799 -1.5719  0.4070 -0.5191
  539MOL0     H72704   8.919   3.707   4.054  1.4117 -2.3508 -1.1659
  539MOL0     H72705   8.792   3.754   3.939 -3.5252 -1.8595 -0.2344
  539MOL0     H72706   8.659   3.559   4.006 -0.0352 -0.0018 -1.0416
  539MOL0     H72707   8.794   3.482   4.074 -0.6521  0.9049  0.8480
  539MOL0     H72708   8.669   3.561   4.265  0.6171 -0.4442  1.6483
  539MOL0     H72709   8.800   3.683   4.236  0.4434 -1.0104 -1.2194
  539MOL0     H72710   8.656   3.821   4.097 -0.5382 -0.3953 -1.2822
  539MOL0     H72711   8.513   3.713   4.137 -0.1675 -0.3261  2.6232
  539MOL0     H72712   8.500   3.783   4.357  0.8889 -1.2867 -1.7263
  539MOL0     H72713   8.671   3.840   4.369  0.2427  0.3239  0.0971
  539MOL0     H72714   8.448   4.005   4.320  0.0871 -1.2106  0.0035
  539MOL0     H72715   8.459   3.944   4.166  1.4545  1.0938 -2.5130
  539MOL0     H72716   8.677   4.144   4.423 -0.3507  1.5368 -0.3815
  539MOL0     H72717   8.955   4.341   4.228 -1.2138 -1.5373 -1.3327
  539MOL0     H72718   8.829   4.395   4.338 -2.3333 -1.1710 -0.3629
  539MOL0     H72719   8.900   4.217   4.510 -1.6968  4.9196  0.4444
  539MOL0     H72720   9.040   4.320   4.458  1.0264 -0.0729 -2.6542
  539MOL0     H72721   9.092   4.146   4.284 -2.2708  3.9032  0.4345
  539MOL0     H72722   8.980   4.041   4.357  0.1857  0.4544  1.0957
  539MOL0     H72723   9.098   4.009   4.568 -1.0998 -0.4766 -1.1068
  539MOL0     H72724   9.195   4.159   4.545 -2.2489  2.3670  0.9038
  539MOL0     H72725   9.350   3.885   4.211  2.6147 -1.6346  1.6212
  539MOL0     H72726   9.257   3.602   4.013  2.6232 -3.4521  0.8905
  539MOL0     H72727   9.323   3.761   4.009  1.5498 -1.5709 -4.7834
  539MOL0     H72728   9.409   3.622   4.058  0.0113  1.0919  1.5758
  539MOL0     H72729   9.399   3.225   4.167  2.0803  1.8154 -6.2444
  539MOL0     H72730   9.387   2.987   4.152  0.9228  0.9341  0.1081
  539MOL0     H72731   9.295   2.742   4.019 -1.8565  0.0931 -1.8636
  539MOL0     H72732   9.310   2.782   4.188 -1.7508  2.9055 -0.6009
  539MOL0     H72733   9.044   2.638   4.133 -0.0852  1.7197  1.2157
  539MOL0     H72734   9.153   2.580   4.017 -1.4357  2.5379 -1.2073
  539MOL0     H72735   9.208   2.546   4.332  1.5941 -1.8051  0.7461
  539MOL0     H72736   9.314   2.498   4.196  0.1155  0.0902 -0.7541
  539MOL0     H72737   9.054   2.389   4.248  0.7541  1.2621  1.8215
  539MOL0     H72738   9.141   2.372   4.094 -3.0165 -0.6043  0.3112
  539MOL0     H72739   9.222   2.276   4.373  0.3695  0.9973  1.1116
  539MOL0     H72740   9.324   2.245   4.232  0.2543 -0.3074  2.2317
  539MOL0     H72741   9.040   2.129   4.275 -0.7529  0.4553 -2.5504
  539MOL0     H72742   9.145   2.117   4.135  1.9954 -0.2657  1.0894
  539MOL0     H72743   9.254   2.014   4.400 -1.4728 -0.1592  0.0871
  539MOL0     H72744   9.327   2.007   4.241  0.5887  0.9348 -0.9098
  539MOL0     H72745   9.131   1.863   4.177  1.1755  1.9468  0.0403
  539MOL0     H72746   9.069   1.867   4.343 -2.2161  2.3515 -2.8795
  539MOL0     H72747   8.971   3.039   4.039 -0.6835  1.5364 -0.8147
  539MOL0     H72748   8.996   3.289   4.067 -0.0901  0.0923  0.2985
  539MOL0     H72749   9.053   3.592   4.466 -0.3223  2.2730  2.4018
  539MOL0     H72750   9.116   3.804   4.566 -0.6986  1.4377 -1.2765
  539MOL0     H72751   8.756   3.364   3.580 -1.6868  0.0376  1.3100
  539MOL0     H72752   8.627   3.309   3.373 -1.0703  0.0677  0.0446
  539MOL0     H72753   8.225   3.361   3.180  0.2785  1.1245 -0.8259
  539MOL0     H72754   8.078   3.302   3.001  0.1113 -2.0740 -1.0052
  539MOL0     H72755   8.127   3.551   2.603  0.3220 -0.4186  2.9580
  539MOL0     H72756   8.218   3.408   2.616  2.0681  2.3179  4.5333
  539MOL0     H72757   8.004   3.275   2.542  0.9792 -0.7317 -3.6732
  539MOL0     H72758   8.078   3.393   2.427  0.0445 -1.8941 -0.4472
  539MOL0     H72759   7.898   3.560   2.550  1.0080  0.4463  1.8933
  539MOL0     H72760   7.831   3.408   2.606  4.9584 -0.6990  3.9443
  539MOL0     H72761   7.717   3.436   2.398  0.2794 -0.3906 -2.5293
  539MOL0     H72762   7.861   3.354   2.329  0.2050  0.3466 -3.0221
  539MOL0     H72763   7.883   3.722   2.148  0.4514  0.0442 -0.1532
  539MOL0     H72764   8.208   3.647   2.775  0.3030  0.2005 -0.5320
  539MOL0     H72765   8.367   3.698   2.979  2.7412 -1.4119 -2.4848
  540MOL0     O72766   9.902   3.833  11.304 -0.3344  0.2107 -0.0517
  540MOL0     C72767   9.881   3.834  11.425 -0.1571  0.6880 -0.3844
  540MOL0     O72768   9.767   3.887  11.486  0.0854  0.7042 -0.5448
  540MOL0     C72769   9.666   3.920  11.398 -0.5768 -0.5063  0.9634
  540MOL0     C72770   9.649   4.051  11.364  0.1273  0.3430  0.4908
  540MOL0     C72771   9.547   4.094  11.276 -0.0400 -0.2070  0.3611
  540MOL0     C72772   9.468   3.990  11.209 -0.0844 -0.8433 -0.8785
  540MOL0     O72773   9.389   4.033  11.100  0.7223  0.3739 -0.6186
  540MOL0     C72774   9.317   4.160  11.115  0.0375  0.3519  0.5037
  540MOL0     C72775   9.176   4.156  11.064 -0.4178 -0.0431 -0.0142
  540MOL0     C72776   9.087   4.033  11.105  0.8982 -0.4788 -0.2480
  540MOL0     C72777   8.982   4.072  11.207 -1.0004  0.8604  0.3760
  540MOL0     C72778   8.844   4.106  11.158 -0.7814  0.1786  0.3392
  540MOL0     C72779   8.736   4.036  11.241 -0.1372  0.0931 -0.0859
  540MOL0     C72780   8.587   4.067  11.205 -0.1709  0.4398  0.1585
  540MOL0     C72781   8.524   3.954  11.113 -0.5034 -0.5368 -0.8183
  540MOL0     N72782   8.393   3.989  11.070  0.5414 -0.0007  0.4074
  540MOL0     C72783   8.294   4.034  11.161  0.5038 -0.5765 -0.0470
  540MOL0     C72784   8.180   4.032  11.078 -0.9591 -0.3329  0.1875
  540MOL0     C72785   8.037   4.058  11.124 -0.5568 -0.9177  0.0651
  540MOL0     C72786   7.922   4.006  11.037  0.6849  0.8912  0.1224
  540MOL0     C72787   7.905   3.847  11.041  0.5561 -0.5133 -0.0314
  540MOL0     C72788   7.774   3.802  10.959 -0.7880  0.1642  1.2213
  540MOL0     O72789   7.813   3.819  10.829 -0.1776  0.1138  0.6189
  540MOL0     C72790   7.755   3.730  10.737 -0.6399 -0.4693  0.0055
  540MOL0     C72791   7.839   3.699  10.628 -0.6087  0.3269  0.0011
  540MOL0     C72792   7.805   3.608  10.537  0.7829  0.2200 -0.2726
  540MOL0     C72793   7.916   3.563  10.443 -0.4006 -0.2692  0.2350
  540MOL0     C72794   7.679   3.538  10.546 -0.1982 -0.0398  0.4872
  540MOL0     C72795   7.643   3.424  10.463  0.0886  0.3457 -0.2408
  540MOL0     O72796   7.738   3.324  10.445 -0.4482 -0.0650 -0.2064
  540MOL0     C72797   7.711   3.202  10.393  0.1464  0.5742 -0.5906
  540MOL0     C72798   7.614   3.177  10.298  0.1940 -0.4795 -0.1754
  540MOL0     C72799   7.607   3.047  10.244  0.0462  0.6893  0.1032
  540MOL0     C72800   7.677   2.933  10.289  0.0363 -0.0048 -0.4351
  540MOL0     O72801   7.651   2.801  10.260 -0.7084 -0.1802 -0.8734
  540MOL0     C72802   7.574   2.770  10.143  0.2919  0.7203 -0.8651
  540MOL0     C72803   7.566   2.617  10.117  0.2108  0.2203  0.9336
  540MOL0     C72804   7.691   2.533  10.069  0.6024 -0.7226 -0.5124
  540MOL0     C72805   7.662   2.395  10.021 -0.4245  0.5283 -0.2775
  540MOL0     C72806   7.787   2.310   9.999 -0.0828 -0.0848 -0.4248
  540MOL0     C72807   7.817   2.238  10.134 -0.8749 -1.2914  0.6572
  540MOL0     C72808   7.935   2.139  10.124 -0.0044 -0.4093  0.5909
  540MOL0     C72809   7.918   2.038  10.237 -0.9273 -0.7974  1.6591
  540MOL0    Cl72810   7.802   1.913  10.202  0.3780  0.0975  0.6885
  540MOL0     C72811   7.774   2.963  10.381  0.7352 -1.0497  0.2577
  540MOL0     C72812   7.793   3.089  10.428 -1.0859 -0.4508  0.4950
  540MOL0     O72813   7.528   3.415  10.420 -0.1138 -0.1596 -0.6028
  540MOL0     C72814   7.595   3.574  10.646 -0.3988 -0.8356  0.9033
  540MOL0     C72815   7.630   3.663  10.741 -1.4282  0.2053  0.3602
  540MOL0     N72816   8.223   4.009  10.948 -0.2081 -0.7939  0.6000
  540MOL0     N72817   8.350   3.981  10.950  0.4934 -0.8562  0.2182
  540MOL0     C72818   9.472   3.862  11.261  0.1282  0.8561  0.5808
  540MOL0     C72819   9.568   3.823  11.358 -0.0769  1.1877  0.1604
  540MOL0     C72820   9.976   3.757  11.506 -0.6436  1.0882 -0.1969
  540MOL0     C72821  10.109   3.712  11.459  0.5383 -0.2384 -0.2358
  540MOL0     C72822  10.187   3.631  11.535  0.0227 -1.0118 -0.1625
  540MOL0     C72823  10.164   3.598  11.666  1.4206 -0.3220 -0.9417
  540MOL0     O72824  10.266   3.554  11.737 -1.1708 -0.2196 -0.2062
  540MOL0     C72825  10.240   3.521  11.879 -0.0906  0.2366  1.3210
  540MOL0     C72826  10.288   3.625  11.981  0.0939  0.6016 -0.5686
  540MOL0     C72827  10.304   3.761  11.925 -0.1612 -0.2851 -0.6218
  540MOL0     C72828  10.371   3.870  12.013  0.6553 -0.1799  0.1340
  540MOL0     C72829  10.434   3.974  11.926  0.2925 -0.3473 -0.4081
  540MOL0     C72830  10.473   4.043  11.831  0.1080  0.5754 -0.2304
  540MOL0     C72831  10.040   3.646  11.723  0.3420  1.0228  0.2663
  540MOL0     C72832   9.946   3.714  11.645  0.2970 -0.2837  0.0570
  540MOL0     H72833   9.713   4.126  11.410 -0.5002  0.2136  1.6093
  540MOL0     H72834   9.533   4.198  11.248  2.1111  0.0990  0.2041
  540MOL0     H72835   9.317   4.193  11.219  2.5519 -0.6140  0.8679
  540MOL0     H72836   9.370   4.241  11.064  0.0441 -0.5603 -0.9952
  540MOL0     H72837   9.121   4.249  11.080 -0.3411  0.4773 -2.3507
  540MOL0     H72838   9.186   4.160  10.955 -2.1159  3.0114 -0.1893
  540MOL0     H72839   9.029   4.003  11.018  0.6998  2.7588 -1.3829
  540MOL0     H72840   9.148   3.953  11.147 -0.7214 -1.2578  0.6799
  540MOL0     H72841   8.986   3.988  11.277  4.4120 -0.4103 -0.9748
  540MOL0     H72842   9.029   4.155  11.262  0.2474  0.0029  0.6398
  540MOL0     H72843   8.824   4.213  11.140 -0.6649  0.1192 -0.1738
  540MOL0     H72844   8.820   4.062  11.060  0.9933  2.7148 -1.3707
  540MOL0     H72845   8.743   3.927  11.238  0.0741  0.1178 -2.2309
  540MOL0     H72846   8.739   4.058  11.348 -3.9768 -2.0152  0.6380
  540MOL0     H72847   8.524   4.071  11.294 -1.3229 -4.5468 -0.0975
  540MOL0     H72848   8.570   4.161  11.151 -1.8169  1.0642  1.6800
  540MOL0     H72849   8.522   3.876  11.190  2.3912  2.6484  2.8938
  540MOL0     H72850   8.589   3.925  11.030  1.0049  0.5579 -0.0796
  540MOL0     H72851   8.297   4.042  11.270 -2.9440 -1.1679  0.2130
  540MOL0     H72852   8.020   4.026  11.228 -0.0181 -0.3054  0.3498
  540MOL0     H72853   8.026   4.167  11.119  1.0795 -0.7360 -0.0861
  540MOL0     H72854   7.947   4.024  10.932  2.3589 -2.9876 -0.2947
  540MOL0     H72855   7.830   4.048  11.077 -0.8614 -0.6675 -1.6461
  540MOL0     H72856   7.900   3.815  11.146 -1.5650 -0.2480 -0.0126
  540MOL0     H72857   7.994   3.789  11.015 -0.7357 -2.4179 -0.4287
  540MOL0     H72858   7.682   3.847  10.995  0.1989  3.2075  0.2205
  540MOL0     H72859   7.757   3.694  10.967  1.3928 -0.2497  0.8740
  540MOL0     H72860   7.940   3.738  10.628 -0.1616 -0.8010 -0.0525
  540MOL0     H72861   7.968   3.475  10.482  2.9290  1.4141 -0.0266
  540MOL0     H72862   7.869   3.544  10.346 -3.0619  2.5191  0.8340
  540MOL0     H72863   7.993   3.639  10.427  1.0457 -1.4651  1.2626
  540MOL0     H72864   7.565   3.256  10.242 -2.4333  0.1456  2.7262
  540MOL0     H72865   7.531   3.033  10.167  0.6598  1.2701 -0.6156
  540MOL0     H72866   7.480   2.824  10.143  2.0474  3.9982 -1.1247
  540MOL0     H72867   7.623   2.810  10.054 -0.0491 -0.0822 -1.4281
  540MOL0     H72868   7.517   2.579  10.207  0.5460  0.9352  1.4309
  540MOL0     H72869   7.497   2.609  10.032  3.2429 -0.6373 -1.6368
  540MOL0     H72870   7.761   2.526  10.153  0.3014 -3.0941 -0.3808
  540MOL0     H72871   7.742   2.595   9.995  1.4607  0.1253  0.7406
  540MOL0     H72872   7.582   2.341  10.074 -1.4996 -2.4587 -4.4859
  540MOL0     H72873   7.626   2.405   9.918 -0.9412  0.8009 -0.0796
  540MOL0     H72874   7.874   2.370   9.972  0.7863 -0.5310  1.3134
  540MOL0     H72875   7.775   2.225   9.931  0.7008 -0.0368 -0.6348
  540MOL0     H72876   7.854   2.314  10.203  0.0700 -0.3043 -0.8725
  540MOL0     H72877   7.718   2.202  10.165 -1.4634 -0.2570  0.0562
  540MOL0     H72878   8.035   2.183  10.127  0.3055 -1.0252 -0.2566
  540MOL0     H72879   7.951   2.088  10.028  0.0306 -2.7299  1.7453
  540MOL0     H72880   7.893   2.082  10.333 -1.1467 -2.7791  2.5647
  540MOL0     H72881   8.012   1.984  10.248 -0.9528 -1.3314 -0.3596
  540MOL0     H72882   7.837   2.876  10.399  0.7483 -1.6728 -2.3222
  540MOL0     H72883   7.876   3.112  10.495 -1.1784  1.9065 -0.0842
  540MOL0     H72884   7.502   3.517  10.646 -0.4621 -0.7307  0.6712
  540MOL0     H72885   7.564   3.689  10.824 -0.5562  3.2120  0.2551
  540MOL0     H72886   9.418   3.781  11.213  0.2324  0.2530  1.4689
  540MOL0     H72887   9.535   3.741  11.421 -4.1605  2.0152 -0.6053
  540MOL0     H72888  10.147   3.731  11.360  1.1000 -2.2395 -0.4298
  540MOL0     H72889  10.280   3.600  11.487  1.8651  1.5751  1.4878
  540MOL0     H72890  10.134   3.503  11.900  0.3441 -1.3354  2.3441
  540MOL0     H72891  10.287   3.422  11.880 -1.0387 -0.2538  0.2179
  540MOL0     H72892  10.381   3.592  12.028  0.5001  0.4939 -1.4221
  540MOL0     H72893  10.206   3.631  12.053  1.0795  0.7164  0.5673
  540MOL0     H72894  10.203   3.791  11.893 -1.1471 -2.4595  0.2870
  540MOL0     H72895  10.373   3.747  11.841  0.0289  1.6084 -0.8405
  540MOL0     H72896  10.458   3.833  12.068  1.0581  2.4935  1.4362
  540MOL0     H72897  10.300   3.927  12.074  2.4082  1.6484  0.5816
  540MOL0     H72898  10.517   4.102  11.753  2.8387 -0.4486  0.4258
  540MOL0     H72899  10.017   3.644  11.829  1.0005 -2.0951  0.4502
  540MOL0     H72900   9.848   3.739  11.684  0.2030 -2.3569  1.3506
  541MOL0     O72901   9.686   7.937   4.134  0.7877 -0.3400 -0.7949
  541MOL0     C72902   9.627   7.926   4.031  0.0071 -0.2424  0.8119
  541MOL0     O72903   9.692   7.896   3.918  0.2816 -0.7655  0.1881
  541MOL0     C72904   9.803   7.971   3.903  0.4307 -0.2992 -0.1326
  541MOL0     C72905   9.784   8.113   3.879  0.3783 -1.2880  0.4837
  541MOL0     C72906   9.901   8.188   3.850 -0.5192  0.4820  0.4794
  541MOL0     C72907  10.025   8.126   3.840 -0.0235  0.2152 -0.0859
  541MOL0     O72908  10.129   8.206   3.794  0.6621  0.0147 -0.3349
  541MOL0     C72909  10.179   8.169   3.663 -0.9043  0.3578 -0.9087
  541MOL0     C72910  10.312   8.235   3.637  0.1712 -0.0715  0.0065
  541MOL0     C72911  10.286   8.387   3.609 -0.0869  0.0994  0.2761
  541MOL0     C72912  10.413   8.451   3.539 -0.1158 -0.9199 -0.3471
  541MOL0     C72913  10.374   8.595   3.521  0.1456 -0.4021 -0.5515
  541MOL0     C72914  10.489   8.686   3.480  0.3422  0.2827 -0.3886
  541MOL0     C72915  10.433   8.828   3.459  0.3879  0.2610 -0.1998
  541MOL0     C72916  10.548   8.913   3.400  0.7467  0.8287 -0.6981
  541MOL0     N72917  10.654   8.940   3.509  0.6910 -0.3691 -0.3586
  541MOL0     C72918  10.774   8.877   3.518  0.4654  0.6854 -0.2506
  541MOL0     C72919  10.834   8.939   3.620  0.3903 -0.8898 -0.3215
  541MOL0     C72920  10.976   8.934   3.658 -0.5129 -0.1495 -1.0269
  541MOL0     C72921  11.081   8.967   3.543  0.9308 -0.5193 -0.7909
  541MOL0     C72922  11.212   8.989   3.609 -0.3553 -0.2150  0.4802
  541MOL0     C72923  11.302   9.052   3.499 -0.5711 -0.0615 -0.4154
  541MOL0     O72924  11.438   9.053   3.545  0.0305  0.0624 -0.0556
  541MOL0     C72925  11.474   9.144   3.645  0.5236  0.7736  0.5532
  541MOL0     C72926  11.387   9.233   3.705  0.0309 -0.3640  1.3496
  541MOL0     C72927  11.428   9.321   3.797 -0.5363  0.6617 -0.5879
  541MOL0     C72928  11.323   9.413   3.853  0.5506 -0.5409  0.6717
  541MOL0     C72929  11.567   9.319   3.830 -0.2400 -0.5400 -0.4745
  541MOL0     C72930  11.617   9.393   3.955  0.1879 -1.2660 -0.1797
  541MOL0     O72931  11.527   9.439   4.049 -0.0424 -0.2028  0.2261
  541MOL0     C72932  11.560   9.485   4.175 -0.8948 -0.2405 -0.7659
  541MOL0     C72933  11.630   9.398   4.261 -0.4040 -1.0662  0.3201
  541MOL0     C72934  11.660   9.441   4.390 -0.5456  0.0030 -0.8426
  541MOL0     C72935  11.614   9.572   4.430 -0.7104  0.9049 -0.1770
  541MOL0     O72936  11.640   9.600   4.556 -0.3428 -0.2801 -0.7403
  541MOL0     C72937  11.689   9.730   4.587  0.4290 -0.6678  0.8739
  541MOL0     C72938  11.760   9.743   4.728  0.6040 -0.2605 -0.0039
  541MOL0     C72939  11.677   9.680   4.843 -0.7087 -0.6234  0.6779
  541MOL0     C72940  11.761   9.673   4.967  0.5237 -0.2926  0.4127
  541MOL0     C72941  11.709   9.599   5.091 -0.1010  0.2242  0.4145
  541MOL0     C72942  11.825   9.553   5.177 -0.3171  0.4619 -0.6201
  541MOL0     C72943  11.922   9.673   5.210  0.0341  0.2095  0.1513
  541MOL0     C72944  12.007   9.655   5.330  0.9073  0.3396  0.1957
  541MOL0    Cl72945  12.150   9.760   5.347  0.4665  0.3722  0.2475
  541MOL0     C72946  11.548   9.657   4.342 -0.7652 -0.5815  0.1135
  541MOL0     C72947  11.517   9.608   4.219 -0.1620  0.9562 -0.6692
  541MOL0     O72948  11.744   9.402   3.971 -0.6305 -0.4911 -0.0209
  541MOL0     C72949  11.663   9.241   3.759 -0.0568 -0.7618 -0.2835
  541MOL0     C72950  11.607   9.149   3.673  0.2955 -1.0903 -0.3937
  541MOL0     N72951  10.757   9.042   3.668 -0.2371  0.6642  0.2955
  541MOL0     N72952  10.648   9.050   3.595  0.7937  0.4853  0.7303
  541MOL0     C72953  10.034   7.985   3.875  0.0518  0.0375 -0.0804
  541MOL0     C72954   9.924   7.913   3.905  0.5597 -0.0793  0.4867
  541MOL0     C72955   9.483   7.917   4.036  0.4578 -0.9451 -0.5585
  541MOL0     C72956   9.412   7.903   3.912  0.0095  0.0358  0.4664
  541MOL0     C72957   9.275   7.877   3.915  0.1946  0.4977 -0.5659
  541MOL0     C72958   9.203   7.876   4.028  0.2985  0.3999  0.9708
  541MOL0     O72959   9.061   7.864   4.037 -0.8096 -0.1104 -0.1463
  541MOL0     C72960   8.984   7.849   3.914  0.2996  0.0055  0.5896
  541MOL0     C72961   8.835   7.831   3.946 -0.0859  0.3722 -0.2634
  541MOL0     C72962   8.817   7.727   4.052 -0.3220  0.1761  0.0199
  541MOL0     C72963   8.684   7.722   4.127 -0.7672  0.1927 -1.6162
  541MOL0     C72964   8.569   7.746   4.045 -0.0570 -0.2535 -0.0660
  541MOL0     C72965   8.477   7.775   3.973  0.5065  0.7520 -0.0835
  541MOL0     C72966   9.269   7.895   4.148 -0.3909  0.0058 -0.6630
  541MOL0     C72967   9.412   7.917   4.155  0.1919  0.6374  0.6689
  541MOL0     H72968   9.692   8.171   3.869  1.9540  1.5780  1.4846
  541MOL0     H72969   9.885   8.290   3.818 -1.1737  0.3532  0.3892
  541MOL0     H72970  10.190   8.060   3.658  1.1098  0.5390 -1.4488
  541MOL0     H72971  10.103   8.197   3.590 -1.6471  4.0383  1.0555
  541MOL0     H72972  10.360   8.222   3.734 -0.0893 -3.1537 -0.1645
  541MOL0     H72973  10.374   8.192   3.558  1.2813 -0.3760  1.0145
  541MOL0     H72974  10.204   8.393   3.538  1.8390 -1.0831 -2.1913
  541MOL0     H72975  10.273   8.446   3.701  1.4423  1.4333 -0.3029
  541MOL0     H72976  10.493   8.440   3.614 -0.4169 -2.8374 -0.2765
  541MOL0     H72977  10.433   8.399   3.445 -1.2897 -3.4584  0.7183
  541MOL0     H72978  10.301   8.609   3.441  1.6324 -0.9895 -2.0804
  541MOL0     H72979  10.335   8.637   3.614  2.3731  2.1887 -0.6559
  541MOL0     H72980  10.559   8.695   3.563  2.8236  1.2222 -2.4785
  541MOL0     H72981  10.548   8.663   3.391  0.8697  2.5216 -0.6728
  541MOL0     H72982  10.348   8.832   3.391  1.6044 -1.5606 -1.9508
  541MOL0     H72983  10.405   8.867   3.557 -0.3083  4.4190 -1.8056
  541MOL0     H72984  10.508   9.011   3.370 -0.6918  0.0619 -1.4168
  541MOL0     H72985  10.591   8.873   3.308 -1.5542 -0.3229 -1.3705
  541MOL0     H72986  10.815   8.795   3.460 -0.7936 -0.7080  0.7517
  541MOL0     H72987  10.998   9.012   3.731  5.4553 -1.0069 -1.4454
  541MOL0     H72988  10.990   8.841   3.715  2.2096  1.5843  1.4363
  541MOL0     H72989  11.061   9.068   3.506  4.5957  0.9853  0.8902
  541MOL0     H72990  11.084   8.894   3.462 -1.2783 -1.1749 -0.3548
  541MOL0     H72991  11.251   8.894   3.646 -0.6865 -0.3961  0.3701
  541MOL0     H72992  11.212   9.056   3.696  2.9020  0.1298  0.3259
  541MOL0     H72993  11.265   9.153   3.481 -1.5170  0.2747  2.8745
  541MOL0     H72994  11.298   8.986   3.411  1.5567 -2.8770  1.4039
  541MOL0     H72995  11.284   9.232   3.672  0.2810  1.7214  0.3705
  541MOL0     H72996  11.224   9.394   3.812  0.8175  1.6524 -1.1756
  541MOL0     H72997  11.318   9.396   3.961  0.5800 -1.1423  0.5867
  541MOL0     H72998  11.341   9.519   3.834  2.0704 -0.8662  0.1027
  541MOL0     H72999  11.668   9.300   4.234  3.6049  0.6106 -0.7801
  541MOL0     H73000  11.705   9.382   4.468  1.1144  1.7483 -0.3860
  541MOL0     H73001  11.762   9.770   4.516 -1.2177  0.1036 -0.4588
  541MOL0     H73002  11.604   9.798   4.586 -0.8066 -2.1572  0.1221
  541MOL0     H73003  11.857   9.691   4.725 -0.4121 -2.2711  0.4546
  541MOL0     H73004  11.774   9.850   4.746 -2.6970  0.0053  1.6903
  541MOL0     H73005  11.663   9.577   4.807 -0.0194 -0.5784  0.2696
  541MOL0     H73006  11.582   9.730   4.863 -0.0326  1.6256 -1.3237
  541MOL0     H73007  11.848   9.612   4.941 -0.2773 -1.2225 -0.1618
  541MOL0     H73008  11.789   9.775   4.992  1.2779 -0.9927  2.6155
  541MOL0     H73009  11.658   9.513   5.047 -0.3245  0.5869 -0.0396
  541MOL0     H73010  11.635   9.664   5.139 -0.4607  0.0627  0.0822
  541MOL0     H73011  11.790   9.499   5.265 -1.1131 -1.4948 -2.0441
  541MOL0     H73012  11.875   9.470   5.125  2.3009  1.3868  0.3090
  541MOL0     H73013  11.860   9.762   5.218  3.1895  2.3715  3.2947
  541MOL0     H73014  11.994   9.691   5.129  2.5275 -0.4526  2.0931
  541MOL0     H73015  12.050   9.555   5.325  0.0227 -0.0200 -0.8701
  541MOL0     H73016  11.954   9.666   5.425  2.2698 -2.6571  1.4246
  541MOL0     H73017  11.518   9.757   4.373 -1.0426 -0.8458  0.7187
  541MOL0     H73018  11.477   9.684   4.153 -0.8934  3.6765  2.5823
  541MOL0     H73019  11.767   9.249   3.788  0.1970  1.7172 -1.6317
  541MOL0     H73020  11.676   9.079   3.626  2.7091  0.4203  0.6743
  541MOL0     H73021  10.130   7.941   3.900 -0.6924 -1.8482 -0.3591
  541MOL0     H73022   9.940   7.810   3.936 -3.4191 -0.8469  0.5400
  541MOL0     H73023   9.466   7.917   3.819  0.9835  1.7851  1.2560
  541MOL0     H73024   9.221   7.857   3.823 -1.0786  1.2039 -0.0016
  541MOL0     H73025   8.997   7.934   3.846  2.1366 -0.8560 -0.2055
  541MOL0     H73026   9.020   7.764   3.856 -0.6565 -0.0769  0.1139
  541MOL0     H73027   8.776   7.804   3.858 -1.2549 -1.3306  0.9720
  541MOL0     H73028   8.796   7.926   3.985  0.0585 -0.2320  1.4544
  541MOL0     H73029   8.894   7.729   4.130 -0.8485  0.2051  0.5475
  541MOL0     H73030   8.833   7.631   4.003  1.1304  0.4394 -0.0580
  541MOL0     H73031   8.682   7.785   4.217 -0.7411 -1.1243 -0.6573
  541MOL0     H73032   8.669   7.619   4.162 -1.7875  0.9647  0.4214
  541MOL0     H73033   8.394   7.780   3.905 -0.4116 -0.0306  0.9314
  541MOL0     H73034   9.215   7.897   4.242 -1.9689 -0.0569 -1.5442
  541MOL0     H73035   9.455   7.932   4.253 -1.6511 -0.6170  1.7354
  542MOL0     O73036   5.634  10.855  11.082 -0.7112 -0.6733  0.4480
  542MOL0     C73037   5.560  10.885  11.171 -0.6442 -0.2559 -0.0536
  542MOL0     O73038   5.510  10.803  11.269 -1.0016 -0.3352  0.2369
  542MOL0     C73039   5.547  10.672  11.268 -0.6376 -0.2189  0.3092
  542MOL0     C73040   5.448  10.578  11.237 -0.3223 -0.5085  0.0694
  542MOL0     C73041   5.477  10.445  11.221  0.3047  0.1126  0.5316
  542MOL0     C73042   5.600  10.395  11.269 -0.4611  0.1054  0.4809
  542MOL0     O73043   5.599  10.260  11.283  0.0865 -0.7662  0.5704
  542MOL0     C73044   5.695  10.195  11.211 -0.1614 -0.1236  0.7297
  542MOL0     C73045   5.611  10.131  11.099 -0.0906  0.3620  0.7573
  542MOL0     C73046   5.696  10.082  10.981 -0.5447  0.1409  0.2317
  542MOL0     C73047   5.602  10.032  10.882 -0.0984  0.4650 -0.5778
  542MOL0     C73048   5.685  10.040  10.754 -0.2156  0.3167 -0.5159
  542MOL0     C73049   5.639   9.928  10.660  0.6745  0.5134 -0.9414
  542MOL0     C73050   5.493   9.943  10.594 -1.2053  0.3678  0.0224
  542MOL0     C73051   5.458   9.814  10.524 -0.6213  0.0129 -0.0812
  542MOL0     N73052   5.339   9.822  10.450  0.9303 -0.4303  0.5795
  542MOL0     C73053   5.218   9.838  10.501  0.6202 -0.0128 -0.1460
  542MOL0     C73054   5.132   9.861  10.399  0.0856 -0.0384  0.8611
  542MOL0     C73055   4.981   9.860  10.424 -0.6087  0.4624 -0.5670
  542MOL0     C73056   4.900   9.935  10.322 -0.8111  0.7937 -1.2827
  542MOL0     C73057   4.755   9.903  10.340  0.2633  0.7645  0.1338
  542MOL0     C73058   4.668   9.984  10.241 -0.6463  0.2086 -0.3464
  542MOL0     O73059   4.542  10.039  10.296 -0.7164 -0.4538  0.3976
  542MOL0     C73060   4.427  10.048  10.224  0.2739 -0.6987 -0.3410
  542MOL0     C73061   4.357  10.170  10.210  0.1068 -0.2097  0.3662
  542MOL0     C73062   4.231  10.185  10.150 -0.0245 -0.3586 -0.3007
  542MOL0     C73063   4.156  10.307  10.148 -0.1848 -0.8280  0.0733
  542MOL0     C73064   4.165  10.059  10.104 -0.4966 -0.8955  0.2059
  542MOL0     C73065   4.033  10.069  10.031 -0.2624  0.9674  0.4229
  542MOL0     O73066   4.036  10.136   9.918  0.6023 -0.6466 -0.1270
  542MOL0     C73067   3.933  10.168   9.834  0.5255 -0.5020 -0.0436
  542MOL0     C73068   3.958  10.275   9.739  0.1317 -0.2357 -0.8269
  542MOL0     C73069   3.859  10.322   9.656 -0.2264 -0.6499 -0.6840
  542MOL0     C73070   3.734  10.255   9.645 -0.5540 -0.2941  0.4580
  542MOL0     O73071   3.621  10.289   9.575 -0.4019 -0.0329 -0.2183
  542MOL0     C73072   3.621  10.397   9.477 -0.5970 -0.1219  0.1124
  542MOL0     C73073   3.685  10.355   9.336  0.6284  0.2020 -0.0890
  542MOL0     C73074   3.617  10.242   9.269 -0.6286 -0.4102  0.2160
  542MOL0     C73075   3.523  10.294   9.158 -0.1535 -0.2744 -0.4189
  542MOL0     C73076   3.453  10.186   9.076 -0.0420 -0.5492 -0.2629
  542MOL0     C73077   3.353  10.251   8.987 -0.1660 -0.4688 -0.7809
  542MOL0     C73078   3.207  10.267   9.048 -0.1418 -0.6068 -0.6349
  542MOL0     C73079   3.108  10.279   8.938  0.4928 -0.6622 -0.7263
  542MOL0    Cl73080   3.132  10.439   8.863  0.0211 -0.2955  0.4798
  542MOL0     C73081   3.720  10.143   9.731 -0.1429  1.0950 -0.0143
  542MOL0     C73082   3.807  10.114   9.833 -0.4735 -0.6954 -0.1205
  542MOL0     O73083   3.942   9.999  10.067  0.0605  0.0972 -0.1186
  542MOL0     C73084   4.243   9.938  10.098 -0.1676 -0.9132 -0.9458
  542MOL0     C73085   4.366   9.930  10.160 -1.0366  0.5505 -1.1257
  542MOL0     N73086   5.204   9.846  10.272 -0.1526  0.5090  0.1052
  542MOL0     N73087   5.323   9.820  10.310 -0.3959  0.0273  0.8075
  542MOL0     C73088   5.705  10.493  11.293 -0.2876  0.8701 -0.8557
  542MOL0     C73089   5.679  10.629  11.299  0.2479  0.2299  0.5242
  542MOL0     C73090   5.527  11.024  11.192  0.1167  0.7517 -0.1322
  542MOL0     C73091   5.400  11.082  11.232 -0.2504 -0.2125 -0.2853
  542MOL0     C73092   5.381  11.224  11.247 -0.5442  0.8440 -0.4239
  542MOL0     C73093   5.497  11.302  11.237  0.6151  0.4149  0.4026
  542MOL0     O73094   5.488  11.436  11.267  1.0866 -0.4176  0.0440
  542MOL0     C73095   5.480  11.468  11.410 -0.6417 -1.0137 -1.0054
  542MOL0     C73096   5.487  11.614  11.451 -0.1439 -0.5190  0.1574
  542MOL0     C73097   5.619  11.673  11.405  0.0910 -0.2811 -0.7494
  542MOL0     C73098   5.643  11.816  11.452  0.6695  0.1280 -0.0839
  542MOL0     C73099   5.769  11.864  11.404  0.3828 -0.2698  0.7853
  542MOL0     C73100   5.878  11.903  11.364  0.5454  0.1782 -0.9998
  542MOL0     C73101   5.622  11.247  11.193  0.5855 -1.6484 -1.0743
  542MOL0     C73102   5.631  11.110  11.175  0.5301  0.4041 -0.0968
  542MOL0     H73103   5.354  10.624  11.210 -0.8761 -1.5026  0.2534
  542MOL0     H73104   5.399  10.377  11.188 -0.2594  0.9423  0.1107
  542MOL0     H73105   5.781  10.256  11.181  0.3280 -1.4727 -0.7150
  542MOL0     H73106   5.737  10.108  11.263  0.7341  1.5103  2.9178
  542MOL0     H73107   5.545  10.056  11.142 -2.6368 -1.6579 -5.5396
  542MOL0     H73108   5.547  10.209  11.056 -0.8322 -0.9338 -0.5573
  542MOL0     H73109   5.757  10.168  10.952 -0.1163  0.4932  2.0216
  542MOL0     H73110   5.756   9.997  11.014  2.0605  2.4394  1.7710
  542MOL0     H73111   5.578   9.932  10.920  1.4447 -0.1988 -1.2453
  542MOL0     H73112   5.519  10.102  10.871 -0.0788  0.2357 -2.8077
  542MOL0     H73113   5.684  10.139  10.708 -2.2558  0.6262  0.1302
  542MOL0     H73114   5.785  10.003  10.780 -1.3427 -4.0686 -1.6245
  542MOL0     H73115   5.712   9.920  10.579  0.5902  1.7532 -1.1530
  542MOL0     H73116   5.634   9.840  10.725 -1.8393  0.6129 -0.8844
  542MOL0     H73117   5.418   9.963  10.671  0.5090  2.0551  1.3475
  542MOL0     H73118   5.497  10.021  10.518  2.0062 -2.2522 -2.7821
  542MOL0     H73119   5.445   9.738  10.601 -0.1475  0.5027  0.4922
  542MOL0     H73120   5.537   9.796  10.450 -1.2425  2.8962 -1.5820
  542MOL0     H73121   5.186   9.838  10.604 -1.4337  4.3728 -0.5272
  542MOL0     H73122   4.942   9.758  10.439 -2.8391  0.9926 -2.1120
  542MOL0     H73123   4.967   9.906  10.522 -1.5638 -3.1400  1.1722
  542MOL0     H73124   4.937   9.916  10.221  0.5632  1.2777 -0.8811
  542MOL0     H73125   4.909  10.041  10.347 -0.7322  1.0415 -2.3206
  542MOL0     H73126   4.725   9.932  10.441  2.0707 -1.2073  1.3112
  542MOL0     H73127   4.738   9.797  10.319 -1.3083  0.4127  2.7475
  542MOL0     H73128   4.644   9.920  10.155  3.3561 -4.6886  1.6079
  542MOL0     H73129   4.727  10.065  10.196  2.9955 -3.0893 -2.1867
  542MOL0     H73130   4.413  10.257  10.243 -0.5764  1.3369 -2.2384
  542MOL0     H73131   4.174  10.360  10.054 -0.9227  1.0959  0.9645
  542MOL0     H73132   4.048  10.294  10.163 -0.5675 -0.2964 -1.8320
  542MOL0     H73133   4.195  10.377  10.223  3.0511 -1.5052 -0.8364
  542MOL0     H73134   4.052  10.328   9.743  1.1657 -1.9995 -0.5901
  542MOL0     H73135   3.882  10.403   9.588 -0.3383  1.0293  1.1905
  542MOL0     H73136   3.517  10.419   9.451 -0.6169 -3.2202 -3.1845
  542MOL0     H73137   3.672  10.484   9.519 -1.5262 -0.1773  1.3949
  542MOL0     H73138   3.679  10.440   9.268  1.1828 -1.2970 -2.1211
  542MOL0     H73139   3.792  10.344   9.351  0.8648 -0.6528 -2.0204
  542MOL0     H73140   3.566  10.184   9.346  1.8017 -0.7045  1.7306
  542MOL0     H73141   3.696  10.186   9.218 -0.8732 -0.4940 -0.0716
  542MOL0     H73142   3.449  10.363   9.200  0.1982 -0.8329  1.1762
  542MOL0     H73143   3.562  10.355   9.075 -0.9925 -3.5313 -3.4589
  542MOL0     H73144   3.419  10.113   9.150  1.2101 -1.9729 -1.0486
  542MOL0     H73145   3.528  10.128   9.021 -0.7434 -2.8527  1.0718
  542MOL0     H73146   3.383  10.346   8.943 -1.8900  0.0230 -0.9726
  542MOL0     H73147   3.347  10.187   8.898  0.1587  0.7527 -1.7085
  542MOL0     H73148   3.193  10.359   9.106 -1.4188 -0.5653 -0.9791
  542MOL0     H73149   3.180  10.178   9.107 -0.2857 -0.4841 -0.5129
  542MOL0     H73150   3.005  10.256   8.968  0.1213 -1.4726 -2.4821
  542MOL0     H73151   3.126  10.199   8.865 -0.7597 -1.7703  0.1392
  542MOL0     H73152   3.627  10.087   9.740 -1.0237  2.2762 -1.2582
  542MOL0     H73153   3.779  10.030   9.896 -2.5736  1.4368  1.9845
  542MOL0     H73154   4.206   9.850  10.046 -1.6231 -1.0840  0.3170
  542MOL0     H73155   4.405   9.829  10.151 -3.8523 -0.5955 -1.5507
  542MOL0     H73156   5.801  10.452  11.323 -0.4213  0.5117 -0.9141
  542MOL0     H73157   5.746  10.708  11.329  0.6490  0.3111 -0.5468
  542MOL0     H73158   5.316  11.016  11.255  1.1497 -1.4441  1.5795
  542MOL0     H73159   5.284  11.268  11.270 -0.9195 -0.4891  0.6661
  542MOL0     H73160   5.387  11.437  11.458  0.4115 -4.0532 -0.6716
  542MOL0     H73161   5.557  11.422  11.473 -1.6833 -1.4458 -0.0325
  542MOL0     H73162   5.466  11.617  11.558 -5.1598 -1.1673 -0.5720
  542MOL0     H73163   5.403  11.666  11.404 -0.2056 -3.1096 -2.9016
  542MOL0     H73164   5.625  11.663  11.296 -2.2590 -2.7724 -0.7673
  542MOL0     H73165   5.707  11.611  11.427  0.5447 -0.7583 -3.5405
  542MOL0     H73166   5.652  11.820  11.561 -0.4641 -3.7132  0.2751
  542MOL0     H73167   5.570  11.890  11.418  0.4632 -0.0102  0.0615
  542MOL0     H73168   5.969  11.932  11.316 -0.1833  0.4366 -2.2807
  542MOL0     H73169   5.705  11.316  11.179 -0.9133  0.0961 -1.7444
  542MOL0     H73170   5.727  11.069  11.144  0.4492  3.2940 -5.2346
  543MOL0     O73171   2.567   7.891   2.896 -0.9933 -0.0294 -0.0094
  543MOL0     C73172   2.661   7.829   2.945  0.2459  0.0452  0.2019
  543MOL0     O73173   2.655   7.750   3.057  0.3455 -0.3598 -1.0944
  543MOL0     C73174   2.541   7.762   3.129 -0.0807  0.6118 -1.6207
  543MOL0     C73175   2.508   7.887   3.179 -0.1764  0.3080  0.1482
  543MOL0     C73176   2.392   7.897   3.255 -0.4302 -0.0614  0.0265
  543MOL0     C73177   2.317   7.783   3.290 -0.1697 -0.5782 -1.1438
  543MOL0     O73178   2.224   7.792   3.396 -0.3388  1.0609  0.6493
  543MOL0     C73179   2.215   7.886   3.497  0.7529  0.8276 -0.1948
  543MOL0     C73180   2.334   7.899   3.586  0.2110  0.4578  0.7131
  543MOL0     C73181   2.292   7.931   3.724 -0.1721 -0.4876  0.4170
  543MOL0     C73182   2.213   8.063   3.738  0.5028  0.6838 -0.2747
  543MOL0     C73183   2.227   8.139   3.868  0.8287 -0.3198 -0.3374
  543MOL0     C73184   2.372   8.187   3.880  0.5976  0.4835  0.1895
  543MOL0     C73185   2.378   8.294   3.985  0.0595 -0.2581 -0.4674
  543MOL0     C73186   2.361   8.247   4.140  0.3713  0.0816 -0.4106
  543MOL0     N73187   2.387   8.346   4.249  0.3099  0.2083 -0.6944
  543MOL0     C73188   2.482   8.446   4.250 -0.4603  0.4981  0.8019
  543MOL0     C73189   2.488   8.500   4.372  0.2217  1.6291  0.5468
  543MOL0     C73190   2.578   8.603   4.413 -1.3517  0.5869 -0.1387
  543MOL0     C73191   2.537   8.741   4.369  1.2807  0.2709 -0.6938
  543MOL0     C73192   2.405   8.793   4.430 -0.3513 -0.0945  0.1098
  543MOL0     C73193   2.373   8.934   4.385  0.2792 -0.6975 -0.5147
  543MOL0     O73194   2.465   9.015   4.466  0.0837  0.0269 -0.1322
  543MOL0     C73195   2.453   9.149   4.437  0.7946  0.1842 -0.9074
  543MOL0     C73196   2.555   9.223   4.505  0.0632  0.2316  0.1345
  543MOL0     C73197   2.571   9.359   4.490 -0.6909  0.4658 -0.3187
  543MOL0     C73198   2.671   9.422   4.594  0.1430  0.1929 -0.3499
  543MOL0     C73199   2.471   9.431   4.421 -0.5809 -1.0176 -0.0127
  543MOL0     C73200   2.481   9.580   4.395 -0.9842 -0.7966 -0.1345
  543MOL0     O73201   2.364   9.653   4.362  0.1385  0.4607 -0.1851
  543MOL0     C73202   2.375   9.788   4.371  0.5703  0.8707 -0.8799
  543MOL0     C73203   2.386   9.862   4.493  0.9711  0.4896 -0.3771
  543MOL0     C73204   2.387  10.004   4.496  0.6507  0.4472  0.0645
  543MOL0     C73205   2.387  10.075   4.375  0.4989  0.8125  0.8699
  543MOL0     O73206   2.385  10.207   4.358 -0.0126  0.1577  0.1988
  543MOL0     C73207   2.303  10.278   4.453 -0.4348 -0.5711  0.4808
  543MOL0     C73208   2.163  10.302   4.394 -0.5757  0.1966  0.0151
  543MOL0     C73209   2.079  10.170   4.367 -0.2604 -0.1422 -0.0077
  543MOL0     C73210   2.055  10.087   4.490 -0.5476  0.0977  0.0483
  543MOL0     C73211   2.055   9.937   4.459 -0.4348 -1.1012 -0.2169
  543MOL0     C73212   1.918   9.900   4.404 -0.0193  0.4802 -0.9431
  543MOL0     C73213   1.917   9.768   4.338  0.2953 -0.3731  0.6565
  543MOL0     C73214   1.984   9.762   4.196  0.4943 -1.3541 -0.1296
  543MOL0    Cl73215   1.980   9.585   4.148 -0.1108 -0.0946  0.1855
  543MOL0     C73216   2.385   9.993   4.253  0.8724  0.1249  0.5032
  543MOL0     C73217   2.380   9.853   4.252 -0.3842 -0.3069 -0.3156
  543MOL0     O73218   2.594   9.628   4.398 -0.2398 -0.2613  0.4563
  543MOL0     C73219   2.365   9.364   4.357  0.1220 -0.8910  0.9667
  543MOL0     C73220   2.354   9.220   4.367 -0.8136 -0.8025 -0.5161
  543MOL0     N73221   2.374   8.449   4.440  0.1409  0.1351 -0.0594
  543MOL0     N73222   2.317   8.358   4.366  0.2324 -0.3143  0.9734
  543MOL0     C73223   2.344   7.663   3.237 -0.2694 -0.0590  0.0684
  543MOL0     C73224   2.457   7.653   3.157  0.4937  0.7558  0.4432
  543MOL0     C73225   2.788   7.818   2.869 -0.2714  1.0461  0.2946
  543MOL0     C73226   2.879   7.716   2.908  0.0729 -0.3107  0.4093
  543MOL0     C73227   3.011   7.716   2.848 -0.0812  0.9208 -1.1589
  543MOL0     C73228   3.060   7.830   2.774  0.6593 -0.5541  0.1301
  543MOL0     O73229   3.193   7.837   2.736  0.2737  0.2315  0.7945
  543MOL0     C73230   3.274   7.951   2.781  0.4478  1.1447 -0.5247
  543MOL0     C73231   3.414   7.914   2.781 -1.0502 -0.2651 -0.4174
  543MOL0     C73232   3.448   7.774   2.843  0.0223 -0.7025 -0.3163
  543MOL0     C73233   3.427   7.773   2.998 -0.6824  0.5016 -0.2404
  543MOL0     C73234   3.545   7.831   3.064 -0.7203 -0.0821  0.1299
  543MOL0     C73235   3.629   7.870   3.142  1.0840  0.6169 -0.4029
  543MOL0     C73236   2.969   7.927   2.737  0.9283 -0.0631 -0.8114
  543MOL0     C73237   2.831   7.919   2.776 -0.0680  0.6146  1.5813
  543MOL0     H73238   2.568   7.975   3.156 -3.3727  2.1578 -1.8279
  543MOL0     H73239   2.371   8.000   3.280  1.2627  0.5540 -0.9155
  543MOL0     H73240   2.201   7.979   3.442 -2.2284  0.9053  0.5393
  543MOL0     H73241   2.124   7.871   3.556  2.1691 -1.9716  1.5018
  543MOL0     H73242   2.384   7.801   3.583 -0.7714 -0.0326 -0.5986
  543MOL0     H73243   2.386   7.988   3.550 -1.6932  2.0825  1.7651
  543MOL0     H73244   2.225   7.854   3.761 -2.4264  1.8785  1.5755
  543MOL0     H73245   2.375   7.933   3.795  0.1445  1.4790  0.0602
  543MOL0     H73246   2.243   8.132   3.658 -1.5939 -0.6634 -2.3758
  543MOL0     H73247   2.109   8.037   3.716  0.6177  1.3067 -1.6827
  543MOL0     H73248   2.159   8.225   3.870 -1.1131 -1.7363  2.3023
  543MOL0     H73249   2.196   8.069   3.946 -0.2166 -1.1617 -1.4643
  543MOL0     H73250   2.437   8.103   3.908  1.7469  0.5389 -2.0755
  543MOL0     H73251   2.402   8.240   3.789  3.3303 -0.5061  0.4095
  543MOL0     H73252   2.479   8.335   3.985 -0.5028  1.4014 -3.3137
  543MOL0     H73253   2.303   8.373   3.975  0.4905  0.5419  1.9466
  543MOL0     H73254   2.413   8.157   4.172 -1.5550 -0.4212  1.5420
  543MOL0     H73255   2.259   8.216   4.162  0.6267  1.0879  2.7082
  543MOL0     H73256   2.548   8.462   4.166 -1.4467 -3.7961 -1.0475
  543MOL0     H73257   2.582   8.589   4.521  2.7079  2.0849  0.0846
  543MOL0     H73258   2.681   8.577   4.388 -0.9779 -1.9311  3.3122
  543MOL0     H73259   2.528   8.749   4.260 -4.7270 -1.5143 -0.6714
  543MOL0     H73260   2.614   8.812   4.402 -1.9588  3.5105  0.5176
  543MOL0     H73261   2.418   8.775   4.537  0.1808 -3.1129 -0.3579
  543MOL0     H73262   2.323   8.733   4.390 -1.8667 -0.5663  3.6149
  543MOL0     H73263   2.273   8.969   4.412  1.7773  0.8738  3.7361
  543MOL0     H73264   2.393   8.956   4.279 -1.3800  0.0890 -0.6952
  543MOL0     H73265   2.621   9.160   4.563 -1.8058 -2.5256 -0.5632
  543MOL0     H73266   2.744   9.347   4.627 -0.2699  1.4131  3.9440
  543MOL0     H73267   2.724   9.506   4.548 -1.8150  1.9304  0.4358
  543MOL0     H73268   2.620   9.460   4.683  0.9271 -1.0268  0.6585
  543MOL0     H73269   2.387   9.799   4.581 -0.4463 -1.2202 -1.5272
  543MOL0     H73270   2.399  10.053   4.592  2.2176  1.1388 -0.4510
  543MOL0     H73271   2.301  10.213   4.541 -1.2418  0.8950  1.5876
  543MOL0     H73272   2.354  10.371   4.479  0.6604 -1.3596  1.2620
  543MOL0     H73273   2.106  10.360   4.467  2.0228  2.1851  0.6019
  543MOL0     H73274   2.168  10.351   4.296 -0.1106 -0.2054 -0.1647
  543MOL0     H73275   2.134  10.117   4.289 -1.0583 -0.3726 -0.4222
  543MOL0     H73276   1.978  10.190   4.329 -0.8970 -0.0489  1.6421
  543MOL0     H73277   2.135  10.102   4.563 -1.8250 -2.0151  2.0033
  543MOL0     H73278   1.970  10.127   4.545  0.9628  0.2780  2.4075
  543MOL0     H73279   2.079   9.892   4.556  1.3879  1.2882  0.5314
  543MOL0     H73280   2.136   9.906   4.393  0.0930  0.5863 -0.4088
  543MOL0     H73281   1.854   9.893   4.493  1.8364  8.5408  1.8231
  543MOL0     H73282   1.869   9.973   4.339 -1.4142  1.0131  0.6379
  543MOL0     H73283   1.811   9.743   4.324  0.4482 -0.2844 -0.7565
  543MOL0     H73284   1.964   9.691   4.400  1.5489 -0.4971 -0.4218
  543MOL0     H73285   2.086   9.799   4.183  0.3820 -1.3878 -1.2632
  543MOL0     H73286   1.923   9.820   4.126  1.9742 -0.6408 -0.8872
  543MOL0     H73287   2.398  10.049   4.160  2.3012 -0.5596  0.2638
  543MOL0     H73288   2.392   9.789   4.166 -1.4270 -2.4751  1.0755
  543MOL0     H73289   2.286   9.416   4.303 -0.2553  0.4972  2.7485
  543MOL0     H73290   2.273   9.169   4.318  0.3298 -0.1273 -3.3081
  543MOL0     H73291   2.280   7.576   3.250  0.3435 -0.8139 -1.6753
  543MOL0     H73292   2.472   7.550   3.127 -0.8726  0.4570  0.7447
  543MOL0     H73293   2.860   7.634   2.977 -0.5106 -1.2269 -0.8071
  543MOL0     H73294   3.070   7.627   2.861 -1.5537  0.0506 -0.0971
  543MOL0     H73295   3.259   8.040   2.720 -1.8390  0.2137 -1.4540
  543MOL0     H73296   3.244   7.972   2.884  2.5966 -0.8235  0.6001
  543MOL0     H73297   3.469   7.994   2.832 -0.4182  0.1651 -1.7149
  543MOL0     H73298   3.461   7.906   2.682 -1.9797 -1.5799 -0.7874
  543MOL0     H73299   3.548   7.741   2.813 -0.4616  0.0333 -3.1179
  543MOL0     H73300   3.379   7.701   2.799 -1.7275  2.7058 -3.8887
  543MOL0     H73301   3.419   7.669   3.029  1.1064  0.8122  1.4421
  543MOL0     H73302   3.329   7.817   3.022 -2.4817 -1.8308 -2.6744
  543MOL0     H73303   3.696   7.924   3.206 -3.5945  3.3021  2.8560
  543MOL0     H73304   2.989   8.019   2.683 -0.9945  0.9196  0.0459
  543MOL0     H73305   2.756   7.993   2.748  0.9426  1.7167  1.7091
  544MOL0     O73306   4.381  10.741   7.539 -0.2275  0.3878  0.4983
  544MOL0     C73307   4.267  10.705   7.553 -0.1537  0.1405  0.1996
  544MOL0     O73308   4.160  10.778   7.522  0.4608  0.0906  0.4171
  544MOL0     C73309   4.172  10.851   7.405 -0.7849  0.7181 -0.2884
  544MOL0     C73310   4.181  10.798   7.271  0.0670  0.0656  0.3840
  544MOL0     C73311   4.192  10.885   7.161 -0.1296 -1.0726 -0.2600
  544MOL0     C73312   4.215  11.030   7.184  1.2091  1.3322  0.2231
  544MOL0     O73313   4.222  11.131   7.090 -0.4038  0.3576  0.0673
  544MOL0     C73314   4.224  11.088   6.951  0.3086 -0.1108  0.2637
  544MOL0     C73315   4.269  11.207   6.867  0.0753  0.2246 -0.5466
  544MOL0     C73316   4.209  11.351   6.910  0.6432 -0.7799 -1.0284
  544MOL0     C73317   4.058  11.351   6.908  0.1513  0.9235  0.0409
  544MOL0     C73318   3.993  11.494   6.944  0.1124 -0.3317 -0.1241
  544MOL0     C73319   3.844  11.484   6.968 -0.4236  0.3192 -0.8865
  544MOL0     C73320   3.800  11.616   7.014 -0.3516  0.5366 -0.3483
  544MOL0     C73321   3.840  11.659   7.155 -0.4922 -0.3443  0.0254
  544MOL0     N73322   3.844  11.554   7.252  0.4150  0.4530 -0.1729
  544MOL0     C73323   3.735  11.471   7.278  0.6810  0.2004  0.2632
  544MOL0     C73324   3.791  11.356   7.333  0.4585 -0.3419  0.1719
  544MOL0     C73325   3.718  11.219   7.351 -0.6786  0.0406 -0.0584
  544MOL0     C73326   3.703  11.191   7.495  0.2125 -0.0860  0.4563
  544MOL0     C73327   3.693  11.031   7.514  0.3213  0.5083  0.0111
  544MOL0     C73328   3.554  10.975   7.470 -1.3162  0.0257 -0.6094
  544MOL0     O73329   3.541  10.841   7.524  0.3743 -0.6835 -0.3555
  544MOL0     C73330   3.412  10.826   7.587 -0.2829  0.2034  0.0961
  544MOL0     C73331   3.405  10.784   7.719 -0.5891  0.3981 -0.5207
  544MOL0     C73332   3.285  10.759   7.779  0.0428  0.1673  1.0021
  544MOL0     C73333   3.288  10.733   7.928  0.3118 -0.0690  0.7103
  544MOL0     C73334   3.163  10.758   7.710 -0.1030 -0.1754  0.6012
  544MOL0     C73335   3.035  10.703   7.754  0.2380  0.5276  0.9642
  544MOL0     O73336   2.940  10.687   7.647 -0.0118 -0.4990 -0.2056
  544MOL0     C73337   2.811  10.645   7.681  0.0023 -0.6763 -0.5989
  544MOL0     C73338   2.745  10.544   7.615  0.8050  0.4645 -1.0997
  544MOL0     C73339   2.617  10.489   7.654 -0.2534  0.0100 -0.1761
  544MOL0     C73340   2.551  10.561   7.754  0.9038  0.5838 -1.0148
  544MOL0     O73341   2.423  10.512   7.792 -0.4673 -0.9804 -1.3918
  544MOL0     C73342   2.330  10.541   7.695  0.3804 -0.3060  1.0725
  544MOL0     C73343   2.189  10.572   7.744 -0.1004 -0.0699  0.4030
  544MOL0     C73344   2.083  10.465   7.756 -0.3701 -0.0828 -0.4290
  544MOL0     C73345   1.940  10.506   7.725 -0.6730  0.1549 -0.1722
  544MOL0     C73346   1.853  10.534   7.842  1.1350  0.3788 -0.0175
  544MOL0     C73347   1.782  10.419   7.905 -0.6081 -0.5756 -0.2248
  544MOL0     C73348   1.710  10.469   8.032  0.4307 -0.0318  0.3061
  544MOL0     C73349   1.635  10.361   8.097 -0.3421 -0.5437 -0.6379
  544MOL0    Cl73350   1.733  10.216   8.128 -0.3340  0.5190 -0.1854
  544MOL0     C73351   2.596  10.679   7.810 -0.3971 -0.4825  0.5859
  544MOL0     C73352   2.728  10.721   7.776 -0.5711  0.0144 -0.1819
  544MOL0     O73353   3.007  10.684   7.870 -0.8731 -0.4441  0.5135
  544MOL0     C73354   3.165  10.812   7.575 -0.0399  1.2137  0.8392
  544MOL0     C73355   3.292  10.848   7.517 -0.2884  0.0200  0.6350
  544MOL0     N73356   3.930  11.368   7.337  0.2278  0.1212  0.4853
  544MOL0     N73357   3.955  11.482   7.286 -0.8771  0.0311  0.5926
  544MOL0     C73358   4.222  11.072   7.314 -0.1109  0.6387  1.4334
  544MOL0     C73359   4.204  10.985   7.421  0.1363  0.1830  0.6275
  544MOL0     C73360   4.251  10.584   7.643  1.4847  0.0076  0.4685
  544MOL0     C73361   4.352  10.509   7.699  0.2519 -0.3447  0.2377
  544MOL0     C73362   4.338  10.399   7.785 -1.4270 -1.0694 -0.1001
  544MOL0     C73363   4.213  10.347   7.812  0.3128  1.1738  0.6059
  544MOL0     O73364   4.216  10.244   7.900  0.2251  0.2977 -0.5054
  544MOL0     C73365   4.093  10.192   7.936  0.1634 -0.5023 -0.6206
  544MOL0     C73366   4.076  10.142   8.076 -0.0659  1.2522  0.8030
  544MOL0     C73367   3.930  10.077   8.102 -0.3176  0.0737 -0.8977
  544MOL0     C73368   3.893  10.028   8.245 -0.8005 -0.6626  0.0905
  544MOL0     C73369   3.980   9.918   8.280  0.0885 -0.2061 -0.7921
  544MOL0     C73370   4.054   9.817   8.308  0.1090 -0.2700  0.6451
  544MOL0     C73371   4.107  10.400   7.742  0.1672 -0.2357 -1.2548
  544MOL0     C73372   4.123  10.524   7.670 -0.6330  0.2663  0.2178
  544MOL0     H73373   4.154  10.696   7.245  0.5968 -0.7416  2.7551
  544MOL0     H73374   4.183  10.856   7.057 -3.1392  1.0194 -0.6910
  544MOL0     H73375   4.297  11.012   6.925  0.3696  1.1899 -4.2017
  544MOL0     H73376   4.117  11.069   6.939 -0.0658  1.8760  0.0674
  544MOL0     H73377   4.376  11.219   6.888 -0.1151 -0.1248  0.7323
  544MOL0     H73378   4.251  11.192   6.760 -3.1895 -3.0081  0.2375
  544MOL0     H73379   4.251  11.376   7.008  0.5956  0.8782 -1.4062
  544MOL0     H73380   4.259  11.417   6.839  2.3351  0.1284  0.9116
  544MOL0     H73381   4.024  11.298   6.818  2.2982 -2.8739  1.2588
  544MOL0     H73382   4.036  11.284   6.992  0.9332  0.0823 -0.3962
  544MOL0     H73383   4.030  11.525   7.043 -0.7567  3.4597 -0.8125
  544MOL0     H73384   4.027  11.561   6.865  2.4917 -0.3402  0.7880
  544MOL0     H73385   3.794  11.460   6.874 -0.0871  1.7227 -1.4455
  544MOL0     H73386   3.818  11.400   7.034 -0.1440 -0.0254 -1.2048
  544MOL0     H73387   3.853  11.680   6.944  1.1334 -1.6843 -1.3468
  544MOL0     H73388   3.691  11.622   7.013 -0.3995  0.1100  0.7201
  544MOL0     H73389   3.782  11.745   7.188 -0.6615 -0.4010 -0.1214
  544MOL0     H73390   3.941  11.701   7.151 -0.4152  0.6159  5.0671
  544MOL0     H73391   3.636  11.491   7.237  1.9206 -0.1602 -3.3119
  544MOL0     H73392   3.619  11.216   7.306 -1.5394  2.1008  1.5010
  544MOL0     H73393   3.774  11.139   7.303  3.2684  1.4583  1.6970
  544MOL0     H73394   3.615  11.235   7.544  2.2086  1.3814  2.9775
  544MOL0     H73395   3.786  11.232   7.554  1.6570 -1.2383 -0.7000
  544MOL0     H73396   3.690  11.014   7.623  0.6302 -1.8765 -0.2892
  544MOL0     H73397   3.777  10.967   7.486  1.3292  2.0200 -0.5565
  544MOL0     H73398   3.548  10.974   7.361 -0.8086  1.5172 -0.6736
  544MOL0     H73399   3.474  11.042   7.503 -2.4630 -0.1664 -2.8241
  544MOL0     H73400   3.497  10.768   7.774 -0.5549  0.1147 -0.6594
  544MOL0     H73401   3.241  10.636   7.944 -1.8498  0.7636 -0.2848
  544MOL0     H73402   3.395  10.719   7.950  0.5298 -1.0500 -0.8431
  544MOL0     H73403   3.259  10.817   7.991 -1.5923 -0.8129  0.8819
  544MOL0     H73404   2.796  10.494   7.533  2.2939  0.2787 -0.1118
  544MOL0     H73405   2.574  10.399   7.612 -0.7845 -0.3932  1.1757
  544MOL0     H73406   2.373  10.634   7.655 -0.2927  0.6957  2.5751
  544MOL0     H73407   2.327  10.461   7.622  1.3133  0.5488  0.0589
  544MOL0     H73408   2.200  10.627   7.838  1.3216  0.0234  0.2023
  544MOL0     H73409   2.155  10.638   7.663 -2.0205 -0.2276  1.0252
  544MOL0     H73410   2.107  10.438   7.859 -0.3779  3.7835  0.7558
  544MOL0     H73411   2.118  10.388   7.686  0.7222 -1.4977  1.5687
  544MOL0     H73412   1.942  10.596   7.663  2.1437  0.6166  0.4225
  544MOL0     H73413   1.901  10.427   7.661  1.2477 -0.9432 -0.0876
  544MOL0     H73414   1.786  10.616   7.815 -0.2494  0.2658  2.7157
  544MOL0     H73415   1.909  10.580   7.925  1.0740  0.0813  0.1914
  544MOL0     H73416   1.717  10.377   7.828 -1.8723  0.9306 -0.0371
  544MOL0     H73417   1.855  10.340   7.918  3.0521  2.2707 -1.7704
  544MOL0     H73418   1.653  10.557   7.999 -2.0776 -2.5666 -2.8852
  544MOL0     H73419   1.785  10.501   8.104 -1.7668  1.4245  2.0946
  544MOL0     H73420   1.547  10.332   8.039 -1.5462 -0.2469  0.9532
  544MOL0     H73421   1.592  10.396   8.192 -1.0584  0.8979 -1.4582
  544MOL0     H73422   2.543  10.722   7.894 -0.3355 -1.1760  0.9861
  544MOL0     H73423   2.777  10.808   7.817  2.4284 -0.4572 -2.4441
  544MOL0     H73424   3.070  10.824   7.523 -0.2357  2.4770  1.4371
  544MOL0     H73425   3.292  10.885   7.415  1.2052 -3.6419 -0.8935
  544MOL0     H73426   4.247  11.176   7.335 -0.5432  0.9865  0.3348
  544MOL0     H73427   4.222  11.032   7.517  1.0704  1.1005  0.0273
  544MOL0     H73428   4.451  10.552   7.687 -0.1537  0.7077  0.5681
  544MOL0     H73429   4.422  10.361   7.842 -1.3626 -1.9718 -0.7687
  544MOL0     H73430   4.018  10.271   7.936 -1.5519 -1.9808  1.7503
  544MOL0     H73431   4.062  10.112   7.869  1.1337 -0.4469 -1.1529
  544MOL0     H73432   4.097  10.220   8.149  2.7813  2.7124 -1.3670
  544MOL0     H73433   4.155  10.069   8.093 -0.1166  1.6198  2.8439
  544MOL0     H73434   3.902  10.003   8.026 -1.9678  0.1614 -0.4116
  544MOL0     H73435   3.855  10.155   8.085  0.6542  1.7274  1.7528
  544MOL0     H73436   3.789   9.994   8.254  0.0750 -2.9694  2.8597
  544MOL0     H73437   3.908  10.112   8.314  4.7921 -1.5764  0.4167
  544MOL0     H73438   4.121   9.736   8.328  0.1910 -0.4363 -0.2789
  544MOL0     H73439   4.005  10.364   7.748 -0.4855  1.5106 -1.4045
  544MOL0     H73440   4.047  10.571   7.608 -0.0899 -0.4703 -1.0331
  545MOL0     O73441   2.595  10.341  10.339 -0.4549 -0.1761 -0.2050
  545MOL0     C73442   2.549  10.444  10.288  0.0568 -0.0539 -0.3935
  545MOL0     O73443   2.578  10.483  10.159  0.6911 -0.5302  0.3382
  545MOL0     C73444   2.591  10.390  10.060  0.0995  0.9774  0.5933
  545MOL0     C73445   2.695  10.406   9.965  0.2934  1.1856 -0.6657
  545MOL0     C73446   2.705  10.322   9.854  0.1833 -1.1503 -0.1892
  545MOL0     C73447   2.602  10.227   9.835 -0.1159  0.2818  0.0996
  545MOL0     O73448   2.622  10.150   9.721  0.2966  0.2375 -0.2070
  545MOL0     C73449   2.552  10.020   9.721 -1.2028  0.5894  0.1247
  545MOL0     C73450   2.554   9.945   9.585  0.0275  0.5251  0.4448
  545MOL0     C73451   2.485   9.812   9.582  0.6107 -0.3055  0.3765
  545MOL0     C73452   2.519   9.707   9.681  0.1984 -0.2796  0.8114
  545MOL0     C73453   2.492   9.561   9.634  0.4963 -0.0682  0.0827
  545MOL0     C73454   2.339   9.526   9.625  0.1545 -0.3237  0.7945
  545MOL0     C73455   2.260   9.579   9.504 -0.1982 -0.7282  0.6647
  545MOL0     C73456   2.113   9.548   9.508  0.0263  0.0463  0.5690
  545MOL0     N73457   2.032   9.639   9.589  0.0784  0.1520  0.5523
  545MOL0     C73458   2.076   9.735   9.671  0.5596 -1.1650  1.3570
  545MOL0     C73459   1.971   9.771   9.749 -0.5215 -0.8207 -1.0231
  545MOL0     C73460   1.955   9.890   9.840  0.3422  0.8030 -0.0086
  545MOL0     C73461   1.966   9.847   9.988 -0.0280 -0.4192 -0.5038
  545MOL0     C73462   1.859   9.751  10.041 -0.0285 -0.0212  0.1677
  545MOL0     C73463   1.713   9.788  10.013 -0.2125  0.1280  0.5481
  545MOL0     O73464   1.676   9.922  10.005  0.3962 -0.2685  1.1508
  545MOL0     C73465   1.689  10.009  10.109 -0.2679  0.8129 -0.0695
  545MOL0     C73466   1.679  10.141  10.069 -0.5122 -0.1648  0.8249
  545MOL0     C73467   1.685  10.238  10.181 -0.1118 -1.1837 -0.2691
  545MOL0     C73468   1.681  10.380  10.140  0.3549 -0.6701 -0.4508
  545MOL0     C73469   1.677  10.193  10.316  0.7296  1.0582 -0.7530
  545MOL0     C73470   1.668  10.292  10.428 -0.0166  0.8572 -0.1495
  545MOL0     O73471   1.717  10.251  10.548  0.3562 -0.1710 -0.8925
  545MOL0     C73472   1.723  10.333  10.655 -0.2032  0.7784  1.0850
  545MOL0     C73473   1.786  10.466  10.648 -0.6135  0.0769  0.0102
  545MOL0     C73474   1.804  10.535  10.765 -0.2960 -0.2747 -0.4319
  545MOL0     C73475   1.750  10.490  10.883  0.0480  0.8893 -0.4723
  545MOL0     O73476   1.793  10.522  11.007  0.4319 -0.2834 -0.9999
  545MOL0     C73477   1.870  10.645  11.023  0.3246 -0.4310 -0.3662
  545MOL0     C73478   1.828  10.699  11.161  1.1568 -0.7777  1.0263
  545MOL0     C73479   1.899  10.624  11.272  0.4707 -0.1172  0.2790
  545MOL0     C73480   1.882  10.667  11.417  0.4230 -0.9758  0.6219
  545MOL0     C73481   1.967  10.583  11.513  0.7257  0.2967 -0.2552
  545MOL0     C73482   1.947  10.618  11.665 -0.5368 -0.8934 -0.5695
  545MOL0     C73483   2.067  10.551  11.735  0.0442 -0.3643 -0.6117
  545MOL0     C73484   2.063  10.580  11.891  0.6319  0.3027  1.5235
  545MOL0    Cl73485   2.124  10.450  11.983  0.1130  0.3527  0.5340
  545MOL0     C73486   1.666  10.381  10.878 -0.1080  0.0284  0.4219
  545MOL0     C73487   1.646  10.304  10.768  0.0930  0.0024  1.0543
  545MOL0     O73488   1.587  10.389  10.417  0.3414 -0.1205  1.0891
  545MOL0     C73489   1.669  10.061  10.346  0.2092 -0.2763  0.7849
  545MOL0     C73490   1.689   9.967  10.249  0.6306  0.8803  0.1501
  545MOL0     N73491   1.865   9.689   9.713 -0.7505  0.7180 -0.0798
  545MOL0     N73492   1.902   9.605   9.623  0.1905  0.9433 -0.0651
  545MOL0     C73493   2.491  10.210   9.919  0.0749  0.1847 -0.4584
  545MOL0     C73494   2.485  10.295  10.032  0.3691  0.2647 -0.5847
  545MOL0     C73495   2.447  10.530  10.359 -0.4703 -0.1551 -0.1651
  545MOL0     C73496   2.376  10.493  10.472 -0.1567  1.4383 -0.2910
  545MOL0     C73497   2.283  10.580  10.526  0.5516  0.0145  0.4490
  545MOL0     C73498   2.259  10.707  10.466  0.0027  1.1539  0.0688
  545MOL0     O73499   2.166  10.805  10.502 -0.1393  0.5227 -0.4148
  545MOL0     C73500   2.082  10.795  10.617 -0.3393 -0.2083  0.2200
  545MOL0     C73501   2.055  10.933  10.681 -0.0935  0.6693 -0.2782
  545MOL0     C73502   1.959  10.931  10.802 -0.6479  0.3702 -0.3057
  545MOL0     C73503   1.895  11.068  10.816  0.4860  0.8769  0.0551
  545MOL0     C73504   1.788  11.093  10.712  1.1455  0.3442 -0.0544
  545MOL0     C73505   1.693  11.103  10.634  0.1722  0.0300  0.2062
  545MOL0     C73506   2.335  10.742  10.363  0.3836 -0.6873 -0.1206
  545MOL0     C73507   2.418  10.654  10.301 -0.3056  0.8406 -0.2996
  545MOL0     H73508   2.773  10.480   9.978  0.8412  0.5624 -0.3375
  545MOL0     H73509   2.787  10.311   9.784 -1.5200 -1.1858 -2.2629
  545MOL0     H73510   2.592   9.958   9.802 -2.6653  2.9491  2.7842
  545MOL0     H73511   2.446  10.044   9.736 -0.6967  3.8286 -0.7523
  545MOL0     H73512   2.516  10.020   9.515 -2.4216  0.4922  1.6225
  545MOL0     H73513   2.657   9.915   9.565 -0.1084  1.7103 -2.5380
  545MOL0     H73514   2.380   9.837   9.600  1.2441  3.2619 -0.1700
  545MOL0     H73515   2.487   9.768   9.481 -1.0669  0.3083  0.0435
  545MOL0     H73516   2.626   9.723   9.696  0.5678 -1.9291  0.2128
  545MOL0     H73517   2.453   9.732   9.765 -1.3982 -1.2666 -0.0797
  545MOL0     H73518   2.536   9.551   9.534  2.8170  2.6428  0.7147
  545MOL0     H73519   2.535   9.502   9.715 -1.8533  0.4584  1.8085
  545MOL0     H73520   2.338   9.419   9.604 -0.5156  0.2750 -2.9455
  545MOL0     H73521   2.283   9.552   9.716 -0.8497 -0.1987  0.1533
  545MOL0     H73522   2.272   9.687   9.500  3.1918 -0.9109  2.4646
  545MOL0     H73523   2.308   9.544   9.412 -1.9461 -0.1249 -0.5436
  545MOL0     H73524   2.105   9.447   9.550 -0.9678  0.9592  2.7815
  545MOL0     H73525   2.080   9.545   9.404  3.7679  1.0044 -0.7864
  545MOL0     H73526   2.171   9.786   9.680 -0.3062  0.3021  2.6767
  545MOL0     H73527   2.031   9.964   9.813  0.8984 -0.0943 -0.9768
  545MOL0     H73528   1.854   9.930   9.825 -0.5716 -0.5944  2.0288
  545MOL0     H73529   1.952   9.938  10.047 -0.1981 -0.4994 -0.4198
  545MOL0     H73530   2.066   9.810  10.010  0.8291  1.9294 -0.1226
  545MOL0     H73531   1.871   9.737  10.149 -4.3711  2.6228  1.2237
  545MOL0     H73532   1.864   9.654   9.992 -2.4127 -0.0349 -0.1902
  545MOL0     H73533   1.649   9.737  10.086 -1.9028  1.2342 -0.1072
  545MOL0     H73534   1.694   9.758   9.909  2.1240  0.7789 -0.1378
  545MOL0     H73535   1.671  10.153   9.962 -0.1211 -2.3211  0.4973
  545MOL0     H73536   1.745  10.454  10.189  0.0716  1.0571 -2.5279
  545MOL0     H73537   1.701  10.398  10.034  0.0824  2.1358 -0.0988
  545MOL0     H73538   1.577  10.414  10.152  1.1847  2.9622 -2.0567
  545MOL0     H73539   1.828  10.501  10.555 -1.5326 -0.9092 -0.7969
  545MOL0     H73540   1.881  10.611  10.752  1.0542 -1.7932 -1.8067
  545MOL0     H73541   1.979  10.635  11.033  0.2447  0.5554  2.2800
  545MOL0     H73542   1.838  10.716  10.947 -1.8417 -1.3251 -0.3626
  545MOL0     H73543   1.853  10.804  11.181  0.4425 -0.6588  1.3269
  545MOL0     H73544   1.724  10.675  11.183  1.2643 -1.2690  1.0080
  545MOL0     H73545   2.003  10.608  11.242  0.5894 -0.0769  0.6652
  545MOL0     H73546   1.857  10.523  11.271  0.9153 -0.3079  0.6362
  545MOL0     H73547   1.914  10.770  11.433  0.5751 -1.0900  1.0661
  545MOL0     H73548   1.776  10.652  11.438 -0.5457  1.6236 -1.7053
  545MOL0     H73549   2.071  10.596  11.481  0.8359  1.7080  0.5660
  545MOL0     H73550   1.944  10.477  11.500 -4.0311  1.3324 -2.2296
  545MOL0     H73551   1.947  10.725  11.688  2.6400 -1.7100  4.9505
  545MOL0     H73552   1.854  10.568  11.693 -0.5549  0.3133  1.7615
  545MOL0     H73553   2.156  10.603  11.699 -0.1965  0.9974  0.6139
  545MOL0     H73554   2.061  10.443  11.718 -0.9220 -0.1363 -1.8588
  545MOL0     H73555   1.957  10.592  11.918  0.4487 -2.0618  2.0727
  545MOL0     H73556   2.102  10.678  11.917  0.6027  1.8377 -3.1969
  545MOL0     H73557   1.613  10.355  10.969  2.0475 -2.8579  0.9985
  545MOL0     H73558   1.578  10.220  10.774  2.1425 -1.6852  2.2732
  545MOL0     H73559   1.653  10.029  10.449  1.1579 -0.9998  0.7163
  545MOL0     H73560   1.695   9.868  10.293  2.2306  2.1725  3.1156
  545MOL0     H73561   2.400  10.153   9.901 -0.1048  0.3015  0.0758
  545MOL0     H73562   2.395  10.283  10.092 -0.8607  0.0506 -2.3901
  545MOL0     H73563   2.363  10.391  10.505  1.5989  1.9549  2.3133
  545MOL0     H73564   2.233  10.540  10.613 -0.6708 -1.3242 -0.8123
  545MOL0     H73565   1.985  10.750  10.592  0.8173 -1.5082 -2.2875
  545MOL0     H73566   2.139  10.730  10.684  2.2727 -0.1047 -1.7646
  545MOL0     H73567   2.007  10.994  10.603 -0.2135 -1.6293 -2.0997
  545MOL0     H73568   2.143  10.996  10.698  2.6591 -1.3958 -4.8957
  545MOL0     H73569   2.027  10.907  10.885  1.5541  3.1216 -1.1654
  545MOL0     H73570   1.885  10.852  10.787  0.9154 -0.7905 -2.4697
  545MOL0     H73571   1.967  11.150  10.810  0.5650  0.6966 -1.9224
  545MOL0     H73572   1.839  11.083  10.909 -1.0814  0.5656 -0.7857
  545MOL0     H73573   1.616  11.091  10.560 -0.7452  2.5578  0.6633
  545MOL0     H73574   2.324  10.845  10.330 -1.7551 -1.0728 -0.7457
  545MOL0     H73575   2.468  10.690  10.211  0.3004  0.6554 -0.0339
  546MOL0     O73576   1.658   9.653   2.299  0.0953  0.0290  0.1146
  546MOL0     C73577   1.629   9.752   2.364 -0.3055  0.2572  0.1640
  546MOL0     O73578   1.703   9.864   2.380 -0.1924 -0.3230  0.7484
  546MOL0     C73579   1.825   9.875   2.329 -0.1419 -0.2853  0.4539
  546MOL0     C73580   1.931   9.927   2.406  1.6474 -0.8186 -0.1981
  546MOL0     C73581   2.049   9.961   2.348 -0.1765  0.0321 -0.0825
  546MOL0     C73582   2.074   9.934   2.213  0.3785 -0.6780 -0.5110
  546MOL0     O73583   2.198   9.970   2.158 -0.1106  0.2799 -0.7131
  546MOL0     C73584   2.193   9.998   2.014 -0.1891  0.4471 -0.2245
  546MOL0     C73585   2.311  10.099   1.989  0.4829  0.3976  0.9375
  546MOL0     C73586   2.257  10.242   1.997  0.6777 -0.3244 -0.2835
  546MOL0     C73587   2.371  10.336   2.006  0.5237  0.1944 -0.1829
  546MOL0     C73588   2.349  10.491   2.024  0.5381  0.0515  0.6039
  546MOL0     C73589   2.478  10.560   2.003 -0.7839 -0.2899  0.2684
  546MOL0     C73590   2.574  10.550   2.128  0.6332  0.2920  0.5555
  546MOL0     C73591   2.704  10.633   2.107  0.5668  0.0757 -0.3966
  546MOL0     N73592   2.781  10.605   1.975  0.7324  0.9499 -0.9784
  546MOL0     C73593   2.809  10.468   1.948 -0.7103 -0.3866  1.0273
  546MOL0     C73594   2.816  10.465   1.808  0.1097  0.3972  0.6485
  546MOL0     C73595   2.798  10.341   1.719  0.1438 -0.6086  0.0910
  546MOL0     C73596   2.654  10.309   1.685 -0.3432  0.1932 -0.3191
  546MOL0     C73597   2.589  10.429   1.613 -0.7428  0.9357  0.8065
  546MOL0     C73598   2.441  10.412   1.574 -0.1207 -0.4511 -0.4933
  546MOL0     O73599   2.434  10.286   1.501  0.0486  0.0032  0.4512
  546MOL0     C73600   2.307  10.269   1.447  0.3391 -0.0896 -0.1335
  546MOL0     C73601   2.227  10.182   1.510  0.0541 -0.2368 -0.4222
  546MOL0     C73602   2.098  10.156   1.479  0.5147 -0.2607  0.0582
  546MOL0     C73603   2.017  10.067   1.569 -0.6013  0.2121  0.2261
  546MOL0     C73604   2.034  10.240   1.382  0.0057 -0.1562 -0.0426
  546MOL0     C73605   1.885  10.240   1.356  0.3399 -1.2062  0.9856
  546MOL0     O73606   1.804  10.140   1.400 -0.5499 -0.5822 -1.0530
  546MOL0     C73607   1.683  10.108   1.347  0.0887  1.4091  1.2663
  546MOL0     C73608   1.568  10.058   1.414  0.3695 -0.5534  0.3128
  546MOL0     C73609   1.461  10.014   1.341  0.1718  0.6863 -0.5076
  546MOL0     C73610   1.459  10.007   1.206  0.8083 -0.4500 -0.6108
  546MOL0     O73611   1.348   9.956   1.135 -0.4299  0.6424 -0.8860
  546MOL0     C73612   1.218   9.938   1.199 -0.2286  0.5935  0.3998
  546MOL0     C73613   1.106   9.884   1.112  0.1032  0.2242 -0.2966
  546MOL0     C73614   1.144   9.771   1.019 -0.8572 -0.8505  1.1211
  546MOL0     C73615   1.035   9.729   0.926  1.2337 -1.0072  0.1959
  546MOL0     C73616   1.077   9.585   0.876 -0.4454 -0.5243 -0.0681
  546MOL0     C73617   0.956   9.490   0.872 -0.2771 -0.5591 -0.3079
  546MOL0     C73618   0.998   9.342   0.841  0.1808 -1.0709 -0.9028
  546MOL0     C73619   0.983   9.295   0.697  0.3357  0.5534 -0.4690
  546MOL0    Cl73620   1.109   9.352   0.585  0.4647 -0.3564 -0.4561
  546MOL0     C73621   1.557  10.061   1.139 -0.4963 -0.6176 -0.2204
  546MOL0     C73622   1.670  10.105   1.211 -0.3640 -0.1080  0.7751
  546MOL0     O73623   1.854  10.324   1.276  0.0288 -1.2280  0.5702
  546MOL0     C73624   2.117  10.328   1.313 -0.5461 -0.2008 -0.1324
  546MOL0     C73625   2.247  10.354   1.350 -0.3207  0.5983 -0.9185
  546MOL0     N73626   2.820  10.596   1.759 -0.0021 -0.1909 -0.8692
  546MOL0     N73627   2.797  10.685   1.863 -0.0939  0.8311  0.2377
  546MOL0     C73628   1.977   9.867   2.132 -0.2637  0.1922  0.7934
  546MOL0     C73629   1.855   9.853   2.189  0.2360  0.6763 -0.0067
  546MOL0     C73630   1.503   9.736   2.438 -0.5156 -1.0238 -0.0487
  546MOL0     C73631   1.442   9.855   2.494  0.5457 -0.7194  0.2446
  546MOL0     C73632   1.330   9.843   2.569  0.7151 -0.5003  0.0430
  546MOL0     C73633   1.272   9.721   2.591  0.3103  0.0664 -0.9076
  546MOL0     O73634   1.159   9.708   2.666  0.8558  0.7457 -0.4747
  546MOL0     C73635   1.033   9.708   2.592 -0.6441  0.2981  0.0819
  546MOL0     C73636   0.912   9.677   2.678  0.3798  0.0818  0.3540
  546MOL0     C73637   0.891   9.771   2.798  0.4060  0.3164  0.1447
  546MOL0     C73638   0.997   9.752   2.916  0.8461 -0.4856  0.3150
  546MOL0     C73639   0.929   9.777   3.046  0.2561  0.6203 -0.6221
  546MOL0     C73640   0.876   9.803   3.156 -0.8716 -1.0860  0.2495
  546MOL0     C73641   1.323   9.606   2.535  0.1973  0.2397 -0.3924
  546MOL0     C73642   1.443   9.609   2.463  0.5918  0.1831 -0.2404
  546MOL0     H73643   1.919   9.938   2.513 -2.3429 -0.7513 -0.5023
  546MOL0     H73644   2.130  10.000   2.409  0.5488 -1.3174 -0.1389
  546MOL0     H73645   2.225   9.909   1.958  1.3616  0.7459  0.1272
  546MOL0     H73646   2.095  10.033   1.982 -0.7201 -1.2396 -0.5357
  546MOL0     H73647   2.389  10.079   2.063  1.1082  2.0459  0.7644
  546MOL0     H73648   2.344  10.091   1.885  0.8556 -2.4802  1.2071
  546MOL0     H73649   2.186  10.264   1.917  2.3038  1.0670 -1.4086
  546MOL0     H73650   2.200  10.266   2.088  0.1633 -3.8640  0.4743
  546MOL0     H73651   2.436  10.303   2.087 -0.7786  2.8045  2.0725
  546MOL0     H73652   2.436  10.327   1.918  1.2464 -0.2574  0.3847
  546MOL0     H73653   2.273  10.526   1.953  0.2865  2.7548  2.0494
  546MOL0     H73654   2.301  10.524   2.117 -3.3799 -1.8892 -0.5004
  546MOL0     H73655   2.522  10.533   1.907 -1.2451  1.5624 -0.5099
  546MOL0     H73656   2.470  10.667   1.984 -0.9840 -0.6044 -1.5462
  546MOL0     H73657   2.540  10.584   2.226  2.0647  0.4152  1.0440
  546MOL0     H73658   2.594  10.445   2.152  2.8445  0.6945  0.7328
  546MOL0     H73659   2.771  10.631   2.194 -2.0333 -1.1693  1.7310
  546MOL0     H73660   2.662  10.734   2.102 -1.1752 -0.5940  0.0012
  546MOL0     H73661   2.796  10.378   2.007 -1.5651 -1.2420 -0.4083
  546MOL0     H73662   2.847  10.374   1.627  2.3900  1.8746  2.0279
  546MOL0     H73663   2.855  10.260   1.764  0.2569 -0.2861  0.5341
  546MOL0     H73664   2.602  10.277   1.776 -0.7820  0.0665 -0.6084
  546MOL0     H73665   2.663  10.225   1.615  0.2833 -0.9181  1.0508
  546MOL0     H73666   2.643  10.445   1.520  2.2578  3.3970  2.7544
  546MOL0     H73667   2.600  10.524   1.665  2.8568  0.6726  0.7708
  546MOL0     H73668   2.406  10.499   1.518  0.9605 -0.4275 -1.1610
  546MOL0     H73669   2.377  10.413   1.663 -0.2842 -4.1482 -0.3989
  546MOL0     H73670   2.255  10.115   1.592 -3.4656 -1.5442 -0.1285
  546MOL0     H73671   1.981   9.985   1.507  0.3678 -0.1282  0.1005
  546MOL0     H73672   2.078  10.022   1.648  1.0572  1.0787 -0.5174
  546MOL0     H73673   1.935  10.111   1.626 -1.7680  0.2584 -1.4361
  546MOL0     H73674   1.567  10.056   1.523 -0.8940 -1.0400  0.3163
  546MOL0     H73675   1.369   9.981   1.388  1.1406 -1.3485  0.0613
  546MOL0     H73676   1.233   9.872   1.285 -0.1235  0.8505  0.5807
  546MOL0     H73677   1.184  10.031   1.244  2.0861  1.4703  0.5005
  546MOL0     H73678   1.027   9.853   1.181 -3.6685 -1.0639 -4.6727
  546MOL0     H73679   1.070   9.974   1.062 -3.9192 -1.1075 -0.2159
  546MOL0     H73680   1.184   9.683   1.071 -1.8937 -3.2845 -1.9142
  546MOL0     H73681   1.227   9.809   0.959 -3.3814  2.1978 -0.6928
  546MOL0     H73682   0.936   9.720   0.971  1.5336 -0.3342  1.0194
  546MOL0     H73683   1.025   9.800   0.843  0.6719  0.0816  1.1676
  546MOL0     H73684   1.144   9.537   0.947  0.0007  0.1055 -0.0598
  546MOL0     H73685   1.117   9.578   0.774 -0.1348  0.4105 -0.0159
  546MOL0     H73686   0.921   9.489   0.975  1.3440 -0.2517  0.2845
  546MOL0     H73687   0.884   9.532   0.800 -1.2925 -2.1801 -0.2706
  546MOL0     H73688   0.932   9.273   0.895 -0.7841 -3.2264 -4.4790
  546MOL0     H73689   1.098   9.317   0.877 -1.2284 -4.3284  1.2907
  546MOL0     H73690   0.888   9.331   0.656 -1.5652 -2.7775  0.6064
  546MOL0     H73691   0.999   9.187   0.696  2.6622  0.8367  0.9183
  546MOL0     H73692   1.557  10.076   1.031 -1.0760 -0.4736 -0.2040
  546MOL0     H73693   1.751  10.134   1.145 -0.0341 -0.7835  0.8736
  546MOL0     H73694   2.070  10.399   1.246 -0.9236 -0.1621  0.1644
  546MOL0     H73695   2.300  10.440   1.310 -0.7472  1.1669 -0.2963
  546MOL0     H73696   1.995   9.831   2.031  0.1226  0.9152  0.5985
  546MOL0     H73697   1.779   9.801   2.132  0.0924  0.7175  0.1441
  546MOL0     H73698   1.490   9.951   2.474 -0.6668 -0.7191 -3.3221
  546MOL0     H73699   1.283   9.935   2.602  1.5554  0.3937 -1.1596
  546MOL0     H73700   1.016   9.807   2.549 -0.5956 -0.4591 -1.8152
  546MOL0     H73701   1.051   9.655   2.498  1.2159  1.6426 -0.3846
  546MOL0     H73702   0.925   9.576   2.720 -1.4562 -0.4509 -0.2387
  546MOL0     H73703   0.818   9.673   2.621 -0.2865  1.1129  1.3413
  546MOL0     H73704   0.792   9.759   2.842  1.2954 -0.0870  2.1167
  546MOL0     H73705   0.899   9.877   2.769 -1.7147  0.5394  0.1870
  546MOL0     H73706   1.077   9.823   2.899  0.9620  0.0131  2.6638
  546MOL0     H73707   1.035   9.649   2.918 -1.4531 -1.4806  4.2282
  546MOL0     H73708   0.838   9.813   3.256 -1.0816  2.4142 -0.0654
  546MOL0     H73709   1.286   9.506   2.553 -2.8701  1.2239 -0.5572
  546MOL0     H73710   1.493   9.526   2.415  1.2633  1.7112 -2.3238
  547MOL0     O73711   6.338   2.841   9.959 -0.8118  0.4628 -0.0132
  547MOL0     C73712   6.302   2.746  10.027  0.9176  0.0137 -0.6528
  547MOL0     O73713   6.247   2.625   9.989  0.7395 -0.4886 -0.3021
  547MOL0     C73714   6.272   2.592   9.857 -0.0814 -0.4331  1.1221
  547MOL0     C73715   6.404   2.592   9.809  0.4148  0.6905 -0.4035
  547MOL0     C73716   6.439   2.563   9.672  0.8759 -0.2165  1.1532
  547MOL0     C73717   6.332   2.516   9.590  0.9024  0.1768 -0.2733
  547MOL0     O73718   6.355   2.476   9.460 -0.4613  0.4934  0.4022
  547MOL0     C73719   6.488   2.449   9.418  0.9772 -0.5207 -0.3012
  547MOL0     C73720   6.545   2.569   9.337  0.2130  0.3176  0.7704
  547MOL0     C73721   6.515   2.711   9.375 -0.3594 -0.1508 -0.0729
  547MOL0     C73722   6.608   2.790   9.291 -0.8348 -0.5618 -0.2767
  547MOL0     C73723   6.589   2.935   9.321  0.0441  1.4289 -0.2596
  547MOL0     C73724   6.712   3.021   9.297 -0.0640  0.3864 -0.1858
  547MOL0     C73725   6.808   3.013   9.420  0.6129  0.3353  0.3638
  547MOL0     C73726   6.943   3.090   9.408  0.0381 -1.0835 -0.2083
  547MOL0     N73727   7.025   3.049   9.291  0.2703  0.0778  0.3511
  547MOL0     C73728   6.998   3.090   9.163  0.9310 -1.0003 -0.7396
  547MOL0     C73729   7.075   3.020   9.083  0.3555 -0.6018  0.8354
  547MOL0     C73730   7.092   3.051   8.941  0.4020 -0.4792 -0.7805
  547MOL0     C73731   7.088   2.929   8.849  0.1337 -0.6810  0.0414
  547MOL0     C73732   7.091   2.979   8.703 -0.5305  0.7019 -0.5675
  547MOL0     C73733   7.055   2.855   8.613 -0.5963 -0.1404  0.0388
  547MOL0     O73734   6.952   2.762   8.660 -0.4845 -0.2637  0.5042
  547MOL0     C73735   6.923   2.663   8.579  0.3181  0.1487 -0.1849
  547MOL0     C73736   6.977   2.652   8.445 -0.2804 -0.1378 -0.0949
  547MOL0     C73737   6.951   2.531   8.375 -0.0330 -0.0656  1.0408
  547MOL0     C73738   7.005   2.542   8.231 -0.0579 -0.1393 -0.1064
  547MOL0     C73739   6.872   2.432   8.433 -0.3059  0.3763 -0.8059
  547MOL0     C73740   6.828   2.312   8.351  0.6097  0.2394  0.1274
  547MOL0     O73741   6.791   2.336   8.221 -0.3231 -0.0204  0.7956
  547MOL0     C73742   6.737   2.239   8.154 -1.1418 -0.2070  0.0470
  547MOL0     C73743   6.613   2.268   8.095  0.8300  0.1697 -0.0124
  547MOL0     C73744   6.539   2.166   8.028  0.6205  0.4409 -0.0427
  547MOL0     C73745   6.595   2.037   8.020 -0.1126 -0.0076  0.1069
  547MOL0     O73746   6.526   1.933   7.960 -0.5745  0.3245  0.6639
  547MOL0     C73747   6.376   1.935   7.921 -0.3352  0.2440 -0.1270
  547MOL0     C73748   6.291   1.927   8.044 -0.1222  0.3271 -0.9512
  547MOL0     C73749   6.146   1.944   8.011 -0.8291  0.0307  0.3906
  547MOL0     C73750   6.068   1.958   8.147  1.0913  0.1209  0.1782
  547MOL0     C73751   5.912   1.970   8.119  0.9256  0.1893 -0.2025
  547MOL0     C73752   5.851   1.966   8.272 -0.6107  0.1456  0.1262
  547MOL0     C73753   5.705   2.004   8.304  0.5613 -0.5141 -0.1366
  547MOL0     C73754   5.662   1.948   8.438  0.0501  0.4244  0.7071
  547MOL0    Cl73755   5.652   1.769   8.418 -0.5162  0.1040 -0.2030
  547MOL0     C73756   6.719   2.012   8.075  0.7682  0.1714 -0.5052
  547MOL0     C73757   6.788   2.107   8.147 -0.3791 -0.0612  0.8382
  547MOL0     O73758   6.799   2.207   8.414 -0.6444  0.0611  0.2472
  547MOL0     C73759   6.820   2.448   8.561 -0.5005  0.1952 -0.7559
  547MOL0     C73760   6.840   2.570   8.630 -1.1085  0.6504  0.2090
  547MOL0     N73761   7.144   2.933   9.165 -0.4557  0.5487  0.0971
  547MOL0     N73762   7.121   2.957   9.294 -0.5479 -0.7820 -0.0044
  547MOL0     C73763   6.201   2.515   9.641 -0.5687  0.6422  0.9864
  547MOL0     C73764   6.169   2.550   9.776 -0.4435  0.0472  0.3648
  547MOL0     C73765   6.304   2.760  10.177 -1.0294  0.2459  0.8275
  547MOL0     C73766   6.303   2.649  10.268 -0.0579 -0.0528  1.1091
  547MOL0     C73767   6.313   2.657  10.412  0.1557  0.0967  0.0028
  547MOL0     C73768   6.342   2.781  10.459 -0.1095 -0.4906 -0.7132
  547MOL0     O73769   6.355   2.789  10.591  0.1200 -0.1297 -0.8484
  547MOL0     C73770   6.314   2.904  10.660 -0.8598 -0.5004 -0.4297
  547MOL0     C73771   6.159   2.922  10.642  0.6829  0.0362 -0.8797
  547MOL0     C73772   6.100   3.013  10.751  0.2785 -0.1446 -0.8069
  547MOL0     C73773   5.954   3.002  10.785  0.3966  0.4203 -0.1227
  547MOL0     C73774   5.859   3.067  10.700  0.2497  0.0380  0.2170
  547MOL0     C73775   5.801   3.130  10.613  0.1987  0.3947 -0.9420
  547MOL0     C73776   6.348   2.885  10.369 -1.3230  0.0966 -0.1300
  547MOL0     C73777   6.327   2.882  10.233  0.2945  0.9441  0.6583
  547MOL0     H73778   6.484   2.624   9.875 -0.9045  0.8691  1.1792
  547MOL0     H73779   6.540   2.571   9.634 -0.3120 -0.0248 -2.3303
  547MOL0     H73780   6.555   2.415   9.497  0.9538  1.3685  0.5910
  547MOL0     H73781   6.479   2.362   9.353 -0.5376 -1.0033  0.4856
  547MOL0     H73782   6.652   2.550   9.330 -0.1268 -1.3173 -0.9573
  547MOL0     H73783   6.504   2.560   9.236  2.5661 -2.4046 -0.0834
  547MOL0     H73784   6.412   2.726   9.341 -1.1524  0.2603  2.3181
  547MOL0     H73785   6.529   2.729   9.482 -0.5187 -1.6186  0.2220
  547MOL0     H73786   6.714   2.782   9.317 -0.8713  1.8208  0.8611
  547MOL0     H73787   6.594   2.768   9.185 -0.1981  2.2261 -0.9992
  547MOL0     H73788   6.496   2.984   9.290 -1.4750  0.6085  2.6062
  547MOL0     H73789   6.586   2.939   9.431  1.3624 -1.4794 -0.0301
  547MOL0     H73790   6.763   2.966   9.218 -0.0741 -2.4310  1.6254
  547MOL0     H73791   6.681   3.122   9.267 -1.0608  0.3864  0.7584
  547MOL0     H73792   6.759   3.066   9.502 -0.9966  0.4526 -0.6415
  547MOL0     H73793   6.831   2.912   9.454  1.6295  0.5070  0.2449
  547MOL0     H73794   7.013   3.068   9.490 -1.2172 -0.9975  0.9245
  547MOL0     H73795   6.915   3.195   9.409 -0.5891 -1.2270  1.4592
  547MOL0     H73796   6.930   3.174   9.147  3.2959  1.6691  1.8668
  547MOL0     H73797   7.018   3.127   8.915 -1.3118 -1.8344 -0.0878
  547MOL0     H73798   7.190   3.099   8.931 -0.2010  0.8103 -0.7281
  547MOL0     H73799   6.995   2.880   8.880 -0.7538  0.7704 -0.2170
  547MOL0     H73800   7.177   2.866   8.855 -0.2586 -1.1269  1.3671
  547MOL0     H73801   7.192   3.005   8.669  0.0859 -0.6013  0.1929
  547MOL0     H73802   7.036   3.073   8.694 -1.4495  0.4786  2.0114
  547MOL0     H73803   7.149   2.799   8.602 -1.0512 -1.8392  3.2958
  547MOL0     H73804   7.038   2.901   8.516 -0.5169 -1.3986 -0.5971
  547MOL0     H73805   7.036   2.728   8.395  0.5143 -0.5482  0.2069
  547MOL0     H73806   6.972   2.475   8.150 -2.0900 -0.8639  1.2411
  547MOL0     H73807   6.986   2.641   8.190  1.2559  1.3025  2.5067
  547MOL0     H73808   7.114   2.546   8.238  0.2475  0.8845 -3.5942
  547MOL0     H73809   6.576   2.369   8.099  2.1554  0.6569  0.7976
  547MOL0     H73810   6.439   2.187   7.991 -0.6532  0.2158  2.9794
  547MOL0     H73811   6.369   2.027   7.861  3.8484  1.5106  0.9419
  547MOL0     H73812   6.354   1.849   7.858 -2.3875  0.1689  0.6167
  547MOL0     H73813   6.314   1.830   8.090 -0.3024  0.0949 -1.3367
  547MOL0     H73814   6.318   2.010   8.109  0.5860  0.2184 -1.0958
  547MOL0     H73815   6.101   1.857   7.963 -0.5651 -0.0804  0.3432
  547MOL0     H73816   6.144   2.035   7.952 -0.0208  1.7366  2.8396
  547MOL0     H73817   6.089   1.868   8.206 -0.8063  0.6329  1.7086
  547MOL0     H73818   6.113   2.035   8.210  1.4829 -1.1711  1.5200
  547MOL0     H73819   5.882   1.880   8.064 -0.4619 -1.3990  2.8513
  547MOL0     H73820   5.878   2.056   8.061  0.7095 -1.2393 -2.2846
  547MOL0     H73821   5.873   1.871   8.323  0.9740  1.0541  1.2379
  547MOL0     H73822   5.911   2.036   8.330 -1.6506  0.8447  0.3809
  547MOL0     H73823   5.647   1.962   8.222  0.3897  1.4084 -1.0662
  547MOL0     H73824   5.691   2.113   8.308 -3.0287 -0.7110 -2.8989
  547MOL0     H73825   5.568   1.999   8.464  1.9486  2.5085  4.4537
  547MOL0     H73826   5.722   1.988   8.520 -1.2621  0.5684  1.6317
  547MOL0     H73827   6.753   1.911   8.058 -3.8082 -1.3537 -2.1392
  547MOL0     H73828   6.878   2.073   8.197  0.9133  2.0899  0.1295
  547MOL0     H73829   6.754   2.373   8.603 -2.3213  2.9714  1.7458
  547MOL0     H73830   6.791   2.585   8.726 -0.0116  0.7047  0.7780
  547MOL0     H73831   6.114   2.485   9.584 -1.1930  0.0477  2.2133
  547MOL0     H73832   6.070   2.554   9.819 -1.0989  1.0618 -1.1367
  547MOL0     H73833   6.277   2.556  10.218  1.1846  0.6874 -1.0622
  547MOL0     H73834   6.284   2.568  10.468  2.5226  1.2784  3.3993
  547MOL0     H73835   6.345   2.888  10.764 -0.0244 -2.2393 -0.9037
  547MOL0     H73836   6.362   2.997  10.630 -2.4280 -0.3509 -2.6965
  547MOL0     H73837   6.107   2.826  10.637  2.3638 -0.8862 -1.3235
  547MOL0     H73838   6.142   2.970  10.545 -0.5274  0.5588 -0.4278
  547MOL0     H73839   6.112   3.119  10.724  0.7577  0.0366  0.0695
  547MOL0     H73840   6.158   2.993  10.841  1.7030 -0.2754 -1.7125
  547MOL0     H73841   5.944   3.054  10.881 -0.9924 -2.8010  1.6483
  547MOL0     H73842   5.925   2.900  10.815  1.2846  0.1231 -0.2432
  547MOL0     H73843   5.752   3.189  10.539  0.4290  1.0742 -0.5629
  547MOL0     H73844   6.383   2.979  10.411  0.7294  0.0092 -1.5065
  547MOL0     H73845   6.338   2.978  10.183  2.5837  0.7482  0.6971
  548MOL0     O73846   4.666   9.190   0.375 -0.3164  0.3100  0.1114
  548MOL0     C73847   4.766   9.241   0.426  0.6776 -0.0127  0.6008
  548MOL0     O73848   4.810   9.208   0.543 -0.6152  0.5575 -0.2404
  548MOL0     C73849   4.729   9.171   0.646 -0.8245  0.3626 -0.0015
  548MOL0     C73850   4.764   9.058   0.708 -0.5536  0.5896 -0.1112
  548MOL0     C73851   4.673   8.990   0.796 -0.4587  0.2629 -0.2839
  548MOL0     C73852   4.547   9.030   0.808 -0.0652 -1.2338 -0.7023
  548MOL0     O73853   4.446   8.957   0.868  0.1955 -0.4366  0.1930
  548MOL0     C73854   4.466   8.813   0.888  0.8782  0.0420  1.2011
  548MOL0     C73855   4.323   8.763   0.934 -0.1162  0.4425  0.1228
  548MOL0     C73856   4.312   8.616   0.938  0.0809  0.5377  0.0211
  548MOL0     C73857   4.165   8.580   0.965  0.7656 -0.7284  0.1950
  548MOL0     C73858   4.145   8.432   0.957  0.0254 -0.0544 -0.2238
  548MOL0     C73859   3.994   8.406   0.955  0.2300 -0.7317 -0.0474
  548MOL0     C73860   3.961   8.264   0.935 -0.4726 -0.7016  0.4244
  548MOL0     C73861   3.816   8.237   0.894 -0.4853 -0.5026  1.3927
  548MOL0     N73862   3.769   8.108   0.896 -0.0226  0.2962 -0.2168
  548MOL0     C73863   3.828   8.002   0.826 -0.0082 -0.7393 -0.4144
  548MOL0     C73864   3.767   7.894   0.875 -0.2834 -0.0852 -0.7873
  548MOL0     C73865   3.790   7.757   0.828  1.0365  0.3546 -0.5025
  548MOL0     C73866   3.930   7.707   0.854 -0.1516 -1.2404  0.0791
  548MOL0     C73867   3.976   7.702   0.995  0.1476 -0.2149 -0.3639
  548MOL0     C73868   3.930   7.573   1.059 -0.0680  0.0525 -0.3495
  548MOL0     O73869   4.019   7.476   1.011  1.0156  1.1761 -0.5122
  548MOL0     C73870   3.998   7.345   1.061 -0.2789 -0.8537  0.9040
  548MOL0     C73871   3.879   7.295   1.116 -0.0085 -0.0962 -0.3840
  548MOL0     C73872   3.878   7.162   1.162 -0.1209 -0.2675 -0.0599
  548MOL0     C73873   3.741   7.122   1.198 -0.4241  0.1346  0.5010
  548MOL0     C73874   3.989   7.078   1.138 -0.2187  0.5900  0.0263
  548MOL0     C73875   4.003   6.948   1.199 -0.2498 -0.0128  0.5192
  548MOL0     O73876   3.939   6.920   1.320 -0.1601 -0.3176 -0.1109
  548MOL0     C73877   3.929   6.793   1.372 -0.1934  0.2483  0.0603
  548MOL0     C73878   3.907   6.682   1.286 -1.0141  0.0449  0.2086
  548MOL0     C73879   3.901   6.557   1.346 -0.1075 -0.0684  0.0236
  548MOL0     C73880   3.915   6.540   1.486  0.0439 -0.7703 -0.2293
  548MOL0     O73881   3.908   6.418   1.532  0.3960  0.0672  0.5205
  548MOL0     C73882   4.021   6.338   1.494  0.4130  0.4254  0.2680
  548MOL0     C73883   4.116   6.336   1.609 -0.5828 -0.0453  0.6548
  548MOL0     C73884   4.047   6.286   1.745  0.0155 -0.8269 -0.5072
  548MOL0     C73885   4.155   6.240   1.842  0.3433 -0.0295  0.5040
  548MOL0     C73886   4.141   6.098   1.892 -0.3085 -0.0332 -0.4147
  548MOL0     C73887   4.191   5.988   1.801 -0.1985  0.7009 -0.0071
  548MOL0     C73888   4.179   5.846   1.869  0.2043 -0.6346 -0.0661
  548MOL0     C73889   4.220   5.735   1.768 -0.2761 -0.3235 -0.1931
  548MOL0    Cl73890   4.228   5.588   1.854 -0.0041 -0.1326  0.2353
  548MOL0     C73891   3.922   6.653   1.566  0.0070 -0.9860 -0.0252
  548MOL0     C73892   3.929   6.785   1.509 -0.3847  0.2454 -0.5767
  548MOL0     O73893   4.081   6.869   1.145 -0.4542 -0.6045  0.8317
  548MOL0     C73894   4.105   7.133   1.074 -0.0446 -1.2141  0.1676
  548MOL0     C73895   4.106   7.268   1.038 -0.8060  0.3056 -0.2695
  548MOL0     N73896   3.670   7.923   0.970  0.4667 -0.9545 -0.0899
  548MOL0     N73897   3.682   8.052   0.984  0.0390  0.2610  0.2857
  548MOL0     C73898   4.514   9.160   0.751 -0.2530  0.2183 -0.1201
  548MOL0     C73899   4.609   9.229   0.671  0.2185 -0.7527 -1.0173
  548MOL0     C73900   4.857   9.326   0.341 -0.1285  0.3350 -0.1153
  548MOL0     C73901   4.864   9.301   0.200  0.2763 -0.5520  1.0697
  548MOL0     C73902   4.943   9.367   0.113 -0.5485  0.7366  0.1877
  548MOL0     C73903   5.037   9.456   0.172  0.1467  0.8500 -0.0055
  548MOL0     O73904   5.118   9.516   0.081  0.4446 -0.0726 -0.4639
  548MOL0     C73905   5.235   9.442   0.033  0.1664  0.6241 -0.7192
  548MOL0     C73906   5.357   9.497   0.101  0.8548  0.0873 -0.0760
  548MOL0     C73907   5.460   9.390   0.136 -0.6179  0.3219 -0.2016
  548MOL0     C73908   5.562   9.433   0.236  0.4190 -0.1472 -0.8880
  548MOL0     C73909   5.654   9.534   0.175  0.4984 -0.3897 -0.0561
  548MOL0     C73910   5.714   9.604   0.098 -0.3418 -0.0135 -0.2159
  548MOL0     C73911   5.031   9.489   0.306 -0.9423  0.4184  0.2545
  548MOL0     C73912   4.943   9.427   0.395 -0.4804  0.7941  1.5739
  548MOL0     H73913   4.859   9.013   0.684  0.3528  2.5373 -0.3155
  548MOL0     H73914   4.703   8.890   0.825 -3.8602 -2.2376 -4.1475
  548MOL0     H73915   4.498   8.758   0.799  1.9168 -2.5284  3.0600
  548MOL0     H73916   4.544   8.795   0.963  3.3660  1.3665 -0.9128
  548MOL0     H73917   4.281   8.806   1.025  2.6031 -0.9836  2.1720
  548MOL0     H73918   4.265   8.789   0.845  1.0157 -2.6361 -1.6773
  548MOL0     H73919   4.338   8.579   0.838 -0.9805 -0.2286  0.0062
  548MOL0     H73920   4.383   8.591   1.018 -2.7183  4.1207  4.0934
  548MOL0     H73921   4.127   8.625   1.057 -0.4511  1.4217 -1.2780
  548MOL0     H73922   4.106   8.630   0.887  3.2097  1.3796 -0.4295
  548MOL0     H73923   4.203   8.396   0.871  1.8021  2.1328 -0.0387
  548MOL0     H73924   4.186   8.370   1.038  2.4758  1.3285 -0.2851
  548MOL0     H73925   3.947   8.431   1.050 -0.0795  0.1934 -0.4260
  548MOL0     H73926   3.949   8.474   0.882  0.2936  1.4639  1.8545
  548MOL0     H73927   4.032   8.227   0.861 -0.9389  1.5063 -1.2652
  548MOL0     H73928   3.977   8.209   1.028 -1.1344 -0.7140  0.5378
  548MOL0     H73929   3.808   8.269   0.790  3.6817 -0.8620  0.8150
  548MOL0     H73930   3.751   8.295   0.960 -1.3984  1.4292 -1.0289
  548MOL0     H73931   3.921   8.001   0.770  0.9237  2.9422  0.7955
  548MOL0     H73932   3.726   7.687   0.883  2.5335  1.5678  3.0757
  548MOL0     H73933   3.764   7.753   0.722  2.6381 -0.2809 -0.8962
  548MOL0     H73934   3.987   7.785   0.801  0.5997 -2.6310 -1.2464
  548MOL0     H73935   3.958   7.614   0.803  2.5196 -0.4706 -0.0193
  548MOL0     H73936   3.931   7.793   1.037  0.4192  0.5181 -1.6172
  548MOL0     H73937   4.082   7.713   1.018  0.4286 -5.5839  2.5502
  548MOL0     H73938   3.825   7.560   1.032 -1.2687  5.6543  0.3457
  548MOL0     H73939   3.936   7.580   1.168  0.6221 -0.5631 -0.3405
  548MOL0     H73940   3.796   7.363   1.133  3.1430  4.4074 -1.1753
  548MOL0     H73941   3.668   7.202   1.212  0.9873  1.5665  0.0181
  548MOL0     H73942   3.703   7.059   1.117 -1.4146  0.1209  0.9536
  548MOL0     H73943   3.749   7.063   1.290  2.0326 -0.8186 -0.2639
  548MOL0     H73944   3.905   6.696   1.179  3.2240 -1.2345 -0.2090
  548MOL0     H73945   3.873   6.475   1.281 -1.4951  1.3981 -1.2837
  548MOL0     H73946   3.981   6.238   1.480  0.4293 -0.0276  2.9882
  548MOL0     H73947   4.067   6.378   1.403 -0.7350  2.2423  0.4364
  548MOL0     H73948   4.206   6.281   1.580 -0.7929  0.5431 -1.1999
  548MOL0     H73949   4.151   6.440   1.618  1.4301 -0.4708 -1.3271
  548MOL0     H73950   3.985   6.199   1.720 -0.4276 -0.5023 -0.5542
  548MOL0     H73951   3.991   6.365   1.798  2.1483 -1.3017  2.7481
  548MOL0     H73952   4.252   6.242   1.792  0.3287 -2.0680  0.2981
  548MOL0     H73953   4.150   6.309   1.927 -0.2721  0.8075 -0.1971
  548MOL0     H73954   4.039   6.067   1.918 -1.6260  2.7156 -1.8694
  548MOL0     H73955   4.194   6.095   1.987 -0.1243  0.0027 -0.5154
  548MOL0     H73956   4.145   5.979   1.702  0.2089  0.0849 -0.1417
  548MOL0     H73957   4.299   5.986   1.782 -0.4478 -0.4292 -1.4031
  548MOL0     H73958   4.082   5.840   1.920 -1.5081  3.5562 -2.3672
  548MOL0     H73959   4.257   5.842   1.945 -0.9948 -0.7996  1.2095
  548MOL0     H73960   4.327   5.752   1.751  0.4119 -0.9711  2.8246
  548MOL0     H73961   4.150   5.738   1.684 -1.1018 -0.9132  0.4609
  548MOL0     H73962   3.927   6.653   1.675 -0.0984  0.0190 -0.0075
  548MOL0     H73963   3.904   6.866   1.576 -0.7957 -1.3384  1.2768
  548MOL0     H73964   4.201   7.083   1.068  2.0615  2.6161 -0.9782
  548MOL0     H73965   4.193   7.308   0.987 -1.3627 -0.4098 -1.8585
  548MOL0     H73966   4.415   9.202   0.766  0.2523  0.8586  1.6638
  548MOL0     H73967   4.575   9.324   0.630 -1.1740 -1.4702 -1.5868
  548MOL0     H73968   4.792   9.238   0.149  0.3153 -1.2340  1.8345
  548MOL0     H73969   4.948   9.339   0.009  1.3064  1.7993 -0.0604
  548MOL0     H73970   5.228   9.338   0.066 -0.6848  1.3204  1.5005
  548MOL0     H73971   5.246   9.458  -0.075 -5.3023  0.8095 -1.5622
  548MOL0     H73972   5.331   9.537   0.200 -0.4300 -0.9634  0.0387
  548MOL0     H73973   5.397   9.575   0.035 -1.7765 -0.9680 -3.1480
  548MOL0     H73974   5.514   9.354   0.049  1.2544  2.5505 -0.0710
  548MOL0     H73975   5.421   9.298   0.181  2.2016  0.2650  2.5028
  548MOL0     H73976   5.614   9.343   0.270 -2.2871 -1.5917 -0.3557
  548MOL0     H73977   5.507   9.472   0.322 -2.4081  0.5913 -2.8970
  548MOL0     H73978   5.760   9.685   0.046 -0.2160 -0.5866 -1.0100
  548MOL0     H73979   5.108   9.560   0.335  1.1200 -1.7475  0.3409
  548MOL0     H73980   4.953   9.462   0.497 -0.6027  1.1480  1.4671
  549MOL0     O73981   4.161   5.610   9.153  0.2794 -0.4637 -1.4092
  549MOL0     C73982   4.100   5.567   9.251  0.0230 -0.2267  0.6949
  549MOL0     O73983   4.121   5.595   9.380 -0.2458 -0.9212 -0.1388
  549MOL0     C73984   4.241   5.643   9.404 -0.2000 -0.0746  0.1846
  549MOL0     C73985   4.284   5.775   9.366  0.0963 -0.0837 -0.1356
  549MOL0     C73986   4.419   5.820   9.389 -0.3094 -0.2093  0.2531
  549MOL0     C73987   4.511   5.734   9.457 -0.2431 -0.5949  0.9308
  549MOL0     O73988   4.646   5.759   9.479 -0.5227  0.4449 -0.0687
  549MOL0     C73989   4.710   5.861   9.412 -0.4092  0.3766  0.5953
  549MOL0     C73990   4.864   5.844   9.401 -0.5900 -1.1500 -0.1285
  549MOL0     C73991   4.929   5.714   9.366  0.4169  0.3285  0.1742
  549MOL0     C73992   4.937   5.688   9.221 -0.2078 -0.5430  0.2406
  549MOL0     C73993   4.989   5.552   9.198 -0.2252 -0.0891 -0.5108
  549MOL0     C73994   5.025   5.507   9.048 -0.4339  0.3773 -0.4237
  549MOL0     C73995   5.107   5.613   8.971  1.0455  0.6434  0.5081
  549MOL0     C73996   5.150   5.556   8.831  1.6155  0.6125  0.1737
  549MOL0     N73997   5.269   5.639   8.790 -0.9543  1.0721  0.3699
  549MOL0     C73998   5.268   5.761   8.724  1.0331  0.2736  0.9620
  549MOL0     C73999   5.395   5.797   8.719 -0.5262  1.2564 -0.7575
  549MOL0     C74000   5.452   5.927   8.655 -0.6891  0.0002  0.3616
  549MOL0     C74001   5.386   6.049   8.725 -0.8736 -0.6333  0.1741
  549MOL0     C74002   5.466   6.180   8.697  0.1023  0.1493 -0.7946
  549MOL0     C74003   5.421   6.291   8.790 -0.0364 -0.0512  0.0056
  549MOL0     O74004   5.495   6.414   8.752 -0.2720 -0.7614  0.2052
  549MOL0     C74005   5.597   6.457   8.838  0.2937  0.8463  0.3124
  549MOL0     C74006   5.705   6.376   8.874 -0.0692 -0.1591 -0.4189
  549MOL0     C74007   5.796   6.418   8.969  0.0025  0.7138 -0.4162
  549MOL0     C74008   5.919   6.327   8.995  0.2969  0.7419 -0.1279
  549MOL0     C74009   5.777   6.539   9.034 -0.5257 -0.3022 -0.1506
  549MOL0     C74010   5.859   6.574   9.151  0.2289 -0.2652 -0.6625
  549MOL0     O74011   5.840   6.509   9.257 -0.1318  0.1574 -0.0379
  549MOL0     C74012   5.932   6.501   9.361 -0.0134  0.0286 -0.2000
  549MOL0     C74013   5.973   6.370   9.402  0.2920  0.0595 -0.0862
  549MOL0     C74014   6.067   6.356   9.510 -1.1769 -0.3234  0.2468
  549MOL0     C74015   6.138   6.467   9.570  0.4115 -0.0480 -0.3916
  549MOL0     O74016   6.248   6.445   9.655  0.4561  0.2681  0.2140
  549MOL0     C74017   6.372   6.489   9.593 -0.9154  0.2556  0.2679
  549MOL0     C74018   6.447   6.364   9.523  0.4906  0.0690 -0.4700
  549MOL0     C74019   6.579   6.407   9.475 -0.6823  0.1735  0.6309
  549MOL0     C74020   6.652   6.283   9.417  0.1437  0.5401  0.1777
  549MOL0     C74021   6.619   6.253   9.269 -0.4724  0.2778  0.4050
  549MOL0     C74022   6.650   6.354   9.154  0.6919 -0.1953  0.6680
  549MOL0     C74023   6.793   6.391   9.128 -0.1282  0.2985 -0.1720
  549MOL0     C74024   6.801   6.501   9.020  0.5174  0.5647 -0.0915
  549MOL0    Cl74025   6.716   6.441   8.877  0.2495  0.2598  0.1204
  549MOL0     C74026   6.091   6.594   9.537  0.5099  0.1870  1.7635
  549MOL0     C74027   5.994   6.612   9.432 -0.4600  0.2990  0.5105
  549MOL0     O74028   5.950   6.651   9.129  0.9565 -0.6177  0.4316
  549MOL0     C74029   5.682   6.630   8.984  0.2369 -0.2587  0.9871
  549MOL0     C74030   5.590   6.584   8.885  0.3140 -0.4490  0.7713
  549MOL0     N74031   5.477   5.696   8.772  0.4519  0.8365 -0.3858
  549MOL0     N74032   5.400   5.603   8.814  0.3198 -0.0669 -0.1877
  549MOL0     C74033   4.458   5.613   9.510 -0.6559  0.1471  0.7565
  549MOL0     C74034   4.328   5.572   9.490 -0.4783  1.3678 -0.8513
  549MOL0     C74035   3.987   5.471   9.222  0.0579  0.0897 -0.1578
  549MOL0     C74036   3.915   5.430   9.320  0.2308 -0.2791  1.1057
  549MOL0     C74037   3.823   5.333   9.307 -0.1353  0.4633  0.4875
  549MOL0     C74038   3.799   5.281   9.177 -0.9278 -0.5993  0.6291
  549MOL0     O74039   3.729   5.157   9.173 -0.0720  0.1032  0.0105
  549MOL0     C74040   3.768   5.069   9.064 -0.1090 -0.0553  0.2219
  549MOL0     C74041   3.716   4.933   9.072  0.4861 -0.2248 -1.0871
  549MOL0     C74042   3.725   4.892   9.220  0.2156 -0.4614  0.0170
  549MOL0     C74043   3.652   4.752   9.242  1.8314  0.7414 -0.6869
  549MOL0     C74044   3.626   4.728   9.380  0.2957  0.3469 -0.6122
  549MOL0     C74045   3.593   4.714   9.501 -0.1913  1.0313  0.9969
  549MOL0     C74046   3.880   5.325   9.065 -0.0457  0.5242 -0.3003
  549MOL0     C74047   3.968   5.429   9.089 -0.1506  0.3827 -0.0342
  549MOL0     H74048   4.219   5.846   9.316  0.6224  0.3556 -0.1983
  549MOL0     H74049   4.448   5.917   9.351 -0.3683  0.6265  2.2407
  549MOL0     H74050   4.684   5.867   9.305  1.4513  1.5038  0.1589
  549MOL0     H74051   4.681   5.957   9.457  0.3284 -0.4952  3.0843
  549MOL0     H74052   4.895   5.915   9.323 -0.0195 -1.1470  0.0945
  549MOL0     H74053   4.898   5.876   9.500 -4.0135  1.8900  0.2758
  549MOL0     H74054   5.032   5.714   9.402  1.1620  3.6390 -1.6328
  549MOL0     H74055   4.880   5.628   9.413  1.6747 -0.3493  0.2884
  549MOL0     H74056   4.846   5.703   9.162  1.3230  0.4577 -2.0098
  549MOL0     H74057   5.005   5.760   9.175  0.0153  0.0238  1.4132
  549MOL0     H74058   5.073   5.540   9.268 -1.2757 -1.5935  0.5573
  549MOL0     H74059   4.928   5.470   9.236  0.0326 -0.4944 -0.9552
  549MOL0     H74060   5.079   5.413   9.064  0.4775  1.2326  2.1304
  549MOL0     H74061   4.934   5.490   8.991  0.0635 -1.5580 -0.7107
  549MOL0     H74062   5.045   5.701   8.952  0.2172 -0.1238 -0.4706
  549MOL0     H74063   5.188   5.646   9.036 -1.6522  2.8015  3.0678
  549MOL0     H74064   5.062   5.559   8.766  1.0632  2.8045  0.9319
  549MOL0     H74065   5.180   5.453   8.853 -0.2129  0.1377  0.6236
  549MOL0     H74066   5.190   5.809   8.665  1.0278 -1.4153 -0.4632
  549MOL0     H74067   5.560   5.924   8.674 -0.1802  2.5910 -1.6397
  549MOL0     H74068   5.437   5.931   8.546 -5.7523  0.2713  0.8173
  549MOL0     H74069   5.387   6.026   8.832 -1.5115 -0.3387  0.2484
  549MOL0     H74070   5.283   6.053   8.689 -0.1713  2.7633 -1.9045
  549MOL0     H74071   5.461   6.214   8.593 -2.9935  1.2670 -0.3786
  549MOL0     H74072   5.570   6.149   8.711 -0.7057 -2.4455 -0.0907
  549MOL0     H74073   5.436   6.274   8.897 -0.5258  2.1332  0.4712
  549MOL0     H74074   5.312   6.296   8.783 -0.1473 -2.9716 -1.3050
  549MOL0     H74075   5.712   6.283   8.819  2.0124 -0.6338  0.5510
  549MOL0     H74076   5.941   6.325   9.102  2.0218  2.5388 -0.3810
  549MOL0     H74077   5.888   6.227   8.964 -1.3393  1.4640 -0.9279
  549MOL0     H74078   6.006   6.358   8.936  1.6057 -1.3439  0.5932
  549MOL0     H74079   5.915   6.291   9.355 -2.1199  2.4088 -1.3088
  549MOL0     H74080   6.081   6.256   9.549  0.2113  0.7562  2.7780
  549MOL0     H74081   6.366   6.567   9.516 -0.8041 -0.8710 -0.9069
  549MOL0     H74082   6.442   6.522   9.670 -1.5506 -0.5696  1.2277
  549MOL0     H74083   6.465   6.281   9.592  0.9347 -0.5233 -1.2735
  549MOL0     H74084   6.377   6.328   9.447  3.0823  0.6899 -3.3925
  549MOL0     H74085   6.636   6.454   9.555 -1.1303 -2.7017  2.8082
  549MOL0     H74086   6.573   6.483   9.396  0.4899 -2.8319 -2.6346
  549MOL0     H74087   6.757   6.314   9.427 -0.0334  1.1718  0.1309
  549MOL0     H74088   6.635   6.192   9.476  2.0406  0.9627  1.4858
  549MOL0     H74089   6.518   6.215   9.253 -0.4362  0.3474 -0.0042
  549MOL0     H74090   6.676   6.159   9.262 -1.2821 -0.2569  0.7489
  549MOL0     H74091   6.589   6.311   9.074 -0.0809 -3.4304  2.8084
  549MOL0     H74092   6.592   6.445   9.169 -1.2143 -0.5870 -3.0275
  549MOL0     H74093   6.851   6.305   9.093 -0.3907  0.8569 -2.0911
  549MOL0     H74094   6.842   6.414   9.223 -1.4912 -0.6174  0.8046
  549MOL0     H74095   6.905   6.505   8.985 -0.2592  0.1550 -2.6713
  549MOL0     H74096   6.750   6.595   9.045 -2.4737 -1.2376  1.1722
  549MOL0     H74097   6.118   6.682   9.595  2.1885  2.1323 -1.6470
  549MOL0     H74098   5.953   6.709   9.407 -1.6737 -0.9107 -2.7686
  549MOL0     H74099   5.681   6.733   9.018  0.6118  0.5083 -1.1803
  549MOL0     H74100   5.513   6.650   8.847  2.0135  1.2168  0.0163
  549MOL0     H74101   4.528   5.548   9.561  1.7381  0.1911 -2.1572
  549MOL0     H74102   4.294   5.479   9.533  2.1711  0.5214 -0.4266
  549MOL0     H74103   3.913   5.473   9.420 -2.0013 -5.3529  3.6229
  549MOL0     H74104   3.757   5.289   9.381 -1.5077 -1.2227 -1.6190
  549MOL0     H74105   3.730   5.120   8.974 -0.3039 -0.9246 -0.1957
  549MOL0     H74106   3.876   5.066   9.048  0.2274  1.7393  1.7520
  549MOL0     H74107   3.751   4.860   8.998  0.5914 -4.1295  2.3701
  549MOL0     H74108   3.607   4.944   9.063  0.3741 -0.3805 -0.0781
  549MOL0     H74109   3.678   4.962   9.290 -0.5721 -0.7402 -0.2275
  549MOL0     H74110   3.827   4.901   9.257 -0.7462  1.2632  2.5202
  549MOL0     H74111   3.726   4.683   9.201  0.5735 -1.1590  0.0848
  549MOL0     H74112   3.558   4.744   9.188 -0.7684 -1.8082  3.6135
  549MOL0     H74113   3.564   4.699   9.603 -1.6675 -0.5316  0.3951
  549MOL0     H74114   3.872   5.290   8.963  2.6411  0.5916 -0.6166
  549MOL0     H74115   4.019   5.460   8.999 -2.3390 -1.2329 -1.9474
  550MOL0     O74116   1.205   6.391   1.533  0.5353  0.1637 -0.2351
  550MOL0     C74117   1.172   6.411   1.652  0.0725 -0.0514 -0.0908
  550MOL0     O74118   1.061   6.489   1.680  0.6328 -0.2359  1.0149
  550MOL0     C74119   0.966   6.500   1.579  0.7540  0.6518  0.5879
  550MOL0     C74120   0.988   6.577   1.459  0.1797 -0.2287  0.7945
  550MOL0     C74121   0.881   6.588   1.359  0.2105  0.1954 -0.1851
  550MOL0     C74122   0.758   6.522   1.393 -0.2176 -1.2593 -0.4092
  550MOL0     O74123   0.651   6.529   1.305  0.3905  0.2807 -0.3644
  550MOL0     C74124   0.665   6.626   1.193  0.4606  0.2307  1.1769
  550MOL0     C74125   0.551   6.639   1.088  1.0104 -0.6651  0.3580
  550MOL0     C74126   0.512   6.507   1.022 -0.8161 -0.8923 -0.0514
  550MOL0     C74127   0.382   6.505   0.953  0.4846 -0.0108 -0.3101
  550MOL0     C74128   0.320   6.359   0.945 -0.5489  0.3301 -0.6831
  550MOL0     C74129   0.184   6.379   0.867  0.0160 -0.2903 -0.0603
  550MOL0     C74130   0.102   6.238   0.845 -0.5414  0.5718 -0.5667
  550MOL0     C74131   0.085   6.149   0.965  0.9137  1.0553  0.3178
  550MOL0     N74132   0.199   6.055   0.986 -0.4691 -0.5504  0.0281
  550MOL0     C74133   0.306   6.070   1.071 -0.3478  0.5322  0.2608
  550MOL0     C74134   0.385   5.966   1.049 -0.1120 -0.0935  0.1322
  550MOL0     C74135   0.498   5.900   1.124 -1.2809 -0.8256 -0.1333
  550MOL0     C74136   0.587   6.002   1.210 -0.7404  0.1634  0.7499
  550MOL0     C74137   0.658   6.106   1.123  0.1197 -0.4123  0.1228
  550MOL0     C74138   0.776   6.075   1.040  0.5011  0.2943  0.3797
  550MOL0     O74139   0.821   6.179   0.958  0.5364  0.2128  0.2030
  550MOL0     C74140   0.744   6.218   0.839 -0.3233  0.0678 -0.8874
  550MOL0     C74141   0.801   6.312   0.754  0.2861 -0.3212  0.8876
  550MOL0     C74142   0.737   6.342   0.627 -0.0793 -0.5896 -0.7395
  550MOL0     C74143   0.791   6.469   0.562 -0.8056  0.1696 -0.5133
  550MOL0     C74144   0.609   6.286   0.600 -0.5975  0.2999 -0.4252
  550MOL0     C74145   0.530   6.324   0.477  0.1773  0.0066  0.0109
  550MOL0     O74146   0.419   6.239   0.447 -0.2843 -0.0217  0.3925
  550MOL0     C74147   0.317   6.263   0.359  1.3405 -0.2743  0.2619
  550MOL0     C74148   0.331   6.277   0.222 -0.2471 -0.0317 -0.2000
  550MOL0     C74149   0.222   6.269   0.134 -0.4788 -0.0521 -0.2458
  550MOL0     C74150   0.095   6.253   0.184 -1.0993 -0.8901 -0.1536
  550MOL0     O74151  -0.004   6.224   0.102  0.1191  0.0645 -0.4139
  550MOL0     C74152   0.026   6.191  -0.031  0.0611  0.6794  0.5699
  550MOL0     C74153  -0.098   6.128  -0.102  0.5412  0.7262  0.1833
  550MOL0     C74154  -0.066   6.053  -0.230  0.3327 -0.4299 -0.4613
  550MOL0     C74155  -0.030   6.155  -0.339 -0.0127  0.3018  0.5332
  550MOL0     C74156   0.008   6.084  -0.470 -0.3606 -0.1961  0.7632
  550MOL0     C74157  -0.098   6.000  -0.550 -0.0606 -0.1621  0.1077
  550MOL0     C74158  -0.196   6.098  -0.611  0.1524  0.0789 -0.6747
  550MOL0     C74159  -0.321   6.030  -0.635  0.4613  0.2134 -0.2645
  550MOL0    Cl74160  -0.303   5.903  -0.758  0.3124 -0.7176 -0.6711
  550MOL0     C74161   0.073   6.225   0.317 -0.5261  0.4694 -0.5457
  550MOL0     C74162   0.180   6.229   0.408  1.0571 -0.2925  0.0403
  550MOL0     O74163   0.558   6.423   0.415 -0.5301  0.7524  0.1252
  550MOL0     C74164   0.561   6.194   0.690  0.8842  0.5768 -0.5962
  550MOL0     C74165   0.616   6.159   0.808 -0.0507  0.4955 -0.9528
  550MOL0     N74166   0.323   5.886   0.954 -0.4313 -0.2874 -0.9211
  550MOL0     N74167   0.211   5.941   0.919 -0.0315  0.2030 -0.3353
  550MOL0     C74168   0.739   6.462   1.516  0.0205  0.1999  0.2800
  550MOL0     C74169   0.837   6.451   1.601 -0.7761  0.6248 -0.9780
  550MOL0     C74170   1.270   6.402   1.761 -1.1913 -0.2298 -0.3779
  550MOL0     C74171   1.277   6.488   1.870  0.3769 -0.7338 -0.1539
  550MOL0     C74172   1.386   6.500   1.959  0.1317  0.0965 -1.0875
  550MOL0     C74173   1.499   6.416   1.942  0.3261  0.1464 -1.1745
  550MOL0     O74174   1.593   6.420   2.051 -0.3756 -0.3896  0.1299
  550MOL0     C74175   1.717   6.356   2.028  0.8541 -0.9419 -0.1679
  550MOL0     C74176   1.820   6.381   2.145  0.6327 -0.1371  0.4919
  550MOL0     C74177   1.787   6.331   2.282  0.3201  0.0696 -0.5109
  550MOL0     C74178   1.793   6.175   2.284 -0.0754 -0.0207 -0.3249
  550MOL0     C74179   1.661   6.123   2.233 -0.2244  1.1593  0.3368
  550MOL0     C74180   1.551   6.097   2.180 -0.6286 -0.4517 -0.3588
  550MOL0     C74181   1.500   6.319   1.837  0.7934 -0.1819 -0.6911
  550MOL0     C74182   1.379   6.311   1.753 -0.8098 -0.9203 -0.0474
  550MOL0     H74183   1.083   6.618   1.425 -0.5891 -0.9872 -2.5643
  550MOL0     H74184   0.901   6.648   1.271 -2.0370 -1.7949 -2.1920
  550MOL0     H74185   0.675   6.727   1.235 -4.9938  0.9215  1.5521
  550MOL0     H74186   0.747   6.595   1.128 -0.3658  0.0360  0.2032
  550MOL0     H74187   0.463   6.672   1.145  2.0848  2.1637  0.5146
  550MOL0     H74188   0.570   6.717   1.014 -0.7599  1.1915  1.7068
  550MOL0     H74189   0.595   6.479   0.956 -0.1596  0.3677  0.2147
  550MOL0     H74190   0.495   6.444   1.109  1.9522 -0.2083  1.0707
  550MOL0     H74191   0.310   6.575   0.995 -1.4801 -1.8423 -0.4288
  550MOL0     H74192   0.416   6.539   0.854  1.4169 -0.1859 -0.0598
  550MOL0     H74193   0.385   6.289   0.892  2.9483  4.1377 -1.9743
  550MOL0     H74194   0.302   6.332   1.049  0.3353  1.4708 -0.2136
  550MOL0     H74195   0.122   6.458   0.909  0.6141 -1.1211  2.6645
  550MOL0     H74196   0.191   6.418   0.766 -0.7221  3.3798  1.1540
  550MOL0     H74197   0.003   6.273   0.816 -2.1757 -0.3658  3.2596
  550MOL0     H74198   0.152   6.182   0.766  0.9173 -1.4872  1.6434
  550MOL0     H74199  -0.001   6.084   0.945  1.7799  0.3740 -1.3620
  550MOL0     H74200   0.073   6.211   1.054  2.7315  0.8635  0.7400
  550MOL0     H74201   0.318   6.154   1.139 -0.1510  1.7515 -1.2239
  550MOL0     H74202   0.461   5.820   1.189  0.9344 -1.4980  0.3692
  550MOL0     H74203   0.566   5.858   1.050 -3.3518 -0.8077 -2.1297
  550MOL0     H74204   0.665   5.945   1.262  0.0484  0.2176 -0.3324
  550MOL0     H74205   0.523   6.053   1.283 -1.3781 -1.3626  1.2959
  550MOL0     H74206   0.705   6.181   1.187  0.1952  0.1779 -0.6135
  550MOL0     H74207   0.582   6.167   1.074 -1.4915 -0.4266  2.4597
  550MOL0     H74208   0.757   5.984   0.981 -0.7684 -0.3402  1.7023
  550MOL0     H74209   0.870   6.057   1.094  1.9215  0.8124 -1.7787
  550MOL0     H74210   0.897   6.354   0.779 -0.1212  0.0315  1.8816
  550MOL0     H74211   0.889   6.500   0.600  0.5121 -1.3898 -2.4093
  550MOL0     H74212   0.810   6.456   0.455  1.1338  2.7597 -0.5878
  550MOL0     H74213   0.730   6.557   0.582 -2.6783 -1.8073  3.7628
  550MOL0     H74214   0.424   6.307   0.174 -0.3519  1.8486  0.6640
  550MOL0     H74215   0.243   6.282   0.029  3.4384 -0.8444  0.2752
  550MOL0     H74216   0.038   6.285  -0.085 -1.1312  0.5818  0.0973
  550MOL0     H74217   0.114   6.126  -0.037  0.2863  0.8955  1.3564
  550MOL0     H74218  -0.152   6.062  -0.034  1.0060  0.0068 -0.1395
  550MOL0     H74219  -0.178   6.200  -0.124 -2.0418 -2.2974 -1.1739
  550MOL0     H74220  -0.157   5.997  -0.255  0.9057 -1.1984 -0.8446
  550MOL0     H74221   0.018   5.983  -0.236 -0.8714 -1.9899  0.0688
  550MOL0     H74222  -0.104   6.234  -0.355  0.5022  0.4651 -1.1784
  550MOL0     H74223   0.065   6.203  -0.313  1.3151  1.4695 -5.2259
  550MOL0     H74224   0.100   6.026  -0.461  0.9952  2.0996  4.5277
  550MOL0     H74225   0.036   6.155  -0.548  0.2366 -2.3729 -1.1055
  550MOL0     H74226  -0.043   5.948  -0.629  0.2308  0.4265 -0.0864
  550MOL0     H74227  -0.154   5.924  -0.494 -0.6041  1.3573  1.7008
  550MOL0     H74228  -0.160   6.141  -0.705 -0.7392 -0.0583 -1.0866
  550MOL0     H74229  -0.205   6.186  -0.547 -2.4615  0.6565 -1.7290
  550MOL0     H74230  -0.403   6.095  -0.667 -0.7669 -2.4715 -3.0588
  550MOL0     H74231  -0.363   5.978  -0.548 -2.8000  1.9774 -0.6062
  550MOL0     H74232  -0.021   6.189   0.357  0.0200 -0.8323 -0.3916
  550MOL0     H74233   0.157   6.193   0.508  1.0962 -1.0669 -0.2232
  550MOL0     H74234   0.462   6.158   0.666  0.6044  1.1274 -0.2884
  550MOL0     H74235   0.585   6.078   0.873  0.4898  0.1616 -1.1082
  550MOL0     H74236   0.638   6.424   1.524  0.2780 -0.3079  1.2667
  550MOL0     H74237   0.818   6.385   1.685 -1.8346  0.0925 -1.6210
  550MOL0     H74238   1.196   6.553   1.901 -3.0809 -4.4271 -0.6065
  550MOL0     H74239   1.373   6.568   2.042 -3.9890  0.3008 -1.7013
  550MOL0     H74240   1.708   6.249   2.006  4.7238 -1.9307  2.0106
  550MOL0     H74241   1.758   6.402   1.937 -1.0888  0.5735 -0.3271
  550MOL0     H74242   1.829   6.490   2.148  0.0411  0.0355 -1.9678
  550MOL0     H74243   1.917   6.346   2.108  1.0840  3.2010 -1.9536
  550MOL0     H74244   1.686   6.367   2.302  1.2763  1.6129  1.8902
  550MOL0     H74245   1.854   6.372   2.357 -0.5737 -2.6192  1.9820
  550MOL0     H74246   1.814   6.130   2.381 -3.5145 -0.8625  0.1321
  550MOL0     H74247   1.878   6.142   2.224  0.0092 -2.1016  0.8461
  550MOL0     H74248   1.459   6.071   2.131 -0.1751 -2.6766 -0.1032
  550MOL0     H74249   1.584   6.252   1.820  0.1252 -0.3305 -4.2638
  550MOL0     H74250   1.375   6.239   1.672 -2.9937  1.8595 -2.6523
  551MOL0     O74251   7.407   3.196   3.052 -0.5815  0.8100  0.4249
  551MOL0     C74252   7.378   3.283   2.974 -0.8443  0.1985 -0.3562
  551MOL0     O74253   7.261   3.292   2.906 -0.3865 -0.0115 -0.4976
  551MOL0     C74254   7.167   3.190   2.932 -0.2698 -1.5595  0.0254
  551MOL0     C74255   7.205   3.064   2.896 -0.4776  0.3462  0.1195
  551MOL0     C74256   7.104   2.970   2.889 -0.0532  0.3608 -0.7822
  551MOL0     C74257   6.983   2.987   2.953 -0.6639 -0.5479 -0.8387
  551MOL0     O74258   6.891   2.886   2.946  0.5480  0.5082 -0.5711
  551MOL0     C74259   6.798   2.866   3.054 -0.9961 -0.6033 -0.2355
  551MOL0     C74260   6.659   2.919   3.034 -0.6246 -0.3056  0.2367
  551MOL0     C74261   6.603   2.861   2.903 -0.7881 -0.0162 -0.7734
  551MOL0     C74262   6.465   2.925   2.891  0.2898 -0.8486  0.2889
  551MOL0     C74263   6.409   2.907   2.748 -0.7451 -0.1365  0.7693
  551MOL0     C74264   6.374   2.756   2.717 -0.5052  0.3133 -0.3806
  551MOL0     C74265   6.319   2.745   2.581 -0.0084 -0.0969  0.0684
  551MOL0     C74266   6.370   2.605   2.511 -0.9348  1.3696 -0.1047
  551MOL0     N74267   6.302   2.587   2.387  0.3777  0.5999  0.4830
  551MOL0     C74268   6.174   2.534   2.371  0.7990 -0.4111  0.7115
  551MOL0     C74269   6.134   2.553   2.245 -1.0699 -0.7687  0.7967
  551MOL0     C74270   5.995   2.529   2.183 -0.5208 -0.8485  0.1864
  551MOL0     C74271   5.893   2.637   2.239  0.8699  0.9142 -0.1337
  551MOL0     C74272   5.753   2.574   2.236 -0.3409  0.0755 -0.6541
  551MOL0     C74273   5.696   2.562   2.090  0.6465  0.1243 -0.1441
  551MOL0     O74274   5.556   2.520   2.099 -0.2015 -0.6725 -0.9823
  551MOL0     C74275   5.451   2.608   2.067 -0.2477 -0.0028 -0.0771
  551MOL0     C74276   5.330   2.546   2.046  0.5597 -0.5772 -0.6376
  551MOL0     C74277   5.222   2.616   2.009  0.1656  0.0672 -0.2879
  551MOL0     C74278   5.089   2.557   2.000 -0.3403  0.5586  0.1666
  551MOL0     C74279   5.234   2.756   1.983  0.0965 -0.2821 -0.3949
  551MOL0     C74280   5.132   2.837   1.912 -0.6855 -0.4586  1.5291
  551MOL0     O74281   5.134   2.969   1.935 -1.0142 -0.5692 -0.6250
  551MOL0     C74282   5.046   3.045   1.875  0.3585  0.6176  0.3836
  551MOL0     C74283   5.069   3.133   1.767 -0.0444 -0.1544 -0.5924
  551MOL0     C74284   4.972   3.232   1.740  0.3808  0.7057  0.0062
  551MOL0     C74285   4.849   3.234   1.815 -0.3698  0.2202 -0.3907
  551MOL0     O74286   4.751   3.325   1.809 -0.4869 -0.2382 -0.5445
  551MOL0     C74287   4.782   3.463   1.765 -0.2526  0.4439  0.8902
  551MOL0     C74288   4.660   3.551   1.741  0.4321  0.4034  0.5236
  551MOL0     C74289   4.557   3.492   1.642 -0.4412 -0.7529 -0.3243
  551MOL0     C74290   4.609   3.468   1.505  0.2894  0.4605  0.0630
  551MOL0     C74291   4.496   3.437   1.408  0.8193  0.1851 -0.1883
  551MOL0     C74292   4.560   3.401   1.275  0.5016  1.1968  0.3451
  551MOL0     C74293   4.453   3.360   1.165  0.6236 -0.5315  0.3782
  551MOL0     C74294   4.512   3.350   1.022  0.1352 -0.0939  0.5700
  551MOL0    Cl74295   4.553   3.510   0.964 -0.2602 -0.1054  0.2887
  551MOL0     C74296   4.820   3.131   1.898 -0.2310 -0.6335  0.2575
  551MOL0     C74297   4.920   3.042   1.938  0.4098  0.1647 -0.1290
  551MOL0     O74298   5.063   2.782   1.828  0.6667  0.4257 -0.8823
  551MOL0     C74299   5.360   2.811   1.997 -0.5237  0.2807 -0.1391
  551MOL0     C74300   5.468   2.745   2.045 -0.4034 -0.5146 -0.8642
  551MOL0     N74301   6.242   2.618   2.184  0.1168  0.3194 -0.1869
  551MOL0     N74302   6.339   2.634   2.268  0.1999  0.8533  0.0427
  551MOL0     C74303   6.960   3.118   3.009  0.9742 -1.1352 -0.8518
  551MOL0     C74304   7.047   3.226   2.996 -0.1379 -0.2368 -0.0431
  551MOL0     C74305   7.496   3.373   2.938 -0.1243  1.2059  0.5501
  551MOL0     C74306   7.612   3.373   3.016 -0.8297  0.6846 -0.7254
  551MOL0     C74307   7.718   3.468   2.979  0.6965  1.5196 -0.0088
  551MOL0     C74308   7.708   3.539   2.857  0.0194  0.6042  0.4025
  551MOL0     O74309   7.807   3.626   2.825  0.3821 -0.4002  0.3161
  551MOL0     C74310   7.769   3.746   2.762  0.9141  0.2972  0.1838
  551MOL0     C74311   7.692   3.841   2.847  0.5022 -0.6099  0.5825
  551MOL0     C74312   7.596   3.939   2.768 -0.9887 -0.7005 -1.1320
  551MOL0     C74313   7.472   3.870   2.701 -0.1099 -0.0427  0.3701
  551MOL0     C74314   7.370   3.827   2.803 -1.0733 -0.1520  0.4573
  551MOL0     C74315   7.273   3.787   2.860  0.2452  0.0194 -0.3139
  551MOL0     C74316   7.589   3.524   2.774 -0.4364  0.1673 -0.4696
  551MOL0     C74317   7.481   3.444   2.812  0.3416  0.9054  0.2436
  551MOL0     H74318   7.307   3.055   2.858 -0.1823  0.0354  0.9751
  551MOL0     H74319   7.127   2.871   2.852 -1.0632  0.1167 -0.8035
  551MOL0     H74320   6.792   2.757   3.065 -0.6725 -0.4018  3.0438
  551MOL0     H74321   6.843   2.905   3.146 -0.6596 -1.3340 -0.0865
  551MOL0     H74322   6.597   2.881   3.116 -0.4318 -0.3527  0.3612
  551MOL0     H74323   6.659   3.028   3.023  1.2245 -0.4535 -1.8204
  551MOL0     H74324   6.666   2.887   2.817 -0.7870 -0.0414 -0.7805
  551MOL0     H74325   6.591   2.753   2.899  2.7481 -0.5297 -0.9799
  551MOL0     H74326   6.391   2.871   2.950 -0.5104 -0.3106 -0.2059
  551MOL0     H74327   6.462   3.033   2.903 -2.6332 -0.5799 -1.8920
  551MOL0     H74328   6.312   2.952   2.728 -0.2985 -0.0164 -1.3933
  551MOL0     H74329   6.482   2.945   2.676 -0.6077 -3.5254 -1.1087
  551MOL0     H74330   6.466   2.697   2.724 -2.6515 -3.1540  0.7748
  551MOL0     H74331   6.299   2.718   2.786 -1.0602  3.6622  1.0307
  551MOL0     H74332   6.210   2.737   2.579 -0.1124  1.1569 -1.0413
  551MOL0     H74333   6.347   2.830   2.518  1.1368 -0.9641 -0.6303
  551MOL0     H74334   6.342   2.512   2.561 -0.5658  1.0241 -0.5277
  551MOL0     H74335   6.480   2.606   2.506 -0.7539 -0.0176  2.0579
  551MOL0     H74336   6.115   2.481   2.445 -2.3586  1.0040 -0.5998
  551MOL0     H74337   6.013   2.532   2.075  1.9776  0.1354  0.5596
  551MOL0     H74338   5.977   2.425   2.210  0.5562 -0.8271  1.0426
  551MOL0     H74339   5.911   2.724   2.175  0.3089  1.0226 -0.1516
  551MOL0     H74340   5.905   2.663   2.344  0.1287 -0.9294  0.4568
  551MOL0     H74341   5.682   2.634   2.293 -0.5875 -1.0692  0.2853
  551MOL0     H74342   5.754   2.481   2.294 -1.1031  1.1762  1.2316
  551MOL0     H74343   5.751   2.483   2.038  1.3859 -1.6796  3.0827
  551MOL0     H74344   5.715   2.661   2.047  0.3162  0.1289 -0.2797
  551MOL0     H74345   5.324   2.437   2.050  0.8607 -0.8295 -3.9682
  551MOL0     H74346   5.088   2.516   1.899 -0.5006  1.4625 -0.2049
  551MOL0     H74347   5.075   2.480   2.076  2.6913  1.5335  1.9229
  551MOL0     H74348   5.009   2.626   2.029 -2.0543 -0.6297 -1.5098
  551MOL0     H74349   5.160   3.130   1.709 -0.4033  2.3574 -1.3908
  551MOL0     H74350   4.990   3.310   1.666  1.3751 -0.0556 -0.5755
  551MOL0     H74351   4.832   3.506   1.853  0.9222  0.4877  0.2159
  551MOL0     H74352   4.848   3.449   1.680 -3.6902  0.1939 -1.9557
  551MOL0     H74353   4.611   3.560   1.838 -0.4610 -1.0318  0.2427
  551MOL0     H74354   4.680   3.656   1.716 -1.4506  1.2439  2.2364
  551MOL0     H74355   4.487   3.575   1.630  1.1773  0.9044  1.0636
  551MOL0     H74356   4.499   3.416   1.695  0.5325 -0.5110  1.1512
  551MOL0     H74357   4.667   3.555   1.474  0.0509  0.6423  0.1273
  551MOL0     H74358   4.671   3.377   1.504  0.7089  0.7452 -1.0066
  551MOL0     H74359   4.446   3.530   1.378 -0.5959 -1.4892 -3.6596
  551MOL0     H74360   4.419   3.367   1.441  0.3674  0.7395 -0.0402
  551MOL0     H74361   4.631   3.478   1.242 -1.9313  1.9150 -3.9685
  551MOL0     H74362   4.608   3.305   1.297  0.3033  1.5623  2.6246
  551MOL0     H74363   4.375   3.437   1.163  0.6769 -0.4871 -1.8798
  551MOL0     H74364   4.408   3.267   1.200  0.2714  0.5795  3.1070
  551MOL0     H74365   4.450   3.300   0.947  0.1318  1.6715 -0.6572
  551MOL0     H74366   4.602   3.288   1.026 -0.7793 -1.8302 -2.3758
  551MOL0     H74367   4.720   3.117   1.939 -0.6272 -2.5325 -1.1837
  551MOL0     H74368   4.904   2.960   2.007  0.2818 -0.0647 -0.4260
  551MOL0     H74369   5.372   2.917   1.977  0.6974 -0.4954 -4.6675
  551MOL0     H74370   5.559   2.802   2.060 -0.9335  0.4357 -1.1075
  551MOL0     H74371   6.869   3.136   3.066  2.5459 -1.9897  2.1066
  551MOL0     H74372   7.043   3.329   3.030  0.1085 -0.4886  0.7843
  551MOL0     H74373   7.622   3.322   3.111  0.1321  0.4241 -0.9500
  551MOL0     H74374   7.806   3.477   3.041  1.4968 -3.6810  0.0723
  551MOL0     H74375   7.873   3.776   2.743  2.0382 -3.3577 -0.3304
  551MOL0     H74376   7.734   3.741   2.658  2.1409  4.9252 -0.6942
  551MOL0     H74377   7.764   3.890   2.913  0.9291  1.6346 -1.4103
  551MOL0     H74378   7.624   3.787   2.913 -1.3000 -1.0164 -1.4872
  551MOL0     H74379   7.661   3.978   2.690  0.3276 -0.7982 -0.1112
  551MOL0     H74380   7.549   4.008   2.838 -1.2458 -1.2629 -0.7389
  551MOL0     H74381   7.492   3.792   2.626  1.3512 -2.4299  3.0386
  551MOL0     H74382   7.415   3.937   2.636  0.1426  0.7643  0.9676
  551MOL0     H74383   7.188   3.752   2.915 -0.9147 -1.5665 -2.9162
  551MOL0     H74384   7.577   3.568   2.676  3.0149  0.7334 -0.7417
  551MOL0     H74385   7.388   3.447   2.757 -1.5110 -4.3706  2.3689
  552MOL0     O74386   6.047   4.177   8.448  0.2376 -1.2333  0.2661
  552MOL0     C74387   6.124   4.234   8.523 -1.1124  0.2278 -0.5951
  552MOL0     O74388   6.256   4.206   8.535 -0.2087  0.7592  0.2929
  552MOL0     C74389   6.326   4.136   8.436 -0.2223 -0.5954 -0.3848
  552MOL0     C74390   6.392   4.018   8.468  0.8758  0.3635 -0.3323
  552MOL0     C74391   6.473   3.959   8.362  0.2794 -0.1458 -0.7291
  552MOL0     C74392   6.488   4.028   8.238  0.3144  0.0082 -0.8507
  552MOL0     O74393   6.561   3.971   8.131  0.1130  0.2746  0.4775
  552MOL0     C74394   6.653   3.858   8.156  0.0233  1.0314 -0.2999
  552MOL0     C74395   6.714   3.792   8.043 -0.0204  1.0323 -0.0048
  552MOL0     C74396   6.756   3.876   7.928 -0.8631 -0.5527 -0.0922
  552MOL0     C74397   6.815   3.790   7.809  0.1557  0.5638  0.6711
  552MOL0     C74398   6.887   3.880   7.711 -0.9908  0.4654  0.5894
  552MOL0     C74399   6.991   3.788   7.638  0.1442 -0.4390  0.2259
  552MOL0     C74400   7.109   3.860   7.576  1.1554 -0.1012 -0.2702
  552MOL0     C74401   7.217   3.773   7.510 -0.2855 -0.7236 -0.8195
  552MOL0     N74402   7.295   3.679   7.599  0.2397 -0.2110  0.5772
  552MOL0     C74403   7.394   3.593   7.548 -0.1610  0.5480  0.1017
  552MOL0     C74404   7.453   3.544   7.659  0.1833 -0.1739 -0.1973
  552MOL0     C74405   7.568   3.453   7.669 -0.6526  1.1187 -0.9618
  552MOL0     C74406   7.541   3.300   7.703 -0.2927 -0.9370 -0.0757
  552MOL0     C74407   7.661   3.219   7.740  0.0091  0.6031 -0.5595
  552MOL0     C74408   7.625   3.074   7.748 -0.5953 -0.3420 -0.6340
  552MOL0     O74409   7.533   3.050   7.854  0.4648 -0.0391  0.0437
  552MOL0     C74410   7.476   2.925   7.868 -0.1063  0.5019  0.5975
  552MOL0     C74411   7.460   2.869   7.989 -0.7098  0.1426 -0.5255
  552MOL0     C74412   7.416   2.738   8.015 -0.2166 -0.8901 -0.6573
  552MOL0     C74413   7.414   2.699   8.158  0.2801 -0.1226  0.0388
  552MOL0     C74414   7.380   2.656   7.908  0.5979 -0.6203 -0.7469
  552MOL0     C74415   7.328   2.524   7.912 -0.4212  0.7149 -0.7322
  552MOL0     O74416   7.330   2.456   7.792 -0.3712  0.0458 -0.2034
  552MOL0     C74417   7.304   2.323   7.817 -0.5184 -0.0820  0.2295
  552MOL0     C74418   7.399   2.250   7.870  0.3673 -0.2547 -1.0890
  552MOL0     C74419   7.385   2.117   7.901 -1.0039  0.6845  0.1165
  552MOL0     C74420   7.269   2.052   7.871 -0.0138 -0.2322  0.1395
  552MOL0     O74421   7.277   1.924   7.880  0.7285 -0.5707 -0.3222
  552MOL0     C74422   7.184   1.842   7.806  0.7432  0.8441  0.3863
  552MOL0     C74423   7.062   1.804   7.886 -0.1066 -0.0559  0.6073
  552MOL0     C74424   6.968   1.723   7.789  0.2669 -0.9680  0.7700
  552MOL0     C74425   6.860   1.647   7.864 -0.6411  0.9758  0.1448
  552MOL0     C74426   6.757   1.572   7.773 -0.6724  0.4079 -0.5364
  552MOL0     C74427   6.662   1.493   7.864  0.2366  1.5278  0.6958
  552MOL0     C74428   6.565   1.575   7.952 -0.4423 -0.4268  0.2735
  552MOL0     C74429   6.466   1.492   8.030 -0.6569 -0.6700 -0.5097
  552MOL0    Cl74430   6.530   1.326   8.070  0.0765  0.1282  0.2666
  552MOL0     C74431   7.163   2.131   7.821  0.1786  0.1081 -0.9319
  552MOL0     C74432   7.178   2.270   7.799 -0.2676 -0.1532 -0.1327
  552MOL0     O74433   7.268   2.495   8.012  0.2125 -0.4003  0.2965
  552MOL0     C74434   7.391   2.717   7.779 -0.3744 -0.5744 -0.0704
  552MOL0     C74435   7.435   2.844   7.765 -0.3011 -1.2583  0.2356
  552MOL0     N74436   7.390   3.601   7.771  0.3135  0.1369  0.2174
  552MOL0     N74437   7.303   3.689   7.731 -0.0841  0.7560  0.2431
  552MOL0     C74438   6.415   4.143   8.212 -0.0800 -1.3235  0.2996
  552MOL0     C74439   6.333   4.197   8.307  0.4149 -1.0228  0.2492
  552MOL0     C74440   6.077   4.318   8.636 -0.1245 -0.3072  0.5294
  552MOL0     C74441   5.941   4.342   8.663  0.1983 -0.3394  0.1518
  552MOL0     C74442   5.888   4.408   8.774  0.1217  0.2348  0.0976
  552MOL0     C74443   5.983   4.475   8.858 -0.3258 -0.1462 -0.8414
  552MOL0     O74444   5.934   4.567   8.950 -0.4682  0.7838 -0.4290
  552MOL0     C74445   5.827   4.655   8.911 -0.0574  0.0042  0.2106
  552MOL0     C74446   5.710   4.631   8.997 -0.6633  0.3392 -1.0326
  552MOL0     C74447   5.745   4.651   9.142 -0.2991  0.1716 -0.7874
  552MOL0     C74448   5.606   4.649   9.218 -1.1787 -0.1241  0.4390
  552MOL0     C74449   5.528   4.778   9.202 -0.5110  0.5805 -0.8197
  552MOL0     C74450   5.465   4.881   9.184  0.5835 -1.0245 -0.1028
  552MOL0     C74451   6.115   4.444   8.845 -0.2884 -0.6485  0.5844
  552MOL0     C74452   6.165   4.368   8.733  0.7067 -0.0995 -0.8213
  552MOL0     H74453   6.378   3.968   8.563  0.3057  1.4448  0.1699
  552MOL0     H74454   6.523   3.865   8.380 -1.3060 -0.9520 -0.3762
  552MOL0     H74455   6.733   3.880   8.226  0.7637  1.8782 -1.3852
  552MOL0     H74456   6.592   3.780   8.204 -0.3019  0.6918 -1.2374
  552MOL0     H74457   6.804   3.737   8.072  1.6531  2.9567 -1.3140
  552MOL0     H74458   6.636   3.722   8.012  0.1482 -0.9677  3.4936
  552MOL0     H74459   6.673   3.930   7.884  0.2628 -0.8967 -2.8319
  552MOL0     H74460   6.844   3.937   7.954  0.0432 -2.0358  0.4500
  552MOL0     H74461   6.878   3.708   7.844  1.6449  1.2806 -0.2316
  552MOL0     H74462   6.734   3.739   7.756  0.8116 -0.9579  1.1024
  552MOL0     H74463   6.814   3.922   7.641 -0.5012  1.6860  0.7882
  552MOL0     H74464   6.934   3.968   7.754  0.1970  1.3197 -2.2769
  552MOL0     H74465   7.035   3.717   7.709  1.5979 -0.2969 -0.4926
  552MOL0     H74466   6.940   3.740   7.554 -0.7921  0.6091  0.1726
  552MOL0     H74467   7.085   3.947   7.514 -0.9925  0.2135  0.8978
  552MOL0     H74468   7.156   3.906   7.664  0.6574  0.5233 -0.3216
  552MOL0     H74469   7.282   3.841   7.454 -2.0163  2.9972  1.2771
  552MOL0     H74470   7.166   3.712   7.435  0.0321 -0.4484 -1.2652
  552MOL0     H74471   7.427   3.592   7.445 -1.1768  0.4325 -0.2426
  552MOL0     H74472   7.623   3.458   7.575 -2.0575  0.3073 -1.8779
  552MOL0     H74473   7.635   3.490   7.747 -0.3038 -0.4247 -0.4890
  552MOL0     H74474   7.500   3.260   7.609 -1.3192 -2.2071  0.8729
  552MOL0     H74475   7.467   3.281   7.781  0.1735  1.3667  0.9835
  552MOL0     H74476   7.694   3.258   7.837  0.6625  1.8097 -1.2335
  552MOL0     H74477   7.730   3.257   7.664 -0.8763  1.7043 -0.8307
  552MOL0     H74478   7.716   3.014   7.757 -0.3912  0.1207  0.7097
  552MOL0     H74479   7.579   3.051   7.651 -1.1007  2.2241 -1.0957
  552MOL0     H74480   7.481   2.928   8.078  0.7766  1.5139 -1.7271
  552MOL0     H74481   7.437   2.593   8.174 -1.9346 -0.5691  0.5966
  552MOL0     H74482   7.487   2.755   8.216 -0.8636  2.4004 -0.7792
  552MOL0     H74483   7.315   2.719   8.200  0.0061 -1.9375  0.3503
  552MOL0     H74484   7.494   2.293   7.900  2.1291 -4.7425  0.6926
  552MOL0     H74485   7.465   2.061   7.949 -2.6880 -1.0993  0.9966
  552MOL0     H74486   7.154   1.890   7.713 -0.8676 -0.4279  0.1955
  552MOL0     H74487   7.244   1.757   7.773  1.9033  0.1594  3.7890
  552MOL0     H74488   7.087   1.738   7.971 -1.3490  0.0267  1.0593
  552MOL0     H74489   7.022   1.896   7.930 -0.8235 -0.3627  0.6098
  552MOL0     H74490   7.013   1.652   7.719  0.2320  0.1010 -0.3722
  552MOL0     H74491   6.923   1.804   7.730  3.2545  1.6462  1.7436
  552MOL0     H74492   6.918   1.586   7.934 -1.8526 -2.1954 -1.4219
  552MOL0     H74493   6.804   1.713   7.931  0.8147  0.4305  2.0027
  552MOL0     H74494   6.817   1.503   7.712 -3.2374 -1.7210 -0.8078
  552MOL0     H74495   6.707   1.640   7.704  0.1837  1.2856 -0.3049
  552MOL0     H74496   6.602   1.440   7.789  0.7158  1.6722  0.2028
  552MOL0     H74497   6.711   1.412   7.920 -0.1755 -0.3670 -1.5032
  552MOL0     H74498   6.506   1.635   7.882  0.6872  1.0892  0.5732
  552MOL0     H74499   6.616   1.650   8.012  1.6670  1.0404 -3.0663
  552MOL0     H74500   6.372   1.482   7.975 -1.5585 -2.6647  1.2109
  552MOL0     H74501   6.440   1.551   8.118 -2.1196 -0.0512 -1.3288
  552MOL0     H74502   7.067   2.089   7.791 -0.0432 -1.6218  1.8387
  552MOL0     H74503   7.097   2.331   7.762 -2.1478 -2.0688  0.5812
  552MOL0     H74504   7.348   2.663   7.695 -0.8930  1.5405 -1.2185
  552MOL0     H74505   7.431   2.894   7.669 -0.8573 -2.2512 -0.2782
  552MOL0     H74506   6.415   4.188   8.113  0.5508 -1.7341  0.1055
  552MOL0     H74507   6.271   4.282   8.280  0.1639 -1.9799 -2.5884
  552MOL0     H74508   5.864   4.312   8.593  1.4019 -2.1841 -0.4698
  552MOL0     H74509   5.782   4.423   8.789 -0.1339 -3.3177  3.5763
  552MOL0     H74510   5.875   4.752   8.928 -1.4659  0.4721  1.7916
  552MOL0     H74511   5.790   4.652   8.808 -1.6824 -1.9463  0.7953
  552MOL0     H74512   5.685   4.526   8.975  1.9626  0.0603 -3.2137
  552MOL0     H74513   5.624   4.692   8.970  0.4021  1.4392 -2.0235
  552MOL0     H74514   5.795   4.748   9.158  0.6860  0.3381 -4.0371
  552MOL0     H74515   5.804   4.572   9.190  0.1722  0.9801  0.0017
  552MOL0     H74516   5.640   4.639   9.321  0.8172  0.1910 -0.1409
  552MOL0     H74517   5.548   4.565   9.180  0.3748 -0.3571 -1.5681
  552MOL0     H74518   5.417   4.976   9.179  0.8160 -0.9831 -2.1240
  552MOL0     H74519   6.183   4.483   8.920 -1.1508  0.3974  0.8425
  552MOL0     H74520   6.273   4.364   8.728  0.7708 -0.7762  0.7212
  553MOL0     O74521   3.146   8.840   2.878  0.1723 -0.4964  0.4542
  553MOL0     C74522   3.233   8.788   2.940 -0.4834  0.3884  0.2924
  553MOL0     O74523   3.359   8.782   2.907 -1.0459 -0.0847 -0.5258
  553MOL0     C74524   3.392   8.756   2.778  0.3576  0.7635  0.1960
  553MOL0     C74525   3.374   8.861   2.692 -0.1435  0.8864  0.0571
  553MOL0     C74526   3.417   8.857   2.562 -0.3270  0.0706 -0.5051
  553MOL0     C74527   3.453   8.736   2.504  0.5305  0.5064 -0.7092
  553MOL0     O74528   3.493   8.707   2.378  0.0587  0.8272  0.0052
  553MOL0     C74529   3.473   8.810   2.285  0.3498 -0.4990  0.5080
  553MOL0     C74530   3.504   8.748   2.150 -0.1367 -0.3553  0.0959
  553MOL0     C74531   3.463   8.825   2.027 -0.3136  0.1592  0.6446
  553MOL0     C74532   3.520   8.765   1.899  0.1389  0.6862  0.0949
  553MOL0     C74533   3.488   8.841   1.771  0.3183  0.6381 -0.3120
  553MOL0     C74534   3.601   8.815   1.665 -0.3036  0.2765  0.2327
  553MOL0     C74535   3.553   8.898   1.540 -0.3373  0.6929 -0.9444
  553MOL0     C74536   3.534   8.822   1.411 -0.3202  0.2650  0.1657
  553MOL0     N74537   3.410   8.743   1.413 -0.2315 -0.5238 -0.7611
  553MOL0     C74538   3.284   8.781   1.367  0.0663  0.1706 -0.3480
  553MOL0     C74539   3.206   8.676   1.380  0.4928  0.1773 -0.2219
  553MOL0     C74540   3.070   8.647   1.321  0.7179 -0.1301  0.0178
  553MOL0     C74541   3.086   8.637   1.166 -0.2928  0.3235  0.2775
  553MOL0     C74542   2.945   8.619   1.090 -0.0216  0.0417 -0.2885
  553MOL0     C74543   2.977   8.579   0.950  0.3745  0.6211  0.0639
  553MOL0     O74544   3.002   8.698   0.880  0.4337 -0.2414  0.4043
  553MOL0     C74545   3.006   8.693   0.741 -0.3756  0.3024 -0.3056
  553MOL0     C74546   3.094   8.778   0.667  1.0585 -0.0843  0.1548
  553MOL0     C74547   3.116   8.768   0.532 -0.1971  0.4165 -0.1678
  553MOL0     C74548   3.219   8.868   0.470 -0.0285  0.2558 -0.7968
  553MOL0     C74549   3.058   8.666   0.463  0.4064 -0.0185 -0.4245
  553MOL0     C74550   3.102   8.622   0.331 -0.7590 -0.3384  1.2073
  553MOL0     O74551   3.234   8.585   0.306 -0.5666 -0.5345  0.1804
  553MOL0     C74552   3.281   8.570   0.178 -0.3117 -0.2213 -0.3832
  553MOL0     C74553   3.379   8.662   0.126 -0.0704 -0.3631  0.6351
  553MOL0     C74554   3.433   8.635  -0.005 -1.9423  0.7221  0.4936
  553MOL0     C74555   3.395   8.518  -0.076 -0.7334 -0.0400  0.7014
  553MOL0     O74556   3.454   8.498  -0.204  0.6808 -1.3782  0.1843
  553MOL0     C74557   3.381   8.423  -0.299  0.2557  0.9823  0.2618
  553MOL0     C74558   3.438   8.440  -0.445  0.2285  0.4285  0.1263
  553MOL0     C74559   3.355   8.348  -0.532  0.1692  0.1682  0.2113
  553MOL0     C74560   3.416   8.337  -0.674 -0.4001 -0.1767 -0.4430
  553MOL0     C74561   3.433   8.474  -0.739 -0.2642 -0.2113 -0.3714
  553MOL0     C74562   3.305   8.521  -0.803 -0.7173 -0.0204  0.3423
  553MOL0     C74563   3.205   8.612  -0.727 -1.4680  0.4914 -0.0394
  553MOL0     C74564   3.244   8.754  -0.708  0.9554 -0.4861  0.0238
  553MOL0    Cl74565   3.126   8.841  -0.611 -0.1105  0.3236  0.0411
  553MOL0     C74566   3.304   8.435  -0.016 -0.9615  0.3445  0.5739
  553MOL0     C74567   3.248   8.461   0.106 -0.1119  0.1661  1.3554
  553MOL0     O74568   3.012   8.630   0.242  0.5618 -0.3714  0.3439
  553MOL0     C74569   2.951   8.590   0.531 -0.1358  0.4544 -0.2778
  553MOL0     C74570   2.918   8.606   0.671  0.0484 -1.0369  0.0099
  553MOL0     N74571   3.279   8.573   1.437  0.1910  0.7473 -0.6284
  553MOL0     N74572   3.401   8.614   1.456 -0.5475 -0.2858 -0.1649
  553MOL0     C74573   3.463   8.628   2.592 -1.1106 -0.2116 -0.7303
  553MOL0     C74574   3.440   8.641   2.736  0.2950  0.4235  0.0744
  553MOL0     C74575   3.209   8.743   3.077 -1.0712  0.3094  0.7069
  553MOL0     C74576   3.264   8.625   3.134 -0.1160  0.1363  1.4742
  553MOL0     C74577   3.218   8.580   3.256  0.8806 -0.0574 -0.8644
  553MOL0     C74578   3.119   8.650   3.331  0.3838 -0.0533 -0.2918
  553MOL0     O74579   3.071   8.602   3.452  0.3572  0.6902 -0.0888
  553MOL0     C74580   2.999   8.688   3.541 -0.3204 -0.3252  0.3920
  553MOL0     C74581   2.848   8.663   3.523  0.0540  0.3241 -0.8372
  553MOL0     C74582   2.781   8.679   3.658  0.3452 -0.0779 -0.1777
  553MOL0     C74583   2.651   8.611   3.676 -0.3768  0.0740 -0.7693
  553MOL0     C74584   2.596   8.637   3.808 -0.5936  0.3888 -0.8616
  553MOL0     C74585   2.553   8.646   3.913 -0.9253 -0.5915  0.2157
  553MOL0     C74586   3.075   8.770   3.287  0.2649 -0.5528  0.4867
  553MOL0     C74587   3.114   8.811   3.159 -0.4061 -0.3761  0.7468
  553MOL0     H74588   3.332   8.957   2.719  2.2767  2.0640 -0.1760
  553MOL0     H74589   3.417   8.948   2.503 -0.5640 -1.4952 -3.0920
  553MOL0     H74590   3.378   8.864   2.290  1.7009  2.1862 -0.5751
  553MOL0     H74591   3.551   8.880   2.317  1.0845 -2.1737  2.6534
  553MOL0     H74592   3.613   8.740   2.146 -0.1989 -1.2212 -4.1241
  553MOL0     H74593   3.464   8.646   2.150  0.6642 -0.8077  3.4396
  553MOL0     H74594   3.355   8.818   2.013 -0.2581 -0.7179  0.6024
  553MOL0     H74595   3.504   8.926   2.038  1.8757 -0.2566 -2.5100
  553MOL0     H74596   3.629   8.762   1.910  0.0657 -2.1221  0.8553
  553MOL0     H74597   3.484   8.662   1.891 -1.2490  1.1709 -0.1049
  553MOL0     H74598   3.387   8.820   1.735  0.4886 -1.0529  0.1524
  553MOL0     H74599   3.490   8.948   1.795 -0.3685  0.4626  0.6011
  553MOL0     H74600   3.697   8.861   1.689  0.8362 -1.8741  0.0273
  553MOL0     H74601   3.616   8.708   1.646 -0.5800  0.0573  1.2069
  553MOL0     H74602   3.471   8.967   1.560  0.0332  1.0631 -0.6875
  553MOL0     H74603   3.642   8.957   1.515 -0.2901 -0.5597 -4.2048
  553MOL0     H74604   3.616   8.749   1.406  0.4159  1.0693 -5.2253
  553MOL0     H74605   3.528   8.883   1.321 -0.3327  2.1994  1.4223
  553MOL0     H74606   3.260   8.868   1.307 -2.2107  0.7179  1.1890
  553MOL0     H74607   3.009   8.561   1.352 -2.2609  1.4931 -0.9400
  553MOL0     H74608   3.006   8.732   1.348  0.6924 -0.0379 -0.3225
  553MOL0     H74609   3.159   8.557   1.160  0.0552  0.3689  2.9670
  553MOL0     H74610   3.137   8.721   1.116 -1.7902  1.5110  0.6494
  553MOL0     H74611   2.889   8.713   1.093  0.1167  0.1142  1.1590
  553MOL0     H74612   2.885   8.545   1.144  0.7892 -0.0966  0.4473
  553MOL0     H74613   2.894   8.522   0.907  1.4904  0.6567 -2.3323
  553MOL0     H74614   3.070   8.520   0.954  1.7268  2.7428  2.1083
  553MOL0     H74615   3.145   8.858   0.719 -0.7746  1.6949 -0.6311
  553MOL0     H74616   3.189   8.885   0.367  1.9100 -0.6974 -1.5518
  553MOL0     H74617   3.221   8.967   0.517 -1.5372  0.7672 -1.7550
  553MOL0     H74618   3.318   8.822   0.461  1.1804  1.8245  2.6452
  553MOL0     H74619   3.400   8.748   0.189 -2.8302  0.7265  0.2032
  553MOL0     H74620   3.499   8.703  -0.058  0.8589 -0.7651  1.8860
  553MOL0     H74621   3.382   8.322  -0.259  1.2636  1.2404  0.9317
  553MOL0     H74622   3.275   8.450  -0.304 -0.3498 -1.3230 -0.5701
  553MOL0     H74623   3.424   8.544  -0.473 -1.7667 -0.8816 -4.8638
  553MOL0     H74624   3.546   8.422  -0.445 -0.0170 -1.3151 -1.1411
  553MOL0     H74625   3.255   8.392  -0.528  1.1694  2.5500  0.5828
  553MOL0     H74626   3.359   8.248  -0.489  1.4010 -0.2752 -0.8539
  553MOL0     H74627   3.516   8.293  -0.670 -0.1778 -0.1524 -3.4400
  553MOL0     H74628   3.351   8.270  -0.732 -0.7784 -0.3359  0.1587
  553MOL0     H74629   3.520   8.465  -0.805 -1.2010 -0.4301 -1.6278
  553MOL0     H74630   3.476   8.548  -0.671 -3.1630  2.2857 -0.9834
  553MOL0     H74631   3.325   8.574  -0.897 -0.5074 -2.3837 -1.0073
  553MOL0     H74632   3.260   8.433  -0.850  1.3852  0.7387 -3.6000
  553MOL0     H74633   3.183   8.555  -0.636 -2.5894  0.0441 -0.5761
  553MOL0     H74634   3.107   8.617  -0.776 -2.1199 -2.2912  0.8056
  553MOL0     H74635   3.231   8.809  -0.802  0.4049  0.7539  0.8013
  553MOL0     H74636   3.346   8.781  -0.682 -0.0129  3.1353  0.6189
  553MOL0     H74637   3.274   8.344  -0.068  0.9532 -0.2795  0.4725
  553MOL0     H74638   3.174   8.392   0.144 -0.2649 -0.4699 -0.0087
  553MOL0     H74639   2.890   8.521   0.474  0.4470  0.7090 -1.2153
  553MOL0     H74640   2.829   8.565   0.718 -0.7820 -0.6843 -1.1737
  553MOL0     H74641   3.510   8.539   2.551  2.8785  0.3060  2.1553
  553MOL0     H74642   3.468   8.563   2.806 -2.6925 -1.6777 -0.8885
  553MOL0     H74643   3.340   8.559   3.092 -0.5921  1.1730 -1.2259
  553MOL0     H74644   3.247   8.490   3.309  1.6415  0.8857  0.3858
  553MOL0     H74645   3.036   8.675   3.644  0.0434 -1.2205  0.1531
  553MOL0     H74646   3.025   8.792   3.520 -2.2990 -0.0154 -0.7387
  553MOL0     H74647   2.837   8.560   3.487  1.3771 -0.8033  1.7086
  553MOL0     H74648   2.805   8.729   3.448 -1.5822 -0.8987 -1.0304
  553MOL0     H74649   2.763   8.786   3.677 -1.3029 -0.8946  4.1172
  553MOL0     H74650   2.853   8.636   3.729  0.1679  0.7026  0.4933
  553MOL0     H74651   2.680   8.506   3.677  1.9572  0.6327  1.6517
  553MOL0     H74652   2.573   8.644   3.607 -0.8301  3.3543  1.0634
  553MOL0     H74653   2.516   8.644   4.013  1.5766 -0.0234  1.2284
  553MOL0     H74654   3.005   8.841   3.330 -0.7528  1.9335 -4.5099
  553MOL0     H74655   3.070   8.904   3.124  1.8687  0.5741  0.2194
  554MOL0     O74656   6.597   1.165   3.110  0.3267  0.3424  0.0357
  554MOL0     C74657   6.609   1.200   2.995  0.8022  0.3848 -0.3253
  554MOL0     O74658   6.644   1.316   2.950  0.2717  0.4962  1.2073
  554MOL0     C74659   6.668   1.427   3.029  0.5816  0.0425 -0.2218
  554MOL0     C74660   6.573   1.526   3.046  0.4936 -0.1499  0.4075
  554MOL0     C74661   6.596   1.640   3.108 -0.5350 -0.8999 -0.3516
  554MOL0     C74662   6.733   1.680   3.143 -0.1437  1.0274 -0.4451
  554MOL0     O74663   6.734   1.794   3.206 -0.6877  0.2625  0.3955
  554MOL0     C74664   6.862   1.865   3.194 -0.0077 -1.2380 -0.2137
  554MOL0     C74665   6.835   2.014   3.226 -0.2358 -0.1872 -0.3112
  554MOL0     C74666   6.727   2.076   3.138 -1.0300 -0.1245 -0.0777
  554MOL0     C74667   6.694   2.219   3.198  0.3337 -0.1763  1.2950
  554MOL0     C74668   6.600   2.277   3.092 -0.1387 -0.6438  0.6810
  554MOL0     C74669   6.543   2.411   3.138  0.2494 -0.0722  0.7177
  554MOL0     C74670   6.471   2.478   3.023 -0.2506 -0.0582  0.2614
  554MOL0     C74671   6.326   2.415   3.014  0.3335 -0.0715 -0.3465
  554MOL0     N74672   6.257   2.444   2.886  0.2210  0.5280  0.4767
  554MOL0     C74673   6.133   2.513   2.886 -0.4658  0.0622 -0.3375
  554MOL0     C74674   6.075   2.474   2.764  0.7163 -0.5507 -1.0373
  554MOL0     C74675   5.953   2.541   2.723  0.0024 -0.8633 -0.0786
  554MOL0     C74676   5.826   2.474   2.781  0.3879 -0.1981 -0.4015
  554MOL0     C74677   5.691   2.549   2.756 -0.2920  0.0265 -0.0720
  554MOL0     C74678   5.663   2.543   2.607 -0.2065 -0.1730 -0.0081
  554MOL0     O74679   5.613   2.406   2.574 -0.2371 -0.0103  0.5922
  554MOL0     C74680   5.478   2.390   2.568  0.0211  0.3073  0.4738
  554MOL0     C74681   5.404   2.449   2.463  0.6351 -0.0971  0.1379
  554MOL0     C74682   5.264   2.454   2.476  0.3401  1.3692 -0.7000
  554MOL0     C74683   5.187   2.524   2.375 -0.5067 -0.0002  0.1263
  554MOL0     C74684   5.195   2.379   2.576  0.2192  0.0485  0.4940
  554MOL0     C74685   5.043   2.387   2.588 -0.4270 -0.7968  0.4063
  554MOL0     O74686   4.989   2.470   2.685 -0.1494  0.2614 -0.5118
  554MOL0     C74687   4.858   2.470   2.719  0.2105  0.7345 -0.6268
  554MOL0     C74688   4.760   2.434   2.629 -0.5875  0.7870  0.0824
  554MOL0     C74689   4.628   2.434   2.669  0.2738 -0.3493  0.1775
  554MOL0     C74690   4.587   2.459   2.811 -1.4310 -0.5237  0.1995
  554MOL0     O74691   4.472   2.444   2.875 -0.2307 -0.3052  0.1765
  554MOL0     C74692   4.348   2.434   2.795 -0.0240  0.6590  0.4778
  554MOL0     C74693   4.221   2.488   2.876 -1.7146  0.2928  0.4821
  554MOL0     C74694   4.112   2.561   2.789  0.0662  0.2986  0.5049
  554MOL0     C74695   4.043   2.472   2.682  0.1343 -0.9295  0.6038
  554MOL0     C74696   3.949   2.561   2.609  0.0860  0.6064  0.5352
  554MOL0     C74697   3.877   2.474   2.512  0.0195 -0.2523  0.0312
  554MOL0     C74698   3.791   2.562   2.428  0.2187  0.0720 -0.0058
  554MOL0     C74699   3.706   2.488   2.327 -0.0436 -0.9269 -0.2187
  554MOL0    Cl74700   3.801   2.384   2.210  0.2035 -0.1714 -0.2858
  554MOL0     C74701   4.697   2.507   2.896 -0.2680  1.2340 -0.0998
  554MOL0     C74702   4.829   2.522   2.848  0.2033 -0.1071  0.7577
  554MOL0     O74703   4.991   2.304   2.519 -0.2142  0.4611  0.3263
  554MOL0     C74704   5.270   2.305   2.666 -0.8400  0.4713 -0.5003
  554MOL0     C74705   5.410   2.311   2.672 -0.0038 -0.3867  0.6570
  554MOL0     N74706   6.157   2.382   2.698  0.0182  0.3549 -0.3423
  554MOL0     N74707   6.256   2.358   2.776 -0.2814  0.1198  0.0602
  554MOL0     C74708   6.837   1.584   3.122  0.0648 -0.6687 -0.0187
  554MOL0     C74709   6.808   1.457   3.065 -0.3238  0.5686 -0.5254
  554MOL0     C74710   6.591   1.095   2.893 -0.9427 -0.5956 -1.0903
  554MOL0     C74711   6.524   0.970   2.922  0.5867  0.8622  0.2575
  554MOL0     C74712   6.505   0.875   2.818  0.3565  0.0907 -0.2980
  554MOL0     C74713   6.559   0.892   2.685 -0.8230  1.2188  0.7471
  554MOL0     O74714   6.556   0.795   2.586 -0.4735 -0.4542 -0.1596
  554MOL0     C74715   6.486   0.674   2.606  0.0422  0.2286 -0.6766
  554MOL0     C74716   6.540   0.571   2.505 -0.0562 -0.0725  1.4344
  554MOL0     C74717   6.453   0.436   2.537 -0.0261 -0.0532 -0.0037
  554MOL0     C74718   6.488   0.323   2.443 -0.4092 -0.3257 -0.9443
  554MOL0     C74719   6.448   0.179   2.468  0.9340 -1.2481 -0.1449
  554MOL0     C74720   6.406   0.072   2.500  0.1373 -0.4721 -0.1043
  554MOL0     C74721   6.631   1.008   2.664 -0.1386  0.4554  0.7122
  554MOL0     C74722   6.644   1.108   2.766  0.1794 -0.1911  0.1280
  554MOL0     H74723   6.474   1.492   3.017 -0.7501  2.1736  1.6693
  554MOL0     H74724   6.521   1.717   3.124  2.0061  1.8551 -0.6572
  554MOL0     H74725   6.943   1.824   3.256  1.5027  0.9563 -0.6366
  554MOL0     H74726   6.891   1.872   3.089  5.1511  1.0165  1.0618
  554MOL0     H74727   6.806   2.024   3.331  2.1341 -1.7340  0.5688
  554MOL0     H74728   6.930   2.066   3.209 -0.2747 -0.1113 -0.2974
  554MOL0     H74729   6.760   2.078   3.034 -0.2002  2.7973  0.1370
  554MOL0     H74730   6.643   2.007   3.149 -0.3898 -1.1067 -1.1125
  554MOL0     H74731   6.621   2.219   3.280 -2.0442 -1.5608 -0.6682
  554MOL0     H74732   6.781   2.282   3.215  0.5631 -0.1765  0.2185
  554MOL0     H74733   6.649   2.289   2.995  1.6146 -0.2512  1.5624
  554MOL0     H74734   6.515   2.210   3.084  0.3170 -1.1034 -0.6306
  554MOL0     H74735   6.474   2.385   3.220  2.5583 -1.9659  2.1938
  554MOL0     H74736   6.625   2.474   3.173  1.0732 -0.4139 -0.5272
  554MOL0     H74737   6.464   2.585   3.045 -0.1164  0.0647 -0.2872
  554MOL0     H74738   6.516   2.468   2.924 -2.6897  0.0957 -0.9470
  554MOL0     H74739   6.268   2.441   3.102 -1.5766 -2.2463 -0.8923
  554MOL0     H74740   6.337   2.307   3.028  1.0437  0.2579  2.2377
  554MOL0     H74741   6.094   2.564   2.973  1.3429 -0.5610  0.8902
  554MOL0     H74742   5.953   2.650   2.737 -1.1435 -0.6034 -1.7701
  554MOL0     H74743   5.959   2.514   2.618 -0.4872 -2.4016  0.2611
  554MOL0     H74744   5.838   2.466   2.890  0.1132 -0.7939 -0.4109
  554MOL0     H74745   5.823   2.372   2.742  3.1740  0.2657 -2.0952
  554MOL0     H74746   5.702   2.654   2.784 -0.5588 -0.0221  0.2125
  554MOL0     H74747   5.610   2.503   2.813 -1.7340 -1.3505 -3.0391
  554MOL0     H74748   5.752   2.558   2.546  0.3768  0.3393  0.9458
  554MOL0     H74749   5.590   2.622   2.585 -1.0315 -0.8107  0.3955
  554MOL0     H74750   5.447   2.511   2.386 -1.3735  0.0756 -0.9167
  554MOL0     H74751   5.151   2.446   2.306  0.8330 -1.0483  0.5728
  554MOL0     H74752   5.096   2.579   2.402 -0.7434 -0.4240  0.2030
  554MOL0     H74753   5.246   2.600   2.325 -0.3252 -0.3427 -0.1873
  554MOL0     H74754   4.780   2.400   2.528 -0.8963  1.1595 -0.1038
  554MOL0     H74755   4.555   2.395   2.598  0.9524 -2.1015  0.3904
  554MOL0     H74756   4.353   2.493   2.703 -1.0580  0.5367  0.3354
  554MOL0     H74757   4.309   2.334   2.774 -1.0635  0.9899  0.7922
  554MOL0     H74758   4.179   2.415   2.946 -1.0745 -0.2327  0.3376
  554MOL0     H74759   4.260   2.567   2.940 -0.2178  2.5368 -2.9157
  554MOL0     H74760   4.152   2.645   2.733 -0.7708  1.2011  1.2144
  554MOL0     H74761   4.037   2.606   2.855  0.9572 -0.4194  2.0819
  554MOL0     H74762   4.118   2.421   2.620  2.1192 -0.4435  2.4703
  554MOL0     H74763   3.985   2.388   2.722 -0.1096  0.0350  2.3875
  554MOL0     H74764   4.008   2.641   2.563 -0.1971  1.3625  1.4558
  554MOL0     H74765   3.881   2.611   2.678 -1.5371  2.2807 -2.1039
  554MOL0     H74766   3.944   2.428   2.438 -1.7889  0.8862 -2.4752
  554MOL0     H74767   3.825   2.395   2.567  1.7235 -2.0972 -0.8525
  554MOL0     H74768   3.852   2.633   2.372  4.1049 -1.7005  1.6182
  554MOL0     H74769   3.732   2.619   2.500 -1.2850  0.8262 -1.7370
  554MOL0     H74770   3.654   2.567   2.272  1.0497 -0.1109 -0.1090
  554MOL0     H74771   3.623   2.428   2.365 -0.5373 -0.5579 -0.6906
  554MOL0     H74772   4.683   2.527   3.001 -3.3783  1.3524 -0.4540
  554MOL0     H74773   4.906   2.562   2.912  0.8323 -0.5239  0.2832
  554MOL0     H74774   5.219   2.238   2.734 -1.3431 -1.1831 -2.4075
  554MOL0     H74775   5.459   2.269   2.760  3.1195 -2.2757 -1.7510
  554MOL0     H74776   6.942   1.606   3.142 -0.2916 -0.9121  2.4646
  554MOL0     H74777   6.886   1.384   3.045 -1.7441 -0.9087 -0.7911
  554MOL0     H74778   6.498   0.942   3.023 -1.2917  0.1358 -0.3882
  554MOL0     H74779   6.436   0.794   2.842 -0.1357 -0.2603 -2.6343
  554MOL0     H74780   6.511   0.631   2.703 -0.9183 -4.1194 -2.1308
  554MOL0     H74781   6.378   0.693   2.599 -0.6198 -0.8211  3.8828
  554MOL0     H74782   6.648   0.554   2.515  0.2412  0.7595 -0.0299
  554MOL0     H74783   6.534   0.608   2.402  0.9622  1.7978  1.9987
  554MOL0     H74784   6.348   0.467   2.527  0.0533  0.9456  1.8826
  554MOL0     H74785   6.474   0.402   2.639 -0.8798  3.2056  1.4127
  554MOL0     H74786   6.597   0.324   2.443 -0.3199  2.8483 -2.0237
  554MOL0     H74787   6.442   0.344   2.346 -1.5055  1.0147 -0.1852
  554MOL0     H74788   6.368  -0.021   2.538  0.7159  0.7497  3.9439
  554MOL0     H74789   6.692   1.006   2.575  1.5391  1.2093  1.8042
  554MOL0     H74790   6.701   1.194   2.731 -2.0786  0.7795 -1.3954
  555MOL0     O74791  11.402   1.019  10.788 -0.3674 -1.0844  0.1966
  555MOL0     C74792  11.484   0.990  10.875  0.5295 -0.7599 -0.5918
  555MOL0     O74793  11.510   0.860  10.913  0.0624  0.5357 -0.5568
  555MOL0     C74794  11.442   0.749  10.864 -0.2279 -0.3175 -0.3400
  555MOL0     C74795  11.401   0.736  10.730 -0.3127 -0.2489 -1.0002
  555MOL0     C74796  11.347   0.613  10.689  0.8915 -0.5840 -0.8058
  555MOL0     C74797  11.285   0.525  10.785 -0.0822  0.7713 -0.2584
  555MOL0     O74798  11.205   0.422  10.740  0.3388 -0.0488  0.0757
  555MOL0     C74799  11.123   0.341  10.836 -0.5182  0.3393  0.2196
  555MOL0     C74800  10.989   0.292  10.780  0.8268  0.3934 -0.6163
  555MOL0     C74801  11.015   0.175  10.685 -0.0988 -0.6440  1.4248
  555MOL0     C74802  10.891   0.089  10.654 -0.5761 -1.0224  0.5557
  555MOL0     C74803  10.924  -0.043  10.573  0.0570 -0.7344  0.1777
  555MOL0     C74804  10.895  -0.165  10.659  0.6438  0.7248 -0.3468
  555MOL0     C74805  10.895  -0.287  10.564  0.2486  0.4674  0.1898
  555MOL0     C74806  10.869  -0.420  10.622  0.5015 -0.1250  0.3126
  555MOL0     N74807  10.993  -0.468  10.706 -0.6985  0.2909 -0.0302
  555MOL0     C74808  11.007  -0.454  10.839  0.9852  0.5265 -0.2370
  555MOL0     C74809  11.105  -0.532  10.881  0.5013 -0.5406  0.0290
  555MOL0     C74810  11.143  -0.557  11.021  0.1536 -0.0603  0.4353
  555MOL0     C74811  11.178  -0.425  11.097 -0.3222  0.0938 -0.1437
  555MOL0     C74812  11.285  -0.348  11.012  0.0642 -0.7784  0.2200
  555MOL0     C74813  11.275  -0.198  11.030  0.5143  0.3592  0.0727
  555MOL0     O74814  11.150  -0.139  11.003  0.0630  0.1891  0.3546
  555MOL0     C74815  11.108  -0.023  11.066  0.4017  0.1703  0.1854
  555MOL0     C74816  11.195   0.050  11.146 -0.0383 -0.5627 -1.1522
  555MOL0     C74817  11.145   0.171  11.217  0.1478  1.1878  0.6384
  555MOL0     C74818  11.230   0.235  11.319 -0.5427  0.0533  0.3518
  555MOL0     C74819  11.015   0.216  11.182 -0.2786  0.3539  0.3828
  555MOL0     C74820  10.976   0.353  11.228 -0.4247  0.1622 -1.2260
  555MOL0     O74821  10.838   0.372  11.245  0.4870 -1.3562  0.3772
  555MOL0     C74822  10.799   0.499  11.296  0.1509 -0.4003  0.0603
  555MOL0     C74823  10.821   0.625  11.233 -0.1441 -0.6828  0.3413
  555MOL0     C74824  10.769   0.741  11.275 -0.3068 -0.5364  0.7891
  555MOL0     C74825  10.691   0.745  11.395  0.0557  0.1079  0.7592
  555MOL0     O74826  10.626   0.852  11.455 -0.1693  0.8005 -0.1142
  555MOL0     C74827  10.627   0.986  11.386  0.5693 -0.5491  0.3022
  555MOL0     C74828  10.577   1.106  11.476  0.5369 -0.8335 -0.8273
  555MOL0     C74829  10.425   1.107  11.498 -0.5832 -0.3594 -0.2157
  555MOL0     C74830  10.382   1.221  11.593 -0.0556  0.3517 -0.4972
  555MOL0     C74831  10.389   1.368  11.549  0.0400 -0.1326 -0.6507
  555MOL0     C74832  10.486   1.461  11.627  0.1161  0.2069 -0.6993
  555MOL0     C74833  10.429   1.500  11.762 -1.3058 -0.1030  1.1439
  555MOL0     C74834  10.291   1.573  11.767  0.1852 -0.4555 -0.3594
  555MOL0    Cl74835  10.257   1.588  11.942 -0.3196  0.1845 -0.5670
  555MOL0     C74836  10.660   0.617  11.446  0.0194 -0.4543 -0.6054
  555MOL0     C74837  10.711   0.498  11.402 -0.0289  0.3183  0.1597
  555MOL0     O74838  11.063   0.445  11.228  0.2287 -0.3508 -0.2196
  555MOL0     C74839  10.932   0.143  11.098 -0.4054 -0.1572  0.0946
  555MOL0     C74840  10.976   0.028  11.041 -0.2010  1.0985 -0.7727
  555MOL0     N74841  11.140  -0.604  10.769 -0.3052  0.1874  0.4897
  555MOL0     N74842  11.083  -0.559  10.662  0.1369  0.6700 -0.4136
  555MOL0     C74843  11.319   0.547  10.922 -0.8770  0.3546  0.4302
  555MOL0     C74844  11.410   0.649  10.956 -0.5399  0.2456  0.6391
  555MOL0     C74845  11.566   1.104  10.919 -0.2318  0.6076  1.0334
  555MOL0     C74846  11.698   1.097  10.967  0.1947  0.0512 -0.0947
  555MOL0     C74847  11.768   1.210  10.998  0.0525 -0.7862 -0.4191
  555MOL0     C74848  11.716   1.336  10.982 -0.4478 -0.0586  0.0836
  555MOL0     O74849  11.755   1.449  11.042  0.0317  0.3637 -0.1710
  555MOL0     C74850  11.890   1.448  11.088 -0.9635 -0.0357 -0.1666
  555MOL0     C74851  11.917   1.601  11.121 -0.0097 -0.6065  0.4377
  555MOL0     C74852  11.937   1.686  10.991  1.5088 -0.2951  0.0948
  555MOL0     C74853  11.947   1.832  11.020 -0.2823 -0.6927 -0.0397
  555MOL0     C74854  12.081   1.890  11.061 -0.0525 -0.0368  0.5967
  555MOL0     C74855  12.171   1.941  11.112 -0.8877 -0.7729  0.2919
  555MOL0     C74856  11.585   1.348  10.930 -0.2822  0.7634  0.1513
  555MOL0     C74857  11.514   1.233  10.900  0.4053 -0.0395  0.6405
  555MOL0     H74858  11.421   0.821  10.665 -3.1716  0.1902 -1.4397
  555MOL0     H74859  11.323   0.605  10.583 -0.8650  1.2308 -0.5996
  555MOL0     H74860  11.175   0.251  10.871 -0.6919  0.6699  1.3779
  555MOL0     H74861  11.100   0.407  10.921  2.8494  0.7646  0.9190
  555MOL0     H74862  10.925   0.243  10.855  2.7224 -5.5357 -2.2778
  555MOL0     H74863  10.938   0.379  10.737  3.4724  2.3034 -0.1147
  555MOL0     H74864  11.045   0.225  10.592  3.1283 -1.7846  1.7228
  555MOL0     H74865  11.098   0.112  10.719  1.9103  1.3726  0.5825
  555MOL0     H74866  10.833   0.068  10.745 -1.5256 -1.6359 -0.1674
  555MOL0     H74867  10.810   0.148  10.610  0.8215  0.5569  0.0130
  555MOL0     H74868  10.855  -0.031  10.489  0.1418 -0.9869  0.0709
  555MOL0     H74869  11.029  -0.051  10.542  0.7336 -2.2274  2.5982
  555MOL0     H74870  10.976  -0.171  10.732  0.5316  2.1712 -0.0638
  555MOL0     H74871  10.796  -0.148  10.704 -0.1580  0.9786 -2.1177
  555MOL0     H74872  10.813  -0.270  10.494 -1.3143 -0.8349  1.6205
  555MOL0     H74873  10.987  -0.295  10.507  1.3004  0.2070  1.8414
  555MOL0     H74874  10.845  -0.492  10.544  0.7409  2.3768 -2.2475
  555MOL0     H74875  10.781  -0.402  10.685 -0.0271  1.7868 -0.8781
  555MOL0     H74876  10.939  -0.389  10.893 -2.1424 -1.2787 -1.6537
  555MOL0     H74877  11.055  -0.598  11.071  0.8142  0.7573  2.3966
  555MOL0     H74878  11.232  -0.621  11.018  1.3252  1.4590  1.0500
  555MOL0     H74879  11.230  -0.450  11.190  4.9849  1.3564 -2.3918
  555MOL0     H74880  11.081  -0.378  11.117 -0.5185 -1.3746  2.8766
  555MOL0     H74881  11.267  -0.369  10.906  1.2547  2.0210 -0.6541
  555MOL0     H74882  11.387  -0.382  11.034 -0.3507 -1.4813  1.0985
  555MOL0     H74883  11.353  -0.151  10.971  4.6460 -0.8751  3.9421
  555MOL0     H74884  11.297  -0.188  11.137 -3.4572 -1.7797  1.3041
  555MOL0     H74885  11.298   0.021  11.167 -0.0787 -0.6995 -1.1395
  555MOL0     H74886  11.179   0.245  11.415 -0.4354 -2.0884  0.6738
  555MOL0     H74887  11.309   0.162  11.339 -2.5556 -2.1732  0.6270
  555MOL0     H74888  11.282   0.319  11.272  1.1934 -1.6488 -0.9572
  555MOL0     H74889  10.878   0.637  11.142 -1.7432  3.6530 -0.2951
  555MOL0     H74890  10.777   0.836  11.224  1.3776 -1.1251 -0.1128
  555MOL0     H74891  10.724   1.007  11.340  0.5226 -1.0908 -0.0626
  555MOL0     H74892  10.559   0.973  11.301  2.6143  1.1049 -1.7159
  555MOL0     H74893  10.626   1.106  11.574 -0.3236 -0.5941 -0.3906
  555MOL0     H74894  10.597   1.199  11.422 -1.8240  0.3647  0.2317
  555MOL0     H74895  10.394   1.016  11.549 -0.3683 -0.0176  0.5372
  555MOL0     H74896  10.390   1.117  11.395  3.3273 -1.7802 -1.8622
  555MOL0     H74897  10.281   1.197  11.628  0.4951  1.7274  2.3925
  555MOL0     H74898  10.456   1.213  11.673 -0.1327  1.9937 -0.2236
  555MOL0     H74899  10.286   1.403  11.565  0.5752  0.8328  0.9089
  555MOL0     H74900  10.409   1.372  11.442 -0.2476 -1.1883 -0.7520
  555MOL0     H74901  10.582   1.408  11.630  0.1985  0.2506 -2.1744
  555MOL0     H74902  10.518   1.551  11.576  3.5891 -0.5192 -0.0743
  555MOL0     H74903  10.506   1.547  11.823  2.2179 -1.9696 -1.4728
  555MOL0     H74904  10.407   1.400  11.799  0.5813 -1.2427 -0.6031
  555MOL0     H74905  10.209   1.523  11.715  1.9672 -2.3734 -1.5040
  555MOL0     H74906  10.315   1.665  11.712 -4.1815  1.1218  0.0434
  555MOL0     H74907  10.581   0.616  11.521  0.5118  1.9003  0.0123
  555MOL0     H74908  10.668   0.402  11.428 -1.0802  0.9467  0.7932
  555MOL0     H74909  10.840   0.193  11.068 -1.6636 -1.5324  1.5148
  555MOL0     H74910  10.913  -0.031  10.976 -0.1817  1.9536 -1.5905
  555MOL0     H74911  11.274   0.480  10.995 -1.7279  0.9264  0.4410
  555MOL0     H74912  11.429   0.669  11.061  2.5424 -0.8638  0.4156
  555MOL0     H74913  11.751   1.002  10.960  2.2423  1.2622 -3.6989
  555MOL0     H74914  11.871   1.194  11.028  0.5887 -1.1521 -2.3267
  555MOL0     H74915  11.902   1.387  11.177 -0.7204 -1.0246 -0.8567
  555MOL0     H74916  11.954   1.389  11.021 -0.2828 -2.0134  2.1059
  555MOL0     H74917  12.010   1.606  11.179  1.5479 -0.2391 -1.9551
  555MOL0     H74918  11.836   1.641  11.182 -0.7185  0.8312 -1.3378
  555MOL0     H74919  11.844   1.671  10.935  1.2227 -2.5064  1.0615
  555MOL0     H74920  12.020   1.654  10.926  2.9759  1.3415  1.0749
  555MOL0     H74921  11.875   1.857  11.098 -0.6515  1.7434 -1.0704
  555MOL0     H74922  11.920   1.887  10.929  2.6196 -2.2870 -2.0237
  555MOL0     H74923  12.227   1.998  11.183  0.1255  0.9144 -1.7479
  555MOL0     H74924  11.547   1.450  10.937  2.4810  1.8706  0.2048
  555MOL0     H74925  11.412   1.237  10.862  0.9282  0.4290 -0.7530
  556MOL0     O74926   8.151   0.642   3.115  0.2881  1.3065  0.5985
  556MOL0     C74927   8.090   0.753   3.106 -1.3606 -0.0947 -0.5146
  556MOL0     O74928   7.968   0.777   3.138  0.8028 -0.2945 -0.4526
  556MOL0     C74929   7.875   0.706   3.212 -0.3181 -0.5514  0.1960
  556MOL0     C74930   7.916   0.598   3.299 -0.4320  0.6107  0.2191
  556MOL0     C74931   7.833   0.576   3.407 -0.2934  0.6263 -0.5212
  556MOL0     C74932   7.705   0.623   3.415 -0.6882  0.8353 -1.1643
  556MOL0     O74933   7.606   0.586   3.511  0.5185 -1.1752 -0.2232
  556MOL0     C74934   7.651   0.504   3.610  0.1659 -0.0535  0.1307
  556MOL0     C74935   7.534   0.449   3.688  0.6788  0.2483  0.7640
  556MOL0     C74936   7.563   0.307   3.744 -0.5607 -0.3298  0.0732
  556MOL0     C74937   7.529   0.200   3.641  0.0319 -0.2094 -0.2311
  556MOL0     C74938   7.596   0.059   3.661  1.0320  0.9439  0.7618
  556MOL0     C74939   7.737   0.052   3.594 -1.2002  0.0635  0.0923
  556MOL0     C74940   7.836  -0.049   3.666  0.7265  0.0832 -0.2067
  556MOL0     C74941   7.973   0.005   3.658  0.5347  0.9275 -0.1221
  556MOL0     N74942   8.008   0.116   3.747 -0.0249 -0.3922 -0.2205
  556MOL0     C74943   8.144   0.157   3.767  1.2807 -0.0184 -0.3893
  556MOL0     C74944   8.125   0.232   3.882  0.3746  0.4064  0.2277
  556MOL0     C74945   8.233   0.297   3.961 -0.1563  0.4368  0.1579
  556MOL0     C74946   8.276   0.215   4.079 -0.7822 -1.1999 -0.7597
  556MOL0     C74947   8.390   0.293   4.158  0.0181 -0.6347 -0.2418
  556MOL0     C74948   8.433   0.193   4.258 -0.2087  1.0326  0.8468
  556MOL0     O74949   8.326   0.135   4.334 -0.0170 -0.8225 -0.4509
  556MOL0     C74950   8.310   0.200   4.458  0.1749  0.9335  1.1126
  556MOL0     C74951   8.346   0.330   4.495  0.5602 -1.0453  0.3336
  556MOL0     C74952   8.319   0.376   4.622  0.0508  0.3788  0.4167
  556MOL0     C74953   8.359   0.520   4.644  0.3336  0.4230 -0.1577
  556MOL0     C74954   8.266   0.284   4.718  0.8516 -0.9120  0.8061
  556MOL0     C74955   8.254   0.312   4.864  1.2488  0.5922  0.0332
  556MOL0     O74956   8.230   0.209   4.947 -0.1012 -0.0491  0.0567
  556MOL0     C74957   8.170   0.241   5.068  0.1328 -0.2755 -0.6174
  556MOL0     C74958   8.046   0.297   5.057  0.7920 -0.2098  0.2319
  556MOL0     C74959   7.975   0.338   5.174 -0.6460  0.0889  0.1649
  556MOL0     C74960   8.027   0.334   5.299 -0.4532  1.0628  0.5194
  556MOL0     O74961   7.950   0.390   5.404 -0.1909 -0.2137 -0.1584
  556MOL0     C74962   7.987   0.386   5.542  0.4264 -0.1233  0.7850
  556MOL0     C74963   7.858   0.412   5.615 -0.3803 -0.0075 -0.6940
  556MOL0     C74964   7.877   0.406   5.767  1.0375  0.7392  0.1547
  556MOL0     C74965   7.747   0.414   5.851 -0.0736  0.3593 -0.3227
  556MOL0     C74966   7.773   0.470   5.992 -0.4444  0.0352 -0.9550
  556MOL0     C74967   7.645   0.496   6.073  0.1064  0.9049  1.2727
  556MOL0     C74968   7.681   0.525   6.216 -0.3338  0.0398  0.1037
  556MOL0     C74969   7.558   0.554   6.296 -0.4715 -0.4458  0.3051
  556MOL0    Cl74970   7.436   0.411   6.307 -0.0182 -0.0874  0.4963
  556MOL0     C74971   8.154   0.280   5.305 -0.8020 -1.0142  0.2345
  556MOL0     C74972   8.226   0.231   5.191 -0.3741  0.5501  0.0225
  556MOL0     O74973   8.251   0.430   4.893 -0.4626 -0.2373 -0.0922
  556MOL0     C74974   8.239   0.151   4.686  0.5518 -0.2834  0.5116
  556MOL0     C74975   8.247   0.111   4.552  0.1474  0.0509  0.2635
  556MOL0     N74976   7.989   0.239   3.913  0.4941  0.5354 -0.2837
  556MOL0     N74977   7.916   0.166   3.837 -0.4101  0.0340  0.0061
  556MOL0     C74978   7.663   0.710   3.317  0.0686 -0.2937  0.0279
  556MOL0     C74979   7.753   0.753   3.215  0.4778 -1.2319  0.4323
  556MOL0     C74980   8.157   0.854   3.016 -0.1253  1.8206  0.0266
  556MOL0     C74981   8.290   0.831   2.979  0.6381 -1.0101 -0.1185
  556MOL0     C74982   8.355   0.927   2.897  1.1306 -0.0961 -0.1558
  556MOL0     C74983   8.297   1.053   2.873 -0.5815  0.6651 -0.6905
  556MOL0     O74984   8.382   1.140   2.806  1.0478  0.2241  0.0316
  556MOL0     C74985   8.327   1.257   2.733 -0.4844  0.1724 -0.0982
  556MOL0     C74986   8.354   1.398   2.794 -0.9189  0.7013 -0.1042
  556MOL0     C74987   8.319   1.516   2.709 -0.6881  0.0033 -0.1622
  556MOL0     C74988   8.369   1.654   2.759  0.4375  1.0262 -0.4738
  556MOL0     C74989   8.423   1.744   2.654 -0.1045 -0.2342 -0.0003
  556MOL0     C74990   8.480   1.811   2.570  0.3787  1.1679 -0.2306
  556MOL0     C74991   8.168   1.074   2.912  0.3320 -0.4982  0.2480
  556MOL0     C74992   8.095   0.972   2.975  0.2152 -0.1169 -0.3673
  556MOL0     H74993   8.013   0.552   3.286 -1.2333 -0.9122 -0.5790
  556MOL0     H74994   7.859   0.494   3.474 -0.9422  0.7419 -0.1194
  556MOL0     H74995   7.683   0.421   3.546  1.0831  2.7471 -3.4069
  556MOL0     H74996   7.728   0.547   3.675  0.2813 -2.5082  1.7526
  556MOL0     H74997   7.514   0.521   3.769  2.8263  0.8781  0.7854
  556MOL0     H74998   7.452   0.438   3.616 -0.2720  1.6898  1.5794
  556MOL0     H74999   7.670   0.318   3.762 -0.7791  0.9409  0.6544
  556MOL0     H75000   7.521   0.287   3.843 -0.4605  0.8689  0.3686
  556MOL0     H75001   7.421   0.184   3.648 -0.0455 -0.4936 -1.7595
  556MOL0     H75002   7.553   0.248   3.545  1.2973  1.9823  1.0743
  556MOL0     H75003   7.588   0.034   3.767 -3.6096 -2.4639 -0.0694
  556MOL0     H75004   7.538  -0.019   3.612  1.8993  0.4489  0.4988
  556MOL0     H75005   7.730   0.029   3.487  0.6524  1.2436 -0.3269
  556MOL0     H75006   7.780   0.151   3.614  1.2191 -0.5946 -1.5160
  556MOL0     H75007   7.808  -0.072   3.769  0.5711 -0.6496 -0.4005
  556MOL0     H75008   7.823  -0.146   3.616 -0.0785  0.6183 -1.0770
  556MOL0     H75009   8.002   0.036   3.558  2.2592 -0.4716 -0.0943
  556MOL0     H75010   8.036  -0.080   3.687 -2.6617 -0.9047  2.1354
  556MOL0     H75011   8.228   0.136   3.703  0.1154 -3.2467 -1.0234
  556MOL0     H75012   8.314   0.293   3.887  0.1706 -3.9680  0.4677
  556MOL0     H75013   8.214   0.403   3.979  1.4653  1.4222 -3.1750
  556MOL0     H75014   8.313   0.119   4.042  2.3351  0.5873 -2.6390
  556MOL0     H75015   8.182   0.194   4.132  0.3210 -4.1675  0.2011
  556MOL0     H75016   8.355   0.387   4.202  2.8003 -0.3471  1.6125
  556MOL0     H75017   8.483   0.306   4.101  0.1777 -1.2899 -0.1410
  556MOL0     H75018   8.510   0.244   4.317  0.6283 -1.2732  1.8838
  556MOL0     H75019   8.481   0.111   4.204  0.2624  1.3594  0.7660
  556MOL0     H75020   8.399   0.391   4.422 -2.1517 -0.5590 -1.3756
  556MOL0     H75021   8.423   0.519   4.733  0.4851  1.2332 -0.2494
  556MOL0     H75022   8.415   0.559   4.559 -1.3638  1.3891 -0.8878
  556MOL0     H75023   8.280   0.593   4.665 -2.3129 -2.6249  1.3658
  556MOL0     H75024   8.003   0.305   4.957  0.1266 -0.8343  0.4642
  556MOL0     H75025   7.874   0.378   5.174 -0.1973  1.4447  2.9126
  556MOL0     H75026   8.033   0.293   5.577  3.3560  1.6618  2.1343
  556MOL0     H75027   8.064   0.459   5.570  0.8484 -1.2942  2.8549
  556MOL0     H75028   7.803   0.506   5.600 -0.4199  0.0782 -0.0523
  556MOL0     H75029   7.794   0.328   5.586  0.5260 -0.5789 -1.0953
  556MOL0     H75030   7.941   0.491   5.793 -0.5053  1.7612  0.7914
  556MOL0     H75031   7.925   0.310   5.786 -1.8850 -1.4991 -2.6301
  556MOL0     H75032   7.685   0.483   5.792  0.2362  1.0507  0.1404
  556MOL0     H75033   7.694   0.319   5.862  1.8429 -0.4391  4.0886
  556MOL0     H75034   7.833   0.561   5.986  2.9172 -1.9358 -0.0360
  556MOL0     H75035   7.837   0.402   6.049 -0.4713  0.1648 -0.7726
  556MOL0     H75036   7.593   0.578   6.022 -0.2685 -0.4494 -0.6228
  556MOL0     H75037   7.589   0.402   6.073  2.2592 -0.6389  5.2508
  556MOL0     H75038   7.747   0.612   6.225 -4.6260  3.8805 -1.5937
  556MOL0     H75039   7.739   0.439   6.251 -1.8942 -0.2622  2.1889
  556MOL0     H75040   7.528   0.650   6.253 -0.9974 -0.9485 -0.4837
  556MOL0     H75041   7.588   0.571   6.399 -1.8393 -1.7234  0.9458
  556MOL0     H75042   8.217   0.279   5.394  0.1919 -1.6300 -0.4502
  556MOL0     H75043   8.332   0.216   5.209 -0.0870  0.3650 -1.6854
  556MOL0     H75044   8.199   0.080   4.757 -1.1735  0.6930  0.5714
  556MOL0     H75045   8.196   0.022   4.518  1.5224  0.4624 -3.2347
  556MOL0     H75046   7.562   0.746   3.330 -0.7412 -1.2703 -2.7307
  556MOL0     H75047   7.714   0.823   3.141  3.6796  0.0632 -0.1954
  556MOL0     H75048   8.351   0.744   3.002  1.4559 -0.6099 -0.7222
  556MOL0     H75049   8.459   0.911   2.869  0.5059 -2.6928 -1.3472
  556MOL0     H75050   8.386   1.251   2.641 -2.3987 -2.5801 -1.3008
  556MOL0     H75051   8.223   1.246   2.702 -1.1260  1.9162  1.3121
  556MOL0     H75052   8.460   1.397   2.820 -0.7465 -1.7278 -0.7340
  556MOL0     H75053   8.303   1.415   2.889  0.5172  1.0211  0.6466
  556MOL0     H75054   8.213   1.513   2.683  0.2606 -0.1891 -4.9365
  556MOL0     H75055   8.367   1.509   2.611 -0.7560  0.4780 -0.2326
  556MOL0     H75056   8.456   1.641   2.824 -0.3190  1.8574  0.7657
  556MOL0     H75057   8.293   1.710   2.814 -0.4829  0.0626 -0.7362
  556MOL0     H75058   8.532   1.877   2.504  1.9249  0.5757  0.3404
  556MOL0     H75059   8.118   1.169   2.894  2.0175  0.4840  0.5479
  556MOL0     H75060   7.990   0.990   2.993 -0.7944 -3.9127 -1.4737
  557MOL0     O75061   9.841   8.701   6.568 -0.5275  1.1441 -0.2922
  557MOL0     C75062   9.852   8.577   6.545 -0.4936  0.1135 -0.3619
  557MOL0     O75063   9.800   8.473   6.617  0.5337  0.5524 -0.3458
  557MOL0     C75064   9.707   8.499   6.716  0.2801  0.6913  0.3962
  557MOL0     C75065   9.603   8.595   6.712  0.0929 -0.6491  0.3695
  557MOL0     C75066   9.518   8.613   6.819 -1.9284 -0.6435 -0.8954
  557MOL0     C75067   9.520   8.536   6.929 -0.1337  0.3458 -0.1606
  557MOL0     O75068   9.424   8.569   7.020 -0.0078  0.5829  0.1119
  557MOL0     C75069   9.389   8.459   7.109 -1.0305  0.2918  0.2587
  557MOL0     C75070   9.257   8.494   7.169 -0.5432 -1.3078 -0.8466
  557MOL0     C75071   9.183   8.371   7.219 -0.1823 -0.7704 -0.0975
  557MOL0     C75072   9.056   8.428   7.286  0.4248  0.3709  0.2627
  557MOL0     C75073   8.966   8.313   7.328 -0.6175 -0.0418 -0.3390
  557MOL0     C75074   9.046   8.191   7.391 -0.1641  0.4544 -0.6124
  557MOL0     C75075   8.940   8.086   7.441  0.3461  0.4671  0.3813
  557MOL0     C75076   8.890   7.987   7.343  0.1281  0.7328  0.4668
  557MOL0     N75077   8.998   7.942   7.254  0.0266 -0.0700  0.0793
  557MOL0     C75078   9.023   7.999   7.128  0.7177  0.1093 -0.2101
  557MOL0     C75079   9.139   7.952   7.081 -0.4991 -0.7725  0.0499
  557MOL0     C75080   9.183   7.973   6.935 -0.8824 -0.5859 -0.4001
  557MOL0     C75081   9.222   8.116   6.909 -0.3206 -1.1950 -0.9641
  557MOL0     C75082   9.097   8.204   6.866  0.0500  0.0254 -0.0775
  557MOL0     C75083   9.153   8.323   6.788  0.4608 -0.6800  0.0826
  557MOL0     O75084   9.188   8.279   6.662 -0.1855 -0.1122  0.5143
  557MOL0     C75085   9.222   8.381   6.592  0.3685  1.2309 -0.4324
  557MOL0     C75086   9.134   8.471   6.538  1.0429  1.3987 -0.0401
  557MOL0     C75087   9.176   8.552   6.436  0.2972 -0.4552  0.0243
  557MOL0     C75088   9.065   8.637   6.393  0.1131 -0.2822 -0.0316
  557MOL0     C75089   9.309   8.548   6.379 -0.2438 -0.2479  0.1139
  557MOL0     C75090   9.355   8.637   6.262  0.3614 -0.5437 -1.4991
  557MOL0     O75091   9.482   8.611   6.224 -0.0895 -0.1066  0.6285
  557MOL0     C75092   9.545   8.718   6.175  0.3296 -0.3893  0.3222
  557MOL0     C75093   9.609   8.791   6.277 -0.4130  0.1408  0.3188
  557MOL0     C75094   9.683   8.905   6.251 -0.8344 -0.0958  0.5904
  557MOL0     C75095   9.700   8.948   6.118 -0.5751  0.0813  0.0709
  557MOL0     O75096   9.772   9.065   6.090  0.0046  0.5626 -0.0053
  557MOL0     C75097   9.907   9.010   6.073 -0.1321  0.0073 -0.1149
  557MOL0     C75098  10.008   9.125   6.049 -0.0509 -0.7629  1.0602
  557MOL0     C75099  10.164   9.092   6.052 -0.1153  0.5229 -0.9911
  557MOL0     C75100  10.217   8.999   6.163  0.0022 -0.7993  0.5411
  557MOL0     C75101  10.213   9.066   6.300 -0.1529 -0.3087 -0.1869
  557MOL0     C75102  10.272   8.956   6.404  0.3288 -0.8862  0.1430
  557MOL0     C75103  10.413   8.899   6.372 -0.8001 -0.7387  0.1489
  557MOL0     C75104  10.521   9.002   6.370  0.3826  0.4615  0.2899
  557MOL0    Cl75105  10.678   8.925   6.343  0.5153  0.1381  0.0775
  557MOL0     C75106   9.640   8.871   6.016 -0.8105 -0.4601  0.4226
  557MOL0     C75107   9.564   8.757   6.037  0.7210 -0.0501  0.0780
  557MOL0     O75108   9.285   8.722   6.208  0.5025  0.7166  0.2533
  557MOL0     C75109   9.395   8.451   6.438  0.3038  0.6132 -0.9638
  557MOL0     C75110   9.344   8.375   6.548 -0.7210 -0.7902  0.7746
  557MOL0     N75111   9.194   7.868   7.178  0.6819 -0.9667  0.4945
  557MOL0     N75112   9.105   7.867   7.288  0.3774 -0.5093  0.2874
  557MOL0     C75113   9.617   8.446   6.943  0.2974  0.0235  0.6142
  557MOL0     C75114   9.715   8.429   6.833  0.0511  0.0094  0.3922
  557MOL0     C75115   9.918   8.546   6.425 -0.3794  0.0950 -0.2395
  557MOL0     C75116   9.977   8.422   6.386  0.0009  0.4457  1.5697
  557MOL0     C75117  10.020   8.394   6.260 -0.2515 -0.3836 -1.5273
  557MOL0     C75118  10.021   8.492   6.165 -0.1379  0.1584 -0.1576
  557MOL0     O75119  10.067   8.460   6.039  0.2935 -0.1373  0.2097
  557MOL0     C75120  10.128   8.565   5.965 -0.2097  0.0160  0.0064
  557MOL0     C75121  10.233   8.505   5.872 -1.2658  0.1672 -0.3011
  557MOL0     C75122  10.330   8.405   5.957  0.1664 -0.6371  0.0180
  557MOL0     C75123  10.402   8.289   5.874  0.3605  0.4774 -0.7515
  557MOL0     C75124  10.522   8.347   5.817 -0.1342 -0.4355  0.1639
  557MOL0     C75125  10.631   8.376   5.781 -0.2173 -0.5453 -0.3074
  557MOL0     C75126   9.966   8.617   6.190  0.0013 -0.3508  0.4283
  557MOL0     C75127   9.923   8.642   6.320 -0.1945 -0.2231 -0.6790
  557MOL0     H75128   9.602   8.655   6.622  3.4213 -0.8707  0.0696
  557MOL0     H75129   9.442   8.691   6.816 -2.6380 -1.2022  1.0389
  557MOL0     H75130   9.388   8.359   7.064  3.1248  0.0590  0.3301
  557MOL0     H75131   9.468   8.448   7.184  0.6071 -1.8250 -1.6289
  557MOL0     H75132   9.273   8.570   7.246  2.0047 -1.8991 -0.6987
  557MOL0     H75133   9.194   8.541   7.093 -1.0089 -2.0223 -0.9153
  557MOL0     H75134   9.148   8.313   7.133  1.1924  1.3144 -2.1896
  557MOL0     H75135   9.257   8.327   7.286 -0.4116  0.4443  0.9936
  557MOL0     H75136   9.093   8.488   7.370  2.5911 -1.6999  0.8941
  557MOL0     H75137   9.009   8.489   7.208 -1.0107 -0.2953  0.5706
  557MOL0     H75138   8.891   8.357   7.394 -1.1575 -0.0062 -0.9672
  557MOL0     H75139   8.922   8.270   7.237  1.1527  0.6268 -1.5881
  557MOL0     H75140   9.115   8.147   7.318  0.0363 -0.9097  0.3631
  557MOL0     H75141   9.111   8.226   7.472 -1.7698  1.0235  0.4921
  557MOL0     H75142   8.993   8.026   7.515 -1.5092  0.8320  2.1051
  557MOL0     H75143   8.859   8.139   7.493  0.0406 -0.5896  1.0094
  557MOL0     H75144   8.808   8.027   7.283  1.2149 -1.8731 -3.1356
  557MOL0     H75145   8.844   7.895   7.382  1.7272 -1.6151 -2.6720
  557MOL0     H75146   8.950   8.062   7.078 -0.6581 -0.5279  0.9272
  557MOL0     H75147   9.273   7.913   6.922 -0.3017 -0.7032  3.2855
  557MOL0     H75148   9.102   7.951   6.865 -1.4709  3.0993 -1.0948
  557MOL0     H75149   9.298   8.121   6.829  0.4023 -0.4787 -0.2472
  557MOL0     H75150   9.269   8.147   7.003 -2.6208 -2.4992  0.7097
  557MOL0     H75151   9.032   8.240   6.947  0.9904  2.2605 -0.2439
  557MOL0     H75152   9.035   8.147   6.797 -0.3550  0.8232 -0.3888
  557MOL0     H75153   9.245   8.360   6.833  2.0865 -1.3014 -2.5569
  557MOL0     H75154   9.076   8.400   6.798  1.9875  0.7515  1.3688
  557MOL0     H75155   9.032   8.472   6.574  1.1630  3.1916  0.3310
  557MOL0     H75156   8.997   8.682   6.466  1.8451  1.4633  0.6135
  557MOL0     H75157   9.094   8.724   6.333  1.6050  0.2543  1.4087
  557MOL0     H75158   9.009   8.583   6.317  0.7249  1.0487 -1.4985
  557MOL0     H75159   9.600   8.761   6.381 -3.3645 -1.7516 -0.3562
  557MOL0     H75160   9.714   8.960   6.340 -4.5329  1.0583  1.3167
  557MOL0     H75161   9.931   8.945   6.158 -1.3172 -0.7732 -0.3594
  557MOL0     H75162   9.915   8.948   5.984 -1.2056  2.7989 -2.3205
  557MOL0     H75163   9.985   9.161   5.948  2.6251  0.1147  0.6775
  557MOL0     H75164   9.986   9.199   6.127  1.5473  1.2776 -0.3346
  557MOL0     H75165  10.223   9.185   6.053 -0.3801  0.6981  0.0279
  557MOL0     H75166  10.194   9.036   5.964  1.1288 -1.0336  0.3539
  557MOL0     H75167  10.151   8.912   6.162 -1.2942  0.1478 -0.0995
  557MOL0     H75168  10.318   8.965   6.139  0.9210  1.6077  0.6525
  557MOL0     H75169  10.114   9.104   6.326  1.4463  2.0837  3.2538
  557MOL0     H75170  10.285   9.149   6.294  0.5962 -0.9787 -0.6927
  557MOL0     H75171  10.284   9.012   6.497 -4.0866  3.6921 -1.5784
  557MOL0     H75172  10.205   8.872   6.418 -2.7110  1.0823 -1.4343
  557MOL0     H75173  10.402   8.829   6.289  0.5739 -0.3562 -0.3919
  557MOL0     H75174  10.437   8.841   6.461  3.5967 -2.1578 -1.6987
  557MOL0     H75175  10.512   9.057   6.464 -0.4198 -1.7009  1.5639
  557MOL0     H75176  10.494   9.076   6.295 -0.5844  1.3351  1.4531
  557MOL0     H75177   9.675   8.911   5.921 -0.0766  3.5902  2.1911
  557MOL0     H75178   9.522   8.687   5.965 -0.3653 -1.7004  2.2127
  557MOL0     H75179   9.499   8.439   6.410 -0.3291 -0.2826 -3.0896
  557MOL0     H75180   9.410   8.310   6.606  3.5100  1.8445 -0.6342
  557MOL0     H75181   9.640   8.383   7.028  1.0477 -0.5113  0.0415
  557MOL0     H75182   9.804   8.369   6.847 -0.3785 -1.4948 -2.4560
  557MOL0     H75183   9.979   8.339   6.456  2.1878 -0.3211  0.6774
  557MOL0     H75184  10.057   8.293   6.246  1.3456 -0.3777  1.6145
  557MOL0     H75185  10.049   8.603   5.900  2.5907  1.8577 -2.5879
  557MOL0     H75186  10.160   8.647   6.031 -0.7457 -1.4029  2.1554
  557MOL0     H75187  10.304   8.578   5.833 -1.3990  0.0702 -0.7292
  557MOL0     H75188  10.195   8.467   5.777  0.5922 -0.1008 -0.9675
  557MOL0     H75189  10.272   8.351   6.033 -0.5780 -0.1182 -0.1614
  557MOL0     H75190  10.409   8.464   6.004  1.6106 -2.4352 -0.0455
  557MOL0     H75191  10.337   8.251   5.795  0.8720 -2.6805  0.2312
  557MOL0     H75192  10.424   8.204   5.938 -2.0248  1.5456  1.6852
  557MOL0     H75193  10.726   8.398   5.738 -1.9410  3.7052 -2.5492
  557MOL0     H75194   9.973   8.696   6.117 -2.1954 -1.6833 -1.3725
  557MOL0     H75195   9.883   8.741   6.342 -0.1877 -0.1731 -0.8832
  558MOL0     O75196   8.257   5.300  10.389  0.5436 -0.2127  0.2424
  558MOL0     C75197   8.178   5.231  10.445  0.3685  0.2543  0.4819
  558MOL0     O75198   8.071   5.183  10.378  0.5307 -0.5995  0.0896
  558MOL0     C75199   8.030   5.252  10.263  1.2626  0.0220 -0.1467
  558MOL0     C75200   8.096   5.235  10.145  0.4876 -0.1827 -0.1426
  558MOL0     C75201   8.051   5.282  10.029  0.2932  0.6056  0.7812
  558MOL0     C75202   7.945   5.365  10.022  0.4718 -0.1000 -1.0954
  558MOL0     O75203   7.905   5.425   9.905  0.3267 -0.1278  0.4253
  558MOL0     C75204   7.938   5.556   9.884 -0.6236  0.2195 -0.0995
  558MOL0     C75205   8.045   5.566   9.772 -0.1050  0.7707  0.5637
  558MOL0     C75206   8.006   5.473   9.652  0.1357  0.2232 -1.0004
  558MOL0     C75207   8.101   5.481   9.534  0.3664 -0.4433 -0.4637
  558MOL0     C75208   8.037   5.404   9.419 -0.6831  1.2815 -0.4571
  558MOL0     C75209   8.015   5.255   9.452  0.1060  0.4310 -1.3240
  558MOL0     C75210   7.963   5.173   9.326  0.0699  0.5156 -0.0254
  558MOL0     C75211   7.874   5.045   9.355 -0.4453 -0.2326  0.6585
  558MOL0     N75212   7.922   4.955   9.259  0.8339 -0.9098 -0.0984
  558MOL0     C75213   8.002   4.848   9.276 -0.1154 -0.4809  0.6357
  558MOL0     C75214   8.033   4.811   9.147 -0.5699  0.3821 -0.4365
  558MOL0     C75215   8.113   4.692   9.110  0.4780  0.5362  0.2488
  558MOL0     C75216   8.053   4.565   9.157  0.3793 -0.6502 -0.2789
  558MOL0     C75217   7.923   4.526   9.080  1.3924  1.0089  0.2948
  558MOL0     C75218   7.828   4.428   9.158  0.1656 -1.1986  0.9331
  558MOL0     O75219   7.797   4.482   9.285 -0.6944  0.6507  0.1623
  558MOL0     C75220   7.714   4.591   9.300 -0.4654 -1.2218 -0.3913
  558MOL0     C75221   7.681   4.639   9.430 -0.3066 -0.2704  0.1806
  558MOL0     C75222   7.606   4.750   9.455  0.3202 -0.0360 -1.0935
  558MOL0     C75223   7.610   4.808   9.599 -0.1505  0.4280 -0.0970
  558MOL0     C75224   7.533   4.801   9.346  0.2464 -0.1871 -0.0737
  558MOL0     C75225   7.438   4.913   9.376 -0.1220  0.3175  0.6084
  558MOL0     O75226   7.299   4.900   9.371 -0.7668 -0.2301  0.4304
  558MOL0     C75227   7.219   5.007   9.413  0.5255  1.1654 -0.0684
  558MOL0     C75228   7.111   4.968   9.504 -0.2893 -0.8247  1.1755
  558MOL0     C75229   7.024   5.068   9.554 -0.1244 -0.2823  0.1102
  558MOL0     C75230   7.035   5.207   9.513 -0.4543  0.3022 -0.6857
  558MOL0     O75231   6.939   5.288   9.565 -0.2065  0.1185  1.0042
  558MOL0     C75232   6.926   5.419   9.509  0.3557 -0.0332 -0.8241
  558MOL0     C75233   6.797   5.464   9.571  0.3684 -1.0665 -0.6247
  558MOL0     C75234   6.738   5.583   9.489 -0.2246 -0.3257  0.3332
  558MOL0     C75235   6.588   5.598   9.524  0.4919  0.0994 -0.3728
  558MOL0     C75236   6.534   5.721   9.458 -0.4486 -0.5044 -0.2303
  558MOL0     C75237   6.539   5.846   9.537 -0.3916 -0.2165  0.3386
  558MOL0     C75238   6.434   5.841   9.650  0.8222  0.1406 -0.3930
  558MOL0     C75239   6.391   5.984   9.678  0.1780 -0.6726  0.3156
  558MOL0    Cl75240   6.273   6.025   9.549 -0.5626 -0.3447 -0.3096
  558MOL0     C75241   7.130   5.235   9.423  0.8193 -0.7487  0.2118
  558MOL0     C75242   7.224   5.146   9.373 -0.0807  0.8104 -0.7237
  558MOL0     O75243   7.498   5.019   9.385 -0.1956  0.5509 -1.3701
  558MOL0     C75244   7.550   4.756   9.218  0.1005  0.6327  0.9359
  558MOL0     C75245   7.650   4.660   9.197  0.9264 -0.2675 -0.4747
  558MOL0     N75246   7.978   4.897   9.055  0.7362  0.7578  0.0559
  558MOL0     N75247   7.900   4.978   9.122 -0.8673  0.2190  0.5310
  558MOL0     C75248   7.884   5.393  10.142 -0.5327 -0.2791  1.0510
  558MOL0     C75249   7.919   5.337  10.261 -0.8974  0.4889 -0.5273
  558MOL0     C75250   8.211   5.189  10.579  0.1085  0.4619 -0.4947
  558MOL0     C75251   8.148   5.081  10.645  0.0563 -0.0531  0.1281
  558MOL0     C75252   8.179   5.050  10.771 -0.2582  0.0964 -0.1366
  558MOL0     C75253   8.271   5.118  10.842  0.6835 -0.5199  1.0194
  558MOL0     O75254   8.310   5.069  10.965  0.0063 -0.6020 -0.0197
  558MOL0     C75255   8.438   5.018  10.990 -0.1864 -0.5505 -0.3551
  558MOL0     C75256   8.469   4.903  10.892 -1.1863 -1.0298 -0.2878
  558MOL0     C75257   8.599   4.835  10.922  0.2303 -0.4041 -0.5781
  558MOL0     C75258   8.623   4.721  10.835  0.5902 -0.0324  0.2944
  558MOL0     C75259   8.747   4.653  10.874 -0.1532 -0.0648  0.0332
  558MOL0     C75260   8.838   4.598  10.931 -0.6060 -0.2581  0.1006
  558MOL0     C75261   8.332   5.230  10.780  0.5899 -0.1744  0.2498
  558MOL0     C75262   8.306   5.267  10.647  1.5253  0.1037 -1.0634
  558MOL0     H75263   8.186   5.175  10.154  0.1908 -0.2850  3.2264
  558MOL0     H75264   8.085   5.239   9.935 -0.4167 -0.3542  0.9485
  558MOL0     H75265   7.851   5.612   9.848 -0.9317  1.0137  1.7475
  558MOL0     H75266   7.973   5.602   9.977 -0.8761 -0.1233  0.1673
  558MOL0     H75267   8.036   5.670   9.741  1.4442  0.6861 -0.2081
  558MOL0     H75268   8.145   5.537   9.805 -0.2938  0.1060  0.5775
  558MOL0     H75269   8.013   5.368   9.683 -1.7456  0.0574 -1.0234
  558MOL0     H75270   7.900   5.490   9.628 -0.7995 -2.8680  0.4101
  558MOL0     H75271   8.118   5.586   9.509  0.5906 -0.4500 -0.3455
  558MOL0     H75272   8.199   5.443   9.566  0.8240  1.0131 -0.0393
  558MOL0     H75273   7.941   5.455   9.408  0.8906  4.7440  0.4616
  558MOL0     H75274   8.101   5.404   9.330 -1.6205 -2.9703 -1.3491
  558MOL0     H75275   8.114   5.224   9.486  0.2672  2.5709  0.3235
  558MOL0     H75276   7.932   5.250   9.523  3.3629 -1.8870  2.7025
  558MOL0     H75277   7.914   5.249   9.265 -1.0821  1.0096  1.4700
  558MOL0     H75278   8.045   5.140   9.261 -1.1422 -0.6775 -0.9921
  558MOL0     H75279   7.771   5.077   9.339  0.6809  2.0632 -3.2452
  558MOL0     H75280   7.898   4.999   9.451 -1.5070  0.4457  1.2708
  558MOL0     H75281   8.035   4.806   9.370  0.2223  1.8481  1.6434
  558MOL0     H75282   8.132   4.705   9.003 -1.3004  1.3398 -0.0050
  558MOL0     H75283   8.190   4.701   9.186 -1.9192  2.1900  2.6376
  558MOL0     H75284   8.035   4.562   9.265 -0.2029 -1.0966 -0.3813
  558MOL0     H75285   8.125   4.485   9.139 -0.5831 -2.0882  1.8206
  558MOL0     H75286   7.959   4.479   8.988 -0.3638 -2.6684  1.3289
  558MOL0     H75287   7.861   4.612   9.051 -0.2872 -0.5916 -1.1122
  558MOL0     H75288   7.883   4.334   9.171  2.2482 -0.2574 -0.5445
  558MOL0     H75289   7.742   4.421   9.091  0.2448 -1.0735  0.8196
  558MOL0     H75290   7.725   4.576   9.506 -0.5654 -0.8554 -0.1479
  558MOL0     H75291   7.662   4.737   9.664  0.5743  0.8058 -0.2598
  558MOL0     H75292   7.675   4.896   9.594  3.9612 -2.3561 -0.4397
  558MOL0     H75293   7.512   4.838   9.638 -2.5561 -0.4329 -4.7800
  558MOL0     H75294   7.107   4.860   9.516  0.6106 -0.9183  0.7493
  558MOL0     H75295   6.946   5.058   9.629 -0.3240  0.4035  0.0003
  558MOL0     H75296   7.014   5.481   9.524  1.1972 -0.8599 -2.1718
  558MOL0     H75297   6.900   5.410   9.403  1.8399 -3.2515 -1.0175
  558MOL0     H75298   6.726   5.382   9.558 -2.3349  1.0884 -0.4688
  558MOL0     H75299   6.791   5.479   9.679 -0.5889 -0.9957 -0.6733
  558MOL0     H75300   6.737   5.562   9.382 -3.8763  1.2719 -0.0973
  558MOL0     H75301   6.800   5.670   9.511 -3.6660  1.9074  2.1521
  558MOL0     H75302   6.550   5.507   9.478  3.9293 -1.9835  0.5264
  558MOL0     H75303   6.569   5.606   9.632  2.4605 -0.6564  0.0614
  558MOL0     H75304   6.430   5.707   9.430  0.2172 -0.4493 -3.0565
  558MOL0     H75305   6.582   5.748   9.363  0.3443  1.5588  0.7131
  558MOL0     H75306   6.641   5.874   9.565  0.3701 -0.5055 -1.9423
  558MOL0     H75307   6.504   5.921   9.466  0.1756 -0.5971 -0.3542
  558MOL0     H75308   6.470   5.790   9.740 -1.1611 -2.6691 -1.0513
  558MOL0     H75309   6.345   5.785   9.618  1.1969  0.4146 -1.9927
  558MOL0     H75310   6.472   6.057   9.677 -0.3335 -0.0477 -2.5378
  558MOL0     H75311   6.343   6.007   9.773  1.7353  0.9527  0.7654
  558MOL0     H75312   7.129   5.335   9.381  1.4803 -0.7139  0.2644
  558MOL0     H75313   7.294   5.179   9.298  2.1385 -2.2373 -0.1788
  558MOL0     H75314   7.473   4.786   9.148 -1.6015 -1.9436  1.5843
  558MOL0     H75315   7.669   4.625   9.096 -2.2828  0.6400 -1.5289
  558MOL0     H75316   7.805   5.465  10.123  0.3125  0.0097 -1.7954
  558MOL0     H75317   7.868   5.366  10.352 -2.8812  3.0193 -2.3078
  558MOL0     H75318   8.079   5.018  10.590 -1.1839 -0.5854  2.2051
  558MOL0     H75319   8.139   4.967  10.828  3.5392 -1.4641  0.5862
  558MOL0     H75320   8.516   5.094  10.994  0.3624 -1.1316  3.4110
  558MOL0     H75321   8.434   4.970  11.088  0.1485 -1.8390 -0.9539
  558MOL0     H75322   8.480   4.952  10.796 -3.2058 -1.5701 -0.8606
  558MOL0     H75323   8.396   4.821  10.899 -0.0417 -1.9918  1.2813
  558MOL0     H75324   8.598   4.806  11.028  0.2481  0.3181 -0.3711
  558MOL0     H75325   8.678   4.911  10.917  0.9213 -1.1619 -1.6790
  558MOL0     H75326   8.635   4.741  10.728  1.3422 -4.0676 -0.5217
  558MOL0     H75327   8.539   4.652  10.842 -0.5941  1.3090 -0.2738
  558MOL0     H75328   8.917   4.543  10.978 -0.1880 -1.4182 -1.8463
  558MOL0     H75329   8.390   5.294  10.846  0.0503 -0.0562  0.6132
  558MOL0     H75330   8.360   5.345  10.594  1.8735 -1.1887 -2.7117
  559MOL0     O75331  10.073  10.848   1.470 -0.1037 -0.3303  0.3376
  559MOL0     C75332  10.068  10.899   1.354 -1.0558 -0.9499 -1.0096
  559MOL0     O75333  10.166  10.893   1.259 -0.0190  0.1725 -0.2404
  559MOL0     C75334  10.294  10.851   1.300 -0.3849 -0.3630  0.3614
  559MOL0     C75335  10.402  10.942   1.301  0.0480  0.5298 -0.7991
  559MOL0     C75336  10.523  10.887   1.334 -0.1029 -0.1637  0.0959
  559MOL0     C75337  10.544  10.754   1.382 -0.3041  0.2307 -0.4550
  559MOL0     O75338  10.672  10.707   1.397 -0.0733 -0.0132 -0.5501
  559MOL0     C75339  10.698  10.580   1.458 -0.8004 -0.9356 -0.1764
  559MOL0     C75340  10.675  10.590   1.608 -0.4101  0.6405  0.2948
  559MOL0     C75341  10.673  10.447   1.673 -0.3922  0.9576 -0.7936
  559MOL0     C75342  10.635  10.462   1.821  0.2497  0.0082 -0.1071
  559MOL0     C75343  10.590  10.323   1.865 -0.5945  0.7155  0.0005
  559MOL0     C75344  10.568  10.299   2.020 -0.7675 -0.2315  0.0550
  559MOL0     C75345  10.688  10.229   2.101  0.4200  0.5611  0.7396
  559MOL0     C75346  10.667  10.232   2.254 -0.1331  0.4344  0.3018
  559MOL0     N75347  10.778  10.152   2.308  0.5262 -0.9923 -0.3184
  559MOL0     C75348  10.892  10.213   2.352 -0.4947 -0.2869 -0.5505
  559MOL0     C75349  10.963  10.120   2.429 -0.1617  0.0198 -0.1139
  559MOL0     C75350  11.082  10.152   2.519  0.4158  0.2542  0.4612
  559MOL0     C75351  11.211  10.068   2.473  0.6245 -0.5933  0.0334
  559MOL0     C75352  11.338  10.139   2.533  0.7863 -0.4184  0.1656
  559MOL0     C75353  11.329  10.132   2.683  0.7373  0.7459  0.1995
  559MOL0     O75354  11.449  10.196   2.726  0.2102  0.2307  0.4774
  559MOL0     C75355  11.438  10.241   2.859  0.3689 -0.0856  0.9820
  559MOL0     C75356  11.516  10.348   2.905 -0.2850  1.2265 -0.4019
  559MOL0     C75357  11.510  10.391   3.041 -0.8156  0.5171  0.6872
  559MOL0     C75358  11.613  10.497   3.067 -0.5101  0.4714  0.1930
  559MOL0     C75359  11.403  10.350   3.125 -0.6570 -0.4632  0.4454
  559MOL0     C75360  11.378  10.424   3.257  0.2236  0.4168 -1.1530
  559MOL0     O75361  11.254  10.400   3.317 -0.2595  0.2398  0.1027
  559MOL0     C75362  11.225  10.453   3.439  0.3775  0.4462 -1.0014
  559MOL0     C75363  11.308  10.426   3.552  0.2746  0.1531 -0.1629
  559MOL0     C75364  11.279  10.456   3.685 -0.1764  0.4490 -0.0300
  559MOL0     C75365  11.151  10.508   3.704  1.0405 -0.5498  0.0474
  559MOL0     O75366  11.113  10.538   3.833 -0.6087 -0.1142  0.0046
  559MOL0     C75367  11.137  10.436   3.931 -0.2147 -0.1017 -0.1608
  559MOL0     C75368  11.088  10.457   4.073 -1.3060 -0.7089 -0.1204
  559MOL0     C75369  11.187  10.544   4.146  0.4854  0.3797 -0.3082
  559MOL0     C75370  11.137  10.561   4.289  0.2989  0.6099 -0.3563
  559MOL0     C75371  11.013  10.642   4.325  1.0880 -1.0463 -0.2650
  559MOL0     C75372  11.023  10.787   4.306 -0.1821 -0.0105  0.7133
  559MOL0     C75373  10.888  10.849   4.347  0.2555  0.2647  0.1920
  559MOL0     C75374  10.905  11.000   4.396 -0.3716 -0.5712  1.0729
  559MOL0    Cl75375  10.979  11.096   4.274 -0.4708 -0.0156  0.2643
  559MOL0     C75376  11.061  10.535   3.600  0.6982 -0.0751  0.4843
  559MOL0     C75377  11.101  10.513   3.468  0.1390  0.1025  0.8229
  559MOL0     O75378  11.475  10.474   3.312 -0.2516 -0.0938  0.2084
  559MOL0     C75379  11.328  10.241   3.082  0.5414 -0.5996  0.5011
  559MOL0     C75380  11.350  10.186   2.955  0.5018 -0.1550 -0.3727
  559MOL0     N75381  10.875  10.007   2.426 -1.3578  0.3820  0.2126
  559MOL0     N75382  10.772  10.027   2.348  0.1539 -0.0725  0.4356
  559MOL0     C75383  10.437  10.667   1.388  0.5070 -0.1768  1.4468
  559MOL0     C75384  10.315  10.717   1.341  0.6382 -0.0197 -0.5401
  559MOL0     C75385   9.946  10.990   1.328 -0.5528 -0.6789 -0.5248
  559MOL0     C75386   9.816  10.954   1.384 -0.1154 -0.3631 -0.5615
  559MOL0     C75387   9.701  11.036   1.353  0.5841  0.2960  0.3869
  559MOL0     C75388   9.718  11.150   1.272 -0.7728 -0.0584  0.2477
  559MOL0     O75389   9.609  11.232   1.263  0.5597  0.6781  0.4815
  559MOL0     C75390   9.632  11.369   1.281  0.0353  0.3394 -0.0149
  559MOL0     C75391   9.505  11.435   1.312  0.7049  0.2262 -0.1188
  559MOL0     C75392   9.538  11.568   1.383 -0.4274  0.5086  1.2174
  559MOL0     C75393   9.436  11.674   1.396 -0.1694 -0.6162  0.0282
  559MOL0     C75394   9.393  11.728   1.266  0.7156  0.6049 -1.3598
  559MOL0     C75395   9.358  11.775   1.164  0.5029  0.1499  1.5110
  559MOL0     C75396   9.845  11.184   1.222 -0.0143  0.3126 -0.2962
  559MOL0     C75397   9.955  11.098   1.241 -0.6605 -0.1838  0.4819
  559MOL0     H75398  10.394  11.044   1.265  1.7253  1.2185  0.5942
  559MOL0     H75399  10.617  10.940   1.338  0.6895 -1.5532  1.0408
  559MOL0     H75400  10.641  10.497   1.415  0.5226 -2.2988  0.6157
  559MOL0     H75401  10.804  10.566   1.436 -0.2879 -0.7663  1.9317
  559MOL0     H75402  10.759  10.643   1.653 -1.4221  1.9151  0.7536
  559MOL0     H75403  10.585  10.649   1.630 -0.8897  1.1489 -2.6281
  559MOL0     H75404  10.598  10.398   1.610 -0.0293  0.2448 -0.6754
  559MOL0     H75405  10.772  10.402   1.663 -0.6260 -0.2871  1.6898
  559MOL0     H75406  10.724  10.498   1.873  1.2844  1.5361 -2.7087
  559MOL0     H75407  10.554  10.533   1.836  2.1268  2.1527  0.4363
  559MOL0     H75408  10.502  10.301   1.803  1.4761 -0.3044 -2.7600
  559MOL0     H75409  10.669  10.256   1.832 -0.1043  0.4181  1.6622
  559MOL0     H75410  10.545  10.402   2.052  3.2838  0.1073  2.6366
  559MOL0     H75411  10.480  10.238   2.043 -0.9459  0.0193  0.0496
  559MOL0     H75412  10.709  10.129   2.062  1.5684  0.1805  2.2518
  559MOL0     H75413  10.778  10.286   2.076 -0.3977  1.5383 -0.0756
  559MOL0     H75414  10.572  10.192   2.290  1.2158  0.6236  4.6741
  559MOL0     H75415  10.677  10.340   2.267 -0.3849  0.7421 -1.8281
  559MOL0     H75416  10.921  10.317   2.337 -1.8365  0.4612  1.6726
  559MOL0     H75417  11.106  10.259   2.519 -2.1729  0.9072  0.5640
  559MOL0     H75418  11.052  10.129   2.622 -2.2306 -1.3158 -0.5646
  559MOL0     H75419  11.219  10.069   2.364  0.9067  0.8704  0.0410
  559MOL0     H75420  11.201   9.965   2.509  1.2753 -1.4054 -1.9841
  559MOL0     H75421  11.332  10.243   2.497  0.5888 -0.9749 -1.4851
  559MOL0     H75422  11.427  10.104   2.480  0.7189 -0.3262 -0.0065
  559MOL0     H75423  11.338  10.029   2.719 -1.8441  0.6296  0.7032
  559MOL0     H75424  11.229  10.167   2.710  0.2738  0.6189 -1.2900
  559MOL0     H75425  11.579  10.394   2.830  1.7753 -0.5299  0.1261
  559MOL0     H75426  11.568  10.591   3.100  1.8249  2.2137 -1.2393
  559MOL0     H75427  11.676  10.458   3.148 -2.2524  0.1461  1.4439
  559MOL0     H75428  11.678  10.524   2.984 -0.0226  4.4920  1.6700
  559MOL0     H75429  11.399  10.370   3.531  0.6433 -1.0594  3.7985
  559MOL0     H75430  11.351  10.440   3.764 -0.0735 -0.0160 -0.2168
  559MOL0     H75431  11.078  10.354   3.888 -0.5203 -2.0793  3.5772
  559MOL0     H75432  11.241  10.403   3.929 -0.6172 -1.4118 -1.0784
  559MOL0     H75433  10.988  10.501   4.080 -0.1719  1.9343  0.8169
  559MOL0     H75434  11.077  10.359   4.120  2.7174 -1.0848  0.3722
  559MOL0     H75435  11.200  10.644   4.104 -0.4751  0.9656  0.7139
  559MOL0     H75436  11.283  10.494   4.163  0.0285  0.2236  2.2106
  559MOL0     H75437  11.141  10.464   4.340 -2.5591  1.1135  1.0599
  559MOL0     H75438  11.220  10.611   4.339  1.9098 -1.2404 -1.0359
  559MOL0     H75439  10.995  10.624   4.431  3.6763 -1.1877  0.2125
  559MOL0     H75440  10.923  10.598   4.281  1.3115 -1.8971  0.1134
  559MOL0     H75441  11.104  10.823   4.370 -0.2828 -0.7944  1.2943
  559MOL0     H75442  11.040  10.819   4.202 -0.5756  0.5805  0.8263
  559MOL0     H75443  10.848  10.802   4.437 -1.7795 -0.4071 -0.9876
  559MOL0     H75444  10.814  10.845   4.266 -0.7923 -0.4005  1.1476
  559MOL0     H75445  10.958  10.997   4.491  0.5886  1.7366  0.6868
  559MOL0     H75446  10.806  11.046   4.400  0.7606  2.9700 -3.2060
  559MOL0     H75447  10.961  10.575   3.614  2.3380  3.9476  2.2586
  559MOL0     H75448  11.036  10.541   3.386  2.1018 -1.5057 -1.4107
  559MOL0     H75449  11.258  10.202   3.156 -2.4115 -0.7051 -2.1460
  559MOL0     H75450  11.273  10.118   2.921 -0.4395 -0.4243  2.1120
  559MOL0     H75451  10.430  10.559   1.397 -0.9709 -0.2855 -0.3841
  559MOL0     H75452  10.229  10.654   1.363  1.7213 -1.3374  0.0591
  559MOL0     H75453   9.811  10.870   1.452  3.1958  0.7154  1.2103
  559MOL0     H75454   9.603  11.007   1.387  0.6718  1.7107  1.9733
  559MOL0     H75455   9.713  11.391   1.350 -1.2103 -1.8591  2.2946
  559MOL0     H75456   9.658  11.402   1.180 -0.2748 -1.7321 -0.8197
  559MOL0     H75457   9.429  11.384   1.373 -0.5084 -0.0563 -1.7791
  559MOL0     H75458   9.452  11.438   1.217  1.6881 -0.7367 -0.7214
  559MOL0     H75459   9.631  11.611   1.345 -0.1054 -0.9604  0.2471
  559MOL0     H75460   9.568  11.548   1.487 -2.8168  0.2432  1.9245
  559MOL0     H75461   9.475  11.748   1.466 -0.5173  0.2207 -0.6446
  559MOL0     H75462   9.351  11.628   1.447  0.4537  1.3116  3.0882
  559MOL0     H75463   9.336  11.803   1.063 -0.5799 -2.4775  0.9482
  559MOL0     H75464   9.866  11.272   1.162  0.9087  0.1282 -0.2593
  559MOL0     H75465  10.051  11.120   1.194 -2.0478  1.3245 -1.8931
  560MOL0     O75466   3.278   5.392   9.640 -0.1387 -0.2818 -0.0715
  560MOL0     C75467   3.207   5.407   9.737  0.0601 -0.3668 -0.5993
  560MOL0     O75468   3.083   5.369   9.746  0.6410 -0.3420 -0.6071
  560MOL0     C75469   3.005   5.307   9.649 -0.0361  0.7580  0.3230
  560MOL0     C75470   2.876   5.298   9.674 -0.4960  0.2863 -0.6607
  560MOL0     C75471   2.785   5.240   9.578 -0.1074  0.3644  0.0234
  560MOL0     C75472   2.820   5.223   9.450 -0.2720  0.0265 -0.2452
  560MOL0     O75473   2.716   5.178   9.373 -1.1207 -0.3111  0.5330
  560MOL0     C75474   2.735   5.086   9.265  0.4670  0.2200  0.0124
  560MOL0     C75475   2.607   5.027   9.191 -0.4233  0.8925 -0.4985
  560MOL0     C75476   2.625   4.983   9.045  0.4051 -0.0536  0.1057
  560MOL0     C75477   2.724   4.860   9.045 -0.1334 -0.2328  0.2035
  560MOL0     C75478   2.701   4.755   8.935 -0.4814  0.0575 -0.1821
  560MOL0     C75479   2.678   4.825   8.797 -0.0440  0.2402  0.1633
  560MOL0     C75480   2.691   4.749   8.662 -1.2653 -0.1358 -0.3972
  560MOL0     C75481   2.846   4.715   8.629  0.8122  0.0695 -1.0565
  560MOL0     N75482   2.908   4.821   8.554 -0.5051 -0.1052  0.0659
  560MOL0     C75483   2.861   4.942   8.516  0.0386  0.8069 -0.0407
  560MOL0     C75484   2.966   4.993   8.442 -0.3219  0.5433 -1.1783
  560MOL0     C75485   2.968   5.130   8.386  0.5028  0.9585 -0.6554
  560MOL0     C75486   2.870   5.151   8.270 -0.1847 -0.7261  0.3481
  560MOL0     C75487   2.895   5.291   8.215  0.4029 -0.4272  1.1891
  560MOL0     C75488   2.787   5.323   8.114  0.3522 -1.5408 -0.1893
  560MOL0     O75489   2.676   5.377   8.192  1.1791 -0.9734 -0.2678
  560MOL0     C75490   2.571   5.426   8.116  0.0533  0.4166  0.3549
  560MOL0     C75491   2.507   5.531   8.171  0.5131 -0.1504 -0.9949
  560MOL0     C75492   2.398   5.602   8.112  0.2426 -0.0485 -0.6028
  560MOL0     C75493   2.342   5.716   8.184 -0.4822  0.6212 -0.0627
  560MOL0     C75494   2.353   5.561   7.983  0.2746 -1.2796 -1.3544
  560MOL0     C75495   2.234   5.622   7.911  1.1491  0.9309 -0.1942
  560MOL0     O75496   2.209   5.580   7.787 -0.1003 -0.6609  0.6438
  560MOL0     C75497   2.131   5.671   7.701  0.2974 -0.0146  0.0743
  560MOL0     C75498   2.196   5.733   7.591 -0.4720  0.1788 -0.6856
  560MOL0     C75499   2.117   5.808   7.497  0.2305  0.1042 -0.2889
  560MOL0     C75500   1.976   5.802   7.505 -0.2004 -0.1669 -0.4107
  560MOL0     O75501   1.909   5.897   7.433 -0.3848  0.1425 -0.2628
  560MOL0     C75502   1.825   5.842   7.330 -0.2533 -0.0445  0.0952
  560MOL0     C75503   1.832   5.930   7.201  0.8565  0.1563  0.3356
  560MOL0     C75504   1.762   5.869   7.076 -1.0650  0.0413 -0.6318
  560MOL0     C75505   1.779   5.959   6.959 -0.2302  0.1394  0.4491
  560MOL0     C75506   1.727   5.902   6.819  0.0219 -0.8435 -0.6254
  560MOL0     C75507   1.700   6.010   6.718 -0.8117  0.1050  0.2937
  560MOL0     C75508   1.817   6.099   6.674  0.2334 -0.2764  0.2053
  560MOL0     C75509   1.922   6.037   6.585  0.3190 -0.0278  1.2169
  560MOL0    Cl75510   1.857   5.981   6.412 -0.1572  0.1748  0.0937
  560MOL0     C75511   1.920   5.719   7.588  0.1412  0.2131 -0.6173
  560MOL0     C75512   1.994   5.655   7.689  0.2581 -0.0221  0.4139
  560MOL0     O75513   2.173   5.716   7.968  0.2178  0.1226  1.0212
  560MOL0     C75514   2.433   5.468   7.919  0.7221  1.2115 -0.2178
  560MOL0     C75515   2.532   5.394   7.985 -0.5455  0.5018 -0.0840
  560MOL0     N75516   3.068   4.902   8.445 -0.8854 -0.0250 -0.2393
  560MOL0     N75517   3.037   4.807   8.512 -0.6511  0.8833 -0.7405
  560MOL0     C75518   2.956   5.223   9.422  0.7130 -0.2866 -0.2604
  560MOL0     C75519   3.047   5.265   9.520 -0.5802 -0.0345 -0.8125
  560MOL0     C75520   3.274   5.465   9.851  1.3924  0.3591  0.1452
  560MOL0     C75521   3.216   5.463   9.988 -0.2622 -0.8259 -0.5706
  560MOL0     C75522   3.283   5.526  10.095  0.2393 -0.0517 -0.0321
  560MOL0     C75523   3.415   5.571  10.077 -0.7036 -0.3318  0.3642
  560MOL0     O75524   3.479   5.631  10.188 -0.1701  0.5521 -0.1850
  560MOL0     C75525   3.623   5.637  10.187 -1.0322 -0.1293  0.0375
  560MOL0     C75526   3.651   5.708  10.322 -0.4713  0.1486  0.8832
  560MOL0     C75527   3.582   5.846  10.337  0.3606 -0.0443 -0.4650
  560MOL0     C75528   3.669   5.938  10.410 -0.3947 -0.9555  0.0316
  560MOL0     C75529   3.666   5.917  10.553  0.3197 -0.1222  0.1813
  560MOL0     C75530   3.690   5.901  10.675  0.8370  0.5830  0.2775
  560MOL0     C75531   3.465   5.593   9.950  0.5487  0.4555 -0.5140
  560MOL0     C75532   3.392   5.536   9.843 -0.0850  0.1009  0.5112
  560MOL0     H75533   2.848   5.316   9.777  1.6345 -0.5000  0.1134
  560MOL0     H75534   2.681   5.219   9.601 -0.6997  2.0988 -0.8662
  560MOL0     H75535   2.788   5.139   9.184 -1.4833  3.7592  0.8390
  560MOL0     H75536   2.804   5.007   9.296 -0.6542 -1.0709 -0.7231
  560MOL0     H75537   2.584   4.940   9.254 -1.3225  0.0990 -1.8636
  560MOL0     H75538   2.523   5.097   9.186 -2.1963 -1.1955 -1.5030
  560MOL0     H75539   2.523   4.964   9.012  0.5033 -0.7662  0.1957
  560MOL0     H75540   2.671   5.060   8.982  1.1267  0.5051  1.2782
  560MOL0     H75541   2.821   4.910   9.039 -0.4482  0.4840  0.9977
  560MOL0     H75542   2.728   4.808   9.141  1.0084  1.4003  1.0688
  560MOL0     H75543   2.798   4.707   8.924  0.3125  1.3810  0.6766
  560MOL0     H75544   2.631   4.679   8.972  0.2254 -0.0522  0.9973
  560MOL0     H75545   2.579   4.868   8.780  0.2490  1.4244  1.2959
  560MOL0     H75546   2.749   4.908   8.801  0.5296 -0.0644  5.9502
  560MOL0     H75547   2.649   4.649   8.667 -0.3526 -0.5479 -0.7837
  560MOL0     H75548   2.644   4.812   8.585 -0.5363  1.5792  0.5047
  560MOL0     H75549   2.847   4.619   8.577 -2.1984 -1.4373  1.3655
  560MOL0     H75550   2.894   4.707   8.727 -1.5883  0.2704  0.2063
  560MOL0     H75551   2.764   4.984   8.539  0.3279  0.7957  1.2661
  560MOL0     H75552   2.940   5.188   8.475 -0.2212  0.2636 -0.4180
  560MOL0     H75553   3.062   5.167   8.344  1.8308  1.5522  2.5456
  560MOL0     H75554   2.770   5.144   8.313 -0.9537  3.6396 -0.2584
  560MOL0     H75555   2.891   5.071   8.198  0.1472  1.3097 -1.9385
  560MOL0     H75556   2.984   5.294   8.151  1.1724  2.1516  2.2831
  560MOL0     H75557   2.892   5.375   8.285 -0.4490  0.8516 -0.3025
  560MOL0     H75558   2.765   5.232   8.058  1.0255 -1.4036 -0.6814
  560MOL0     H75559   2.817   5.397   8.040 -0.1130 -2.2384 -1.0909
  560MOL0     H75560   2.530   5.564   8.272  0.4906 -2.0604 -0.3368
  560MOL0     H75561   2.237   5.704   8.213  0.7047 -3.6847  3.6799
  560MOL0     H75562   2.397   5.717   8.278  0.1577 -1.3424 -0.3715
  560MOL0     H75563   2.358   5.807   8.126 -4.2135 -0.5357 -3.3218
  560MOL0     H75564   2.304   5.728   7.587 -0.3901 -0.7544  1.3190
  560MOL0     H75565   2.153   5.857   7.407  0.0868  0.4740 -0.1466
  560MOL0     H75566   1.837   5.736   7.304 -3.1211  0.2175 -3.0522
  560MOL0     H75567   1.720   5.843   7.361 -0.6101 -2.1372 -0.8490
  560MOL0     H75568   1.784   6.025   7.226 -2.7503 -1.9044  2.1473
  560MOL0     H75569   1.939   5.936   7.180  1.1115 -1.8207  0.8224
  560MOL0     H75570   1.655   5.855   7.094 -1.1792 -0.7774 -1.8151
  560MOL0     H75571   1.791   5.767   7.046 -2.6604 -1.3255  2.0395
  560MOL0     H75572   1.721   6.047   6.985 -1.5015 -0.4668 -0.2414
  560MOL0     H75573   1.887   5.975   6.950 -0.3758  0.7551 -0.3581
  560MOL0     H75574   1.624   5.868   6.832 -2.6716  5.0041 -3.0211
  560MOL0     H75575   1.794   5.830   6.771  1.1129  0.3043 -0.8816
  560MOL0     H75576   1.648   5.971   6.630 -3.9908 -0.4079  2.2294
  560MOL0     H75577   1.635   6.082   6.769  0.1981  2.2624 -1.3073
  560MOL0     H75578   1.880   6.132   6.757 -0.1081  0.5754  0.1450
  560MOL0     H75579   1.780   6.191   6.626  2.3833 -0.4745 -2.0446
  560MOL0     H75580   1.972   5.951   6.632 -1.9433 -1.0021  2.0023
  560MOL0     H75581   2.004   6.108   6.569 -2.5497  3.1698 -0.4604
  560MOL0     H75582   1.814   5.695   7.582  0.6389 -4.7650  3.3473
  560MOL0     H75583   1.942   5.579   7.746 -0.2076  0.2366  0.3360
  560MOL0     H75584   2.397   5.436   7.822  0.3092 -1.4749  0.7250
  560MOL0     H75585   2.596   5.327   7.928  1.7892  1.6459  1.0618
  560MOL0     H75586   2.996   5.189   9.327 -0.5446 -2.5569 -0.0513
  560MOL0     H75587   3.149   5.241   9.495  0.4647  0.3377  2.6092
  560MOL0     H75588   3.123   5.411  10.007 -1.3347  1.5790  1.2846
  560MOL0     H75589   3.238   5.540  10.193  3.2403  2.1160  1.1664
  560MOL0     H75590   3.664   5.535  10.190 -1.9389 -0.4999  0.1841
  560MOL0     H75591   3.663   5.692  10.102  0.6085 -0.0249  0.8302
  560MOL0     H75592   3.759   5.725  10.334 -0.9357  2.7762  1.7791
  560MOL0     H75593   3.618   5.646  10.406 -1.7312  1.2943  1.2606
  560MOL0     H75594   3.491   5.826  10.393 -0.7579 -0.4606 -2.3228
  560MOL0     H75595   3.556   5.882  10.236  0.2669  2.6927  0.4505
  560MOL0     H75596   3.645   6.042  10.388  1.0819 -0.4948  0.4859
  560MOL0     H75597   3.772   5.929  10.375  0.0078  1.7613  0.2804
  560MOL0     H75598   3.706   5.898  10.781 -0.6673 -1.0736  0.4999
  560MOL0     H75599   3.555   5.650   9.925  1.7805 -1.2051 -0.0607
  560MOL0     H75600   3.431   5.542   9.742 -0.4613 -3.3819  0.0191
  561MOL0     O75601   9.093   2.442   7.627  0.1817 -0.4626  0.2820
  561MOL0     C75602   9.187   2.399   7.556 -0.3943 -1.0110 -0.0740
  561MOL0     O75603   9.316   2.444   7.565  0.5968 -1.0461  0.0619
  561MOL0     C75604   9.337   2.550   7.659  0.5267 -0.8078 -0.8315
  561MOL0     C75605   9.362   2.512   7.795  0.1036 -0.4882  0.2464
  561MOL0     C75606   9.384   2.611   7.893  0.1790  0.3348  0.1389
  561MOL0     C75607   9.375   2.752   7.867  0.6153  0.1749 -0.1719
  561MOL0     O75608   9.384   2.855   7.959  0.2624 -0.2071  0.2128
  561MOL0     C75609   9.410   2.830   8.093  0.2957 -0.1170 -0.0985
  561MOL0     C75610   9.279   2.779   8.165  0.5376  0.5567  0.2885
  561MOL0     C75611   9.157   2.885   8.151 -0.4525 -0.0406 -0.8607
  561MOL0     C75612   9.145   2.979   8.271 -0.8787  0.4997 -0.5720
  561MOL0     C75613   9.258   3.084   8.289  0.5439  0.3825 -0.7711
  561MOL0     C75614   9.213   3.189   8.385 -1.0556 -0.5988  0.4273
  561MOL0     C75615   9.327   3.302   8.395 -0.5094  0.3163  0.6656
  561MOL0     C75616   9.474   3.262   8.420  0.2888 -0.4610 -0.6606
  561MOL0     N75617   9.558   3.388   8.423 -0.4991 -0.9041  0.2190
  561MOL0     C75618   9.633   3.441   8.333 -0.2084 -0.0268 -0.1166
  561MOL0     C75619   9.690   3.553   8.379  0.5599 -0.6605 -0.9702
  561MOL0     C75620   9.808   3.632   8.309  0.3848  0.1535 -0.2513
  561MOL0     C75621   9.938   3.554   8.297  0.2574 -0.0831 -0.2294
  561MOL0     C75622  10.043   3.571   8.415  0.0667 -0.4739  0.1158
  561MOL0     C75623  10.068   3.441   8.494  0.0800  0.4916  0.2883
  561MOL0     O75624   9.944   3.387   8.539 -0.3304 -0.1619  0.2096
  561MOL0     C75625   9.915   3.364   8.671 -0.2575  0.1374  0.6903
  561MOL0     C75626   9.858   3.243   8.713  1.0098 -0.8467 -0.2972
  561MOL0     C75627   9.798   3.228   8.835 -0.7454  0.4225  0.1648
  561MOL0     C75628   9.754   3.084   8.865  0.5513  0.3043  0.2217
  561MOL0     C75629   9.799   3.345   8.922  0.1312  0.3404 -0.6886
  561MOL0     C75630   9.728   3.351   9.046  0.6436  0.1898 -0.2426
  561MOL0     O75631   9.634   3.251   9.072  0.2985  0.6953 -0.4491
  561MOL0     C75632   9.559   3.244   9.198 -1.0480 -0.5707 -0.4950
  561MOL0     C75633   9.453   3.335   9.206 -0.0678 -0.2495 -0.1522
  561MOL0     C75634   9.368   3.306   9.319  0.4425 -0.3624  0.5325
  561MOL0     C75635   9.400   3.212   9.409 -0.4905  0.7946 -0.6709
  561MOL0     O75636   9.318   3.200   9.522  0.4282 -0.1662  0.4012
  561MOL0     C75637   9.195   3.142   9.505  0.0440  0.1373 -0.2794
  561MOL0     C75638   9.087   3.238   9.545  0.3555  0.2175 -0.2402
  561MOL0     C75639   9.102   3.302   9.676 -1.1848  0.0167 -0.9864
  561MOL0     C75640   8.968   3.366   9.722 -0.3790  0.5512 -0.2336
  561MOL0     C75641   8.998   3.460   9.843 -0.2816 -0.4809 -0.2153
  561MOL0     C75642   8.880   3.553   9.873  0.6468  0.0945  0.1416
  561MOL0     C75643   8.894   3.635  10.005 -0.4919 -0.4324 -0.2885
  561MOL0     C75644   9.004   3.742   9.990 -0.5208 -0.1182 -0.1329
  561MOL0    Cl75645   9.168   3.663  10.011  0.2057 -0.3250 -0.2093
  561MOL0     C75646   9.519   3.132   9.399 -0.6339  0.8267 -0.8686
  561MOL0     C75647   9.604   3.154   9.292 -0.2200  1.0052 -0.0396
  561MOL0     O75648   9.752   3.435   9.128  0.8470 -0.0635 -0.0009
  561MOL0     C75649   9.882   3.446   8.891 -0.3192 -0.1426  0.0855
  561MOL0     C75650   9.948   3.459   8.768  0.1477  0.2906 -0.6455
  561MOL0     N75651   9.638   3.571   8.505  0.4527 -0.1663  0.0782
  561MOL0     N75652   9.574   3.470   8.536  0.3055  0.2604  0.2037
  561MOL0     C75653   9.340   2.784   7.731 -1.0749 -0.0714 -0.3175
  561MOL0     C75654   9.317   2.684   7.630 -1.1128  0.2658 -0.6918
  561MOL0     C75655   9.164   2.294   7.470 -0.1857  0.4749  0.5532
  561MOL0     C75656   9.032   2.247   7.460 -0.5144 -0.6513  0.3610
  561MOL0     C75657   8.998   2.145   7.362 -0.3290  1.0218 -0.1272
  561MOL0     C75658   9.096   2.089   7.275 -0.1564  0.2986  0.6758
  561MOL0     O75659   9.062   1.979   7.191 -0.1446 -0.2363  0.1905
  561MOL0     C75660   9.093   1.856   7.261 -1.0460  0.0868 -0.4271
  561MOL0     C75661   9.167   1.758   7.169 -0.6620  0.9035  0.5043
  561MOL0     C75662   9.306   1.783   7.110 -0.5969  0.5079  0.0503
  561MOL0     C75663   9.299   1.823   6.962 -0.1476 -0.9538 -0.1140
  561MOL0     C75664   9.386   1.741   6.883  1.4346 -0.1397  0.5301
  561MOL0     C75665   9.450   1.679   6.800  0.5082 -0.2832 -0.3816
  561MOL0     C75666   9.230   2.144   7.279 -0.3014  0.1784  1.1496
  561MOL0     C75667   9.260   2.233   7.383  0.1418 -0.7486  0.3093
  561MOL0     H75668   9.363   2.405   7.817  1.6179 -1.1870 -2.7277
  561MOL0     H75669   9.407   2.567   7.989  3.2323 -1.0440 -1.0816
  561MOL0     H75670   9.486   2.752   8.101 -0.7905 -1.1856  0.2692
  561MOL0     H75671   9.464   2.914   8.136  2.5961 -0.9843 -1.1351
  561MOL0     H75672   9.234   2.686   8.129  0.4869  0.5674  0.3225
  561MOL0     H75673   9.309   2.760   8.268 -1.0771  0.2220  0.7238
  561MOL0     H75674   9.172   2.954   8.068  1.6247 -0.8723 -1.2510
  561MOL0     H75675   9.066   2.823   8.151 -1.5116  1.4431  0.3100
  561MOL0     H75676   9.055   3.041   8.257 -1.8455 -0.9147 -0.7987
  561MOL0     H75677   9.137   2.925   8.366 -0.0174  2.3004  0.5946
  561MOL0     H75678   9.346   3.038   8.335 -0.0217  0.0342  0.0035
  561MOL0     H75679   9.285   3.122   8.190 -2.4241 -0.7908 -2.1367
  561MOL0     H75680   9.117   3.237   8.367 -1.2551 -1.2201 -0.2182
  561MOL0     H75681   9.198   3.142   8.482  0.8565 -3.8626 -0.6926
  561MOL0     H75682   9.333   3.357   8.301 -0.9952 -1.9127 -0.7360
  561MOL0     H75683   9.301   3.367   8.479  1.0303  1.8868 -0.0029
  561MOL0     H75684   9.518   3.204   8.339 -1.5222 -2.2771 -0.4382
  561MOL0     H75685   9.482   3.206   8.514 -0.1064  0.4789 -0.0526
  561MOL0     H75686   9.656   3.402   8.234 -3.9838 -1.1247 -0.7456
  561MOL0     H75687   9.778   3.678   8.214 -0.6111  3.5675  1.5531
  561MOL0     H75688   9.826   3.723   8.366 -2.5683 -0.1638  1.4050
  561MOL0     H75689   9.981   3.590   8.203 -4.1875  0.3979 -2.3090
  561MOL0     H75690   9.916   3.448   8.287 -0.3060  0.1398 -1.4832
  561MOL0     H75691  10.006   3.644   8.487 -1.8162 -0.2081 -1.0557
  561MOL0     H75692  10.137   3.614   8.379 -0.9716  1.8721 -0.0124
  561MOL0     H75693  10.140   3.450   8.576  1.3743  2.1069 -0.9722
  561MOL0     H75694  10.125   3.374   8.429  2.8022  1.0920  1.9180
  561MOL0     H75695   9.845   3.163   8.641  1.3494 -1.7649  0.6469
  561MOL0     H75696   9.742   3.072   8.973 -0.7407  2.5904  0.3969
  561MOL0     H75697   9.649   3.058   8.849  0.5965 -1.0743  1.8359
  561MOL0     H75698   9.818   3.016   8.809 -0.7396 -0.5210 -0.3010
  561MOL0     H75699   9.427   3.402   9.125 -1.5577  2.1444  2.1437
  561MOL0     H75700   9.276   3.363   9.333  1.4353  1.0593  1.6279
  561MOL0     H75701   9.172   3.121   9.400  0.6793  1.0245 -0.6084
  561MOL0     H75702   9.187   3.053   9.568 -0.0916  0.3942  0.0650
  561MOL0     H75703   9.073   3.319   9.472 -2.5717 -1.8839 -2.2460
  561MOL0     H75704   8.993   3.186   9.567 -0.8435  2.9944  1.8005
  561MOL0     H75705   9.189   3.369   9.679  1.1409 -2.8134 -0.7420
  561MOL0     H75706   9.119   3.226   9.753  1.2056  1.0077 -0.4350
  561MOL0     H75707   8.930   3.420   9.635  2.4693 -0.1454 -2.0390
  561MOL0     H75708   8.892   3.294   9.755 -1.2262  0.9091 -1.3347
  561MOL0     H75709   9.093   3.512   9.828 -0.2789  1.0023  3.7805
  561MOL0     H75710   8.999   3.395   9.930 -2.4536  0.8133  0.8746
  561MOL0     H75711   8.866   3.609   9.780  0.1332 -3.2928 -1.9962
  561MOL0     H75712   8.790   3.494   9.892 -0.9504  2.3628  0.0075
  561MOL0     H75713   8.912   3.571  10.092  0.0364  1.8414  1.3743
  561MOL0     H75714   8.806   3.695  10.027  2.3753  3.8531  0.7454
  561MOL0     H75715   8.981   3.829  10.051  1.3592  1.5671 -1.6794
  561MOL0     H75716   9.018   3.786   9.890  1.6834 -0.6151 -0.0890
  561MOL0     H75717   9.540   3.055   9.472 -0.6471 -0.6485 -2.3528
  561MOL0     H75718   9.688   3.085   9.289  1.3790  2.8695 -0.0995
  561MOL0     H75719   9.897   3.526   8.964 -0.4335 -0.7241  0.7556
  561MOL0     H75720  10.008   3.545   8.739  0.4996 -0.4022 -2.0481
  561MOL0     H75721   9.303   2.881   7.701 -0.3563  0.1768 -0.4238
  561MOL0     H75722   9.280   2.709   7.531 -0.3170 -0.9229 -1.3106
  561MOL0     H75723   8.951   2.280   7.524  0.8377  0.9204  1.3633
  561MOL0     H75724   8.894   2.118   7.352 -0.1786  0.9386 -1.7165
  561MOL0     H75725   9.160   1.865   7.348  0.7945 -0.8877 -1.6687
  561MOL0     H75726   9.004   1.810   7.304 -1.4126  1.1603 -0.0056
  561MOL0     H75727   9.090   1.722   7.099  0.9919 -3.1886  0.5152
  561MOL0     H75728   9.176   1.660   7.216  3.1875  1.0158  0.3093
  561MOL0     H75729   9.372   1.698   7.133 -2.1578 -0.3137  1.8002
  561MOL0     H75730   9.353   1.864   7.166  2.8703 -1.6099  0.4937
  561MOL0     H75731   9.337   1.924   6.944  3.0171 -2.3345 -2.0744
  561MOL0     H75732   9.202   1.820   6.911 -0.0679  0.1432 -0.3629
  561MOL0     H75733   9.517   1.640   6.725  1.2281  2.9475 -1.5828
  561MOL0     H75734   9.311   2.111   7.215 -1.0656  0.7260 -0.1383
  561MOL0     H75735   9.361   2.273   7.389 -0.1086  0.9348 -3.4840
  562MOL0     O75736   2.489   7.151   1.576  1.2037  0.8041  0.8956
  562MOL0     C75737   2.605   7.195   1.574 -0.3278  0.1646  0.7485
  562MOL0     O75738   2.693   7.172   1.678 -0.8963  0.9087  1.0519
  562MOL0     C75739   2.653   7.150   1.800  0.4218 -0.9021 -0.0201
  562MOL0     C75740   2.752   7.097   1.885  0.2640  0.6458  1.4615
  562MOL0     C75741   2.722   7.073   2.021  0.5616  0.2817 -0.1507
  562MOL0     C75742   2.598   7.121   2.080  0.2485 -0.9832  0.8050
  562MOL0     O75743   2.552   7.101   2.209  0.6535 -0.8042  0.1977
  562MOL0     C75744   2.622   6.998   2.288  0.4193  0.5692 -0.0997
  562MOL0     C75745   2.531   6.948   2.399 -0.0646 -0.0436 -0.1820
  562MOL0     C75746   2.610   6.882   2.516 -1.2888 -0.3074 -1.1005
  562MOL0     C75747   2.516   6.820   2.624  0.6759  1.0043 -0.2870
  562MOL0     C75748   2.515   6.906   2.746  0.5274 -0.7273 -0.9639
  562MOL0     C75749   2.414   6.862   2.851  0.5228  0.7736 -0.1001
  562MOL0     C75750   2.407   6.948   2.977 -0.1895  0.4143  0.5857
  562MOL0     C75751   2.503   6.911   3.099 -1.1486  0.0620  0.2567
  562MOL0     N75752   2.515   7.022   3.194  0.3867  0.3322 -0.4592
  562MOL0     C75753   2.458   7.011   3.314 -0.2587  0.5636  0.3868
  562MOL0     C75754   2.498   7.136   3.370  0.1092  1.1033 -1.3254
  562MOL0     C75755   2.463   7.179   3.510 -0.5053  0.1275 -0.6832
  562MOL0     C75756   2.524   7.310   3.567  0.3788 -0.0339  0.2900
  562MOL0     C75757   2.484   7.328   3.717  0.0230 -0.0837 -0.3871
  562MOL0     C75758   2.512   7.465   3.783  0.0719 -0.1828  0.0591
  562MOL0     O75759   2.537   7.441   3.920 -0.2151  0.4016 -0.3276
  562MOL0     C75760   2.507   7.526   4.024 -0.7777  0.1016  0.3781
  562MOL0     C75761   2.438   7.653   4.011 -0.5006  0.4151 -0.6728
  562MOL0     C75762   2.435   7.743   4.114 -0.5641  0.6400  0.9556
  562MOL0     C75763   2.351   7.866   4.081 -0.3208 -0.5531  0.2368
  562MOL0     C75764   2.499   7.722   4.240 -0.8853  0.4066  0.5331
  562MOL0     C75765   2.492   7.818   4.355 -0.3087  0.5231  0.2160
  562MOL0     O75766   2.561   7.781   4.480 -0.0967  0.1947  0.3167
  562MOL0     C75767   2.522   7.832   4.599 -1.0482  0.0531  0.1961
  562MOL0     C75768   2.629   7.872   4.686  0.9171  0.2892 -1.0483
  562MOL0     C75769   2.596   7.915   4.818 -0.5044 -0.4340 -0.4579
  562MOL0     C75770   2.463   7.928   4.854 -0.0464  0.0064  0.7074
  562MOL0     O75771   2.449   7.956   4.985  0.3633 -1.0242 -0.3692
  562MOL0     C75772   2.324   8.008   5.039 -0.3759  0.6227  0.2423
  562MOL0     C75773   2.325   8.028   5.192 -0.0494 -0.0083 -0.9802
  562MOL0     C75774   2.451   8.092   5.259 -0.1693  0.2958 -0.3307
  562MOL0     C75775   2.480   8.238   5.226 -0.6533 -0.2214  0.0060
  562MOL0     C75776   2.605   8.285   5.302 -0.0865 -0.1255  0.7327
  562MOL0     C75777   2.578   8.334   5.446  0.1709 -0.1981  0.0532
  562MOL0     C75778   2.699   8.422   5.479 -0.1669  0.6047 -0.3669
  562MOL0     C75779   2.736   8.454   5.625  0.1145  0.0902 -0.3883
  562MOL0    Cl75780   2.739   8.322   5.742 -0.0776 -0.2941 -0.1880
  562MOL0     C75781   2.359   7.909   4.762 -0.6217  0.3200 -0.6534
  562MOL0     C75782   2.392   7.859   4.630  0.2078 -0.5136 -0.8988
  562MOL0     O75783   2.442   7.925   4.340  0.6341  1.0035 -0.6847
  562MOL0     C75784   2.559   7.595   4.261 -0.2240  0.3459 -0.2172
  562MOL0     C75785   2.558   7.498   4.149  0.1174 -0.5982 -0.5926
  562MOL0     N75786   2.573   7.216   3.285 -0.2118 -1.1822  0.7732
  562MOL0     N75787   2.590   7.141   3.181  0.3257 -0.3951 -0.1408
  562MOL0     C75788   2.513   7.199   2.003 -0.1490  0.8070  0.1265
  562MOL0     C75789   2.529   7.204   1.859 -0.9203 -0.1917  0.1229
  562MOL0     C75790   2.654   7.266   1.456 -0.4623 -0.2554 -0.5806
  562MOL0     C75791   2.562   7.305   1.359 -0.8595 -0.5442  0.1587
  562MOL0     C75792   2.604   7.379   1.245  0.3496  0.1361  0.1920
  562MOL0     C75793   2.742   7.424   1.234  0.4005  0.5346  0.5197
  562MOL0     O75794   2.787   7.489   1.114 -0.2267  0.3195 -0.2839
  562MOL0     C75795   2.700   7.545   1.015  0.6065  0.6907  0.3314
  562MOL0     C75796   2.776   7.624   0.909 -0.1991  1.1503 -0.0136
  562MOL0     C75797   2.696   7.636   0.786  0.9265  0.1769  0.1343
  562MOL0     C75798   2.768   7.661   0.647 -0.1866  0.0744 -0.0670
  562MOL0     C75799   2.855   7.779   0.679 -0.4527 -0.2391  0.4142
  562MOL0     C75800   2.942   7.865   0.699  0.0169  0.8661  0.1015
  562MOL0     C75801   2.827   7.395   1.347  0.0918 -0.4363  0.6064
  562MOL0     C75802   2.788   7.308   1.450 -0.1293  0.3484  0.4196
  562MOL0     H75803   2.846   7.070   1.837 -0.3409  0.7810  0.1803
  562MOL0     H75804   2.791   7.015   2.082  1.0392 -0.5624 -1.4494
  562MOL0     H75805   2.663   6.916   2.230 -2.6224 -0.5476 -0.8889
  562MOL0     H75806   2.708   7.049   2.331 -0.0135  2.1398 -1.0280
  562MOL0     H75807   2.479   7.038   2.435 -3.5050 -0.8133 -2.6715
  562MOL0     H75808   2.464   6.868   2.366 -1.7317 -0.6161  3.9824
  562MOL0     H75809   2.673   6.803   2.475  0.8496 -0.3896  2.0131
  562MOL0     H75810   2.677   6.958   2.558  3.8589 -5.2755  0.9999
  562MOL0     H75811   2.420   6.804   2.576  1.2662  0.0764 -1.2021
  562MOL0     H75812   2.561   6.726   2.658 -0.8397  1.4009  3.3262
  562MOL0     H75813   2.614   6.931   2.785 -0.2215  1.0916 -0.1157
  562MOL0     H75814   2.475   6.999   2.703  0.5121  0.4977  1.5249
  562MOL0     H75815   2.312   6.859   2.811  0.1534  1.4992  0.7421
  562MOL0     H75816   2.442   6.761   2.882 -3.9543 -0.8329 -0.4734
  562MOL0     H75817   2.423   7.050   2.940 -2.0537  0.4483 -0.2592
  562MOL0     H75818   2.307   6.947   3.020 -0.0418  0.8488  0.9435
  562MOL0     H75819   2.604   6.903   3.056 -1.9516 -0.8079 -1.5581
  562MOL0     H75820   2.479   6.820   3.155 -1.3013 -2.2551 -3.2218
  562MOL0     H75821   2.387   6.936   3.349 -3.3227  1.7810 -2.7117
  562MOL0     H75822   2.353   7.178   3.513 -0.5960  3.0341  0.7709
  562MOL0     H75823   2.497   7.094   3.569 -3.3536  1.7620  3.8172
  562MOL0     H75824   2.483   7.395   3.512 -2.1078 -1.6337 -0.5160
  562MOL0     H75825   2.631   7.319   3.547 -0.2949  2.4560 -3.1932
  562MOL0     H75826   2.549   7.255   3.767 -0.2406  1.3840  2.2607
  562MOL0     H75827   2.380   7.296   3.734  1.3028 -4.7881  0.1468
  562MOL0     H75828   2.428   7.530   3.757  0.5862  0.0836 -1.0455
  562MOL0     H75829   2.595   7.516   3.733 -3.1208  2.4371 -3.1284
  562MOL0     H75830   2.399   7.688   3.916  0.7179  2.5230 -0.4792
  562MOL0     H75831   2.420   7.950   4.078 -0.5964 -0.3400 -1.6430
  562MOL0     H75832   2.297   7.855   3.987 -0.0083 -2.8621  0.2618
  562MOL0     H75833   2.273   7.888   4.154  2.3087  1.1321  2.7973
  562MOL0     H75834   2.730   7.870   4.648  0.8172 -0.6931 -1.2783
  562MOL0     H75835   2.674   7.953   4.883 -0.3311  0.6076 -1.2620
  562MOL0     H75836   2.291   8.099   4.988  0.9389  0.8014 -0.3367
  562MOL0     H75837   2.247   7.934   5.016  2.6993 -1.9760 -2.6014
  562MOL0     H75838   2.242   8.088   5.230  1.2725 -1.1190  4.4749
  562MOL0     H75839   2.319   7.931   5.242  0.3579 -0.3328 -1.5467
  562MOL0     H75840   2.545   8.042   5.236  0.5013  0.6449  1.5020
  562MOL0     H75841   2.434   8.086   5.367  1.7651 -1.3355 -0.0550
  562MOL0     H75842   2.485   8.239   5.116  1.7414  1.3558  0.0430
  562MOL0     H75843   2.399   8.304   5.256 -1.2948 -0.3360 -1.3676
  562MOL0     H75844   2.661   8.366   5.255 -0.5100 -0.2708 -0.0320
  562MOL0     H75845   2.677   8.203   5.297 -3.7739 -3.7219  0.6997
  562MOL0     H75846   2.484   8.386   5.466 -0.3241 -1.8176  2.4789
  562MOL0     H75847   2.564   8.240   5.500 -0.2233  0.6284  1.4326
  562MOL0     H75848   2.693   8.518   5.425  2.2319  2.6031  2.5582
  562MOL0     H75849   2.790   8.376   5.438  3.1740  4.1174  2.3321
  562MOL0     H75850   2.680   8.538   5.668 -0.2765  0.5823 -1.8063
  562MOL0     H75851   2.833   8.505   5.624  0.2245 -0.0500  1.0709
  562MOL0     H75852   2.257   7.916   4.797 -0.5849 -1.1643 -0.1812
  562MOL0     H75853   2.315   7.856   4.553 -1.0453  1.3168  0.2104
  562MOL0     H75854   2.613   7.568   4.351  0.2836 -1.6049 -1.0374
  562MOL0     H75855   2.621   7.411   4.167 -0.1579 -0.1900  3.0230
  562MOL0     H75856   2.416   7.236   2.035 -1.4816 -1.3722 -1.1245
  562MOL0     H75857   2.477   7.267   1.789  1.3787  1.1384 -0.4966
  562MOL0     H75858   2.461   7.265   1.364 -0.5861 -2.1558 -3.8779
  562MOL0     H75859   2.527   7.409   1.174  0.9451 -0.9678 -0.9736
  562MOL0     H75860   2.650   7.458   0.972 -1.5630  3.2886 -2.8787
  562MOL0     H75861   2.622   7.606   1.061  1.3872  1.7795  0.2433
  562MOL0     H75862   2.867   7.575   0.871  1.5719  5.4868 -2.0416
  562MOL0     H75863   2.818   7.720   0.940  0.7724  0.2866  1.5146
  562MOL0     H75864   2.627   7.719   0.802 -0.5366 -0.9843  0.1018
  562MOL0     H75865   2.630   7.550   0.767  0.8859  0.7300 -2.7695
  562MOL0     H75866   2.699   7.691   0.568  0.6155 -0.3130 -0.9401
  562MOL0     H75867   2.811   7.566   0.613 -0.3899 -0.0798  0.0983
  562MOL0     H75868   3.028   7.925   0.723  0.3823  0.8073 -1.0132
  562MOL0     H75869   2.928   7.436   1.344 -0.6984  1.6802 -2.7811
  562MOL0     H75870   2.870   7.288   1.519  0.5167  0.7771 -0.2129
  563MOL0     O75871   8.956   3.894   6.446 -0.4012  0.2660  0.6971
  563MOL0     C75872   8.999   3.912   6.324  0.1986 -0.5515 -0.3963
  563MOL0     O75873   8.996   4.030   6.262 -0.6833 -0.2279 -0.1605
  563MOL0     C75874   8.946   4.141   6.333 -0.4866  0.2516 -0.1852
  563MOL0     C75875   8.989   4.171   6.467  1.0499  0.5951 -0.1014
  563MOL0     C75876   8.964   4.302   6.516  0.2746 -0.0289 -0.3996
  563MOL0     C75877   8.895   4.401   6.438  0.7046  0.3706 -0.2619
  563MOL0     O75878   8.872   4.529   6.481 -0.5662  0.6574 -0.1227
  563MOL0     C75879   8.942   4.562   6.602 -0.6757  0.2294 -0.0905
  563MOL0     C75880   8.942   4.709   6.640  1.0737 -0.0150  0.3083
  563MOL0     C75881   9.000   4.815   6.543  0.2071 -0.5245  0.8769
  563MOL0     C75882   9.005   4.954   6.601  0.3091 -0.4366 -0.5445
  563MOL0     C75883   9.036   5.058   6.491  0.0191  0.8308 -0.6537
  563MOL0     C75884   8.918   5.085   6.399 -0.6349 -0.5486  0.5620
  563MOL0     C75885   8.963   5.156   6.259 -0.7136 -0.5127  0.0397
  563MOL0     C75886   8.835   5.215   6.194 -0.1963 -0.0074 -0.6239
  563MOL0     N75887   8.857   5.275   6.071 -0.0331  0.1309 -0.4818
  563MOL0     C75888   8.902   5.208   5.954 -0.3500 -0.9935 -1.1431
  563MOL0     C75889   8.916   5.313   5.865  0.0130 -0.0931 -0.3388
  563MOL0     C75890   8.957   5.289   5.728 -0.4777  1.2439  0.3114
  563MOL0     C75891   8.831   5.240   5.643 -0.2818 -0.2813  0.0975
  563MOL0     C75892   8.872   5.155   5.524 -0.7426  0.1197  1.1027
  563MOL0     C75893   8.768   5.158   5.404  0.2837  1.2097 -0.5811
  563MOL0     O75894   8.642   5.094   5.441  0.1430  0.2513 -0.2453
  563MOL0     C75895   8.639   4.964   5.486 -0.4641  0.2585  0.1283
  563MOL0     C75896   8.527   4.921   5.563 -0.5964  0.0232 -0.2579
  563MOL0     C75897   8.506   4.792   5.620  0.3144 -0.5402 -0.1447
  563MOL0     C75898   8.371   4.762   5.688  0.3837  0.4801  0.3183
  563MOL0     C75899   8.613   4.706   5.609 -0.0760  0.7088  1.1177
  563MOL0     C75900   8.602   4.580   5.681 -0.2036  0.4192  0.3295
  563MOL0     O75901   8.705   4.499   5.652  0.4433  0.3315  0.4271
  563MOL0     C75902   8.722   4.382   5.730 -0.7727 -0.2797  0.1802
  563MOL0     C75903   8.656   4.329   5.839 -0.7360 -0.4875  0.3949
  563MOL0     C75904   8.686   4.200   5.896 -0.2178  0.5034 -0.1216
  563MOL0     C75905   8.790   4.128   5.839 -0.2232  0.0721  0.1575
  563MOL0     O75906   8.840   4.013   5.898 -0.2624 -0.2251  0.1374
  563MOL0     C75907   8.783   3.887   5.863 -0.6503 -0.2983  0.5679
  563MOL0     C75908   8.858   3.834   5.736 -0.7855  1.0176 -0.5236
  563MOL0     C75909   9.006   3.812   5.759 -0.1422  0.0853  0.2352
  563MOL0     C75910   9.082   3.780   5.628  0.3691  0.0228  0.2000
  563MOL0     C75911   9.230   3.791   5.653 -0.2550  0.7142  0.5203
  563MOL0     C75912   9.321   3.774   5.523  0.3723  0.4315  0.5350
  563MOL0     C75913   9.471   3.768   5.560 -1.6180 -0.2787 -0.4368
  563MOL0     C75914   9.546   3.701   5.447  0.2817 -0.1124  0.0221
  563MOL0    Cl75915   9.531   3.808   5.304  0.2639 -0.0901  0.0545
  563MOL0     C75916   8.864   4.181   5.725  0.6587  0.5884 -0.0977
  563MOL0     C75917   8.822   4.305   5.671 -0.2958 -0.1434  0.5041
  563MOL0     O75918   8.523   4.579   5.778 -1.1433 -0.0556  0.8955
  563MOL0     C75919   8.726   4.744   5.529 -0.9498 -0.5761  0.4030
  563MOL0     C75920   8.737   4.868   5.460  0.9122  0.3821 -0.2232
  563MOL0     N75921   8.880   5.430   5.929  0.5272  0.3702  0.4249
  563MOL0     N75922   8.847   5.403   6.046 -0.3684  0.5694  0.0270
  563MOL0     C75923   8.846   4.364   6.313  1.1920  1.2228 -0.2655
  563MOL0     C75924   8.875   4.238   6.264 -0.2692  0.3045  1.4579
  563MOL0     C75925   9.057   3.795   6.247 -0.9097 -0.4188 -0.7370
  563MOL0     C75926   9.087   3.789   6.107  0.4404  0.1538  0.4222
  563MOL0     C75927   9.163   3.686   6.047  0.1202 -0.7192 -0.4569
  563MOL0     C75928   9.206   3.579   6.122  0.1005  0.8462  0.0653
  563MOL0     O75929   9.267   3.485   6.048 -0.2548  0.0949 -0.5328
  563MOL0     C75930   9.214   3.350   6.083 -0.2707  0.2198 -0.9782
  563MOL0     C75931   9.177   3.276   5.953 -0.0973  0.6105  0.0109
  563MOL0     C75932   9.306   3.241   5.877  0.0269 -0.2933  0.0717
  563MOL0     C75933   9.282   3.202   5.730  0.2201 -0.1210  0.0207
  563MOL0     C75934   9.231   3.316   5.636  0.9124 -0.4323 -0.3594
  563MOL0     C75935   9.194   3.411   5.573 -1.2015 -0.6955 -0.0758
  563MOL0     C75936   9.192   3.584   6.263 -0.4114  0.1051  0.3681
  563MOL0     C75937   9.110   3.682   6.323  0.1594 -0.9012  0.3351
  563MOL0     H75938   9.063   4.109   6.517  1.6376  1.7330  0.4656
  563MOL0     H75939   9.013   4.328   6.610 -1.3794 -0.6472  0.6717
  563MOL0     H75940   8.906   4.505   6.688 -1.3303  0.1931 -0.3834
  563MOL0     H75941   9.049   4.544   6.586 -0.3604  1.5710  0.3441
  563MOL0     H75942   8.840   4.737   6.665  1.7003  0.0198  3.2284
  563MOL0     H75943   9.006   4.713   6.729 -2.7174  1.2234  3.2593
  563MOL0     H75944   9.104   4.784   6.530  1.3255  2.7473  1.1615
  563MOL0     H75945   8.943   4.793   6.452  0.6259  0.1169  0.4535
  563MOL0     H75946   8.909   4.974   6.649  0.2724  0.8080 -1.0924
  563MOL0     H75947   9.076   4.949   6.684  0.0382  2.2595 -0.0494
  563MOL0     H75948   9.072   5.143   6.549  2.5603  1.2043 -2.6018
  563MOL0     H75949   9.124   5.024   6.436  1.7299  1.9511  1.2396
  563MOL0     H75950   8.857   4.996   6.382  2.4955 -2.2701 -3.5122
  563MOL0     H75951   8.856   5.155   6.455 -0.6960 -0.2737  0.1540
  563MOL0     H75952   9.036   5.234   6.282  0.6643 -1.7499 -0.0680
  563MOL0     H75953   9.017   5.087   6.194  2.2109 -0.2743  2.0349
  563MOL0     H75954   8.774   5.287   6.251  0.9441  0.1053  0.4981
  563MOL0     H75955   8.779   5.123   6.174  0.6421 -0.6412 -0.0991
  563MOL0     H75956   8.919   5.101   5.947  1.0660 -0.7877 -1.2734
  563MOL0     H75957   8.987   5.388   5.692 -2.2291  0.7859 -2.7994
  563MOL0     H75958   9.042   5.223   5.711 -1.8591 -1.1892  2.2823
  563MOL0     H75959   8.776   5.331   5.617  2.2449  1.5346  0.7471
  563MOL0     H75960   8.763   5.196   5.717 -2.6133  2.8558  0.0430
  563MOL0     H75961   8.879   5.052   5.560 -1.5996 -0.8819 -1.3657
  563MOL0     H75962   8.966   5.176   5.473 -0.8642 -3.1646 -0.8218
  563MOL0     H75963   8.796   5.088   5.325  3.2667 -0.4290  1.7202
  563MOL0     H75964   8.754   5.258   5.362 -2.4731  0.9792 -0.4172
  563MOL0     H75965   8.446   4.993   5.570 -0.6806 -0.2052  2.1675
  563MOL0     H75966   8.289   4.822   5.648 -1.2069 -0.5866  1.8573
  563MOL0     H75967   8.347   4.659   5.663  2.5378 -0.2948  1.2178
  563MOL0     H75968   8.370   4.763   5.797  2.6078  0.5448  0.3840
  563MOL0     H75969   8.571   4.381   5.883 -2.3469 -0.0571 -2.9298
  563MOL0     H75970   8.632   4.151   5.976  2.5667  0.7943  2.0960
  563MOL0     H75971   8.783   3.812   5.943 -3.4229  0.3950  1.3279
  563MOL0     H75972   8.674   3.893   5.855 -0.6255 -1.8219 -2.3718
  563MOL0     H75973   8.817   3.741   5.695  2.3171  0.0829 -1.8206
  563MOL0     H75974   8.855   3.908   5.655  2.1908  0.1547 -1.5581
  563MOL0     H75975   9.020   3.729   5.829  1.2805  1.0987  1.2047
  563MOL0     H75976   9.055   3.902   5.797  2.6165 -0.1827 -2.3425
  563MOL0     H75977   9.064   3.679   5.588 -0.7663 -0.6648  2.3071
  563MOL0     H75978   9.068   3.857   5.552  1.9236 -1.0298 -1.2472
  563MOL0     H75979   9.260   3.723   5.734  2.1050  1.9499  0.8052
  563MOL0     H75980   9.258   3.887   5.697 -0.2076  1.7744 -1.7000
  563MOL0     H75981   9.298   3.695   5.451  1.5600  3.0186 -2.8822
  563MOL0     H75982   9.302   3.862   5.461 -1.6589 -1.3447 -1.5802
  563MOL0     H75983   9.490   3.720   5.656  0.7308 -0.1038 -0.7531
  563MOL0     H75984   9.520   3.866   5.567 -0.2541 -0.9110 -0.8092
  563MOL0     H75985   9.495   3.607   5.422 -0.0939 -0.7717  2.9008
  563MOL0     H75986   9.651   3.681   5.469  0.5728  2.0327  0.7914
  563MOL0     H75987   8.938   4.115   5.682  0.6384 -0.2326  1.0877
  563MOL0     H75988   8.860   4.347   5.578 -1.3173 -0.4929 -0.0877
  563MOL0     H75989   8.807   4.673   5.516 -0.7471  0.1659 -3.4028
  563MOL0     H75990   8.830   4.878   5.404  1.6645 -3.0423  0.1924
  563MOL0     H75991   8.778   4.434   6.266 -1.8037 -3.5972 -4.0005
  563MOL0     H75992   8.834   4.221   6.164  1.0881  2.3768  0.4685
  563MOL0     H75993   9.067   3.857   6.025 -1.9754 -2.0043 -0.9099
  563MOL0     H75994   9.179   3.694   5.940 -0.8745 -1.5273 -0.6794
  563MOL0     H75995   9.290   3.301   6.144 -2.2011  1.3214  2.5695
  563MOL0     H75996   9.125   3.357   6.147 -0.3027  0.2159 -1.0239
  563MOL0     H75997   9.105   3.334   5.895 -1.0924  1.2126  1.7682
  563MOL0     H75998   9.129   3.184   5.986  0.9203  0.3456  0.7952
  563MOL0     H75999   9.347   3.150   5.921 -0.6534  0.1082  1.6075
  563MOL0     H76000   9.386   3.315   5.888 -1.7548  1.4584  2.1114
  563MOL0     H76001   9.200   3.131   5.741 -0.8986  1.0849 -0.1779
  563MOL0     H76002   9.376   3.166   5.688  1.4115  2.5079  0.1876
  563MOL0     H76003   9.185   3.502   5.517  1.6185  1.1242  2.1449
  563MOL0     H76004   9.215   3.493   6.317 -3.4887  0.0509  1.7609
  563MOL0     H76005   9.097   3.682   6.431 -0.5415 -2.1006  0.2638
  564MOL0     O76006   6.233   8.759   4.795 -0.9664  0.8574 -0.3000
  564MOL0     C76007   6.126   8.708   4.772 -0.4653 -0.2693 -0.7776
  564MOL0     O76008   6.053   8.727   4.659 -0.2263 -0.0509 -0.0637
  564MOL0     C76009   6.116   8.821   4.570  0.4469  0.1021 -0.2239
  564MOL0     C76010   6.101   8.965   4.578 -1.2119 -0.9260 -0.9285
  564MOL0     C76011   6.185   9.045   4.496 -0.7261 -0.0758 -1.5918
  564MOL0     C76012   6.269   8.983   4.400  0.3326 -1.0055 -0.6498
  564MOL0     O76013   6.349   9.062   4.321 -0.0792 -0.3960  0.0562
  564MOL0     C76014   6.429   9.157   4.389 -0.3194 -0.4946  0.4841
  564MOL0     C76015   6.403   9.296   4.324 -0.4548 -1.4903  0.2643
  564MOL0     C76016   6.455   9.298   4.177  1.0813 -0.1071  0.2482
  564MOL0     C76017   6.610   9.328   4.165  0.3677  0.3832 -0.5498
  564MOL0     C76018   6.646   9.478   4.170 -0.4190  0.1386 -0.4182
  564MOL0     C76019   6.563   9.575   4.092 -0.7202 -0.1738  0.2503
  564MOL0     C76020   6.609   9.716   4.076 -0.6438 -0.1179  0.1522
  564MOL0     C76021   6.520   9.801   3.990 -0.9926 -0.3370  0.4033
  564MOL0     N76022   6.409   9.854   4.063  0.1475 -0.4243  0.0809
  564MOL0     C76023   6.277   9.818   4.047 -0.4057  1.0468 -0.8602
  564MOL0     C76024   6.201   9.893   4.137 -0.1202  1.4353  0.5837
  564MOL0     C76025   6.054   9.887   4.185  0.0618 -0.1660 -0.1142
  564MOL0     C76026   6.026  10.012   4.286  0.2750  0.9682 -0.7507
  564MOL0     C76027   5.883  10.035   4.298 -0.0872  0.1096 -0.0309
  564MOL0     C76028   5.846  10.131   4.399  0.1363  0.1624 -0.7314
  564MOL0     O76029   5.710  10.174   4.396  0.1745  0.1576  0.4958
  564MOL0     C76030   5.620  10.090   4.458 -0.1585 -0.5054 -0.1053
  564MOL0     C76031   5.546  10.015   4.377  0.4111 -0.6010  0.1433
  564MOL0     C76032   5.462   9.916   4.434  0.5171 -0.3964  0.4655
  564MOL0     C76033   5.382   9.827   4.343  0.5145 -0.1019  0.0244
  564MOL0     C76034   5.441   9.904   4.575  0.7186 -0.4739  0.0668
  564MOL0     C76035   5.342   9.816   4.652  0.8340  0.6011 -0.7043
  564MOL0     O76036   5.243   9.750   4.585 -0.2074 -0.3014 -1.0915
  564MOL0     C76037   5.126   9.732   4.649 -0.1528 -0.7117 -0.3218
  564MOL0     C76038   5.091   9.600   4.685 -0.0749  0.4656 -0.3210
  564MOL0     C76039   4.966   9.578   4.740  0.0256 -0.2630  0.1993
  564MOL0     C76040   4.875   9.675   4.759 -0.2896 -0.4421 -0.4355
  564MOL0     O76041   4.771   9.628   4.824  0.0827  0.7331 -0.1192
  564MOL0     C76042   4.644   9.676   4.779  0.7748 -0.4358 -0.7353
  564MOL0     C76043   4.552   9.718   4.904  0.4876  0.3824 -0.0342
  564MOL0     C76044   4.611   9.822   4.992 -0.3706 -0.1134  0.1031
  564MOL0     C76045   4.551   9.962   4.959  0.1296 -0.1419 -0.3165
  564MOL0     C76046   4.612  10.083   5.031  0.0619  0.3520 -1.0183
  564MOL0     C76047   4.518  10.208   5.027 -0.6841  0.1097 -0.2637
  564MOL0     C76048   4.382  10.183   5.088 -0.3852 -0.8575 -0.6589
  564MOL0     C76049   4.307  10.307   5.156 -0.8123  0.1383  0.3661
  564MOL0    Cl76050   4.375  10.374   5.311  0.0000 -0.0689 -0.0732
  564MOL0     C76051   4.910   9.812   4.746 -0.5262 -1.1287  1.2048
  564MOL0     C76052   5.037   9.837   4.685 -0.5520  0.5784 -0.1010
  564MOL0     O76053   5.361   9.806   4.775 -0.0277  0.0897  0.1222
  564MOL0     C76054   5.518   9.994   4.656 -0.5427 -0.3705  0.7828
  564MOL0     C76055   5.607  10.081   4.598 -0.0713 -0.2016  0.6079
  564MOL0     N76056   6.294   9.974   4.202 -0.4860 -0.0941  0.9873
  564MOL0     N76057   6.409   9.951   4.151  0.8745  0.6835 -0.2738
  564MOL0     C76058   6.260   8.851   4.381  0.4393 -0.3530 -0.3127
  564MOL0     C76059   6.182   8.774   4.465  0.1362  0.3067 -0.2659
  564MOL0     C76060   6.060   8.635   4.884 -0.3907 -0.0598  0.3601
  564MOL0     C76061   6.131   8.569   4.995 -0.0471 -0.8594  0.6880
  564MOL0     C76062   6.063   8.488   5.091  0.1162  0.1998 -0.5797
  564MOL0     C76063   5.922   8.481   5.102  0.0666  0.1624  1.0399
  564MOL0     O76064   5.840   8.428   5.190  0.2585  0.3871  0.0050
  564MOL0     C76065   5.903   8.362   5.302  0.4139 -0.8500 -0.4792
  564MOL0     C76066   5.917   8.483   5.409 -0.2673  0.3833 -0.0813
  564MOL0     C76067   6.004   8.445   5.534  0.0882  0.3959 -0.7447
  564MOL0     C76068   6.064   8.549   5.620  0.0337  0.3732 -0.5713
  564MOL0     C76069   5.972   8.658   5.661  0.0294  0.3809 -0.9006
  564MOL0     C76070   5.886   8.721   5.716 -0.2914  0.1473 -0.6456
  564MOL0     C76071   5.853   8.553   5.003  0.1162  1.4032  0.2975
  564MOL0     C76072   5.923   8.627   4.906 -0.5829  0.6286 -1.2309
  564MOL0     H76073   6.026   9.004   4.645 -0.3674  0.9153 -0.9864
  564MOL0     H76074   6.178   9.151   4.521 -1.1456 -0.2148 -1.0853
  564MOL0     H76075   6.404   9.152   4.495 -0.7822 -0.8276  0.3614
  564MOL0     H76076   6.533   9.127   4.373 -0.0508 -0.5117  2.0663
  564MOL0     H76077   6.295   9.312   4.317 -0.0210  2.0016  0.1635
  564MOL0     H76078   6.447   9.378   4.381 -2.2806 -0.9240  0.9404
  564MOL0     H76079   6.424   9.214   4.114 -0.6152 -0.5911  1.6744
  564MOL0     H76080   6.403   9.387   4.141 -1.8505 -0.6160  2.8314
  564MOL0     H76081   6.656   9.268   4.244  0.8701  2.3448  0.7296
  564MOL0     H76082   6.648   9.290   4.070 -2.4440  1.6892 -2.3368
  564MOL0     H76083   6.642   9.505   4.276  1.2215 -3.2613  0.6490
  564MOL0     H76084   6.752   9.495   4.149 -0.5122  2.5582  0.7038
  564MOL0     H76085   6.555   9.526   3.994  3.0151  2.0351 -1.3857
  564MOL0     H76086   6.468   9.590   4.144  0.6096 -1.5431  3.3006
  564MOL0     H76087   6.632   9.757   4.175  0.7972 -0.3366 -0.0624
  564MOL0     H76088   6.701   9.713   4.017 -1.8662 -1.4633 -1.7910
  564MOL0     H76089   6.501   9.750   3.895  1.7940  0.6503 -0.7938
  564MOL0     H76090   6.575   9.888   3.951 -1.6929 -0.8281 -1.8590
  564MOL0     H76091   6.242   9.733   3.990  1.1282 -0.7592  0.7484
  564MOL0     H76092   5.979   9.898   4.106 -1.6729 -0.5948  1.4065
  564MOL0     H76093   6.036   9.800   4.249  2.5067  0.3195  1.3643
  564MOL0     H76094   6.063  10.104   4.239  1.5365  0.6506 -0.3971
  564MOL0     H76095   6.071  10.010   4.386 -0.8096  2.7634 -0.1742
  564MOL0     H76096   5.822   9.946   4.315  1.3625 -1.2306 -1.4231
  564MOL0     H76097   5.850  10.066   4.198  2.9253 -1.1163 -1.5562
  564MOL0     H76098   5.903  10.224   4.395 -3.1269  2.5728  2.2313
  564MOL0     H76099   5.881  10.090   4.495 -0.4657  0.0909 -0.5382
  564MOL0     H76100   5.562  10.030   4.271 -1.1190  0.2757  0.0158
  564MOL0     H76101   5.283   9.866   4.318  0.8938 -1.3682 -4.5079
  564MOL0     H76102   5.433   9.819   4.246 -0.7250  2.3386 -0.9090
  564MOL0     H76103   5.362   9.727   4.383 -2.1525  1.0069  1.6542
  564MOL0     H76104   5.146   9.508   4.666  0.3383  0.6120  0.1641
  564MOL0     H76105   4.939   9.476   4.766 -0.1472  0.2769  2.3223
  564MOL0     H76106   4.661   9.768   4.722  0.7342  1.4874  2.1626
  564MOL0     H76107   4.576   9.613   4.720 -1.2461  1.0278 -0.0726
  564MOL0     H76108   4.452   9.752   4.878  0.0058  0.4856  1.7920
  564MOL0     H76109   4.535   9.630   4.967 -3.1886  1.1998  0.3037
  564MOL0     H76110   4.720   9.823   4.985 -0.3521 -0.4453  0.3029
  564MOL0     H76111   4.588   9.802   5.097  2.1527 -0.8450  0.5935
  564MOL0     H76112   4.539   9.988   4.854  1.0420 -0.4021 -0.4930
  564MOL0     H76113   4.447   9.960   4.996 -0.0342 -0.4611 -0.7793
  564MOL0     H76114   4.713  10.107   4.995 -0.5526  1.7681 -1.8805
  564MOL0     H76115   4.625  10.072   5.139 -3.1272  0.6304 -0.5295
  564MOL0     H76116   4.566  10.297   5.067  1.8005 -0.8258 -0.9535
  564MOL0     H76117   4.500  10.235   4.922  1.7413 -0.8131 -0.9792
  564MOL0     H76118   4.382  10.096   5.153 -0.3529  0.0987  0.6701
  564MOL0     H76119   4.308  10.152   5.014 -0.6702  0.9787 -1.2152
  564MOL0     H76120   4.201  10.285   5.166 -0.9824 -1.4264 -3.3694
  564MOL0     H76121   4.314  10.382   5.077 -0.2462 -1.5538 -1.2692
  564MOL0     H76122   4.847   9.899   4.762  1.8498  0.5628  1.9107
  564MOL0     H76123   5.071   9.933   4.646  4.0640 -1.5173 -2.1295
  564MOL0     H76124   5.490  10.010   4.760  3.8413  3.7479  1.6669
  564MOL0     H76125   5.656  10.145   4.671 -0.6245 -1.1440  1.8557
  564MOL0     H76126   6.317   8.804   4.302  1.8927 -0.1306  0.5602
  564MOL0     H76127   6.189   8.666   4.466 -0.5005  0.1311  3.8741
  564MOL0     H76128   6.239   8.573   4.990 -0.0664 -1.8572 -1.6572
  564MOL0     H76129   6.129   8.438   5.162  0.4036  0.7675 -0.4406
  564MOL0     H76130   5.851   8.273   5.338  2.2720 -2.1872 -0.9325
  564MOL0     H76131   6.002   8.318   5.283  1.2622  0.6048  0.4084
  564MOL0     H76132   5.819   8.521   5.439  0.2620  1.3738  0.4318
  564MOL0     H76133   5.959   8.573   5.364  1.1560  0.2921  0.9937
  564MOL0     H76134   6.081   8.380   5.491 -0.9511 -1.4225 -0.0053
  564MOL0     H76135   5.951   8.369   5.593  1.3811 -2.0771 -2.5801
  564MOL0     H76136   6.150   8.579   5.559  0.6482 -2.7355 -1.3590
  564MOL0     H76137   6.110   8.507   5.710 -0.4842 -1.1061 -0.9760
  564MOL0     H76138   5.802   8.775   5.753 -0.3190 -1.9293  2.7978
  564MOL0     H76139   5.745   8.547   4.996  0.2118  1.4492 -2.2051
  564MOL0     H76140   5.868   8.675   4.826 -0.1960 -0.6237 -2.2670
  565MOL0     O76141   7.951   5.895   0.227 -0.0726  0.1995 -0.0447
  565MOL0     C76142   8.069   5.911   0.221 -1.0278 -0.5310  0.3496
  565MOL0     O76143   8.139   6.029   0.220  0.1632 -0.6257  0.2487
  565MOL0     C76144   8.070   6.141   0.201  0.2244  0.1118 -0.5576
  565MOL0     C76145   8.054   6.237   0.297 -0.5314 -0.7215 -0.2943
  565MOL0     C76146   7.993   6.362   0.275 -1.3128 -0.0178 -0.8639
  565MOL0     C76147   7.952   6.386   0.142  0.5303  0.5918  0.2486
  565MOL0     O76148   7.908   6.514   0.114  0.0289 -0.9492 -0.3217
  565MOL0     C76149   7.813   6.568   0.200 -1.0179 -0.8651  1.0712
  565MOL0     C76150   7.675   6.509   0.180  0.0614  0.6274 -0.3497
  565MOL0     C76151   7.577   6.599   0.260 -0.4112  0.1585 -0.2141
  565MOL0     C76152   7.438   6.532   0.295 -0.4320 -0.0678 -0.2207
  565MOL0     C76153   7.321   6.631   0.276  0.2908  0.6872 -0.1313
  565MOL0     C76154   7.316   6.752   0.374  0.3436  0.3435  0.6763
  565MOL0     C76155   7.321   6.729   0.518 -0.9639 -0.6202 -0.0440
  565MOL0     C76156   7.307   6.845   0.616 -0.3514 -0.0758  0.3065
  565MOL0     N76157   7.388   6.955   0.572  0.3708 -0.8657  0.4151
  565MOL0     C76158   7.339   7.044   0.476  1.0113  0.3391  0.0127
  565MOL0     C76159   7.399   7.163   0.496  0.7070  1.1605 -0.0905
  565MOL0     C76160   7.394   7.276   0.403 -0.1476  0.7058 -0.5110
  565MOL0     C76161   7.342   7.395   0.479  0.1591 -0.3608 -0.3711
  565MOL0     C76162   7.324   7.520   0.395 -0.5408 -0.4651  0.1606
  565MOL0     C76163   7.205   7.520   0.300 -0.0290  0.0170  1.0183
  565MOL0     O76164   7.256   7.452   0.185 -0.0548  0.4231  0.1850
  565MOL0     C76165   7.194   7.483   0.064  0.9441 -0.8234 -0.2215
  565MOL0     C76166   7.057   7.507   0.059  0.2788  0.2632 -0.7275
  565MOL0     C76167   6.990   7.528  -0.065  0.2180  0.9994 -0.6246
  565MOL0     C76168   6.839   7.513  -0.060 -1.2078 -0.5776 -0.2900
  565MOL0     C76169   7.065   7.542  -0.185  0.1890  0.1803  0.1496
  565MOL0     C76170   7.012   7.542  -0.324 -0.1532 -0.3276  0.5665
  565MOL0     O76171   7.090   7.475  -0.420  0.1516 -0.2720  0.4859
  565MOL0     C76172   7.042   7.466  -0.548  0.2317  0.2477  0.4927
  565MOL0     C76173   6.977   7.344  -0.573  0.2796  0.0848  0.7069
  565MOL0     C76174   6.916   7.320  -0.695 -0.0074 -0.3041  0.1257
  565MOL0     C76175   6.928   7.418  -0.805 -0.7035 -0.0662  0.0622
  565MOL0     O76176   6.875   7.398  -0.929 -0.8481  0.5577 -0.1169
  565MOL0     C76177   6.755   7.337  -0.961 -0.2277  0.5810  0.3881
  565MOL0     C76178   6.644   7.432  -0.917 -0.1633  0.0007 -0.4255
  565MOL0     C76179   6.579   7.524  -1.024 -0.4880  0.0536 -0.1053
  565MOL0     C76180   6.495   7.437  -1.123  0.3215 -0.5058 -0.7869
  565MOL0     C76181   6.359   7.505  -1.155 -0.0168 -0.7425  0.0923
  565MOL0     C76182   6.374   7.598  -1.287 -1.0196 -0.1038 -0.0819
  565MOL0     C76183   6.252   7.693  -1.305 -0.8654  0.0911 -0.8759
  565MOL0     C76184   6.210   7.760  -1.177 -0.3516 -0.5587 -1.0407
  565MOL0    Cl76185   6.356   7.840  -1.094 -0.0799 -0.5551  0.3094
  565MOL0     C76186   7.005   7.535  -0.776 -0.5131 -0.0665 -0.4558
  565MOL0     C76187   7.061   7.561  -0.647 -1.5231  0.6615  0.5120
  565MOL0     O76188   6.911   7.600  -0.343  0.1813  0.5221 -0.0338
  565MOL0     C76189   7.207   7.504  -0.172 -0.3893 -0.2660 -0.4566
  565MOL0     C76190   7.269   7.469  -0.050  0.2336  0.1970  0.4697
  565MOL0     N76191   7.502   7.143   0.589  0.0229 -0.2783 -0.6191
  565MOL0     N76192   7.474   7.027   0.648  0.3344  0.9163  0.1258
  565MOL0     C76193   7.962   6.286   0.040  0.3856  0.4619 -0.0309
  565MOL0     C76194   8.020   6.162   0.072 -0.8177  0.4206 -0.1382
  565MOL0     C76195   8.159   5.798   0.230 -0.3695  0.3503  0.6979
  565MOL0     C76196   8.109   5.681   0.282 -0.9249  0.6738  0.6107
  565MOL0     C76197   8.200   5.583   0.327  0.4820 -0.0578 -0.4856
  565MOL0     C76198   8.338   5.589   0.306  0.3566  0.0058  0.1395
  565MOL0     O76199   8.411   5.480   0.349  0.2319 -0.1827 -0.2912
  565MOL0     C76200   8.547   5.501   0.384 -0.1120 -0.2098  0.2839
  565MOL0     C76201   8.613   5.392   0.474  0.2573 -0.4692 -0.3971
  565MOL0     C76202   8.760   5.401   0.507 -0.1268  0.0331  0.1407
  565MOL0     C76203   8.800   5.326   0.625 -0.0982  0.2676 -0.3081
  565MOL0     C76204   8.752   5.193   0.624  0.0383  0.6383 -0.1395
  565MOL0     C76205   8.706   5.079   0.624  0.3213 -0.1198  0.2286
  565MOL0     C76206   8.384   5.704   0.247  0.1261 -0.1308 -0.2131
  565MOL0     C76207   8.300   5.818   0.211 -0.5094  0.5771  0.4255
  565MOL0     H76208   8.091   6.200   0.392 -1.2892  1.3341  0.8800
  565MOL0     H76209   7.978   6.431   0.358  3.6960 -0.1986  0.5514
  565MOL0     H76210   7.844   6.585   0.303 -3.1719  1.9008  1.3854
  565MOL0     H76211   7.801   6.671   0.167  0.3845 -1.0218 -0.0221
  565MOL0     H76212   7.649   6.505   0.073  0.7659 -0.0181 -0.5077
  565MOL0     H76213   7.671   6.407   0.219 -1.6686  0.7937 -0.0206
  565MOL0     H76214   7.635   6.623   0.350  3.4058  2.4066 -2.9824
  565MOL0     H76215   7.561   6.692   0.206 -3.3909  0.6079  1.2396
  565MOL0     H76216   7.415   6.443   0.236 -3.1327  0.5521 -0.2398
  565MOL0     H76217   7.455   6.500   0.397  1.1907 -0.0217 -0.4498
  565MOL0     H76218   7.332   6.661   0.171  0.1047 -0.2462 -0.4257
  565MOL0     H76219   7.230   6.574   0.293  0.9874 -0.5876 -0.5068
  565MOL0     H76220   7.393   6.823   0.342  0.0772  0.6409  0.6838
  565MOL0     H76221   7.210   6.775   0.361 -0.8470 -4.5476 -0.4826
  565MOL0     H76222   7.245   6.654   0.542  1.6253 -2.1330  4.6274
  565MOL0     H76223   7.422   6.688   0.529 -1.4914 -1.8349  0.5436
  565MOL0     H76224   7.340   6.819   0.717  3.5596  3.0043  0.0483
  565MOL0     H76225   7.205   6.883   0.630 -0.1702  0.7899 -0.6426
  565MOL0     H76226   7.257   7.038   0.405  1.0112  0.4492  0.0023
  565MOL0     H76227   7.483   7.314   0.351  0.7904  1.9508  1.8799
  565MOL0     H76228   7.316   7.243   0.333  0.2494 -1.4299 -0.0031
  565MOL0     H76229   7.413   7.422   0.558 -0.0209 -2.8806  0.7547
  565MOL0     H76230   7.254   7.363   0.535 -0.3685  0.6886 -0.5832
  565MOL0     H76231   7.415   7.565   0.354 -0.6011  0.7652  1.3043
  565MOL0     H76232   7.297   7.598   0.466  1.0434 -0.3897  0.7075
  565MOL0     H76233   7.179   7.623   0.275 -4.0478 -0.5610  2.0804
  565MOL0     H76234   7.117   7.467   0.339 -0.8173 -0.4235 -1.1868
  565MOL0     H76235   6.999   7.499   0.150  0.5307  2.3904 -0.3141
  565MOL0     H76236   6.814   7.407  -0.075  2.4497 -2.1437  2.9427
  565MOL0     H76237   6.804   7.536   0.041  0.2277 -0.7184  0.2674
  565MOL0     H76238   6.795   7.575  -0.138  0.2445  1.9113  0.7670
  565MOL0     H76239   6.970   7.256  -0.509 -0.0716  1.5483  2.7933
  565MOL0     H76240   6.879   7.222  -0.722  0.1972 -0.0483 -1.1373
  565MOL0     H76241   6.752   7.331  -1.070 -0.6265 -0.5681  0.4457
  565MOL0     H76242   6.745   7.236  -0.920 -0.8156  0.9095  1.0657
  565MOL0     H76243   6.564   7.375  -0.870  1.8412 -1.2760  1.6358
  565MOL0     H76244   6.680   7.506  -0.845 -0.7664 -1.6705  1.6959
  565MOL0     H76245   6.657   7.565  -1.090  0.5231  0.4106  1.2810
  565MOL0     H76246   6.524   7.610  -0.986  0.6827  0.3808  0.8957
  565MOL0     H76247   6.552   7.427  -1.216 -0.6217  0.7631 -1.5545
  565MOL0     H76248   6.485   7.341  -1.073  4.7603 -0.8522 -0.1662
  565MOL0     H76249   6.321   7.557  -1.067  2.2285  0.3607  0.4728
  565MOL0     H76250   6.300   7.416  -1.177 -0.3964 -1.2539  2.8151
  565MOL0     H76251   6.463   7.661  -1.280  0.5903 -2.2306 -0.2914
  565MOL0     H76252   6.395   7.526  -1.367 -0.3662  0.2711 -0.2563
  565MOL0     H76253   6.165   7.641  -1.346  1.3168 -3.4101 -1.4902
  565MOL0     H76254   6.283   7.776  -1.370 -1.1931  1.3772  0.5548
  565MOL0     H76255   6.166   7.702  -1.096  3.3929  0.5427  2.0815
  565MOL0     H76256   6.133   7.832  -1.206  0.5002  0.0369 -1.9027
  565MOL0     H76257   7.027   7.602  -0.858  1.4104  0.2262  0.2473
  565MOL0     H76258   7.123   7.646  -0.617 -1.9791  0.5566  1.8249
  565MOL0     H76259   7.267   7.512  -0.262  1.1503 -3.1308  0.2090
  565MOL0     H76260   7.372   7.437  -0.047 -0.3942 -1.9932  0.4647
  565MOL0     H76261   7.921   6.311  -0.057 -4.2667  0.1505  1.6250
  565MOL0     H76262   8.046   6.081   0.004  0.2950 -0.6969  1.5305
  565MOL0     H76263   8.003   5.657   0.279 -0.7160 -0.2505 -2.2613
  565MOL0     H76264   8.151   5.499   0.377  1.1013 -1.3851 -2.0317
  565MOL0     H76265   8.613   5.493   0.297  1.0112 -0.8973  1.1859
  565MOL0     H76266   8.564   5.596   0.434  1.1384  0.4511 -1.3093
  565MOL0     H76267   8.596   5.293   0.430  1.2715 -0.7207 -0.2447
  565MOL0     H76268   8.560   5.403   0.568  1.1003 -0.1592  0.0486
  565MOL0     H76269   8.773   5.508   0.521  1.2490  0.3069 -2.5252
  565MOL0     H76270   8.816   5.371   0.418 -1.6981  2.8770 -1.9430
  565MOL0     H76271   8.761   5.386   0.708  0.4206 -1.2642  1.1046
  565MOL0     H76272   8.909   5.327   0.634  0.1433  2.2133 -2.5739
  565MOL0     H76273   8.667   4.979   0.631  0.7696 -0.2118  1.9467
  565MOL0     H76274   8.488   5.734   0.240 -0.3566  1.2959 -2.7738
  565MOL0     H76275   8.341   5.909   0.169 -2.3071  0.7240 -1.1220
  566MOL0     O76276   7.622   2.177   2.729  0.1835  1.0555 -0.6898
  566MOL0     C76277   7.653   2.182   2.610 -0.2670  0.4423  1.1806
  566MOL0     O76278   7.624   2.084   2.521 -0.1257  0.3486  0.4726
  566MOL0     C76279   7.552   1.969   2.558 -0.4886 -0.5645 -0.1521
  566MOL0     C76280   7.439   1.950   2.488  0.6631  0.5631  0.2559
  566MOL0     C76281   7.374   1.832   2.499 -1.5003  0.2981 -0.4262
  566MOL0     C76282   7.427   1.724   2.580  0.9061 -0.4046  0.8028
  566MOL0     O76283   7.359   1.612   2.599 -1.1216 -0.0808  0.4635
  566MOL0     C76284   7.441   1.495   2.578 -0.1455  0.8075 -0.2231
  566MOL0     C76285   7.364   1.370   2.515 -1.1948 -0.3030 -0.8372
  566MOL0     C76286   7.257   1.317   2.611  0.5626 -0.5962  0.1285
  566MOL0     C76287   7.197   1.185   2.568  0.1526 -0.4093 -0.0917
  566MOL0     C76288   7.130   1.111   2.676  0.4133 -0.4447 -0.6847
  566MOL0     C76289   7.097   0.980   2.610  0.6135  0.0626  0.3795
  566MOL0     C76290   7.033   0.886   2.712  0.5499 -0.5306  0.6856
  566MOL0     C76291   7.004   0.750   2.655 -0.3891  0.0350  1.4357
  566MOL0     N76292   7.126   0.685   2.594  0.8593 -0.3187 -0.1191
  566MOL0     C76293   7.232   0.648   2.671  0.5268  0.4445 -0.6185
  566MOL0     C76294   7.306   0.565   2.593  0.2128 -0.8880 -0.3762
  566MOL0     C76295   7.418   0.473   2.631 -0.1924  0.1531  0.4539
  566MOL0     C76296   7.358   0.340   2.690  0.6827  0.8120 -0.3593
  566MOL0     C76297   7.328   0.229   2.579 -0.8960 -0.0665 -0.6455
  566MOL0     C76298   7.267   0.113   2.644  1.1432  0.2556 -0.4920
  566MOL0     O76299   7.252  -0.010   2.569  0.7367 -0.6257  0.3601
  566MOL0     C76300   7.183  -0.112   2.624  0.6894 -0.0345 -0.4797
  566MOL0     C76301   7.112  -0.110   2.744  0.1411  0.1868 -0.0540
  566MOL0     C76302   7.064  -0.233   2.792 -0.2061  1.0522  0.2882
  566MOL0     C76303   7.011  -0.246   2.935  0.7075  0.3028  0.7687
  566MOL0     C76304   7.066  -0.347   2.711 -0.9933 -0.1131  0.4400
  566MOL0     C76305   7.013  -0.486   2.745  0.0799 -0.8811  1.0714
  566MOL0     O76306   6.935  -0.531   2.656  0.1292  0.8586 -0.0695
  566MOL0     C76307   6.922  -0.669   2.619 -0.6523  0.3048 -1.2439
  566MOL0     C76308   6.814  -0.697   2.535  0.3677 -0.4123  0.6450
  566MOL0     C76309   6.793  -0.825   2.487  1.0489  0.0164 -0.0286
  566MOL0     C76310   6.878  -0.925   2.534  0.0628  0.0008 -0.3744
  566MOL0     O76311   6.853  -1.058   2.487  0.0996  0.5359  0.2242
  566MOL0     C76312   6.946  -1.170   2.496 -0.1778  0.4650  0.4284
  566MOL0     C76313   7.063  -1.147   2.399  0.2135  0.5917  0.7004
  566MOL0     C76314   7.065  -1.262   2.287  0.6258  0.3853 -0.8598
  566MOL0     C76315   7.052  -1.203   2.140  0.6651 -0.5780 -0.3861
  566MOL0     C76316   6.916  -1.125   2.124 -0.7589  0.2995 -0.5631
  566MOL0     C76317   6.935  -1.017   2.026  0.4770 -0.9142  0.1068
  566MOL0     C76318   6.812  -0.935   2.016 -0.4213 -0.8599 -0.1157
  566MOL0     C76319   6.823  -0.828   1.915 -0.1305  0.6127  0.3690
  566MOL0    Cl76320   6.774  -0.882   1.760  0.5011 -0.0128  0.3573
  566MOL0     C76321   6.980  -0.897   2.621 -0.5222 -0.1222  0.7756
  566MOL0     C76322   7.010  -0.762   2.662  0.2542  0.1196 -0.7196
  566MOL0     O76323   7.063  -0.548   2.840 -0.2806  0.7677  0.5672
  566MOL0     C76324   7.119  -0.341   2.579 -0.3379 -0.9233 -1.2417
  566MOL0     C76325   7.181  -0.226   2.539 -0.0271 -0.4965 -0.8957
  566MOL0     N76326   7.239   0.552   2.477  0.8010 -0.3566 -0.0568
  566MOL0     N76327   7.129   0.619   2.467 -0.6537 -1.2619  0.2877
  566MOL0     C76328   7.553   1.745   2.643 -0.3728 -0.8579  0.0940
  566MOL0     C76329   7.619   1.872   2.628 -1.0524 -0.1464 -0.7543
  566MOL0     C76330   7.742   2.295   2.565  0.6570 -0.4483 -0.0331
  566MOL0     C76331   7.755   2.326   2.428  0.2961 -0.5534 -0.6680
  566MOL0     C76332   7.837   2.425   2.383 -0.7232 -0.2317  1.2326
  566MOL0     C76333   7.908   2.504   2.470  0.4807 -0.2351 -0.1211
  566MOL0     O76334   7.981   2.607   2.417  0.5769 -0.1058 -0.3720
  566MOL0     C76335   7.980   2.728   2.499 -0.3206 -0.2324  0.1006
  566MOL0     C76336   8.093   2.812   2.441  0.2354 -0.6378 -0.3483
  566MOL0     C76337   8.091   2.947   2.518  0.7361  0.6415 -0.5325
  566MOL0     C76338   8.192   3.042   2.475 -0.1788  0.0530 -0.3891
  566MOL0     C76339   8.184   3.090   2.335 -0.1087 -0.7917 -0.2188
  566MOL0     C76340   8.193   3.131   2.219 -0.4885 -0.2371 -0.0630
  566MOL0     C76341   7.896   2.474   2.608 -0.1253  0.6597 -0.2450
  566MOL0     C76342   7.809   2.371   2.655 -0.1539  0.4164  0.1054
  566MOL0     H76343   7.397   2.027   2.423 -1.5204 -0.6312  0.1468
  566MOL0     H76344   7.282   1.820   2.444 -2.9870  1.8860  1.5730
  566MOL0     H76345   7.513   1.521   2.500 -1.4473  0.9753 -1.4082
  566MOL0     H76346   7.489   1.461   2.670 -0.2577  1.9045  0.2518
  566MOL0     H76347   7.323   1.412   2.423  1.5647  4.5826 -0.1637
  566MOL0     H76348   7.435   1.291   2.489 -0.7611 -0.4777  0.7528
  566MOL0     H76349   7.313   1.291   2.701 -0.6703 -3.6355  0.1453
  566MOL0     H76350   7.185   1.396   2.634 -1.9491 -3.0220  1.2048
  566MOL0     H76351   7.138   1.209   2.479 -3.3560  1.9056  2.5711
  566MOL0     H76352   7.286   1.128   2.537  1.4067  0.4606  1.7229
  566MOL0     H76353   7.190   1.107   2.768  0.8079 -2.4413 -0.9936
  566MOL0     H76354   7.040   1.167   2.704  1.0520  0.0204  0.5324
  566MOL0     H76355   7.024   1.003   2.532 -1.7884 -1.8796  1.9158
  566MOL0     H76356   7.193   0.936   2.580  0.7580  0.9849 -0.5721
  566MOL0     H76357   7.099   0.866   2.798  0.1794 -3.7507  0.3146
  566MOL0     H76358   6.941   0.934   2.746  0.2756 -1.2720  0.9908
  566MOL0     H76359   6.923   0.766   2.584 -0.2440 -3.2821  0.3399
  566MOL0     H76360   6.958   0.681   2.726  2.9881 -1.8258  2.0515
  566MOL0     H76361   7.247   0.687   2.771 -1.1361  1.1710 -0.6175
  566MOL0     H76362   7.470   0.459   2.536 -1.0021  1.4981 -0.2274
  566MOL0     H76363   7.488   0.527   2.696  0.7712 -0.1086 -0.3453
  566MOL0     H76364   7.265   0.355   2.745  0.0694  0.7657 -1.3570
  566MOL0     H76365   7.443   0.304   2.748 -0.0208  1.7811  1.3295
  566MOL0     H76366   7.417   0.196   2.525  1.7125 -0.1733  3.3020
  566MOL0     H76367   7.259   0.281   2.512 -0.6347  1.8133  0.4628
  566MOL0     H76368   7.166   0.143   2.673  0.8389  0.6074 -1.8672
  566MOL0     H76369   7.319   0.084   2.736 -1.8122  0.5557  1.4052
  566MOL0     H76370   7.111  -0.024   2.810  0.6543  0.1536 -0.0051
  566MOL0     H76371   6.944  -0.160   2.942 -0.6699 -0.5312 -1.2984
  566MOL0     H76372   6.956  -0.337   2.960  3.9729 -1.8855  0.6699
  566MOL0     H76373   7.095  -0.232   3.004  0.3941 -0.7992  1.4010
  566MOL0     H76374   6.752  -0.617   2.496  5.1031  3.0870 -0.6621
  566MOL0     H76375   6.716  -0.855   2.417  0.9619  2.3019 -1.0123
  566MOL0     H76376   6.989  -1.189   2.595  2.2813 -0.4270 -0.7216
  566MOL0     H76377   6.893  -1.262   2.468 -1.9975  1.5074  0.2921
  566MOL0     H76378   7.064  -1.048   2.353  2.3530  0.5688  0.6269
  566MOL0     H76379   7.165  -1.147   2.438  0.8445  0.4780 -0.8562
  566MOL0     H76380   6.989  -1.339   2.303  1.7151 -0.7826 -1.1488
  566MOL0     H76381   7.153  -1.322   2.310 -0.0793  1.2708  7.1645
  566MOL0     H76382   7.127  -1.125   2.126 -1.9840  2.0096 -1.4413
  566MOL0     H76383   7.059  -1.286   2.069 -0.2196 -1.4827  0.5541
  566MOL0     H76384   6.893  -1.086   2.223  5.7540  0.3288  1.3742
  566MOL0     H76385   6.835  -1.196   2.106  0.1561 -0.7325 -0.7090
  566MOL0     H76386   7.011  -0.949   2.064  2.3917 -0.7189 -3.6015
  566MOL0     H76387   6.975  -1.061   1.935  0.3960 -3.5448  1.2573
  566MOL0     H76388   6.817  -0.874   2.107 -4.6554 -0.0568 -0.1967
  566MOL0     H76389   6.717  -0.990   2.010 -0.5505 -0.4962 -2.3528
  566MOL0     H76390   6.920  -0.777   1.913  0.8486 -1.1785  0.4574
  566MOL0     H76391   6.742  -0.761   1.947  0.8222  1.8824  0.2159
  566MOL0     H76392   7.033  -0.984   2.659 -2.7140 -4.0116 -3.9409
  566MOL0     H76393   7.101  -0.758   2.723  0.3851 -2.2619 -0.6766
  566MOL0     H76394   7.117  -0.433   2.521 -2.2103 -2.3678  0.9461
  566MOL0     H76395   7.221  -0.222   2.439  0.5697  0.3564 -0.6300
  566MOL0     H76396   7.604   1.657   2.681  2.2251  0.4338 -0.2030
  566MOL0     H76397   7.713   1.900   2.674 -2.2898  1.8906  0.7005
  566MOL0     H76398   7.699   2.266   2.356  2.0186 -0.7149 -1.9369
  566MOL0     H76399   7.859   2.447   2.279  1.2763  3.5244  2.2610
  566MOL0     H76400   7.881   2.773   2.490 -0.1761  0.0796  0.0717
  566MOL0     H76401   8.014   2.700   2.599  2.9530  1.7802 -0.3037
  566MOL0     H76402   8.071   2.825   2.335  0.0864 -2.8640 -0.6385
  566MOL0     H76403   8.193   2.769   2.437  0.1683 -0.7169 -1.8887
  566MOL0     H76404   8.107   2.930   2.625 -1.3773  1.0791 -0.0892
  566MOL0     H76405   7.994   2.999   2.519  0.9699  1.0932 -0.8208
  566MOL0     H76406   8.292   2.999   2.487  1.0033  3.1372  2.0891
  566MOL0     H76407   8.190   3.125   2.546 -0.0990  0.4525 -0.8493
  566MOL0     H76408   8.212   3.174   2.123 -1.2863 -2.2188 -1.1501
  566MOL0     H76409   7.967   2.529   2.670 -0.0262  1.8460 -1.3630
  566MOL0     H76410   7.800   2.340   2.759 -1.2647  1.2336  0.2740
  567MOL0     O76411   9.312   5.713   3.399  0.2993 -0.1212 -0.3591
  567MOL0     C76412   9.319   5.826   3.451  0.3632 -0.7886  0.2127
  567MOL0     O76413   9.340   5.946   3.377  0.2718  1.3181 -0.1270
  567MOL0     C76414   9.355   5.938   3.241 -0.3444  0.1742 -0.0085
  567MOL0     C76415   9.270   5.873   3.153  1.0667 -0.0462  0.6472
  567MOL0     C76416   9.289   5.877   3.016 -0.4023  0.3309  1.0195
  567MOL0     C76417   9.400   5.940   2.955  0.3671  0.1631 -0.3379
  567MOL0     O76418   9.417   5.950   2.818 -0.1500  0.1280 -0.3352
  567MOL0     C76419   9.493   5.842   2.763  0.4200 -0.6047  0.2450
  567MOL0     C76420   9.415   5.719   2.769 -0.7503  0.4379 -0.8017
  567MOL0     C76421   9.428   5.611   2.663  0.1330 -0.2092  0.5922
  567MOL0     C76422   9.382   5.646   2.521 -0.1526 -0.3449  0.0791
  567MOL0     C76423   9.237   5.638   2.489  0.1740  0.8560 -0.3420
  567MOL0     C76424   9.204   5.638   2.337 -0.4182  0.7791  0.4230
  567MOL0     C76425   9.059   5.654   2.311  0.7562  0.1237 -0.6116
  567MOL0     C76426   9.003   5.801   2.331  0.1832  0.7768  0.2213
  567MOL0     N76427   8.922   5.831   2.450  0.3447 -0.4297  0.0849
  567MOL0     C76428   8.973   5.885   2.564 -0.2483 -0.5361 -1.1501
  567MOL0     C76429   8.861   5.873   2.647 -0.9098  0.2065  0.2804
  567MOL0     C76430   8.855   5.920   2.792  0.5881  0.0549 -0.1947
  567MOL0     C76431   8.858   5.794   2.885 -0.7271 -0.4161 -0.6412
  567MOL0     C76432   8.822   5.830   3.032  0.0133 -0.0760 -0.2756
  567MOL0     C76433   8.801   5.710   3.115  0.2669  0.3027  0.7552
  567MOL0     O76434   8.929   5.668   3.169 -0.0781 -0.2887  0.5162
  567MOL0     C76435   8.919   5.592   3.282  0.2116  0.0491 -0.0294
  567MOL0     C76436   8.805   5.543   3.341  0.6683 -1.5043  0.0530
  567MOL0     C76437   8.800   5.463   3.453  0.3245  0.0581  0.1669
  567MOL0     C76438   8.669   5.398   3.505 -0.0708  0.0819  0.0371
  567MOL0     C76439   8.927   5.430   3.511  0.3853 -0.0562 -1.2348
  567MOL0     C76440   8.936   5.348   3.634  0.0207 -0.8956 -1.0002
  567MOL0     O76441   8.854   5.240   3.656 -0.0657  0.3732 -0.9903
  567MOL0     C76442   8.877   5.153   3.761 -0.5120 -0.4220 -1.4492
  567MOL0     C76443   8.762   5.095   3.813 -0.4007 -0.1067 -0.9327
  567MOL0     C76444   8.781   4.987   3.902 -0.6654  0.0470 -0.9180
  567MOL0     C76445   8.910   4.940   3.930 -0.1050  0.0257 -0.6245
  567MOL0     O76446   8.922   4.822   4.005 -0.0809  0.7836  0.2827
  567MOL0     C76447   9.043   4.742   3.993  0.4359  0.2171  0.6770
  567MOL0     C76448   9.041   4.663   3.866  0.3882  0.5343  0.9064
  567MOL0     C76449   8.941   4.537   3.876 -0.7165 -0.5209  0.4839
  567MOL0     C76450   8.984   4.427   3.779  0.4612  0.6847 -0.7983
  567MOL0     C76451   9.102   4.344   3.831  1.1493  1.3048  0.1315
  567MOL0     C76452   9.092   4.198   3.782 -0.4248 -0.2400 -0.3020
  567MOL0     C76453   8.974   4.127   3.841 -0.1109  0.1406  0.2455
  567MOL0     C76454   8.961   3.992   3.770 -0.8905  0.2168  0.3841
  567MOL0    Cl76455   9.096   3.883   3.794 -0.2459  0.1557 -0.3042
  567MOL0     C76456   9.020   5.010   3.884  0.9535  0.3591 -0.4060
  567MOL0     C76457   9.002   5.122   3.801  0.5938  0.4364 -0.1309
  567MOL0     O76458   9.012   5.401   3.719  0.5774 -0.1081 -0.4450
  567MOL0     C76459   9.050   5.473   3.452  0.2362  0.6151 -0.2995
  567MOL0     C76460   9.040   5.554   3.338 -0.5343  0.6582 -0.0857
  567MOL0     N76461   8.752   5.814   2.583 -0.1931 -0.0870  0.2423
  567MOL0     N76462   8.794   5.789   2.462  0.6858  0.3016 -0.0872
  567MOL0     C76463   9.489   5.996   3.041  0.1216 -0.1509  0.2293
  567MOL0     C76464   9.471   5.997   3.179 -0.2447 -0.6516 -0.2796
  567MOL0     C76465   9.325   5.837   3.592  1.0942  0.7486  0.8155
  567MOL0     C76466   9.272   5.731   3.673  0.5764 -0.2267 -0.0746
  567MOL0     C76467   9.289   5.733   3.811  0.7781 -0.6030  0.2162
  567MOL0     C76468   9.383   5.820   3.871 -0.0202 -0.3690 -0.5237
  567MOL0     O76469   9.426   5.784   4.001  0.0046 -0.3795 -0.4679
  567MOL0     C76470   9.550   5.823   4.047 -0.3873 -0.0751 -0.5122
  567MOL0     C76471   9.563   5.762   4.198  0.7353 -0.0730 -0.2838
  567MOL0     C76472   9.584   5.614   4.186 -0.1235  0.3644  0.2959
  567MOL0     C76473   9.559   5.538   4.305  0.2953 -0.1007  0.9027
  567MOL0     C76474   9.612   5.406   4.282 -0.5719  0.1903 -0.1623
  567MOL0     C76475   9.657   5.296   4.250  0.6263  0.4289  0.0381
  567MOL0     C76476   9.431   5.929   3.788  0.7280  0.7179 -0.6101
  567MOL0     C76477   9.386   5.942   3.652 -1.1070  0.4464  1.2096
  567MOL0     H76478   9.178   5.825   3.185  0.1344  1.2767  0.0633
  567MOL0     H76479   9.209   5.840   2.953 -2.3149  1.6635  2.5410
  567MOL0     H76480   9.510   5.862   2.656  0.4792  0.1493  0.3909
  567MOL0     H76481   9.592   5.829   2.808  0.8651 -0.8031 -0.7603
  567MOL0     H76482   9.425   5.661   2.861  1.3897 -3.3629 -3.1352
  567MOL0     H76483   9.310   5.750   2.762 -1.0472 -0.7465 -2.3049
  567MOL0     H76484   9.535   5.587   2.657  0.5558  1.2653  1.8389
  567MOL0     H76485   9.375   5.519   2.689  0.0692 -0.2926  0.1706
  567MOL0     H76486   9.411   5.749   2.499 -3.7482  1.7201  3.7514
  567MOL0     H76487   9.429   5.572   2.456 -2.3196 -0.7703 -1.1049
  567MOL0     H76488   9.197   5.551   2.541 -0.2604  0.6308 -1.0368
  567MOL0     H76489   9.216   5.729   2.546  1.0692  2.2230 -2.0816
  567MOL0     H76490   9.259   5.717   2.285  1.9585 -1.1613 -0.1939
  567MOL0     H76491   9.234   5.538   2.304 -1.8653 -0.8974  3.6847
  567MOL0     H76492   9.045   5.622   2.207  2.0552  2.3309 -1.5484
  567MOL0     H76493   9.000   5.587   2.374 -0.0042 -0.1913 -1.6341
  567MOL0     H76494   8.935   5.817   2.247 -0.7051 -1.4528  0.4673
  567MOL0     H76495   9.086   5.870   2.311  2.1412 -2.6069 -5.7574
  567MOL0     H76496   9.068   5.930   2.592 -1.4584  1.1346  0.5036
  567MOL0     H76497   8.941   5.986   2.811  0.2460  0.2435  0.7842
  567MOL0     H76498   8.761   5.972   2.813  0.8980  0.2471  0.8031
  567MOL0     H76499   8.960   5.754   2.890 -0.4718  0.3059  0.4776
  567MOL0     H76500   8.783   5.719   2.857 -3.6299  0.9825  2.6396
  567MOL0     H76501   8.726   5.881   3.038 -1.3605 -2.3685 -1.4965
  567MOL0     H76502   8.896   5.897   3.079 -0.2142  0.7777 -1.1164
  567MOL0     H76503   8.741   5.639   3.057 -1.1253  2.8449 -1.1406
  567MOL0     H76504   8.742   5.752   3.196 -0.9605  2.8440 -1.2708
  567MOL0     H76505   8.712   5.583   3.301  1.8802  0.5908 -0.8052
  567MOL0     H76506   8.573   5.445   3.481 -0.8502 -0.0807  2.4852
  567MOL0     H76507   8.670   5.296   3.468  0.8008  0.3020 -0.5805
  567MOL0     H76508   8.668   5.398   3.615 -3.2074  2.1047  0.1316
  567MOL0     H76509   8.658   5.112   3.787 -0.2550 -0.5028 -1.8011
  567MOL0     H76510   8.690   4.948   3.946 -1.3277  3.6031  1.2473
  567MOL0     H76511   9.135   4.800   4.004  0.3122  0.1194  2.6647
  567MOL0     H76512   9.037   4.674   4.079  0.2298  0.5812  0.9495
  567MOL0     H76513   9.017   4.729   3.783  0.5312  0.1005  0.5172
  567MOL0     H76514   9.144   4.631   3.847 -0.0794 -0.6320  0.2712
  567MOL0     H76515   8.843   4.572   3.843 -0.9000 -2.2217 -0.9476
  567MOL0     H76516   8.943   4.492   3.975 -0.7331 -2.6394 -0.4162
  567MOL0     H76517   8.895   4.368   3.755  0.3108 -0.2282  1.6711
  567MOL0     H76518   9.009   4.474   3.683  1.0871  0.4122 -0.7690
  567MOL0     H76519   9.112   4.334   3.939  1.8590 -2.9674 -0.1518
  567MOL0     H76520   9.194   4.387   3.791  1.2224  0.1128 -1.0557
  567MOL0     H76521   9.085   4.193   3.673 -0.7268 -2.0773 -0.2458
  567MOL0     H76522   9.184   4.143   3.805  0.9099  2.5920  1.6491
  567MOL0     H76523   8.882   4.179   3.817  1.5313  2.7662 -0.8088
  567MOL0     H76524   8.983   4.120   3.950 -1.8808  4.3399  0.8221
  567MOL0     H76525   8.946   4.016   3.664 -0.6567  2.2047  0.7614
  567MOL0     H76526   8.871   3.941   3.806 -1.2974 -1.0400 -2.1689
  567MOL0     H76527   9.125   4.995   3.903  0.7304 -1.3491 -0.3377
  567MOL0     H76528   9.089   5.180   3.773  2.1377 -0.6110  2.1996
  567MOL0     H76529   9.138   5.454   3.513 -0.9749  1.1868  1.7220
  567MOL0     H76530   9.136   5.576   3.292  0.5269 -2.3349  0.4969
  567MOL0     H76531   9.579   6.051   3.015  1.5275 -1.1506  2.6284
  567MOL0     H76532   9.552   6.038   3.238  0.5065  3.4911 -3.7624
  567MOL0     H76533   9.204   5.658   3.632 -2.3403  2.1464  0.1672
  567MOL0     H76534   9.248   5.651   3.869  0.6371 -0.4028  0.4048
  567MOL0     H76535   9.623   5.785   3.975 -1.2296  1.5075 -2.2569
  567MOL0     H76536   9.550   5.932   4.055  0.0887 -0.0540 -0.7837
  567MOL0     H76537   9.478   5.778   4.264  1.5802  1.1476  0.5497
  567MOL0     H76538   9.647   5.805   4.253  1.0250 -4.9417  3.7752
  567MOL0     H76539   9.683   5.592   4.144 -0.5130  0.2798 -0.6027
  567MOL0     H76540   9.507   5.583   4.116 -1.6703  0.7424  1.7767
  567MOL0     H76541   9.449   5.530   4.309  0.1235  0.5659 -1.2470
  567MOL0     H76542   9.590   5.597   4.391  3.1049  0.2808 -0.2740
  567MOL0     H76543   9.695   5.196   4.243  0.7057  0.5469 -1.6488
  567MOL0     H76544   9.513   5.988   3.828  1.3469 -0.6069  0.1365
  567MOL0     H76545   9.439   6.015   3.592 -1.3744 -0.6296 -0.4105
  568MOL0     O76546   8.995   8.270   3.725 -0.2188 -0.4534  0.1267
  568MOL0     C76547   8.917   8.299   3.819  0.0589  0.0305 -0.0596
  568MOL0     O76548   8.950   8.356   3.941  0.4225 -0.3410 -0.9960
  568MOL0     C76549   9.085   8.371   3.962 -0.0416 -0.6882 -0.0491
  568MOL0     C76550   9.158   8.257   4.001 -0.3243  0.1770  0.1479
  568MOL0     C76551   9.294   8.261   4.012  0.4596 -0.2407 -0.7648
  568MOL0     C76552   9.358   8.385   4.004 -0.8641  0.0700  0.8349
  568MOL0     O76553   9.494   8.400   4.029 -0.3168  0.1489  1.0407
  568MOL0     C76554   9.560   8.316   4.121 -0.4599 -0.2949 -0.0220
  568MOL0     C76555   9.494   8.337   4.259  0.5407 -0.5335 -1.2435
  568MOL0     C76556   9.559   8.284   4.381 -0.2537 -0.8166 -0.4309
  568MOL0     C76557   9.544   8.143   4.407 -0.2502  0.4478 -0.9823
  568MOL0     C76558   9.642   8.113   4.527  0.3542 -0.6667  0.5132
  568MOL0     C76559   9.619   7.977   4.585  0.3706  0.1023 -0.2019
  568MOL0     C76560   9.476   7.918   4.631  0.3186  0.5328 -0.1796
  568MOL0     C76561   9.394   8.021   4.713  0.7747 -0.4045  0.6848
  568MOL0     N76562   9.269   7.957   4.777  0.3313  0.4367  0.3036
  568MOL0     C76563   9.251   7.918   4.910 -0.1894 -0.0973  0.5442
  568MOL0     C76564   9.114   7.891   4.923 -0.7988 -0.7930  1.2095
  568MOL0     C76565   9.057   7.822   5.048 -0.0719 -0.9286  0.6385
  568MOL0     C76566   9.055   7.914   5.176  0.5741 -0.6234  0.4720
  568MOL0     C76567   9.026   7.829   5.298  0.6954  1.2810 -0.0746
  568MOL0     C76568   8.972   7.906   5.409  0.4711  0.0527  0.7891
  568MOL0     O76569   8.962   7.826   5.523 -0.0679  0.5660 -0.1427
  568MOL0     C76570   8.894   7.882   5.628 -0.1394 -0.3558  1.0509
  568MOL0     C76571   8.860   7.793   5.727  0.6191  0.0217  0.1159
  568MOL0     C76572   8.780   7.834   5.841 -0.9109  0.1808 -0.5882
  568MOL0     C76573   8.746   7.721   5.943 -0.6337 -0.4243 -0.1961
  568MOL0     C76574   8.743   7.971   5.853 -0.0546  0.6206 -0.3098
  568MOL0     C76575   8.669   8.030   5.967  0.3881  0.0228  0.7839
  568MOL0     O76576   8.648   8.163   5.953  0.1325  0.3279 -0.4776
  568MOL0     C76577   8.523   8.213   5.985  0.5081 -0.0565  1.4198
  568MOL0     C76578   8.411   8.136   5.961  0.3091  0.9453 -0.3826
  568MOL0     C76579   8.288   8.195   5.980 -0.2909  0.2017  0.5200
  568MOL0     C76580   8.258   8.319   6.037  0.0414 -0.7094  0.8713
  568MOL0     O76581   8.130   8.349   6.063  0.6217 -0.0567  0.2419
  568MOL0     C76582   8.092   8.401   6.198 -0.5785 -0.9557  0.7019
  568MOL0     C76583   7.941   8.425   6.215  0.2626  0.7173 -0.2799
  568MOL0     C76584   7.866   8.292   6.170  0.2894 -0.0408  0.4078
  568MOL0     C76585   7.712   8.286   6.214 -0.3826 -0.4134 -0.4363
  568MOL0     C76586   7.637   8.162   6.164  0.3734  0.6850 -0.5361
  568MOL0     C76587   7.647   8.145   6.010  1.0446  0.7382  0.3104
  568MOL0     C76588   7.533   8.046   5.957 -0.1468  0.4097 -0.6272
  568MOL0     C76589   7.531   7.923   6.028 -0.0568  0.0432  0.4429
  568MOL0    Cl76590   7.421   7.817   5.958  0.0584 -0.0405  0.0722
  568MOL0     C76591   8.369   8.393   6.077  1.0085  0.5687  0.8806
  568MOL0     C76592   8.501   8.336   6.044  0.0078 -0.5287 -1.1076
  568MOL0     O76593   8.644   7.957   6.066  1.0537  0.0332 -1.0369
  568MOL0     C76594   8.777   8.049   5.746  0.8796 -0.6465  0.0731
  568MOL0     C76595   8.852   8.012   5.645 -0.7388 -0.1015 -0.3494
  568MOL0     N76596   9.060   7.910   4.798 -1.2705 -0.1773  0.6316
  568MOL0     N76597   9.150   7.945   4.713  0.9416  0.1419  0.3923
  568MOL0     C76598   9.287   8.500   3.965  0.0994 -0.1327  0.2887
  568MOL0     C76599   9.149   8.495   3.938 -0.1267 -0.2283  0.3290
  568MOL0     C76600   8.782   8.261   3.796  0.1439 -1.0474 -0.0581
  568MOL0     C76601   8.686   8.302   3.893 -0.9354  0.2475 -0.4136
  568MOL0     C76602   8.554   8.249   3.895 -0.2328 -0.5179 -0.2082
  568MOL0     C76603   8.505   8.171   3.781  0.6882  0.6238 -0.0101
  568MOL0     O76604   8.382   8.122   3.772  0.1384 -0.2666  0.0013
  568MOL0     C76605   8.301   8.147   3.889  0.0023 -1.0587  0.2712
  568MOL0     C76606   8.180   8.059   3.889 -0.9554 -0.9642 -0.0606
  568MOL0     C76607   8.093   8.092   4.008 -0.8136 -0.0065 -0.2351
  568MOL0     C76608   7.987   7.981   4.042 -0.7295  0.9579  0.3588
  568MOL0     C76609   7.935   8.008   4.179 -0.8920 -1.1897 -0.3710
  568MOL0     C76610   7.869   8.040   4.272  0.4816  0.6599  0.1397
  568MOL0     C76611   8.599   8.155   3.676  0.3941  0.5835  1.1834
  568MOL0     C76612   8.740   8.192   3.683 -0.4275  0.4191  0.1322
  568MOL0     H76613   9.122   8.156   4.019  1.2894 -0.9918 -2.5242
  568MOL0     H76614   9.344   8.167   4.034  1.5789  0.7601  1.2510
  568MOL0     H76615   9.571   8.211   4.093 -0.6418  0.1949 -2.0430
  568MOL0     H76616   9.663   8.349   4.135  0.1300 -2.0962  0.2391
  568MOL0     H76617   9.470   8.442   4.281 -0.0155 -0.6073 -1.4735
  568MOL0     H76618   9.397   8.286   4.254  0.5429 -1.0178  1.8070
  568MOL0     H76619   9.664   8.309   4.360 -0.1161 -1.8397 -1.0632
  568MOL0     H76620   9.523   8.336   4.470  4.8112  0.1351  1.3904
  568MOL0     H76621   9.441   8.118   4.436 -0.3608  1.4984 -0.4196
  568MOL0     H76622   9.584   8.085   4.323  5.7306  1.0642  0.9718
  568MOL0     H76623   9.746   8.143   4.511 -0.2358  0.1477 -2.3222
  568MOL0     H76624   9.612   8.181   4.607  4.0861 -0.0653  1.5957
  568MOL0     H76625   9.653   7.903   4.511 -2.4858 -1.2266 -0.2986
  568MOL0     H76626   9.689   7.952   4.666  1.1156 -3.5477 -1.7398
  568MOL0     H76627   9.419   7.894   4.541  2.8529 -0.3610 -1.6443
  568MOL0     H76628   9.496   7.820   4.675  1.5463  1.4629  1.4665
  568MOL0     H76629   9.350   8.099   4.650 -2.9077  0.0283  3.4887
  568MOL0     H76630   9.465   8.059   4.787  2.2691  1.0728 -1.3756
  568MOL0     H76631   9.322   7.913   4.993  0.8260 -0.1457 -0.3112
  568MOL0     H76632   8.953   7.787   5.042 -1.0900  1.9856 -2.5975
  568MOL0     H76633   9.131   7.743   5.064 -2.2519 -3.1948  0.1142
  568MOL0     H76634   8.979   7.992   5.168 -0.0144 -1.0303  1.7506
  568MOL0     H76635   9.152   7.964   5.187 -0.3118  1.9864 -2.1936
  568MOL0     H76636   9.112   7.769   5.329 -0.0588  1.5487  2.7712
  568MOL0     H76637   8.947   7.759   5.269  0.8964  0.0041  2.2340
  568MOL0     H76638   8.870   7.938   5.386 -1.3920 -4.4175  1.8273
  568MOL0     H76639   9.027   8.000   5.424  2.3160 -0.9393  0.6320
  568MOL0     H76640   8.902   7.693   5.737 -1.7397 -0.9821  0.7128
  568MOL0     H76641   8.638   7.714   5.957 -0.6481  3.0829  2.6834
  568MOL0     H76642   8.803   7.632   5.912 -0.8702 -0.6374 -0.0225
  568MOL0     H76643   8.785   7.759   6.038  1.4019  1.4648 -1.6738
  568MOL0     H76644   8.429   8.037   5.921 -0.4361  0.1489  1.1524
  568MOL0     H76645   8.209   8.125   5.957  1.6942 -1.4982 -1.6501
  568MOL0     H76646   8.133   8.337   6.277  2.6151  1.7013  1.4043
  568MOL0     H76647   8.138   8.499   6.210 -2.0495 -0.2208  0.5555
  568MOL0     H76648   7.916   8.448   6.319  2.6730 -2.4222  1.1696
  568MOL0     H76649   7.912   8.514   6.158  1.8182  0.2528 -1.9047
  568MOL0     H76650   7.923   8.212   6.219  2.5647  0.7353 -0.8105
  568MOL0     H76651   7.871   8.286   6.061  2.9010 -1.4217  0.5288
  568MOL0     H76652   7.714   8.273   6.323 -0.9326  1.5310 -0.1558
  568MOL0     H76653   7.661   8.379   6.190  2.1292  1.2303  0.2403
  568MOL0     H76654   7.534   8.176   6.196  1.1331  2.1311  1.5055
  568MOL0     H76655   7.676   8.072   6.212  1.6114  1.9571  0.9424
  568MOL0     H76656   7.638   8.245   5.967  1.4732  0.7025  0.1226
  568MOL0     H76657   7.742   8.100   5.979 -0.1594 -0.0444 -2.5441
  568MOL0     H76658   7.565   8.013   5.858  2.8891 -3.8412  1.4724
  568MOL0     H76659   7.437   8.096   5.969 -0.0864  0.8898 -1.9919
  568MOL0     H76660   7.515   7.934   6.136 -2.2539 -0.4233  0.2093
  568MOL0     H76661   7.630   7.879   6.011 -0.5987 -0.6402 -1.1103
  568MOL0     H76662   8.355   8.487   6.131  0.8682  0.3039  1.3100
  568MOL0     H76663   8.587   8.396   6.073 -1.5992  1.2616  0.2316
  568MOL0     H76664   8.749   8.154   5.734 -0.9331 -0.6944  2.8334
  568MOL0     H76665   8.879   8.089   5.573 -1.9434  0.4654 -0.2271
  568MOL0     H76666   9.339   8.593   3.943 -3.6504  1.3172 -4.0887
  568MOL0     H76667   9.091   8.580   3.904 -2.4878 -2.0837 -0.6572
  568MOL0     H76668   8.713   8.362   3.980 -0.1900 -2.8258  1.6201
  568MOL0     H76669   8.496   8.272   3.983  1.2019  1.2158  0.3410
  568MOL0     H76670   8.348   8.130   3.986 -0.8735  0.6143  1.0367
  568MOL0     H76671   8.275   8.253   3.889 -0.2528 -1.1225  0.0425
  568MOL0     H76672   8.210   7.954   3.894 -0.2377 -0.8995 -2.1499
  568MOL0     H76673   8.129   8.075   3.793  0.1469 -0.2344 -0.5465
  568MOL0     H76674   8.042   8.180   3.968 -0.9328  0.0981  0.1508
  568MOL0     H76675   8.150   8.119   4.097 -0.9493  1.0831 -0.4654
  568MOL0     H76676   8.043   7.887   4.043  1.1180  2.0173 -0.5168
  568MOL0     H76677   7.910   7.963   3.966 -0.6109 -4.4798  1.0675
  568MOL0     H76678   7.817   8.068   4.362  0.5345 -1.8162  1.0206
  568MOL0     H76679   8.559   8.095   3.595  0.6291  0.9584  0.7831
  568MOL0     H76680   8.805   8.156   3.604 -0.5824  0.2818  0.0667
  569MOL0     O76681   2.335   1.467   6.302 -0.5029 -0.2967 -0.9526
  569MOL0     C76682   2.313   1.382   6.391  0.4171 -0.8582  0.5431
  569MOL0     O76683   2.379   1.265   6.409 -0.0928 -0.4851 -0.8009
  569MOL0     C76684   2.494   1.226   6.336  0.3566 -0.1203 -0.2264
  569MOL0     C76685   2.532   1.096   6.351 -0.6337 -0.6435 -0.0496
  569MOL0     C76686   2.642   1.039   6.292 -0.6542 -0.5470  0.0616
  569MOL0     C76687   2.730   1.113   6.207  0.0097 -0.7594 -0.2672
  569MOL0     O76688   2.834   1.067   6.127  0.0455  0.2638  0.1156
  569MOL0     C76689   2.816   0.942   6.060 -0.0634  0.2438 -0.8193
  569MOL0     C76690   2.695   0.939   5.965 -0.2878 -0.4587  1.1506
  569MOL0     C76691   2.692   0.804   5.882 -0.0949  0.1097 -0.3465
  569MOL0     C76692   2.546   0.777   5.841 -0.1900  1.0026  0.3998
  569MOL0     C76693   2.533   0.680   5.727 -0.7489 -0.1027  0.6249
  569MOL0     C76694   2.533   0.540   5.772  0.8919 -0.4161  0.7221
  569MOL0     C76695   2.481   0.452   5.657  0.2966  0.4741 -0.8731
  569MOL0     C76696   2.478   0.307   5.726  0.6385  0.2839 -0.1714
  569MOL0     N76697   2.346   0.267   5.777  0.1880 -0.4343 -0.1024
  569MOL0     C76698   2.219   0.319   5.741 -0.8319  0.3676  0.1199
  569MOL0     C76699   2.140   0.230   5.797  0.0880 -0.0005  0.3482
  569MOL0     C76700   1.990   0.258   5.798 -0.6719  0.4360  0.9315
  569MOL0     C76701   1.931   0.224   5.658  0.0143  0.1576 -0.0500
  569MOL0     C76702   1.784   0.195   5.658  0.5965 -0.1520 -0.7492
  569MOL0     C76703   1.742   0.070   5.591 -0.2483  0.1822  0.4000
  569MOL0     O76704   1.789   0.053   5.456 -0.3680  0.2710  0.3425
  569MOL0     C76705   1.696  -0.018   5.390 -0.0334  0.8627  0.3000
  569MOL0     C76706   1.620   0.047   5.294 -0.8682 -0.6773 -0.0817
  569MOL0     C76707   1.521  -0.022   5.233  0.8125  1.1002  0.8785
  569MOL0     C76708   1.424   0.070   5.154 -0.0827  0.0354 -0.3686
  569MOL0     C76709   1.506  -0.169   5.256 -0.2477 -1.0000  0.8792
  569MOL0     C76710   1.410  -0.251   5.169 -0.2504  0.1098 -0.5286
  569MOL0     O76711   1.378  -0.369   5.228  0.2597 -0.3169  0.4750
  569MOL0     C76712   1.340  -0.456   5.137  1.1312 -0.2937 -0.1078
  569MOL0     C76713   1.441  -0.528   5.072 -0.3038 -0.3487 -0.5402
  569MOL0     C76714   1.397  -0.629   4.982 -0.3057 -0.7403  0.2598
  569MOL0     C76715   1.259  -0.649   4.946 -0.2369 -0.1044  0.8239
  569MOL0     O76716   1.233  -0.734   4.839  0.1409  0.5649 -0.5558
  569MOL0     C76717   1.105  -0.733   4.780  0.0062  0.1729  0.4584
  569MOL0     C76718   1.110  -0.801   4.646 -0.3134 -0.1901 -0.5607
  569MOL0     C76719   1.162  -0.700   4.541 -0.5846 -0.0802  0.8522
  569MOL0     C76720   1.127  -0.730   4.393  0.2263 -0.0457  0.3195
  569MOL0     C76721   1.164  -0.622   4.300 -0.4203  0.3722  1.4559
  569MOL0     C76722   1.315  -0.590   4.298 -0.7469 -0.2200 -0.1011
  569MOL0     C76723   1.353  -0.493   4.192  0.1048  0.3394 -0.3089
  569MOL0     C76724   1.279  -0.363   4.185 -0.4467 -1.2375  0.1002
  569MOL0    Cl76725   1.364  -0.259   4.067 -0.2267 -0.3786 -0.1170
  569MOL0     C76726   1.155  -0.577   5.018 -0.1551  0.4494 -0.6433
  569MOL0     C76727   1.200  -0.484   5.115 -0.6453 -0.3548  0.2732
  569MOL0     O76728   1.372  -0.205   5.061 -0.5523 -0.6425 -0.3760
  569MOL0     C76729   1.585  -0.224   5.349  0.0015 -0.0114  0.2810
  569MOL0     C76730   1.680  -0.155   5.415  0.0691  0.3086 -0.4627
  569MOL0     N76731   2.208   0.127   5.865  1.3747  0.5182  0.4217
  569MOL0     N76732   2.331   0.151   5.845 -0.1818  0.5772  0.7684
  569MOL0     C76733   2.692   1.249   6.196 -0.6800  0.3163 -0.2405
  569MOL0     C76734   2.581   1.304   6.269 -0.1130 -0.4638  0.7033
  569MOL0     C76735   2.202   1.414   6.478  0.3508  0.7387 -0.5724
  569MOL0     C76736   2.140   1.536   6.473 -0.4587  0.0809 -0.2251
  569MOL0     C76737   2.038   1.574   6.558 -0.4220 -0.0986  0.0407
  569MOL0     C76738   1.994   1.485   6.659  0.3446 -0.0818  0.9296
  569MOL0     O76739   1.910   1.516   6.759  0.0063  0.0260  0.9176
  569MOL0     C76740   1.801   1.602   6.733 -0.1541 -0.5487  0.7384
  569MOL0     C76741   1.708   1.524   6.635  0.3050 -0.2486  0.5720
  569MOL0     C76742   1.579   1.613   6.615  0.4296  0.1830 -0.4248
  569MOL0     C76743   1.496   1.606   6.744  0.2609  0.4868 -0.6625
  569MOL0     C76744   1.358   1.625   6.734  0.5487 -0.6501 -0.0064
  569MOL0     C76745   1.237   1.638   6.725  1.0460  0.1377  0.1072
  569MOL0     C76746   2.042   1.348   6.639  0.2196 -0.1555 -0.6913
  569MOL0     C76747   2.150   1.309   6.560 -0.7448 -0.0694 -0.2975
  569MOL0     H76748   2.477   1.023   6.409  1.8506 -2.1298  0.5753
  569MOL0     H76749   2.640   0.930   6.295 -5.1004 -0.7518 -1.7062
  569MOL0     H76750   2.905   0.933   5.997 -1.7505 -3.0491 -2.9471
  569MOL0     H76751   2.808   0.859   6.131  2.0937  0.4053 -0.3211
  569MOL0     H76752   2.598   0.956   6.013 -0.3719  2.0081  0.2308
  569MOL0     H76753   2.710   1.025   5.899  2.5164  0.4106  2.7480
  569MOL0     H76754   2.759   0.817   5.797 -0.2182 -1.7183 -0.7654
  569MOL0     H76755   2.716   0.714   5.939 -1.1906 -2.7109 -3.9586
  569MOL0     H76756   2.488   0.747   5.929 -1.1690  1.1664 -0.1812
  569MOL0     H76757   2.499   0.871   5.811 -4.6302 -1.3440 -0.9289
  569MOL0     H76758   2.435   0.703   5.684 -0.3560 -0.4834 -0.5123
  569MOL0     H76759   2.604   0.693   5.644 -1.8132  4.3270  0.1094
  569MOL0     H76760   2.634   0.512   5.804  1.3983  0.6824  0.1691
  569MOL0     H76761   2.477   0.536   5.866  2.4267  0.2931  1.7107
  569MOL0     H76762   2.389   0.486   5.608 -0.8849  2.7117  2.5501
  569MOL0     H76763   2.557   0.458   5.579  0.0531 -2.0726 -1.3783
  569MOL0     H76764   2.549   0.291   5.807  3.5919 -1.9215 -2.9598
  569MOL0     H76765   2.504   0.229   5.654  0.5285 -1.4635  1.6023
  569MOL0     H76766   2.208   0.416   5.693  5.6216  0.7516 -1.5073
  569MOL0     H76767   1.939   0.202   5.877  0.6703 -0.0006  1.5148
  569MOL0     H76768   1.961   0.360   5.827 -2.6436  0.2399 -0.2236
  569MOL0     H76769   1.990   0.147   5.609  0.9243  0.1224  1.0534
  569MOL0     H76770   1.946   0.314   5.598  0.2520  0.5507  0.5931
  569MOL0     H76771   1.723   0.275   5.614 -3.1583 -2.1172  0.4186
  569MOL0     H76772   1.753   0.185   5.763  3.4923  0.2376  0.2426
  569MOL0     H76773   1.633   0.062   5.599 -0.2492  1.6172  2.8191
  569MOL0     H76774   1.797  -0.012   5.640 -0.3703 -0.7041 -0.9034
  569MOL0     H76775   1.641   0.151   5.271  1.4454 -0.6001  2.0115
  569MOL0     H76776   1.319   0.041   5.159 -0.6400  1.7009 -1.3371
  569MOL0     H76777   1.424   0.170   5.199  0.5169 -1.1681  2.4956
  569MOL0     H76778   1.453   0.067   5.048 -0.9594  2.2895 -0.7372
  569MOL0     H76779   1.546  -0.524   5.101 -0.5209  0.0449  0.2046
  569MOL0     H76780   1.467  -0.694   4.929 -1.5084 -0.1675 -2.2023
  569MOL0     H76781   1.038  -0.788   4.846 -0.9898 -0.0771 -0.7248
  569MOL0     H76782   1.057  -0.637   4.757 -1.5586 -1.2931 -3.2195
  569MOL0     H76783   1.162  -0.897   4.652 -0.1189 -0.1354 -1.2050
  569MOL0     H76784   1.009  -0.837   4.625 -1.5436 -0.3544  4.3595
  569MOL0     H76785   1.270  -0.692   4.553 -0.4619 -1.2692  0.6059
  569MOL0     H76786   1.132  -0.596   4.558 -3.2599 -0.2685 -1.8161
  569MOL0     H76787   1.159  -0.829   4.360  0.7872  0.6578 -1.3484
  569MOL0     H76788   1.018  -0.739   4.387  0.2416  0.6273 -1.8070
  569MOL0     H76789   1.107  -0.533   4.328 -0.0798  0.5704  1.5142
  569MOL0     H76790   1.129  -0.647   4.199 -0.8897  0.8079  1.5086
  569MOL0     H76791   1.340  -0.541   4.392  2.6392  2.7984 -2.3222
  569MOL0     H76792   1.382  -0.676   4.304 -0.3865  0.1592  1.7672
  569MOL0     H76793   1.338  -0.548   4.099  0.4771  2.7392 -1.8800
  569MOL0     H76794   1.459  -0.474   4.209 -0.1692 -0.3848  2.9945
  569MOL0     H76795   1.296  -0.324   4.286 -0.5576 -0.5978 -0.1252
  569MOL0     H76796   1.173  -0.367   4.160 -0.6854 -1.8273  1.1146
  569MOL0     H76797   1.053  -0.580   4.983  0.4467  2.1823 -2.7548
  569MOL0     H76798   1.153  -0.402   5.168  1.2922  2.3690 -1.9089
  569MOL0     H76799   1.573  -0.329   5.373  0.3849 -0.1808 -0.2600
  569MOL0     H76800   1.744  -0.206   5.486  1.4412 -1.0917 -2.6199
  569MOL0     H76801   2.747   1.313   6.128  0.5438 -0.7015 -0.2586
  569MOL0     H76802   2.564   1.411   6.267 -0.7071 -0.5558  0.5547
  569MOL0     H76803   2.181   1.612   6.408  2.5948  1.6737  3.2006
  569MOL0     H76804   2.010   1.679   6.552 -1.4020 -0.2338  1.7711
  569MOL0     H76805   1.756   1.639   6.826 -2.4249 -0.1061 -0.4769
  569MOL0     H76806   1.840   1.694   6.688 -1.2026 -0.9482 -1.0497
  569MOL0     H76807   1.667   1.429   6.670 -1.2899  0.6724  1.3186
  569MOL0     H76808   1.758   1.516   6.539  1.5185  0.2363  1.1419
  569MOL0     H76809   1.514   1.586   6.530  0.9397  4.0820 -2.2702
  569MOL0     H76810   1.612   1.714   6.591 -2.6901  1.0371 -1.5563
  569MOL0     H76811   1.534   1.683   6.812  3.1494 -1.3169 -0.0405
  569MOL0     H76812   1.506   1.510   6.796 -1.9360  1.6132  2.0539
  569MOL0     H76813   1.131   1.653   6.721  1.0548  0.1024 -0.2515
  569MOL0     H76814   1.998   1.270   6.701 -1.5048 -0.1941 -1.9001
  569MOL0     H76815   2.195   1.210   6.561  0.8465  0.6361 -0.0975
  570MOL0     O76816   9.317  10.923  10.694 -0.0684  0.1605  0.0837
  570MOL0     C76817   9.276  10.926  10.810 -0.6271  0.7280  0.4731
  570MOL0     O76818   9.225  11.036  10.870  1.0035 -1.6633  0.3459
  570MOL0     C76819   9.217  11.156  10.799 -0.3731 -0.5849 -0.3403
  570MOL0     C76820   9.317  11.249  10.816 -0.7844 -0.5346 -0.1369
  570MOL0     C76821   9.311  11.362  10.747  0.2886  0.6148  0.1070
  570MOL0     C76822   9.189  11.396  10.687 -0.5529 -0.9051 -0.0619
  570MOL0     O76823   9.168  11.528  10.644 -0.0336 -0.1085 -0.5561
  570MOL0     C76824   9.173  11.633  10.744 -0.6261 -0.4955 -0.2903
  570MOL0     C76825   9.279  11.726  10.688  0.4064 -0.7446  0.4158
  570MOL0     C76826   9.310  11.844  10.788  0.2925 -0.2939  0.1356
  570MOL0     C76827   9.418  11.942  10.746 -0.2114 -0.3787  0.2426
  570MOL0     C76828   9.423  12.072  10.834  0.1510 -0.1181  0.5692
  570MOL0     C76829   9.457  12.039  10.976  0.6550  0.0761 -0.3586
  570MOL0     C76830   9.482  12.159  11.064 -1.1291 -0.7846  0.0381
  570MOL0     C76831   9.609  12.239  11.041 -0.9810 -0.4137 -0.2231
  570MOL0     N76832   9.732  12.153  11.060  0.4115  0.6003  0.1234
  570MOL0     C76833   9.756  12.071  11.169  1.0902  0.8588 -0.5090
  570MOL0     C76834   9.865  11.998  11.127 -0.3906 -0.2788  0.4705
  570MOL0     C76835   9.945  11.919  11.230  0.5170  0.3503  1.2612
  570MOL0     C76836  10.083  11.877  11.171  0.2018 -0.0519 -0.5721
  570MOL0     C76837  10.075  11.770  11.060  0.0933  0.5664  0.6678
  570MOL0     C76838  10.212  11.729  11.018  0.2160  0.4109 -0.3347
  570MOL0     O76839  10.270  11.654  11.126 -0.3397  0.3135  0.0221
  570MOL0     C76840  10.268  11.525  11.105  0.2184  0.8119  0.5740
  570MOL0     C76841  10.268  11.444  10.990 -0.6629 -0.1004  0.5822
  570MOL0     C76842  10.275  11.304  10.996 -0.3398 -0.1097 -0.1613
  570MOL0     C76843  10.270  11.230  10.867 -0.6343  0.6128  0.5041
  570MOL0     C76844  10.271  11.240  11.123 -0.9200 -0.4293  0.2996
  570MOL0     C76845  10.272  11.094  11.164  0.2532 -0.1566  0.2652
  570MOL0     O76846  10.181  11.058  11.256  0.1730 -0.2493  0.6025
  570MOL0     C76847  10.149  10.927  11.271  0.1467  0.1827  0.4473
  570MOL0     C76848  10.196  10.811  11.211 -0.4231 -0.7777  0.1975
  570MOL0     C76849  10.137  10.684  11.228  0.5251 -0.9176 -0.5016
  570MOL0     C76850  10.028  10.671  11.316 -0.2701  0.9966 -1.4042
  570MOL0     O76851   9.974  10.549  11.342 -0.1403  0.0593 -0.8200
  570MOL0     C76852  10.031  10.473  11.447 -0.4265 -1.1043 -0.4952
  570MOL0     C76853  10.026  10.325  11.423 -0.1592 -0.4956  0.4487
  570MOL0     C76854  10.047  10.234  11.551  0.3402  0.1762  0.3217
  570MOL0     C76855   9.923  10.156  11.600 -0.1484  0.2473 -0.6128
  570MOL0     C76856   9.800  10.240  11.628  0.7140  0.1667  0.4478
  570MOL0     C76857   9.696  10.170  11.715 -0.0162  0.1405  0.0437
  570MOL0     C76858   9.726  10.152  11.864  0.1720  0.2454 -1.0709
  570MOL0     C76859   9.624  10.061  11.927 -0.0998  0.1342 -0.1611
  570MOL0    Cl76860   9.635   9.880  11.887 -0.0126  0.6443 -0.1698
  570MOL0     C76861   9.988  10.789  11.385 -0.0748  0.2374 -0.1768
  570MOL0     C76862  10.043  10.905  11.354 -0.2217 -0.8787 -0.2077
  570MOL0     O76863  10.352  11.023  11.101  0.1610  0.1396 -0.3597
  570MOL0     C76864  10.273  11.325  11.239  0.6314 -0.3616 -0.1253
  570MOL0     C76865  10.274  11.456  11.226  0.0860 -0.1466  0.8329
  570MOL0     N76866   9.889  12.033  10.997 -0.6674  0.2081 -0.6362
  570MOL0     N76867   9.817  12.126  10.964 -0.1934 -0.1440 -0.0782
  570MOL0     C76868   9.090  11.303  10.670 -0.0136 -0.1358 -0.3293
  570MOL0     C76869   9.105  11.180  10.719  0.1576  0.0204  0.0556
  570MOL0     C76870   9.292  10.803  10.902 -0.7803 -0.5819 -0.0143
  570MOL0     C76871   9.353  10.689  10.847 -0.6487  0.4017 -0.6560
  570MOL0     C76872   9.382  10.569  10.917 -0.7491  0.1387  0.3186
  570MOL0     C76873   9.350  10.567  11.056  0.5074 -0.7357  0.0322
  570MOL0     O76874   9.367  10.444  11.123 -0.6456 -0.1907 -0.4933
  570MOL0     C76875   9.243  10.384  11.170  0.6565  0.5142 -0.3628
  570MOL0     C76876   9.278  10.244  11.219  0.2579  0.9367  0.8905
  570MOL0     C76877   9.317  10.143  11.110  0.6069  0.0773  0.2520
  570MOL0     C76878   9.220  10.132  10.994  1.1303  0.0215 -0.1324
  570MOL0     C76879   9.076  10.115  11.046  0.0696 -0.3839  0.9392
  570MOL0     C76880   8.966  10.124  11.090  0.1843  0.3986 -0.1635
  570MOL0     C76881   9.263  10.666  11.106 -0.0489 -0.1603 -0.5513
  570MOL0     C76882   9.239  10.788  11.036 -0.8503  0.3290 -0.1119
  570MOL0     H76883   9.408  11.239  10.876 -1.6058 -0.8900  1.0829
  570MOL0     H76884   9.383  11.443  10.741 -0.6991  1.5139  0.1442
  570MOL0     H76885   9.078  11.685  10.754 -0.5836 -0.7004  1.3602
  570MOL0     H76886   9.205  11.597  10.842  1.9351 -2.7130 -1.7861
  570MOL0     H76887   9.373  11.672  10.682  1.1924  0.6523 -0.5230
  570MOL0     H76888   9.258  11.765  10.588  1.7903  1.6162  0.9670
  570MOL0     H76889   9.216  11.897  10.807 -0.4134 -2.3840  3.2116
  570MOL0     H76890   9.345  11.813  10.887  0.0359  1.3690  0.7818
  570MOL0     H76891   9.514  11.890  10.735 -0.6113 -0.8044 -1.5307
  570MOL0     H76892   9.388  11.985  10.650  2.5068  2.4310  0.4862
  570MOL0     H76893   9.501  12.143  10.806  1.4491 -2.1330 -1.2402
  570MOL0     H76894   9.320  12.108  10.834 -0.5932 -1.9912  2.9535
  570MOL0     H76895   9.373  11.985  11.021  1.0150  1.4922  2.2577
  570MOL0     H76896   9.546  11.976  10.981  0.0073 -0.8054  0.7557
  570MOL0     H76897   9.403  12.233  11.051 -0.7788 -0.7212 -2.0317
  570MOL0     H76898   9.465  12.131  11.169 -0.6713 -1.7731 -0.1427
  570MOL0     H76899   9.621  12.331  11.099  0.6818 -1.7351  1.6686
  570MOL0     H76900   9.613  12.284  10.941 -0.1573  2.5499  1.0146
  570MOL0     H76901   9.720  12.072  11.271  2.3901  2.9178 -0.0195
  570MOL0     H76902   9.956  11.988  11.315  0.3895  3.9511 -1.4024
  570MOL0     H76903   9.886  11.831  11.255  0.5921 -1.1410 -2.9848
  570MOL0     H76904  10.142  11.836  11.254  0.9684  1.1467 -0.5043
  570MOL0     H76905  10.131  11.969  11.137  1.3877 -0.6473 -0.5574
  570MOL0     H76906  10.030  11.819  10.973 -0.8955  0.6579  1.2198
  570MOL0     H76907  10.023  11.682  11.099 -0.1055  1.2647  2.0461
  570MOL0     H76908  10.278  11.813  10.995 -3.3949  2.6818 -3.5033
  570MOL0     H76909  10.202  11.668  10.928  1.2440 -3.9395  2.1843
  570MOL0     H76910  10.268  11.474  10.886  2.4985 -2.2493 -0.1760
  570MOL0     H76911  10.279  11.307  10.791 -0.7357  0.2380  0.1114
  570MOL0     H76912  10.353  11.160  10.851  0.1287  1.5492  0.3150
  570MOL0     H76913  10.179  11.169  10.863  0.6383 -1.4760  1.3676
  570MOL0     H76914  10.278  10.823  11.141 -1.3915  1.1523 -0.6792
  570MOL0     H76915  10.181  10.602  11.173  2.1572 -3.6358  4.3127
  570MOL0     H76916  10.137  10.498  11.458 -0.8222  0.5516 -0.2823
  570MOL0     H76917   9.992  10.501  11.545  2.3731 -0.0579  0.4186
  570MOL0     H76918   9.930  10.287  11.386  0.3012 -1.2250 -0.0287
  570MOL0     H76919  10.106  10.288  11.358  0.2621  2.0818 -0.6115
  570MOL0     H76920  10.088  10.291  11.635  1.0777 -0.6228  0.5092
  570MOL0     H76921  10.114  10.156  11.516 -1.1063 -0.5303 -1.0123
  570MOL0     H76922   9.898  10.075  11.530  0.4219 -0.9634  0.5418
  570MOL0     H76923   9.945  10.102  11.693  0.6177 -2.5167 -2.2673
  570MOL0     H76924   9.758  10.255  11.528  1.4669  0.6528  0.1973
  570MOL0     H76925   9.819  10.331  11.685 -0.5436 -0.9886  2.8441
  570MOL0     H76926   9.598  10.218  11.705 -1.3801 -2.6752 -1.2516
  570MOL0     H76927   9.689  10.069  11.673 -3.1466  0.0662  0.5239
  570MOL0     H76928   9.715  10.248  11.915  0.1289  0.0145 -0.6431
  570MOL0     H76929   9.826  10.110  11.878  1.0719  2.8123  1.1236
  570MOL0     H76930   9.521  10.092  11.906 -0.2821  0.9538  1.7828
  570MOL0     H76931   9.652  10.075  12.031  0.8088  1.1221 -0.5145
  570MOL0     H76932   9.898  10.787  11.446  0.1096  2.8177  0.2976
  570MOL0     H76933  10.005  10.993  11.406  1.1444 -0.3288 -0.0960
  570MOL0     H76934  10.285  11.284  11.339 -1.5414  0.3529  0.4840
  570MOL0     H76935  10.281  11.503  11.324  3.5115 -0.9886  1.1314
  570MOL0     H76936   8.996  11.333  10.624 -0.9592 -2.6439 -0.1691
  570MOL0     H76937   9.023  11.109  10.725  0.1803 -0.3446 -2.7907
  570MOL0     H76938   9.385  10.695  10.743 -2.3358 -1.3260 -1.3456
  570MOL0     H76939   9.426  10.483  10.868 -0.0516  0.1880  0.8455
  570MOL0     H76940   9.213  10.439  11.260  3.7183  1.1385  0.3949
  570MOL0     H76941   9.161  10.373  11.099  1.3985 -2.7551 -0.8566
  570MOL0     H76942   9.202  10.207  11.288 -1.5706  0.4318 -1.2987
  570MOL0     H76943   9.365  10.250  11.286 -0.2823  0.9191  1.6122
  570MOL0     H76944   9.344  10.047  11.156  2.1866 -0.3564 -1.4565
  570MOL0     H76945   9.407  10.177  11.058 -1.1522  5.0939 -0.0033
  570MOL0     H76946   9.250  10.041  10.942  0.4766 -0.6581  0.6455
  570MOL0     H76947   9.216  10.216  10.925 -1.8787  0.2562  0.1871
  570MOL0     H76948   8.884  10.147  11.155 -0.0653 -0.8025 -0.0444
  570MOL0     H76949   9.231  10.651  11.208 -1.7983 -2.5304 -1.3390
  570MOL0     H76950   9.181  10.871  11.074  1.2822  1.6295  0.5230
  571MOL0     O76951   0.344   9.208   2.841 -0.4749  0.0703  0.9897
  571MOL0     C76952   0.237   9.227   2.782 -0.3582  0.5567 -0.0384
  571MOL0     O76953   0.129   9.287   2.829 -0.9197  0.3232 -0.3402
  571MOL0     C76954   0.120   9.311   2.959  0.0250 -0.2246 -0.5388
  571MOL0     C76955   0.018   9.235   3.026  0.1431  0.0068 -0.0546
  571MOL0     C76956  -0.014   9.281   3.155 -1.0555  0.4365 -0.2460
  571MOL0     C76957   0.042   9.394   3.214 -0.5986 -0.4797 -0.7198
  571MOL0     O76958  -0.001   9.430   3.339  0.7061  0.4011 -0.3738
  571MOL0     C76959   0.110   9.449   3.432 -0.2896 -0.8190 -0.5657
  571MOL0     C76960   0.039   9.546   3.534 -1.4552  0.2697 -0.1547
  571MOL0     C76961   0.132   9.622   3.631 -0.5952  0.4417  0.3334
  571MOL0     C76962   0.056   9.747   3.700 -0.8615  0.1907  0.4535
  571MOL0     C76963   0.118   9.787   3.839  0.1305  0.8261  0.3295
  571MOL0     C76964   0.268   9.829   3.833 -0.0850 -0.1067  0.9727
  571MOL0     C76965   0.306   9.914   3.959  0.4714 -0.3195 -0.2166
  571MOL0     C76966   0.265   9.858   4.095  0.0500 -0.1330 -0.3984
  571MOL0     N76967   0.301   9.930   4.223  0.3590  0.2352 -0.0608
  571MOL0     C76968   0.412   9.899   4.298  0.6599 -0.4835 -0.6845
  571MOL0     C76969   0.404   9.975   4.408 -0.0061 -0.6295  1.7403
  571MOL0     C76970   0.495   9.972   4.534  0.8483 -0.0056  1.0063
  571MOL0     C76971   0.645   9.996   4.499  0.8845  0.5192 -0.2834
  571MOL0     C76972   0.676  10.121   4.426 -0.1227  0.6015  0.0729
  571MOL0     C76973   0.823  10.154   4.412 -0.7761 -0.1597 -0.3295
  571MOL0     O76974   0.881  10.068   4.311  0.0665  0.2545 -0.6531
  571MOL0     C76975   0.887  10.073   4.176 -0.2408  0.1242 -1.1638
  571MOL0     C76976   0.915   9.957   4.108 -0.6750  0.4887 -0.2996
  571MOL0     C76977   0.923   9.959   3.969 -0.3992  0.6072  0.6487
  571MOL0     C76978   0.916   9.826   3.886 -0.3741 -0.2469 -0.4514
  571MOL0     C76979   0.897  10.077   3.899 -0.3344 -0.7948  0.0341
  571MOL0     C76980   0.891  10.086   3.743 -0.3482  0.1135 -0.4251
  571MOL0     O76981   0.819  10.190   3.680 -0.4482  0.0314  0.6205
  571MOL0     C76982   0.830  10.195   3.548  0.3345 -0.2764  0.3609
  571MOL0     C76983   0.771  10.108   3.461 -0.5132  0.5547  1.0363
  571MOL0     C76984   0.780  10.138   3.326  0.4931  0.3270 -0.1885
  571MOL0     C76985   0.840  10.257   3.268  0.4576  0.1770 -0.1440
  571MOL0     O76986   0.827  10.287   3.138 -0.8669 -1.0285 -0.1147
  571MOL0     C76987   0.814  10.193   3.037 -0.5139 -0.1559 -0.0169
  571MOL0     C76988   0.879  10.263   2.911 -0.4226  0.3911  0.0748
  571MOL0     C76989   0.871  10.184   2.778 -0.2256  0.4220  0.2942
  571MOL0     C76990   0.817  10.256   2.648  1.0670 -0.2923  0.6063
  571MOL0     C76991   0.674  10.315   2.654  0.5892  0.6924 -0.7657
  571MOL0     C76992   0.572  10.204   2.699  1.0425 -0.2620 -0.4141
  571MOL0     C76993   0.425  10.243   2.689 -1.1129 -0.1988  0.9173
  571MOL0     C76994   0.383  10.339   2.809 -0.3900  0.1597 -0.4015
  571MOL0    Cl76995   0.373  10.240   2.962  0.0982  0.0506  0.0555
  571MOL0     C76996   0.902  10.342   3.359  0.3703 -0.0519  0.0568
  571MOL0     C76997   0.888  10.311   3.500  0.3933 -0.4391  0.4625
  571MOL0     O76998   0.975  10.020   3.678  0.2624 -0.0907 -0.6313
  571MOL0     C76999   0.884  10.196   3.966 -0.1906 -0.1711 -0.9005
  571MOL0     C77000   0.866  10.192   4.110  0.7839 -0.1100 -0.2296
  571MOL0     N77001   0.295  10.050   4.392 -0.7266 -0.2928 -0.5244
  571MOL0     N77002   0.237  10.032   4.288 -0.3123  0.6558  1.3186
  571MOL0     C77003   0.131   9.469   3.129  0.2625  0.1849 -0.4898
  571MOL0     C77004   0.171   9.430   3.005 -0.2842  0.3443 -0.4271
  571MOL0     C77005   0.234   9.205   2.640 -1.2707  0.5669 -0.3664
  571MOL0     C77006   0.355   9.176   2.566  1.0877  0.6470 -0.0993
  571MOL0     C77007   0.339   9.142   2.433  0.6723  0.3810 -0.1293
  571MOL0     C77008   0.219   9.153   2.357  0.1290 -0.3522  0.1594
  571MOL0     O77009   0.213   9.138   2.221  0.1469  0.1017  0.0371
  571MOL0     C77010   0.092   9.191   2.161  0.7973 -0.1935  0.1913
  571MOL0     C77011   0.132   9.214   2.018  0.2386  0.0133 -0.3380
  571MOL0     C77012   0.226   9.098   1.969 -0.4302 -0.1551  0.9041
  571MOL0     C77013   0.250   9.078   1.815  0.2087 -0.5332 -0.6223
  571MOL0     C77014   0.325   9.183   1.749  0.5625  0.9067  0.3628
  571MOL0     C77015   0.398   9.262   1.701  0.6608 -0.1970 -0.4271
  571MOL0     C77016   0.104   9.183   2.435  1.0577  0.8127 -0.2924
  571MOL0     C77017   0.108   9.196   2.570 -0.2976 -0.0990 -0.3484
  571MOL0     H77018  -0.027   9.158   2.964  0.8782 -1.8960  1.6472
  571MOL0     H77019  -0.083   9.225   3.218 -1.3567 -0.7805 -1.5824
  571MOL0     H77020   0.158   9.359   3.471 -1.3831 -0.5157  1.6034
  571MOL0     H77021   0.187   9.511   3.384 -0.0643  0.8648  1.8196
  571MOL0     H77022  -0.010   9.626   3.477  2.9137  2.3731 -1.4229
  571MOL0     H77023  -0.029   9.485   3.594 -0.9988 -0.5679 -0.4603
  571MOL0     H77024   0.175   9.556   3.707 -0.3219 -1.5543 -1.4657
  571MOL0     H77025   0.219   9.661   3.577  0.2868 -2.1576 -0.2538
  571MOL0     H77026   0.060   9.835   3.635  0.8297 -1.0600 -1.2987
  571MOL0     H77027  -0.048   9.715   3.707 -1.0203 -0.0648 -2.1439
  571MOL0     H77028   0.059   9.868   3.884 -0.4082  1.1703 -0.9518
  571MOL0     H77029   0.121   9.701   3.906 -0.2526  1.2764  0.9283
  571MOL0     H77030   0.330   9.739   3.839  3.1176  1.7634 -1.1954
  571MOL0     H77031   0.300   9.885   3.744 -2.2694  3.3364  2.1454
  571MOL0     H77032   0.415   9.923   3.958  0.2629  4.7339 -0.3706
  571MOL0     H77033   0.268  10.016   3.951  4.0970  1.2219  0.5387
  571MOL0     H77034   0.310   9.758   4.102  1.2760  0.4335  6.0721
  571MOL0     H77035   0.157   9.849   4.106 -0.0233 -3.0946 -2.3211
  571MOL0     H77036   0.478   9.817   4.271  1.3068  0.1531 -1.0875
  571MOL0     H77037   0.451  10.052   4.595 -0.7736  0.2898 -0.4486
  571MOL0     H77038   0.479   9.882   4.594 -0.8821 -0.8943 -0.6943
  571MOL0     H77039   0.692   9.915   4.441  0.0581 -0.7639  0.7677
  571MOL0     H77040   0.697  10.004   4.594 -0.1322 -0.3157  0.3728
  571MOL0     H77041   0.626  10.200   4.483  0.3377  1.3951 -0.5970
  571MOL0     H77042   0.639  10.102   4.325  3.3988 -3.8859 -0.7175
  571MOL0     H77043   0.856  10.147   4.516 -0.2883 -1.8046 -0.5641
  571MOL0     H77044   0.851  10.256   4.383  0.9265 -0.6106 -0.3851
  571MOL0     H77045   0.942   9.860   4.148 -0.5727 -0.4451 -2.4972
  571MOL0     H77046   0.898   9.733   3.939 -2.4238 -0.4016 -1.3029
  571MOL0     H77047   0.832   9.830   3.815 -1.3441 -2.1411  0.5246
  571MOL0     H77048   1.002   9.803   3.822  0.8656  1.8059  0.3741
  571MOL0     H77049   0.723  10.017   3.497 -2.2171  1.7395  1.9109
  571MOL0     H77050   0.732  10.060   3.268  1.3374 -0.0448 -0.4095
  571MOL0     H77051   0.888  10.113   3.050 -0.1685 -0.0155 -0.9789
  571MOL0     H77052   0.709  10.172   3.016 -0.1196 -0.0925 -2.4345
  571MOL0     H77053   0.819  10.354   2.900 -1.1454 -0.3699 -4.1612
  571MOL0     H77054   0.983  10.290   2.927 -0.7738  1.8040  0.1375
  571MOL0     H77055   0.801  10.101   2.790 -0.7884  0.5009 -2.0343
  571MOL0     H77056   0.971  10.145   2.761 -0.3004 -0.2337  1.2588
  571MOL0     H77057   0.883  10.338   2.619 -0.2478  1.1618  1.5484
  571MOL0     H77058   0.808  10.176   2.575 -1.4514 -0.5704  1.1222
  571MOL0     H77059   0.635  10.322   2.552 -2.7172 -0.3040  0.3075
  571MOL0     H77060   0.664  10.409   2.709  2.3865  1.4981 -1.7420
  571MOL0     H77061   0.584  10.128   2.621  1.0227  0.7136 -1.3899
  571MOL0     H77062   0.596  10.155   2.794  0.5619 -0.3581 -0.3436
  571MOL0     H77063   0.356  10.159   2.691 -2.1685  0.3999 -2.5483
  571MOL0     H77064   0.417  10.296   2.593 -0.4972  2.5956  2.3124
  571MOL0     H77065   0.288  10.384   2.782  0.2097  2.0112  0.4134
  571MOL0     H77066   0.447  10.427   2.820  0.8109 -0.3251 -2.8093
  571MOL0     H77067   0.936  10.443   3.337 -0.7802  1.5929  4.7519
  571MOL0     H77068   0.949  10.379   3.559  2.6757 -1.8176 -0.1599
  571MOL0     H77069   0.887  10.292   3.915  1.4903  0.8027  0.9069
  571MOL0     H77070   0.839  10.279   4.169  2.9415  0.0218  0.6539
  571MOL0     H77071   0.165   9.568   3.157 -3.6690  1.4076  0.6044
  571MOL0     H77072   0.245   9.489   2.951  0.9950 -2.7364 -2.3045
  571MOL0     H77073   0.460   9.176   2.593  1.9414  1.5035 -3.0705
  571MOL0     H77074   0.422   9.099   2.379 -0.3430 -1.5076 -0.2885
  571MOL0     H77075   0.012   9.116   2.159  2.3159 -1.8470 -1.6645
  571MOL0     H77076   0.049   9.284   2.200  1.2577 -0.4009  1.2321
  571MOL0     H77077   0.176   9.313   2.004 -0.4431  0.7328  2.2061
  571MOL0     H77078   0.042   9.210   1.956 -0.1570 -0.0423  0.2417
  571MOL0     H77079   0.185   9.002   1.999 -1.2938  0.2240  0.9517
  571MOL0     H77080   0.326   9.105   2.014 -0.2493 -0.3368  0.5399
  571MOL0     H77081   0.147   9.076   1.777 -0.5178 -1.8352  1.2585
  571MOL0     H77082   0.294   8.981   1.793 -1.8710 -1.0647 -2.9069
  571MOL0     H77083   0.470   9.330   1.661 -0.0785  0.6182 -0.3955
  571MOL0     H77084   0.008   9.200   2.387  1.7070 -0.7489 -2.2936
  571MOL0     H77085   0.009   9.213   2.612 -0.5255 -0.9292 -0.5272
  572MOL0     O77086   1.742   8.949   9.327 -1.2128  0.7711 -1.0487
  572MOL0     C77087   1.732   8.868   9.422 -0.3716 -0.7178 -0.4894
  572MOL0     O77088   1.766   8.741   9.422 -0.4851  0.2209  0.2239
  572MOL0     C77089   1.814   8.682   9.307 -0.4263  0.3411 -0.3143
  572MOL0     C77090   1.734   8.674   9.197 -0.0086 -0.1089 -0.0469
  572MOL0     C77091   1.768   8.610   9.076  0.2529 -0.7352  0.2850
  572MOL0     C77092   1.893   8.543   9.066  0.0850 -0.6049  0.0610
  572MOL0     O77093   1.934   8.455   8.970 -0.1974  1.1589  0.3087
  572MOL0     C77094   1.849   8.440   8.854  0.4225  0.6824 -0.1741
  572MOL0     C77095   1.908   8.345   8.750  0.0446 -0.0625  0.0393
  572MOL0     C77096   1.826   8.214   8.729 -0.6473 -0.0425 -0.0153
  572MOL0     C77097   1.810   8.126   8.849  0.4551 -0.2012 -0.9524
  572MOL0     C77098   1.933   8.031   8.859 -0.4195 -1.4063  0.0264
  572MOL0     C77099   1.947   7.940   8.980 -0.1286  0.3378 -0.2966
  572MOL0     C77100   2.062   7.832   8.973  0.2584 -0.1950 -0.7897
  572MOL0     C77101   2.203   7.885   9.006  0.5824 -0.2175  0.3013
  572MOL0     N77102   2.292   7.792   8.938  0.1408  0.4533 -0.4053
  572MOL0     C77103   2.355   7.688   9.005  0.4766  0.0113 -0.5138
  572MOL0     C77104   2.462   7.667   8.921 -0.1605 -0.5176 -0.1101
  572MOL0     C77105   2.572   7.562   8.953 -0.1892  0.5010 -0.3147
  572MOL0     C77106   2.539   7.436   8.874  0.3090  0.1819  0.7524
  572MOL0     C77107   2.624   7.312   8.909 -0.5404 -0.4726  0.2339
  572MOL0     C77108   2.630   7.266   9.057 -0.3803 -0.5424  1.2135
  572MOL0     O77109   2.685   7.358   9.151  0.4206 -0.5014 -0.6402
  572MOL0     C77110   2.703   7.320   9.285 -0.3119 -0.4688 -0.7565
  572MOL0     C77111   2.681   7.194   9.328 -0.6358 -0.7078  0.7182
  572MOL0     C77112   2.671   7.166   9.461  0.4279  0.3064  0.5272
  572MOL0     C77113   2.637   7.017   9.494 -0.7710  0.3707 -0.4622
  572MOL0     C77114   2.700   7.265   9.559 -0.3602  0.7838  0.8101
  572MOL0     C77115   2.684   7.249   9.711 -0.1823  0.4811 -0.3794
  572MOL0     O77116   2.755   7.333   9.785 -0.4353  0.0570  0.0269
  572MOL0     C77117   2.743   7.334   9.915 -1.2060 -0.1963 -0.5005
  572MOL0     C77118   2.626   7.356   9.992  0.1298 -0.2918  0.1625
  572MOL0     C77119   2.623   7.383  10.129  1.2630 -0.0516  0.7190
  572MOL0     C77120   2.746   7.381  10.200 -1.6238  0.1045 -0.7157
  572MOL0     O77121   2.765   7.391  10.339 -0.5767 -0.0494  0.1618
  572MOL0     C77122   2.664   7.343  10.419 -0.2299  0.5914 -0.2137
  572MOL0     C77123   2.708   7.286  10.553 -0.5650  1.1707  0.1234
  572MOL0     C77124   2.793   7.381  10.629  0.1149  0.1809 -0.2079
  572MOL0     C77125   2.876   7.306  10.740  0.0184 -0.1277 -0.2030
  572MOL0     C77126   2.968   7.412  10.792  0.5341  1.0534 -0.2970
  572MOL0     C77127   3.015   7.376  10.936  0.5933  0.2755 -0.5530
  572MOL0     C77128   3.086   7.238  10.927  0.0509  0.4016 -0.5835
  572MOL0     C77129   3.174   7.196  11.049  0.8603 -0.6738  0.1323
  572MOL0    Cl77130   3.253   7.042  11.041 -0.3049 -0.2712  0.0734
  572MOL0     C77131   2.862   7.358  10.125  0.2649  0.4450  0.2785
  572MOL0     C77132   2.866   7.337   9.985 -0.3653  0.6124  1.2954
  572MOL0     O77133   2.598   7.172   9.745 -0.0352  0.4886  0.1374
  572MOL0     C77134   2.733   7.396   9.508 -0.3203  0.0603  0.6329
  572MOL0     C77135   2.716   7.426   9.373  0.0225 -0.5875  0.0857
  572MOL0     N77136   2.461   7.742   8.804  0.1341  0.6235  0.1762
  572MOL0     N77137   2.361   7.820   8.824 -0.7294 -0.6521  0.4424
  572MOL0     C77138   1.985   8.550   9.175  0.0862 -0.9812 -0.3657
  572MOL0     C77139   1.937   8.616   9.298 -0.0714  0.3047  0.5790
  572MOL0     C77140   1.663   8.931   9.534  1.1419 -0.3751  0.1764
  572MOL0     C77141   1.692   8.890   9.674  0.3094 -0.2250  0.9794
  572MOL0     C77142   1.612   8.929   9.774  1.2512  0.0562  0.1081
  572MOL0     C77143   1.509   9.033   9.753 -0.0631  0.3983 -0.0258
  572MOL0     O77144   1.467   9.085   9.869  1.0683  0.0846  0.5081
  572MOL0     C77145   1.420   9.220   9.878  0.2460 -1.0044 -0.4982
  572MOL0     C77146   1.530   9.321   9.837  0.6991 -0.0841  0.3274
  572MOL0     C77147   1.485   9.461   9.831  0.6777 -0.2052 -0.2458
  572MOL0     C77148   1.427   9.493   9.693  0.3430  0.6047  0.3914
  572MOL0     C77149   1.522   9.487   9.584 -0.6499 -0.0247 -0.4718
  572MOL0     C77150   1.613   9.456   9.509  0.0408 -0.2467 -0.9091
  572MOL0     C77151   1.494   9.082   9.625  0.8518 -0.5381 -1.3040
  572MOL0     C77152   1.560   9.022   9.516 -0.4079  0.1053 -0.4003
  572MOL0     H77153   1.632   8.711   9.204  0.3376  0.7136  0.8108
  572MOL0     H77154   1.712   8.610   8.983  1.3842 -1.1869 -0.4255
  572MOL0     H77155   1.747   8.411   8.883 -0.1043  0.7713 -1.8503
  572MOL0     H77156   1.824   8.541   8.820 -4.0343 -0.6406 -1.5188
  572MOL0     H77157   1.888   8.402   8.659 -0.1307 -2.0694 -1.2400
  572MOL0     H77158   2.012   8.317   8.765  0.1925 -1.4539 -2.9240
  572MOL0     H77159   1.724   8.242   8.702 -1.9840 -0.7698  3.6258
  572MOL0     H77160   1.890   8.166   8.654  3.1822  3.6294  0.5101
  572MOL0     H77161   1.790   8.186   8.938  3.7859  0.1871 -0.3246
  572MOL0     H77162   1.725   8.061   8.829 -0.0080 -0.0414  0.4158
  572MOL0     H77163   1.944   7.976   8.764  2.3055 -0.1060 -0.5020
  572MOL0     H77164   2.012   8.106   8.868 -0.7240 -1.1171  0.2851
  572MOL0     H77165   1.950   7.995   9.074  0.0030 -1.2376  0.6619
  572MOL0     H77166   1.854   7.881   8.985 -0.6662  1.2035  0.1728
  572MOL0     H77167   2.023   7.759   9.044 -2.3764  1.3371 -0.5153
  572MOL0     H77168   2.056   7.779   8.878 -3.6667 -0.1584 -0.7293
  572MOL0     H77169   2.217   7.887   9.114  0.1716 -0.6677  0.3662
  572MOL0     H77170   2.226   7.985   8.966  0.6977 -1.0143 -1.7601
  572MOL0     H77171   2.313   7.646   9.096 -1.4292 -0.6418 -1.6263
  572MOL0     H77172   2.671   7.596   8.921  1.1151  0.7707  3.5067
  572MOL0     H77173   2.565   7.546   9.061  3.5172  0.3856  0.0441
  572MOL0     H77174   2.555   7.454   8.767 -1.6953 -1.0221  0.1839
  572MOL0     H77175   2.431   7.420   8.876  0.2554  0.3735  0.0040
  572MOL0     H77176   2.732   7.315   8.888  0.8346  3.6251  5.5591
  572MOL0     H77177   2.589   7.221   8.859  0.1297 -1.2833  1.1778
  572MOL0     H77178   2.684   7.171   9.053 -0.7814 -0.7717  1.1893
  572MOL0     H77179   2.528   7.235   9.081  0.1089 -2.1441  1.3041
  572MOL0     H77180   2.666   7.120   9.250 -1.0984  0.5678 -0.4302
  572MOL0     H77181   2.734   6.968   9.502 -0.9223  0.1277 -0.0731
  572MOL0     H77182   2.576   7.008   9.585 -0.0162  0.1275  0.0264
  572MOL0     H77183   2.583   6.970   9.412 -0.7176  1.8219 -1.3642
  572MOL0     H77184   2.529   7.333   9.951 -0.7866 -0.7971  2.5031
  572MOL0     H77185   2.531   7.390  10.187  0.1960  0.6857 -0.9840
  572MOL0     H77186   2.582   7.414  10.435  0.5731  1.1038  1.9678
  572MOL0     H77187   2.625   7.256  10.365  1.3840  0.7455 -1.7283
  572MOL0     H77188   2.621   7.255  10.613 -1.2193 -1.6959 -2.0734
  572MOL0     H77189   2.764   7.193  10.538  1.5033  2.4646 -0.5617
  572MOL0     H77190   2.733   7.459  10.677  1.5175  3.0213 -2.7251
  572MOL0     H77191   2.859   7.436  10.561  1.8984  1.1774  2.1478
  572MOL0     H77192   2.806   7.257  10.808 -1.6383  0.1566 -1.6402
  572MOL0     H77193   2.915   7.217  10.688 -3.1237 -3.0347  1.9776
  572MOL0     H77194   2.927   7.512  10.808 -1.5992 -0.1343  2.3570
  572MOL0     H77195   3.054   7.422  10.724 -0.8861 -0.1639 -2.4042
  572MOL0     H77196   3.090   7.454  10.950  3.1744 -1.8879 -1.3645
  572MOL0     H77197   2.932   7.370  11.006  1.6651  0.0553  0.7297
  572MOL0     H77198   3.160   7.224  10.848  0.0109 -0.0441 -0.5491
  572MOL0     H77199   3.015   7.159  10.900  2.9872 -2.4740 -0.4821
  572MOL0     H77200   3.109   7.183  11.136  0.6202  0.0138  0.0596
  572MOL0     H77201   3.255   7.269  11.057  0.2799  0.3160 -2.0523
  572MOL0     H77202   2.951   7.349  10.186  0.5324  1.7660  0.1221
  572MOL0     H77203   2.955   7.303   9.932 -1.0346  0.0314  0.5169
  572MOL0     H77204   2.748   7.464   9.591 -0.3058 -0.1147  0.7733
  572MOL0     H77205   2.729   7.528   9.341  1.2545 -0.1052  1.9857
  572MOL0     H77206   2.079   8.497   9.170  2.0379  2.2125 -0.2443
  572MOL0     H77207   2.011   8.621   9.378 -0.9567 -0.2852  1.4697
  572MOL0     H77208   1.776   8.832   9.710  0.8131  0.5703  1.1127
  572MOL0     H77209   1.631   8.906   9.879 -1.2138  1.2039  0.8889
  572MOL0     H77210   1.341   9.226   9.803  1.2922 -2.6440 -1.7861
  572MOL0     H77211   1.370   9.237   9.974  3.0437 -1.6754  1.2053
  572MOL0     H77212   1.582   9.296   9.744  0.1671 -0.0757  0.0188
  572MOL0     H77213   1.593   9.317   9.925  0.9054 -0.6311  0.1549
  572MOL0     H77214   1.570   9.530   9.837 -0.3206  1.3575 -2.4963
  572MOL0     H77215   1.416   9.486   9.912 -0.4713 -3.9059  0.0731
  572MOL0     H77216   1.379   9.591   9.700 -2.4813 -0.0518 -4.5604
  572MOL0     H77217   1.339   9.434   9.666 -0.1158  1.2340  0.4674
  572MOL0     H77218   1.689   9.436   9.436 -0.9088 -4.5176 -1.0284
  572MOL0     H77219   1.429   9.168   9.611  1.8427  0.5817  0.5653
  572MOL0     H77220   1.522   9.073   9.428 -2.1974 -1.4476 -0.6025
  573MOL0     O77221   3.885   0.662  10.154 -0.1134  0.5092 -0.3871
  573MOL0     C77222   3.773   0.704  10.196 -0.6765 -0.3949 -0.1111
  573MOL0     O77223   3.670   0.743  10.125 -0.5892  0.0958  0.2822
  573MOL0     C77224   3.667   0.712   9.988  0.1101 -0.5511 -0.9260
  573MOL0     C77225   3.556   0.635   9.936  0.2385 -0.1605  0.2638
  573MOL0     C77226   3.559   0.578   9.807  0.5570 -0.0591 -0.1949
  573MOL0     C77227   3.669   0.585   9.729  0.4155 -0.5748  0.5628
  573MOL0     O77228   3.682   0.537   9.600 -0.6363  0.4551 -0.8219
  573MOL0     C77229   3.574   0.553   9.512  0.8943  0.7395  0.5144
  573MOL0     C77230   3.626   0.502   9.373  0.5676  0.7074 -0.3642
  573MOL0     C77231   3.505   0.516   9.270 -0.3048  0.8037 -0.1169
  573MOL0     C77232   3.547   0.510   9.124  0.5420  0.0960  0.5149
  573MOL0     C77233   3.658   0.597   9.079  0.6401  1.0519  0.5186
  573MOL0     C77234   3.643   0.747   9.109 -0.3295 -0.1399 -0.7804
  573MOL0     C77235   3.766   0.826   9.067 -0.7006 -0.1417 -0.1218
  573MOL0     C77236   3.823   0.804   8.921  0.0823 -0.3621  0.2103
  573MOL0     N77237   3.956   0.859   8.893 -0.9001 -1.2600  0.0082
  573MOL0     C77238   3.987   0.984   8.847 -0.5138 -0.3080 -0.2571
  573MOL0     C77239   4.116   0.973   8.801  0.6820  0.2179 -0.1604
  573MOL0     C77240   4.198   1.081   8.730 -0.0380  1.0904 -0.8328
  573MOL0     C77241   4.318   1.113   8.821 -0.8226 -0.0988 -0.2990
  573MOL0     C77242   4.280   1.164   8.972  0.5505  0.0099 -0.4000
  573MOL0     C77243   4.409   1.150   9.065  0.3982 -0.0482 -0.6217
  573MOL0     O77244   4.363   1.151   9.202 -0.4519  0.3062  0.8789
  573MOL0     C77245   4.337   1.270   9.272  0.3973 -0.1145 -0.1792
  573MOL0     C77246   4.323   1.401   9.219  0.0674  0.6094 -0.3517
  573MOL0     C77247   4.281   1.513   9.293  0.5101 -1.4863 -0.5829
  573MOL0     C77248   4.288   1.648   9.221 -0.2793 -0.1925 -0.3276
  573MOL0     C77249   4.245   1.499   9.428 -0.1887  0.3939  0.2114
  573MOL0     C77250   4.205   1.603   9.523  0.1208 -0.8019  0.4204
  573MOL0     O77251   4.270   1.726   9.506  0.2523 -0.3536 -0.4297
  573MOL0     C77252   4.237   1.842   9.569 -0.4335  0.9395  0.6727
  573MOL0     C77253   4.106   1.883   9.605 -0.6024  0.5298  0.2439
  573MOL0     C77254   4.073   2.011   9.658  0.1006  0.9565  0.8265
  573MOL0     C77255   4.168   2.103   9.678  0.1729 -0.6438 -0.4862
  573MOL0     O77256   4.124   2.224   9.719  0.0492 -0.0898  0.1915
  573MOL0     C77257   4.120   2.245   9.862  0.8738 -0.2818  0.1526
  573MOL0     C77258   4.114   2.396   9.907  1.3186 -0.6285 -0.5584
  573MOL0     C77259   4.087   2.395  10.061  0.6452 -0.1591  0.4228
  573MOL0     C77260   4.036   2.526  10.123 -0.0251  0.4206  0.5177
  573MOL0     C77261   4.018   2.499  10.276  0.6146 -0.4214 -0.3584
  573MOL0     C77262   3.947   2.606  10.346  0.3548 -1.1745  1.2888
  573MOL0     C77263   3.998   2.754  10.344 -0.0130  0.6597  0.2809
  573MOL0     C77264   4.083   2.795  10.461 -0.0109  0.5993  0.4423
  573MOL0    Cl77265   4.109   2.970  10.479 -0.2728  0.1079 -0.1413
  573MOL0     C77266   4.301   2.070   9.652 -0.9888 -0.4404 -0.7037
  573MOL0     C77267   4.328   1.948   9.587  0.1975 -0.1501  0.4007
  573MOL0     O77268   4.121   1.579   9.612  0.6968 -0.1760 -0.2961
  573MOL0     C77269   4.263   1.367   9.485  0.5777 -0.6464  0.1174
  573MOL0     C77270   4.313   1.250   9.406 -0.5947 -0.2320 -0.0880
  573MOL0     N77271   4.157   0.843   8.813  0.3249 -0.2107 -0.5611
  573MOL0     N77272   4.070   0.784   8.873  0.0931  0.4425 -0.1591
  573MOL0     C77273   3.776   0.669   9.774 -0.2172 -0.5970  0.4733
  573MOL0     C77274   3.773   0.727   9.904  0.2508 -0.5045 -0.4697
  573MOL0     C77275   3.767   0.716  10.346 -0.0284 -0.3479 -0.2898
  573MOL0     C77276   3.681   0.820  10.398  0.1026 -0.2162  0.8225
  573MOL0     C77277   3.687   0.853  10.536 -0.2413 -0.5488 -0.0348
  573MOL0     C77278   3.765   0.781  10.629 -0.1930  0.0965 -0.5735
  573MOL0     O77279   3.759   0.793  10.768  0.1504  0.7485  0.0241
  573MOL0     C77280   3.694   0.909  10.819 -0.5604  0.3371 -0.1275
  573MOL0     C77281   3.731   0.944  10.963 -0.5230 -0.0656 -0.3936
  573MOL0     C77282   3.664   0.858  11.079  0.5244  0.3313  0.1033
  573MOL0     C77283   3.665   0.906  11.221 -0.1326 -0.6248  0.4114
  573MOL0     C77284   3.750   1.026  11.258 -0.1301  0.2471  0.8417
  573MOL0     C77285   3.807   1.118  11.314 -0.0463  0.0308  0.1865
  573MOL0     C77286   3.850   0.684  10.577  0.4026 -0.4673 -0.0337
  573MOL0     C77287   3.856   0.649  10.439  0.2006  0.4249  0.7148
  573MOL0     H77288   3.469   0.610   9.996  0.4014 -3.6463 -0.7515
  573MOL0     H77289   3.485   0.504   9.778  0.4981 -0.4857  0.9813
  573MOL0     H77290   3.486   0.494   9.539  1.9628 -1.0879  0.2286
  573MOL0     H77291   3.534   0.654   9.504  0.0067  0.5565  2.0942
  573MOL0     H77292   3.718   0.557   9.349  1.2105 -0.1428  0.0839
  573MOL0     H77293   3.655   0.397   9.380  2.0106  0.9618 -1.9044
  573MOL0     H77294   3.437   0.430   9.277  0.1653  0.2085 -2.0230
  573MOL0     H77295   3.447   0.606   9.291  1.9003  1.6477  2.9851
  573MOL0     H77296   3.585   0.411   9.098 -1.0200 -0.3695 -0.1426
  573MOL0     H77297   3.458   0.543   9.068  1.4636  4.5519  1.2472
  573MOL0     H77298   3.751   0.556   9.121  1.5342  2.3769 -0.0915
  573MOL0     H77299   3.683   0.583   8.974  0.4622 -1.0092  0.7176
  573MOL0     H77300   3.555   0.791   9.060 -0.4505  3.4420  2.2543
  573MOL0     H77301   3.629   0.774   9.214 -1.8812 -0.9918 -0.7325
  573MOL0     H77302   3.745   0.933   9.075  2.8810  0.7265 -0.7150
  573MOL0     H77303   3.852   0.803   9.130 -0.0063 -1.6172 -1.5403
  573MOL0     H77304   3.750   0.855   8.857 -1.3737 -1.0912  1.2513
  573MOL0     H77305   3.816   0.702   8.882 -2.2783 -1.0533  2.1781
  573MOL0     H77306   3.927   1.074   8.841  0.4907  0.3890 -0.2001
  573MOL0     H77307   4.228   1.046   8.631 -3.3503 -0.0524 -1.5425
  573MOL0     H77308   4.136   1.171   8.724 -0.4732  0.6909 -3.0608
  573MOL0     H77309   4.386   1.182   8.770 -1.5055  0.1480 -0.8912
  573MOL0     H77310   4.380   1.023   8.820  0.8336  0.9924 -1.7496
  573MOL0     H77311   4.208   1.097   9.020 -2.1654  3.4838  0.7523
  573MOL0     H77312   4.241   1.266   8.974  1.4598  0.3922 -1.2349
  573MOL0     H77313   4.469   1.237   9.037  0.1214  0.1414 -0.6296
  573MOL0     H77314   4.459   1.054   9.051  0.2685 -0.4863  1.5891
  573MOL0     H77315   4.357   1.414   9.117 -0.1587 -0.5807 -0.6022
  573MOL0     H77316   4.212   1.718   9.258  3.7751  3.2048  2.4765
  573MOL0     H77317   4.384   1.699   9.227 -1.7235  2.6769 -0.1608
  573MOL0     H77318   4.261   1.642   9.115 -2.1131  0.0800  0.0811
  573MOL0     H77319   4.019   1.818   9.604 -1.2150  1.3368  0.3869
  573MOL0     H77320   3.973   2.045   9.683 -0.3886  2.3640 -2.4580
  573MOL0     H77321   4.029   2.199   9.901  0.7838  1.1250  1.6720
  573MOL0     H77322   4.210   2.197   9.901  1.4692 -0.6079 -1.5201
  573MOL0     H77323   4.213   2.437   9.886 -0.1645  1.8917 -3.2817
  573MOL0     H77324   4.034   2.441   9.848  1.9653  1.0069 -0.2263
  573MOL0     H77325   4.176   2.361  10.115 -0.1845 -1.4482  1.0387
  573MOL0     H77326   4.012   2.317  10.077  0.7430 -0.0676  1.3638
  573MOL0     H77327   4.092   2.615  10.092  2.2365 -0.4273  1.8981
  573MOL0     H77328   3.939   2.549  10.078  0.1686 -0.5880 -0.4707
  573MOL0     H77329   4.117   2.480  10.319  0.9303 -3.5948 -2.2379
  573MOL0     H77330   3.961   2.408  10.291  2.0727 -1.0168  2.2089
  573MOL0     H77331   3.842   2.591  10.318  0.4442 -0.6819  0.6782
  573MOL0     H77332   3.963   2.573  10.450  1.4396 -2.9736  0.6074
  573MOL0     H77333   3.912   2.822  10.345 -2.5873 -2.3749 -0.3383
  573MOL0     H77334   4.051   2.765  10.249 -2.4953  2.3570 -1.0272
  573MOL0     H77335   4.177   2.740  10.447 -0.6906 -0.0003 -2.5519
  573MOL0     H77336   4.036   2.769  10.556 -0.1437 -1.2373 -0.0950
  573MOL0     H77337   4.387   2.125   9.688  0.8265 -1.6089 -3.0510
  573MOL0     H77338   4.434   1.934   9.569  0.7604  3.7569 -0.2477
  573MOL0     H77339   4.248   1.341   9.589  1.2576 -0.0344  0.3794
  573MOL0     H77340   4.328   1.152   9.450  0.2934  0.4551  1.2227
  573MOL0     H77341   3.862   0.689   9.711  0.2057 -0.1736  1.1668
  573MOL0     H77342   3.857   0.783   9.944  1.0738 -1.4590 -0.8119
  573MOL0     H77343   3.611   0.875  10.336 -0.8759 -1.5781  0.6811
  573MOL0     H77344   3.607   0.920  10.565 -0.4740 -0.4639 -0.8508
  573MOL0     H77345   3.713   0.990  10.749 -4.2261  0.6777 -0.9633
  573MOL0     H77346   3.584   0.904  10.824 -0.6359  2.2262  3.3908
  573MOL0     H77347   3.722   1.053  10.973 -1.3843 -0.0559 -1.1912
  573MOL0     H77348   3.840   0.930  10.964 -0.5298 -1.1749  4.0058
  573MOL0     H77349   3.689   0.752  11.075 -0.3935  0.0689  0.8634
  573MOL0     H77350   3.556   0.851  11.059  0.1311  0.4821  1.9936
  573MOL0     H77351   3.690   0.820  11.283  0.3145 -0.2440  0.7775
  573MOL0     H77352   3.569   0.952  11.247  0.3097  0.6063 -0.0282
  573MOL0     H77353   3.858   1.195  11.367 -0.7573 -0.0804  1.0502
  573MOL0     H77354   3.893   0.621  10.654 -0.9692 -0.5848  0.6633
  573MOL0     H77355   3.900   0.552  10.421 -1.1237 -0.0458 -0.1138
  574MOL0     O77356   3.383  10.287   5.968 -0.3460 -0.9015  0.7547
  574MOL0     C77357   3.280  10.243   6.011  0.0456  0.3724 -1.0789
  574MOL0     O77358   3.208  10.154   5.950  0.4591  0.1952 -1.1062
  574MOL0     C77359   3.225  10.126   5.817 -0.1212  0.3803  0.3824
  574MOL0     C77360   3.303  10.192   5.716 -0.3775  0.3715  0.6411
  574MOL0     C77361   3.299  10.144   5.583 -0.0813 -0.6261 -0.6218
  574MOL0     C77362   3.244  10.029   5.549 -0.8626 -0.0637  0.0218
  574MOL0     O77363   3.276   9.988   5.427 -0.0775  1.0614  0.9144
  574MOL0     C77364   3.181   9.906   5.352  0.0283  0.6784 -0.3870
  574MOL0     C77365   3.218   9.889   5.200  0.5063  1.4916 -0.4433
  574MOL0     C77366   3.193  10.004   5.108 -0.2901  0.0754 -0.2989
  574MOL0     C77367   3.282  10.120   5.128 -0.3011  0.0513  0.6372
  574MOL0     C77368   3.214  10.242   5.067  0.7589  0.6112 -0.3976
  574MOL0     C77369   3.290  10.372   5.054  0.2701  0.1011 -0.0719
  574MOL0     C77370   3.378  10.402   5.182 -0.1905 -0.1829 -0.4967
  574MOL0     C77371   3.475  10.524   5.147 -0.1990  0.1630 -0.9389
  574MOL0     N77372   3.409  10.627   5.063  0.2733 -0.2478 -0.2955
  574MOL0     C77373   3.306  10.707   5.110  0.3348 -0.1875  0.4788
  574MOL0     C77374   3.285  10.797   5.010  0.3271 -0.6559 -0.3729
  574MOL0     C77375   3.191  10.913   5.003 -0.3602 -1.0053 -0.5171
  574MOL0     C77376   3.136  10.951   4.862  0.0783  0.9668  0.1073
  574MOL0     C77377   3.009  11.021   4.863 -0.3178  0.6349  0.4223
  574MOL0     C77378   2.975  11.092   4.724 -0.2093 -0.0168  0.1152
  574MOL0     O77379   3.061  11.205   4.714  0.5522  0.2795  0.1761
  574MOL0     C77380   3.087  11.262   4.594  0.1382 -0.5486  1.3728
  574MOL0     C77381   3.185  11.367   4.581 -0.2088 -0.4800 -0.7783
  574MOL0     C77382   3.206  11.440   4.463  0.1867 -0.3408  1.1909
  574MOL0     C77383   3.305  11.552   4.469 -0.1539 -0.2605  0.8996
  574MOL0     C77384   3.131  11.403   4.344 -0.1459  0.1061  0.2780
  574MOL0     C77385   3.129  11.481   4.212  0.3771  0.2990  0.9362
  574MOL0     O77386   3.067  11.429   4.109 -0.2361 -0.4883 -0.5199
  574MOL0     C77387   3.036  11.510   4.003  0.0325  0.0234  0.0729
  574MOL0     C77388   2.934  11.613   4.011  0.2408  0.0350  0.5581
  574MOL0     C77389   2.903  11.681   3.892 -0.6348  0.2590 -1.3534
  574MOL0     C77390   2.973  11.649   3.769  0.4848 -0.3514  0.5928
  574MOL0     O77391   2.930  11.716   3.657 -0.9648  0.0238 -0.1539
  574MOL0     C77392   2.935  11.656   3.522 -0.6624  0.1519  0.8187
  574MOL0     C77393   2.849  11.740   3.433 -0.5050 -0.4143  0.1160
  574MOL0     C77394   2.703  11.759   3.501 -0.3640 -0.3686 -0.1447
  574MOL0     C77395   2.622  11.855   3.405  0.2158  0.0627 -0.0325
  574MOL0     C77396   2.474  11.862   3.436  0.2731  0.9722 -0.6694
  574MOL0     C77397   2.402  11.938   3.332 -0.6285 -0.3997  0.4092
  574MOL0     C77398   2.260  11.947   3.361 -0.8244 -0.2378  0.5974
  574MOL0     C77399   2.207  12.068   3.293 -1.1569 -0.0685 -0.1174
  574MOL0    Cl77400   2.211  12.041   3.117 -0.3697 -0.1131 -0.2574
  574MOL0     C77401   3.081  11.564   3.767 -0.8074 -0.0419  0.7198
  574MOL0     C77402   3.108  11.490   3.882 -0.2077  0.4801 -0.4480
  574MOL0     O77403   3.193  11.595   4.208  0.1336  0.8645 -0.0068
  574MOL0     C77404   3.036  11.303   4.356  1.2196  0.9031 -0.7228
  574MOL0     C77405   3.013  11.237   4.475  0.7131  0.1394  0.3187
  574MOL0     N77406   3.392  10.776   4.920  0.3372  0.6762 -0.6764
  574MOL0     N77407   3.456  10.669   4.949  0.5225 -0.8722  0.6090
  574MOL0     C77408   3.176   9.960   5.646  0.2865  0.3673 -0.5614
  574MOL0     C77409   3.160  10.011   5.781  0.2310  0.5703 -0.1894
  574MOL0     C77410   3.248  10.255   6.159 -0.3181 -0.0523 -0.2711
  574MOL0     C77411   3.177  10.153   6.235 -1.3764 -1.2195  0.4206
  574MOL0     C77412   3.151  10.160   6.368  0.5187  0.4543  1.3778
  574MOL0     C77413   3.201  10.272   6.444  0.0004 -0.0918 -0.5138
  574MOL0     O77414   3.192  10.280   6.586  0.0672  0.3527  0.6154
  574MOL0     C77415   3.142  10.171   6.656  1.4725  0.5435  0.2718
  574MOL0     C77416   2.989  10.181   6.656 -0.2702  0.0251  0.1060
  574MOL0     C77417   2.919  10.046   6.696  0.6624 -1.1799  0.2560
  574MOL0     C77418   2.764  10.078   6.691  0.4526 -1.1423 -0.3580
  574MOL0     C77419   2.716  10.170   6.795 -0.2761 -1.1298  0.2561
  574MOL0     C77420   2.667  10.244   6.875 -0.5684  0.7304 -0.3479
  574MOL0     C77421   3.276  10.369   6.373 -0.2774 -0.0944 -1.7106
  574MOL0     C77422   3.300  10.360   6.234 -0.1337 -0.3593 -0.1439
  574MOL0     H77423   3.360  10.283   5.733 -0.8626  0.6441  0.8375
  574MOL0     H77424   3.362  10.190   5.507 -0.9220 -2.0601 -2.2647
  574MOL0     H77425   3.166   9.805   5.392  1.3777 -0.4174 -2.4599
  574MOL0     H77426   3.087   9.963   5.354 -1.7338 -2.0553  0.9160
  574MOL0     H77427   3.319   9.848   5.209 -0.9588 -1.9402  3.3123
  574MOL0     H77428   3.158   9.809   5.157  0.1024  0.5031  1.8280
  574MOL0     H77429   3.178   9.969   5.005 -3.2566 -0.4442  0.2005
  574MOL0     H77430   3.091  10.041   5.127  1.1053  3.4783  1.4880
  574MOL0     H77431   3.298  10.132   5.236  1.5095  0.4130  0.3564
  574MOL0     H77432   3.382  10.112   5.086  0.6936  2.8686  2.1834
  574MOL0     H77433   3.165  10.222   4.971 -0.3440 -3.5959  0.8188
  574MOL0     H77434   3.129  10.262   5.134 -1.1687  1.0776 -2.8167
  574MOL0     H77435   3.345  10.367   4.960  0.9310  3.6512 -0.0317
  574MOL0     H77436   3.217  10.454   5.060  1.4601  1.2070 -0.2068
  574MOL0     H77437   3.314  10.438   5.263 -0.1564  2.5668 -1.5503
  574MOL0     H77438   3.434  10.316   5.219 -1.1469 -0.4960  0.2435
  574MOL0     H77439   3.571  10.494   5.103  0.5446 -1.3508  1.5107
  574MOL0     H77440   3.508  10.557   5.246 -1.2597 -1.5591  0.0247
  574MOL0     H77441   3.251  10.701   5.203 -0.1698 -1.2211  0.1307
  574MOL0     H77442   3.108  10.888   5.070  0.4803 -3.7175 -0.3992
  574MOL0     H77443   3.243  10.996   5.051 -2.1798  0.2440 -0.5804
  574MOL0     H77444   3.117  10.860   4.804 -0.1885  0.7712  0.4898
  574MOL0     H77445   3.201  11.012   4.798  0.3831  0.2374 -0.2847
  574MOL0     H77446   3.020  11.102   4.936 -3.4067  1.6315 -0.0904
  574MOL0     H77447   2.930  10.951   4.889 -0.1455 -0.6076 -2.0775
  574MOL0     H77448   2.874  11.134   4.719 -0.0960  0.4730  1.4953
  574MOL0     H77449   2.970  11.027   4.636 -1.9512  3.2742 -2.4062
  574MOL0     H77450   3.232  11.401   4.673  0.1668 -0.1548 -1.0855
  574MOL0     H77451   3.248  11.642   4.442 -0.0341 -0.7186 -0.9899
  574MOL0     H77452   3.360  11.551   4.564  2.2798 -2.7787 -0.3959
  574MOL0     H77453   3.378  11.535   4.391 -2.3497 -0.3399 -1.2582
  574MOL0     H77454   2.880  11.638   4.102 -2.1165  1.2964 -1.0636
  574MOL0     H77455   2.823  11.753   3.898 -2.0386 -1.3415  0.1409
  574MOL0     H77456   3.039  11.637   3.490 -0.3677  0.2870  1.6818
  574MOL0     H77457   2.897  11.554   3.514  1.7316 -0.8256  1.0966
  574MOL0     H77458   2.910  11.829   3.416  0.3975 -0.4284  2.8276
  574MOL0     H77459   2.832  11.690   3.337  2.0804  1.8882 -1.6938
  574MOL0     H77460   2.719  11.813   3.594 -1.5183 -1.2406  0.5837
  574MOL0     H77461   2.642  11.669   3.514 -0.6633 -0.2138 -0.4575
  574MOL0     H77462   2.661  11.955   3.385 -3.6106  1.4695 -1.1420
  574MOL0     H77463   2.613  11.806   3.308  1.2688  2.1531 -1.2591
  574MOL0     H77464   2.458  11.905   3.535 -1.2216  1.6032 -1.1556
  574MOL0     H77465   2.443  11.757   3.444 -2.3198  1.8020  5.4703
  574MOL0     H77466   2.447  12.038   3.336 -2.6528  0.5252  1.0870
  574MOL0     H77467   2.431  11.901   3.233  1.1007 -1.4071  1.2345
  574MOL0     H77468   2.221  11.949   3.463 -4.7882  1.7616 -0.6985
  574MOL0     H77469   2.208  11.861   3.317 -0.4283 -0.3044  0.2555
  574MOL0     H77470   2.266  12.156   3.321  1.5126 -2.3038  1.7606
  574MOL0     H77471   2.104  12.101   3.312 -0.2665  1.6067  2.2605
  574MOL0     H77472   3.144  11.562   3.678 -0.8072  0.9182  0.6888
  574MOL0     H77473   3.191  11.420   3.871 -0.2178  0.5621 -1.1016
  574MOL0     H77474   2.976  11.267   4.273  0.9580  0.1602 -0.2286
  574MOL0     H77475   2.926  11.172   4.469  0.9859 -0.1669 -0.5231
  574MOL0     H77476   3.149   9.860   5.613  2.9814 -0.4024 -0.6592
  574MOL0     H77477   3.101   9.947   5.846 -0.7219  0.1034 -1.4840
  574MOL0     H77478   3.139  10.063   6.188 -2.5714 -0.3835 -0.2518
  574MOL0     H77479   3.096  10.078   6.413 -0.3749  1.8959  3.0524
  574MOL0     H77480   3.170  10.070   6.625  0.9320  0.1894  0.9053
  574MOL0     H77481   3.185  10.164   6.757  0.7108 -2.2472  0.4928
  574MOL0     H77482   2.957  10.214   6.557  4.4336  3.3349 -0.6647
  574MOL0     H77483   2.960  10.254   6.732 -0.2548 -2.7415  2.9864
  574MOL0     H77484   2.948  10.018   6.798 -0.6942 -1.4663  0.5864
  574MOL0     H77485   2.929   9.965   6.624 -1.1142 -0.4449 -0.9006
  574MOL0     H77486   2.712   9.982   6.696 -0.7620 -0.4448  0.9407
  574MOL0     H77487   2.739  10.129   6.597 -1.1379 -1.7971 -0.3226
  574MOL0     H77488   2.626  10.308   6.950  0.7313 -1.4483  2.4010
  574MOL0     H77489   3.323  10.451   6.425  2.2290 -1.6318 -1.3458
  574MOL0     H77490   3.356  10.447   6.202  0.7071 -0.5024  0.8876
  575MOL0     O77491  10.607   2.157   2.435 -0.3778 -0.0841  0.4810
  575MOL0     C77492  10.495   2.175   2.391 -0.0759 -0.6238  0.0505
  575MOL0     O77493  10.426   2.292   2.390  0.8193  0.1417 -0.0430
  575MOL0     C77494  10.482   2.400   2.452 -0.2986  0.3719  0.1396
  575MOL0     C77495  10.504   2.503   2.372  1.0152 -0.0776  0.1758
  575MOL0     C77496  10.567   2.623   2.420 -0.0311 -0.0770  0.0405
  575MOL0     C77497  10.611   2.634   2.552  0.2316  0.3684 -0.4507
  575MOL0     O77498  10.684   2.740   2.590 -0.4703 -0.9476 -0.6316
  575MOL0     C77499  10.755   2.735   2.717 -0.1167 -0.2687 -1.0127
  575MOL0     C77500  10.872   2.832   2.717 -0.2939  0.2922  0.2661
  575MOL0     C77501  10.851   2.939   2.819  0.3487 -0.1041  0.1810
  575MOL0     C77502  10.983   3.001   2.848 -0.2503 -0.4773  0.5710
  575MOL0     C77503  10.984   3.087   2.971  0.1385  0.8416 -0.3420
  575MOL0     C77504  11.129   3.140   2.999 -0.1777  0.6324  0.5902
  575MOL0     C77505  11.130   3.203   3.142  1.0182  0.0939 -0.4985
  575MOL0     C77506  11.254   3.274   3.191  0.2041  0.8775  0.6227
  575MOL0     N77507  11.347   3.169   3.230 -0.4266 -0.6345 -0.1243
  575MOL0     C77508  11.352   3.119   3.351  0.4544  0.1927 -0.3165
  575MOL0     C77509  11.435   3.021   3.342 -1.4012 -0.9645 -0.4297
  575MOL0     C77510  11.475   2.954   3.464 -0.2629 -0.5649 -0.2377
  575MOL0     C77511  11.600   3.012   3.528  0.2734 -0.4900  0.5548
  575MOL0     C77512  11.639   2.953   3.668  0.0693  0.9587 -0.1555
  575MOL0     C77513  11.767   3.006   3.737 -0.6025  0.5440 -0.5796
  575MOL0     O77514  11.788   2.924   3.850  0.5608 -0.3134 -0.0170
  575MOL0     C77515  11.875   2.814   3.842 -0.2069  0.2169 -0.6132
  575MOL0     C77516  11.999   2.818   3.771  0.2579  0.0447  0.1735
  575MOL0     C77517  12.087   2.709   3.755 -1.0320  0.1511 -0.5926
  575MOL0     C77518  12.199   2.709   3.651  0.3027  0.2271 -0.7579
  575MOL0     C77519  12.062   2.595   3.842  1.0549 -0.0473 -0.6333
  575MOL0     C77520  12.149   2.480   3.856 -0.3763 -0.9026 -0.3263
  575MOL0     O77521  12.184   2.465   3.986  0.6536 -0.0334  0.1153
  575MOL0     C77522  12.232   2.340   4.036  1.1630  0.5172 -0.2892
  575MOL0     C77523  12.141   2.235   4.000  0.5043  0.2745  0.0727
  575MOL0     C77524  12.159   2.114   4.073  0.2528 -0.0769 -0.6530
  575MOL0     C77525  12.259   2.099   4.169  0.4027  0.4711 -0.0584
  575MOL0     O77526  12.279   1.979   4.234 -0.5421  0.0450 -1.0685
  575MOL0     C77527  12.250   1.854   4.174 -0.3977  0.4138  0.1622
  575MOL0     C77528  12.334   1.745   4.230 -0.4173 -0.9247 -0.9418
  575MOL0     C77529  12.261   1.617   4.241 -0.3336  0.5746 -0.5057
  575MOL0     C77530  12.335   1.490   4.205 -0.9359  0.1178 -0.1169
  575MOL0     C77531  12.243   1.371   4.215 -0.1611  0.8234 -0.5306
  575MOL0     C77532  12.218   1.292   4.084  0.3286  0.9714  0.8856
  575MOL0     C77533  12.338   1.228   4.013 -0.2872 -0.1076 -1.4068
  575MOL0     C77534  12.285   1.129   3.909 -1.0174 -0.0523  0.3624
  575MOL0    Cl77535  12.226   1.190   3.758 -0.1557 -0.6341  0.1960
  575MOL0     C77536  12.355   2.202   4.186  1.0937  0.4926 -0.1620
  575MOL0     C77537  12.341   2.326   4.124  0.8132 -0.0174 -0.2193
  575MOL0     O77538  12.204   2.431   3.759 -0.1541 -0.4617  0.4991
  575MOL0     C77539  11.943   2.593   3.930 -1.1941  0.6257 -0.2235
  575MOL0     C77540  11.859   2.699   3.918 -0.7891 -0.1491  0.8741
  575MOL0     N77541  11.484   3.004   3.220 -0.2181  0.6736  0.0369
  575MOL0     N77542  11.429   3.097   3.150 -0.4980  0.3644  0.0512
  575MOL0     C77543  10.580   2.522   2.639  0.0699 -0.7879  0.0590
  575MOL0     C77544  10.527   2.407   2.581  0.4503  0.2252 -0.2843
  575MOL0     C77545  10.432   2.062   2.324  0.4630 -0.2435  0.5133
  575MOL0     C77546  10.310   2.077   2.258  0.2771 -0.2369  0.4030
  575MOL0     C77547  10.255   1.966   2.186  0.2091 -0.3267  0.0815
  575MOL0     C77548  10.327   1.848   2.184  0.0903  0.9104  0.1533
  575MOL0     O77549  10.271   1.741   2.112 -1.1199 -0.2026  0.0202
  575MOL0     C77550  10.288   1.611   2.185  0.1412 -0.9558 -0.5982
  575MOL0     C77551  10.198   1.496   2.142 -0.0361  0.6267  0.9077
  575MOL0     C77552  10.190   1.385   2.254 -0.2552 -0.9454  0.0001
  575MOL0     C77553  10.325   1.311   2.272 -0.1438 -0.0634  0.1340
  575MOL0     C77554  10.399   1.284   2.146 -0.0233  0.0889 -0.9610
  575MOL0     C77555  10.471   1.266   2.054 -0.1675  0.2867 -0.2031
  575MOL0     C77556  10.450   1.831   2.247 -0.7100  0.3599 -1.2503
  575MOL0     C77557  10.494   1.937   2.324 -0.3071  0.7690  0.0595
  575MOL0     H77558  10.475   2.505   2.267  1.0509  0.7594  0.1734
  575MOL0     H77559  10.603   2.709   2.364 -1.4086  2.1732  2.3534
  575MOL0     H77560  10.690   2.753   2.803 -1.0499  0.4555 -1.8435
  575MOL0     H77561  10.799   2.636   2.734 -3.0387 -1.5444 -0.2831
  575MOL0     H77562  10.961   2.774   2.743 -1.9380 -4.3670 -2.9578
  575MOL0     H77563  10.877   2.879   2.618  0.7240  0.5856  0.4510
  575MOL0     H77564  10.778   3.015   2.788 -1.9477 -2.6648 -1.1551
  575MOL0     H77565  10.821   2.886   2.910  1.3222  0.9833  1.1639
  575MOL0     H77566  11.046   2.915   2.872 -2.4599 -2.8167 -1.4724
  575MOL0     H77567  11.028   3.059   2.767  3.1451 -1.7880  1.3504
  575MOL0     H77568  10.919   3.173   2.957 -0.2853  0.5228 -0.3600
  575MOL0     H77569  10.946   3.029   3.056 -4.7693  1.0770 -2.0679
  575MOL0     H77570  11.204   3.061   2.996 -0.3122  0.5149 -1.8592
  575MOL0     H77571  11.166   3.216   2.929  4.5193 -1.2692  0.6946
  575MOL0     H77572  11.050   3.278   3.148  1.9557  1.0541  0.5557
  575MOL0     H77573  11.108   3.125   3.215  3.5206  0.3276  0.5969
  575MOL0     H77574  11.230   3.338   3.276 -0.5933 -2.4982  3.1546
  575MOL0     H77575  11.313   3.321   3.111  0.5178  0.5172  0.6397
  575MOL0     H77576  11.288   3.147   3.434 -0.7042 -2.5266 -0.2105
  575MOL0     H77577  11.395   2.952   3.538 -1.2744  0.2496 -1.2716
  575MOL0     H77578  11.503   2.850   3.443 -1.7518 -1.2547  1.0101
  575MOL0     H77579  11.583   3.120   3.534  1.2342 -0.0089 -3.0543
  575MOL0     H77580  11.686   3.007   3.461  0.2048  0.0176  0.4252
  575MOL0     H77581  11.653   2.845   3.656  1.7548  1.0799  0.4217
  575MOL0     H77582  11.550   2.963   3.729  0.5196  0.9934  0.5034
  575MOL0     H77583  11.743   3.110   3.761 -4.0563  0.0726 -1.5056
  575MOL0     H77584  11.852   3.005   3.668  0.7397  1.4995  0.9774
  575MOL0     H77585  12.027   2.907   3.716  1.9108  0.2782  1.3102
  575MOL0     H77586  12.215   2.610   3.608  1.7085  0.1850 -0.1865
  575MOL0     H77587  12.179   2.776   3.567 -0.0716  1.2838  0.1484
  575MOL0     H77588  12.295   2.742   3.692  1.5563  0.0710 -3.3804
  575MOL0     H77589  12.054   2.246   3.936  1.2941 -0.5501 -1.2022
  575MOL0     H77590  12.085   2.036   4.066  0.9043 -0.6833 -0.8574
  575MOL0     H77591  12.145   1.824   4.180  0.3606 -2.7787 -0.5906
  575MOL0     H77592  12.268   1.858   4.066  3.2188  0.0423  0.6379
  575MOL0     H77593  12.434   1.746   4.185  0.0524 -0.3361  0.0757
  575MOL0     H77594  12.362   1.768   4.333  0.3264 -0.1338 -1.3028
  575MOL0     H77595  12.163   1.629   4.192 -1.2610  0.4794  1.2495
  575MOL0     H77596  12.222   1.604   4.342  1.4505 -1.2982 -0.0028
  575MOL0     H77597  12.363   1.498   4.100  0.4773 -1.0185  0.1405
  575MOL0     H77598  12.415   1.490   4.280 -1.9855  3.8912  1.2283
  575MOL0     H77599  12.145   1.412   4.243  0.2255  2.4266 -1.4173
  575MOL0     H77600  12.274   1.303   4.295 -0.6306  2.2471  0.9176
  575MOL0     H77601  12.143   1.214   4.104  0.6027 -0.1523 -2.0418
  575MOL0     H77602  12.166   1.357   4.014  1.1835  0.0203 -0.6826
  575MOL0     H77603  12.401   1.184   4.092 -3.6481  1.3687  2.4883
  575MOL0     H77604  12.395   1.306   3.962  0.8626  0.4917  0.6574
  575MOL0     H77605  12.204   1.065   3.945 -2.4598  0.8136 -1.1921
  575MOL0     H77606  12.370   1.071   3.873 -3.0466 -0.8442 -3.6995
  575MOL0     H77607  12.430   2.169   4.257 -0.7047 -2.6771  0.4633
  575MOL0     H77608  12.390   2.420   4.147 -0.8226  1.5744 -2.6637
  575MOL0     H77609  11.931   2.520   4.010  0.3183  0.8406  0.2347
  575MOL0     H77610  11.773   2.695   3.983 -1.8436 -1.1853 -0.5298
  575MOL0     H77611  10.616   2.525   2.742 -1.2662 -0.0210  0.5354
  575MOL0     H77612  10.524   2.309   2.627 -0.0462  0.2728 -0.2083
  575MOL0     H77613  10.271   2.176   2.241 -0.9665 -1.0646 -2.0076
  575MOL0     H77614  10.167   1.973   2.123  0.8603  0.0397 -0.7983
  575MOL0     H77615  10.395   1.589   2.188  0.5592  0.3786 -2.9879
  575MOL0     H77616  10.247   1.625   2.286 -1.8005  0.5386 -1.5211
  575MOL0     H77617  10.235   1.461   2.045  3.8884  3.0343  1.3231
  575MOL0     H77618  10.096   1.535   2.135 -1.2582 -2.4930 -0.3766
  575MOL0     H77619  10.122   1.306   2.222 -1.2462  0.2979 -1.0532
  575MOL0     H77620  10.152   1.432   2.345  2.7652  0.4651  0.6780
  575MOL0     H77621  10.295   1.219   2.323 -3.2220  1.1940  0.8101
  575MOL0     H77622  10.384   1.360   2.350  0.5294  0.7758 -0.8786
  575MOL0     H77623  10.557   1.263   1.990 -0.2942  1.8765 -0.4750
  575MOL0     H77624  10.523   1.750   2.240  0.5083  0.9056  2.6154
  575MOL0     H77625  10.591   1.934   2.372  1.4042  3.3476 -2.8583
  576MOL0     O77626  10.907   0.758   6.842  0.0832 -0.4481 -0.5088
  576MOL0     C77627  10.920   0.639   6.813  0.5684 -0.9165 -1.1407
  576MOL0     O77628  10.813   0.558   6.787  0.0505 -0.9705 -0.7661
  576MOL0     C77629  10.703   0.619   6.735 -0.1198 -0.4395 -0.6051
  576MOL0     C77630  10.691   0.622   6.596 -1.1951  0.6108 -0.4856
  576MOL0     C77631  10.572   0.674   6.545 -0.5315  0.2192 -0.1191
  576MOL0     C77632  10.475   0.720   6.629  0.8349  0.1854 -0.0120
  576MOL0     O77633  10.366   0.777   6.561  0.1987  0.3805 -0.7750
  576MOL0     C77634  10.236   0.758   6.616 -0.2810  1.2467 -0.2682
  576MOL0     C77635  10.137   0.853   6.539  0.9894  0.0854 -0.6252
  576MOL0     C77636  10.168   0.855   6.387  0.1479  0.1160 -0.8860
  576MOL0     C77637  10.102   0.953   6.302  0.5279 -0.3505  0.2230
  576MOL0     C77638   9.960   0.927   6.283  0.6293 -0.4593 -0.4629
  576MOL0     C77639   9.897   1.022   6.174  1.0682  0.0385 -0.5896
  576MOL0     C77640   9.745   0.995   6.175  0.0627  0.5268 -0.2538
  576MOL0     C77641   9.679   1.107   6.079  1.2993 -0.1488  0.3118
  576MOL0     N77642   9.534   1.135   6.090  0.8650 -0.3987  0.9947
  576MOL0     C77643   9.422   1.047   6.092  0.5786 -0.3465  0.6621
  576MOL0     C77644   9.313   1.137   6.115  0.1841  0.1100  0.2995
  576MOL0     C77645   9.166   1.115   6.100  0.8874  0.8791 -0.4823
  576MOL0     C77646   9.102   1.140   5.959 -0.2189 -0.0756 -0.2835
  576MOL0     C77647   9.114   1.290   5.902 -0.3784  0.2486  0.0136
  576MOL0     C77648   8.999   1.316   5.797 -0.4783 -0.2328  0.6138
  576MOL0     O77649   9.008   1.224   5.687 -0.0207 -0.0834 -0.0190
  576MOL0     C77650   9.057   1.261   5.563  0.5711 -0.2500  0.5738
  576MOL0     C77651   9.144   1.361   5.556  1.1685 -1.1279  0.4582
  576MOL0     C77652   9.204   1.399   5.437  0.6790  0.7478  0.6754
  576MOL0     C77653   9.307   1.502   5.457 -0.3804 -0.1225 -0.2419
  576MOL0     C77654   9.176   1.325   5.322 -0.7785 -0.5592  0.0966
  576MOL0     C77655   9.231   1.361   5.191  0.1894  0.2054 -0.7311
  576MOL0     O77656   9.208   1.267   5.088  0.2077 -0.7344  0.0202
  576MOL0     C77657   9.248   1.293   4.953  0.4074 -0.2230  0.5154
  576MOL0     C77658   9.187   1.395   4.872  0.5100  0.7306  0.0771
  576MOL0     C77659   9.233   1.394   4.741  0.5302  0.2528 -1.4259
  576MOL0     C77660   9.321   1.313   4.680 -0.4198  0.1231 -0.0276
  576MOL0     O77661   9.363   1.318   4.546 -0.2216  0.0580  0.4662
  576MOL0     C77662   9.360   1.442   4.475  0.3369  0.0979 -1.4871
  576MOL0     C77663   9.364   1.421   4.323  0.6400 -0.4784  0.2719
  576MOL0     C77664   9.497   1.475   4.278 -0.4969 -0.5779 -0.1753
  576MOL0     C77665   9.628   1.383   4.315 -0.6398 -0.1136  0.1605
  576MOL0     C77666   9.742   1.436   4.202  0.6493  0.5296  0.0833
  576MOL0     C77667   9.878   1.380   4.248  0.9777 -0.6682 -0.3906
  576MOL0     C77668   9.983   1.386   4.132 -0.3437 -0.2922 -0.5528
  576MOL0     C77669  10.125   1.347   4.189 -0.6924  1.0086  0.9004
  576MOL0    Cl77670  10.129   1.179   4.219  0.4592  0.2010 -0.1296
  576MOL0     C77671   9.366   1.215   4.766 -0.1963  0.1225 -0.6298
  576MOL0     C77672   9.337   1.203   4.900 -0.8864 -0.9014 -0.0906
  576MOL0     O77673   9.280   1.474   5.184  0.0402  0.5975  0.7906
  576MOL0     C77674   9.082   1.222   5.333  0.3742 -0.5800 -0.6178
  576MOL0     C77675   9.024   1.180   5.455 -0.9289 -0.4820  1.6149
  576MOL0     N77676   9.364   1.264   6.154 -0.2800  0.5310 -0.6329
  576MOL0     N77677   9.489   1.261   6.135 -0.8313 -0.2123 -0.4293
  576MOL0     C77678  10.486   0.727   6.764  1.3607 -0.3546 -0.1961
  576MOL0     C77679  10.605   0.676   6.818  0.6107  0.0150  0.0273
  576MOL0     C77680  11.052   0.589   6.821 -0.3491  0.0710  0.7286
  576MOL0     C77681  11.082   0.455   6.770  0.3156  0.3891  0.5105
  576MOL0     C77682  11.213   0.400   6.782  0.5637 -0.6870  0.0082
  576MOL0     C77683  11.315   0.481   6.834  0.3667  0.4070 -0.3996
  576MOL0     O77684  11.446   0.427   6.832 -0.3344  0.1644  0.0248
  576MOL0     C77685  11.441   0.305   6.904  0.1942  0.0205  0.0565
  576MOL0     C77686  11.583   0.274   6.948 -0.6273 -0.5837  1.3111
  576MOL0     C77687  11.628   0.361   7.062 -0.9047  0.1965 -1.8581
  576MOL0     C77688  11.779   0.335   7.091  0.4605  0.6324 -0.7755
  576MOL0     C77689  11.871   0.369   6.981 -0.5906 -0.2216 -0.5695
  576MOL0     C77690  11.932   0.399   6.874 -0.1024 -0.6565  0.0529
  576MOL0     C77691  11.281   0.616   6.865  1.0430 -0.5686  0.4782
  576MOL0     C77692  11.152   0.659   6.880 -0.5984 -0.2258  0.0082
  576MOL0     H77693  10.773   0.574   6.545 -0.8848  0.1577  0.4189
  576MOL0     H77694  10.558   0.669   6.438 -1.0757 -1.9564  0.0071
  576MOL0     H77695  10.195   0.660   6.589  1.0618  0.9588 -1.3667
  576MOL0     H77696  10.220   0.781   6.722 -2.0686  0.1251 -0.2421
  576MOL0     H77697  10.039   0.809   6.562  1.2640  0.4839  1.5018
  576MOL0     H77698  10.141   0.956   6.575 -2.1648 -0.7800  2.8239
  576MOL0     H77699  10.276   0.867   6.372  0.4658 -2.2895 -0.8620
  576MOL0     H77700  10.140   0.757   6.347 -0.6085 -0.1431  0.2403
  576MOL0     H77701  10.109   1.053   6.345 -0.9409  0.2869 -0.9367
  576MOL0     H77702  10.151   0.958   6.205  0.7180 -2.1790  0.1887
  576MOL0     H77703   9.942   0.823   6.253 -1.8801  0.1753 -1.3564
  576MOL0     H77704   9.916   0.945   6.381  3.1208  0.5976  0.5433
  576MOL0     H77705   9.899   1.124   6.215 -3.6426 -1.1673  3.6708
  576MOL0     H77706   9.947   1.013   6.077  2.7014 -0.9049  0.2904
  576MOL0     H77707   9.719   0.896   6.136 -2.8363  1.7772 -1.8279
  576MOL0     H77708   9.719   1.013   6.279 -0.2336 -0.1008 -0.2150
  576MOL0     H77709   9.694   1.058   5.982  0.0248 -2.0741  1.0252
  576MOL0     H77710   9.735   1.199   6.098  0.6307  0.1116  1.1015
  576MOL0     H77711   9.420   0.939   6.076 -0.3259 -0.2185 -0.1204
  576MOL0     H77712   9.140   1.009   6.109  1.2403  0.5318 -2.7708
  576MOL0     H77713   9.110   1.186   6.161 -2.2506 -0.7724 -1.2449
  576MOL0     H77714   8.996   1.116   5.965 -0.5662  0.4355 -3.1269
  576MOL0     H77715   9.156   1.070   5.895 -0.2220 -0.7999  0.4853
  576MOL0     H77716   9.205   1.302   5.842 -0.8775  0.6283 -0.6883
  576MOL0     H77717   9.114   1.362   5.984  2.1570 -3.6494  3.8283
  576MOL0     H77718   8.997   1.424   5.776  1.7383 -0.1455  0.6649
  576MOL0     H77719   8.904   1.300   5.848 -1.4047  2.8676  0.1023
  576MOL0     H77720   9.168   1.410   5.650 -1.7734 -0.4438  0.9544
  576MOL0     H77721   9.279   1.599   5.414  1.1936  0.1679 -0.6731
  576MOL0     H77722   9.337   1.520   5.560  0.1404  4.0962 -0.9579
  576MOL0     H77723   9.397   1.462   5.407 -1.1141 -2.6599  0.3168
  576MOL0     H77724   9.108   1.464   4.897 -0.2046 -0.6191  1.7482
  576MOL0     H77725   9.180   1.469   4.683 -0.5952 -0.4401 -1.3278
  576MOL0     H77726   9.265   1.485   4.509 -0.3489 -2.7031  0.4746
  576MOL0     H77727   9.451   1.490   4.511  2.7718 -3.2854 -2.6458
  576MOL0     H77728   9.354   1.315   4.300  0.6469 -0.1856 -1.1716
  576MOL0     H77729   9.285   1.474   4.269  0.0861 -0.7492  0.8114
  576MOL0     H77730   9.524   1.570   4.326 -0.0761  0.0206 -1.5564
  576MOL0     H77731   9.492   1.478   4.169  0.1637  2.0918 -0.2017
  576MOL0     H77732   9.663   1.395   4.418  0.2497 -0.7696 -0.0451
  576MOL0     H77733   9.606   1.279   4.288 -2.0794  0.3525 -0.5492
  576MOL0     H77734   9.736   1.544   4.185 -0.4547  0.6718  1.2215
  576MOL0     H77735   9.709   1.378   4.116 -0.9026 -3.6233  3.1641
  576MOL0     H77736   9.922   1.448   4.320  1.0935  0.4168 -1.4563
  576MOL0     H77737   9.861   1.279   4.288 -1.1922 -0.0497  0.3745
  576MOL0     H77738   9.979   1.488   4.092 -0.1982  0.5598  1.4668
  576MOL0     H77739   9.951   1.314   4.056  2.7901 -0.8963 -1.4400
  576MOL0     H77740  10.150   1.402   4.280  0.2255  3.0124 -0.4846
  576MOL0     H77741  10.196   1.374   4.111 -1.5394  1.9998  0.4493
  576MOL0     H77742   9.433   1.147   4.714 -2.0429 -0.8816 -1.8159
  576MOL0     H77743   9.374   1.111   4.944  2.4575 -0.3719 -1.4378
  576MOL0     H77744   9.035   1.167   5.253 -1.7170 -0.2569  0.3199
  576MOL0     H77745   8.952   1.099   5.459 -3.3592  0.7591 -4.7415
  576MOL0     H77746  10.404   0.768   6.821  0.6962  0.8363 -1.9029
  576MOL0     H77747  10.624   0.667   6.924 -2.7846  1.2741  0.8476
  576MOL0     H77748  11.010   0.400   6.710 -1.1923  2.6562  0.1305
  576MOL0     H77749  11.240   0.305   6.736  0.3112 -1.9592  2.3124
  576MOL0     H77750  11.376   0.303   6.992  1.5829  0.8928  1.1410
  576MOL0     H77751  11.405   0.229   6.833 -0.7767  0.5067  0.0144
  576MOL0     H77752  11.639   0.298   6.857 -3.7977 -1.2225 -0.9752
  576MOL0     H77753  11.601   0.167   6.965  0.9392 -0.3937  1.0586
  576MOL0     H77754  11.581   0.317   7.150 -0.2174 -1.6146 -2.3395
  576MOL0     H77755  11.617   0.469   7.050 -3.3878  0.1071 -0.9122
  576MOL0     H77756  11.794   0.228   7.106  3.4618  1.0283 -0.4648
  576MOL0     H77757  11.820   0.379   7.183  2.8749  0.6385 -1.7990
  576MOL0     H77758  11.995   0.404   6.787  3.5358  0.7389  2.5403
  576MOL0     H77759  11.364   0.684   6.879  0.4031  0.2252  0.4462
  576MOL0     H77760  11.137   0.758   6.921  0.4099  1.5840 -3.5094
  577MOL0     O77761   5.149   4.632  10.980  0.6221 -0.3496  1.3141
  577MOL0     C77762   5.131   4.538  11.057  1.1791 -0.3498 -0.3354
  577MOL0     O77763   5.056   4.424  11.044 -0.0444  0.3792 -0.1775
  577MOL0     C77764   4.967   4.419  10.937  0.0289 -0.1421  0.4744
  577MOL0     C77765   4.880   4.525  10.927  0.3238  0.0599  0.6535
  577MOL0     C77766   4.788   4.533  10.818 -0.2218 -0.1371  0.7078
  577MOL0     C77767   4.780   4.424  10.723 -0.1309 -1.0368  0.5482
  577MOL0     O77768   4.687   4.435  10.625 -0.1341 -0.0960  0.7266
  577MOL0     C77769   4.674   4.327  10.533 -0.8120  0.0432 -0.3462
  577MOL0     C77770   4.607   4.196  10.588  0.7194  0.0887  1.0843
  577MOL0     C77771   4.471   4.200  10.652  1.5075 -0.0002 -0.2139
  577MOL0     C77772   4.356   4.227  10.545 -0.0280 -0.0246  1.4613
  577MOL0     C77773   4.334   4.367  10.535  0.1829 -0.1372  0.0356
  577MOL0     C77774   4.219   4.414  10.440 -0.5807  0.0297  0.2177
  577MOL0     C77775   4.213   4.342  10.311  0.9636 -0.3892 -0.6526
  577MOL0     C77776   4.114   4.418  10.216 -0.3872  0.5986 -0.1942
  577MOL0     N77777   3.976   4.370  10.220  0.0975 -0.2238  0.0020
  577MOL0     C77778   3.896   4.376  10.333 -0.3848 -0.6550 -0.5896
  577MOL0     C77779   3.781   4.316  10.291  0.3682  0.5798  0.4525
  577MOL0     C77780   3.660   4.295  10.374 -0.4947  0.2790  0.2352
  577MOL0     C77781   3.686   4.270  10.518 -0.7174  0.4736 -0.6349
  577MOL0     C77782   3.552   4.225  10.573 -0.8074 -0.9766 -0.2166
  577MOL0     C77783   3.554   4.237  10.722 -0.2220  0.0712 -0.0363
  577MOL0     O77784   3.568   4.368  10.764 -0.7124 -0.7684 -0.0596
  577MOL0     C77785   3.627   4.384  10.881  0.0736 -0.1769 -0.6750
  577MOL0     C77786   3.659   4.280  10.975  0.3538  0.4027  0.5113
  577MOL0     C77787   3.741   4.298  11.092  0.4290 -0.2497 -0.5181
  577MOL0     C77788   3.760   4.183  11.182 -0.1266 -0.3071  0.7823
  577MOL0     C77789   3.790   4.431  11.124  0.3167 -0.4016 -1.3036
  577MOL0     C77790   3.867   4.462  11.244  0.0533 -0.5616 -0.9660
  577MOL0     O77791   3.951   4.571  11.249  0.3868  0.6879  0.3701
  577MOL0     C77792   4.032   4.607  11.353  0.0996 -0.7884  1.0419
  577MOL0     C77793   4.105   4.525  11.446  0.3230 -0.2248  0.2751
  577MOL0     C77794   4.217   4.585  11.507  0.0625 -0.5749  0.2078
  577MOL0     C77795   4.248   4.720  11.496  0.2130  0.3325  0.0134
  577MOL0     O77796   4.346   4.771  11.584 -0.8660  0.6381  0.0564
  577MOL0     C77797   4.359   4.910  11.612  0.1053  0.5970 -0.6836
  577MOL0     C77798   4.463   4.923  11.714 -0.2385 -0.6766 -0.4283
  577MOL0     C77799   4.506   5.060  11.719 -0.5965 -0.5951 -0.2718
  577MOL0     C77800   4.568   5.118  11.849  0.2737  0.6286  0.3890
  577MOL0     C77801   4.647   5.240  11.790 -0.6222  0.7259 -0.2961
  577MOL0     C77802   4.694   5.326  11.908  0.0240 -0.7018  0.6551
  577MOL0     C77803   4.761   5.471  11.889  0.1118 -0.4418  0.3486
  577MOL0     C77804   4.787   5.542  12.023  0.6698 -0.2166  0.1089
  577MOL0    Cl77805   4.917   5.462  12.128 -0.0134  0.6119 -0.0971
  577MOL0     C77806   4.178   4.798  11.400  0.2589  0.0881 -0.0552
  577MOL0     C77807   4.069   4.745  11.339 -0.6698  0.2728 -0.8673
  577MOL0     O77808   3.847   4.390  11.341  0.0008  1.2999 -0.7997
  577MOL0     C77809   3.758   4.536  11.032  0.2074  0.2324  0.5071
  577MOL0     C77810   3.678   4.510  10.905  0.5270 -0.1699 -0.4623
  577MOL0     N77811   3.811   4.245  10.172 -0.2604  0.3991 -0.4438
  577MOL0     N77812   3.920   4.292  10.122  0.5761 -0.4404 -0.8282
  577MOL0     C77813   4.877   4.317  10.739  0.9952 -0.0728  0.6771
  577MOL0     C77814   4.960   4.311  10.851 -0.5088  0.2042  0.3688
  577MOL0     C77815   5.201   4.558  11.186 -0.0382 -0.1100 -0.3692
  577MOL0     C77816   5.213   4.446  11.280 -0.2899 -0.7116 -0.0221
  577MOL0     C77817   5.307   4.449  11.382 -0.4998  0.0954  0.5547
  577MOL0     C77818   5.392   4.552  11.400 -0.0263  0.5166  0.0389
  577MOL0     O77819   5.469   4.543  11.513  0.1256 -0.4565  0.9503
  577MOL0     C77820   5.550   4.660  11.546  0.1063  0.0094  0.6882
  577MOL0     C77821   5.650   4.633  11.669  0.6257 -0.5756 -0.0580
  577MOL0     C77822   5.705   4.776  11.720  0.7949  0.4937  0.0764
  577MOL0     C77823   5.826   4.757  11.812  0.3205  0.6976 -0.0268
  577MOL0     C77824   5.787   4.707  11.949 -0.7551 -0.4283 -0.7742
  577MOL0     C77825   5.765   4.646  12.052 -0.0487 -0.0789  0.7050
  577MOL0     C77826   5.389   4.658  11.311  0.1642 -0.4672  0.2990
  577MOL0     C77827   5.294   4.666  11.207 -0.4724 -0.0770 -1.0688
  577MOL0     H77828   4.876   4.612  10.991 -1.8270  2.9998 -3.0217
  577MOL0     H77829   4.724   4.618  10.796 -0.0262 -0.2126 -0.2288
  577MOL0     H77830   4.618   4.368  10.448 -0.5533 -1.3328 -1.2148
  577MOL0     H77831   4.768   4.314  10.479  0.0313  1.3700  0.7578
  577MOL0     H77832   4.612   4.129  10.502  0.9184  0.4687  0.7972
  577MOL0     H77833   4.663   4.152  10.672 -0.7840 -0.1426  2.0120
  577MOL0     H77834   4.450   4.109  10.709 -0.4603  2.1174  2.7855
  577MOL0     H77835   4.463   4.284  10.723 -0.4890 -1.0298  0.8645
  577MOL0     H77836   4.375   4.182  10.447  0.1992  0.7961  1.1260
  577MOL0     H77837   4.267   4.171  10.576 -0.6343 -1.2014 -1.9213
  577MOL0     H77838   4.305   4.406  10.633 -1.4256 -0.8678 -0.1167
  577MOL0     H77839   4.424   4.419  10.502  1.3064 -1.5423  0.7847
  577MOL0     H77840   4.119   4.402  10.484 -2.3344  0.2063 -3.3441
  577MOL0     H77841   4.242   4.519  10.420  2.0462 -0.9265 -2.6592
  577MOL0     H77842   4.316   4.353  10.274  1.1757 -1.7231 -0.5156
  577MOL0     H77843   4.197   4.236  10.334  1.2039 -0.6371 -1.5890
  577MOL0     H77844   4.149   4.396  10.114 -0.6295  0.3055 -0.2167
  577MOL0     H77845   4.115   4.525  10.235 -0.1115  0.5989 -0.2009
  577MOL0     H77846   3.912   4.434  10.424 -0.4660 -0.9160 -0.4091
  577MOL0     H77847   3.607   4.391  10.366 -1.3691 -0.2226 -0.1067
  577MOL0     H77848   3.604   4.216  10.324  0.5268 -1.6751  2.0218
  577MOL0     H77849   3.728   4.358  10.567 -0.1806 -0.8257  1.3556
  577MOL0     H77850   3.756   4.186  10.519 -1.4725 -0.1790  0.5527
  577MOL0     H77851   3.522   4.127  10.534 -3.4390 -0.2017 -0.3041
  577MOL0     H77852   3.468   4.283  10.536 -0.7351 -1.3875 -1.0488
  577MOL0     H77853   3.634   4.174  10.761  1.2143  2.0507  0.3819
  577MOL0     H77854   3.462   4.198  10.767 -0.9010  1.3052 -0.2931
  577MOL0     H77855   3.635   4.174  10.967  1.2260  0.1279  1.3844
  577MOL0     H77856   3.689   4.209  11.262  2.6203  0.8191  3.0097
  577MOL0     H77857   3.741   4.092  11.126  0.2446  0.3053 -0.3644
  577MOL0     H77858   3.861   4.179  11.224  0.3833  1.6818 -0.1189
  577MOL0     H77859   4.094   4.417  11.447  1.7742 -0.3892  0.5097
  577MOL0     H77860   4.262   4.526  11.587 -1.1245 -1.2281  0.4107
  577MOL0     H77861   4.380   4.972  11.524  1.0713  0.2191 -0.7257
  577MOL0     H77862   4.269   4.961  11.648  0.7602  0.5933  1.0520
  577MOL0     H77863   4.417   4.895  11.809  3.7863 -3.9455  0.8532
  577MOL0     H77864   4.554   4.862  11.716  1.0631  1.1816  1.5782
  577MOL0     H77865   4.418   5.122  11.697  0.4691  0.7794 -0.8342
  577MOL0     H77866   4.568   5.086  11.632 -2.8847  0.6547 -1.6437
  577MOL0     H77867   4.488   5.140  11.920 -0.9577 -0.5742 -0.5615
  577MOL0     H77868   4.639   5.051  11.898 -1.6587 -1.7034  0.2268
  577MOL0     H77869   4.586   5.303  11.724 -0.3591  2.1464  0.7730
  577MOL0     H77870   4.743   5.226  11.741  0.8277  5.1685  0.8100
  577MOL0     H77871   4.608   5.362  11.965  0.3562 -0.9795  1.3562
  577MOL0     H77872   4.764   5.271  11.972  1.9879  1.9745  0.9979
  577MOL0     H77873   4.707   5.538  11.821  1.4267  1.5656  1.2025
  577MOL0     H77874   4.857   5.462  11.836 -0.5512  2.4210 -1.5767
  577MOL0     H77875   4.701   5.543  12.090  2.2619 -1.3562  2.3102
  577MOL0     H77876   4.832   5.639  11.996  2.5448 -1.3513 -1.0858
  577MOL0     H77877   4.216   4.898  11.383  1.7500 -0.5607 -0.7649
  577MOL0     H77878   4.019   4.811  11.269 -1.3484  1.1311  0.3993
  577MOL0     H77879   3.815   4.628  11.024  1.0104 -0.3237 -0.4452
  577MOL0     H77880   3.683   4.585  10.827  3.9998 -0.3465 -0.5638
  577MOL0     H77881   4.887   4.231  10.674 -1.8076  0.6016 -0.8267
  577MOL0     H77882   5.014   4.219  10.870 -4.3768 -2.1071  1.2555
  577MOL0     H77883   5.161   4.354  11.254  0.2553 -0.0949 -4.0209
  577MOL0     H77884   5.317   4.369  11.455  1.3090 -0.8110 -0.6029
  577MOL0     H77885   5.612   4.688  11.461 -0.7581  1.0000  0.3693
  577MOL0     H77886   5.480   4.743  11.560 -1.7398 -1.2448 -0.6631
  577MOL0     H77887   5.728   4.564  11.636  0.1881 -1.1400  0.0953
  577MOL0     H77888   5.596   4.586  11.751 -0.1703  0.0564 -0.2064
  577MOL0     H77889   5.624   4.832  11.769  1.0107  0.1494  0.8414
  577MOL0     H77890   5.739   4.826  11.629 -1.3570  5.5801  1.6609
  577MOL0     H77891   5.885   4.848  11.824  1.6703 -0.0812 -0.5824
  577MOL0     H77892   5.904   4.694  11.768  1.4354  1.4815  0.7730
  577MOL0     H77893   5.753   4.606  12.151  2.3063  2.5887  2.2215
  577MOL0     H77894   5.453   4.746  11.316  0.6293 -0.8083  0.4845
  577MOL0     H77895   5.302   4.747  11.136 -1.4580  0.7932 -0.2133
  578MOL0     O77896   8.509   9.233   5.370 -0.1862  0.5722 -0.0643
  578MOL0     C77897   8.406   9.285   5.414  0.0671  0.6502  0.8187
  578MOL0     O77898   8.281   9.250   5.370 -0.3395  0.7562  0.2465
  578MOL0     C77899   8.264   9.156   5.264 -0.3694  0.1703 -1.0702
  578MOL0     C77900   8.310   9.025   5.291  0.4154  0.1996  0.5743
  578MOL0     C77901   8.291   8.927   5.195  0.8481 -0.2917 -1.1214
  578MOL0     C77902   8.206   8.960   5.083  0.5344  0.1481  0.0283
  578MOL0     O77903   8.178   8.867   4.992 -0.4055  0.3378 -0.0219
  578MOL0     C77904   8.297   8.845   4.909 -0.1379 -0.5364  0.9843
  578MOL0     C77905   8.247   8.820   4.768  0.6300  0.4507 -0.8318
  578MOL0     C77906   8.155   8.686   4.759 -0.2325 -0.0673 -0.5412
  578MOL0     C77907   8.149   8.613   4.623  0.5329 -0.0615  0.4974
  578MOL0     C77908   8.050   8.497   4.624  1.0419 -0.2042 -0.3015
  578MOL0     C77909   8.084   8.403   4.516  0.7419  0.3181  0.8585
  578MOL0     C77910   8.014   8.272   4.522  0.2478  0.3732  1.2947
  578MOL0     C77911   8.041   8.189   4.650  0.4386 -0.2693 -0.7734
  578MOL0     N77912   7.984   8.053   4.656 -0.2191  0.7149 -0.2650
  578MOL0     C77913   8.064   7.941   4.677  0.6937 -0.2469  0.3736
  578MOL0     C77914   7.971   7.849   4.694  0.0002  0.9140  0.0440
  578MOL0     C77915   8.021   7.714   4.729  0.4785  0.2613 -1.2924
  578MOL0     C77916   8.067   7.724   4.875  0.1368  0.8700  0.3281
  578MOL0     C77917   8.153   7.610   4.932 -0.5686 -0.0906 -0.6537
  578MOL0     C77918   8.199   7.648   5.082  0.1252  0.3023 -0.2106
  578MOL0     O77919   8.323   7.577   5.129  0.3312  0.0510 -0.5296
  578MOL0     C77920   8.321   7.453   5.190 -0.4051  0.2008 -0.0494
  578MOL0     C77921   8.434   7.404   5.247  0.0492  1.3229 -0.3441
  578MOL0     C77922   8.451   7.277   5.307 -0.0783  0.8438 -0.2407
  578MOL0     C77923   8.604   7.236   5.335 -0.1581  0.2800  0.6014
  578MOL0     C77924   8.331   7.199   5.320  0.4643 -0.8868 -0.5506
  578MOL0     C77925   8.315   7.072   5.395  0.2230 -0.4106 -1.0156
  578MOL0     O77926   8.413   7.051   5.494 -0.3826 -0.0075 -0.6956
  578MOL0     C77927   8.444   6.920   5.536  0.4495 -0.0220  0.3556
  578MOL0     C77928   8.581   6.878   5.523 -0.7274  0.3912  0.1424
  578MOL0     C77929   8.619   6.750   5.552 -0.6631 -0.9907 -1.1851
  578MOL0     C77930   8.533   6.667   5.613 -0.1702 -0.0151 -0.3521
  578MOL0     O77931   8.555   6.539   5.667  0.4194  0.5061 -0.0160
  578MOL0     C77932   8.656   6.450   5.624 -1.7019 -0.6422 -0.4264
  578MOL0     C77933   8.617   6.391   5.490 -0.1737  0.1312 -0.7969
  578MOL0     C77934   8.730   6.301   5.430 -0.2212  0.7397  0.3069
  578MOL0     C77935   8.693   6.247   5.289  0.6229  0.1079 -0.2903
  578MOL0     C77936   8.806   6.166   5.240  0.8508  1.2426 -1.1201
  578MOL0     C77937   8.771   6.081   5.115  0.4103  0.1325 -1.2427
  578MOL0     C77938   8.895   5.995   5.059  0.2558  0.0535  0.2712
  578MOL0     C77939   9.022   6.073   5.036  0.8029 -0.0563  0.2494
  578MOL0    Cl77940   8.999   6.231   4.943  0.5760  0.1763  0.1784
  578MOL0     C77941   8.398   6.706   5.638 -0.9398  0.5061  0.6113
  578MOL0     C77942   8.356   6.825   5.589 -0.0820 -0.7560 -0.0773
  578MOL0     O77943   8.230   6.993   5.352 -0.0799 -0.8017  0.0412
  578MOL0     C77944   8.204   7.256   5.277 -0.0864 -0.2172  0.3786
  578MOL0     C77945   8.205   7.385   5.214  0.7703  1.4008  0.2983
  578MOL0     N77946   7.846   7.895   4.700 -0.7439 -0.8926 -0.1434
  578MOL0     N77947   7.856   8.025   4.672  0.8035 -0.1698 -0.3909
  578MOL0     C77948   8.154   9.094   5.064 -0.2138  1.4931 -0.1904
  578MOL0     C77949   8.185   9.187   5.160 -1.0499  0.9260  0.8667
  578MOL0     C77950   8.414   9.413   5.492 -0.2971  0.1353 -0.1263
  578MOL0     C77951   8.538   9.473   5.524  0.1747  0.4045 -0.2704
  578MOL0     C77952   8.532   9.593   5.596 -0.6126 -0.0344  1.3952
  578MOL0     C77953   8.420   9.643   5.653 -0.0095  0.4914 -0.0960
  578MOL0     O77954   8.439   9.751   5.739  0.3159  0.1806  0.6831
  578MOL0     C77955   8.330   9.802   5.810  0.6107 -0.4293  0.4408
  578MOL0     C77956   8.373   9.932   5.870 -0.2505  0.7564 -0.8015
  578MOL0     C77957   8.271   9.981   5.980 -0.2793 -0.6713  0.0111
  578MOL0     C77958   8.308  10.115   6.037 -0.3646 -0.4227  0.6808
  578MOL0     C77959   8.213  10.168   6.134  0.3383 -0.4167 -0.3756
  578MOL0     C77960   8.119  10.212   6.190 -0.2849 -0.1434  0.0218
  578MOL0     C77961   8.297   9.586   5.613 -0.8421  0.5560 -0.6292
  578MOL0     C77962   8.297   9.478   5.537 -0.3905  0.4749 -0.4241
  578MOL0     H77963   8.361   9.019   5.386 -0.7218 -0.7056  1.1448
  578MOL0     H77964   8.332   8.830   5.219  2.8158  0.8629  0.4809
  578MOL0     H77965   8.348   8.942   4.908 -2.3764  0.7284 -1.2904
  578MOL0     H77966   8.361   8.759   4.935  0.7240 -1.2138 -2.8281
  578MOL0     H77967   8.198   8.916   4.754 -0.1280  0.5317  1.7908
  578MOL0     H77968   8.322   8.815   4.688  0.8347 -2.5342 -0.5616
  578MOL0     H77969   8.186   8.609   4.830  1.2791  2.2566  1.4412
  578MOL0     H77970   8.057   8.723   4.791  0.0633  0.0946  0.1884
  578MOL0     H77971   8.141   8.673   4.532 -1.6974 -1.6648 -0.4681
  578MOL0     H77972   8.250   8.570   4.619 -0.2401 -1.8937 -0.5145
  578MOL0     H77973   8.070   8.439   4.714 -0.0539 -1.7185 -0.9896
  578MOL0     H77974   7.949   8.537   4.613  0.4377 -1.0914  1.5881
  578MOL0     H77975   8.062   8.433   4.414  1.4359 -1.8304 -0.0026
  578MOL0     H77976   8.192   8.383   4.507  0.5267  0.1178 -2.3965
  578MOL0     H77977   7.910   8.307   4.521  0.3080  0.5879 -0.0011
  578MOL0     H77978   8.045   8.204   4.442 -0.3933  1.8412 -0.2725
  578MOL0     H77979   7.998   8.238   4.738 -1.0462  0.8696 -2.0825
  578MOL0     H77980   8.149   8.184   4.668  0.9392 -0.0585 -3.3863
  578MOL0     H77981   8.171   7.932   4.664  1.0390  4.4387 -1.7474
  578MOL0     H77982   7.952   7.630   4.716  1.6888 -0.7660 -1.1995
  578MOL0     H77983   8.105   7.673   4.673  0.6156 -1.2795 -0.0009
  578MOL0     H77984   7.971   7.721   4.927 -2.2361 -1.2434 -3.6720
  578MOL0     H77985   8.129   7.810   4.899  3.5224 -1.9534  2.7409
  578MOL0     H77986   8.235   7.604   4.860  1.1738  0.5226  1.1919
  578MOL0     H77987   8.103   7.514   4.922 -0.3988  0.0711 -4.4726
  578MOL0     H77988   8.114   7.636   5.150 -0.1153 -1.5672 -0.7615
  578MOL0     H77989   8.219   7.755   5.087  2.2288  0.1045 -2.4223
  578MOL0     H77990   8.529   7.457   5.235  0.4443  0.2903 -2.2675
  578MOL0     H77991   8.617   7.128   5.324 -1.5179  0.0623  0.9182
  578MOL0     H77992   8.674   7.293   5.273  1.1273  0.3478  2.0734
  578MOL0     H77993   8.630   7.252   5.440  1.0511 -0.7395  0.4719
  578MOL0     H77994   8.654   6.943   5.477  3.0851 -3.7042 -0.2413
  578MOL0     H77995   8.724   6.734   5.528 -0.1505  0.4368 -0.0320
  578MOL0     H77996   8.748   6.510   5.625 -3.0266  1.5242 -0.0643
  578MOL0     H77997   8.673   6.370   5.696  3.8018 -0.0083 -0.5948
  578MOL0     H77998   8.524   6.334   5.497 -1.2973  1.9940  0.1936
  578MOL0     H77999   8.586   6.473   5.424  0.1602 -1.5007 -3.1020
  578MOL0     H78000   8.751   6.222   5.503  0.1661  2.4087  2.1184
  578MOL0     H78001   8.818   6.366   5.428 -0.8886  1.8830  2.8797
  578MOL0     H78002   8.602   6.186   5.299  0.8918 -0.5699 -1.7852
  578MOL0     H78003   8.668   6.326   5.219 -1.3532 -0.0476  0.1931
  578MOL0     H78004   8.844   6.091   5.309 -0.2376  0.4827 -1.3170
  578MOL0     H78005   8.889   6.237   5.233  0.3869  2.5067  2.9960
  578MOL0     H78006   8.700   6.000   5.132 -0.1168  1.1770  2.4144
  578MOL0     H78007   8.724   6.143   5.039 -0.0622 -0.1435 -1.1783
  578MOL0     H78008   8.851   5.961   4.964  0.7642  1.7398 -0.6055
  578MOL0     H78009   8.926   5.910   5.120  1.5427  0.4584  0.1984
  578MOL0     H78010   9.092   5.999   4.996 -0.7942 -1.1680 -0.5988
  578MOL0     H78011   9.057   6.082   5.139 -1.9515 -1.9877  1.4788
  578MOL0     H78012   8.326   6.635   5.678  0.3135  0.5409  3.1957
  578MOL0     H78013   8.252   6.855   5.592 -0.4651 -1.9387 -0.6697
  578MOL0     H78014   8.115   7.196   5.294 -1.4853  1.6539  0.0290
  578MOL0     H78015   8.111   7.409   5.164  1.1055  2.6419  0.2491
  578MOL0     H78016   8.082   9.106   4.984 -0.8923 -2.5566 -0.3669
  578MOL0     H78017   8.149   9.289   5.160 -0.6178  1.1135  2.5347
  578MOL0     H78018   8.633   9.440   5.483 -0.2831  2.2685 -3.0807
  578MOL0     H78019   8.617   9.660   5.591 -2.6929  2.8139 -3.3938
  578MOL0     H78020   8.231   9.826   5.770  0.0617  0.7128  2.3489
  578MOL0     H78021   8.309   9.736   5.895 -1.2708  1.1762  1.3094
  578MOL0     H78022   8.385  10.001   5.785  0.4472 -1.6999 -2.8373
  578MOL0     H78023   8.471   9.922   5.917  0.0782 -1.2173 -1.7813
  578MOL0     H78024   8.284   9.910   6.062 -0.4355 -0.5398  0.1528
  578MOL0     H78025   8.166   9.980   5.947 -0.1195  1.4153 -0.7445
  578MOL0     H78026   8.327  10.182   5.953  2.3269 -1.8444  0.0747
  578MOL0     H78027   8.407  10.121   6.083  0.1536 -1.5726 -0.2412
  578MOL0     H78028   8.035  10.246   6.247  0.1180  0.1461  0.4461
  578MOL0     H78029   8.204   9.630   5.649 -0.5404 -1.7356  3.6979
  578MOL0     H78030   8.200   9.438   5.507 -0.3431 -1.2853  1.6014
  579MOL0     O78031   3.442   1.395   8.026  0.0628  0.3903 -0.4099
  579MOL0     C78032   3.351   1.333   8.077 -0.2748 -0.6676  0.2630
  579MOL0     O78033   3.273   1.247   8.016  0.3529 -0.2044 -0.2845
  579MOL0     C78034   3.297   1.208   7.889 -0.4806  0.7661 -0.3728
  579MOL0     C78035   3.189   1.210   7.806  0.2365 -1.0974  0.9747
  579MOL0     C78036   3.195   1.166   7.670  0.6841 -0.0861 -0.5275
  579MOL0     C78037   3.312   1.124   7.614 -0.2555  0.6811  0.3991
  579MOL0     O78038   3.301   1.060   7.486 -0.0190 -0.1242  0.3229
  579MOL0     C78039   3.425   1.043   7.422  0.7752 -0.4562  0.5667
  579MOL0     C78040   3.403   0.989   7.285  0.5228 -0.3612 -1.1854
  579MOL0     C78041   3.337   0.842   7.293 -0.6060 -0.2516 -0.1230
  579MOL0     C78042   3.183   0.827   7.327  0.6431 -0.1086  0.2187
  579MOL0     C78043   3.119   0.694   7.289 -0.2418  0.1734  0.3581
  579MOL0     C78044   3.187   0.578   7.351 -0.5938  0.1568  0.0212
  579MOL0     C78045   3.101   0.451   7.324 -0.3957 -0.2786 -0.4344
  579MOL0     C78046   3.047   0.387   7.462  0.2789 -0.0092 -0.8931
  579MOL0     N78047   2.951   0.283   7.434  0.2950  0.0575 -0.0885
  579MOL0     C78048   2.852   0.287   7.345  0.2060  0.4199  0.3749
  579MOL0     C78049   2.783   0.167   7.360 -0.4726 -0.1252  0.5564
  579MOL0     C78050   2.664   0.130   7.277 -0.2899  0.4113 -0.3740
  579MOL0     C78051   2.630  -0.024   7.267 -0.6873 -0.3437  0.1966
  579MOL0     C78052   2.508  -0.067   7.187  0.0132  0.8139  0.6665
  579MOL0     C78053   2.441  -0.201   7.242 -0.7907  0.7223 -0.1157
  579MOL0     O78054   2.367  -0.155   7.364 -0.5894 -0.2660 -0.0361
  579MOL0     C78055   2.309  -0.249   7.449  0.0650  0.5963  0.3482
  579MOL0     C78056   2.277  -0.382   7.412  0.1432 -0.1725 -0.2671
  579MOL0     C78057   2.234  -0.472   7.518  0.3184 -0.0355 -0.0028
  579MOL0     C78058   2.205  -0.614   7.477 -0.4597 -1.1150 -0.8625
  579MOL0     C78059   2.212  -0.419   7.651  0.2035  0.5840  0.0834
  579MOL0     C78060   2.158  -0.499   7.759 -0.4394 -0.5048 -0.7096
  579MOL0     O78061   2.073  -0.429   7.845 -0.1263 -0.6919  0.1391
  579MOL0     C78062   2.032  -0.488   7.952 -0.8970  0.6362  0.3400
  579MOL0     C78063   2.046  -0.414   8.073 -0.1708 -0.7701  1.2179
  579MOL0     C78064   2.012  -0.469   8.200 -0.4950 -0.5357  0.1480
  579MOL0     C78065   1.952  -0.593   8.201 -0.1672  0.2189 -0.3862
  579MOL0     O78066   1.909  -0.647   8.316  0.4164  0.1197 -0.3075
  579MOL0     C78067   1.994  -0.656   8.431 -1.0925  0.2956  0.0932
  579MOL0     C78068   1.930  -0.756   8.528 -0.5761 -0.2849  0.7645
  579MOL0     C78069   1.828  -0.865   8.476 -0.2579  0.1986 -0.2401
  579MOL0     C78070   1.827  -0.999   8.557  0.6553 -0.8414 -0.5677
  579MOL0     C78071   1.730  -1.103   8.513  0.3770  1.0697  0.9301
  579MOL0     C78072   1.739  -1.225   8.619  0.0778 -1.1483 -0.9417
  579MOL0     C78073   1.638  -1.324   8.586 -0.1815  0.8560  1.0646
  579MOL0     C78074   1.504  -1.296   8.659  0.3506 -1.3462 -0.3909
  579MOL0    Cl78075   1.375  -1.429   8.643  0.2984  0.0362 -0.0854
  579MOL0     C78076   1.931  -0.663   8.083  0.2443 -0.0877 -0.0875
  579MOL0     C78077   1.967  -0.615   7.958 -1.0292 -0.4000  0.3885
  579MOL0     O78078   2.223  -0.602   7.788 -0.0102 -0.0195 -0.1861
  579MOL0     C78079   2.238  -0.288   7.678 -0.7741  0.3517 -0.6061
  579MOL0     C78080   2.293  -0.206   7.583  0.3882 -0.1143 -0.1915
  579MOL0     N78081   2.867   0.092   7.443  0.2733  0.6964 -0.8589
  579MOL0     N78082   2.963   0.165   7.494 -0.4750  0.4423  0.6801
  579MOL0     C78083   3.425   1.119   7.696 -1.5569 -0.3740  0.1401
  579MOL0     C78084   3.423   1.176   7.833  0.8051  0.3215 -0.2667
  579MOL0     C78085   3.330   1.364   8.224 -0.8625 -0.6228  0.1192
  579MOL0     C78086   3.376   1.483   8.283 -0.1222  0.7793 -0.4363
  579MOL0     C78087   3.347   1.505   8.420  0.1541  0.1991  0.8809
  579MOL0     C78088   3.257   1.423   8.497 -0.3860 -0.4605 -0.4023
  579MOL0     O78089   3.217   1.446   8.623  0.4765 -0.1273 -0.1859
  579MOL0     C78090   3.205   1.581   8.669  1.0055 -0.4581 -0.2958
  579MOL0     C78091   3.129   1.566   8.802 -0.2004 -0.0248  1.1515
  579MOL0     C78092   3.094   1.715   8.844 -0.5820 -0.1090  0.0401
  579MOL0     C78093   3.029   1.718   8.989 -0.6679 -1.1126 -0.1209
  579MOL0     C78094   2.975   1.845   9.025 -0.2105 -0.8484 -0.7466
  579MOL0     C78095   2.942   1.956   9.068 -0.4131 -0.7178 -0.4836
  579MOL0     C78096   3.216   1.307   8.431  0.5571  0.0591  0.4660
  579MOL0     C78097   3.245   1.277   8.301 -0.0839 -0.0664 -0.4452
  579MOL0     H78098   3.089   1.226   7.845 -1.2496 -0.9901 -2.5203
  579MOL0     H78099   3.099   1.144   7.623 -0.0412 -0.2043  0.9534
  579MOL0     H78100   3.459   1.147   7.417 -0.9455  0.0901 -2.0497
  579MOL0     H78101   3.487   0.967   7.468  2.4264  0.4746 -0.0509
  579MOL0     H78102   3.331   1.052   7.232  0.1658 -1.7424 -2.3999
  579MOL0     H78103   3.499   0.998   7.235  0.2790  0.4488 -1.5281
  579MOL0     H78104   3.341   0.814   7.188 -1.0561 -0.4860 -0.0792
  579MOL0     H78105   3.396   0.774   7.356  1.3623  2.5933  1.3397
  579MOL0     H78106   3.166   0.846   7.433 -1.7022  1.8258 -0.4296
  579MOL0     H78107   3.137   0.907   7.269  3.7361  1.2185 -0.6269
  579MOL0     H78108   3.017   0.684   7.326 -0.5335 -4.4106 -1.0564
  579MOL0     H78109   3.113   0.666   7.184 -3.2892 -1.1247  0.7678
  579MOL0     H78110   3.287   0.557   7.312 -1.0440 -0.1986 -0.9698
  579MOL0     H78111   3.202   0.594   7.459  1.8333  1.2880 -0.4064
  579MOL0     H78112   3.008   0.467   7.269 -0.0722 -1.3861 -1.3601
  579MOL0     H78113   3.173   0.382   7.278  1.1979  1.0684 -0.0781
  579MOL0     H78114   3.001   0.460   7.529 -0.3034 -1.5602  0.4754
  579MOL0     H78115   3.137   0.366   7.522 -1.0622  1.4592  1.8530
  579MOL0     H78116   2.838   0.372   7.279  0.8619  1.0570  1.0299
  579MOL0     H78117   2.576   0.192   7.292 -1.6332 -0.8447 -2.5649
  579MOL0     H78118   2.701   0.159   7.178 -1.6870  2.4471 -0.3574
  579MOL0     H78119   2.596  -0.051   7.368 -3.6421  1.5846 -0.1681
  579MOL0     H78120   2.714  -0.090   7.244 -1.5132 -1.9519  1.5919
  579MOL0     H78121   2.540  -0.095   7.086 -0.1822  0.2593  0.7574
  579MOL0     H78122   2.431   0.010   7.180 -1.4298 -0.3554  2.5371
  579MOL0     H78123   2.517  -0.275   7.267 -0.3944  1.1707  0.0148
  579MOL0     H78124   2.364  -0.248   7.180 -3.7374 -0.3511  3.8893
  579MOL0     H78125   2.298  -0.426   7.315  0.7527 -0.7611  0.1265
  579MOL0     H78126   2.228  -0.624   7.371  1.3753 -2.6867 -0.3818
  579MOL0     H78127   2.279  -0.680   7.526  0.5478  1.3909  1.2443
  579MOL0     H78128   2.101  -0.640   7.498  0.3563 -4.5550 -0.3700
  579MOL0     H78129   2.073  -0.309   8.070 -0.3634 -0.7314  0.4260
  579MOL0     H78130   2.035  -0.425   8.296  1.3974  1.0871 -0.9710
  579MOL0     H78131   2.093  -0.695   8.406 -2.0916 -3.2113  0.9610
  579MOL0     H78132   2.030  -0.572   8.491  1.0137 -3.2069  4.3387
  579MOL0     H78133   2.018  -0.803   8.573 -0.4409  0.0116  0.8153
  579MOL0     H78134   1.880  -0.702   8.608 -0.6516  0.4536  0.2289
  579MOL0     H78135   1.854  -0.897   8.375  3.8484  0.1869  0.6510
  579MOL0     H78136   1.730  -0.817   8.474  0.5988  2.0431 -0.1446
  579MOL0     H78137   1.926  -1.044   8.570  0.6000 -0.3904  1.9946
  579MOL0     H78138   1.804  -0.964   8.659  1.2596 -1.7086 -0.1210
  579MOL0     H78139   1.767  -1.136   8.416  1.3306 -1.6162  2.1009
  579MOL0     H78140   1.626  -1.071   8.501 -0.2737 -1.2014 -0.0231
  579MOL0     H78141   1.835  -1.276   8.608  0.2275 -0.4136 -3.9445
  579MOL0     H78142   1.717  -1.190   8.720  0.2073 -0.7490 -1.0484
  579MOL0     H78143   1.680  -1.421   8.611 -2.0400  0.0744  1.3024
  579MOL0     H78144   1.622  -1.325   8.478  1.7206  0.9615  0.7347
  579MOL0     H78145   1.457  -1.214   8.605  2.3996 -0.5613 -1.0969
  579MOL0     H78146   1.531  -1.262   8.760 -0.3162  0.5892 -0.8158
  579MOL0     H78147   1.908  -0.768   8.095  0.2891 -0.1009 -0.1191
  579MOL0     H78148   1.979  -0.682   7.874  2.3398  0.5150 -0.0058
  579MOL0     H78149   2.221  -0.249   7.777 -1.8362  0.0437 -0.6606
  579MOL0     H78150   2.325  -0.104   7.606 -0.8371  0.4013 -0.7128
  579MOL0     H78151   3.519   1.078   7.663 -1.1007 -0.7786  1.8072
  579MOL0     H78152   3.518   1.193   7.883 -0.7308  1.2573  2.5486
  579MOL0     H78153   3.440   1.562   8.245 -0.0694  0.6822 -0.5470
  579MOL0     H78154   3.383   1.594   8.471 -0.6106  1.1849 -0.2256
  579MOL0     H78155   3.307   1.614   8.692  0.3942 -0.3560  2.6229
  579MOL0     H78156   3.169   1.649   8.591  7.1303  2.5529 -1.1019
  579MOL0     H78157   3.199   1.509   8.864  1.4762  3.9470  3.2181
  579MOL0     H78158   3.033   1.514   8.789  0.0753  0.1042 -2.9740
  579MOL0     H78159   3.038   1.756   8.759  0.7514  0.2954 -0.6731
  579MOL0     H78160   3.179   1.783   8.843 -1.5607  1.1660 -0.8382
  579MOL0     H78161   3.107   1.696   9.062 -2.5513 -3.2455  1.3965
  579MOL0     H78162   2.960   1.635   9.005 -0.4895 -1.3394 -0.4963
  579MOL0     H78163   2.919   2.054   9.104  0.3262 -0.7794  0.1931
  579MOL0     H78164   3.153   1.253   8.502 -0.2524  0.8730  0.3896
  579MOL0     H78165   3.195   1.190   8.261 -3.2279  1.2909  0.2096
  580MOL0     O78166   5.928   8.941   5.042 -0.3293 -0.2532  0.5776
  580MOL0     C78167   5.951   9.037   5.110  1.1419 -0.2207 -0.4176
  580MOL0     O78168   5.863   9.087   5.203 -0.7044  0.6819 -0.0874
  580MOL0     C78169   5.753   9.021   5.260  0.1583  0.0005 -0.4484
  580MOL0     C78170   5.761   8.986   5.398  0.4909 -0.0187  0.8456
  580MOL0     C78171   5.658   8.905   5.462 -0.1120  0.4545  0.0660
  580MOL0     C78172   5.540   8.875   5.387 -0.6044 -0.5968  0.0464
  580MOL0     O78173   5.449   8.791   5.451 -0.3058 -0.9308  0.4011
  580MOL0     C78174   5.313   8.795   5.410  0.0050  0.1686  0.0139
  580MOL0     C78175   5.250   8.926   5.452  0.5525  0.4190  0.8599
  580MOL0     C78176   5.234   8.956   5.604 -0.4420  0.0060  0.9380
  580MOL0     C78177   5.368   8.992   5.670  0.8924  1.0847 -0.1164
  580MOL0     C78178   5.350   8.996   5.821 -0.3522 -0.2815 -0.0951
  580MOL0     C78179   5.471   9.039   5.897 -0.2246 -0.3310 -1.0137
  580MOL0     C78180   5.516   9.179   5.856 -0.4648 -0.2409 -0.0737
  580MOL0     C78181   5.571   9.258   5.967  0.2786  0.1779 -0.1156
  580MOL0     N78182   5.472   9.302   6.068  0.3837  0.7849  0.1221
  580MOL0     C78183   5.473   9.286   6.204 -0.7778 -0.2622  0.2395
  580MOL0     C78184   5.396   9.375   6.255  0.2005 -1.1705  0.6738
  580MOL0     C78185   5.369   9.394   6.400  0.2933  0.5537  0.1206
  580MOL0     C78186   5.489   9.375   6.493 -0.3798  0.3595  0.4526
  580MOL0     C78187   5.476   9.437   6.633  1.0370 -0.1195  0.6150
  580MOL0     C78188   5.346   9.378   6.698 -0.2967 -0.2838  1.5073
  580MOL0     O78189   5.232   9.437   6.640 -1.3629  0.3218 -0.4184
  580MOL0     C78190   5.115   9.366   6.654 -0.1129  0.1803 -0.1211
  580MOL0     C78191   5.014   9.378   6.559 -0.7010  1.1569  0.6959
  580MOL0     C78192   4.917   9.283   6.558 -0.9881  0.8782  0.0022
  580MOL0     C78193   4.819   9.285   6.442  0.0696  0.3415 -0.8278
  580MOL0     C78194   4.896   9.198   6.674  0.2655 -1.0030  0.3710
  580MOL0     C78195   4.785   9.105   6.696  0.1099 -0.3406  0.1903
  580MOL0     O78196   4.780   9.036   6.818 -0.2003  0.5543  0.6948
  580MOL0     C78197   4.676   8.955   6.841  0.4258 -0.6571 -0.5226
  580MOL0     C78198   4.679   8.819   6.835 -0.1989  0.0031  0.4599
  580MOL0     C78199   4.566   8.738   6.867  0.4066  1.0483  0.6409
  580MOL0     C78200   4.451   8.795   6.926  0.0453 -0.2873 -0.9572
  580MOL0     O78201   4.338   8.726   6.964 -1.1524 -0.3602 -1.3756
  580MOL0     C78202   4.354   8.594   7.005 -0.0329 -0.0945 -0.3129
  580MOL0     C78203   4.226   8.530   7.058 -0.6628  0.3815  0.7289
  580MOL0     C78204   4.132   8.622   7.130 -0.0124  0.2841 -0.5728
  580MOL0     C78205   4.184   8.718   7.241 -1.4464 -0.1144 -0.1624
  580MOL0     C78206   4.240   8.638   7.355 -0.0144  0.1010 -0.3694
  580MOL0     C78207   4.235   8.727   7.484  0.5472  0.5084  0.1157
  580MOL0     C78208   4.105   8.779   7.535  0.6719 -0.3929  0.1532
  580MOL0     C78209   4.097   8.797   7.687  0.0683 -0.1360  0.0853
  580MOL0    Cl78210   4.217   8.905   7.759 -0.1229  0.1434 -0.1661
  580MOL0     C78211   4.452   8.933   6.932  0.2233  0.2269 -0.5011
  580MOL0     C78212   4.559   9.015   6.887  0.6496  0.4146  0.0513
  580MOL0     O78213   4.713   9.085   6.597 -0.2754  0.0179 -0.2146
  580MOL0     C78214   4.992   9.197   6.770  0.0685 -0.1532 -0.5824
  580MOL0     C78215   5.099   9.276   6.761 -0.8678 -0.2524  0.4742
  580MOL0     N78216   5.326   9.434   6.145 -0.0773  0.4510 -0.9804
  580MOL0     N78217   5.374   9.393   6.035 -0.0441 -0.8736 -0.3388
  580MOL0     C78218   5.526   8.941   5.257  0.7133  0.0014 -0.9530
  580MOL0     C78219   5.624   9.013   5.199 -0.1554 -0.5311 -0.6846
  580MOL0     C78220   6.068   9.108   5.073 -0.1951  1.3075  0.9629
  580MOL0     C78221   6.168   9.047   4.991 -0.0775  0.3684  0.1826
  580MOL0     C78222   6.291   9.104   4.961 -0.2401 -0.6019  0.0916
  580MOL0     C78223   6.316   9.237   4.996  0.1414 -0.3682 -0.6170
  580MOL0     O78224   6.447   9.275   4.977 -0.4234 -0.7634  0.2194
  580MOL0     C78225   6.483   9.417   4.989  0.9205 -0.0161 -0.3095
  580MOL0     C78226   6.629   9.436   4.958 -0.7464 -1.1310  1.0571
  580MOL0     C78227   6.690   9.352   4.846  0.2493  0.1155  0.1333
  580MOL0     C78228   6.642   9.404   4.711 -0.7673 -0.3840  0.3963
  580MOL0     C78229   6.724   9.349   4.606  0.5709  0.7584  0.6336
  580MOL0     C78230   6.798   9.323   4.511 -0.3656  0.6494 -0.0015
  580MOL0     C78231   6.215   9.303   5.064 -0.5157  0.0620 -0.3280
  580MOL0     C78232   6.094   9.244   5.102  0.5457  0.5985  0.0062
  580MOL0     H78233   5.847   9.007   5.461 -1.5000 -2.0941  4.5347
  580MOL0     H78234   5.670   8.852   5.555  0.2417 -0.6789 -0.6015
  580MOL0     H78235   5.298   8.782   5.302  0.4011 -0.8112  0.0697
  580MOL0     H78236   5.246   8.718   5.449 -3.6942  1.3725 -3.2539
  580MOL0     H78237   5.284   9.020   5.408 -0.0029  0.8868  1.4094
  580MOL0     H78238   5.149   8.919   5.410  1.0161  2.4876 -0.7823
  580MOL0     H78239   5.170   9.040   5.633  0.4502  1.5074 -1.2313
  580MOL0     H78240   5.184   8.872   5.653  1.4747 -1.6978  0.1097
  580MOL0     H78241   5.444   8.915   5.657  0.7151  0.7856  0.5671
  580MOL0     H78242   5.403   9.087   5.629  0.3413  1.6087  0.5792
  580MOL0     H78243   5.259   9.052   5.847  0.0415  1.1045 -1.5530
  580MOL0     H78244   5.330   8.892   5.847 -3.7034  0.3424  0.4054
  580MOL0     H78245   5.451   9.040   6.004  0.4727  2.0723 -0.8517
  580MOL0     H78246   5.558   8.977   5.874 -0.0286 -1.6792  2.8251
  580MOL0     H78247   5.576   9.172   5.765 -1.1049  2.6755 -0.8318
  580MOL0     H78248   5.421   9.226   5.827 -1.5809 -2.3329 -0.0321
  580MOL0     H78249   5.611   9.345   5.914  2.0503 -0.7410 -0.3629
  580MOL0     H78250   5.659   9.213   6.013  1.3265  0.2702 -1.9118
  580MOL0     H78251   5.553   9.233   6.256 -0.0030 -1.6566 -2.2127
  580MOL0     H78252   5.333   9.495   6.420  0.9951  0.7245  0.5670
  580MOL0     H78253   5.299   9.313   6.424 -3.6837  2.4310 -3.7656
  580MOL0     H78254   5.571   9.433   6.451 -1.7843 -0.1145 -3.2860
  580MOL0     H78255   5.502   9.267   6.501  3.1047  0.7842  2.8464
  580MOL0     H78256   5.466   9.546   6.639 -0.1513 -0.2599  1.6231
  580MOL0     H78257   5.568   9.406   6.684  0.4921  2.0209  3.1369
  580MOL0     H78258   5.342   9.398   6.805  0.8912 -0.3863  1.5797
  580MOL0     H78259   5.352   9.271   6.679  2.9304 -0.1631  1.3628
  580MOL0     H78260   5.035   9.447   6.478 -0.1640 -0.7742 -0.9148
  580MOL0     H78261   4.823   9.186   6.393  1.7886 -0.0617  0.0587
  580MOL0     H78262   4.722   9.317   6.482 -0.2366 -1.1881 -0.2375
  580MOL0     H78263   4.840   9.363   6.369 -1.3825  2.9247  1.3705
  580MOL0     H78264   4.770   8.769   6.802  1.2184  2.7686 -0.0687
  580MOL0     H78265   4.575   8.630   6.863 -0.6170  0.8955  1.7749
  580MOL0     H78266   4.384   8.530   6.922 -2.0149  1.0098 -1.9579
  580MOL0     H78267   4.432   8.587   7.081 -0.0902 -0.5319 -0.2928
  580MOL0     H78268   4.185   8.492   6.963  1.2916 -0.3573  0.1194
  580MOL0     H78269   4.240   8.442   7.122 -2.8170 -0.1396  0.5585
  580MOL0     H78270   4.059   8.556   7.177  0.7023  1.8747  3.0621
  580MOL0     H78271   4.088   8.691   7.057  1.6607  4.5261  2.0767
  580MOL0     H78272   4.268   8.782   7.212 -1.3152  0.3013  1.0652
  580MOL0     H78273   4.107   8.792   7.264  0.6546  2.3152 -0.5168
  580MOL0     H78274   4.343   8.614   7.328 -0.9307 -1.7496 -2.5294
  580MOL0     H78275   4.188   8.543   7.370 -0.4799 -0.3852 -4.0797
  580MOL0     H78276   4.272   8.664   7.566 -0.5523 -1.1290 -0.6032
  580MOL0     H78277   4.309   8.807   7.478  2.4146 -1.1100  0.4576
  580MOL0     H78278   4.024   8.710   7.507  3.0901 -3.6938  0.6725
  580MOL0     H78279   4.072   8.872   7.489  2.0903 -1.4430 -3.3320
  580MOL0     H78280   4.092   8.700   7.738 -0.9066  1.2331  2.7757
  580MOL0     H78281   4.000   8.843   7.707  0.6989 -0.1027  3.9469
  580MOL0     H78282   4.372   8.984   6.986 -0.8630 -2.2301  0.3342
  580MOL0     H78283   4.552   9.123   6.877 -3.4449  0.2909 -0.1779
  580MOL0     H78284   4.977   9.130   6.854 -2.6317 -2.7960 -2.9061
  580MOL0     H78285   5.162   9.274   6.850  0.9017  1.5063 -0.6465
  580MOL0     H78286   5.440   8.920   5.193 -2.0020  2.6726  1.5184
  580MOL0     H78287   5.616   9.043   5.095  1.7636 -0.2126 -0.7780
  580MOL0     H78288   6.154   8.958   4.931 -0.3100 -2.2397  3.7660
  580MOL0     H78289   6.369   9.055   4.902  1.8421 -0.0027  2.1787
  580MOL0     H78290   6.420   9.461   4.911 -0.5745 -0.2468  0.7261
  580MOL0     H78291   6.445   9.459   5.082 -0.9527 -0.5182 -0.8125
  580MOL0     H78292   6.681   9.418   5.053  0.6937  1.2120  0.7828
  580MOL0     H78293   6.648   9.541   4.933 -1.1463 -1.4753 -0.8490
  580MOL0     H78294   6.658   9.249   4.865  1.9793  0.1918  4.6484
  580MOL0     H78295   6.799   9.354   4.851  0.1917  1.0949  2.2242
  580MOL0     H78296   6.658   9.512   4.708 -1.1160 -0.2911 -3.7255
  580MOL0     H78297   6.535   9.381   4.712 -0.9050 -0.3010 -3.0684
  580MOL0     H78298   6.860   9.304   4.426  2.5125 -0.2388  2.1153
  580MOL0     H78299   6.236   9.401   5.105  2.2274 -2.0253  4.0151
  580MOL0     H78300   6.023   9.302   5.159 -1.3578 -1.6638  0.0669
  581MOL0     O78301   5.938   8.312   8.876 -0.3368  0.0932 -0.0871
  581MOL0     C78302   5.896   8.422   8.897  0.5127 -0.3283 -0.5744
  581MOL0     O78303   5.920   8.486   9.010  0.6783  0.0878  0.0186
  581MOL0     C78304   6.022   8.457   9.106  0.4940  0.6402  0.3737
  581MOL0     C78305   6.078   8.330   9.135 -0.0475  0.1363 -0.4503
  581MOL0     C78306   6.176   8.323   9.231 -0.0783  0.3204 -0.4027
  581MOL0     C78307   6.224   8.429   9.298 -0.0654 -0.8480 -0.0358
  581MOL0     O78308   6.312   8.408   9.396  0.1597 -0.1038 -0.0743
  581MOL0     C78309   6.351   8.528   9.474 -0.8377  0.8166  0.3008
  581MOL0     C78310   6.429   8.467   9.593 -0.1333  0.2165 -0.1196
  581MOL0     C78311   6.326   8.422   9.705 -0.3659  0.9248  0.1430
  581MOL0     C78312   6.399   8.321   9.805  0.0968 -0.0494 -0.1813
  581MOL0     C78313   6.301   8.275   9.911 -0.1284 -0.7525 -0.4940
  581MOL0     C78314   6.220   8.158   9.862  0.2253  0.7757  0.7807
  581MOL0     C78315   6.159   8.079   9.974 -0.4458  0.4388 -1.3155
  581MOL0     C78316   6.065   7.972   9.926  0.5875  0.9600  0.3047
  581MOL0     N78317   6.008   7.902  10.037  0.4039 -0.5134  0.1928
  581MOL0     C78318   5.916   7.949  10.124  0.3689 -0.5593 -1.0552
  581MOL0     C78319   5.875   7.834  10.186 -0.4659 -0.9048  1.0519
  581MOL0     C78320   5.797   7.802  10.303 -0.3646  0.1981  0.2570
  581MOL0     C78321   5.774   7.642  10.325  0.2690 -0.1329  0.1181
  581MOL0     C78322   5.696   7.620  10.453  0.6915 -0.2228 -0.5136
  581MOL0     C78323   5.701   7.486  10.524  0.6240 -0.3637  0.8340
  581MOL0     O78324   5.617   7.485  10.634 -0.5215  0.3728  0.4859
  581MOL0     C78325   5.592   7.356  10.697 -0.1843  0.7047 -0.0413
  581MOL0     C78326   5.682   7.246  10.687  0.7162 -1.1009  0.6588
  581MOL0     C78327   5.634   7.124  10.735  0.3412  1.1122  0.0871
  581MOL0     C78328   5.736   7.014  10.723  0.7305 -0.7798  0.2915
  581MOL0     C78329   5.518   7.107  10.809  0.5432 -0.1872  0.4506
  581MOL0     C78330   5.464   6.982  10.875  0.8359 -1.1543 -0.1246
  581MOL0     O78331   5.385   6.995  10.978 -0.1618  0.0860 -0.0233
  581MOL0     C78332   5.361   6.882  11.062 -0.1939 -0.4989  0.7212
  581MOL0     C78333   5.445   6.768  11.068  0.6343 -0.0909 -0.2508
  581MOL0     C78334   5.442   6.673  11.173  0.8517 -0.8255 -0.3532
  581MOL0     C78335   5.335   6.682  11.267 -0.6174  0.1698 -0.1104
  581MOL0     O78336   5.345   6.583  11.360 -0.5558 -0.3473  0.1657
  581MOL0     C78337   5.264   6.596  11.484 -0.4052 -0.3459  0.2668
  581MOL0     C78338   5.275   6.473  11.567 -0.1164  0.7778  1.1356
  581MOL0     C78339   5.271   6.339  11.480 -0.3981  0.4717 -0.6378
  581MOL0     C78340   5.166   6.333  11.367 -1.4551 -0.1265 -0.4947
  581MOL0     C78341   5.161   6.202  11.288  0.4343 -0.5747 -0.6901
  581MOL0     C78342   5.061   6.212  11.184  0.4778  0.0431 -0.3163
  581MOL0     C78343   5.031   6.063  11.150 -0.2815  0.3993 -0.6523
  581MOL0     C78344   4.940   6.045  11.024  0.5752  0.7751 -0.7827
  581MOL0    Cl78345   5.038   6.020  10.880  0.1022  0.1016  0.1505
  581MOL0     C78346   5.259   6.795  11.260 -0.2615 -0.0386 -1.0533
  581MOL0     C78347   5.265   6.888  11.160  0.1117 -0.6458  0.4418
  581MOL0     O78348   5.485   6.876  10.811  0.0969  0.0506 -0.1202
  581MOL0     C78349   5.438   7.220  10.831 -0.0066  0.5530 -0.0718
  581MOL0     C78350   5.476   7.336  10.777  1.0012 -0.7977  0.5485
  581MOL0     N78351   5.920   7.727  10.113  0.3718  0.6454  0.7134
  581MOL0     N78352   6.002   7.766  10.032 -0.6234 -0.1069  0.2445
  581MOL0     C78353   6.173   8.559   9.255 -0.7554 -0.0640  0.5748
  581MOL0     C78354   6.068   8.569   9.168  0.3179 -0.9124  0.9522
  581MOL0     C78355   5.806   8.486   8.796 -1.3347  0.4527  0.8131
  581MOL0     C78356   5.765   8.621   8.808 -0.8885 -0.5167  0.4256
  581MOL0     C78357   5.691   8.695   8.715  0.9467  0.9830  0.2221
  581MOL0     C78358   5.647   8.640   8.595  0.3331  0.2664  0.0970
  581MOL0     O78359   5.593   8.712   8.493  0.8188 -0.5235  0.5599
  581MOL0     C78360   5.545   8.847   8.513  0.2315 -1.1955  0.1967
  581MOL0     C78361   5.428   8.850   8.621 -0.1587  0.6465 -0.5857
  581MOL0     C78362   5.354   8.984   8.608  0.3738 -0.1351  0.0659
  581MOL0     C78363   5.275   9.006   8.482 -0.8762  0.2766  0.7093
  581MOL0     C78364   5.180   8.899   8.455  0.9267  0.3142 -0.1395
  581MOL0     C78365   5.095   8.802   8.454 -0.0306 -0.1414  1.0468
  581MOL0     C78366   5.691   8.504   8.567 -0.4255  0.6232 -0.0922
  581MOL0     C78367   5.770   8.431   8.669 -0.5323 -0.6040 -0.7938
  581MOL0     H78368   6.050   8.239   9.083 -4.0792  1.1413 -0.3795
  581MOL0     H78369   6.209   8.222   9.249 -2.4192 -0.9846 -2.6590
  581MOL0     H78370   6.418   8.576   9.403 -1.2565 -1.5142 -1.8332
  581MOL0     H78371   6.266   8.585   9.512 -0.6751  0.4887  1.1994
  581MOL0     H78372   6.486   8.389   9.542 -1.1810  1.2179 -3.0210
  581MOL0     H78373   6.501   8.542   9.628  0.0984 -0.5378  1.0719
  581MOL0     H78374   6.288   8.510   9.757  0.9226  0.6520  1.6080
  581MOL0     H78375   6.243   8.367   9.658  2.4182 -2.9356 -0.7901
  581MOL0     H78376   6.441   8.238   9.747  0.9944 -0.1472  0.5742
  581MOL0     H78377   6.486   8.370   9.851 -0.6827 -0.8446  2.2810
  581MOL0     H78378   6.349   8.250  10.007 -0.7836 -1.3043 -0.2960
  581MOL0     H78379   6.232   8.358   9.929 -0.6554 -0.9541 -1.5435
  581MOL0     H78380   6.149   8.191   9.785  0.9945 -2.4781 -1.5422
  581MOL0     H78381   6.294   8.105   9.801 -0.0926  0.1903  0.9007
  581MOL0     H78382   6.236   8.041  10.041  1.0654  3.3903 -1.2059
  581MOL0     H78383   6.098   8.141  10.040 -0.8746 -2.8765  1.7376
  581MOL0     H78384   6.118   7.897   9.867  0.7393  1.0940  0.2697
  581MOL0     H78385   5.990   8.020   9.862  0.1049 -0.8017 -0.5078
  581MOL0     H78386   5.914   8.049  10.165  7.4876 -0.6965  1.0217
  581MOL0     H78387   5.849   7.840  10.391  3.3787  3.8338 -3.0916
  581MOL0     H78388   5.706   7.861  10.290  0.9461  2.4614  0.7807
  581MOL0     H78389   5.875   7.600  10.327  1.1586  1.9138  1.2206
  581MOL0     H78390   5.718   7.593  10.245 -1.1637  1.6970 -0.0695
  581MOL0     H78391   5.593   7.634  10.419 -0.1950 -4.5338 -0.1761
  581MOL0     H78392   5.719   7.696  10.528  3.3534 -1.6426  0.2205
  581MOL0     H78393   5.800   7.467  10.566  1.3054  1.2862  0.0421
  581MOL0     H78394   5.665   7.409  10.454 -0.0814  0.4782  0.2501
  581MOL0     H78395   5.772   7.249  10.626  1.6195 -1.0745  1.9529
  581MOL0     H78396   5.788   7.026  10.818  0.3695  2.7967  0.1682
  581MOL0     H78397   5.701   6.911  10.713 -0.8568 -0.0350 -3.7399
  581MOL0     H78398   5.814   7.040  10.651  0.6587 -0.4748  0.3237
  581MOL0     H78399   5.526   6.747  10.998  0.8481  0.5995 -0.2215
  581MOL0     H78400   5.507   6.586  11.178  0.4202 -1.0929  0.9165
  581MOL0     H78401   5.299   6.679  11.547  1.8359 -1.9745  1.3043
  581MOL0     H78402   5.160   6.599  11.451  0.4278 -1.5536 -2.7584
  581MOL0     H78403   5.372   6.461  11.616  1.2007  1.5390 -1.1570
  581MOL0     H78404   5.197   6.462  11.643  0.1801 -2.9361  1.1117
  581MOL0     H78405   5.268   6.253  11.548  0.1143  0.9260 -0.0276
  581MOL0     H78406   5.370   6.330  11.436  0.4219 -2.3364  1.5465
  581MOL0     H78407   5.076   6.339  11.428 -0.8611 -0.1122  0.4050
  581MOL0     H78408   5.164   6.412  11.291  1.2326  0.1826 -0.3594
  581MOL0     H78409   5.150   6.128  11.367  2.0476 -0.2362 -0.0908
  581MOL0     H78410   5.259   6.185  11.241  1.0721  1.1434 -0.0752
  581MOL0     H78411   4.973   6.265  11.221  1.1204  1.7043 -1.0486
  581MOL0     H78412   5.100   6.272  11.101 -2.1383  1.1289 -0.8488
  581MOL0     H78413   4.997   6.010  11.239  3.6865 -1.9705 -0.3256
  581MOL0     H78414   5.128   6.017  11.128  0.7564  2.8485 -1.5861
  581MOL0     H78415   4.869   6.128  11.021 -0.4356 -0.0982 -2.2873
  581MOL0     H78416   4.882   5.953  11.036 -0.0264  1.4495  2.1925
  581MOL0     H78417   5.189   6.816  11.341  2.3646  2.1370  0.8441
  581MOL0     H78418   5.196   6.972  11.154 -0.4347 -1.1275 -0.3308
  581MOL0     H78419   5.347   7.213  10.890 -0.8039  2.7364 -0.9757
  581MOL0     H78420   5.423   7.427  10.802 -1.1389 -1.3042 -1.7389
  581MOL0     H78421   6.206   8.651   9.302 -0.3829 -0.2065  0.5998
  581MOL0     H78422   6.039   8.668   9.134  0.6365 -0.7580  1.1237
  581MOL0     H78423   5.788   8.665   8.905 -0.2268 -3.1558  1.5593
  581MOL0     H78424   5.678   8.799   8.740 -0.4639  1.6731 -2.8787
  581MOL0     H78425   5.624   8.913   8.549 -0.8891 -0.0032  0.5405
  581MOL0     H78426   5.503   8.880   8.417 -1.9691 -0.7379  1.2531
  581MOL0     H78427   5.476   8.843   8.719 -1.5368  0.1887  0.0901
  581MOL0     H78428   5.373   8.756   8.607  0.8206  0.3088 -2.5803
  581MOL0     H78429   5.422   9.070   8.611 -0.7107  1.0163 -3.5495
  581MOL0     H78430   5.277   8.995   8.685 -2.5435 -2.3522 -2.3179
  581MOL0     H78431   5.332   9.006   8.389  3.3179  0.2680  3.0519
  581MOL0     H78432   5.221   9.100   8.501  0.4654  1.9454 -2.8329
  581MOL0     H78433   5.028   8.722   8.477  1.2171 -1.4944  0.2305
  581MOL0     H78434   5.666   8.470   8.467 -1.2609  0.5074  0.1512
  581MOL0     H78435   5.801   8.330   8.647  1.2400 -0.2806  0.0152
  582MOL0     O78436  10.127   0.114   0.284  0.3743  0.1589  0.7309
  582MOL0     C78437  10.126   0.038   0.187 -0.8647 -0.4931 -1.0557
  582MOL0     O78438  10.106   0.086   0.059 -0.2228  0.6252 -0.0664
  582MOL0     C78439  10.111   0.225   0.045  0.0330  0.3643 -0.2255
  582MOL0     C78440  10.232   0.294   0.039 -0.0197 -0.8544 -0.0263
  582MOL0     C78441  10.230   0.440   0.043  1.3988  0.5754 -0.8901
  582MOL0     C78442  10.109   0.511   0.070 -0.3506 -0.9695 -0.4960
  582MOL0     O78443  10.119   0.646   0.090  0.0627  0.4071 -0.6759
  582MOL0     C78444  10.106   0.661   0.237 -0.2132 -0.2938  0.0316
  582MOL0     C78445  10.125   0.816   0.261 -0.2075  0.1712 -0.2461
  582MOL0     C78446  10.268   0.861   0.233  0.4260  0.1149 -0.0762
  582MOL0     C78447  10.364   0.816   0.345  0.1232  0.2992 -0.7623
  582MOL0     C78448  10.509   0.793   0.299 -0.6207 -0.2256 -1.2640
  582MOL0     C78449  10.594   0.794   0.429  0.8776  0.1073  0.0319
  582MOL0     C78450  10.733   0.738   0.417  0.4974  0.0773  0.1128
  582MOL0     C78451  10.758   0.596   0.344 -0.0689 -0.2774 -0.4200
  582MOL0     N78452  10.899   0.570   0.301  0.3947  0.2531  0.3030
  582MOL0     C78453  10.939   0.608   0.170 -0.1609  0.0062 -0.4658
  582MOL0     C78454  11.055   0.543   0.163  0.2796  0.0991  0.4975
  582MOL0     C78455  11.130   0.547   0.040  0.4041  0.4453  0.0719
  582MOL0     C78456  11.245   0.644   0.046 -0.3308 -0.0184  0.0913
  582MOL0     C78457  11.208   0.795   0.031 -0.6908  0.9117  0.2989
  582MOL0     C78458  11.332   0.884   0.031 -0.1337  0.0701  0.5660
  582MOL0     O78459  11.412   0.864  -0.091  0.7985  0.0395  0.0359
  582MOL0     C78460  11.525   0.946  -0.097  0.0373  0.6122  0.5710
  582MOL0     C78461  11.583   0.999   0.020 -0.2526 -1.0545 -0.2871
  582MOL0     C78462  11.712   1.048   0.009 -0.9259  0.2936 -0.2759
  582MOL0     C78463  11.778   1.058   0.143  0.3831 -0.2553 -0.4111
  582MOL0     C78464  11.779   1.048  -0.116 -0.6887 -0.0242 -0.7747
  582MOL0     C78465  11.917   1.095  -0.132 -1.1468  0.4854  0.4987
  582MOL0     O78466  12.002   1.101  -0.027 -0.9768 -0.2639 -1.0389
  582MOL0     C78467  12.130   1.055  -0.026  0.5245 -0.0449  0.0397
  582MOL0     C78468  12.216   1.095   0.075  1.0059 -0.3999  0.6150
  582MOL0     C78469  12.334   1.038   0.089 -1.1931 -1.0266  0.5780
  582MOL0     C78470  12.378   0.942   0.009 -0.4524 -0.4049 -0.0653
  582MOL0     O78471  12.504   0.896   0.027  0.5382  0.0711 -0.8410
  582MOL0     C78472  12.527   0.823   0.151 -0.2343  0.8939 -0.2937
  582MOL0     C78473  12.658   0.743   0.121  0.2727 -0.5251  0.0512
  582MOL0     C78474  12.690   0.654   0.240 -0.4439  0.2199 -0.3534
  582MOL0     C78475  12.598   0.531   0.221 -0.4949  0.0027 -0.3048
  582MOL0     C78476  12.625   0.433   0.339 -0.7709 -1.0029  0.3818
  582MOL0     C78477  12.504   0.356   0.366 -0.2098  0.2827 -0.3094
  582MOL0     C78478  12.447   0.262   0.259  1.0527 -0.3458 -0.2965
  582MOL0     C78479  12.294   0.265   0.276 -0.3775  0.1674 -0.4679
  582MOL0    Cl78480  12.197   0.158   0.158 -0.4216 -0.5527 -0.1503
  582MOL0     C78481  12.295   0.900  -0.092 -0.2374 -0.2247 -0.2340
  582MOL0     C78482  12.171   0.962  -0.121  0.6493 -0.3856  0.4233
  582MOL0     O78483  11.953   1.125  -0.243  0.0317  0.5055  0.6072
  582MOL0     C78484  11.713   0.988  -0.223 -0.0575 -0.8005  0.3876
  582MOL0     C78485  11.586   0.938  -0.211  0.0356 -0.4577  1.1391
  582MOL0     N78486  11.091   0.475   0.281  0.8783 -0.9464  0.4989
  582MOL0     N78487  10.988   0.490   0.358  0.3322 -0.9261 -0.0555
  582MOL0     C78488   9.986   0.437   0.070 -1.1755 -0.1903 -1.3240
  582MOL0     C78489   9.987   0.294   0.054  0.1686  0.0761  0.7520
  582MOL0     C78490  10.142  -0.106   0.201  0.0042  0.6111  0.1841
  582MOL0     C78491  10.161  -0.196   0.094  0.7675  0.5290 -0.5200
  582MOL0     C78492  10.175  -0.331   0.119  0.0523  0.0231 -0.3169
  582MOL0     C78493  10.167  -0.388   0.243  0.4469  0.4811 -0.2420
  582MOL0     O78494  10.152  -0.518   0.268 -0.6416 -0.5919 -0.9883
  582MOL0     C78495  10.135  -0.621   0.174  0.5210  0.3243 -0.1622
  582MOL0     C78496  10.116  -0.756   0.232  0.4114  0.2335 -0.5548
  582MOL0     C78497  10.247  -0.808   0.303  0.0300  0.7671 -0.4362
  582MOL0     C78498  10.377  -0.825   0.231 -0.1109  0.1911  0.3552
  582MOL0     C78499  10.370  -0.864   0.087 -0.2557 -0.1830 -0.0089
  582MOL0     C78500  10.352  -0.893  -0.031  0.6285 -0.9359 -0.6344
  582MOL0     C78501  10.134  -0.300   0.349 -0.3465  0.1287  1.0915
  582MOL0     C78502  10.117  -0.161   0.329 -1.3274 -0.6784  0.4705
  582MOL0     H78503  10.329   0.247   0.031  1.3307  1.3758  1.9840
  582MOL0     H78504  10.326   0.491   0.038  2.4487 -0.9223  1.5939
  582MOL0     H78505  10.008   0.634   0.277  0.3227  1.0014  2.4764
  582MOL0     H78506  10.185   0.606   0.289  0.4656  0.4526 -0.1913
  582MOL0     H78507  10.056   0.870   0.196  0.0660  1.7692  0.7110
  582MOL0     H78508  10.106   0.845   0.365  2.0177  0.7664  0.0560
  582MOL0     H78509  10.298   0.817   0.137 -3.2822  0.0667 -1.3569
  582MOL0     H78510  10.281   0.969   0.216  0.7885 -0.1020 -1.3030
  582MOL0     H78511  10.374   0.899   0.416 -1.6549  2.4227 -2.8401
  582MOL0     H78512  10.345   0.722   0.399  3.1968 -0.9311 -1.6166
  582MOL0     H78513  10.517   0.703   0.239 -1.9375 -0.1951 -1.5219
  582MOL0     H78514  10.542   0.876   0.236  3.6850  1.5531  2.7311
  582MOL0     H78515  10.598   0.895   0.471  4.2146  0.0897  0.0504
  582MOL0     H78516  10.541   0.743   0.510  1.8969  1.4992  1.6663
  582MOL0     H78517  10.786   0.811   0.354  0.7934 -2.7530 -3.2155
  582MOL0     H78518  10.783   0.737   0.514  2.9735 -2.1949 -1.0316
  582MOL0     H78519  10.709   0.589   0.246 -0.0213  0.0386 -0.4647
  582MOL0     H78520  10.733   0.518   0.417  1.3896  0.2499  0.6883
  582MOL0     H78521  10.889   0.661   0.090 -0.4288 -4.1155 -3.3605
  582MOL0     H78522  11.143   0.447  -0.004 -1.6147  1.1537 -2.3978
  582MOL0     H78523  11.055   0.587  -0.028 -2.1976 -2.4189  1.0291
  582MOL0     H78524  11.333   0.628  -0.017 -0.8521  2.6329 -1.4908
  582MOL0     H78525  11.288   0.636   0.146 -0.9095 -3.1826  0.1700
  582MOL0     H78526  11.147   0.828   0.116 -0.3983 -0.2284  0.9729
  582MOL0     H78527  11.153   0.810  -0.062  0.5811  1.8836 -0.3228
  582MOL0     H78528  11.389   0.848   0.116  0.0414 -1.8291 -0.3033
  582MOL0     H78529  11.287   0.983   0.016 -1.6379 -0.8098 -1.1584
  582MOL0     H78530  11.540   0.986   0.119  0.4685  1.0078  0.3441
  582MOL0     H78531  11.880   1.017   0.144 -0.0155 -1.5730  3.8119
  582MOL0     H78532  11.779   1.164   0.170  0.9680 -0.1539 -0.7981
  582MOL0     H78533  11.727   0.993   0.214  1.3534 -1.3405 -0.6705
  582MOL0     H78534  12.171   1.180   0.124 -0.8872  0.5017 -2.4229
  582MOL0     H78535  12.406   1.080   0.159  2.1586 -3.0567 -1.4028
  582MOL0     H78536  12.552   0.894   0.230  0.2463  0.6515 -0.2185
  582MOL0     H78537  12.443   0.767   0.192 -0.9022 -1.7562 -4.6317
  582MOL0     H78538  12.636   0.697   0.024 -0.7964  0.7028 -0.3217
  582MOL0     H78539  12.735   0.818   0.099  0.3955  0.0438  2.2004
  582MOL0     H78540  12.671   0.698   0.338 -4.0372 -1.9141  0.1027
  582MOL0     H78541  12.794   0.622   0.237 -0.8108 -0.9830 -1.5494
  582MOL0     H78542  12.491   0.556   0.224 -0.6483 -0.6828 -0.0924
  582MOL0     H78543  12.612   0.481   0.125 -0.3659  0.9823 -0.8189
  582MOL0     H78544  12.668   0.484   0.426  3.7957 -1.9839 -0.9928
  582MOL0     H78545  12.716   0.376   0.317 -1.0099 -0.7368 -1.3670
  582MOL0     H78546  12.522   0.306   0.461 -1.4670 -0.4216 -0.4247
  582MOL0     H78547  12.418   0.422   0.375 -0.8794 -0.4425 -1.1885
  582MOL0     H78548  12.479   0.158   0.267 -1.9936 -1.4964 -1.5399
  582MOL0     H78549  12.467   0.306   0.161 -0.9918  2.3170  0.3525
  582MOL0     H78550  12.245   0.362   0.264 -1.9637 -0.3408  1.3576
  582MOL0     H78551  12.262   0.223   0.372 -1.0298 -1.0484 -1.1827
  582MOL0     H78552  12.340   0.838  -0.169  4.6177  0.5618  1.5594
  582MOL0     H78553  12.114   0.927  -0.206  0.8812  0.1307  0.0512
  582MOL0     H78554  11.770   0.974  -0.314 -0.6974 -3.6574  0.3217
  582MOL0     H78555  11.530   0.885  -0.287  0.0460 -0.6790  1.2845
  582MOL0     H78556   9.889   0.484   0.058 -0.6449  0.9761 -1.1157
  582MOL0     H78557   9.899   0.238   0.084  0.3877 -1.0246 -0.5200
  582MOL0     H78558  10.150  -0.152  -0.005  1.5349 -0.4976 -1.0695
  582MOL0     H78559  10.186  -0.392   0.030 -0.0996  2.6646 -2.2546
  582MOL0     H78560  10.044  -0.593   0.120  1.5829  2.7370 -0.8392
  582MOL0     H78561  10.220  -0.614   0.106  0.2844  1.8593 -0.3411
  582MOL0     H78562  10.082  -0.822   0.151  4.4173 -0.2178 -2.1198
  582MOL0     H78563  10.048  -0.755   0.317  0.9672 -0.8011 -0.0821
  582MOL0     H78564  10.219  -0.909   0.333  1.8721  0.7191  1.3599
  582MOL0     H78565  10.266  -0.755   0.397 -0.8837 -1.1993  0.9254
  582MOL0     H78566  10.434  -0.904   0.282 -0.4208  0.1777  0.6882
  582MOL0     H78567  10.420  -0.727   0.252 -1.5198  1.0192 -0.4766
  582MOL0     H78568  10.348  -0.916  -0.135  0.7278 -0.4840 -0.7373
  582MOL0     H78569  10.098  -0.329   0.448  1.7993 -0.0732  1.8795
  582MOL0     H78570  10.093  -0.097   0.413 -3.2900  0.0385 -0.5778
  583MOL0     O78571   7.234  11.139  11.070  0.2363  0.8545  0.0563
  583MOL0     C78572   7.128  11.203  11.093  0.6695 -0.8862 -0.2054
  583MOL0     O78573   7.045  11.196  11.208  0.3097 -0.0116  1.1277
  583MOL0     C78574   7.053  11.106  11.307 -1.4221  0.0940  0.8249
  583MOL0     C78575   6.934  11.075  11.367 -0.3772  1.2069  0.2768
  583MOL0     C78576   6.934  10.988  11.480 -0.2710  0.3553  0.1915
  583MOL0     C78577   7.057  10.933  11.526 -0.1141  0.9224  0.0145
  583MOL0     O78578   7.049  10.841  11.625 -0.1515 -0.4198  0.4887
  583MOL0     C78579   7.052  10.908  11.754  0.4660  0.1339 -0.0888
  583MOL0     C78580   6.996  10.810  11.858  0.2686 -0.3148 -0.1120
  583MOL0     C78581   6.848  10.842  11.918 -0.3907  0.2760  0.0189
  583MOL0     C78582   6.857  10.958  12.021 -0.4085  1.1122  1.0644
  583MOL0     C78583   6.718  11.008  12.073 -0.2114 -0.8402 -0.0294
  583MOL0     C78584   6.627  11.078  11.979 -0.1547  0.1781 -0.1708
  583MOL0     C78585   6.497  11.124  12.052  0.9493  0.5235 -0.1789
  583MOL0     C78586   6.378  11.170  11.964  0.1760 -0.7446 -0.5238
  583MOL0     N78587   6.245  11.158  12.027  0.1700 -0.0524  0.0625
  583MOL0     C78588   6.147  11.066  11.986 -0.7546 -0.6670  0.3809
  583MOL0     C78589   6.030  11.110  12.051 -0.3450 -0.0815  0.0361
  583MOL0     C78590   5.891  11.047  12.036 -0.3326 -0.6119 -0.5248
  583MOL0     C78591   5.903  10.905  12.065 -0.4720  0.6349 -1.2301
  583MOL0     C78592   5.759  10.852  12.024  0.6897  0.8207 -0.1781
  583MOL0     C78593   5.764  10.699  12.032  0.3900  0.4191  0.5107
  583MOL0     O78594   5.879  10.662  11.946 -0.3710  0.5463 -0.0033
  583MOL0     C78595   5.936  10.542  11.965  1.0283 -0.8128  0.6703
  583MOL0     C78596   5.885  10.425  12.021 -1.2112  0.7476  0.2274
  583MOL0     C78597   5.955  10.301  12.015 -1.5030 -0.9553  0.3892
  583MOL0     C78598   5.887  10.179  12.072  0.7741  0.2460 -0.2128
  583MOL0     C78599   6.097  10.319  11.987 -0.4303 -0.3592 -0.5882
  583MOL0     C78600   6.202  10.215  12.003  0.0689 -0.1949 -0.4630
  583MOL0     O78601   6.300  10.211  11.914 -0.2073 -0.3168  0.5204
  583MOL0     C78602   6.411  10.125  11.940  0.8850  0.6521  0.0867
  583MOL0     C78603   6.419   9.996  11.886 -0.2239  0.5587 -0.2610
  583MOL0     C78604   6.541   9.918  11.908  0.0766 -0.7425  0.9796
  583MOL0     C78605   6.639   9.974  11.992  0.7658 -1.3591  0.7178
  583MOL0     O78606   6.760   9.927  12.027  0.9676  0.4620  0.0665
  583MOL0     C78607   6.785   9.791  11.981 -0.2502  0.5476  0.8149
  583MOL0     C78608   6.901   9.736  12.056 -0.2476 -0.5794  0.1342
  583MOL0     C78609   7.025   9.822  12.026 -0.6384  1.4400  0.5782
  583MOL0     C78610   7.155   9.762  12.085  0.7119  0.1996 -0.1886
  583MOL0     C78611   7.273   9.854  12.113 -0.5979 -0.7503 -0.0480
  583MOL0     C78612   7.265   9.996  12.055  0.2656 -0.9052 -0.1191
  583MOL0     C78613   7.382  10.087  12.080 -0.2832  0.7662  0.3150
  583MOL0     C78614   7.511  10.032  12.025 -1.0218  0.6282  0.7161
  583MOL0    Cl78615   7.531  10.040  11.844  0.4446 -0.7358  0.1704
  583MOL0     C78616   6.614  10.089  12.066 -0.9712  0.2348  0.9006
  583MOL0     C78617   6.499  10.165  12.040 -0.6990  0.4554 -0.6651
  583MOL0     O78618   6.186  10.137  12.097  0.2083 -0.1329  0.1253
  583MOL0     C78619   6.157  10.441  11.947 -0.2273 -0.1469 -0.9558
  583MOL0     C78620   6.073  10.554  11.935 -0.3062  0.5728 -0.9380
  583MOL0     N78621   6.069  11.220  12.127  0.6895 -0.0792  0.7201
  583MOL0     N78622   6.194  11.249  12.110  0.3253  1.2470 -0.8198
  583MOL0     C78623   7.177  10.963  11.461  1.0194  0.1161 -0.3262
  583MOL0     C78624   7.181  11.054  11.355 -0.1736  0.9487  0.3387
  583MOL0     C78625   7.083  11.289  10.983  0.0285  0.1553 -0.0638
  583MOL0     C78626   6.957  11.345  10.984  0.5434  0.7651  1.0223
  583MOL0     C78627   6.912  11.423  10.877 -0.5040 -0.0577 -0.9790
  583MOL0     C78628   6.996  11.463  10.771 -0.5361  0.3604 -0.1750
  583MOL0     O78629   6.941  11.560  10.686  0.4319  0.7345 -0.3296
  583MOL0     C78630   7.006  11.587  10.560 -0.8899  0.3402  0.1633
  583MOL0     C78631   6.950  11.510  10.439 -0.6883 -0.1047 -0.1560
  583MOL0     C78632   7.040  11.393  10.418  0.0401 -0.9508  0.1618
  583MOL0     C78633   7.021  11.328  10.284 -0.2054  0.2141 -0.3817
  583MOL0     C78634   6.872  11.285  10.269 -0.3879  0.0444  0.6119
  583MOL0     C78635   6.759  11.235  10.276  0.3175 -0.1229 -1.3101
  583MOL0     C78636   7.120  11.409  10.760  0.7472  0.9830 -0.0159
  583MOL0     C78637   7.164  11.323  10.871 -0.7480 -0.1768 -1.1134
  583MOL0     H78638   6.835  11.101  11.331 -0.3308  0.9521 -0.0323
  583MOL0     H78639   6.839  10.946  11.512 -0.9206  0.8867 -0.9477
  583MOL0     H78640   7.159  10.927  11.770  0.4650  0.9991 -0.9574
  583MOL0     H78641   6.994  10.999  11.768  1.7691  0.4754  4.4933
  583MOL0     H78642   7.007  10.705  11.830  1.9886 -0.9046  2.3839
  583MOL0     H78643   7.058  10.792  11.947  0.8216 -2.8415 -0.9360
  583MOL0     H78644   6.783  10.872  11.835  1.1407  4.3793  0.0684
  583MOL0     H78645   6.812  10.745  11.954 -1.6504 -0.6200 -3.2453
  583MOL0     H78646   6.904  10.911  12.108 -1.9008 -1.0120  0.8089
  583MOL0     H78647   6.925  11.037  11.987 -0.4954  1.7645  2.3467
  583MOL0     H78648   6.661  10.924  12.115 -0.2272 -0.8069  0.0153
  583MOL0     H78649   6.747  11.073  12.156 -2.2783 -4.3355  3.8183
  583MOL0     H78650   6.666  11.172  11.939 -0.6125  0.7426  0.6813
  583MOL0     H78651   6.612  11.015  11.891 -2.0581  3.1854 -2.2384
  583MOL0     H78652   6.461  11.043  12.116 -0.5950  0.2235 -1.3648
  583MOL0     H78653   6.526  11.211  12.112 -0.5935 -1.8888  4.5215
  583MOL0     H78654   6.379  11.099  11.880  0.2930  1.1377 -2.1777
  583MOL0     H78655   6.390  11.270  11.923 -1.8622  0.0794  0.7429
  583MOL0     H78656   6.154  10.991  11.907 -1.4652  0.9762 -1.3110
  583MOL0     H78657   5.816  11.088  12.103 -0.3813  0.4151 -1.1918
  583MOL0     H78658   5.866  11.066  11.932 -1.4695 -0.9359 -0.3163
  583MOL0     H78659   5.923  10.884  12.171  2.0074  3.9213 -0.8716
  583MOL0     H78660   5.982  10.860  12.004  1.5226  0.4070  1.3541
  583MOL0     H78661   5.743  10.888  11.922  1.8132 -0.3744 -0.8180
  583MOL0     H78662   5.675  10.892  12.081  0.4585 -1.2791  1.0858
  583MOL0     H78663   5.679  10.646  11.988 -0.6079  3.0717 -1.0021
  583MOL0     H78664   5.778  10.667  12.136  2.7069  0.9917  0.4198
  583MOL0     H78665   5.784  10.423  12.060 -1.1982  0.6153  0.2550
  583MOL0     H78666   5.779  10.190  12.082  0.3185 -3.6041  1.0838
  583MOL0     H78667   5.905  10.088  12.013 -0.5805  1.1520 -2.1108
  583MOL0     H78668   5.907  10.159  12.178 -1.5595 -2.2711 -0.1391
  583MOL0     H78669   6.332   9.963  11.829 -2.9939  2.9073  2.2606
  583MOL0     H78670   6.554   9.823  11.857  1.1681 -0.7641  1.2838
  583MOL0     H78671   6.708   9.714  11.996  1.2254 -0.6694  2.5562
  583MOL0     H78672   6.800   9.794  11.872 -3.3694  2.4543  0.2865
  583MOL0     H78673   6.871   9.736  12.161 -2.4556 -1.7875 -0.4234
  583MOL0     H78674   6.924   9.629  12.044 -0.8318 -1.0036  2.4149
  583MOL0     H78675   6.989   9.915  12.070 -2.8348  1.1461 -0.4518
  583MOL0     H78676   7.040   9.841  11.919 -3.6559 -2.6477 -0.8312
  583MOL0     H78677   7.121   9.707  12.173  1.6061 -2.5575 -1.4688
  583MOL0     H78678   7.193   9.681  12.022 -4.0067 -2.2893 -0.3401
  583MOL0     H78679   7.366   9.809  12.078 -0.3983  0.3049 -0.9217
  583MOL0     H78680   7.281   9.869  12.221  1.1563 -0.0643 -0.2340
  583MOL0     H78681   7.249  10.004  11.947 -2.0678  0.1355  0.2344
  583MOL0     H78682   7.172  10.044  12.088  1.3455  3.7521 -2.9290
  583MOL0     H78683   7.391  10.103  12.187 -3.3316  0.8078  0.6593
  583MOL0     H78684   7.352  10.178  12.026 -0.2465 -0.6393 -2.2567
  583MOL0     H78685   7.529   9.930  12.060 -0.1040  0.4277 -0.2865
  583MOL0     H78686   7.595  10.083  12.075 -0.5624 -0.5844  1.2284
  583MOL0     H78687   6.707  10.112  12.117  1.2607 -0.2374 -2.6071
  583MOL0     H78688   6.493  10.265  12.081 -2.1507  1.8344 -3.8806
  583MOL0     H78689   6.256  10.462  11.907  0.3878  2.2424  1.4923
  583MOL0     H78690   6.120  10.646  11.903  1.4073 -0.7644 -2.5247
  583MOL0     H78691   7.264  10.910  11.497  1.0688 -0.1763 -0.8696
  583MOL0     H78692   7.279  11.075  11.314 -0.0559 -1.9202 -1.1049
  583MOL0     H78693   6.889  11.329  11.067  1.1778 -0.2561  1.3633
  583MOL0     H78694   6.808  11.453  10.888 -0.4446  0.3067 -1.4122
  583MOL0     H78695   6.995  11.690  10.523  1.0707  0.5919  0.1585
  583MOL0     H78696   7.115  11.581  10.569 -0.6470  2.7244 -0.5790
  583MOL0     H78697   6.931  11.569  10.349  0.0318  2.6767  1.3893
  583MOL0     H78698   6.848  11.481  10.465 -0.1862 -1.5695  0.2533
  583MOL0     H78699   7.038  11.334  10.510  0.8645  1.6403  1.9420
  583MOL0     H78700   7.141  11.434  10.412 -0.1517 -0.6637 -1.7329
  583MOL0     H78701   7.091  11.245  10.270  0.9020  1.0072  0.3633
  583MOL0     H78702   7.046  11.399  10.205 -1.7064  0.9250 -0.2422
  583MOL0     H78703   6.661  11.193  10.282  1.5268 -3.6662 -3.0315
  583MOL0     H78704   7.201  11.430  10.690  2.7215 -0.5181  1.6677
  583MOL0     H78705   7.261  11.275  10.871  0.6589  2.2414 -4.6347
  584MOL0     O78706   9.487   8.780   4.326 -0.8570 -0.7223 -0.3476
  584MOL0     C78707   9.454   8.846   4.429  0.8505  0.6595  0.3455
  584MOL0     O78708   9.368   8.951   4.439  0.1216 -0.5145  1.0097
  584MOL0     C78709   9.264   8.948   4.344  0.4447 -1.0018 -0.9129
  584MOL0     C78710   9.251   9.071   4.276 -0.4448 -1.0329  0.4671
  584MOL0     C78711   9.150   9.093   4.179 -0.5296  0.1386  1.1616
  584MOL0     C78712   9.067   8.986   4.148 -0.6524 -0.0620 -0.2938
  584MOL0     O78713   8.973   9.001   4.041  0.1331 -0.1827 -0.4978
  584MOL0     C78714   8.846   8.932   4.041 -0.6337 -0.6789 -0.0845
  584MOL0     C78715   8.846   8.806   3.954 -1.4141  0.8530 -0.0800
  584MOL0     C78716   8.705   8.780   3.887 -0.9161  1.0985 -0.4974
  584MOL0     C78717   8.703   8.668   3.773 -0.8119  0.1479 -0.2614
  584MOL0     C78718   8.576   8.643   3.691  0.3267  0.2603 -1.0096
  584MOL0     C78719   8.613   8.553   3.577 -0.0766  0.1308 -0.1446
  584MOL0     C78720   8.493   8.503   3.486 -0.1908  0.0662  0.0442
  584MOL0     C78721   8.409   8.609   3.425  1.5268  0.1335  0.0371
  584MOL0     N78722   8.464   8.677   3.310  0.6841 -0.2137 -0.5012
  584MOL0     C78723   8.539   8.621   3.217  0.0892 -0.2908 -0.5404
  584MOL0     C78724   8.572   8.720   3.130 -0.1586 -0.1489  1.3636
  584MOL0     C78725   8.652   8.708   3.004 -0.4020  0.1327  0.0525
  584MOL0     C78726   8.750   8.823   2.966 -0.7644  0.0675 -0.1776
  584MOL0     C78727   8.686   8.933   2.889  0.4084  0.0870 -0.2873
  584MOL0     C78728   8.769   9.064   2.896  0.3846 -0.3986 -0.6800
  584MOL0     O78729   8.741   9.141   3.019 -0.2758  1.2237  0.6478
  584MOL0     C78730   8.615   9.195   3.040 -0.4951 -0.1337 -0.7794
  584MOL0     C78731   8.506   9.202   2.946 -0.1172  0.5400  0.2658
  584MOL0     C78732   8.383   9.259   2.981  0.2923 -0.9734  0.9332
  584MOL0     C78733   8.273   9.255   2.886 -0.4565  0.0248  0.3242
  584MOL0     C78734   8.356   9.313   3.106  0.0470  0.7943 -1.2140
  584MOL0     C78735   8.219   9.360   3.149  0.5527 -0.1643 -0.2661
  584MOL0     O78736   8.219   9.464   3.232 -0.4417 -0.7700 -0.0999
  584MOL0     C78737   8.133   9.475   3.336  0.6398  0.3584  0.3640
  584MOL0     C78738   8.109   9.600   3.395 -0.2608 -1.0785  0.2317
  584MOL0     C78739   8.014   9.615   3.491 -0.1805  0.0537  0.4143
  584MOL0     C78740   7.949   9.507   3.556 -0.7862 -0.7636  1.1317
  584MOL0     O78741   7.854   9.535   3.640 -0.1362 -0.3473  0.2252
  584MOL0     C78742   7.765   9.436   3.707 -0.0653  0.2098 -0.2179
  584MOL0     C78743   7.658   9.513   3.782  0.5618 -0.7730 -0.1496
  584MOL0     C78744   7.546   9.564   3.684 -0.5434 -0.3187 -1.0459
  584MOL0     C78745   7.434   9.637   3.756 -0.2013 -0.1177  0.5212
  584MOL0     C78746   7.314   9.649   3.660 -0.3110  0.7359  0.1870
  584MOL0     C78747   7.183   9.722   3.713  0.4616 -0.6319  0.5386
  584MOL0     C78748   7.117   9.661   3.840 -0.1467  0.1134  0.8398
  584MOL0     C78749   7.022   9.774   3.896 -0.4571 -0.0402 -0.5092
  584MOL0    Cl78750   6.901   9.800   3.763 -0.3269  0.8909  0.1570
  584MOL0     C78751   7.973   9.378   3.509  0.3186 -0.5012 -0.2906
  584MOL0     C78752   8.059   9.361   3.395 -0.2357  0.2016 -0.0782
  584MOL0     O78753   8.119   9.295   3.122  0.8784  0.3638 -0.0006
  584MOL0     C78754   8.461   9.303   3.201  0.0709  0.4033 -0.0420
  584MOL0     C78755   8.587   9.249   3.168 -0.3392 -0.0240  0.7363
  584MOL0     N78756   8.529   8.837   3.179  0.1508  0.0741 -0.0775
  584MOL0     N78757   8.461   8.816   3.291 -0.2718  0.8629  0.3022
  584MOL0     C78758   9.079   8.864   4.220 -0.1220  0.5704 -0.4943
  584MOL0     C78759   9.175   8.846   4.318 -0.4216 -0.2872 -0.1518
  584MOL0     C78760   9.500   8.794   4.554 -0.2509 -0.3796  0.2207
  584MOL0     C78761   9.548   8.663   4.561 -0.0506  1.1344  0.4875
  584MOL0     C78762   9.578   8.607   4.690 -0.7450 -0.8761 -0.7141
  584MOL0     C78763   9.577   8.686   4.806 -0.3108 -1.0853 -0.4412
  584MOL0     O78764   9.609   8.641   4.932  0.0231  0.1187 -0.2920
  584MOL0     C78765   9.600   8.503   4.957 -0.0493 -0.4936  0.8162
  584MOL0     C78766   9.652   8.470   5.098  0.5393  0.0609 -0.3210
  584MOL0     C78767   9.670   8.321   5.125  0.5635  0.8092 -0.1421
  584MOL0     C78768   9.540   8.237   5.096 -0.0428 -1.5267  0.6696
  584MOL0     C78769   9.576   8.104   5.059  0.2404  1.3274  0.0191
  584MOL0     C78770   9.589   7.980   5.042  0.1720  0.0409  1.0428
  584MOL0     C78771   9.529   8.822   4.797  0.2127 -0.2611 -0.7084
  584MOL0     C78772   9.496   8.873   4.674 -0.1175 -0.2125 -0.7007
  584MOL0     H78773   9.315   9.148   4.318 -1.4925 -0.8750  1.8630
  584MOL0     H78774   9.136   9.190   4.132  0.9921 -0.0591  0.2186
  584MOL0     H78775   8.799   8.913   4.138 -2.4111 -3.4044 -1.3557
  584MOL0     H78776   8.779   8.998   3.986  1.2991  0.5542 -1.0498
  584MOL0     H78777   8.929   8.801   3.883 -1.7307 -1.3864 -0.3752
  584MOL0     H78778   8.870   8.722   4.019 -1.1488  1.0748  0.1085
  584MOL0     H78779   8.628   8.751   3.959  0.5191 -0.1392  0.6098
  584MOL0     H78780   8.669   8.870   3.836 -0.4845  1.4244 -0.2400
  584MOL0     H78781   8.772   8.701   3.695  0.3678  0.7420  1.0018
  584MOL0     H78782   8.738   8.568   3.796 -0.4399 -0.4862 -3.1589
  584MOL0     H78783   8.496   8.602   3.752 -0.6714  2.3952 -0.8024
  584MOL0     H78784   8.546   8.743   3.660  1.4647  1.3893  1.3270
  584MOL0     H78785   8.683   8.598   3.506  1.3943 -1.0140  0.5200
  584MOL0     H78786   8.661   8.459   3.608 -1.8944 -0.2211  1.8588
  584MOL0     H78787   8.532   8.443   3.404 -2.4957 -1.6577  0.0845
  584MOL0     H78788   8.442   8.431   3.551  2.3231 -1.9309 -0.0592
  584MOL0     H78789   8.412   8.686   3.502  0.4780  0.0288  0.1940
  584MOL0     H78790   8.310   8.569   3.403  1.4813 -0.5340  1.3813
  584MOL0     H78791   8.548   8.513   3.210 -4.0138 -1.0553  2.2225
  584MOL0     H78792   8.719   8.622   3.004 -0.4482  0.0683  1.4774
  584MOL0     H78793   8.590   8.708   2.914  1.4996  3.6220 -1.4406
  584MOL0     H78794   8.832   8.791   2.902 -0.2399 -0.0705  0.5537
  584MOL0     H78795   8.802   8.853   3.058 -1.2612  0.6333 -0.0752
  584MOL0     H78796   8.583   8.942   2.926  1.2894  0.3990  2.2965
  584MOL0     H78797   8.671   8.899   2.786  0.6884 -2.7610  0.5236
  584MOL0     H78798   8.736   9.119   2.808 -0.1122  1.1408  0.4140
  584MOL0     H78799   8.874   9.043   2.872  0.7259  0.2939  0.1666
  584MOL0     H78800   8.512   9.168   2.844  2.1449  0.5699  0.3407
  584MOL0     H78801   8.192   9.187   2.912 -2.9158  1.2072 -3.5348
  584MOL0     H78802   8.219   9.348   2.867 -1.2243 -1.0684 -3.7990
  584MOL0     H78803   8.320   9.226   2.792 -0.5688  1.9641 -0.3656
  584MOL0     H78804   8.152   9.682   3.338 -1.3734 -1.3308 -1.0024
  584MOL0     H78805   7.990   9.711   3.535 -1.2319 -0.1811  0.3859
  584MOL0     H78806   7.717   9.368   3.636 -0.9920  0.2326  0.3604
  584MOL0     H78807   7.820   9.376   3.780  1.6299 -1.1569 -2.4864
  584MOL0     H78808   7.605   9.442   3.846 -0.0884 -2.2181 -2.1928
  584MOL0     H78809   7.702   9.596   3.838 -1.3959 -0.4609  1.0150
  584MOL0     H78810   7.490   9.479   3.645 -3.0303  0.4060  0.6758
  584MOL0     H78811   7.592   9.627   3.607  1.5623  1.6756  1.6604
  584MOL0     H78812   7.392   9.580   3.839 -1.7807 -0.1266 -0.2510
  584MOL0     H78813   7.460   9.734   3.801 -1.4343 -0.0353  1.0853
  584MOL0     H78814   7.282   9.545   3.655  3.1801 -0.4951  0.2516
  584MOL0     H78815   7.342   9.680   3.559  1.2462  0.2177  0.4231
  584MOL0     H78816   7.211   9.825   3.737 -2.6202  0.3441  0.4767
  584MOL0     H78817   7.121   9.732   3.624  0.3315  1.6564  0.8226
  584MOL0     H78818   7.188   9.621   3.912 -2.2096 -1.9069  1.8860
  584MOL0     H78819   7.057   9.580   3.797  1.4928  0.3788 -2.2404
  584MOL0     H78820   7.088   9.859   3.919  1.3983 -1.2146 -1.2415
  584MOL0     H78821   6.972   9.739   3.986 -0.6376 -0.0331 -0.6060
  584MOL0     H78822   7.922   9.292   3.551  0.1879 -0.5282 -0.5022
  584MOL0     H78823   8.055   9.258   3.364 -3.7614 -0.6615  2.6618
  584MOL0     H78824   8.448   9.338   3.303  1.4089 -2.7023  1.3408
  584MOL0     H78825   8.665   9.256   3.243  0.4636  1.1461 -0.1665
  584MOL0     H78826   9.006   8.787   4.196  1.3968 -1.1925  0.3020
  584MOL0     H78827   9.181   8.755   4.376 -1.3653 -1.0244 -1.1731
  584MOL0     H78828   9.540   8.590   4.481 -1.2755 -1.6419  2.9551
  584MOL0     H78829   9.598   8.501   4.697  0.5305 -0.7222 -1.7297
  584MOL0     H78830   9.497   8.474   4.933  0.2044 -1.0000  0.3140
  584MOL0     H78831   9.664   8.451   4.885 -0.6061 -1.3387  0.9079
  584MOL0     H78832   9.585   8.516   5.171  0.4926  0.2688 -0.4967
  584MOL0     H78833   9.747   8.523   5.108 -0.6269  1.9002  2.0256
  584MOL0     H78834   9.685   8.314   5.233  2.0657  1.0821 -0.3124
  584MOL0     H78835   9.757   8.285   5.069  2.5919  2.7885  1.5728
  584MOL0     H78836   9.489   8.279   5.009 -0.8246  0.3329  1.9548
  584MOL0     H78837   9.462   8.242   5.172 -0.4001  3.7008  0.3217
  584MOL0     H78838   9.615   7.879   5.020  1.4868  0.4834  0.4501
  584MOL0     H78839   9.538   8.886   4.884  2.2057  0.9971 -1.7628
  584MOL0     H78840   9.458   8.975   4.668  1.5570  0.5043  0.2951
  585MOL0     O78841   8.017   1.370   2.963  0.1213 -0.8858  0.5157
  585MOL0     C78842   7.898   1.388   2.995 -0.1597  1.0883 -0.5321
  585MOL0     O78843   7.809   1.474   2.937 -0.2505  0.3159  0.0535
  585MOL0     C78844   7.869   1.565   2.856  0.4356  0.2076 -0.4368
  585MOL0     C78845   7.889   1.691   2.908  0.2440 -0.7088 -0.4135
  585MOL0     C78846   7.929   1.796   2.822 -0.3403 -0.2429  0.0744
  585MOL0     C78847   7.964   1.768   2.685  0.4524 -0.8255  0.1623
  585MOL0     O78848   8.010   1.871   2.598 -0.1547  0.3012 -0.1616
  585MOL0     C78849   8.095   1.974   2.654 -0.7979  0.4726 -0.0611
  585MOL0     C78850   8.166   2.059   2.549 -1.1410 -0.7819  0.0185
  585MOL0     C78851   8.241   2.177   2.613  0.3644  0.1062  0.1320
  585MOL0     C78852   8.268   2.286   2.519 -0.1246  0.4793 -0.0549
  585MOL0     C78853   8.324   2.414   2.583  0.3725 -0.3570  1.1942
  585MOL0     C78854   8.448   2.388   2.676  0.8717  0.1098 -0.4678
  585MOL0     C78855   8.566   2.309   2.613  0.4113 -0.5190 -0.2796
  585MOL0     C78856   8.698   2.341   2.689  0.3109  0.7755 -0.9719
  585MOL0     N78857   8.748   2.480   2.661  0.3607 -0.2889 -0.1115
  585MOL0     C78858   8.778   2.533   2.537 -0.2588 -0.3267 -0.4758
  585MOL0     C78859   8.795   2.672   2.565  0.0754  0.0328 -0.8771
  585MOL0     C78860   8.827   2.793   2.484  0.2472  0.1597  0.7940
  585MOL0     C78861   8.703   2.839   2.412 -0.1549 -0.6180  0.3256
  585MOL0     C78862   8.665   2.740   2.303 -0.7441 -1.9567 -0.0890
  585MOL0     C78863   8.539   2.772   2.232  0.5935 -0.6102 -0.6994
  585MOL0     O78864   8.512   2.685   2.114  0.5519 -0.1169  1.1730
  585MOL0     C78865   8.375   2.650   2.094 -0.0040  0.3762 -1.6441
  585MOL0     C78866   8.331   2.519   2.101  1.0919 -0.0519 -0.5047
  585MOL0     C78867   8.196   2.493   2.080 -0.1453 -0.1911  0.9326
  585MOL0     C78868   8.160   2.356   2.062 -0.7257  0.5506  0.7974
  585MOL0     C78869   8.102   2.593   2.074 -0.2437 -0.1190  0.0369
  585MOL0     C78870   7.952   2.586   2.059 -0.5212  0.1429 -0.7728
  585MOL0     O78871   7.905   2.462   2.046 -0.3157  0.3475 -0.1627
  585MOL0     C78872   7.773   2.451   2.025  0.7851  0.2128  0.1345
  585MOL0     C78873   7.739   2.354   1.928  0.3233 -0.2076 -0.1908
  585MOL0     C78874   7.598   2.338   1.893  0.9943  0.4611 -0.3165
  585MOL0     C78875   7.500   2.406   1.960  0.3911  0.3806 -0.2513
  585MOL0     O78876   7.373   2.385   1.913  0.1997  0.5806  0.0989
  585MOL0     C78877   7.259   2.468   1.956 -0.4683 -0.5097  0.1475
  585MOL0     C78878   7.257   2.614   1.902  0.7070  0.7579 -0.3150
  585MOL0     C78879   7.139   2.701   1.962  1.0588 -0.5417  0.6670
  585MOL0     C78880   7.185   2.807   2.065 -0.3249  0.0805 -0.0730
  585MOL0     C78881   7.079   2.860   2.155  1.0341 -1.1491  0.1951
  585MOL0     C78882   7.011   2.985   2.095 -0.0330 -0.2003  0.2503
  585MOL0     C78883   6.892   3.029   2.165  0.5732 -0.3579 -0.3499
  585MOL0     C78884   6.877   3.180   2.156 -0.9837 -0.1290 -0.3375
  585MOL0    Cl78885   7.008   3.280   2.233  0.2735  0.2496  0.2914
  585MOL0     C78886   7.536   2.495   2.066 -0.7413  0.5637  0.9301
  585MOL0     C78887   7.672   2.513   2.099  0.4844  0.6549 -0.6133
  585MOL0     O78888   7.890   2.694   2.040 -0.8002  0.2139 -0.2643
  585MOL0     C78889   8.154   2.724   2.079 -0.1546  0.1113 -0.1792
  585MOL0     C78890   8.284   2.747   2.096  0.1128  0.4297  0.1598
  585MOL0     N78891   8.781   2.689   2.700 -0.7202  0.3473  0.0255
  585MOL0     N78892   8.743   2.571   2.757 -0.5594 -0.5633  0.2701
  585MOL0     C78893   7.952   1.639   2.635  0.1531 -0.8472  0.5380
  585MOL0     C78894   7.905   1.539   2.722  0.4590 -0.4696 -0.0486
  585MOL0     C78895   7.842   1.302   3.108  1.1162 -0.1049  0.8226
  585MOL0     C78896   7.701   1.312   3.140  0.2858 -0.3174  0.2550
  585MOL0     C78897   7.646   1.223   3.234  0.8687 -1.0925  0.7266
  585MOL0     C78898   7.706   1.119   3.296  0.2799 -0.0955  0.1754
  585MOL0     O78899   7.636   1.039   3.385  0.4939  0.0784  0.3603
  585MOL0     C78900   7.720   0.993   3.502  0.1103  0.2005  0.0241
  585MOL0     C78901   7.624   0.924   3.591  0.0543  0.0752  0.3683
  585MOL0     C78902   7.676   0.870   3.724  0.1085  0.0882  0.1096
  585MOL0     C78903   7.557   0.829   3.811  0.0191  0.2941  0.4261
  585MOL0     C78904   7.607   0.750   3.934  0.3147  0.9176  0.1578
  585MOL0     C78905   7.639   0.670   4.014 -0.7944  0.3333  0.1343
  585MOL0     C78906   7.841   1.114   3.270 -0.5047  0.4709  0.7736
  585MOL0     C78907   7.907   1.205   3.179  0.3493 -0.1317 -0.0804
  585MOL0     H78908   7.871   1.708   3.014 -2.1470 -3.6059 -0.2322
  585MOL0     H78909   7.917   1.897   2.860  0.1355 -0.8448  1.9653
  585MOL0     H78910   8.040   2.044   2.717  1.1392  0.4039  1.8228
  585MOL0     H78911   8.166   1.917   2.715 -1.8609 -1.2373 -0.3381
  585MOL0     H78912   8.230   1.994   2.488 -2.7047 -1.7783 -0.6387
  585MOL0     H78913   8.091   2.097   2.479  1.8859  4.8164 -0.7708
  585MOL0     H78914   8.170   2.217   2.686 -0.5762 -1.0122 -0.1294
  585MOL0     H78915   8.339   2.158   2.659 -0.0817  0.4120  1.2452
  585MOL0     H78916   8.338   2.253   2.441 -0.2388  0.4161 -0.1312
  585MOL0     H78917   8.171   2.312   2.476 -0.2277  1.4484  0.7237
  585MOL0     H78918   8.356   2.476   2.498 -2.1848  1.3118  1.3200
  585MOL0     H78919   8.240   2.477   2.616 -0.6310  0.6136 -2.6412
  585MOL0     H78920   8.483   2.489   2.697  1.8129 -0.3508  0.2666
  585MOL0     H78921   8.416   2.351   2.774  0.3564  3.7206  0.8648
  585MOL0     H78922   8.554   2.201   2.627 -3.2463  0.1070  3.2366
  585MOL0     H78923   8.572   2.339   2.508 -3.7048  1.5040 -0.1505
  585MOL0     H78924   8.775   2.265   2.672  0.0527  0.0358  0.8675
  585MOL0     H78925   8.671   2.323   2.794  1.0137 -0.5057 -0.9840
  585MOL0     H78926   8.795   2.470   2.450  0.9953 -2.7499  1.4057
  585MOL0     H78927   8.866   2.876   2.544  0.5074  2.8856 -2.8114
  585MOL0     H78928   8.902   2.755   2.414 -0.8862 -1.9178  0.6476
  585MOL0     H78929   8.729   2.935   2.367 -0.4992 -1.3582 -1.5799
  585MOL0     H78930   8.622   2.867   2.481  0.9715  1.4767  0.8648
  585MOL0     H78931   8.651   2.645   2.355  0.7889 -1.7907  0.6826
  585MOL0     H78932   8.744   2.731   2.228 -1.2990 -1.1023 -0.8019
  585MOL0     H78933   8.533   2.878   2.208  0.5792  0.3537  3.0152
  585MOL0     H78934   8.466   2.751   2.311  1.4712 -1.3370 -0.0539
  585MOL0     H78935   8.402   2.439   2.119  1.0813 -0.1417 -0.8520
  585MOL0     H78936   8.080   2.340   2.135  0.0344  1.4096  1.8523
  585MOL0     H78937   8.114   2.335   1.965 -0.5713 -1.8719  1.1856
  585MOL0     H78938   8.245   2.289   2.079 -2.5366 -1.9856  0.4231
  585MOL0     H78939   7.820   2.298   1.884 -0.5512  0.2576 -2.5177
  585MOL0     H78940   7.573   2.273   1.810  1.4217  1.0147 -0.8840
  585MOL0     H78941   7.167   2.425   1.917  1.5939 -5.2509 -0.1144
  585MOL0     H78942   7.236   2.467   2.062 -1.4438 -1.2980 -0.0607
  585MOL0     H78943   7.346   2.674   1.923  1.6524 -0.4659 -0.7324
  585MOL0     H78944   7.245   2.618   1.793  1.1208  0.4023 -0.3739
  585MOL0     H78945   7.069   2.633   2.011 -0.2170 -0.4511 -0.9174
  585MOL0     H78946   7.079   2.752   1.885 -1.9491 -3.3607  0.9061
  585MOL0     H78947   7.255   2.743   2.119 -0.1834 -0.7379 -1.1950
  585MOL0     H78948   7.245   2.881   2.012 -1.2278 -1.5751 -3.6946
  585MOL0     H78949   7.125   2.891   2.250  1.4091 -0.7684 -0.1071
  585MOL0     H78950   7.002   2.784   2.168 -1.2373  1.0607  0.5384
  585MOL0     H78951   7.094   3.056   2.085  1.2339 -1.8304 -1.3489
  585MOL0     H78952   6.986   2.957   1.993  0.9895 -1.1830  0.2513
  585MOL0     H78953   6.881   2.991   2.266 -3.7243  1.4433  0.0894
  585MOL0     H78954   6.805   2.993   2.109  0.5813 -1.4426  0.3262
  585MOL0     H78955   6.789   3.215   2.210 -2.1153 -0.3966 -1.9444
  585MOL0     H78956   6.883   3.208   2.050  1.4808  1.2924  0.0879
  585MOL0     H78957   7.464   2.557   2.118  2.5167  5.0104  0.7193
  585MOL0     H78958   7.695   2.595   2.166  1.2753 -0.1598  0.1288
  585MOL0     H78959   8.088   2.809   2.091  0.4605  0.4696  0.8486
  585MOL0     H78960   8.319   2.849   2.104  2.0583 -0.2418  0.8550
  585MOL0     H78961   7.972   1.623   2.529  0.3621 -0.6308  0.5428
  585MOL0     H78962   7.875   1.441   2.687 -1.0186 -0.3995  0.9495
  585MOL0     H78963   7.639   1.392   3.102 -1.0397 -0.4730  1.9534
  585MOL0     H78964   7.545   1.250   3.263  0.6948  0.8065 -1.3664
  585MOL0     H78965   7.798   0.922   3.471 -2.2297 -1.8950 -1.4443
  585MOL0     H78966   7.764   1.080   3.553  3.9808 -2.2016  1.2604
  585MOL0     H78967   7.587   0.833   3.544  3.9029 -1.7941  0.5915
  585MOL0     H78968   7.539   0.985   3.623 -0.2688 -1.1609  1.9943
  585MOL0     H78969   7.737   0.938   3.785  0.2354 -1.1081  1.3737
  585MOL0     H78970   7.748   0.789   3.706  0.5538  0.1811  1.3876
  585MOL0     H78971   7.473   0.780   3.761 -0.6858  0.6309  1.2482
  585MOL0     H78972   7.510   0.920   3.847 -1.5180  0.8193 -2.5874
  585MOL0     H78973   7.680   0.610   4.092  1.0792  1.9898  0.5117
  585MOL0     H78974   7.901   1.030   3.303  1.9102  1.9406  0.3430
  585MOL0     H78975   8.013   1.190   3.162  0.5365  1.8318 -0.9450
  586MOL0     O78976   8.503   7.084   8.639  0.2732 -0.2446  0.1740
  586MOL0     C78977   8.603   7.141   8.699 -0.1917 -0.0229  0.1774
  586MOL0     O78978   8.601   7.259   8.775  0.1720 -0.1857 -0.2634
  586MOL0     C78979   8.480   7.314   8.800  0.2724  0.8576 -0.7758
  586MOL0     C78980   8.390   7.337   8.698  0.3576 -0.2460 -0.2068
  586MOL0     C78981   8.275   7.411   8.719 -0.5990 -0.2305 -0.1343
  586MOL0     C78982   8.258   7.472   8.844 -0.7752 -0.3665  0.0892
  586MOL0     O78983   8.153   7.559   8.860 -0.1547 -0.1316  0.5956
  586MOL0     C78984   8.062   7.550   8.970  0.6132  0.3298 -0.5983
  586MOL0     C78985   7.975   7.423   8.958  0.2165 -0.4640  0.4218
  586MOL0     C78986   7.869   7.447   8.848 -0.0711  0.4210 -0.2066
  586MOL0     C78987   7.766   7.324   8.858  0.7878  0.5997 -0.2156
  586MOL0     C78988   7.656   7.349   8.742 -0.1024 -0.2655 -0.9146
  586MOL0     C78989   7.550   7.233   8.746 -0.8000 -0.4431 -1.4102
  586MOL0     C78990   7.448   7.260   8.852  0.2907 -0.2367  0.0153
  586MOL0     C78991   7.361   7.137   8.879 -0.7312 -0.8185 -0.0389
  586MOL0     N78992   7.267   7.151   8.988  1.2132 -0.7986 -0.1067
  586MOL0     C78993   7.302   7.218   9.096  0.7963  0.9153 -0.5523
  586MOL0     C78994   7.197   7.203   9.185  0.1379 -0.1779  0.9496
  586MOL0     C78995   7.192   7.262   9.325 -0.5341 -0.0391  0.0255
  586MOL0     C78996   7.183   7.147   9.434 -0.3554  1.6614 -0.0568
  586MOL0     C78997   7.111   7.194   9.566  0.2470  0.3565 -0.0887
  586MOL0     C78998   7.061   7.061   9.632 -0.5474  0.1806 -0.8196
  586MOL0     O78999   7.030   7.079   9.772 -0.4474 -0.4087 -0.3773
  586MOL0     C79000   6.948   7.176   9.820  0.3424 -0.6406 -0.6563
  586MOL0     C79001   6.957   7.208   9.955 -0.1067  0.5369  0.3209
  586MOL0     C79002   6.881   7.302  10.015  0.9206  0.7523 -0.0996
  586MOL0     C79003   6.926   7.331  10.153  0.1790 -0.2539 -0.1469
  586MOL0     C79004   6.788   7.367   9.940 -1.2584 -0.4164  0.1308
  586MOL0     C79005   6.697   7.470  10.000 -1.0741  0.3466  0.1545
  586MOL0     O79006   6.673   7.576   9.926  0.3246  0.6978  0.9145
  586MOL0     C79007   6.635   7.688   9.982  0.0095 -0.5122  0.8121
  586MOL0     C79008   6.720   7.750  10.080  1.0366 -0.3019 -0.5477
  586MOL0     C79009   6.673   7.874  10.136 -0.3326 -0.4558  0.5509
  586MOL0     C79010   6.553   7.932  10.090 -0.8623 -0.1593  0.5196
  586MOL0     O79011   6.505   8.051  10.135 -0.2864  0.3741 -0.7943
  586MOL0     C79012   6.547   8.093  10.273 -0.3775  0.1019 -0.2648
  586MOL0     C79013   6.453   8.205  10.301  0.7982 -0.4482 -0.9456
  586MOL0     C79014   6.448   8.232  10.455  0.2869 -0.1032 -0.0783
  586MOL0     C79015   6.334   8.333  10.493  0.4462  0.5381 -0.8033
  586MOL0     C79016   6.362   8.371  10.635 -0.3414  0.1330  0.0962
  586MOL0     C79017   6.280   8.500  10.663 -0.7854 -0.7834  0.8076
  586MOL0     C79018   6.126   8.487  10.646 -0.0748 -0.9329  0.0249
  586MOL0     C79019   6.068   8.398  10.752  0.1877 -0.8584 -0.2820
  586MOL0    Cl79020   5.896   8.382  10.726  0.2778 -0.1863  0.0845
  586MOL0     C79021   6.483   7.874   9.979 -1.0189 -0.4861  0.6989
  586MOL0     C79022   6.525   7.759   9.916 -0.2612 -0.3154  0.9076
  586MOL0     O79023   6.665   7.450  10.114  0.1286 -0.6005  0.5145
  586MOL0     C79024   6.764   7.335   9.804  0.4440 -0.0095  0.4826
  586MOL0     C79025   6.850   7.243   9.744 -0.0281 -0.0775 -0.0396
  586MOL0     N79026   7.091   7.136   9.124  0.1065  0.2375  0.5918
  586MOL0     N79027   7.139   7.101   9.006  0.4828 -0.5018  0.2802
  586MOL0     C79028   8.351   7.456   8.953 -0.4218  0.4401  0.0957
  586MOL0     C79029   8.463   7.376   8.923  1.0698  0.0130  0.4743
  586MOL0     C79030   8.728   7.078   8.692 -0.1946  0.3705  0.3474
  586MOL0     C79031   8.842   7.123   8.760  0.1793 -0.7999 -0.1305
  586MOL0     C79032   8.965   7.055   8.763  0.8958 -0.0617 -0.3736
  586MOL0     C79033   8.982   6.941   8.694  0.9775 -0.1877  0.2867
  586MOL0     O79034   9.100   6.873   8.719  0.4062 -0.0014  0.5972
  586MOL0     C79035   9.154   6.789   8.618 -0.0037  0.2512 -0.2077
  586MOL0     C79036   9.190   6.862   8.485 -0.0089  0.1627  0.5434
  586MOL0     C79037   9.336   6.904   8.491  0.1080 -0.4934  0.0756
  586MOL0     C79038   9.368   7.009   8.379  0.7302 -0.4805  0.5232
  586MOL0     C79039   9.513   7.037   8.380  0.6287  0.2881 -0.2054
  586MOL0     C79040   9.631   7.064   8.376 -0.4499  0.3212 -0.1864
  586MOL0     C79041   8.873   6.886   8.617  0.5055 -0.3116  0.0323
  586MOL0     C79042   8.750   6.954   8.622  1.1331 -0.2706 -0.9582
  586MOL0     H79043   8.399   7.285   8.603  3.1391 -0.5647  0.1443
  586MOL0     H79044   8.205   7.420   8.637 -1.3110 -0.4495  0.4384
  586MOL0     H79045   8.124   7.553   9.060  0.3528  2.4555 -0.4466
  586MOL0     H79046   7.987   7.629   8.969 -1.8653 -1.8546 -0.1936
  586MOL0     H79047   8.018   7.324   8.945 -0.2800 -0.4288 -2.0430
  586MOL0     H79048   7.931   7.415   9.058  0.4532  1.9185  0.7750
  586MOL0     H79049   7.820   7.541   8.875  1.0468  0.8480  0.4083
  586MOL0     H79050   7.900   7.462   8.745 -1.1137 -1.3680 -0.8220
  586MOL0     H79051   7.816   7.229   8.840  1.4270  0.8884  0.0414
  586MOL0     H79052   7.725   7.319   8.959 -3.0091  1.8418 -1.4790
  586MOL0     H79053   7.597   7.437   8.768  1.0757  0.5862 -1.0035
  586MOL0     H79054   7.689   7.378   8.642 -2.8309 -1.4821 -2.2778
  586MOL0     H79055   7.506   7.239   8.646 -1.7766  0.1486 -0.9636
  586MOL0     H79056   7.593   7.133   8.758 -1.3488 -0.5439 -0.0918
  586MOL0     H79057   7.507   7.288   8.939 -2.6679 -3.9288  3.5774
  586MOL0     H79058   7.386   7.340   8.808 -0.1320 -0.1018  0.8333
  586MOL0     H79059   7.417   7.050   8.914 -3.1326 -2.1725  0.6989
  586MOL0     H79060   7.316   7.102   8.786 -0.3574 -2.9717  0.5305
  586MOL0     H79061   7.396   7.266   9.121  0.7514 -0.1470  1.9765
  586MOL0     H79062   7.282   7.321   9.342 -0.2825  0.2870 -2.0879
  586MOL0     H79063   7.113   7.337   9.333 -1.8427 -1.4923  1.4512
  586MOL0     H79064   7.278   7.099   9.460 -1.2874  1.7644  4.5353
  586MOL0     H79065   7.125   7.066   9.390  1.8538  0.3082 -0.6285
  586MOL0     H79066   7.021   7.253   9.545 -0.2129 -0.3897 -0.2679
  586MOL0     H79067   7.178   7.242   9.637  0.8558 -1.8763  0.9376
  586MOL0     H79068   7.150   6.998   9.623 -1.2545 -0.6603 -2.4151
  586MOL0     H79069   6.978   7.010   9.583 -0.1041 -2.0635  0.6039
  586MOL0     H79070   7.036   7.160  10.012 -0.6627  0.0437  0.6901
  586MOL0     H79071   6.966   7.431  10.175 -1.7919  0.5167  0.1512
  586MOL0     H79072   6.842   7.329  10.223 -0.4215  1.9655 -0.7063
  586MOL0     H79073   6.991   7.249  10.185 -4.0698 -3.8503  0.2061
  586MOL0     H79074   6.805   7.702  10.126  1.9973  2.2237  0.4808
  586MOL0     H79075   6.732   7.927  10.210 -0.7031 -0.7661  1.0754
  586MOL0     H79076   6.532   7.999  10.327  1.9585 -0.8023 -1.0541
  586MOL0     H79077   6.653   8.120  10.278 -0.9469  2.9817 -1.9052
  586MOL0     H79078   6.485   8.301  10.259 -0.2216 -0.7022 -2.4231
  586MOL0     H79079   6.351   8.185  10.266 -0.6933 -0.9865  3.1865
  586MOL0     H79080   6.552   8.257  10.480  0.4408 -2.5533  2.1143
  586MOL0     H79081   6.426   8.137  10.504  0.7195 -1.5406 -2.4770
  586MOL0     H79082   6.348   8.417  10.424  0.7529  0.7504 -0.4924
  586MOL0     H79083   6.236   8.287  10.480 -0.1608  2.1503 -2.4241
  586MOL0     H79084   6.470   8.386  10.646 -0.0896 -0.4624 -1.3651
  586MOL0     H79085   6.345   8.291  10.707  0.9708 -0.6308 -0.3993
  586MOL0     H79086   6.310   8.541  10.760  0.1568  0.5065 -0.0065
  586MOL0     H79087   6.309   8.574  10.588 -0.0646 -0.7201  1.1416
  586MOL0     H79088   6.109   8.451  10.544  0.0131 -0.1391 -0.2836
  586MOL0     H79089   6.080   8.585  10.667 -0.9781 -1.5903  1.2489
  586MOL0     H79090   6.086   8.439  10.851  1.4982 -3.4912  0.6945
  586MOL0     H79091   6.109   8.296  10.751  0.4103 -0.7772  0.1664
  586MOL0     H79092   6.405   7.937   9.939  2.3692  3.9892  0.2632
  586MOL0     H79093   6.470   7.715   9.834 -1.0025 -1.7483  2.1192
  586MOL0     H79094   6.677   7.385   9.764  0.1342 -0.5991  0.4063
  586MOL0     H79095   6.848   7.198   9.645 -0.0004  4.3692 -2.3069
  586MOL0     H79096   8.331   7.485   9.056  0.3500  1.5307 -0.0435
  586MOL0     H79097   8.540   7.383   8.999  0.8472 -0.2683  0.7319
  586MOL0     H79098   8.838   7.214   8.818  0.2848 -2.8818  3.4206
  586MOL0     H79099   9.034   7.092   8.839  1.5786 -1.7388 -0.1379
  586MOL0     H79100   9.251   6.752   8.652  0.5887 -0.4333 -2.4687
  586MOL0     H79101   9.094   6.699   8.605  3.2689 -1.9573 -1.1702
  586MOL0     H79102   9.119   6.945   8.476  1.3812  1.2373 -1.0374
  586MOL0     H79103   9.176   6.800   8.397  0.2527  0.0564  0.5753
  586MOL0     H79104   9.379   6.806   8.469  1.1064 -0.7021  2.6220
  586MOL0     H79105   9.364   6.936   8.591 -2.3424 -1.0356  0.9956
  586MOL0     H79106   9.308   7.101   8.383 -0.7885 -1.3493 -0.7618
  586MOL0     H79107   9.340   6.962   8.284 -2.8451  0.0583  1.1489
  586MOL0     H79108   9.737   7.083   8.376 -0.2747 -0.5940 -0.7540
  586MOL0     H79109   8.879   6.793   8.561 -1.1852  1.1908 -2.8937
  586MOL0     H79110   8.667   6.903   8.575  0.8785 -2.2387  1.4183
  587MOL0     O79111   9.359  11.152  11.174  0.3642 -0.3958 -0.3943
  587MOL0     C79112   9.307  11.071  11.248  0.3025 -0.0533 -0.1123
  587MOL0     O79113   9.172  11.085  11.289 -0.7109  0.7435  0.3100
  587MOL0     C79114   9.099  11.197  11.255  0.2690 -0.4210  0.1504
  587MOL0     C79115   9.069  11.223  11.121  0.0788 -0.3032  0.4703
  587MOL0     C79116   8.995  11.337  11.094  0.6305  0.5229 -0.4199
  587MOL0     C79117   8.953  11.424  11.196 -0.8534  1.1724  0.2261
  587MOL0     O79118   8.882  11.536  11.168  0.4969 -0.1569 -0.2399
  587MOL0     C79119   8.737  11.516  11.183 -0.6284  0.2069 -1.0629
  587MOL0     C79120   8.674  11.652  11.148 -0.0750  0.2255 -0.0983
  587MOL0     C79121   8.686  11.687  10.999 -0.4535  0.5922 -0.3258
  587MOL0     C79122   8.570  11.779  10.952 -0.0588 -0.6423 -0.3323
  587MOL0     C79123   8.592  11.840  10.810  0.4531 -0.4065 -0.4482
  587MOL0     C79124   8.495  11.946  10.775  0.0251  0.8152  0.0267
  587MOL0     C79125   8.502  11.980  10.623  0.4476  0.1774 -0.1549
  587MOL0     C79126   8.452  11.881  10.511 -1.1995 -0.1268  0.1881
  587MOL0     N79127   8.315  11.916  10.486  0.7051 -1.1752  0.4067
  587MOL0     C79128   8.277  12.004  10.383 -0.3951  0.3268 -0.5486
  587MOL0     C79129   8.158  11.959  10.346  0.9245  0.3439  0.9661
  587MOL0     C79130   8.080  12.018  10.232 -0.6949  0.2530  0.4851
  587MOL0     C79131   8.006  11.916  10.145 -0.4402 -0.3123 -0.3899
  587MOL0     C79132   8.085  11.801  10.099  0.8896 -0.7147 -0.6112
  587MOL0     C79133   8.176  11.829   9.974  0.3285 -0.0636 -0.1797
  587MOL0     O79134   8.290  11.906  10.025 -0.2098 -0.3372  0.3119
  587MOL0     C79135   8.392  11.840  10.082 -1.0862  0.1310 -0.2925
  587MOL0     C79136   8.412  11.700  10.105  0.4410 -0.1068 -1.0543
  587MOL0     C79137   8.523  11.647  10.174 -0.0048 -0.0955 -0.0371
  587MOL0     C79138   8.536  11.499  10.204 -0.1746 -0.2149  0.0142
  587MOL0     C79139   8.627  11.746  10.218  0.3635  0.1427 -0.0323
  587MOL0     C79140   8.747  11.705  10.294 -0.2108  0.7038 -0.3965
  587MOL0     O79141   8.793  11.575  10.271 -0.8917  0.0557 -0.2873
  587MOL0     C79142   8.923  11.552  10.289  0.1243  0.6940 -0.8455
  587MOL0     C79143   8.962  11.427  10.338 -0.8281 -0.4878 -0.4952
  587MOL0     C79144   9.097  11.403  10.349 -0.2298  1.3887  1.7643
  587MOL0     C79145   9.197  11.490  10.309  0.6122 -0.1004  0.5271
  587MOL0     O79146   9.318  11.455  10.348 -0.5645 -0.0696  0.0820
  587MOL0     C79147   9.426  11.544  10.366 -1.1026  0.4175 -0.3980
  587MOL0     C79148   9.537  11.488  10.456 -0.0825 -0.3544 -0.2958
  587MOL0     C79149   9.540  11.341  10.463 -0.6335 -0.1709 -1.5832
  587MOL0     C79150   9.689  11.299  10.498  0.6563 -0.6406 -0.4762
  587MOL0     C79151   9.693  11.143  10.480 -0.3482 -0.3096  0.1006
  587MOL0     C79152   9.638  11.074  10.597 -0.4638 -0.4030  0.6379
  587MOL0     C79153   9.752  11.057  10.703 -0.3319  0.1068 -0.5430
  587MOL0     C79154   9.699  11.010  10.846  0.3175 -0.4804 -0.0372
  587MOL0    Cl79155   9.833  10.953  10.951 -0.1389  0.2789  0.7225
  587MOL0     C79156   9.159  11.614  10.258 -0.0462 -0.3593 -0.7783
  587MOL0     C79157   9.021  11.640  10.247 -0.1026  0.6688 -0.6438
  587MOL0     O79158   8.797  11.793  10.363  0.0707  0.7150 -0.1155
  587MOL0     C79159   8.610  11.882  10.194 -1.2548  0.0888 -0.4700
  587MOL0     C79160   8.501  11.923  10.123  0.4759  0.3496  0.3909
  587MOL0     N79161   8.122  11.855  10.427  0.7701  0.2789  0.1047
  587MOL0     N79162   8.211  11.830  10.502  0.2901 -0.9344 -0.3910
  587MOL0     C79163   8.989  11.404  11.326  0.7386 -0.2707 -0.0281
  587MOL0     C79164   9.067  11.292  11.357 -0.2906  0.3520 -0.1526
  587MOL0     C79165   9.368  10.950  11.304  1.2453 -0.7272  1.0110
  587MOL0     C79166   9.300  10.869  11.396  0.4000 -0.3728  0.2302
  587MOL0     C79167   9.352  10.747  11.429 -0.0351 -0.6219  0.2977
  587MOL0     C79168   9.472  10.705  11.382 -0.6089  0.2291 -0.4272
  587MOL0     O79169   9.501  10.577  11.420 -0.3741 -0.4315  0.2072
  587MOL0     C79170   9.634  10.538  11.450 -1.1072  0.1244 -0.2143
  587MOL0     C79171   9.685  10.642  11.559  0.4927  0.1778  0.9570
  587MOL0     C79172   9.630  10.606  11.699 -0.5034 -0.1785  0.3286
  587MOL0     C79173   9.714  10.679  11.794  0.2475 -0.0669 -0.2246
  587MOL0     C79174   9.823  10.590  11.838 -0.7345  0.3596 -0.3420
  587MOL0     C79175   9.911  10.514  11.872  0.0060  0.7648  0.6835
  587MOL0     C79176   9.542  10.789  11.292  0.4532 -0.3293 -0.3973
  587MOL0     C79177   9.487  10.910  11.252  0.1503 -0.3080 -0.0537
  587MOL0     H79178   9.106  11.157  11.043 -0.2520  0.8943 -0.7346
  587MOL0     H79179   8.972  11.365  10.992  1.2587  0.2469 -0.6462
  587MOL0     H79180   8.706  11.430  11.123  1.5998 -2.0166  0.7691
  587MOL0     H79181   8.709  11.502  11.287  1.8752  0.7779 -0.2456
  587MOL0     H79182   8.571  11.639  11.180 -0.6162  2.2093 -0.8866
  587MOL0     H79183   8.719  11.734  11.204 -1.0818  0.1367  0.8713
  587MOL0     H79184   8.781  11.740  11.000 -0.8506  1.3909 -1.4715
  587MOL0     H79185   8.698  11.603  10.930 -0.8970  0.7599 -0.6194
  587MOL0     H79186   8.468  11.740  10.963 -1.4076  3.1925  4.7911
  587MOL0     H79187   8.545  11.857  11.024 -2.1257 -1.3564 -0.1997
  587MOL0     H79188   8.695  11.877  10.817  1.7881 -3.8387 -0.0561
  587MOL0     H79189   8.584  11.761  10.735  0.1213 -2.9879  2.1130
  587MOL0     H79190   8.395  11.907  10.794 -0.4445  1.5468 -0.8563
  587MOL0     H79191   8.505  12.026  10.849  0.8180 -0.5626  1.4771
  587MOL0     H79192   8.433  12.064  10.616 -0.7148 -0.3471  3.0297
  587MOL0     H79193   8.607  12.003  10.602  0.7434  0.2146  1.2083
  587MOL0     H79194   8.462  11.777  10.540  0.2347  0.4023  1.7538
  587MOL0     H79195   8.515  11.898  10.423 -0.6217 -1.5437  0.3178
  587MOL0     H79196   8.341  12.068  10.323  0.5316  0.5917  0.6944
  587MOL0     H79197   8.000  12.090  10.254 -1.1320  0.3976 -1.3792
  587MOL0     H79198   8.157  12.076  10.181  0.3922  0.6846  2.5415
  587MOL0     H79199   7.954  11.966  10.063 -0.9268 -1.2394 -0.6592
  587MOL0     H79200   7.926  11.872  10.206 -0.4302 -0.4501 -0.4766
  587MOL0     H79201   8.007  11.727  10.079 -2.1372  1.6080  1.6062
  587MOL0     H79202   8.142  11.772  10.187  0.2292  3.8902  1.6282
  587MOL0     H79203   8.115  11.868   9.891 -2.2616  0.0238  1.6507
  587MOL0     H79204   8.223  11.737   9.939  0.8260  0.1898 -0.1867
  587MOL0     H79205   8.328  11.631  10.104 -0.8226  1.3144  0.5553
  587MOL0     H79206   8.543  11.480  10.311 -0.2805  1.4060  0.3281
  587MOL0     H79207   8.442  11.444  10.192 -0.9738  1.1405 -0.1424
  587MOL0     H79208   8.624  11.462  10.149 -1.4606 -0.1853 -2.2040
  587MOL0     H79209   8.902  11.341  10.364  1.7189 -1.8934  1.0657
  587MOL0     H79210   9.115  11.307  10.397 -0.3944  0.1849 -0.4630
  587MOL0     H79211   9.470  11.564  10.269  1.8304 -3.2493 -0.0466
  587MOL0     H79212   9.396  11.637  10.415 -0.8954  0.6163 -0.6503
  587MOL0     H79213   9.635  11.533  10.437  0.7326 -0.8821  2.2768
  587MOL0     H79214   9.510  11.517  10.558 -2.3091 -3.4503  0.1068
  587MOL0     H79215   9.515  11.292  10.368 -0.6330 -1.6801 -0.8499
  587MOL0     H79216   9.472  11.306  10.541  2.2387 -0.0935  1.1453
  587MOL0     H79217   9.767  11.339  10.432  1.8528 -0.5148  0.9479
  587MOL0     H79218   9.708  11.337  10.599 -4.3898 -0.5753  0.6843
  587MOL0     H79219   9.797  11.109  10.471  0.0871  0.8989  0.3514
  587MOL0     H79220   9.630  11.108  10.398 -2.9944  2.3001  0.8379
  587MOL0     H79221   9.556  11.136  10.635  0.4177  0.1386  1.6914
  587MOL0     H79222   9.603  10.978  10.558 -0.0229  0.6572 -2.6856
  587MOL0     H79223   9.810  11.149  10.712 -2.2679  1.3434  0.0431
  587MOL0     H79224   9.830  10.985  10.679 -0.2895 -0.4860  1.2199
  587MOL0     H79225   9.608  10.950  10.839 -1.4365  1.7679  1.7885
  587MOL0     H79226   9.660  11.092  10.907 -1.2274 -0.5909 -0.8377
  587MOL0     H79227   9.240  11.685  10.240 -0.3803  0.4662  0.7568
  587MOL0     H79228   8.992  11.734  10.200 -0.4072 -0.1831 -2.2400
  587MOL0     H79229   8.698  11.946  10.201  0.2777 -2.0606  1.4662
  587MOL0     H79230   8.489  12.028  10.096  0.6519  0.1289 -0.5700
  587MOL0     H79231   8.955  11.473  11.403 -0.9933 -2.0387  0.8891
  587MOL0     H79232   9.096  11.270  11.459  2.3498 -0.1682 -0.9422
  587MOL0     H79233   9.202  10.895  11.436 -1.6593 -2.4778 -2.9633
  587MOL0     H79234   9.299  10.699  11.511 -0.5207  0.5459  0.6903
  587MOL0     H79235   9.642  10.435  11.487 -0.0772  0.0994 -0.4659
  587MOL0     H79236   9.695  10.551  11.360 -5.3113  0.2158 -3.3197
  587MOL0     H79237   9.663  10.747  11.538  2.7633  0.7610  1.1879
  587MOL0     H79238   9.793  10.626  11.562  0.2336 -1.6646  2.2992
  587MOL0     H79239   9.625  10.499  11.721 -1.1673  0.0618  1.4179
  587MOL0     H79240   9.526  10.640  11.713 -0.2708  1.1316 -0.8796
  587MOL0     H79241   9.649  10.703  11.879  0.0967 -1.5079  0.0998
  587MOL0     H79242   9.758  10.768  11.749 -0.4997  1.1873  1.4037
  587MOL0     H79243   9.994  10.449  11.887  0.3999  1.8538  3.8320
  587MOL0     H79244   9.632  10.761  11.239  0.3463  0.9410 -1.3194
  587MOL0     H79245   9.536  10.987  11.193 -0.5788  3.0079  3.3532
  588MOL0     O79246   5.664   3.674   3.397  0.5427  0.2027  0.2220
  588MOL0     C79247   5.594   3.613   3.318 -0.2197 -0.5914 -0.1652
  588MOL0     O79248   5.597   3.639   3.181 -0.1276 -0.3662 -0.1985
  588MOL0     C79249   5.688   3.729   3.129  0.6850  0.7822 -0.2998
  588MOL0     C79250   5.812   3.775   3.177  0.1675  0.5209 -0.2815
  588MOL0     C79251   5.893   3.849   3.095 -1.6293  0.4784 -0.2686
  588MOL0     C79252   5.866   3.875   2.963 -0.8635 -0.3567 -0.0644
  588MOL0     O79253   5.962   3.911   2.875  0.4383 -0.4602  0.8611
  588MOL0     C79254   5.948   4.040   2.824 -0.2946 -0.3015  0.7006
  588MOL0     C79255   6.038   4.032   2.694 -0.8022  0.3153  0.9340
  588MOL0     C79256   6.184   4.092   2.701 -0.3813  1.1392  0.0120
  588MOL0     C79257   6.281   4.040   2.594  0.2738  0.2896  0.3884
  588MOL0     C79258   6.415   4.105   2.608  0.1101  0.7522  0.1117
  588MOL0     C79259   6.521   4.023   2.534 -1.1956 -0.4554  0.0582
  588MOL0     C79260   6.652   4.114   2.518  1.4491  0.7257 -0.4512
  588MOL0     C79261   6.763   4.022   2.496  0.0540 -0.3190  0.2859
  588MOL0     N79262   6.892   4.095   2.499 -0.2282  0.1624  0.6647
  588MOL0     C79263   6.995   4.087   2.591 -0.0645  0.1128 -1.5429
  588MOL0     C79264   7.083   4.184   2.568 -0.2823 -0.0159 -0.6855
  588MOL0     C79265   7.210   4.223   2.643  0.2041  0.6083  0.2661
  588MOL0     C79266   7.212   4.173   2.792  0.0341 -0.3934 -0.0405
  588MOL0     C79267   7.321   4.238   2.879  0.2621 -0.1116 -0.1356
  588MOL0     C79268   7.320   4.185   3.023  0.3977  0.2659  0.3567
  588MOL0     O79269   7.426   4.217   3.114 -0.7911  0.4518  0.0959
  588MOL0     C79270   7.430   4.345   3.174  1.8111 -0.1019 -0.0287
  588MOL0     C79271   7.346   4.453   3.142  1.1898  0.0396  0.1034
  588MOL0     C79272   7.360   4.578   3.202 -0.4484  0.0573  0.2822
  588MOL0     C79273   7.274   4.684   3.147 -0.2834  0.2993  0.1815
  588MOL0     C79274   7.452   4.599   3.307 -0.0113  0.8873 -0.2939
  588MOL0     C79275   7.497   4.730   3.366  0.1456 -0.1784 -0.5297
  588MOL0     O79276   7.575   4.721   3.478  0.2005 -0.2258 -0.6466
  588MOL0     C79277   7.626   4.833   3.532 -0.5990 -0.0039  0.1959
  588MOL0     C79278   7.611   4.843   3.671 -0.2972  0.0609  0.7803
  588MOL0     C79279   7.660   4.952   3.739  0.5092 -0.1192  0.5226
  588MOL0     C79280   7.732   5.050   3.675 -0.6153 -1.2803 -1.5177
  588MOL0     O79281   7.769   5.153   3.763  0.2988  0.3826 -0.2489
  588MOL0     C79282   7.911   5.187   3.754  0.2692 -0.2886  0.1788
  588MOL0     C79283   7.951   5.276   3.636 -0.0086 -0.8852 -0.5699
  588MOL0     C79284   7.855   5.391   3.598 -0.4622 -0.5006 -0.7592
  588MOL0     C79285   7.823   5.504   3.713  0.5916  0.2696  0.3807
  588MOL0     C79286   7.674   5.542   3.709  0.2418 -0.2174 -0.0907
  588MOL0     C79287   7.645   5.665   3.792  0.3477  0.4483  0.2124
  588MOL0     C79288   7.671   5.799   3.723  0.7575  0.8023  0.2082
  588MOL0     C79289   7.637   5.920   3.808 -0.6510  0.7799 -0.0958
  588MOL0    Cl79290   7.464   5.957   3.832 -0.0284  0.2914  0.1665
  588MOL0     C79291   7.747   5.050   3.542  0.0057 -0.7716 -0.5928
  588MOL0     C79292   7.699   4.940   3.471 -0.6465  1.0271 -0.2567
  588MOL0     O79293   7.464   4.832   3.316  0.3522 -0.0026  0.3066
  588MOL0     C79294   7.521   4.492   3.352  0.0255 -0.4557 -0.2924
  588MOL0     C79295   7.521   4.363   3.276  0.7102 -0.1572 -0.3835
  588MOL0     N79296   7.032   4.262   2.479 -0.5273 -0.0371  0.5929
  588MOL0     N79297   6.935   4.203   2.429 -0.0469  0.2542  0.2681
  588MOL0     C79298   5.736   3.847   2.921  0.5075 -0.4279 -0.8534
  588MOL0     C79299   5.650   3.764   3.001 -0.6180 -0.6656  0.2471
  588MOL0     C79300   5.484   3.532   3.376  0.1578 -0.7485  0.5697
  588MOL0     C79301   5.435   3.538   3.515  0.1573 -0.4511 -0.7293
  588MOL0     C79302   5.340   3.449   3.558  1.0036  0.7091 -1.0370
  588MOL0     C79303   5.267   3.369   3.471 -0.4405  0.6214 -1.0814
  588MOL0     O79304   5.183   3.272   3.523 -0.0415 -0.0091 -0.3934
  588MOL0     C79305   5.100   3.189   3.450  0.7649  0.0809 -0.1733
  588MOL0     C79306   4.992   3.266   3.372 -0.5587 -0.0261 -1.2910
  588MOL0     C79307   4.885   3.178   3.319  0.4449 -0.0570  0.3178
  588MOL0     C79308   4.765   3.170   3.412  0.1003 -0.4107 -0.5800
  588MOL0     C79309   4.800   3.091   3.529 -0.2355  0.1249 -0.0274
  588MOL0     C79310   4.833   3.028   3.629  1.1837  0.6483  1.4527
  588MOL0     C79311   5.301   3.371   3.333 -0.1223 -0.7741  0.3131
  588MOL0     C79312   5.396   3.459   3.288  0.3210 -0.5226  0.0006
  588MOL0     H79313   5.863   3.751   3.270  4.1712  0.1703 -2.3323
  588MOL0     H79314   5.996   3.878   3.114 -1.1827 -2.4477  2.7327
  588MOL0     H79315   5.847   4.062   2.788  0.0398 -1.3160 -0.9805
  588MOL0     H79316   5.996   4.122   2.879 -0.6556  0.9307 -0.7643
  588MOL0     H79317   6.046   3.936   2.642  0.0650  0.4548  0.7938
  588MOL0     H79318   5.988   4.098   2.622  0.1226 -0.9472 -0.9415
  588MOL0     H79319   6.167   4.199   2.688 -2.2902  0.9542  0.7339
  588MOL0     H79320   6.227   4.078   2.801 -5.3508  0.8324  2.3903
  588MOL0     H79321   6.300   3.934   2.614  1.5871 -0.0450 -2.2411
  588MOL0     H79322   6.248   4.047   2.490  3.8271  0.1883 -0.8556
  588MOL0     H79323   6.410   4.212   2.582  1.7899  1.2324  1.6369
  588MOL0     H79324   6.436   4.109   2.715 -0.0940  1.0683  0.1414
  588MOL0     H79325   6.541   3.921   2.566  0.1979  0.0333  0.8439
  588MOL0     H79326   6.489   4.018   2.429 -1.3497  1.8824 -0.0730
  588MOL0     H79327   6.648   4.189   2.440  1.4314 -0.2989 -1.4641
  588MOL0     H79328   6.665   4.172   2.610 -2.3128  1.3992 -0.1626
  588MOL0     H79329   6.755   3.984   2.393 -1.7872  3.0176 -0.9585
  588MOL0     H79330   6.775   3.939   2.567  0.7961 -1.0186 -0.6353
  588MOL0     H79331   6.999   4.011   2.669 -1.0119 -0.5989 -2.1662
  588MOL0     H79332   7.297   4.182   2.591  0.6303  0.3564  1.1662
  588MOL0     H79333   7.203   4.331   2.655 -0.9255  0.4828  0.8995
  588MOL0     H79334   7.228   4.065   2.788  0.6038 -0.2788 -1.1963
  588MOL0     H79335   7.111   4.185   2.832 -0.7345 -3.3003 -0.9161
  588MOL0     H79336   7.305   4.346   2.888  0.2500 -0.1967  1.0104
  588MOL0     H79337   7.418   4.217   2.833 -0.0142  0.5450 -1.0558
  588MOL0     H79338   7.310   4.076   3.023  2.3155  0.0128 -1.4854
  588MOL0     H79339   7.224   4.227   3.053 -0.0899  0.4314 -1.3295
  588MOL0     H79340   7.263   4.435   3.076  0.4823 -1.8300  1.4268
  588MOL0     H79341   7.327   4.778   3.133  0.7570 -0.2229  0.5100
  588MOL0     H79342   7.226   4.640   3.058  1.1027 -1.7585  0.3666
  588MOL0     H79343   7.209   4.715   3.228 -0.2170  1.3039 -0.1434
  588MOL0     H79344   7.560   4.764   3.726  0.8257 -0.8656  0.5263
  588MOL0     H79345   7.658   4.929   3.846  4.2284  1.2641  1.0324
  588MOL0     H79346   7.933   5.235   3.849  4.0851 -1.2070 -0.1093
  588MOL0     H79347   7.972   5.097   3.743 -0.0748 -0.2141 -3.5002
  588MOL0     H79348   8.048   5.323   3.655 -0.5480  0.3570 -0.8058
  588MOL0     H79349   7.962   5.225   3.539  0.1105  1.8508 -2.0979
  588MOL0     H79350   7.761   5.335   3.588  1.5000 -3.6179 -4.2376
  588MOL0     H79351   7.880   5.431   3.500 -1.4931 -0.3106 -0.9589
  588MOL0     H79352   7.840   5.479   3.818 -0.8866  2.5976  1.2641
  588MOL0     H79353   7.888   5.590   3.691  0.9289 -0.0463  0.1316
  588MOL0     H79354   7.619   5.461   3.757 -0.5508  1.3411  1.7504
  588MOL0     H79355   7.637   5.547   3.606 -0.7877 -2.2595  0.1244
  588MOL0     H79356   7.543   5.661   3.831 -0.0306  0.7632 -0.7295
  588MOL0     H79357   7.712   5.656   3.878  0.5980  4.2612  0.6032
  588MOL0     H79358   7.624   5.811   3.625  1.3189 -0.4967 -0.2418
  588MOL0     H79359   7.779   5.818   3.716  1.1319  0.5885  3.4595
  588MOL0     H79360   7.683   6.006   3.758  1.4231 -0.2818 -0.0949
  588MOL0     H79361   7.686   5.912   3.905  1.7481  0.3953 -1.2631
  588MOL0     H79362   7.785   5.133   3.483 -3.4745 -1.3137 -4.0228
  588MOL0     H79363   7.720   4.951   3.365  0.2261  1.0343 -0.0827
  588MOL0     H79364   7.598   4.501   3.428  0.0825  0.1778 -0.4195
  588MOL0     H79365   7.585   4.288   3.322  1.6014  1.8200  1.8086
  588MOL0     H79366   5.706   3.880   2.822  1.4887  0.2310 -0.9523
  588MOL0     H79367   5.548   3.747   2.967 -1.1533 -3.7576  2.8891
  588MOL0     H79368   5.478   3.603   3.591  3.9170 -1.5595 -1.6835
  588MOL0     H79369   5.307   3.435   3.660  2.3772 -1.7813 -0.8631
  588MOL0     H79370   5.158   3.124   3.385 -2.2545 -1.8835 -1.1051
  588MOL0     H79371   5.054   3.139   3.536  0.9396  0.6613  0.2683
  588MOL0     H79372   5.035   3.322   3.288 -0.2266  2.1551  0.2515
  588MOL0     H79373   4.951   3.343   3.438  0.9036  1.6473 -2.2406
  588MOL0     H79374   4.923   3.079   3.291 -1.0617  0.1480 -2.9218
  588MOL0     H79375   4.840   3.228   3.233  0.2089  0.5729  0.7994
  588MOL0     H79376   4.673   3.126   3.370  0.6049  0.8073 -3.1491
  588MOL0     H79377   4.736   3.271   3.443 -1.5346 -0.7127 -0.9847
  588MOL0     H79378   4.875   2.985   3.718  0.3226  0.7165  1.8977
  588MOL0     H79379   5.245   3.315   3.259  0.1650  0.8081 -1.1773
  588MOL0     H79380   5.417   3.481   3.184  2.9611  0.3169  0.6460
  589MOL0     O79381   1.840   7.839   1.249  0.5057  0.4094 -0.5754
  589MOL0     C79382   1.759   7.934   1.242  0.4148 -0.5350  0.0908
  589MOL0     O79383   1.700   7.995   1.349 -0.2506 -0.1764  1.1663
  589MOL0     C79384   1.732   7.954   1.481 -0.0314  0.6979 -0.3105
  589MOL0     C79385   1.773   7.828   1.537  0.2481  0.5052  0.2984
  589MOL0     C79386   1.795   7.807   1.670  0.4615 -0.8439 -0.2580
  589MOL0     C79387   1.783   7.918   1.758  0.0244  0.2014 -0.0028
  589MOL0     O79388   1.819   7.921   1.889  0.2502 -0.3868 -0.0317
  589MOL0     C79389   1.931   7.839   1.918  0.5719 -0.0869  0.7127
  589MOL0     C79390   2.007   7.891   2.034  0.3148 -0.1273  1.5850
  589MOL0     C79391   1.928   7.881   2.164 -0.3910  0.7268 -0.6750
  589MOL0     C79392   2.004   7.929   2.286  0.0669 -1.1359  0.3045
  589MOL0     C79393   1.904   7.979   2.400 -0.6419  0.0878 -0.4201
  589MOL0     C79394   1.825   7.865   2.465 -0.2130 -0.0926  0.1428
  589MOL0     C79395   1.724   7.924   2.554  1.7644 -0.2661 -0.6322
  589MOL0     C79396   1.641   7.812   2.603  0.9745 -0.0277 -0.1185
  589MOL0     N79397   1.535   7.869   2.682 -0.1078 -0.6895  0.3484
  589MOL0     C79398   1.546   7.918   2.814 -0.4612 -0.5073  0.2584
  589MOL0     C79399   1.423   7.965   2.842  0.7898  0.5303 -0.8384
  589MOL0     C79400   1.399   8.013   2.983  0.2552 -1.0250 -0.0396
  589MOL0     C79401   1.329   8.144   2.958 -0.9910 -0.2856  0.5501
  589MOL0     C79402   1.267   8.221   3.071  0.3186 -0.6538 -0.2363
  589MOL0     C79403   1.363   8.282   3.170  0.4215  0.6365 -0.2431
  589MOL0     O79404   1.281   8.375   3.250 -0.2670  0.2399 -0.3382
  589MOL0     C79405   1.348   8.433   3.358 -0.5909  0.4049 -0.4893
  589MOL0     C79406   1.479   8.403   3.405  0.1918  0.0837  1.3744
  589MOL0     C79407   1.539   8.461   3.513  0.7770 -0.5183  0.0891
  589MOL0     C79408   1.692   8.421   3.524  0.1253 -0.0100 -1.0470
  589MOL0     C79409   1.467   8.566   3.582  1.0482  0.5324 -0.6847
  589MOL0     C79410   1.524   8.659   3.679 -0.6898  0.0795 -0.3186
  589MOL0     O79411   1.438   8.727   3.762 -0.3101  0.4211 -0.4296
  589MOL0     C79412   1.490   8.809   3.853  0.3336 -0.3665  0.4639
  589MOL0     C79413   1.618   8.806   3.916 -0.4560 -0.2456  0.2839
  589MOL0     C79414   1.667   8.911   3.993 -0.1642  0.5985  0.6106
  589MOL0     C79415   1.592   9.021   4.019  0.2050  0.2183 -1.0308
  589MOL0     O79416   1.637   9.130   4.086 -0.2611  0.1781 -0.0789
  589MOL0     C79417   1.758   9.117   4.169 -0.3283 -0.3046 -1.1797
  589MOL0     C79418   1.769   9.235   4.266  0.0056 -0.4116  0.2526
  589MOL0     C79419   1.902   9.251   4.337 -0.7986 -0.2096  0.2686
  589MOL0     C79420   1.895   9.328   4.466  0.0335 -0.5368 -0.9751
  589MOL0     C79421   2.027   9.377   4.531  0.1626  0.7176 -0.0126
  589MOL0     C79422   2.013   9.476   4.649 -0.5068 -0.4564  0.0064
  589MOL0     C79423   2.138   9.560   4.684 -0.5300  0.5372  0.6596
  589MOL0     C79424   2.258   9.484   4.737 -0.4919 -0.1812  0.9142
  589MOL0    Cl79425   2.400   9.589   4.768 -0.0390 -0.2340  0.4652
  589MOL0     C79426   1.465   9.028   3.973  1.3829 -0.4663 -0.5444
  589MOL0     C79427   1.413   8.927   3.887  1.0103 -0.0118  0.6729
  589MOL0     O79428   1.646   8.680   3.669  0.5342 -0.6455 -0.3906
  589MOL0     C79429   1.331   8.588   3.548 -0.2651 -0.7724  0.1190
  589MOL0     C79430   1.267   8.519   3.441  0.2270  0.5201 -1.0333
  589MOL0     N79431   1.342   7.933   2.733 -0.5574  0.5205  0.3857
  589MOL0     N79432   1.413   7.881   2.643 -0.0504  0.0324  0.1605
  589MOL0     C79433   1.730   8.039   1.701  0.1629  0.0450 -0.3584
  589MOL0     C79434   1.706   8.054   1.569  0.0974  0.8293 -0.6683
  589MOL0     C79435   1.724   7.975   1.112 -0.3378  0.1941  0.7118
  589MOL0     C79436   1.625   8.081   1.101  0.5347  0.7503  0.6324
  589MOL0     C79437   1.587   8.115   0.966  0.6974 -0.7287 -0.1932
  589MOL0     C79438   1.637   8.054   0.853  0.0296  0.4803 -0.3696
  589MOL0     O79439   1.619   8.085   0.718 -0.1334  1.0628  0.1215
  589MOL0     C79440   1.526   8.192   0.685 -0.1150 -0.0288  0.2860
  589MOL0     C79441   1.514   8.218   0.532  0.5284  0.0721 -0.1280
  589MOL0     C79442   1.404   8.331   0.509  0.0814 -0.4491  0.5647
  589MOL0     C79443   1.467   8.424   0.411  0.4891 -0.5214  0.4566
  589MOL0     C79444   1.368   8.518   0.369 -0.2929  0.1608 -1.1043
  589MOL0     C79445   1.297   8.610   0.331  0.3405  0.0410 -0.0070
  589MOL0     C79446   1.738   7.967   0.878  0.8177 -1.0592  0.1870
  589MOL0     C79447   1.789   7.919   1.002  0.8058 -0.2991  0.2377
  589MOL0     H79448   1.775   7.736   1.480  1.9922  1.2709 -0.9541
  589MOL0     H79449   1.830   7.711   1.707  0.1734 -0.0229  2.2998
  589MOL0     H79450   1.888   7.741   1.939 -0.1703  0.0303 -0.1853
  589MOL0     H79451   2.002   7.830   1.835 -1.6813 -0.9329 -1.2304
  589MOL0     H79452   2.103   7.839   2.034  0.1253 -0.5315  0.3105
  589MOL0     H79453   2.024   7.996   2.008  0.0603 -0.5184 -0.3332
  589MOL0     H79454   1.833   7.936   2.155 -0.4633  1.0107  1.3516
  589MOL0     H79455   1.910   7.775   2.184 -0.5003  0.7286 -0.7613
  589MOL0     H79456   2.068   7.850   2.327  1.9082  0.0437 -0.2008
  589MOL0     H79457   2.077   8.005   2.257  1.5397 -0.3699  5.1970
  589MOL0     H79458   1.961   8.032   2.477  0.3087 -0.6624 -0.5851
  589MOL0     H79459   1.838   8.059   2.365  1.2107  2.1270  0.5486
  589MOL0     H79460   1.788   7.793   2.392  2.1575 -0.9425 -0.3150
  589MOL0     H79461   1.900   7.807   2.521  1.8945  0.5099 -1.8914
  589MOL0     H79462   1.764   7.984   2.637  1.7336 -0.4518 -0.4815
  589MOL0     H79463   1.673   7.996   2.490  3.9965  1.2005 -0.8877
  589MOL0     H79464   1.696   7.743   2.668  0.6137 -1.3712 -1.1874
  589MOL0     H79465   1.595   7.754   2.522 -0.5185  1.3544 -0.3152
  589MOL0     H79466   1.636   7.919   2.875  1.3898 -3.6194 -2.1002
  589MOL0     H79467   1.340   7.938   3.037  3.5792 -2.8543  1.3953
  589MOL0     H79468   1.489   8.026   3.044 -1.6111 -3.3108  3.6158
  589MOL0     H79469   1.249   8.118   2.887  0.0951 -2.4646  0.0309
  589MOL0     H79470   1.394   8.204   2.895 -3.4337  2.2658  0.2673
  589MOL0     H79471   1.204   8.155   3.132  2.9252 -0.4927  2.9165
  589MOL0     H79472   1.193   8.297   3.044 -2.3719 -1.5414  3.6840
  589MOL0     H79473   1.451   8.331   3.126 -0.4301  3.1692  0.6972
  589MOL0     H79474   1.405   8.204   3.234  0.2521  0.2450 -0.6026
  589MOL0     H79475   1.541   8.337   3.345 -0.6319  2.2733 -2.1812
  589MOL0     H79476   1.761   8.460   3.449 -0.7241  0.6976 -1.4920
  589MOL0     H79477   1.748   8.458   3.610  1.4843  0.2111 -1.9944
  589MOL0     H79478   1.695   8.312   3.531  1.4752  0.1452  3.8644
  589MOL0     H79479   1.678   8.718   3.896 -0.7486 -0.2738 -0.4992
  589MOL0     H79480   1.768   8.893   4.029  0.4586 -0.9164 -1.6696
  589MOL0     H79481   1.754   9.028   4.233 -0.4552  0.6882  0.2314
  589MOL0     H79482   1.852   9.119   4.112  2.8530 -0.9476  3.4209
  589MOL0     H79483   1.738   9.321   4.207  3.0428 -0.5264 -1.7413
  589MOL0     H79484   1.701   9.210   4.348 -0.0689 -1.1938 -0.0385
  589MOL0     H79485   1.976   9.285   4.263 -1.4124  4.0301  1.3469
  589MOL0     H79486   1.933   9.148   4.356 -1.3467 -0.0236  2.3546
  589MOL0     H79487   1.826   9.411   4.450 -0.6567 -0.4715  1.8554
  589MOL0     H79488   1.842   9.272   4.543  2.8935 -2.4025 -0.1995
  589MOL0     H79489   2.097   9.419   4.458  3.0763 -2.7711  0.4782
  589MOL0     H79490   2.086   9.297   4.577 -1.4176 -0.5259 -0.0612
  589MOL0     H79491   1.931   9.547   4.634  1.1958  2.5544  3.5086
  589MOL0     H79492   1.967   9.425   4.734 -2.3799 -1.1492 -1.3546
  589MOL0     H79493   2.105   9.627   4.764  2.0913 -2.5884  4.8381
  589MOL0     H79494   2.177   9.630   4.609  2.8130  0.4723  2.1251
  589MOL0     H79495   2.289   9.412   4.661 -4.1980 -0.8889 -0.1127
  589MOL0     H79496   2.236   9.427   4.828  1.1951 -1.1036  0.7851
  589MOL0     H79497   1.411   9.119   3.999 -0.6319 -0.7217 -3.3440
  589MOL0     H79498   1.312   8.955   3.859  1.2352  2.2713  1.9090
  589MOL0     H79499   1.275   8.666   3.598  1.7593  1.4854 -0.9641
  589MOL0     H79500   1.166   8.540   3.407  1.2396  5.2672 -1.8695
  589MOL0     H79501   1.715   8.117   1.775  1.8854 -1.1177  1.2922
  589MOL0     H79502   1.668   8.152   1.540 -2.0912  0.8661  1.9231
  589MOL0     H79503   1.575   8.122   1.188 -2.1644 -1.3715  0.1908
  589MOL0     H79504   1.502   8.180   0.948  0.0610 -1.4959 -0.0327
  589MOL0     H79505   1.428   8.156   0.717  0.7910 -0.2210  3.0321
  589MOL0     H79506   1.551   8.289   0.727  2.4203  1.1560 -3.4277
  589MOL0     H79507   1.483   8.133   0.471  1.9829 -0.5657 -0.0191
  589MOL0     H79508   1.611   8.253   0.495  0.0659  0.0803 -1.4026
  589MOL0     H79509   1.389   8.388   0.601  2.9425  2.1812 -0.3863
  589MOL0     H79510   1.308   8.292   0.476 -1.5967  1.2092  3.1421
  589MOL0     H79511   1.486   8.381   0.312 -3.1351 -1.0430 -0.1340
  589MOL0     H79512   1.554   8.476   0.452 -1.0595  1.4735  1.3615
  589MOL0     H79513   1.245   8.693   0.288  1.4127 -0.0368 -1.5352
  589MOL0     H79514   1.798   7.930   0.796 -0.0381 -4.1247  0.8333
  589MOL0     H79515   1.879   7.858   1.012  2.3754  1.3355 -2.4763
  590MOL0     O79516   9.804   1.676   9.093  0.3730  0.0536 -0.0514
  590MOL0     C79517   9.796   1.569   9.031  0.7179 -0.2539  0.3472
  590MOL0     O79518   9.877   1.455   9.044 -0.6688 -0.0446  0.0137
  590MOL0     C79519   9.982   1.445   9.134 -0.5658 -0.0284  0.6706
  590MOL0     C79520  10.035   1.313   9.153  0.7081 -0.4517 -0.3350
  590MOL0     C79521  10.138   1.285   9.239  0.7518 -1.0467  0.0359
  590MOL0     C79522  10.193   1.390   9.304  0.7267 -1.1777 -0.1870
  590MOL0     O79523  10.276   1.358   9.407  0.8120 -0.1656 -0.6625
  590MOL0     C79524  10.207   1.319   9.520 -0.3190  0.6533  0.6232
  590MOL0     C79525  10.232   1.413   9.637 -0.9601  0.1586  1.1354
  590MOL0     C79526  10.349   1.357   9.723  0.3462  0.4676 -0.3865
  590MOL0     C79527  10.390   1.460   9.830  1.1464 -0.3548 -0.7149
  590MOL0     C79528  10.518   1.424   9.919  0.4923 -0.8917  0.5019
  590MOL0     C79529  10.490   1.356  10.049 -0.6288  0.5012  0.5333
  590MOL0     C79530  10.444   1.211  10.053  0.5032  0.9264  0.1212
  590MOL0     C79531  10.535   1.109   9.978  0.2432  0.3415 -0.1085
  590MOL0     N79532  10.681   1.125   9.987 -0.5971  0.4125  0.0553
  590MOL0     C79533  10.746   1.134  10.101 -0.5909  0.7457 -0.1592
  590MOL0     C79534  10.879   1.153  10.065  0.3183  0.2910  0.4349
  590MOL0     C79535  11.004   1.157  10.152  0.0575  0.6903  0.0262
  590MOL0     C79536  11.055   1.300  10.143 -0.6580 -0.5646  0.3509
  590MOL0     C79537  10.963   1.391  10.234  0.8441 -0.4865 -0.1259
  590MOL0     C79538  11.032   1.521  10.245  0.0722 -0.3927  0.0303
  590MOL0     O79539  11.144   1.488  10.329  0.0413  0.7964 -0.8835
  590MOL0     C79540  11.195   1.596  10.402 -0.3710  0.1031  0.8194
  590MOL0     C79541  11.288   1.547  10.496 -0.0914  0.1357  0.4233
  590MOL0     C79542  11.353   1.635  10.581  0.0875 -0.9297 -1.7123
  590MOL0     C79543  11.467   1.576  10.669 -0.4899 -0.2794  0.3467
  590MOL0     C79544  11.322   1.778  10.565 -0.7133  0.2857  0.5269
  590MOL0     C79545  11.389   1.896  10.634  0.2381  0.1241  0.0273
  590MOL0     O79546  11.483   1.856  10.737  0.1638 -0.0979  0.8102
  590MOL0     C79547  11.522   1.945  10.834 -0.1368  0.3598  0.4254
  590MOL0     C79548  11.513   1.912  10.969 -0.0517  0.6329 -0.2151
  590MOL0     C79549  11.561   1.994  11.071 -0.1879 -0.5417  0.2227
  590MOL0     C79550  11.628   2.114  11.047 -0.1073  0.4848 -0.0411
  590MOL0     O79551  11.661   2.190  11.162 -0.0966 -0.0107 -0.4880
  590MOL0     C79552  11.718   2.317  11.141  1.0752 -1.8092  0.0391
  590MOL0     C79553  11.707   2.401  11.260  0.1165 -0.5100 -0.0425
  590MOL0     C79554  11.566   2.395  11.318 -0.1337 -0.0841 -0.0156
  590MOL0     C79555  11.552   2.484  11.442 -0.0166  0.7579  0.5537
  590MOL0     C79556  11.411   2.475  11.508 -0.6183 -0.4809  0.0884
  590MOL0     C79557  11.415   2.516  11.655 -1.0999  0.3897  0.1604
  590MOL0     C79558  11.284   2.514  11.733 -0.7468  0.0696  0.7929
  590MOL0     C79559  11.264   2.387  11.819 -0.4683  1.5634 -0.8589
  590MOL0    Cl79560  11.237   2.238  11.728 -0.0153  0.2537  0.2220
  590MOL0     C79561  11.623   2.154  10.906  0.1283 -0.4961 -0.8756
  590MOL0     C79562  11.579   2.063  10.802 -0.0860 -0.7203  0.5521
  590MOL0     O79563  11.327   2.001  10.632 -0.5280  0.0385  0.1189
  590MOL0     C79564  11.221   1.818  10.468  0.2399 -0.2903 -0.2993
  590MOL0     C79565  11.156   1.726  10.383  0.5811  0.0697 -0.1159
  590MOL0     N79566  10.880   1.168   9.924  0.8198 -0.3169 -0.2472
  590MOL0     N79567  10.761   1.132   9.875  0.2230 -0.0424  0.2195
  590MOL0     C79568  10.156   1.517   9.286 -0.0115 -0.9961  0.1672
  590MOL0     C79569  10.045   1.547   9.201  0.5588 -0.1228  0.3604
  590MOL0     C79570   9.698   1.559   8.913  0.2140  0.2402  0.1110
  590MOL0     C79571   9.618   1.663   8.873 -0.4932 -0.3017 -0.5719
  590MOL0     C79572   9.536   1.655   8.761 -0.0818 -1.1758  0.3013
  590MOL0     C79573   9.515   1.540   8.696 -0.4888  0.3460  0.0693
  590MOL0     O79574   9.411   1.531   8.604  0.6702  0.5766 -0.1341
  590MOL0     C79575   9.282   1.529   8.658  0.2932 -0.0658  0.8412
  590MOL0     C79576   9.213   1.394   8.647  0.2060  0.3412 -0.0733
  590MOL0     C79577   9.255   1.318   8.516  0.7477  0.6689  0.7245
  590MOL0     C79578   9.150   1.209   8.474 -0.0598  0.1649  0.2758
  590MOL0     C79579   9.031   1.282   8.418 -0.1459  0.1138  1.0496
  590MOL0     C79580   8.933   1.336   8.379 -0.1849 -0.2348 -0.0882
  590MOL0     C79581   9.586   1.423   8.737 -0.4360 -0.1257 -0.5028
  590MOL0     C79582   9.683   1.445   8.839  0.0103 -0.0911 -0.4380
  590MOL0     H79583   9.981   1.227   9.112 -0.9100 -1.2352  3.0693
  590MOL0     H79584  10.151   1.192   9.294  0.8355  0.5653  2.9641
  590MOL0     H79585  10.098   1.308   9.514 -0.0449 -2.0919 -0.4791
  590MOL0     H79586  10.244   1.221   9.550  0.9840  1.5283  2.0130
  590MOL0     H79587  10.261   1.510   9.597 -3.1012  0.4678  0.2114
  590MOL0     H79588  10.141   1.426   9.697 -2.0225 -0.6965 -0.2140
  590MOL0     H79589  10.323   1.266   9.777  1.0670  0.6994  0.3950
  590MOL0     H79590  10.435   1.336   9.658 -0.3753 -1.9482 -0.6574
  590MOL0     H79591  10.398   1.558   9.782 -0.5440  0.6593  0.9422
  590MOL0     H79592  10.317   1.473   9.910 -0.2374  4.5262 -2.3899
  590MOL0     H79593  10.576   1.362   9.850  0.0386 -1.9808  1.0680
  590MOL0     H79594  10.567   1.521   9.933  0.5370 -0.5757 -1.5715
  590MOL0     H79595  10.590   1.352  10.094 -0.3510 -1.0414 -0.1539
  590MOL0     H79596  10.424   1.423  10.105 -3.7609 -1.2815 -0.7787
  590MOL0     H79597  10.435   1.167  10.153  0.2145 -3.6115 -1.6670
  590MOL0     H79598  10.345   1.215  10.007  0.5264 -0.4085 -0.0819
  590MOL0     H79599  10.503   1.113   9.874 -0.5950  0.6511  0.1586
  590MOL0     H79600  10.516   1.012  10.025  0.8580  0.2642 -0.0120
  590MOL0     H79601  10.710   1.105  10.199 -0.8722 -0.5096 -0.6111
  590MOL0     H79602  10.994   1.129  10.258  3.3229 -1.0784  0.0054
  590MOL0     H79603  11.074   1.085  10.107  0.3792  2.3332 -2.2626
  590MOL0     H79604  11.047   1.332  10.039 -0.6729 -1.4807  0.0638
  590MOL0     H79605  11.161   1.318  10.165 -0.0002  2.4606 -4.1617
  590MOL0     H79606  10.942   1.359  10.336 -1.7608 -0.7573 -0.6685
  590MOL0     H79607  10.861   1.391  10.194  0.5813 -1.5928  0.5085
  590MOL0     H79608  10.955   1.580  10.295  1.0755 -1.6599  3.4021
  590MOL0     H79609  11.050   1.580  10.155 -2.2198  2.1028  1.0732
  590MOL0     H79610  11.300   1.439  10.491 -0.0525  0.1566  0.0722
  590MOL0     H79611  11.494   1.475  10.639  1.2713  0.3330 -0.2775
  590MOL0     H79612  11.562   1.631  10.666 -0.3624 -0.2804  2.5082
  590MOL0     H79613  11.453   1.560  10.776  1.8965 -1.8721  0.4828
  590MOL0     H79614  11.456   1.825  11.000  1.6146  0.4869  2.7881
  590MOL0     H79615  11.538   1.957  11.170  1.0055  2.2758  1.6566
  590MOL0     H79616  11.822   2.310  11.110  1.3350  0.9554  0.0241
  590MOL0     H79617  11.674   2.377  11.060  2.8078  1.3327  1.2283
  590MOL0     H79618  11.786   2.373  11.330  0.3572 -3.6967 -1.4406
  590MOL0     H79619  11.717   2.502  11.218 -3.8137 -0.0492 -0.1948
  590MOL0     H79620  11.522   2.298  11.345 -1.5252  1.0786  2.2338
  590MOL0     H79621  11.502   2.443  11.244  0.3243  0.1942 -0.2305
  590MOL0     H79622  11.626   2.461  11.519  0.5112  0.8494  0.0862
  590MOL0     H79623  11.559   2.588  11.407 -1.9412  0.4681 -0.8715
  590MOL0     H79624  11.366   2.376  11.503 -4.0666  0.9214  0.3275
  590MOL0     H79625  11.345   2.544  11.453  0.4136  0.7761  0.3588
  590MOL0     H79626  11.487   2.455  11.710  1.1694  1.9169 -0.9562
  590MOL0     H79627  11.465   2.613  11.650  1.9207 -1.0903 -0.2788
  590MOL0     H79628  11.201   2.508  11.662  0.0496 -2.6361  0.0108
  590MOL0     H79629  11.293   2.596  11.806  0.8712 -2.3646  3.5466
  590MOL0     H79630  11.177   2.394  11.886  1.4829  0.6898  1.9402
  590MOL0     H79631  11.353   2.363  11.878 -2.4572 -2.9881  0.7503
  590MOL0     H79632  11.668   2.250  10.884 -2.8188  0.9633 -1.0920
  590MOL0     H79633  11.593   2.085  10.696  1.7844 -2.9393  0.2492
  590MOL0     H79634  11.209   1.918  10.429  1.2797 -0.2525 -0.5358
  590MOL0     H79635  11.088   1.757  10.305 -2.2618  0.5218  2.3489
  590MOL0     H79636  10.217   1.602   9.316 -0.4213 -1.1025  1.3502
  590MOL0     H79637  10.018   1.652   9.200  3.2787  0.6716  1.3819
  590MOL0     H79638   9.621   1.757   8.927  2.1606 -1.3125  1.2571
  590MOL0     H79639   9.484   1.745   8.728 -2.2313 -3.9919 -5.3173
  590MOL0     H79640   9.291   1.554   8.764 -1.3347  0.1091  0.9600
  590MOL0     H79641   9.221   1.607   8.611  2.1292 -0.1970 -2.0289
  590MOL0     H79642   9.104   1.403   8.651 -0.1748 -3.2504  1.3089
  590MOL0     H79643   9.257   1.343   8.733  3.8596  4.8251  1.1331
  590MOL0     H79644   9.357   1.281   8.518  0.4646 -0.5662 -2.5540
  590MOL0     H79645   9.243   1.378   8.426 -3.6854 -1.5935 -0.5163
  590MOL0     H79646   9.123   1.150   8.562 -0.9765 -0.4981 -0.4296
  590MOL0     H79647   9.194   1.147   8.395 -2.9798 -1.6728 -0.0659
  590MOL0     H79648   8.843   1.394   8.375 -1.6080 -2.1059  2.1030
  590MOL0     H79649   9.592   1.338   8.669  3.2127  0.9727 -1.7761
  590MOL0     H79650   9.752   1.363   8.852  0.0352  0.1377  1.0496
  591MOL0     O79651  10.005   4.745  11.326  0.0259  0.1316 -0.1314
  591MOL0     C79652  10.029   4.734  11.207 -0.7552 -0.2119  0.5228
  591MOL0     O79653  10.088   4.833  11.131 -0.0267  0.5002 -0.8721
  591MOL0     C79654  10.102   4.960  11.186  0.1472 -1.2675 -0.2194
  591MOL0     C79655  10.030   5.066  11.132  0.5944  0.4945  0.2990
  591MOL0     C79656  10.040   5.196  11.178  0.5386  0.0577 -0.4902
  591MOL0     C79657  10.132   5.226  11.278  0.7846  0.3029  0.5872
  591MOL0     O79658  10.142   5.354  11.309  0.1370  0.3768 -0.2318
  591MOL0     C79659  10.258   5.419  11.255 -0.8979 -0.3443 -0.2088
  591MOL0     C79660  10.257   5.435  11.104  0.0263  0.3119  0.4056
  591MOL0     C79661  10.135   5.511  11.038 -0.6039 -1.1381 -0.5570
  591MOL0     C79662  10.149   5.504  10.889  0.0175 -0.7206 -0.5151
  591MOL0     C79663  10.121   5.368  10.836 -0.2404 -0.4043  0.4036
  591MOL0     C79664  10.113   5.365  10.683 -0.1618  0.2648  0.1659
  591MOL0     C79665   9.976   5.418  10.637  0.6048  0.3694 -0.4545
  591MOL0     C79666   9.935   5.370  10.503 -1.8843 -0.1661  0.2728
  591MOL0     N79667   9.796   5.375  10.480  0.4721  0.4682 -0.2703
  591MOL0     C79668   9.727   5.481  10.437  0.5239 -0.2758  0.2528
  591MOL0     C79669   9.598   5.465  10.477  0.1775  0.0939 -0.4056
  591MOL0     C79670   9.470   5.544  10.463  0.7869 -0.0939 -0.4095
  591MOL0     C79671   9.418   5.576  10.319  0.5385  0.7583 -1.6463
  591MOL0     C79672   9.484   5.708  10.269 -0.6647  0.7920  0.1726
  591MOL0     C79673   9.463   5.737  10.121 -0.5110  0.1574  0.3774
  591MOL0     O79674   9.328   5.707  10.083 -0.1188 -0.3532  0.2157
  591MOL0     C79675   9.239   5.812  10.076  0.1020  0.1722  0.1350
  591MOL0     C79676   9.117   5.796  10.135 -0.3549  0.8022  0.8030
  591MOL0     C79677   9.020   5.904  10.146 -1.6404  0.9944 -0.1338
  591MOL0     C79678   8.892   5.869  10.210 -0.1908 -0.2349  0.4832
  591MOL0     C79679   9.046   6.034  10.093 -0.4112  0.0098 -0.1012
  591MOL0     C79680   8.959   6.156  10.092 -0.0242  1.9044  0.0291
  591MOL0     O79681   9.023   6.277  10.087 -0.0412  1.1490 -1.1360
  591MOL0     C79682   8.954   6.385  10.125 -0.6736  0.6940  0.3919
  591MOL0     C79683   8.936   6.483  10.030  0.0420 -0.6688 -0.1764
  591MOL0     C79684   8.874   6.598  10.049  0.1711 -0.6928  1.4727
  591MOL0     C79685   8.815   6.630  10.173  0.1240  0.8700  0.3050
  591MOL0     O79686   8.738   6.740  10.202 -0.3840  0.1289  0.4676
  591MOL0     C79687   8.830   6.859  10.192 -0.3643  0.4238  0.0709
  591MOL0     C79688   8.750   6.995  10.159  0.1368 -0.5004  0.5251
  591MOL0     C79689   8.810   7.115  10.231 -0.2160 -0.3974 -0.1567
  591MOL0     C79690   8.727   7.193  10.338  0.2672 -0.7584 -0.5710
  591MOL0     C79691   8.773   7.340  10.373 -0.0531  0.2744 -0.3000
  591MOL0     C79692   8.770   7.445  10.259 -0.2349  0.4680 -0.2907
  591MOL0     C79693   8.629   7.439  10.179 -0.5944  0.7796 -0.0111
  591MOL0     C79694   8.592   7.578  10.122 -0.6528  0.1479  0.0259
  591MOL0    Cl79695   8.722   7.629   9.999 -0.3257 -0.1299  0.1515
  591MOL0     C79696   8.828   6.525  10.270  0.4092 -0.7389  0.0027
  591MOL0     C79697   8.897   6.415  10.242 -0.2437 -0.2790  0.1805
  591MOL0     O79698   8.835   6.138  10.097 -0.6259  0.3273 -0.1608
  591MOL0     C79699   9.173   6.050  10.043 -0.1163  0.6773  0.4281
  591MOL0     C79700   9.267   5.943  10.021 -0.1585 -0.8946 -0.8680
  591MOL0     N79701   9.591   5.341  10.538  0.0907 -0.2924 -0.3389
  591MOL0     N79702   9.707   5.290  10.537  0.0312 -0.2581  0.2197
  591MOL0     C79703  10.206   5.124  11.333  0.6269 -0.7344  0.2295
  591MOL0     C79704  10.191   4.995  11.290 -0.0516  0.1550 -0.2394
  591MOL0     C79705  10.006   4.594  11.152 -0.5504  0.3928 -0.5056
  591MOL0     C79706   9.988   4.487  11.238  0.5434  0.6407 -0.4429
  591MOL0     C79707   9.962   4.360  11.189  0.6526  0.7331  0.6001
  591MOL0     C79708   9.981   4.339  11.053  0.5185  0.1996 -0.5995
  591MOL0     O79709   9.952   4.222  10.985 -0.1002 -0.2754  0.0747
  591MOL0     C79710   9.977   4.101  11.060  0.8202 -0.4175 -0.4727
  591MOL0     C79711  10.059   4.006  10.969 -0.7906 -0.2221 -0.4355
  591MOL0     C79712  10.192   4.065  10.924 -0.1185  0.7635 -0.2701
  591MOL0     C79713  10.278   3.959  10.869  0.4747  0.2289  0.0762
  591MOL0     C79714  10.394   4.007  10.799 -0.3786  0.0630 -0.0314
  591MOL0     C79715  10.492   4.044  10.740  0.7888 -0.9671 -0.1237
  591MOL0     C79716  10.007   4.442  10.970  0.7895 -1.0347 -0.1479
  591MOL0     C79717  10.030   4.574  11.016  0.3814  0.1577 -0.1808
  591MOL0     H79718   9.968   5.043  11.046  1.3139 -2.1316  0.4107
  591MOL0     H79719   9.979   5.263  11.118  2.6095 -0.6024 -3.5888
  591MOL0     H79720  10.266   5.519  11.298  4.9374  0.6578 -2.5758
  591MOL0     H79721  10.352   5.372  11.286 -0.8855  0.2215  0.6334
  591MOL0     H79722  10.339   5.506  11.091  0.7934  0.0532  3.2252
  591MOL0     H79723  10.288   5.338  11.063 -0.8081  0.0833  0.2912
  591MOL0     H79724  10.046   5.458  11.073  0.1179 -0.2769  2.9547
  591MOL0     H79725  10.123   5.616  11.066 -5.1728 -1.3806 -0.8554
  591MOL0     H79726  10.072   5.570  10.849  1.7522  0.4261 -2.0822
  591MOL0     H79727  10.245   5.542  10.854 -1.1429  2.2265 -0.8250
  591MOL0     H79728  10.211   5.309  10.857  0.2143  0.5997  1.3812
  591MOL0     H79729  10.038   5.314  10.883  0.1429 -0.0137  1.5631
  591MOL0     H79730  10.193   5.431  10.649  0.6560 -0.9247 -0.3068
  591MOL0     H79731  10.137   5.267  10.640 -2.0741 -2.5275  4.7959
  591MOL0     H79732   9.898   5.397  10.709  1.7466 -0.3160  0.6240
  591MOL0     H79733   9.987   5.526  10.621  0.1826  0.7645  1.7022
  591MOL0     H79734   9.967   5.265  10.506  0.7066  0.5616  2.4626
  591MOL0     H79735   9.989   5.431  10.430 -1.4625  0.3228  0.9856
  591MOL0     H79736   9.767   5.560  10.374  2.2224  1.2369  2.9920
  591MOL0     H79737   9.391   5.482  10.505  1.8134 -1.8101 -0.9473
  591MOL0     H79738   9.483   5.636  10.522  3.6292 -0.7984  0.1824
  591MOL0     H79739   9.312   5.603  10.316 -0.4516 -1.6358  2.5181
  591MOL0     H79740   9.434   5.490  10.253  1.8936 -0.1280 -0.2446
  591MOL0     H79741   9.590   5.716  10.292 -0.2293 -1.4632 -0.8103
  591MOL0     H79742   9.431   5.789  10.321  1.2321  2.1134  0.1648
  591MOL0     H79743   9.534   5.689  10.053  0.7963  1.6385  0.6295
  591MOL0     H79744   9.482   5.842  10.095  0.2288  0.5513  2.2641
  591MOL0     H79745   9.098   5.704  10.189 -1.0551  1.4906  1.7759
  591MOL0     H79746   8.911   5.783  10.275  1.0219  0.4306  1.0454
  591MOL0     H79747   8.858   5.955  10.269  1.9429  0.9039  0.1628
  591MOL0     H79748   8.819   5.850  10.130  0.7619  1.0253 -0.7340
  591MOL0     H79749   8.996   6.467   9.941 -3.6358  1.7138 -3.4135
  591MOL0     H79750   8.863   6.670   9.968 -1.6877 -1.6115  0.8265
  591MOL0     H79751   8.890   6.875  10.282  2.6986 -1.7179 -1.3905
  591MOL0     H79752   8.900   6.849  10.108 -0.4120  3.0025 -0.3776
  591MOL0     H79753   8.754   7.001  10.050 -0.6781 -0.8640  0.4645
  591MOL0     H79754   8.645   6.984  10.189 -0.0733 -3.6952 -0.9728
  591MOL0     H79755   8.828   7.184  10.148 -0.1193  2.5213  2.1263
  591MOL0     H79756   8.915   7.097  10.258  0.7448  0.8122 -2.6756
  591MOL0     H79757   8.627   7.202  10.296 -0.2551  0.8130  0.8916
  591MOL0     H79758   8.724   7.130  10.427 -1.1396 -2.2811 -1.6490
  591MOL0     H79759   8.878   7.337  10.402 -0.0231  2.9288  0.0548
  591MOL0     H79760   8.707   7.377  10.451 -1.2892 -2.8327  0.2610
  591MOL0     H79761   8.784   7.541  10.310 -0.5642 -1.0274  2.7910
  591MOL0     H79762   8.851   7.423  10.189 -0.0340  0.3830 -0.0300
  591MOL0     H79763   8.548   7.409  10.247 -0.9541  4.2699  1.3359
  591MOL0     H79764   8.640   7.372  10.094 -0.4411  0.4393  0.2787
  591MOL0     H79765   8.601   7.647  10.206 -4.1065  0.0723  0.6319
  591MOL0     H79766   8.490   7.577  10.082 -0.0122 -0.6001 -1.6581
  591MOL0     H79767   8.773   6.532  10.363  0.2845 -2.5281  0.1042
  591MOL0     H79768   8.895   6.333  10.313 -1.1570  2.7678  4.0320
  591MOL0     H79769   9.211   6.146  10.010  0.5177  0.1571 -0.4077
  591MOL0     H79770   9.364   5.968   9.978  1.2431  1.6962  3.2147
  591MOL0     H79771  10.279   5.152  11.408  2.5744  2.0483 -2.4682
  591MOL0     H79772  10.242   4.913  11.340 -1.0425 -0.8018 -0.7579
  591MOL0     H79773   9.988   4.509  11.344 -0.3287  0.7891 -0.4703
  591MOL0     H79774   9.925   4.279  11.250  1.5497 -1.9653 -2.1582
  591MOL0     H79775  10.023   4.115  11.158 -1.6259 -0.4194  0.7507
  591MOL0     H79776   9.886   4.050  11.092  2.2599 -1.4572  2.2793
  591MOL0     H79777   9.997   3.977  10.883 -0.0246 -1.6608 -0.5374
  591MOL0     H79778  10.085   3.918  11.028  1.6915  0.9587  0.3307
  591MOL0     H79779  10.244   4.110  11.010  0.0204 -1.5527  0.9357
  591MOL0     H79780  10.185   4.138  10.842  3.1934 -0.5132 -1.8680
  591MOL0     H79781  10.214   3.893  10.810  0.1382  1.5580 -1.1070
  591MOL0     H79782  10.311   3.914  10.963  1.2453  0.9541  0.1641
  591MOL0     H79783  10.580   4.091  10.700  1.1405 -0.7716  0.8658
  591MOL0     H79784  10.019   4.428  10.863 -0.6569 -0.0788 -0.4593
  591MOL0     H79785  10.076   4.655  10.961  0.6423  0.6625  0.7566
  592MOL0     O79786   2.621  10.006   5.059  0.4444 -0.3950  0.0864
  592MOL0     C79787   2.724  10.072   5.030 -0.6083 -0.1029 -0.4174
  592MOL0     O79788   2.805  10.146   5.113 -0.5991  0.5935 -0.1618
  592MOL0     C79789   2.767  10.153   5.242  0.7081 -0.0401 -0.9029
  592MOL0     C79790   2.862  10.153   5.338 -0.4570 -0.3363  0.6689
  592MOL0     C79791   2.826  10.172   5.478 -0.9594  0.6876 -0.3286
  592MOL0     C79792   2.692  10.203   5.509 -0.8495  0.8374  0.1267
  592MOL0     O79793   2.658  10.238   5.634 -0.1564 -0.7951 -0.3865
  592MOL0     C79794   2.525  10.204   5.675 -0.3340 -0.0322  0.3262
  592MOL0     C79795   2.502  10.245   5.818 -1.1301 -0.0754  0.3804
  592MOL0     C79796   2.412  10.136   5.869 -0.1461  0.2000  0.4274
  592MOL0     C79797   2.413  10.139   6.015 -0.0623  0.8038  1.3183
  592MOL0     C79798   2.363  10.003   6.067 -0.3955  1.3165  0.0607
  592MOL0     C79799   2.358   9.998   6.217  0.3319  0.4017  0.4697
  592MOL0     C79800   2.483  10.031   6.289  1.2221  0.2268  0.7857
  592MOL0     C79801   2.492  10.013   6.437  0.2525 -1.2369 -0.1616
  592MOL0     N79802   2.469   9.875   6.474  0.0339 -0.1943  0.3493
  592MOL0     C79803   2.517   9.757   6.421  0.3297  0.2680  0.5266
  592MOL0     C79804   2.491   9.658   6.510 -0.0900 -0.1560 -0.3181
  592MOL0     C79805   2.548   9.519   6.509  0.6812  0.1552 -0.3210
  592MOL0     C79806   2.458   9.413   6.570  0.7235  1.0008  0.0018
  592MOL0     C79807   2.505   9.264   6.551 -0.0237  0.5800  0.2238
  592MOL0     C79808   2.639   9.236   6.608  0.1560 -0.6430  0.1469
  592MOL0     O79809   2.601   9.228   6.752 -0.2954 -0.2270 -0.4537
  592MOL0     C79810   2.698   9.173   6.831 -0.6923 -0.9967 -0.3241
  592MOL0     C79811   2.682   9.167   6.964 -0.1341  0.1805 -1.5117
  592MOL0     C79812   2.778   9.122   7.055 -0.1353 -0.3396 -0.0329
  592MOL0     C79813   2.743   9.107   7.196  0.1247  0.1476  0.1684
  592MOL0     C79814   2.898   9.067   7.002  0.3767  1.4700 -0.6799
  592MOL0     C79815   3.010   9.012   7.085 -0.3706 -0.4931  0.1480
  592MOL0     O79816   3.001   8.957   7.213  0.6810  0.3788  0.6692
  592MOL0     C79817   3.103   8.920   7.289  0.0055 -0.2369 -0.1540
  592MOL0     C79818   3.081   8.830   7.393 -0.1463 -0.2289 -1.0248
  592MOL0     C79819   3.180   8.788   7.480 -1.0617  0.7914 -0.1391
  592MOL0     C79820   3.311   8.831   7.451 -0.0421 -0.2227  0.4905
  592MOL0     O79821   3.414   8.763   7.509  0.0717 -0.0962 -0.5616
  592MOL0     C79822   3.553   8.770   7.467  0.2006 -0.0649  1.2284
  592MOL0     C79823   3.632   8.897   7.509 -0.2839 -0.0045 -0.5039
  592MOL0     C79824   3.587   8.950   7.648  0.4586  0.4533  0.5399
  592MOL0     C79825   3.704   9.024   7.719  0.1944 -0.1376  0.0927
  592MOL0     C79826   3.748   9.146   7.638 -0.2532 -0.7885 -0.4837
  592MOL0     C79827   3.833   9.241   7.720  0.5186 -0.0527  0.7175
  592MOL0     C79828   3.893   9.347   7.629  0.1795 -0.3661 -0.6405
  592MOL0     C79829   3.790   9.444   7.553  0.8006 -0.0990 -0.0430
  592MOL0    Cl79830   3.863   9.593   7.502 -0.3602 -0.1465  0.0000
  592MOL0     C79831   3.334   8.925   7.349 -0.3883 -0.6122 -0.6317
  592MOL0     C79832   3.226   8.976   7.277 -1.2137  0.2877 -0.4861
  592MOL0     O79833   3.112   9.022   7.026 -0.1499 -0.1569  0.0713
  592MOL0     C79834   2.919   9.083   6.861  0.6885  0.8551 -0.5946
  592MOL0     C79835   2.824   9.141   6.786  0.0476 -0.3998 -0.2338
  592MOL0     N79836   2.401   9.719   6.605 -0.4582  0.9386  0.5708
  592MOL0     N79837   2.389   9.843   6.582 -0.3834  0.0017  0.1981
  592MOL0     C79838   2.598  10.189   5.401  0.3781 -0.0796 -0.1327
  592MOL0     C79839   2.630  10.176   5.272  1.8986 -0.3697 -1.5942
  592MOL0     C79840   2.745  10.074   4.882  0.5515 -0.2603 -0.6147
  592MOL0     C79841   2.877  10.076   4.834 -0.1554 -0.6609 -0.1187
  592MOL0     C79842   2.909  10.065   4.702 -0.2147  0.8149 -0.5718
  592MOL0     C79843   2.802  10.065   4.604 -0.0542  0.1144  1.4861
  592MOL0     O79844   2.849  10.062   4.466  0.0810 -0.2320  0.3034
  592MOL0     C79845   2.749  10.022   4.373 -0.0157  0.4420  0.4016
  592MOL0     C79846   2.809  10.010   4.232  0.3260 -0.6378 -0.1300
  592MOL0     C79847   2.817  10.141   4.158 -0.9065  0.0111 -0.6064
  592MOL0     C79848   2.682  10.177   4.098  0.1580  0.0140 -0.1541
  592MOL0     C79849   2.698  10.281   3.998  0.3322 -1.0247 -0.5234
  592MOL0     C79850   2.699  10.373   3.918  1.0586 -0.6799  0.3537
  592MOL0     C79851   2.667  10.063   4.654 -0.2420  0.1529  0.8927
  592MOL0     C79852   2.636  10.080   4.793  0.0981 -0.4806  0.2720
  592MOL0     H79853   2.965  10.160   5.305 -0.2139 -0.6840  1.3335
  592MOL0     H79854   2.909  10.185   5.546  0.5297  0.3349 -2.0019
  592MOL0     H79855   2.448  10.261   5.623 -0.0267 -1.4714 -1.8486
  592MOL0     H79856   2.504  10.098   5.661 -0.5931 -0.3423  2.6045
  592MOL0     H79857   2.604  10.258   5.856 -0.0827 -2.6379 -1.3346
  592MOL0     H79858   2.454  10.343   5.826  1.8778  1.5433  0.1187
  592MOL0     H79859   2.311  10.122   5.829  0.0826  0.2358 -0.1733
  592MOL0     H79860   2.475  10.049   5.849 -1.4681 -0.3649 -1.6817
  592MOL0     H79861   2.517  10.147   6.047  0.2816  2.2173 -0.0725
  592MOL0     H79862   2.348  10.214   6.060  0.4800  1.8962  0.3224
  592MOL0     H79863   2.277   9.978   6.004  1.3300 -1.9235 -1.2465
  592MOL0     H79864   2.429   9.922   6.033 -1.2314  0.7570 -0.2621
  592MOL0     H79865   2.281  10.068   6.250 -0.1406  1.6693 -2.9018
  592MOL0     H79866   2.329   9.894   6.235 -0.7202  0.4172 -0.9899
  592MOL0     H79867   2.561   9.982   6.230  0.8358 -0.6573  0.9943
  592MOL0     H79868   2.485  10.139   6.272 -1.3390 -0.0721 -2.3222
  592MOL0     H79869   2.409  10.074   6.473  1.3884 -0.9793  2.1860
  592MOL0     H79870   2.591  10.049   6.464  0.6321 -0.0921 -2.8104
  592MOL0     H79871   2.580   9.751   6.332 -0.1011 -0.7369  0.2654
  592MOL0     H79872   2.561   9.483   6.406 -1.0713 -2.1546  0.1741
  592MOL0     H79873   2.647   9.515   6.553 -0.2879  2.9527  2.4729
  592MOL0     H79874   2.356   9.412   6.531 -0.6734 -2.6679  3.0404
  592MOL0     H79875   2.452   9.421   6.679  3.6271 -5.3945  1.1017
  592MOL0     H79876   2.510   9.236   6.445  2.6349 -1.4399  0.7694
  592MOL0     H79877   2.431   9.195   6.593  1.7376 -4.1772 -3.4760
  592MOL0     H79878   2.702   9.325   6.600 -2.0432  1.0716  0.9226
  592MOL0     H79879   2.678   9.144   6.564  2.7502  1.0777 -1.4491
  592MOL0     H79880   2.584   9.198   7.001 -0.7335 -2.6806 -0.3883
  592MOL0     H79881   2.648   9.159   7.213 -0.2067 -0.7670  1.2013
  592MOL0     H79882   2.728   9.003   7.226 -2.6877 -0.7254 -3.5530
  592MOL0     H79883   2.813   9.155   7.265 -2.4065 -0.6970  3.5974
  592MOL0     H79884   2.977   8.797   7.394 -0.4998  0.2864  4.2752
  592MOL0     H79885   3.171   8.716   7.561  5.1082 -2.6848 -1.8236
  592MOL0     H79886   3.595   8.682   7.516 -1.4510 -2.8208 -1.8936
  592MOL0     H79887   3.567   8.756   7.359 -1.8521 -1.7813  1.1215
  592MOL0     H79888   3.740   8.883   7.496 -0.3629  1.0813 -2.8665
  592MOL0     H79889   3.609   8.980   7.441 -0.3043  1.3167  1.0368
  592MOL0     H79890   3.552   8.869   7.712 -0.4524 -0.1410 -0.6585
  592MOL0     H79891   3.509   9.026   7.636 -1.4625 -1.4414  0.4645
  592MOL0     H79892   3.667   9.052   7.818  1.8357 -1.3655  1.1123
  592MOL0     H79893   3.798   8.968   7.724  1.4409  1.9067  0.6825
  592MOL0     H79894   3.662   9.206   7.606 -1.3807 -0.6315  2.4824
  592MOL0     H79895   3.794   9.104   7.548  4.9195  2.9518 -0.0278
  592MOL0     H79896   3.766   9.283   7.795 -0.5485 -1.0264  0.3282
  592MOL0     H79897   3.916   9.184   7.765  0.5262 -0.9309 -0.3717
  592MOL0     H79898   3.947   9.298   7.548  2.3973 -0.9603  1.0737
  592MOL0     H79899   3.968   9.407   7.682 -1.9183  0.9722  1.0205
  592MOL0     H79900   3.706   9.473   7.617  2.0206 -1.1717  2.1536
  592MOL0     H79901   3.731   9.397   7.473 -2.8076  3.2645  0.3219
  592MOL0     H79902   3.435   8.958   7.327 -0.4499 -0.6839 -1.0155
  592MOL0     H79903   3.256   9.046   7.200  0.2091  1.9476  1.4596
  592MOL0     H79904   3.012   9.055   6.813  1.7275  4.1930 -0.7829
  592MOL0     H79905   2.862   9.156   6.685 -1.2461 -0.8729 -0.8148
  592MOL0     H79906   2.494  10.213   5.422  0.4261  0.5103 -0.5502
  592MOL0     H79907   2.551  10.186   5.199  1.4377  1.1564 -0.9319
  592MOL0     H79908   2.965  10.080   4.897  1.5214 -3.7126 -2.0164
  592MOL0     H79909   3.015  10.062   4.681 -0.3481 -1.0950 -1.1201
  592MOL0     H79910   2.693   9.934   4.406  1.5817 -0.3457  1.1240
  592MOL0     H79911   2.675  10.102   4.368 -0.9213 -0.4286 -2.5088
  592MOL0     H79912   2.755   9.929   4.182 -1.9885  1.1916 -0.7897
  592MOL0     H79913   2.911   9.971   4.233 -0.5091 -3.2356 -2.2819
  592MOL0     H79914   2.890  10.124   4.079 -2.6359 -1.2420 -2.0210
  592MOL0     H79915   2.864  10.212   4.226  1.8423 -1.0952 -1.2323
  592MOL0     H79916   2.602  10.191   4.171 -2.7527 -1.4906 -2.8285
  592MOL0     H79917   2.656  10.095   4.030  0.7005 -0.4626  0.1943
  592MOL0     H79918   2.685  10.460   3.857  4.2013 -1.5450 -1.8751
  592MOL0     H79919   2.590  10.071   4.579  0.0506  1.7227  0.7192
  592MOL0     H79920   2.532  10.082   4.825  0.3452 -5.4230  2.3757
  593MOL0     O79921   5.213   9.566   3.064 -1.0512 -0.2285 -0.1211
  593MOL0     C79922   5.257   9.477   2.993  0.3365  0.1265  0.0498
  593MOL0     O79923   5.244   9.477   2.857  0.4536 -0.3919  0.1878
  593MOL0     C79924   5.200   9.597   2.801  0.0857 -0.0825  0.1713
  593MOL0     C79925   5.092   9.577   2.711  0.2582  0.1816  0.9942
  593MOL0     C79926   5.044   9.680   2.621 -1.2227  0.7217 -0.3950
  593MOL0     C79927   5.090   9.806   2.643  0.2375  0.1012  0.4820
  593MOL0     O79928   5.032   9.899   2.547 -0.9627  0.0321 -0.4956
  593MOL0     C79929   5.106  10.019   2.519  1.1105  0.2526  0.5816
  593MOL0     C79930   5.045  10.085   2.384 -0.3193  0.3737  1.0884
  593MOL0     C79931   5.140  10.198   2.338 -0.4804  0.9125  0.4956
  593MOL0     C79932   5.062  10.306   2.243  0.2124  0.2383 -0.3801
  593MOL0     C79933   5.162  10.400   2.164  0.8056 -1.1716 -0.0574
  593MOL0     C79934   5.105  10.540   2.122  0.0344  0.0834  0.6978
  593MOL0     C79935   4.965  10.533   2.046  0.9233 -0.0072  0.8803
  593MOL0     C79936   4.843  10.612   2.110  0.6708 -0.3709 -0.1509
  593MOL0     N79937   4.859  10.757   2.117  0.2198  0.4945 -0.7948
  593MOL0     C79938   4.894  10.841   2.022  0.1757  0.0941 -0.2170
  593MOL0     C79939   4.916  10.963   2.078 -0.2661 -0.5291 -0.7965
  593MOL0     C79940   4.974  11.084   2.002 -0.0586 -0.3652  0.5031
  593MOL0     C79941   5.125  11.069   2.000 -1.2289 -0.0137  0.3764
  593MOL0     C79942   5.205  11.163   1.915 -0.4525 -0.0400 -0.3556
  593MOL0     C79943   5.322  11.095   1.850  0.3121 -0.5019 -0.8990
  593MOL0     O79944   5.416  11.190   1.795 -0.3933  0.5024  0.0436
  593MOL0     C79945   5.380  11.302   1.719  0.1634  0.5372 -0.3002
  593MOL0     C79946   5.457  11.417   1.726 -0.0318 -0.4227 -0.1545
  593MOL0     C79947   5.429  11.525   1.646 -0.0801  0.2117 -0.0488
  593MOL0     C79948   5.519  11.641   1.670 -0.0465  0.7013 -0.7103
  593MOL0     C79949   5.328  11.518   1.548  0.1865  1.0744 -0.3780
  593MOL0     C79950   5.283  11.625   1.461  0.2393 -0.3466  0.4593
  593MOL0     O79951   5.151  11.624   1.432 -0.3192  0.3387 -0.2269
  593MOL0     C79952   5.102  11.726   1.358  0.5127  0.4189 -0.5996
  593MOL0     C79953   5.042  11.821   1.438  0.3560 -0.0799  0.7285
  593MOL0     C79954   4.981  11.929   1.376 -0.1109 -0.2174 -1.0944
  593MOL0     C79955   4.981  11.943   1.237 -0.3613 -0.3025  0.0364
  593MOL0     O79956   4.903  12.034   1.165  0.0373  0.8917 -0.4957
  593MOL0     C79957   4.810  12.126   1.232 -0.1599 -0.2283 -0.2284
  593MOL0     C79958   4.774  12.253   1.146  0.1504 -0.0777  0.6062
  593MOL0     C79959   4.896  12.321   1.076  1.0760 -0.7325 -0.0156
  593MOL0     C79960   4.853  12.450   0.994  0.7791 -0.4809 -0.5530
  593MOL0     C79961   4.984  12.509   0.948  0.5022 -0.0985  0.1824
  593MOL0     C79962   4.973  12.601   0.820  0.2651 -0.5614  0.2314
  593MOL0     C79963   4.905  12.735   0.856  0.0268  0.7802  1.3099
  593MOL0     C79964   4.921  12.848   0.744 -0.0854  0.4290  0.0207
  593MOL0    Cl79965   4.854  12.994   0.805  0.3481  0.1818  0.0051
  593MOL0     C79966   5.044  11.842   1.156 -0.0724 -0.4271  0.0742
  593MOL0     C79967   5.091  11.731   1.223  0.5847 -0.2997 -0.6344
  593MOL0     O79968   5.357  11.705   1.420 -0.8283 -0.2071 -0.1292
  593MOL0     C79969   5.240  11.404   1.549 -0.0346 -1.0288  0.2853
  593MOL0     C79970   5.268  11.296   1.631 -1.0634 -0.1110  0.0197
  593MOL0     N79971   4.902  10.940   2.218 -0.6786 -0.5640  0.1844
  593MOL0     N79972   4.866  10.817   2.236  0.3181 -0.6269  0.8113
  593MOL0     C79973   5.186   9.833   2.749 -1.1712  0.2962  0.7803
  593MOL0     C79974   5.242   9.731   2.828  1.2754  0.5239 -0.3842
  593MOL0     C79975   5.313   9.359   3.050  0.6205  0.2346 -1.2329
  593MOL0     C79976   5.340   9.245   2.969 -0.0915  0.0655 -0.8086
  593MOL0     C79977   5.398   9.131   3.031  0.1876 -0.2890  0.6044
  593MOL0     C79978   5.428   9.125   3.158 -0.6066  0.5852 -1.0513
  593MOL0     O79979   5.494   9.019   3.221 -0.0913 -1.1675  0.0460
  593MOL0     C79980   5.451   8.889   3.205  0.5508  0.4989  0.6753
  593MOL0     C79981   5.555   8.801   3.275  0.2224 -0.1003 -0.6172
  593MOL0     C79982   5.702   8.805   3.206  0.6765  0.2589  0.2998
  593MOL0     C79983   5.771   8.681   3.241 -0.2420 -0.2670  0.7526
  593MOL0     C79984   5.780   8.654   3.385  0.1171  0.0454 -0.9645
  593MOL0     C79985   5.813   8.618   3.499  0.4452 -0.8755 -0.8533
  593MOL0     C79986   5.402   9.238   3.236 -0.8244  0.1860 -0.3485
  593MOL0     C79987   5.347   9.351   3.187 -0.6535  0.4935 -0.9225
  593MOL0     H79988   5.050   9.484   2.676  2.0575  0.1474 -1.3465
  593MOL0     H79989   4.981   9.659   2.535 -0.4614 -0.4917 -0.6967
  593MOL0     H79990   5.091  10.086   2.604  1.9818 -0.3837  1.2515
  593MOL0     H79991   5.212   9.992   2.514  1.1934  0.7937 -0.8935
  593MOL0     H79992   5.033   9.999   2.318 -0.7833  1.4208 -0.2321
  593MOL0     H79993   4.941  10.111   2.405 -0.6100 -0.2167  0.4120
  593MOL0     H79994   5.190  10.244   2.423  0.8593  2.3833 -1.0243
  593MOL0     H79995   5.215  10.148   2.277 -0.8250 -1.2631  1.7209
  593MOL0     H79996   4.992  10.255   2.176 -0.0208 -1.0084  0.7588
  593MOL0     H79997   4.993  10.357   2.311  0.1811 -1.2435  0.7424
  593MOL0     H79998   5.251  10.422   2.223  1.3692  1.1253 -1.6491
  593MOL0     H79999   5.205  10.340   2.083  0.5255 -0.0369 -1.0743
  593MOL0     H80000   5.090  10.607   2.208 -0.8182  2.0985 -0.9396
  593MOL0     H80001   5.181  10.588   2.060 -3.2601  2.1689 -2.0560
  593MOL0     H80002   4.982  10.562   1.942  3.7649 -0.1077  1.2578
  593MOL0     H80003   4.941  10.427   2.034  2.8708 -0.5014  1.0308
  593MOL0     H80004   4.833  10.565   2.208  0.7687 -0.1254 -0.0208
  593MOL0     H80005   4.758  10.604   2.042  0.9656 -0.7956 -0.4710
  593MOL0     H80006   4.917  10.805   1.922 -0.7287  1.3213 -0.8784
  593MOL0     H80007   4.935  11.093   1.900 -1.3155  0.0677  1.0006
  593MOL0     H80008   4.942  11.180   2.045  1.0616 -0.7007  2.1883
  593MOL0     H80009   5.140  10.969   1.957  0.0105  1.0119 -1.7776
  593MOL0     H80010   5.168  11.070   2.100  0.4497  3.8591 -0.2171
  593MOL0     H80011   5.236  11.244   1.982 -2.3581 -0.7061  1.4336
  593MOL0     H80012   5.151  11.208   1.830  0.9123  2.7476  0.1237
  593MOL0     H80013   5.283  11.028   1.773  1.1177 -0.0238 -1.7441
  593MOL0     H80014   5.383  11.052   1.931 -0.0713 -3.4350 -2.0560
  593MOL0     H80015   5.522  11.436   1.811 -3.7071 -0.2845  2.8972
  593MOL0     H80016   5.557  11.661   1.569  0.0496 -1.6304 -1.2139
  593MOL0     H80017   5.448  11.715   1.707 -3.2125 -3.2195  2.0571
  593MOL0     H80018   5.608  11.617   1.729 -1.1264 -2.5672 -0.1974
  593MOL0     H80019   5.038  11.798   1.544  0.8997 -2.3768  0.2967
  593MOL0     H80020   4.930  11.997   1.443 -3.7274 -2.2095 -1.5194
  593MOL0     H80021   4.715  12.073   1.235 -0.1857 -0.3536 -2.1868
  593MOL0     H80022   4.842  12.145   1.335  4.9051  0.0948 -1.5697
  593MOL0     H80023   4.689  12.247   1.077 -0.3709  1.5992  1.0476
  593MOL0     H80024   4.740  12.332   1.214 -1.6003  0.2801 -0.5999
  593MOL0     H80025   4.922  12.250   0.996 -1.0105  1.3671 -2.7731
  593MOL0     H80026   4.980  12.337   1.144  2.0719 -1.0391 -1.1334
  593MOL0     H80027   4.786  12.413   0.916 -2.4693  2.6089  0.5096
  593MOL0     H80028   4.794  12.521   1.053  0.8832 -1.6986  1.0888
  593MOL0     H80029   5.048  12.425   0.919  0.8978 -0.1168  1.0790
  593MOL0     H80030   5.031  12.556   1.035 -0.9465  2.3330 -0.2510
  593MOL0     H80031   5.067  12.627   0.770 -1.5779 -0.5796 -3.6550
  593MOL0     H80032   4.918  12.549   0.741  2.7357 -1.2935 -1.1164
  593MOL0     H80033   4.972  12.780   0.929  2.3075  1.9770 -1.3635
  593MOL0     H80034   4.804  12.719   0.896  0.4934 -0.7259  1.9654
  593MOL0     H80035   4.863  12.820   0.655 -1.2493 -1.1654  1.2302
  593MOL0     H80036   5.028  12.859   0.723  0.5598 -1.1968  2.0905
  593MOL0     H80037   5.059  11.831   1.049  3.2346 -1.0847  0.5160
  593MOL0     H80038   5.142  11.653   1.166  0.6646 -0.3585 -0.4828
  593MOL0     H80039   5.152  11.391   1.486 -2.9357  2.7526  3.1336
  593MOL0     H80040   5.213  11.204   1.615 -1.0798  0.1318 -1.4172
  593MOL0     H80041   5.236   9.929   2.754  2.0504 -1.3015  3.7636
  593MOL0     H80042   5.319   9.750   2.901 -0.8008  2.5167  1.4622
  593MOL0     H80043   5.313   9.230   2.865 -3.4483 -4.4180  0.3955
  593MOL0     H80044   5.423   9.049   2.965 -0.2952 -0.5829  0.7833
  593MOL0     H80045   5.354   8.871   3.253 -0.5957 -1.4428 -2.1025
  593MOL0     H80046   5.442   8.863   3.099 -1.3918  2.5012  0.2694
  593MOL0     H80047   5.525   8.696   3.283  3.4652 -0.9676  1.9160
  593MOL0     H80048   5.547   8.830   3.380 -4.2912  1.0606 -1.0806
  593MOL0     H80049   5.768   8.885   3.240  0.0898  0.4486  1.0408
  593MOL0     H80050   5.682   8.800   3.099  3.2634 -0.2422 -0.2262
  593MOL0     H80051   5.868   8.686   3.191 -2.4634 -1.0158 -4.1153
  593MOL0     H80052   5.728   8.591   3.196  1.3793 -1.4512  1.4739
  593MOL0     H80053   5.859   8.593   3.592  0.8279  0.2498 -0.7224
  593MOL0     H80054   5.443   9.226   3.336  1.8300  3.4119 -0.8627
  593MOL0     H80055   5.325   9.440   3.245  1.0500  0.0004  0.5610
  594MOL0     O80056   3.060   5.526   8.730  0.6449  0.5827 -0.2123
  594MOL0     C80057   3.089   5.480   8.619 -0.3952 -0.1365  0.1392
  594MOL0     O80058   3.132   5.353   8.601  0.5668  0.4669 -0.8096
  594MOL0     C80059   3.148   5.274   8.710 -0.0228 -0.0741 -1.9346
  594MOL0     C80060   3.256   5.297   8.791 -0.6937  0.3664  0.0890
  594MOL0     C80061   3.275   5.227   8.909  0.4925  0.6648 -0.1331
  594MOL0     C80062   3.177   5.125   8.948 -0.3321 -0.7520  0.4900
  594MOL0     O80063   3.173   5.046   9.070  0.4256  0.1014  0.6542
  594MOL0     C80064   3.304   5.037   9.133 -0.1583 -0.2916 -0.1118
  594MOL0     C80065   3.292   4.955   9.267 -0.2287  0.5619  0.1791
  594MOL0     C80066   3.244   4.812   9.233 -1.2066 -0.0013 -0.3322
  594MOL0     C80067   3.251   4.719   9.349  0.6839 -0.8305  0.2945
  594MOL0     C80068   3.233   4.574   9.314  0.1366 -0.4831 -0.0507
  594MOL0     C80069   3.269   4.485   9.433  0.3150 -1.0297 -1.1806
  594MOL0     C80070   3.273   4.340   9.376  0.3881 -0.9839 -0.9496
  594MOL0     C80071   3.132   4.272   9.394 -0.4841  0.8478 -0.0449
  594MOL0     N80072   3.109   4.256   9.542 -0.6944  0.4991 -0.6410
  594MOL0     C80073   3.010   4.307   9.614  0.6904 -0.3241  0.0963
  594MOL0     C80074   3.019   4.250   9.741  0.2479 -0.7440 -0.6744
  594MOL0     C80075   2.935   4.284   9.869 -0.5565 -0.2011  0.5176
  594MOL0     C80076   2.789   4.240   9.873  1.5654 -0.1773 -0.9999
  594MOL0     C80077   2.774   4.089   9.853  0.4920  0.2853 -0.1358
  594MOL0     C80078   2.815   4.007   9.967 -1.1334  0.5120 -0.7695
  594MOL0     O80079   2.715   3.984  10.058  0.5087 -0.2275 -0.3361
  594MOL0     C80080   2.650   3.862  10.057 -0.0075 -0.0437 -1.0721
  594MOL0     C80081   2.518   3.867  10.099  0.3486 -0.8193  0.5784
  594MOL0     C80082   2.453   3.751  10.125  1.3844 -0.4517 -0.1764
  594MOL0     C80083   2.309   3.770  10.171 -0.1919 -0.2563  0.2528
  594MOL0     C80084   2.515   3.624  10.116 -0.0540 -0.4042 -1.0233
  594MOL0     C80085   2.445   3.492  10.150 -0.6215 -0.3481 -0.0528
  594MOL0     O80086   2.306   3.484  10.163  0.7926 -0.8238  0.1060
  594MOL0     C80087   2.249   3.384  10.239 -0.3693  0.4922 -0.0768
  594MOL0     C80088   2.301   3.251  10.267  0.5495 -1.0488  0.1452
  594MOL0     C80089   2.216   3.156  10.335  0.3748  0.0931  0.4040
  594MOL0     C80090   2.076   3.180  10.354 -0.1877 -0.7349 -0.1068
  594MOL0     O80091   1.999   3.069  10.384  0.1491  0.2865  0.3361
  594MOL0     C80092   2.036   3.002  10.506  0.1406 -0.2477  0.3209
  594MOL0     C80093   1.947   2.879  10.526 -0.5493  0.2526 -1.2893
  594MOL0     C80094   1.807   2.898  10.574  0.4433  0.3290 -0.3450
  594MOL0     C80095   1.746   2.764  10.636 -0.8082  0.0754  0.7796
  594MOL0     C80096   1.604   2.769  10.616  0.1785 -0.2145 -1.4151
  594MOL0     C80097   1.546   2.871  10.723  0.8113 -0.4263  0.9385
  594MOL0     C80098   1.442   2.972  10.658  0.1763 -0.5745 -0.6193
  594MOL0     C80099   1.430   3.086  10.765  0.4648 -1.7350  0.3689
  594MOL0    Cl80100   1.348   3.236  10.702  0.0691 -0.0569  0.0093
  594MOL0     C80101   2.031   3.301  10.310 -0.6834 -0.5791 -0.0386
  594MOL0     C80102   2.109   3.405  10.253 -1.0395  0.6311  0.0340
  594MOL0     O80103   2.517   3.395  10.155 -0.0918 -0.1069  0.2259
  594MOL0     C80104   2.652   3.624  10.088  0.3154 -0.1287  0.4068
  594MOL0     C80105   2.722   3.738  10.058  0.7849 -0.4366  0.1652
  594MOL0     N80106   3.137   4.184   9.741  0.0390  0.1029 -0.8690
  594MOL0     N80107   3.192   4.186   9.623  0.5420 -0.0663  0.2734
  594MOL0     C80108   3.069   5.108   8.861 -0.1715 -0.0011 -1.3611
  594MOL0     C80109   3.051   5.182   8.745 -1.2607  0.4362  0.2007
  594MOL0     C80110   3.044   5.562   8.508  0.0596 -0.0277  0.4771
  594MOL0     C80111   2.945   5.664   8.517  0.7670  0.4248  0.4963
  594MOL0     C80112   2.909   5.739   8.401  0.2035 -0.2723 -0.2377
  594MOL0     C80113   2.961   5.719   8.278  0.0942  0.1850  0.2630
  594MOL0     O80114   2.942   5.816   8.186 -0.2633  0.5071  0.5522
  594MOL0     C80115   2.818   5.794   8.118  0.4566 -0.2339 -0.0735
  594MOL0     C80116   2.834   5.853   7.970  0.1096  0.7117 -0.2728
  594MOL0     C80117   2.947   5.783   7.883 -0.1136  0.5053  0.1641
  594MOL0     C80118   2.919   5.640   7.834  1.2393  0.6932  0.5376
  594MOL0     C80119   2.801   5.643   7.748 -0.0960 -0.0954  0.4907
  594MOL0     C80120   2.705   5.636   7.680 -0.4370  0.4542 -0.0289
  594MOL0     C80121   3.057   5.612   8.267  0.8769 -0.5612 -0.0372
  594MOL0     C80122   3.094   5.533   8.378  0.6632  0.0871  0.0833
  594MOL0     H80123   3.341   5.363   8.777 -0.5874  0.6927  1.9731
  594MOL0     H80124   3.360   5.243   8.975  1.0852 -2.3044 -0.0509
  594MOL0     H80125   3.387   4.996   9.073  2.6313  2.1449  1.7760
  594MOL0     H80126   3.342   5.135   9.161 -0.3529 -0.5393  1.0643
  594MOL0     H80127   3.393   4.945   9.307 -0.6537  3.0084  2.1670
  594MOL0     H80128   3.228   5.008   9.338 -2.9024 -0.7269 -1.1121
  594MOL0     H80129   3.140   4.810   9.202 -0.4328  0.0031 -3.2396
  594MOL0     H80130   3.306   4.774   9.151 -1.0200 -1.6863  0.5516
  594MOL0     H80131   3.340   4.733   9.411  0.6267 -1.9791  0.6568
  594MOL0     H80132   3.166   4.733   9.416  1.0060 -0.5077  0.6454
  594MOL0     H80133   3.132   4.550   9.281 -0.8282  3.1864 -0.1917
  594MOL0     H80134   3.296   4.550   9.228  2.1381  2.6823  0.3900
  594MOL0     H80135   3.372   4.510   9.460 -0.8564  0.7349  2.2205
  594MOL0     H80136   3.192   4.488   9.510  2.3177  0.1429  0.9107
  594MOL0     H80137   3.298   4.337   9.269  1.0911  1.0413 -0.8804
  594MOL0     H80138   3.344   4.278   9.431 -1.8736 -0.5850  2.7065
  594MOL0     H80139   3.147   4.171   9.355 -0.3695  2.9051 -6.4389
  594MOL0     H80140   3.053   4.327   9.342 -1.4258  1.5294  2.0272
  594MOL0     H80141   2.929   4.371   9.579  2.3480  3.0487  1.9084
  594MOL0     H80142   2.984   4.238   9.956 -0.3265  1.1673  1.1276
  594MOL0     H80143   2.933   4.393   9.877  1.4435  0.0177 -1.1459
  594MOL0     H80144   2.740   4.276   9.782 -2.0809 -2.9163 -0.3672
  594MOL0     H80145   2.728   4.268   9.959  0.9048  0.6415 -1.7197
  594MOL0     H80146   2.827   4.053   9.765 -0.4583 -1.1072 -0.1609
  594MOL0     H80147   2.670   4.061   9.835  1.3383 -1.9083 -2.0964
  594MOL0     H80148   2.898   4.055  10.019 -2.2021  1.2947  0.2372
  594MOL0     H80149   2.859   3.911   9.939 -1.2576  1.3475 -4.3063
  594MOL0     H80150   2.468   3.963  10.089  1.6505 -0.2966 -1.6321
  594MOL0     H80151   2.234   3.701  10.132 -1.5099  1.8999 -1.2390
  594MOL0     H80152   2.314   3.762  10.279  1.5860 -2.8878  0.0559
  594MOL0     H80153   2.272   3.868  10.139 -1.8484 -0.1218  2.4360
  594MOL0     H80154   2.398   3.217  10.234  2.2607  0.9029  2.7423
  594MOL0     H80155   2.259   3.060  10.362  1.3632 -0.3525 -2.4103
  594MOL0     H80156   2.133   2.952  10.516  0.1034 -0.1047  1.4651
  594MOL0     H80157   2.031   3.080  10.582  1.5237  1.0921 -0.8934
  594MOL0     H80158   1.945   2.811  10.440 -0.1089 -2.3181  0.5913
  594MOL0     H80159   1.996   2.825  10.607  2.4547  4.0085 -0.3489
  594MOL0     H80160   1.755   2.939  10.487 -0.9422 -0.5365  0.0430
  594MOL0     H80161   1.811   2.967  10.658  1.1115 -2.0758  1.7151
  594MOL0     H80162   1.797   2.683  10.583  1.6308  1.4390  0.8896
  594MOL0     H80163   1.765   2.752  10.743 -2.0022  0.1231  1.0132
  594MOL0     H80164   1.548   2.676  10.632  1.1960 -0.5306  0.5078
  594MOL0     H80165   1.578   2.800  10.514 -0.6324  0.3236 -1.0619
  594MOL0     H80166   1.490   2.818  10.800  0.0405  0.8966  1.3221
  594MOL0     H80167   1.624   2.927  10.776  1.3460 -1.1598  0.9512
  594MOL0     H80168   1.344   2.927  10.646 -1.7596  3.5803 -2.5976
  594MOL0     H80169   1.482   3.019  10.567 -1.7174  2.9885  0.1796
  594MOL0     H80170   1.525   3.118  10.808 -0.3886 -1.1679  1.8969
  594MOL0     H80171   1.366   3.068  10.852  0.9983  1.3353  1.5225
  594MOL0     H80172   1.930   3.323  10.343 -0.2755  1.4968  0.0138
  594MOL0     H80173   2.063   3.495  10.214 -1.4060  3.4623  5.9784
  594MOL0     H80174   2.703   3.528  10.080 -2.7145 -1.7959 -0.5546
  594MOL0     H80175   2.829   3.732  10.043  0.6417 -2.7143 -0.2790
  594MOL0     H80176   2.989   5.037   8.884 -1.4889  1.4438 -1.3074
  594MOL0     H80177   2.957   5.172   8.692 -2.0816  3.0207  1.0299
  594MOL0     H80178   2.902   5.685   8.615  1.0164  4.2704 -0.0523
  594MOL0     H80179   2.838   5.821   8.410  0.2325 -0.3856  1.3110
  594MOL0     H80180   2.788   5.689   8.118 -3.7381  0.7838  0.5741
  594MOL0     H80181   2.741   5.849   8.173  0.6078 -0.3741  0.2826
  594MOL0     H80182   2.853   5.961   7.978 -5.1053  1.9365 -1.0054
  594MOL0     H80183   2.736   5.842   7.924 -0.7206 -2.0471  1.8920
  594MOL0     H80184   3.041   5.795   7.938 -1.0438  1.6318  1.5767
  594MOL0     H80185   2.956   5.836   7.788  0.0410 -0.9846 -0.6809
  594MOL0     H80186   2.907   5.555   7.903  0.5541 -1.2900 -1.8563
  594MOL0     H80187   3.000   5.605   7.770  0.4927 -0.0546 -0.0312
  594MOL0     H80188   2.614   5.644   7.625  0.3951  1.2533 -1.3195
  594MOL0     H80189   3.093   5.589   8.168 -1.4952 -1.9864 -0.6649
  594MOL0     H80190   3.172   5.461   8.355  1.9097  0.6171  2.4450
  595MOL0     O80191  11.417   1.553  10.088  0.3923  0.1727 -0.2498
  595MOL0     C80192  11.522   1.590  10.041 -1.2133  0.2133 -0.2186
  595MOL0     O80193  11.560   1.565   9.919  0.3728  0.8636  0.1290
  595MOL0     C80194  11.474   1.488   9.841 -0.1640  1.3914 -0.1016
  595MOL0     C80195  11.518   1.358   9.805 -0.2283  0.2064  0.0210
  595MOL0     C80196  11.435   1.274   9.731  0.2293  0.1263 -0.4603
  595MOL0     C80197  11.301   1.305   9.685  0.5946 -0.7624  0.6809
  595MOL0     O80198  11.230   1.210   9.609  0.1669 -0.0402  0.0246
  595MOL0     C80199  11.091   1.210   9.602  0.7935 -0.1550  1.0472
  595MOL0     C80200  11.044   1.074   9.557  0.2376 -0.0485 -0.5895
  595MOL0     C80201  10.894   1.050   9.537  0.3521 -0.4125 -0.5066
  595MOL0     C80202  10.841   1.139   9.423 -0.7682 -0.2463 -1.4521
  595MOL0     C80203  10.709   1.100   9.357  0.4319 -0.2701 -0.4331
  595MOL0     C80204  10.588   1.144   9.445 -0.2276  0.0971 -0.3255
  595MOL0     C80205  10.461   1.102   9.368 -0.1087 -0.1972 -0.0825
  595MOL0     C80206  10.430   0.955   9.380  0.1655 -0.9091  0.8489
  595MOL0     N80207  10.302   0.928   9.306 -0.0920 -0.0630  0.4655
  595MOL0     C80208  10.307   0.895   9.170  0.3540 -0.7484 -0.0119
  595MOL0     C80209  10.187   0.851   9.148 -0.1550 -0.0342  0.0411
  595MOL0     C80210  10.148   0.780   9.020 -0.0731  0.1832 -1.1221
  595MOL0     C80211  10.156   0.888   8.902 -0.4564  0.2047 -0.1853
  595MOL0     C80212  10.076   0.828   8.780  0.3920 -0.5606 -0.1881
  595MOL0     C80213   9.934   0.879   8.773 -0.6122  0.1553 -0.0150
  595MOL0     O80214   9.846   0.829   8.870  0.7556  0.0814 -1.5992
  595MOL0     C80215   9.748   0.916   8.912  1.0225  0.1711  1.7686
  595MOL0     C80216   9.637   0.949   8.828 -0.5175  0.4779  0.2954
  595MOL0     C80217   9.535   1.031   8.870 -0.4236  0.1520 -0.2516
  595MOL0     C80218   9.416   1.041   8.778 -1.1010  0.2304  0.3438
  595MOL0     C80219   9.546   1.102   8.991  0.3919 -0.5386 -0.0167
  595MOL0     C80220   9.452   1.204   9.043 -0.2821  0.2032 -1.1483
  595MOL0     O80221   9.476   1.245   9.171  0.0906 -0.2758  0.1291
  595MOL0     C80222   9.411   1.355   9.220  0.0525 -0.2503 -0.8407
  595MOL0     C80223   9.495   1.464   9.257  0.0856  0.0900  0.8830
  595MOL0     C80224   9.431   1.568   9.332 -0.5140 -0.6394  0.4267
  595MOL0     C80225   9.293   1.562   9.356 -0.1007  0.5123 -0.0792
  595MOL0     O80226   9.244   1.670   9.431  0.4246 -0.3750  0.0861
  595MOL0     C80227   9.108   1.667   9.482 -1.3291 -0.3259 -0.3366
  595MOL0     C80228   9.076   1.774   9.580 -0.2011 -0.0979 -1.0260
  595MOL0     C80229   9.088   1.921   9.546 -0.8152 -0.2130  0.1989
  595MOL0     C80230   9.223   1.967   9.494 -0.1241 -0.5074  0.3650
  595MOL0     C80231   9.234   2.115   9.491  0.6430 -0.7597 -0.7191
  595MOL0     C80232   9.379   2.159   9.468 -0.1555  0.2512 -0.2245
  595MOL0     C80233   9.391   2.303   9.431 -0.6091  0.3647  1.2763
  595MOL0     C80234   9.353   2.321   9.277 -0.8343  0.5322 -0.7821
  595MOL0    Cl80235   9.317   2.488   9.233  0.1603 -0.2489 -0.3657
  595MOL0     C80236   9.215   1.455   9.314  0.0606 -0.6787  1.2114
  595MOL0     C80237   9.277   1.348   9.259 -0.2423 -0.0498 -0.1481
  595MOL0     O80238   9.360   1.237   8.970 -0.5834  0.2787  0.4452
  595MOL0     C80239   9.658   1.066   9.073 -0.2861  1.1032  0.5436
  595MOL0     C80240   9.760   0.968   9.035 -0.1173 -0.8078  0.1112
  595MOL0     N80241  10.106   0.884   9.260  0.4649 -0.2066  0.5354
  595MOL0     N80242  10.174   0.926   9.351 -0.3513 -0.1085 -0.2833
  595MOL0     C80243  11.255   1.439   9.722 -0.0830  0.7543  0.3654
  595MOL0     C80244  11.335   1.520   9.799 -0.0537 -0.0490 -0.3637
  595MOL0     C80245  11.606   1.676  10.116 -0.4637  0.3771 -0.1376
  595MOL0     C80246  11.559   1.753  10.225  0.6128 -0.1284  0.0084
  595MOL0     C80247  11.639   1.845  10.293  0.2166 -0.1712 -0.3112
  595MOL0     C80248  11.778   1.846  10.265  0.0107  0.5380 -1.2856
  595MOL0     O80249  11.871   1.918  10.338  0.3917 -0.8729 -0.1287
  595MOL0     C80250  11.831   2.018  10.428 -0.8892 -0.1691 -0.2368
  595MOL0     C80251  11.948   2.077  10.501  0.1522  0.0226 -0.3995
  595MOL0     C80252  11.919   2.201  10.587 -0.1868  0.4618 -0.0171
  595MOL0     C80253  12.018   2.195  10.704 -0.0765  0.6705 -0.2442
  595MOL0     C80254  11.990   2.303  10.810 -0.3816  0.5113  0.0779
  595MOL0     C80255  11.949   2.390  10.885  0.2261  0.6868 -0.5953
  595MOL0     C80256  11.827   1.749  10.174  1.1428  0.3243 -1.1247
  595MOL0     C80257  11.739   1.663  10.107  0.3687 -0.6843 -0.2676
  595MOL0     H80258  11.613   1.327   9.847 -0.0936 -1.4429 -1.4276
  595MOL0     H80259  11.489   1.181   9.714 -2.1394 -1.1826 -1.2776
  595MOL0     H80260  11.036   1.243   9.691 -1.6220  2.2772 -1.1588
  595MOL0     H80261  11.075   1.284   9.524 -0.1727 -1.0294  0.3752
  595MOL0     H80262  11.077   1.062   9.454 -0.3476  1.4166 -0.9691
  595MOL0     H80263  11.086   1.000   9.626  2.2755  2.1146  0.6311
  595MOL0     H80264  10.887   0.946   9.507 -0.1296 -0.8865  1.1351
  595MOL0     H80265  10.840   1.062   9.632 -1.2307 -0.1046 -1.4177
  595MOL0     H80266  10.843   1.239   9.469 -0.7316 -1.9467  2.7056
  595MOL0     H80267  10.916   1.139   9.343 -1.0097 -2.7814 -1.7370
  595MOL0     H80268  10.702   1.130   9.252  1.2402 -0.9783 -0.7023
  595MOL0     H80269  10.712   0.991   9.365  0.6307 -0.1472  1.4738
  595MOL0     H80270  10.587   1.087   9.538 -2.4071 -2.8758 -1.9863
  595MOL0     H80271  10.600   1.253   9.447 -1.0964  0.2097 -0.9002
  595MOL0     H80272  10.380   1.166   9.405 -1.9613 -3.5858  2.4143
  595MOL0     H80273  10.468   1.123   9.261 -2.5514  0.0584 -0.2444
  595MOL0     H80274  10.421   0.938   9.487 -0.5728 -0.1145  0.9260
  595MOL0     H80275  10.516   0.894   9.351 -0.1770 -1.0146  0.0166
  595MOL0     H80276  10.398   0.878   9.114  0.2549 -3.6215  0.5426
  595MOL0     H80277  10.215   0.695   9.007  0.3818  0.8614 -3.7811
  595MOL0     H80278  10.043   0.753   9.035 -0.1048  0.3832 -0.9863
  595MOL0     H80279  10.261   0.891   8.871  0.7649  1.2254  3.5455
  595MOL0     H80280  10.112   0.985   8.925  2.4082  1.9773 -1.5343
  595MOL0     H80281  10.086   0.719   8.778  0.1552 -0.6130  0.8340
  595MOL0     H80282  10.118   0.854   8.683 -1.4701 -1.1785 -1.2041
  595MOL0     H80283   9.890   0.833   8.683  2.0326 -0.6828 -0.9650
  595MOL0     H80284   9.929   0.987   8.759  1.4741  0.1244 -1.4095
  595MOL0     H80285   9.621   0.892   8.737  2.8644  2.1076 -1.5093
  595MOL0     H80286   9.430   1.126   8.709 -0.8845  1.3262  1.6980
  595MOL0     H80287   9.412   0.944   8.728 -0.0179 -0.6504  1.9204
  595MOL0     H80288   9.316   1.044   8.822 -0.6520 -1.3659  1.5350
  595MOL0     H80289   9.600   1.471   9.230  0.2395 -0.2047  1.3840
  595MOL0     H80290   9.495   1.645   9.375  0.4027 -1.5300  0.6865
  595MOL0     H80291   9.031   1.685   9.407 -0.7671  1.8718 -0.4681
  595MOL0     H80292   9.090   1.568   9.525 -0.7412  0.3837  1.6594
  595MOL0     H80293   8.969   1.777   9.601 -0.7483  6.5514 -2.4375
  595MOL0     H80294   9.135   1.754   9.670 -2.7601 -0.2193  0.7176
  595MOL0     H80295   9.075   1.972   9.642  1.3087 -0.5651  0.7378
  595MOL0     H80296   9.013   1.943   9.469  0.3814 -1.4598 -1.4077
  595MOL0     H80297   9.301   1.942   9.567  0.0434  0.8657  0.6719
  595MOL0     H80298   9.254   1.933   9.395  0.2357 -0.1166  0.3425
  595MOL0     H80299   9.204   2.159   9.586  3.4300 -0.4626  0.1291
  595MOL0     H80300   9.171   2.151   9.409  0.9855 -1.0538 -1.1180
  595MOL0     H80301   9.432   2.143   9.563 -0.5566 -1.7019 -0.2822
  595MOL0     H80302   9.428   2.101   9.389 -1.0547  2.9949 -2.9720
  595MOL0     H80303   9.495   2.328   9.450 -0.4227  1.8783 -1.3646
  595MOL0     H80304   9.329   2.375   9.484 -0.1186  2.5706 -0.9908
  595MOL0     H80305   9.266   2.261   9.249 -0.9629  2.0012 -3.9380
  595MOL0     H80306   9.440   2.294   9.217  0.3246  1.7522  0.2962
  595MOL0     H80307   9.109   1.462   9.335  0.2672  2.0865  1.7295
  595MOL0     H80308   9.218   1.266   9.219 -0.4506 -0.0207  0.1008
  595MOL0     H80309   9.667   1.112   9.171  1.3681  1.4717  0.2429
  595MOL0     H80310   9.844   0.942   9.099 -0.3278 -0.1744  0.6541
  595MOL0     H80311  11.157   1.462   9.682 -1.4542 -1.0542  2.4194
  595MOL0     H80312  11.290   1.613   9.833  0.8558  0.0308  0.6557
  595MOL0     H80313  11.453   1.757  10.246  0.2535  1.5602 -1.8295
  595MOL0     H80314  11.612   1.908  10.377  0.8012 -0.0618 -0.2051
  595MOL0     H80315  11.791   2.107  10.378  0.3497 -0.5876 -2.0674
  595MOL0     H80316  11.760   1.974  10.499  0.1858 -1.8420 -0.1461
  595MOL0     H80317  12.029   2.111  10.436  0.9028  1.7703  1.3608
  595MOL0     H80318  11.981   1.998  10.570 -1.5702  1.2793  1.9787
  595MOL0     H80319  11.814   2.211  10.616 -1.0682 -3.0199 -1.4927
  595MOL0     H80320  11.936   2.290  10.526 -0.6561 -0.5356 -1.6868
  595MOL0     H80321  12.124   2.200  10.678  0.8466 -1.2132  2.6541
  595MOL0     H80322  12.011   2.101  10.759  1.1693  2.7912  3.9552
  595MOL0     H80323  11.922   2.462  10.959  3.5354 -2.4272  4.2941
  595MOL0     H80324  11.932   1.736  10.151  1.2700 -0.8821  0.0312
  595MOL0     H80325  11.786   1.580  10.055  2.4525  0.5452 -0.4467
  596MOL0     O80326   0.667   4.377  10.020  0.1199 -0.1012  0.6164
  596MOL0     C80327   0.787   4.413  10.008  1.2225  0.3576 -1.5619
  596MOL0     O80328   0.870   4.426  10.117  0.2382  1.0262 -0.3821
  596MOL0     C80329   0.835   4.389  10.244  0.2259 -0.4992  1.3089
  596MOL0     C80330   0.952   4.351  10.317  0.0697  0.0620  0.3847
  596MOL0     C80331   0.930   4.322  10.444  0.0166  0.2531 -0.2714
  596MOL0     C80332   0.808   4.321  10.511  0.6743 -0.0719  1.0686
  596MOL0     O80333   0.812   4.302  10.648  0.6335  0.2621 -0.0048
  596MOL0     C80334   0.702   4.316  10.731 -0.1119 -0.1245 -0.1580
  596MOL0     C80335   0.729   4.221  10.848 -0.4624 -0.0702 -0.8878
  596MOL0     C80336   0.601   4.186  10.929  0.5176  0.7384 -1.4416
  596MOL0     C80337   0.634   4.066  11.015  0.0958 -0.7793  0.3474
  596MOL0     C80338   0.522   4.002  11.099  0.4718 -0.0751 -0.8990
  596MOL0     C80339   0.425   3.935  11.015 -0.3671  0.3991  0.0654
  596MOL0     C80340   0.329   3.854  11.103  1.1950  1.3347 -0.0506
  596MOL0     C80341   0.237   3.769  11.003 -0.4933 -0.1429 -0.4076
  596MOL0     N80342   0.147   3.684  11.090  0.6704  0.1166  0.5718
  596MOL0     C80343   0.178   3.625  11.213  0.2270  0.2298 -0.4956
  596MOL0     C80344   0.080   3.537  11.228  0.3733 -0.9561 -0.5540
  596MOL0     C80345   0.054   3.445  11.355 -0.6524  0.5594 -0.9031
  596MOL0     C80346   0.027   3.521  11.480  1.0606 -0.6872  0.7795
  596MOL0     C80347   0.036   3.446  11.610 -0.5261  0.2192  0.3403
  596MOL0     C80348  -0.099   3.370  11.635  0.3868  0.2825  1.2816
  596MOL0     O80349  -0.108   3.349  11.779  0.5880  0.0013 -1.1528
  596MOL0     C80350  -0.192   3.253  11.831  0.2916  0.2203 -0.4955
  596MOL0     C80351  -0.277   3.180  11.754 -0.1323  0.0623 -0.0430
  596MOL0     C80352  -0.379   3.096  11.797 -0.6880 -0.1825  1.2043
  596MOL0     C80353  -0.443   3.023  11.686  0.2151  0.6305 -0.4200
  596MOL0     C80354  -0.404   3.090  11.931  0.8215  0.4010  0.5699
  596MOL0     C80355  -0.506   3.007  11.994 -0.8054 -0.6095 -1.0333
  596MOL0     O80356  -0.537   3.036  12.126  0.0436  0.2760  0.3079
  596MOL0     C80357  -0.636   2.965  12.181  0.0820  1.0069 -0.0829
  596MOL0     C80358  -0.602   2.858  12.258  0.7615  0.6424 -0.2619
  596MOL0     C80359  -0.703   2.763  12.306  0.1984 -0.5953  0.5459
  596MOL0     C80360  -0.836   2.802  12.293 -0.3369 -0.2233  0.4602
  596MOL0     O80361  -0.927   2.714  12.338  0.0271  0.0384  0.4746
  596MOL0     C80362  -1.000   2.773  12.453  0.4248 -0.2336  1.2554
  596MOL0     C80363  -1.122   2.679  12.494 -0.5044 -0.3430 -0.1662
  596MOL0     C80364  -1.225   2.673  12.388  0.3525 -0.4185  0.8704
  596MOL0     C80365  -1.358   2.632  12.448  1.8748  0.6282 -0.4219
  596MOL0     C80366  -1.454   2.593  12.342  0.4201 -0.5352  0.1297
  596MOL0     C80367  -1.590   2.560  12.395  0.2178 -0.9044  0.0607
  596MOL0     C80368  -1.673   2.658  12.486  0.2308  0.2690 -1.1224
  596MOL0     C80369  -1.685   2.798  12.421  0.0486  0.9105 -0.0675
  596MOL0    Cl80370  -1.785   2.893  12.527  0.1413 -0.0307 -0.5078
  596MOL0     C80371  -0.871   2.902  12.203  0.6211 -0.5806  0.2674
  596MOL0     C80372  -0.765   2.986  12.148 -0.1353  0.1563 -0.4304
  596MOL0     O80373  -0.541   2.909  11.933  0.0858  0.1152 -0.2111
  596MOL0     C80374  -0.319   3.164  12.020  0.4408  0.5940  1.2927
  596MOL0     C80375  -0.209   3.236  11.970 -0.3104 -1.6585  0.6420
  596MOL0     N80376  -0.010   3.548  11.131  0.2794  0.3296 -0.5531
  596MOL0     N80377   0.028   3.629  11.044  0.1303 -1.3221 -0.3851
  596MOL0     C80378   0.695   4.365  10.443 -0.2182  1.0088 -0.2795
  596MOL0     C80379   0.711   4.392  10.304  0.0205  1.0848 -0.4582
  596MOL0     C80380   0.842   4.425   9.863  0.0440  0.3707 -0.3231
  596MOL0     C80381   0.981   4.444   9.832  0.2947 -0.1821  0.1017
  596MOL0     C80382   1.017   4.458   9.696 -1.0184 -0.1445 -0.0574
  596MOL0     C80383   0.931   4.443   9.592  0.9042 -0.0677  0.6650
  596MOL0     O80384   0.984   4.454   9.471 -0.0143 -0.1684  0.4512
  596MOL0     C80385   0.895   4.456   9.353  0.6634 -0.6357 -0.2379
  596MOL0     C80386   0.990   4.481   9.234  0.3293  0.5986 -1.1713
  596MOL0     C80387   0.919   4.515   9.103 -0.7098  0.0457 -0.2847
  596MOL0     C80388   0.851   4.659   9.108  0.6471  0.0662  0.6441
  596MOL0     C80389   0.768   4.678   8.986  0.6865  0.2437  0.2182
  596MOL0     C80390   0.700   4.685   8.886 -0.6677  0.4474  0.1902
  596MOL0     C80391   0.799   4.414   9.621  0.5994 -0.6547  0.0948
  596MOL0     C80392   0.755   4.399   9.756  0.1616 -0.0616  0.5669
  596MOL0     H80393   1.046   4.331  10.265  0.8244  0.8476  1.3899
  596MOL0     H80394   1.010   4.304  10.516 -1.0769  0.1527  0.9719
  596MOL0     H80395   0.689   4.419  10.766 -2.5673  0.4530 -2.4378
  596MOL0     H80396   0.606   4.287  10.687 -0.5466 -0.1548  0.7958
  596MOL0     H80397   0.750   4.125  10.799 -2.4743 -0.5974 -0.7752
  596MOL0     H80398   0.818   4.249  10.905  0.8577 -1.4422 -2.1389
  596MOL0     H80399   0.583   4.269  10.998 -3.8715 -0.7614 -0.4708
  596MOL0     H80400   0.513   4.183  10.865 -1.3605 -0.9124  1.0215
  596MOL0     H80401   0.681   3.986  10.957 -0.3283 -0.1045 -0.9560
  596MOL0     H80402   0.712   4.099  11.085 -0.2681 -1.0656  0.8976
  596MOL0     H80403   0.568   3.933  11.170 -0.2705 -0.0837 -0.4231
  596MOL0     H80404   0.465   4.084  11.143  2.5553  0.1028  1.7726
  596MOL0     H80405   0.382   4.021  10.962 -2.6937  1.1225  2.8499
  596MOL0     H80406   0.462   3.860  10.946 -4.2201  0.1038 -1.9428
  596MOL0     H80407   0.383   3.787  11.171 -1.4504  0.8613  1.7507
  596MOL0     H80408   0.271   3.927  11.160  0.8380  2.1400 -1.3925
  596MOL0     H80409   0.285   3.702  10.932  0.0574  0.0072 -0.1774
  596MOL0     H80410   0.173   3.843  10.952 -1.4597 -0.6943 -0.0101
  596MOL0     H80411   0.265   3.641  11.276 -1.3391 -0.8138  2.0807
  596MOL0     H80412  -0.031   3.383  11.326 -1.6562  1.2848  0.3974
  596MOL0     H80413   0.144   3.385  11.373 -0.4568  0.9543 -0.5272
  596MOL0     H80414  -0.065   3.580  11.469  2.7289  2.0170  0.1898
  596MOL0     H80415   0.104   3.599  11.486  2.9198 -2.3407 -0.2083
  596MOL0     H80416   0.050   3.514  11.694  2.0084 -0.9964  0.9920
  596MOL0     H80417   0.122   3.379  11.607 -1.5154 -1.1235  0.5329
  596MOL0     H80418  -0.102   3.274  11.583 -1.1947  0.8553  0.2467
  596MOL0     H80419  -0.181   3.438  11.609 -0.4435 -1.5920 -1.4182
  596MOL0     H80420  -0.267   3.184  11.646  0.9569 -2.5963 -0.0988
  596MOL0     H80421  -0.410   3.073  11.594 -1.7070  0.9703 -0.9514
  596MOL0     H80422  -0.417   2.917  11.691  0.9520  0.8486  0.8203
  596MOL0     H80423  -0.551   3.039  11.687 -0.2766 -2.1817  0.4902
  596MOL0     H80424  -0.498   2.826  12.262 -0.1136 -2.4297  1.1055
  596MOL0     H80425  -0.667   2.680  12.366  1.3889 -0.2850  0.2979
  596MOL0     H80426  -0.934   2.783  12.540 -0.5999  0.6374  1.9589
  596MOL0     H80427  -1.030   2.877  12.438  1.3173 -0.0724  0.5132
  596MOL0     H80428  -1.094   2.576  12.516 -5.5747 -1.6023  1.7055
  596MOL0     H80429  -1.166   2.721  12.585  0.4705  0.9079 -0.2467
  596MOL0     H80430  -1.194   2.605  12.308 -3.2249 -0.6965 -0.4925
  596MOL0     H80431  -1.242   2.769  12.338  1.8918 -0.7852 -0.4292
  596MOL0     H80432  -1.336   2.547  12.513  0.2911  0.2570 -0.3389
  596MOL0     H80433  -1.401   2.718  12.502 -0.0219  0.1272 -1.0635
  596MOL0     H80434  -1.415   2.506  12.289  1.8237  0.9584 -1.3927
  596MOL0     H80435  -1.443   2.673  12.268  1.8085 -1.2148 -0.4380
  596MOL0     H80436  -1.650   2.557  12.303 -0.0996  0.6264  0.1845
  596MOL0     H80437  -1.596   2.465  12.448 -2.0827  0.0723  1.7549
  596MOL0     H80438  -1.632   2.660  12.588 -1.4064 -3.2821 -0.2364
  596MOL0     H80439  -1.774   2.619  12.502 -1.0662  1.9833 -4.2279
  596MOL0     H80440  -1.737   2.796  12.324  1.7862 -1.2344 -1.0323
  596MOL0     H80441  -1.588   2.845  12.404  2.0219 -2.1115  1.9377
  596MOL0     H80442  -0.974   2.925  12.179  0.7160 -1.1430 -0.7477
  596MOL0     H80443  -0.801   3.063  12.081 -1.0726 -0.9048 -1.1831
  596MOL0     H80444  -0.320   3.144  12.127 -0.0229 -0.3326  1.1294
  596MOL0     H80445  -0.139   3.292  12.032 -2.7423  0.6230  1.5234
  596MOL0     H80446   0.596   4.386  10.483  0.3387  0.3417  1.5506
  596MOL0     H80447   0.625   4.406  10.240  1.6994 -0.5011 -3.2396
  596MOL0     H80448   1.067   4.443   9.898 -0.5330 -0.1922  1.2136
  596MOL0     H80449   1.123   4.469   9.674 -1.3740  3.1400 -0.7788
  596MOL0     H80450   0.858   4.353   9.351  1.4388 -0.9314 -2.8250
  596MOL0     H80451   0.828   4.540   9.373 -0.2326 -1.8430  2.1824
  596MOL0     H80452   1.062   4.399   9.231  1.4767  1.6003 -1.5709
  596MOL0     H80453   1.049   4.571   9.252 -0.7281  0.9412  0.9456
  596MOL0     H80454   0.838   4.445   9.080 -2.9347  2.0813  0.8772
  596MOL0     H80455   0.990   4.517   9.020 -0.8333  1.0491 -0.3784
  596MOL0     H80456   0.919   4.744   9.112  1.7630 -0.8145  1.1131
  596MOL0     H80457   0.778   4.660   9.189  1.1761 -3.5367  1.3440
  596MOL0     H80458   0.647   4.687   8.792  3.3619  3.2136 -2.3505
  596MOL0     H80459   0.725   4.410   9.542 -0.0612 -3.8511  0.7469
  596MOL0     H80460   0.652   4.375   9.778  0.1172  1.7904  2.8136
  597MOL0     O80461  11.040   0.412   5.122  0.3049 -0.3215  0.1519
  597MOL0     C80462  10.954   0.488   5.166 -0.7144 -0.5151 -0.4393
  597MOL0     O80463  10.827   0.483   5.146  0.6607 -0.2787  0.0735
  597MOL0     C80464  10.769   0.385   5.056 -0.3151 -0.3250  0.4034
  597MOL0     C80465  10.675   0.436   4.973  0.4778  0.4005  0.8946
  597MOL0     C80466  10.581   0.353   4.910  0.1982  0.5504  0.0037
  597MOL0     C80467  10.590   0.215   4.920  0.0708 -0.1300  0.1779
  597MOL0     O80468  10.483   0.144   4.871 -0.8920  0.1282 -0.1045
  597MOL0     C80469  10.490  -0.003   4.878 -0.0306  0.4862  0.0155
  597MOL0     C80470  10.352  -0.052   4.833  0.0780 -0.2954 -0.0906
  597MOL0     C80471  10.338  -0.204   4.841 -0.2082 -0.3968 -0.0248
  597MOL0     C80472  10.298  -0.279   4.717  0.5911 -0.7942 -0.0123
  597MOL0     C80473  10.249  -0.414   4.751 -0.4183  0.8175 -0.3066
  597MOL0     C80474  10.222  -0.509   4.628  0.6856 -0.6988 -0.7578
  597MOL0     C80475  10.154  -0.644   4.671 -0.6673 -0.5497  0.6819
  597MOL0     C80476  10.252  -0.768   4.651 -0.3342  0.3947  0.4042
  597MOL0     N80477  10.207  -0.899   4.699  0.3846  0.4457 -0.5237
  597MOL0     C80478  10.182  -0.929   4.833  0.1915 -1.0358  0.1927
  597MOL0     C80479  10.157  -1.061   4.833  0.3601  0.2788 -0.8482
  597MOL0     C80480  10.098  -1.145   4.947 -0.0695 -0.4676  0.8761
  597MOL0     C80481  10.175  -1.155   5.074 -0.5851 -0.0243 -0.2202
  597MOL0     C80482  10.120  -1.253   5.170  1.0368 -0.9918 -0.6835
  597MOL0     C80483  10.001  -1.196   5.231  0.2939 -0.3162 -0.1126
  597MOL0     O80484   9.961  -1.268   5.345  0.0294  0.0132 -0.4607
  597MOL0     C80485   9.865  -1.373   5.340 -0.0610  0.5546  0.1993
  597MOL0     C80486   9.810  -1.433   5.223 -0.8654 -0.2843  0.3771
  597MOL0     C80487   9.705  -1.521   5.230  0.4453  0.3255  0.0024
  597MOL0     C80488   9.657  -1.583   5.101  0.2408  0.0588  0.6547
  597MOL0     C80489   9.642  -1.554   5.352  0.4540 -1.0157 -0.1024
  597MOL0     C80490   9.517  -1.638   5.364  0.0104 -0.6021  0.3596
  597MOL0     O80491   9.495  -1.733   5.274 -0.0557 -0.4361  0.5748
  597MOL0     C80492   9.368  -1.801   5.292  0.3842  0.2110  0.6651
  597MOL0     C80493   9.343  -1.893   5.398  0.1586  1.1600  0.4418
  597MOL0     C80494   9.214  -1.945   5.405  0.0206 -0.0442 -0.1764
  597MOL0     C80495   9.110  -1.909   5.306  0.0684  0.5568 -0.2847
  597MOL0     O80496   8.996  -1.966   5.275  0.1090  0.1712 -0.4583
  597MOL0     C80497   8.939  -2.037   5.390  0.0616  0.1278  0.5550
  597MOL0     C80498   8.977  -2.187   5.399  0.2921  0.3399 -0.4946
  597MOL0     C80499   8.969  -2.242   5.541  0.6477 -0.2882  0.1934
  597MOL0     C80500   8.961  -2.390   5.537  0.4896  0.3445  0.4112
  597MOL0     C80501   8.821  -2.452   5.537  0.4457 -0.0084  0.3701
  597MOL0     C80502   8.739  -2.408   5.655 -0.4247 -0.5309 -0.6113
  597MOL0     C80503   8.618  -2.491   5.675  0.2450  0.3149 -0.6129
  597MOL0     C80504   8.526  -2.420   5.783  0.3898 -0.4857 -0.7242
  597MOL0    Cl80505   8.359  -2.461   5.746 -0.1360  0.2581 -0.5273
  597MOL0     C80506   9.136  -1.816   5.204  0.5485 -0.0605 -0.2739
  597MOL0     C80507   9.268  -1.770   5.194  0.3010  0.0960 -0.5192
  597MOL0     O80508   9.440  -1.609   5.452  0.1090  0.4342 -0.8732
  597MOL0     C80509   9.710  -1.511   5.466  0.1121 -0.6388  0.3051
  597MOL0     C80510   9.810  -1.415   5.452  0.4582 -0.0944 -0.9692
  597MOL0     N80511  10.181  -1.117   4.713  0.7744 -0.6002  0.1922
  597MOL0     N80512  10.203  -1.021   4.628 -0.0360 -0.8825 -0.8474
  597MOL0     C80513  10.699   0.168   4.989 -0.6949  0.3639  0.0251
  597MOL0     C80514  10.782   0.247   5.067 -0.3548  0.6622 -0.1347
  597MOL0     C80515  11.005   0.589   5.266 -0.3456 -0.3009  1.2550
  597MOL0     C80516  11.148   0.622   5.267  0.1594 -0.5230 -0.2590
  597MOL0     C80517  11.180   0.712   5.372  0.1745 -0.1866 -0.2841
  597MOL0     C80518  11.088   0.771   5.459  0.3104  0.0339  0.5181
  597MOL0     O80519  11.111   0.856   5.561  0.1822  0.7052 -0.7625
  597MOL0     C80520  11.245   0.904   5.578  0.6243 -0.3472 -0.1854
  597MOL0     C80521  11.274   0.958   5.722 -0.3986  0.0782 -0.7340
  597MOL0     C80522  11.398   0.892   5.790  1.1302 -0.7694  0.6304
  597MOL0     C80523  11.438   0.978   5.912  0.0329 -0.6271 -0.6980
  597MOL0     C80524  11.341   0.973   6.023 -0.2937  0.1512 -0.1909
  597MOL0     C80525  11.263   0.967   6.124  0.4031  0.9026  0.1226
  597MOL0     C80526  10.961   0.730   5.455 -0.8533 -0.1573 -0.9033
  597MOL0     C80527  10.909   0.638   5.356 -0.5738  0.3531  0.7379
  597MOL0     H80528  10.665   0.544   4.974 -0.2158  0.3444  2.7118
  597MOL0     H80529  10.510   0.390   4.836  0.5208  0.3030 -0.4377
  597MOL0     H80530  10.576  -0.046   4.827 -1.4319 -3.4568  0.6390
  597MOL0     H80531  10.511  -0.024   4.983 -0.2363 -2.4063 -0.4599
  597MOL0     H80532  10.277  -0.011   4.901 -0.2091 -2.9192  1.3185
  597MOL0     H80533  10.325  -0.025   4.731 -2.6245 -1.7630  0.1574
  597MOL0     H80534  10.436  -0.245   4.868 -0.8515 -0.9509  1.6436
  597MOL0     H80535  10.269  -0.223   4.924 -0.5273  0.2398 -0.1372
  597MOL0     H80536  10.218  -0.226   4.664  1.5366 -2.5407 -3.4734
  597MOL0     H80537  10.380  -0.273   4.644  0.6706 -3.6920 -0.2521
  597MOL0     H80538  10.322  -0.458   4.819 -0.7128 -0.4330 -0.7723
  597MOL0     H80539  10.154  -0.408   4.805 -1.3319 -2.2604 -1.3599
  597MOL0     H80540  10.159  -0.441   4.570 -0.1444 -1.6899 -1.0349
  597MOL0     H80541  10.316  -0.534   4.579 -0.9589 -1.0927 -3.9999
  597MOL0     H80542  10.103  -0.647   4.768  1.1809 -0.7472  1.6939
  597MOL0     H80543  10.077  -0.667   4.596  2.2630 -4.8647 -1.4314
  597MOL0     H80544  10.345  -0.732   4.697 -1.6493  2.7118  1.4140
  597MOL0     H80545  10.271  -0.791   4.546 -2.4883 -3.2668  0.6322
  597MOL0     H80546  10.188  -0.869   4.923  1.4544  0.4233 -0.8135
  597MOL0     H80547  10.001  -1.104   4.977  0.4001  0.3834  1.2758
  597MOL0     H80548  10.081  -1.246   4.908  2.9447 -1.3228  1.5175
  597MOL0     H80549  10.183  -1.056   5.120 -1.6669  0.1797 -0.4289
  597MOL0     H80550  10.272  -1.197   5.045  0.3955  0.7387  1.7563
  597MOL0     H80551  10.194  -1.275   5.247  0.8920 -4.7206 -1.4097
  597MOL0     H80552  10.103  -1.348   5.118  1.9780 -0.9425 -1.1018
  597MOL0     H80553   9.919  -1.182   5.160 -0.7630 -2.6801  0.5522
  597MOL0     H80554  10.032  -1.099   5.272  0.7704 -0.6300  0.2858
  597MOL0     H80555   9.849  -1.397   5.128 -0.7768 -0.9804  0.1446
  597MOL0     H80556   9.673  -1.691   5.089 -0.5164 -0.2216  1.9797
  597MOL0     H80557   9.548  -1.575   5.093  0.2286 -0.6086 -0.0039
  597MOL0     H80558   9.712  -1.540   5.017 -0.2245 -1.0631 -0.2577
  597MOL0     H80559   9.433  -1.922   5.450  0.0431 -0.6978 -0.3064
  597MOL0     H80560   9.193  -2.018   5.483  0.6082  0.5061  0.5028
  597MOL0     H80561   8.955  -1.990   5.488  2.3722 -0.7679  0.6571
  597MOL0     H80562   8.830  -2.033   5.378 -0.0247 -0.0306  1.2017
  597MOL0     H80563   8.919  -2.244   5.326  2.5248 -1.2460 -1.1488
  597MOL0     H80564   9.084  -2.192   5.376  0.7354 -1.0189  1.5873
  597MOL0     H80565   8.893  -2.187   5.598  3.5985  2.0910  2.1819
  597MOL0     H80566   9.061  -2.214   5.594  0.6545 -1.0670  0.6009
  597MOL0     H80567   9.022  -2.431   5.456  2.2737 -2.0739  2.7993
  597MOL0     H80568   9.007  -2.426   5.629  1.7237 -0.9212 -0.6558
  597MOL0     H80569   8.835  -2.560   5.542  2.7073  0.2632  1.9030
  597MOL0     H80570   8.765  -2.427   5.447 -2.9615 -0.3135  2.2576
  597MOL0     H80571   8.804  -2.416   5.743 -0.5041  0.6940 -0.4323
  597MOL0     H80572   8.714  -2.302   5.651 -2.1412 -0.9359 -3.6534
  597MOL0     H80573   8.642  -2.596   5.697  1.0817  0.3553 -1.2756
  597MOL0     H80574   8.559  -2.484   5.583 -0.6797 -2.1743 -0.3041
  597MOL0     H80575   8.521  -2.313   5.762 -3.2250 -0.5676 -0.9929
  597MOL0     H80576   8.544  -2.443   5.888  0.3103 -4.1139 -1.3822
  597MOL0     H80577   9.054  -1.794   5.137 -1.7277 -2.8597  1.3866
  597MOL0     H80578   9.281  -1.689   5.123 -1.4774  0.4766 -0.4591
  597MOL0     H80579   9.682  -1.546   5.565  2.5759 -0.6236  1.0718
  597MOL0     H80580   9.855  -1.363   5.537 -2.2018  0.0223  0.4843
  597MOL0     H80581  10.714   0.063   5.013 -1.5774  0.8168  2.9822
  597MOL0     H80582  10.852   0.207   5.139  1.1280  1.8511 -0.8710
  597MOL0     H80583  11.215   0.579   5.193 -0.8781 -1.5919 -0.6047
  597MOL0     H80584  11.283   0.747   5.378 -0.6817  2.8766 -1.5808
  597MOL0     H80585  11.323   0.836   5.542  2.9121  2.6612 -1.4846
  597MOL0     H80586  11.254   0.987   5.507 -1.4490  1.4729  1.5424
  597MOL0     H80587  11.191   0.927   5.786  0.5407 -0.1465  0.4080
  597MOL0     H80588  11.263   1.067   5.729  4.0709  0.7498 -1.0867
  597MOL0     H80589  11.478   0.874   5.717 -0.1038 -2.0557 -0.4480
  597MOL0     H80590  11.376   0.793   5.833 -2.5201 -0.6124 -0.5787
  597MOL0     H80591  11.446   1.084   5.887 -0.7678 -0.0583  1.2567
  597MOL0     H80592  11.541   0.963   5.944  0.7344  0.1110 -2.4601
  597MOL0     H80593  11.199   0.955   6.208  1.7358 -2.4363  0.8199
  597MOL0     H80594  10.888   0.780   5.518 -1.1889  0.0652 -1.4659
  597MOL0     H80595  10.808   0.598   5.356 -0.1471 -1.0472 -2.5570
  598MOL0     O80596   7.979   2.973   0.926  0.0442 -0.0203 -0.0377
  598MOL0     C80597   7.953   3.091   0.940 -0.0797 -0.4103 -1.1901
  598MOL0     O80598   8.036   3.185   0.985  0.2974  0.6928 -0.1066
  598MOL0     C80599   8.156   3.137   1.046  0.1278 -0.4874  1.6985
  598MOL0     C80600   8.168   3.037   1.143 -0.5487 -0.2563 -0.1151
  598MOL0     C80601   8.279   3.037   1.221  0.0069  0.1509 -0.6175
  598MOL0     C80602   8.389   3.126   1.190 -0.6409 -0.2447 -0.6378
  598MOL0     O80603   8.503   3.120   1.260 -0.1959 -0.6529 -0.6434
  598MOL0     C80604   8.537   3.006   1.336  1.3906 -0.2584  0.3185
  598MOL0     C80605   8.564   2.890   1.243 -0.1333 -0.1945 -0.0804
  598MOL0     C80606   8.618   2.779   1.333  0.0280 -0.8523 -0.3174
  598MOL0     C80607   8.684   2.669   1.252 -0.0690  0.3946 -0.4077
  598MOL0     C80608   8.697   2.537   1.327  0.0657 -0.1651 -0.0201
  598MOL0     C80609   8.729   2.419   1.236  0.3291  0.6280 -0.2064
  598MOL0     C80610   8.702   2.289   1.315  0.6175 -0.0487  0.2066
  598MOL0     C80611   8.753   2.166   1.240 -0.2101  0.1021 -0.5907
  598MOL0     N80612   8.643   2.091   1.173  0.3498  0.0273  0.0806
  598MOL0     C80613   8.559   1.992   1.211  0.5309 -0.5331 -0.8147
  598MOL0     C80614   8.475   1.959   1.111  0.1626 -0.0232 -0.7453
  598MOL0     C80615   8.350   1.869   1.136 -0.0381 -0.1817 -0.4402
  598MOL0     C80616   8.226   1.950   1.100 -0.3514 -0.0155 -0.4556
  598MOL0     C80617   8.094   1.909   1.169  0.0602  1.1958  0.6741
  598MOL0     C80618   8.002   2.028   1.185 -0.2400  0.0434  0.2068
  598MOL0     O80619   7.932   2.031   1.066 -0.6130  0.1708 -0.4060
  598MOL0     C80620   7.860   2.147   1.033  0.5527  1.6673 -0.1603
  598MOL0     C80621   7.732   2.173   1.080  0.2299 -0.7303  0.2802
  598MOL0     C80622   7.667   2.285   1.037 -1.3481 -1.0396  0.8166
  598MOL0     C80623   7.517   2.292   1.066 -0.0505 -0.4116  0.0183
  598MOL0     C80624   7.733   2.384   0.954  0.4123 -0.2396  0.5879
  598MOL0     C80625   7.664   2.520   0.913  0.8178  0.2565  0.2450
  598MOL0     O80626   7.739   2.597   0.824  0.6748  0.0700  0.0135
  598MOL0     C80627   7.677   2.703   0.751 -1.0633  0.0540 -0.7265
  598MOL0     C80628   7.766   2.797   0.710  0.2253  0.2426 -0.4642
  598MOL0     C80629   7.722   2.903   0.637 -0.6353 -0.8069 -0.0997
  598MOL0     C80630   7.594   2.930   0.604 -0.2533 -0.3342 -1.0710
  598MOL0     O80631   7.544   3.040   0.537  0.8061  0.4949  0.3944
  598MOL0     C80632   7.621   3.165   0.557  0.3622 -0.0192 -0.3138
  598MOL0     C80633   7.565   3.289   0.490  0.7957 -0.5599 -0.5754
  598MOL0     C80634   7.424   3.314   0.560  0.1538  0.1158 -0.0795
  598MOL0     C80635   7.374   3.444   0.491  0.6571 -0.2174 -0.1253
  598MOL0     C80636   7.240   3.496   0.530 -0.3010 -0.3130  0.2302
  598MOL0     C80637   7.129   3.401   0.478 -0.2129  0.1847  0.1449
  598MOL0     C80638   7.002   3.438   0.558  0.0057  0.1741  0.0815
  598MOL0     C80639   6.863   3.367   0.521 -0.3748  0.3180 -0.6336
  598MOL0    Cl80640   6.822   3.391   0.344 -0.3062 -0.6733 -0.3821
  598MOL0     C80641   7.501   2.840   0.667  0.3528 -0.4699  0.2977
  598MOL0     C80642   7.540   2.735   0.744 -0.1151  0.4728  0.2195
  598MOL0     O80643   7.553   2.552   0.958  0.0016  0.1462 -0.1326
  598MOL0     C80644   7.865   2.350   0.905  0.3760  0.3919  0.2809
  598MOL0     C80645   7.923   2.230   0.949 -0.3130  0.6619  0.1677
  598MOL0     N80646   8.512   2.044   1.009  1.1225  0.2174  0.3959
  598MOL0     N80647   8.602   2.129   1.052 -0.0488  1.1405  0.4620
  598MOL0     C80648   8.389   3.203   1.072 -0.4375 -0.0935 -0.8057
  598MOL0     C80649   8.267   3.207   1.005 -0.9561 -1.0189  0.5795
  598MOL0     C80650   7.818   3.135   0.917  0.1099 -0.4945  0.5997
  598MOL0     C80651   7.709   3.056   0.958  0.4390  0.4036 -0.5545
  598MOL0     C80652   7.577   3.106   0.948 -0.6429 -0.5339 -0.8585
  598MOL0     C80653   7.545   3.235   0.912 -0.1403 -0.1528  0.2030
  598MOL0     O80654   7.418   3.294   0.908 -0.3312  0.8253  0.4646
  598MOL0     C80655   7.339   3.236   1.022 -0.5051 -0.3893  0.8781
  598MOL0     C80656   7.225   3.338   1.056  0.3926  0.2853 -0.6707
  598MOL0     C80657   7.115   3.359   0.949 -0.3772 -0.7515 -0.3292
  598MOL0     C80658   6.980   3.420   0.992  0.5075 -0.0165  0.9207
  598MOL0     C80659   7.012   3.550   1.045  0.5443 -0.4834  0.2997
  598MOL0     C80660   7.029   3.654   1.096  0.5063 -0.0558 -0.3048
  598MOL0     C80661   7.658   3.315   0.869 -0.0584  0.1716  1.0651
  598MOL0     C80662   7.790   3.266   0.869 -0.3443  0.2986  0.4197
  598MOL0     H80663   8.091   2.973   1.183 -1.6975  1.9138  1.3369
  598MOL0     H80664   8.274   2.979   1.313 -5.3584  0.7528 -0.2616
  598MOL0     H80665   8.627   3.033   1.393  1.9571  0.2038 -0.7758
  598MOL0     H80666   8.459   2.981   1.410 -1.6711  0.7334 -2.3406
  598MOL0     H80667   8.472   2.853   1.197  1.0503  0.1621 -2.9581
  598MOL0     H80668   8.624   2.921   1.157 -1.9647  2.4300 -0.5400
  598MOL0     H80669   8.697   2.830   1.390 -0.9427 -0.2698  0.5450
  598MOL0     H80670   8.548   2.739   1.406 -1.8556 -0.1200 -1.6497
  598MOL0     H80671   8.637   2.662   1.153  1.0456  3.1009 -1.2184
  598MOL0     H80672   8.780   2.705   1.214 -0.5840  3.7695  1.2021
  598MOL0     H80673   8.784   2.547   1.393 -0.7623 -0.3551  1.1220
  598MOL0     H80674   8.613   2.514   1.394  1.1296 -0.5595  1.2225
  598MOL0     H80675   8.667   2.431   1.146  1.2772  0.0239 -0.9613
  598MOL0     H80676   8.835   2.415   1.209  0.1217 -2.2697 -0.8822
  598MOL0     H80677   8.749   2.298   1.413  0.7168  4.1717 -0.0578
  598MOL0     H80678   8.594   2.278   1.326  0.3255  0.6080 -1.5578
  598MOL0     H80679   8.786   2.116   1.332 -1.8381  3.9670  2.3930
  598MOL0     H80680   8.842   2.178   1.178  1.3311 -0.9412  1.3051
  598MOL0     H80681   8.563   1.960   1.315 -1.8565  0.3411 -0.3903
  598MOL0     H80682   8.368   1.779   1.077  0.7431 -0.7491  0.6171
  598MOL0     H80683   8.347   1.846   1.243  0.7641  1.9085  0.0854
  598MOL0     H80684   8.210   1.939   0.993 -1.1568  1.1290 -0.4687
  598MOL0     H80685   8.251   2.054   1.123  4.3526 -0.6910 -1.5599
  598MOL0     H80686   8.114   1.877   1.272 -0.3412 -1.1802  0.0878
  598MOL0     H80687   8.051   1.824   1.116 -1.2336  0.4613  2.7782
  598MOL0     H80688   8.058   2.120   1.207  0.5235 -0.4395  0.3138
  598MOL0     H80689   7.926   2.011   1.261 -0.6720 -1.2817 -0.4798
  598MOL0     H80690   7.679   2.103   1.144 -2.4181  2.2512  1.6507
  598MOL0     H80691   7.506   2.375   1.136  0.5530  0.1358 -0.5131
  598MOL0     H80692   7.452   2.292   0.978  1.3257 -0.6697 -1.0526
  598MOL0     H80693   7.482   2.215   1.135 -4.5211  0.1105 -1.3584
  598MOL0     H80694   7.872   2.779   0.723 -0.1899 -0.6940  2.3247
  598MOL0     H80695   7.795   2.968   0.590 -1.6082  0.7202  0.4108
  598MOL0     H80696   7.632   3.182   0.664 -2.6682 -0.5965  0.1856
  598MOL0     H80697   7.721   3.144   0.518 -1.3376 -3.9143 -3.2827
  598MOL0     H80698   7.640   3.367   0.502  0.2679 -0.3187  1.4444
  598MOL0     H80699   7.563   3.289   0.380  2.3313 -1.1192 -0.6150
  598MOL0     H80700   7.426   3.316   0.670  0.7114 -2.8602  0.0520
  598MOL0     H80701   7.348   3.237   0.544  2.1910 -2.2944  1.0128
  598MOL0     H80702   7.432   3.535   0.511 -1.9253  1.2128  1.3327
  598MOL0     H80703   7.374   3.437   0.382 -0.4499 -1.2616 -0.0823
  598MOL0     H80704   7.229   3.595   0.484  1.0141  0.9754  2.4881
  598MOL0     H80705   7.231   3.512   0.638 -2.7390 -2.9108  0.5168
  598MOL0     H80706   7.114   3.422   0.372  5.0693 -0.4215 -0.9620
  598MOL0     H80707   7.153   3.297   0.501  2.8419  1.0235  1.1293
  598MOL0     H80708   6.988   3.546   0.549 -3.0017 -0.1296  0.1461
  598MOL0     H80709   7.009   3.409   0.663  0.3419  1.5608  0.4598
  598MOL0     H80710   6.785   3.408   0.585 -0.2998 -2.3615  1.3274
  598MOL0     H80711   6.876   3.259   0.532  1.6781  0.5929  0.0288
  598MOL0     H80712   7.397   2.861   0.645 -0.2119 -0.4301  2.7789
  598MOL0     H80713   7.466   2.670   0.789  1.4869 -1.8863 -0.3869
  598MOL0     H80714   7.926   2.404   0.833 -3.2150 -1.8023 -5.0173
  598MOL0     H80715   8.018   2.202   0.903 -1.4334  0.6533 -2.3314
  598MOL0     H80716   8.463   3.280   1.050 -2.9732  2.7577 -0.1297
  598MOL0     H80717   8.263   3.286   0.931 -1.5528 -0.0500  1.6285
  598MOL0     H80718   7.725   2.953   0.987 -1.6518 -0.2285 -1.4252
  598MOL0     H80719   7.498   3.034   0.969 -1.5515  0.7481  0.2709
  598MOL0     H80720   7.301   3.136   1.000 -1.0933  0.0533 -0.2202
  598MOL0     H80721   7.405   3.231   1.109  1.3510 -0.3131 -0.4382
  598MOL0     H80722   7.277   3.427   1.092  3.0400 -1.6485  0.6003
  598MOL0     H80723   7.170   3.297   1.142  0.2922 -2.1349 -1.8010
  598MOL0     H80724   7.088   3.263   0.905  0.7094 -1.0037 -0.4669
  598MOL0     H80725   7.154   3.423   0.869 -1.4723 -1.2476 -1.2800
  598MOL0     H80726   6.930   3.363   1.072 -4.8242 -1.6481 -2.9700
  598MOL0     H80727   6.915   3.426   0.904  0.5407  0.3062  0.9193
  598MOL0     H80728   7.037   3.758   1.122 -0.8697  0.3544 -1.3539
  598MOL0     H80729   7.659   3.417   0.833  1.3897 -0.0704  0.3402
  598MOL0     H80730   7.863   3.339   0.836 -0.8258  0.6057  0.0287
  599MOL0     O80731   8.617   0.216   0.071  0.3031  0.3891 -0.3210
  599MOL0     C80732   8.614   0.100   0.028 -0.2622 -0.0811 -0.0093
  599MOL0     O80733   8.513   0.058  -0.049  0.0757  0.2627  0.3168
  599MOL0     C80734   8.405   0.145  -0.074 -0.4358 -0.0312  0.8958
  599MOL0     C80735   8.280   0.112  -0.024 -0.6418  0.0020  0.5493
  599MOL0     C80736   8.177   0.197  -0.067 -0.3638  0.9973 -0.1263
  599MOL0     C80737   8.183   0.309  -0.140 -0.3541  0.5741 -0.1835
  599MOL0     O80738   8.084   0.387  -0.183  0.0480 -0.4827  0.9364
  599MOL0     C80739   7.955   0.380  -0.132 -0.7486  0.6893  0.6651
  599MOL0     C80740   7.850   0.458  -0.212 -0.1878  0.3458 -0.5435
  599MOL0     C80741   7.873   0.459  -0.362 -0.6520 -0.6771  1.0984
  599MOL0     C80742   7.783   0.559  -0.437  0.5831 -0.1370 -0.4439
  599MOL0     C80743   7.636   0.526  -0.423 -0.1058 -0.2997 -0.4841
  599MOL0     C80744   7.556   0.636  -0.500  0.3911 -0.6925 -0.0539
  599MOL0     C80745   7.555   0.608  -0.651  0.3348 -0.4574 -0.2680
  599MOL0     C80746   7.428   0.659  -0.718 -0.7911 -0.2796  0.0085
  599MOL0     N80747   7.321   0.571  -0.691  0.1109  1.0690 -0.9418
  599MOL0     C80748   7.292   0.441  -0.739  0.4107  0.0260 -0.8304
  599MOL0     C80749   7.191   0.387  -0.671 -0.2513 -0.0120 -0.4560
  599MOL0     C80750   7.114   0.266  -0.691 -0.1574 -0.5334 -0.8973
  599MOL0     C80751   7.090   0.183  -0.562  0.8585  0.8246  0.3270
  599MOL0     C80752   7.212   0.108  -0.516  0.6412  0.1435  0.2307
  599MOL0     C80753   7.192   0.027  -0.390  0.0402  0.3907 -0.5104
  599MOL0     O80754   7.309  -0.045  -0.360  0.2728  0.6349 -0.5471
  599MOL0     C80755   7.305  -0.114  -0.238 -0.4890 -0.5203 -0.1508
  599MOL0     C80756   7.186  -0.118  -0.145  0.3952  0.3179  0.2069
  599MOL0     C80757   7.201  -0.193  -0.028 -0.3754  0.3619  0.1446
  599MOL0     C80758   7.079  -0.186   0.067 -0.0524  0.7871 -0.1312
  599MOL0     C80759   7.322  -0.262   0.002 -0.1006 -0.6269 -0.1619
  599MOL0     C80760   7.345  -0.332   0.117  0.9987 -0.1419 -1.2224
  599MOL0     O80761   7.477  -0.369   0.144  0.0456 -0.4265 -0.3067
  599MOL0     C80762   7.502  -0.444   0.252 -0.3719 -0.1410 -1.1075
  599MOL0     C80763   7.567  -0.391   0.366  0.1802  0.6048  0.5280
  599MOL0     C80764   7.608  -0.469   0.467 -0.2602  0.4195  0.1693
  599MOL0     C80765   7.600  -0.615   0.450 -1.0650  0.4550  0.2368
  599MOL0     O80766   7.661  -0.699   0.548 -0.5794  0.1412  0.3505
  599MOL0     C80767   7.609  -0.834   0.562 -0.8033 -0.2324  0.7992
  599MOL0     C80768   7.701  -0.929   0.642 -0.2531  1.0884  0.0730
  599MOL0     C80769   7.627  -1.064   0.666 -0.6232  0.6486  0.1124
  599MOL0     C80770   7.682  -1.157   0.775 -0.5947  0.0321 -0.8611
  599MOL0     C80771   7.581  -1.266   0.794  0.0089 -0.0155 -0.2934
  599MOL0     C80772   7.630  -1.360   0.903 -0.3964 -0.7361  0.2254
  599MOL0     C80773   7.507  -1.440   0.944 -0.1455  0.1706 -0.1508
  599MOL0     C80774   7.532  -1.545   1.057  0.1824 -0.7601 -0.7734
  599MOL0    Cl80775   7.513  -1.452   1.206  0.6775  0.1360 -0.3922
  599MOL0     C80776   7.526  -0.667   0.337 -1.3017  0.3742  1.4183
  599MOL0     C80777   7.477  -0.582   0.245  0.6571 -0.6957 -0.3377
  599MOL0     O80778   7.250  -0.352   0.193 -0.7609  0.1082  0.5686
  599MOL0     C80779   7.423  -0.252  -0.092 -0.6475 -0.3398  0.8277
  599MOL0     C80780   7.423  -0.180  -0.207  0.3602 -0.1984 -0.0583
  599MOL0     N80781   7.159   0.478  -0.583  0.5110  0.2957 -0.9136
  599MOL0     N80782   7.226   0.591  -0.596  0.1622 -0.1994  0.2994
  599MOL0     C80783   8.306   0.337  -0.195 -0.4615  0.3539  0.3209
  599MOL0     C80784   8.414   0.254  -0.164 -0.6245 -0.2830  0.2559
  599MOL0     C80785   8.737   0.018   0.067 -0.3071  0.1393  0.1577
  599MOL0     C80786   8.725  -0.118   0.060 -0.3182  0.0789  0.3175
  599MOL0     C80787   8.821  -0.207   0.114  0.3336 -0.1760 -0.0917
  599MOL0     C80788   8.938  -0.143   0.159  1.1100 -0.3197  0.1068
  599MOL0     O80789   9.024  -0.232   0.225 -0.8420 -0.3675  0.1506
  599MOL0     C80790   9.161  -0.191   0.244  0.3796 -0.9395 -0.2304
  599MOL0     C80791   9.231  -0.306   0.316 -0.5589  0.3171 -1.0103
  599MOL0     C80792   9.221  -0.458   0.262 -0.7998 -0.2174  0.0863
  599MOL0     C80793   9.345  -0.495   0.179  0.2033  0.2231  0.0879
  599MOL0     C80794   9.397  -0.395   0.081  0.7280 -1.0480 -0.2793
  599MOL0     C80795   9.405  -0.317  -0.024  0.0451  0.7433  0.3098
  599MOL0     C80796   8.961  -0.006   0.146  0.8755  0.3989 -0.5602
  599MOL0     C80797   8.854   0.078   0.101 -0.0891  0.0370 -0.0309
  599MOL0     H80798   8.259   0.028   0.042 -2.9466 -0.4412 -0.6311
  599MOL0     H80799   8.083   0.173  -0.017 -0.1960  1.0786  0.2296
  599MOL0     H80800   7.920   0.277  -0.140 -2.2202  1.0735  1.8179
  599MOL0     H80801   7.936   0.407  -0.028 -1.8226  0.9168  0.4156
  599MOL0     H80802   7.748   0.421  -0.197 -1.4713  2.7472 -2.5255
  599MOL0     H80803   7.856   0.561  -0.175  0.1426  0.5324 -1.1073
  599MOL0     H80804   7.976   0.478  -0.394 -0.6206 -1.3252  0.8024
  599MOL0     H80805   7.837   0.371  -0.415  0.1103  1.0462 -2.6111
  599MOL0     H80806   7.786   0.660  -0.395 -4.1018  1.2397 -2.6796
  599MOL0     H80807   7.808   0.567  -0.543 -1.1966 -0.7227 -0.9394
  599MOL0     H80808   7.622   0.429  -0.472 -1.6334  0.1161 -0.9113
  599MOL0     H80809   7.595   0.516  -0.322 -3.1873 -2.2813 -1.7880
  599MOL0     H80810   7.453   0.623  -0.467  0.7174 -0.2383  1.1869
  599MOL0     H80811   7.587   0.737  -0.472 -1.5809 -0.9071  3.4069
  599MOL0     H80812   7.634   0.665  -0.701 -1.7900  1.3516 -1.8186
  599MOL0     H80813   7.568   0.500  -0.662  1.5597 -0.1558 -2.2225
  599MOL0     H80814   7.445   0.672  -0.826 -2.1828 -0.0789 -0.2007
  599MOL0     H80815   7.415   0.759  -0.676  1.1486  0.3276 -0.6942
  599MOL0     H80816   7.333   0.401  -0.832  1.8707  2.5389 -1.3790
  599MOL0     H80817   7.020   0.291  -0.741 -0.3879 -5.1301 -3.2962
  599MOL0     H80818   7.168   0.216  -0.773 -0.3770 -2.3098 -0.0066
  599MOL0     H80819   6.997   0.126  -0.571  0.4023  1.3503  1.5250
  599MOL0     H80820   7.061   0.252  -0.483 -0.1101  0.1240  0.6056
  599MOL0     H80821   7.287   0.186  -0.498 -1.5667  3.3308 -2.8991
  599MOL0     H80822   7.252   0.035  -0.587  1.2899  0.6508  0.0663
  599MOL0     H80823   7.102  -0.034  -0.379  0.1349  0.6257  2.4397
  599MOL0     H80824   7.186   0.108  -0.316 -0.7513  0.7829 -0.9879
  599MOL0     H80825   7.102  -0.053  -0.165 -1.9729 -2.4293  0.5446
  599MOL0     H80826   7.020  -0.100   0.033 -1.3127  0.6979  1.6829
  599MOL0     H80827   7.021  -0.277   0.052  2.1846 -0.9469  1.1056
  599MOL0     H80828   7.088  -0.172   0.175 -0.2895 -1.6372  0.2493
  599MOL0     H80829   7.575  -0.283   0.367  0.8417  0.8479 -4.7955
  599MOL0     H80830   7.667  -0.423   0.545  2.1366 -1.7140 -0.2410
  599MOL0     H80831   7.509  -0.823   0.605  0.0837  0.3334  2.8459
  599MOL0     H80832   7.587  -0.884   0.467 -1.7179  0.3733  0.6777
  599MOL0     H80833   7.790  -0.963   0.587 -0.8882 -1.6457  0.5978
  599MOL0     H80834   7.731  -0.882   0.736 -1.2165 -0.9222  1.4657
  599MOL0     H80835   7.630  -1.124   0.574  0.9523  0.9355 -0.0437
  599MOL0     H80836   7.524  -1.034   0.687 -0.0967  1.8740  1.0025
  599MOL0     H80837   7.781  -1.191   0.742 -0.6265 -0.1249 -0.7943
  599MOL0     H80838   7.697  -1.104   0.869 -1.0008 -1.1432 -0.1196
  599MOL0     H80839   7.570  -1.311   0.695 -0.6769  2.2537 -1.3145
  599MOL0     H80840   7.489  -1.210   0.814  0.5712  0.5540  0.7693
  599MOL0     H80841   7.712  -1.424   0.868  1.4098  2.5907 -2.2079
  599MOL0     H80842   7.663  -1.295   0.984 -0.5729 -0.4927  0.1056
  599MOL0     H80843   7.468  -1.495   0.858 -1.0468 -3.3394  2.2851
  599MOL0     H80844   7.434  -1.367   0.979  2.0873  2.0934  0.7911
  599MOL0     H80845   7.627  -1.598   1.048 -0.4303 -1.9165 -0.7183
  599MOL0     H80846   7.462  -1.630   1.052 -0.9592  0.0888  0.1066
  599MOL0     H80847   7.523  -0.769   0.300  1.2720  0.4346  0.8795
  599MOL0     H80848   7.439  -0.621   0.151  0.4806 -1.3425  0.0028
  599MOL0     H80849   7.524  -0.288  -0.076 -1.1197 -1.3949  1.5965
  599MOL0     H80850   7.512  -0.162  -0.265  2.6163  0.2716  3.2522
  599MOL0     H80851   8.322   0.414  -0.270 -1.3216 -1.1387 -1.4758
  599MOL0     H80852   8.513   0.270  -0.205  0.1522 -3.6074  0.5265
  599MOL0     H80853   8.631  -0.156   0.021 -1.8432  3.8292 -0.0729
  599MOL0     H80854   8.804  -0.313   0.106 -0.3567 -0.0075 -1.1267
  599MOL0     H80855   9.199  -0.174   0.143 -1.0142  0.6049 -0.5320
  599MOL0     H80856   9.177  -0.097   0.298  2.3153 -0.9341 -0.7336
  599MOL0     H80857   9.182  -0.299   0.414  2.5971  1.1877  0.6581
  599MOL0     H80858   9.335  -0.287   0.343  0.4358 -3.1440 -1.8347
  599MOL0     H80859   9.132  -0.472   0.200  0.2199  1.2040 -1.8183
  599MOL0     H80860   9.206  -0.525   0.347  1.2205 -0.9896 -0.1043
  599MOL0     H80861   9.347  -0.600   0.149  1.8896 -0.0679  1.0753
  599MOL0     H80862   9.425  -0.489   0.254 -0.3869 -2.0594  0.9925
  599MOL0     H80863   9.411  -0.255  -0.111  2.1528 -1.2305 -1.0794
  599MOL0     H80864   9.052   0.037   0.188  2.4901 -2.2931 -1.1058
  599MOL0     H80865   8.866   0.184   0.084 -4.9573  1.0896  1.5166
  600MOL0     O80866   2.159   9.781   5.956 -1.2412  0.0940  0.3266
  600MOL0     C80867   2.185   9.690   5.876 -0.1385 -0.1908 -0.0838
  600MOL0     O80868   2.170   9.704   5.741 -0.8250  0.2344 -0.6633
  600MOL0     C80869   2.140   9.821   5.684 -0.9958 -0.5934  0.4849
  600MOL0     C80870   2.033   9.898   5.722  0.0153  0.9873 -0.9059
  600MOL0     C80871   2.004  10.013   5.648 -0.2228  0.3156  0.7965
  600MOL0     C80872   2.097  10.057   5.549  0.1147 -0.9600 -0.1001
  600MOL0     O80873   2.083  10.180   5.490  0.0865  0.0834  0.3470
  600MOL0     C80874   2.125  10.193   5.349 -0.0112  0.8028 -0.3756
  600MOL0     C80875   2.013  10.260   5.263  0.6406 -0.4419 -0.0431
  600MOL0     C80876   1.986  10.407   5.296 -0.8754  0.1562 -0.1801
  600MOL0     C80877   2.103  10.505   5.265 -0.3499  0.8404 -0.8521
  600MOL0     C80878   2.054  10.650   5.259  0.2389  0.4806 -0.0034
  600MOL0     C80879   2.173  10.734   5.214  0.3587 -0.5142  0.1021
  600MOL0     C80880   2.170  10.888   5.247  0.4546  0.2114 -0.2970
  600MOL0     C80881   2.159  10.913   5.401  0.0174  0.4122  0.9425
  600MOL0     N80882   2.151  11.054   5.446 -0.5100  0.7863  1.3705
  600MOL0     C80883   2.254  11.145   5.474  0.1033  0.1063  0.2901
  600MOL0     C80884   2.196  11.255   5.534  0.3882  0.7376 -0.6436
  600MOL0     C80885   2.239  11.384   5.584  0.7051 -0.2024 -0.4201
  600MOL0     C80886   2.312  11.371   5.717 -0.9344  1.0236  0.7574
  600MOL0     C80887   2.225  11.310   5.829 -1.0789  0.3176 -0.4193
  600MOL0     C80888   2.311  11.285   5.948 -0.6981  0.3972  0.3731
  600MOL0     O80889   2.237  11.278   6.071 -0.6423 -0.1476  0.2743
  600MOL0     C80890   2.288  11.216   6.183 -0.2293 -0.3574 -0.1891
  600MOL0     C80891   2.399  11.121   6.179 -0.6290  0.5880  0.2206
  600MOL0     C80892   2.433  11.053   6.291 -0.6506  0.1601 -0.2162
  600MOL0     C80893   2.548  10.954   6.277  0.7960 -0.4146 -0.9113
  600MOL0     C80894   2.364  11.053   6.419 -0.8844 -0.9963 -0.2583
  600MOL0     C80895   2.380  10.968   6.542  0.0296  0.3283  0.7323
  600MOL0     O80896   2.275  10.973   6.641 -0.0382  0.3661 -0.0847
  600MOL0     C80897   2.296  10.898   6.750  0.9074 -0.1119  0.5376
  600MOL0     C80898   2.228  10.779   6.754 -0.8410  0.5510  0.2708
  600MOL0     C80899   2.250  10.696   6.871  0.9791 -0.2475  0.1642
  600MOL0     C80900   2.331  10.738   6.979  0.8024  0.1647 -0.3515
  600MOL0     O80901   2.336  10.655   7.094  0.1860  0.1840 -0.1119
  600MOL0     C80902   2.438  10.687   7.187  0.0051 -0.2760  0.6345
  600MOL0     C80903   2.474  10.564   7.273 -0.2311  0.4171 -0.1274
  600MOL0     C80904   2.508  10.428   7.208 -0.0936  0.4989 -0.4358
  600MOL0     C80905   2.512  10.313   7.312 -0.2832  0.6662  0.2858
  600MOL0     C80906   2.526  10.185   7.232 -1.2092  0.5155 -0.0674
  600MOL0     C80907   2.499  10.051   7.306  0.0932 -0.7819  0.5485
  600MOL0     C80908   2.504  10.040   7.460  0.0640  0.3067  0.1422
  600MOL0     C80909   2.642  10.056   7.503  0.1801  1.4863 -0.8317
  600MOL0    Cl80910   2.754   9.947   7.414  0.2595  0.3327 -0.1182
  600MOL0     C80911   2.384  10.865   6.971 -0.6192 -0.4836  0.1899
  600MOL0     C80912   2.378  10.946   6.856 -0.3147  0.1810 -0.6283
  600MOL0     O80913   2.480  10.907   6.555  0.4321 -0.1521 -0.1093
  600MOL0     C80914   2.253  11.141   6.413 -0.8883  0.4295 -0.3683
  600MOL0     C80915   2.222  11.224   6.312  1.0160  0.4879  0.6690
  600MOL0     N80916   2.061  11.229   5.533 -0.1774  0.2383  0.4059
  600MOL0     N80917   2.032  11.119   5.477  0.9204 -0.2294  0.1478
  600MOL0     C80918   2.210   9.977   5.513  0.0832  0.3135 -0.8167
  600MOL0     C80919   2.220   9.857   5.581  1.1585 -0.1871 -0.4623
  600MOL0     C80920   2.251   9.569   5.931  0.4584 -0.3144  0.9871
  600MOL0     C80921   2.327   9.485   5.848 -0.1048 -0.2208 -0.4893
  600MOL0     C80922   2.402   9.388   5.905  0.6752  1.2218  0.7946
  600MOL0     C80923   2.387   9.356   6.036  0.0498 -0.2166  0.1158
  600MOL0     O80924   2.440   9.240   6.085 -0.5800 -0.1208 -0.8111
  600MOL0     C80925   2.390   9.117   6.031 -0.3521  0.0336 -0.9834
  600MOL0     C80926   2.269   9.087   6.135  0.1316  1.0178 -0.2349
  600MOL0     C80927   2.308   9.064   6.281  0.7098 -0.1570  0.1887
  600MOL0     C80928   2.202   8.988   6.363 -0.9996  0.1523  0.0316
  600MOL0     C80929   2.248   8.874   6.452 -0.8268 -0.0389 -0.2586
  600MOL0     C80930   2.294   8.789   6.521 -0.2074  1.6957 -0.2270
  600MOL0     C80931   2.327   9.445   6.125  0.0386  1.0189 -0.1046
  600MOL0     C80932   2.256   9.553   6.070  0.2662  0.9552 -0.4000
  600MOL0     H80933   1.962   9.861   5.796  2.3562 -1.3677  0.3090
  600MOL0     H80934   1.917  10.070   5.680 -1.9104 -1.2131 -0.7923
  600MOL0     H80935   2.213  10.257   5.333  2.1996 -1.2908  2.3136
  600MOL0     H80936   2.141  10.096   5.302 -0.1971  0.1558  0.8648
  600MOL0     H80937   2.036  10.258   5.156  2.4668  0.5399  0.2982
  600MOL0     H80938   1.917  10.210   5.281  0.6872 -0.4444  0.1980
  600MOL0     H80939   1.901  10.429   5.231 -0.3595 -0.9200 -1.2553
  600MOL0     H80940   1.956  10.420   5.401 -3.1805  2.2389 -1.0009
  600MOL0     H80941   2.181  10.492   5.341 -0.0128  1.5892 -1.0656
  600MOL0     H80942   2.157  10.481   5.173  1.1295  3.1527 -0.6566
  600MOL0     H80943   1.978  10.660   5.180 -0.0200  1.6926  0.3678
  600MOL0     H80944   2.018  10.685   5.356  1.2586  1.2697  0.1042
  600MOL0     H80945   2.262  10.692   5.261  0.8872 -0.1852 -0.5895
  600MOL0     H80946   2.180  10.723   5.106 -1.4806  3.1492 -0.5608
  600MOL0     H80947   2.260  10.938   5.210 -1.4723  2.2856 -2.5217
  600MOL0     H80948   2.086  10.938   5.197  0.3877  0.4340  0.0375
  600MOL0     H80949   2.235  10.862   5.462  0.3847 -0.4687 -0.2219
  600MOL0     H80950   2.064  10.863   5.420  0.6292 -0.3005  2.3110
  600MOL0     H80951   2.361  11.132   5.460 -0.1365 -0.1909 -1.6754
  600MOL0     H80952   2.314  11.435   5.523  2.9813 -0.5472  1.9083
  600MOL0     H80953   2.156  11.448   5.615  1.0760  0.6216 -1.1011
  600MOL0     H80954   2.352  11.470   5.740  2.7358  0.1707 -1.2097
  600MOL0     H80955   2.393  11.307   5.682 -1.0742  1.8770 -1.2814
  600MOL0     H80956   2.191  11.210   5.800  2.0296 -1.4837  1.5390
  600MOL0     H80957   2.138  11.369   5.856  0.0747  2.4711 -1.2035
  600MOL0     H80958   2.375  11.372   5.965 -0.2586  0.3371 -0.8942
  600MOL0     H80959   2.370  11.193   5.938 -2.0625 -0.5521  0.8468
  600MOL0     H80960   2.448  11.110   6.083  0.6026  2.4434  0.5845
  600MOL0     H80961   2.578  10.950   6.171 -0.7660 -0.4944 -1.3804
  600MOL0     H80962   2.638  10.989   6.328 -1.4749  3.6354  0.7763
  600MOL0     H80963   2.522  10.856   6.318  1.1755  0.2077  0.8638
  600MOL0     H80964   2.163  10.753   6.671  0.3601 -0.1040 -0.5039
  600MOL0     H80965   2.193  10.604   6.868  0.6282 -0.0624 -3.0655
  600MOL0     H80966   2.528  10.708   7.127 -1.5140  3.1575 -0.7481
  600MOL0     H80967   2.413  10.775   7.247  0.2334  0.5493 -0.4554
  600MOL0     H80968   2.561  10.588   7.335 -1.8047 -1.2390  2.9864
  600MOL0     H80969   2.400  10.548   7.352 -0.1385 -2.3586 -0.4976
  600MOL0     H80970   2.607  10.426   7.162 -0.2855  0.5887 -0.8567
  600MOL0     H80971   2.427  10.403   7.138 -2.2175 -1.7181  2.5095
  600MOL0     H80972   2.602  10.324   7.374  0.4239  3.0003 -1.0240
  600MOL0     H80973   2.427  10.310   7.380 -1.4881  0.6548 -1.1670
  600MOL0     H80974   2.609  10.179   7.160 -0.6477 -0.5515  0.6431
  600MOL0     H80975   2.437  10.190   7.169 -2.0405  2.4704  1.1932
  600MOL0     H80976   2.393  10.030   7.285  0.8228 -2.4174 -1.8024
  600MOL0     H80977   2.557   9.972   7.258  0.2649  1.0320 -2.4561
  600MOL0     H80978   2.479   9.938   7.489  0.5341  0.9901  3.2495
  600MOL0     H80979   2.429  10.101   7.510  2.5680  2.2119  1.8368
  600MOL0     H80980   2.651  10.023   7.607  2.1026 -0.4962 -1.5273
  600MOL0     H80981   2.670  10.162   7.502  0.0288  1.5214 -2.1998
  600MOL0     H80982   2.424  10.921   7.054  0.1055 -1.4510  0.5018
  600MOL0     H80983   2.429  11.040   6.841 -0.3178  0.0793 -1.3246
  600MOL0     H80984   2.199  11.153   6.506 -0.4432 -0.4345  0.0180
  600MOL0     H80985   2.134  11.288   6.313  0.8095  0.4419 -2.7085
  600MOL0     H80986   2.284   9.992   5.435  0.7193  1.7569  0.0305
  600MOL0     H80987   2.296   9.786   5.550  3.8134  1.5736  1.5638
  600MOL0     H80988   2.322   9.491   5.739  3.7668  1.9212 -0.7554
  600MOL0     H80989   2.450   9.316   5.840  5.4037 -1.0761  5.9712
  600MOL0     H80990   2.344   9.108   5.932  0.7982 -0.8837 -1.4571
  600MOL0     H80991   2.475   9.048   6.034 -0.5691 -0.3122  3.0916
  600MOL0     H80992   2.214   8.996   6.109 -2.0043  0.2779  5.5361
  600MOL0     H80993   2.199   9.171   6.130  2.9511  3.5282 -0.7853
  600MOL0     H80994   2.325   9.158   6.335  2.8767 -1.0061  1.1055
  600MOL0     H80995   2.396   8.999   6.285 -0.4712 -1.7715  2.0588
  600MOL0     H80996   2.137   8.937   6.291  2.1983 -3.4541 -0.6617
  600MOL0     H80997   2.150   9.063   6.424  3.2225  1.6892  2.1961
  600MOL0     H80998   2.341   8.713   6.579 -0.0358  1.1134 -1.1010
  600MOL0     H80999   2.320   9.424   6.231  0.2136  0.1420 -0.2606
  600MOL0     H81000   2.183   9.614   6.122 -2.2334 -1.3486 -1.0265
  601MOL0     O81001   9.523   1.089   9.766  0.5130 -0.9682  0.0165
  601MOL0     C81002   9.523   1.129   9.651 -0.1671  0.2496  1.1754
  601MOL0     O81003   9.433   1.094   9.557 -0.1391 -0.5556  0.1548
  601MOL0     C81004   9.321   1.010   9.576 -1.2357 -0.2441  0.0381
  601MOL0     C81005   9.208   1.005   9.495 -1.3456 -0.0133  0.3858
  601MOL0     C81006   9.124   0.897   9.489 -0.5648  0.2580 -0.5239
  601MOL0     C81007   9.133   0.788   9.584 -0.6253 -1.0767 -0.5520
  601MOL0     O81008   9.053   0.686   9.594  0.1573 -0.3577 -0.3796
  601MOL0     C81009   8.933   0.678   9.519 -0.0865  0.5798 -0.2893
  601MOL0     C81010   8.952   0.626   9.376 -0.2541  0.5517 -0.1142
  601MOL0     C81011   8.824   0.578   9.312 -0.1713 -0.0618  0.5404
  601MOL0     C81012   8.740   0.696   9.277  0.9265 -0.1649  0.5400
  601MOL0     C81013   8.625   0.654   9.186 -0.3861 -0.0652 -0.7172
  601MOL0     C81014   8.521   0.772   9.180 -0.2842 -0.5246 -1.1937
  601MOL0     C81015   8.402   0.759   9.084 -0.0784  1.0510 -0.3690
  601MOL0     C81016   8.288   0.857   9.110 -0.2045  0.4633  0.1348
  601MOL0     N81017   8.175   0.829   9.023  0.5900  0.4296 -0.6045
  601MOL0     C81018   8.154   0.843   8.892 -0.4470 -0.8178 -0.8698
  601MOL0     C81019   8.017   0.828   8.869 -0.1242  0.5716 -0.4856
  601MOL0     C81020   7.927   0.844   8.740 -0.3910 -0.3104 -0.8298
  601MOL0     C81021   7.990   0.909   8.621 -0.2756  0.3532  1.3514
  601MOL0     C81022   8.071   0.811   8.541 -0.8469  0.4424 -0.2914
  601MOL0     C81023   7.991   0.724   8.439 -0.8841  0.3850  0.2557
  601MOL0     O81024   7.943   0.824   8.345 -0.4115 -0.1883 -0.0178
  601MOL0     C81025   8.023   0.880   8.247 -0.2967  0.3084 -0.5162
  601MOL0     C81026   8.161   0.869   8.234  0.1962 -0.8207 -0.1310
  601MOL0     C81027   8.233   0.955   8.149  0.0995  0.1150 -0.4857
  601MOL0     C81028   8.378   0.956   8.176 -0.2865 -0.6856 -0.1457
  601MOL0     C81029   8.170   1.049   8.065 -0.3415  0.8050  0.5515
  601MOL0     C81030   8.235   1.150   7.982 -0.1642 -0.2054  0.6729
  601MOL0     O81031   8.153   1.236   7.923 -0.2586 -0.2167 -0.5236
  601MOL0     C81032   8.192   1.357   7.866  0.7710  0.3397  0.7692
  601MOL0     C81033   8.282   1.362   7.762  0.1291  0.5089  0.3717
  601MOL0     C81034   8.323   1.485   7.715 -0.6125 -1.2848  0.3147
  601MOL0     C81035   8.275   1.605   7.760  0.0858  1.0622 -0.8756
  601MOL0     O81036   8.291   1.732   7.708  0.1587  0.3222 -0.0215
  601MOL0     C81037   8.355   1.749   7.578 -0.4019 -0.1440 -0.0162
  601MOL0     C81038   8.263   1.701   7.460  0.7083 -0.3424 -0.4397
  601MOL0     C81039   8.124   1.759   7.445 -0.0616  0.1229  0.0381
  601MOL0     C81040   8.020   1.694   7.549  0.1090 -0.7461  0.0354
  601MOL0     C81041   7.881   1.767   7.523  0.3739 -0.2474 -0.2814
  601MOL0     C81042   7.875   1.925   7.548 -0.6946  0.6250  0.0712
  601MOL0     C81043   7.728   1.979   7.540  0.7878 -1.2372 -0.3735
  601MOL0     C81044   7.737   2.128   7.519 -0.1892 -0.6214 -0.5696
  601MOL0    Cl81045   7.588   2.217   7.539  0.0523  0.4240 -0.0850
  601MOL0     C81046   8.194   1.599   7.879  0.3370 -0.1994  0.0598
  601MOL0     C81047   8.153   1.473   7.931  0.9376  1.5058 -0.0146
  601MOL0     O81048   8.358   1.149   7.971  0.6696 -0.4575  0.3086
  601MOL0     C81049   8.030   1.044   8.070 -0.2935 -0.2978 -0.9029
  601MOL0     C81050   7.962   0.965   8.165 -0.2753  0.1642 -0.3599
  601MOL0     N81051   7.951   0.797   8.986 -0.8635  0.5871  0.4262
  601MOL0     N81052   8.046   0.812   9.074 -0.2454  0.0634  0.1222
  601MOL0     C81053   9.250   0.793   9.659 -0.2462 -0.2848 -0.0961
  601MOL0     C81054   9.332   0.906   9.655 -0.4960 -0.5996  0.2645
  601MOL0     C81055   9.632   1.232   9.618  0.1580 -0.8103 -0.3522
  601MOL0     C81056   9.680   1.326   9.709 -0.6065 -0.4069 -0.3798
  601MOL0     C81057   9.768   1.422   9.669  0.3003 -0.2186  0.7575
  601MOL0     C81058   9.820   1.431   9.542 -0.2325  0.6431 -1.5123
  601MOL0     O81059   9.908   1.529   9.518 -0.4298 -1.3166 -0.4578
  601MOL0     C81060   9.883   1.658   9.577 -0.1144 -0.6507  0.6448
  601MOL0     C81061   9.943   1.777   9.503  0.3692  0.6168  0.2181
  601MOL0     C81062  10.087   1.804   9.540 -0.5623 -0.1100 -0.6583
  601MOL0     C81063  10.151   1.909   9.433  0.3599  0.3308 -0.2301
  601MOL0     C81064  10.289   1.959   9.469 -0.1017  0.9693  0.7702
  601MOL0     C81065  10.405   2.001   9.466  0.7524 -0.2533 -1.0955
  601MOL0     C81066   9.776   1.327   9.447  0.4327  0.2344 -0.9907
  601MOL0     C81067   9.680   1.229   9.488  0.5470  0.7071 -0.0852
  601MOL0     H81068   9.202   1.086   9.424  2.4676  1.3117  1.3572
  601MOL0     H81069   9.034   0.904   9.429 -0.2670 -0.3245 -1.0569
  601MOL0     H81070   8.863   0.619   9.579  0.7074  0.8362  0.9187
  601MOL0     H81071   8.891   0.779   9.524 -1.6848 -0.0951  2.6309
  601MOL0     H81072   8.995   0.710   9.320 -1.8101  2.8177  1.8992
  601MOL0     H81073   9.032   0.551   9.377 -0.4071  0.3799  1.2332
  601MOL0     H81074   8.857   0.522   9.224  3.1033 -0.2404  1.7651
  601MOL0     H81075   8.773   0.506   9.378  1.9775  0.6141  3.1163
  601MOL0     H81076   8.698   0.741   9.368 -2.9011 -1.3337 -0.4630
  601MOL0     H81077   8.799   0.770   9.222 -1.3961 -0.2556 -2.2605
  601MOL0     H81078   8.666   0.643   9.086  1.1996  1.4143 -0.2779
  601MOL0     H81079   8.582   0.563   9.227  0.4364  0.0566  0.4694
  601MOL0     H81080   8.470   0.797   9.273 -0.2621  2.6451 -1.9050
  601MOL0     H81081   8.572   0.863   9.146 -1.5333  0.4384 -0.5581
  601MOL0     H81082   8.441   0.763   8.982  0.8252  1.5304 -0.0223
  601MOL0     H81083   8.377   0.652   9.087  1.1366  0.7666  0.1687
  601MOL0     H81084   8.333   0.953   9.083  2.4967 -0.6950  0.2358
  601MOL0     H81085   8.257   0.852   9.215 -2.4400 -2.8879 -0.5394
  601MOL0     H81086   8.225   0.868   8.814 -0.5206 -1.4399 -1.1363
  601MOL0     H81087   7.905   0.742   8.708 -0.7078 -0.4570 -0.1526
  601MOL0     H81088   7.837   0.896   8.775  0.2229 -0.1921  0.6604
  601MOL0     H81089   8.050   0.995   8.654 -1.5307  1.3445  1.1294
  601MOL0     H81090   7.905   0.946   8.563 -2.0269 -0.3775  3.3090
  601MOL0     H81091   8.104   0.727   8.602 -5.0023 -2.5316 -1.6306
  601MOL0     H81092   8.156   0.864   8.498 -2.5942  1.9217 -2.1395
  601MOL0     H81093   7.912   0.659   8.477 -0.4191 -0.0431  0.5003
  601MOL0     H81094   8.052   0.652   8.383 -1.5312 -1.4245  1.7771
  601MOL0     H81095   8.213   0.794   8.293 -0.8525 -0.2113  1.6323
  601MOL0     H81096   8.421   1.056   8.170  1.1032 -1.3329 -1.8933
  601MOL0     H81097   8.411   0.923   8.276  3.2461  1.7926 -0.2883
  601MOL0     H81098   8.427   0.886   8.107  1.4690  1.3730 -1.0912
  601MOL0     H81099   8.329   1.283   7.703 -3.1900  0.3648 -2.4041
  601MOL0     H81100   8.398   1.484   7.636  1.9473  2.3682  2.4175
  601MOL0     H81101   8.379   1.855   7.574 -0.9962  0.0325  0.7903
  601MOL0     H81102   8.451   1.697   7.586  0.2856  0.8254 -1.5176
  601MOL0     H81103   8.321   1.741   7.376 -0.5222 -0.2252 -1.2670
  601MOL0     H81104   8.254   1.592   7.461  0.4028 -0.3471  2.0103
  601MOL0     H81105   8.083   1.734   7.347  0.3482  0.9288 -0.3528
  601MOL0     H81106   8.129   1.868   7.454 -0.5965  0.1940 -0.4036
  601MOL0     H81107   8.008   1.587   7.529  1.6294 -0.6798 -1.3922
  601MOL0     H81108   8.053   1.700   7.653  1.0819  1.5971 -0.3419
  601MOL0     H81109   7.816   1.719   7.597  0.2917 -1.0356 -0.8522
  601MOL0     H81110   7.854   1.734   7.423  0.8609 -1.2676 -0.0951
  601MOL0     H81111   7.913   1.953   7.647 -2.1386  0.5279  0.6879
  601MOL0     H81112   7.928   1.975   7.466 -1.4173  2.0937  0.4548
  601MOL0     H81113   7.674   1.957   7.633 -0.9070 -1.0751 -1.2755
  601MOL0     H81114   7.681   1.934   7.452  0.6314 -1.5473 -0.1384
  601MOL0     H81115   7.769   2.138   7.415 -4.0233  0.5996 -1.7831
  601MOL0     H81116   7.815   2.174   7.581  0.5532 -0.2737 -1.7405
  601MOL0     H81117   8.166   1.695   7.920  1.3677  1.4929 -2.9727
  601MOL0     H81118   8.102   1.461   8.026  0.6648  2.2548 -0.0662
  601MOL0     H81119   7.973   1.113   8.009 -0.7157 -1.1687 -1.5110
  601MOL0     H81120   7.856   0.987   8.178 -0.0719  1.0488 -0.1195
  601MOL0     H81121   9.283   0.704   9.710 -0.5543 -1.5277 -1.9620
  601MOL0     H81122   9.426   0.887   9.707 -0.8251 -3.5652 -0.1010
  601MOL0     H81123   9.628   1.321   9.804 -1.6951  0.1672 -0.9322
  601MOL0     H81124   9.798   1.489   9.748  1.1395 -2.2864  2.2812
  601MOL0     H81125   9.776   1.679   9.568  0.5355  2.5146 -0.8177
  601MOL0     H81126   9.912   1.651   9.682  1.5611  1.2174  0.3465
  601MOL0     H81127   9.891   1.869   9.530  0.9315  0.6667  1.1898
  601MOL0     H81128   9.938   1.753   9.396 -1.0985  0.2483  0.3554
  601MOL0     H81129  10.138   1.708   9.528 -0.9882 -0.2312 -1.5191
  601MOL0     H81130  10.086   1.844   9.642 -1.0076 -0.4054 -0.5431
  601MOL0     H81131  10.082   1.994   9.439  0.6210  0.7128 -2.1160
  601MOL0     H81132  10.151   1.870   9.331  1.3349  1.0215 -0.5081
  601MOL0     H81133  10.500   2.050   9.462  1.4882 -1.4615  0.4844
  601MOL0     H81134   9.809   1.341   9.345 -2.9931  3.9676 -1.8338
  601MOL0     H81135   9.660   1.157   9.409  1.4332  0.8318 -0.4391
  602MOL0     O81136   4.919   9.669   8.763  0.4549  0.1157 -0.6857
  602MOL0     C81137   4.989   9.605   8.676 -0.0809  0.7772  0.2448
  602MOL0     O81138   5.116   9.558   8.692 -0.4260 -0.0910 -0.9949
  602MOL0     C81139   5.143   9.501   8.812  0.1931 -0.0861  0.1995
  602MOL0     C81140   5.043   9.454   8.902 -0.1537  0.6565 -0.0692
  602MOL0     C81141   5.071   9.427   9.034  0.1218  0.3611  0.0572
  602MOL0     C81142   5.193   9.433   9.088  0.2504 -0.5249 -0.0286
  602MOL0     O81143   5.211   9.387   9.217 -0.6649 -0.4150 -0.1342
  602MOL0     C81144   5.189   9.249   9.243  0.7474 -0.0199  0.2956
  602MOL0     C81145   5.281   9.136   9.188  0.1962  0.5691  0.0552
  602MOL0     C81146   5.422   9.156   9.240  0.2731 -0.1281 -0.1344
  602MOL0     C81147   5.503   9.265   9.170  0.8812  0.3186  0.3476
  602MOL0     C81148   5.653   9.258   9.204 -0.3548  0.1616  0.5204
  602MOL0     C81149   5.730   9.362   9.120  0.1146 -0.1019  0.1437
  602MOL0     C81150   5.875   9.383   9.178 -0.2309  0.7834 -0.6299
  602MOL0     C81151   5.959   9.248   9.178  0.3473  0.0916  0.4178
  602MOL0     N81152   6.095   9.269   9.231  0.1302  0.1703 -0.5543
  602MOL0     C81153   6.112   9.322   9.357 -0.2227 -0.0955  0.5000
  602MOL0     C81154   6.249   9.329   9.366  0.6610 -0.2188 -0.0343
  602MOL0     C81155   6.340   9.373   9.480  0.8705  0.0751  0.3431
  602MOL0     C81156   6.262   9.341   9.608 -1.5571  0.7726 -0.4196
  602MOL0     C81157   6.358   9.375   9.728 -0.7864 -0.1176 -0.6320
  602MOL0     C81158   6.317   9.333   9.862 -0.2027  0.8733  0.7395
  602MOL0     O81159   6.398   9.381   9.967  0.5439 -0.1948 -0.6748
  602MOL0     C81160   6.343   9.344  10.091 -0.0073  0.6453 -0.6575
  602MOL0     C81161   6.287   9.437  10.165  0.2443 -1.1029 -0.2899
  602MOL0     C81162   6.207   9.406  10.279  0.1434  0.6824  0.4664
  602MOL0     C81163   6.112   9.509  10.332 -0.1134 -0.1823 -0.0360
  602MOL0     C81164   6.219   9.274  10.331  0.3264  0.2738 -0.1223
  602MOL0     C81165   6.150   9.223  10.450 -0.1944 -0.3878  0.5258
  602MOL0     O81166   6.070   9.306  10.529  0.1926 -0.1636  0.6350
  602MOL0     C81167   6.059   9.269  10.659  0.5763 -0.2045  0.0109
  602MOL0     C81168   6.108   9.356  10.753  0.2146  0.1272 -0.3385
  602MOL0     C81169   6.086   9.333  10.890 -0.0507 -0.4236 -0.2562
  602MOL0     C81170   6.025   9.219  10.935 -0.3705  0.7365 -0.0604
  602MOL0     O81171   6.021   9.193  11.062 -0.0191 -0.0484 -0.7978
  602MOL0     C81172   5.953   9.072  11.107 -0.1030 -0.0194 -0.8281
  602MOL0     C81173   5.984   9.045  11.257  0.7553  0.5680  0.2258
  602MOL0     C81174   5.897   8.934  11.310  0.1530  0.4858  0.2590
  602MOL0     C81175   5.909   8.935  11.468  0.0540 -0.0618 -1.4514
  602MOL0     C81176   5.838   8.820  11.535  0.3488 -0.1593 -0.2850
  602MOL0     C81177   5.713   8.868  11.615  0.6474 -0.3125 -0.1075
  602MOL0     C81178   5.632   8.755  11.663 -0.4519  0.6985 -1.3638
  602MOL0     C81179   5.508   8.813  11.720 -0.5366 -0.4952  0.7694
  602MOL0    Cl81180   5.550   8.907  11.874 -0.2236 -0.3343 -0.0134
  602MOL0     C81181   5.971   9.133  10.836 -0.5227  0.4119  0.7088
  602MOL0     C81182   5.987   9.156  10.699  0.2427 -0.3279  0.4652
  602MOL0     O81183   6.169   9.109  10.476 -0.5724 -0.1876 -0.2422
  602MOL0     C81184   6.299   9.182  10.257  0.0761 -0.5001  0.0170
  602MOL0     C81185   6.365   9.215  10.139 -0.3585  0.0645 -0.0627
  602MOL0     N81186   6.306   9.288   9.244  1.2423  0.1368  0.5095
  602MOL0     N81187   6.214   9.252   9.158  0.4328 -0.6949 -0.3478
  602MOL0     C81188   5.300   9.470   9.001  1.1051  0.0592  0.5721
  602MOL0     C81189   5.272   9.506   8.864 -0.4991 -0.9555  0.6967
  602MOL0     C81190   4.947   9.584   8.537  0.3338 -0.6153  0.4590
  602MOL0     C81191   4.865   9.687   8.477  0.0384  0.0444 -0.3823
  602MOL0     C81192   4.818   9.663   8.344 -0.0267  0.1943  0.1515
  602MOL0     C81193   4.856   9.553   8.267  0.4390 -0.1633 -0.3038
  602MOL0     O81194   4.813   9.532   8.137 -0.4732  1.2186 -1.0839
  602MOL0     C81195   4.720   9.610   8.070  0.5838 -0.3406 -0.1067
  602MOL0     C81196   4.651   9.539   7.956  0.9129 -0.6846  0.1451
  602MOL0     C81197   4.629   9.632   7.835 -0.3054 -0.0807 -0.2741
  602MOL0     C81198   4.525   9.570   7.737 -0.3843  0.2122  0.6355
  602MOL0     C81199   4.587   9.452   7.678  0.9344  1.4726  0.1834
  602MOL0     C81200   4.650   9.368   7.621 -0.2632  0.1235 -0.0971
  602MOL0     C81201   4.948   9.463   8.327 -0.1938 -0.0154  0.2404
  602MOL0     C81202   4.976   9.471   8.463 -1.1685 -0.8555 -0.2295
  602MOL0     H81203   4.943   9.441   8.861 -0.1012  0.9275 -0.2858
  602MOL0     H81204   4.991   9.397   9.101  1.5559 -0.3508  1.5257
  602MOL0     H81205   5.192   9.236   9.352  0.7966  2.1861  0.5961
  602MOL0     H81206   5.083   9.226   9.226  0.3971 -0.5260  2.7620
  602MOL0     H81207   5.251   9.047   9.244 -0.6651  0.6996 -0.1906
  602MOL0     H81208   5.282   9.112   9.081  1.6039 -1.6146  0.5009
  602MOL0     H81209   5.416   9.179   9.347  1.3648  5.4903 -0.9941
  602MOL0     H81210   5.477   9.062   9.227  3.6132  1.3047  2.1889
  602MOL0     H81211   5.470   9.255   9.066  0.0190  1.8450  0.4431
  602MOL0     H81212   5.450   9.354   9.206 -0.2098  0.6634 -1.9093
  602MOL0     H81213   5.666   9.280   9.311  0.9575 -1.4328  0.7280
  602MOL0     H81214   5.708   9.164   9.201  2.4902  1.5660  2.7255
  602MOL0     H81215   5.738   9.326   9.017  3.7251 -0.7168  0.4929
  602MOL0     H81216   5.680   9.459   9.127  2.9216  1.5913 -1.5015
  602MOL0     H81217   5.930   9.453   9.116 -0.0655 -1.8373 -3.7103
  602MOL0     H81218   5.862   9.418   9.281 -0.9559 -1.8541  0.2745
  602MOL0     H81219   5.951   9.208   9.077  0.0293 -2.6779  1.4463
  602MOL0     H81220   5.918   9.174   9.248  2.9349 -0.2773  1.6653
  602MOL0     H81221   6.040   9.345   9.434  0.9680 -1.3518  2.0482
  602MOL0     H81222   6.437   9.322   9.479  0.5872 -0.5001  1.0682
  602MOL0     H81223   6.370   9.478   9.472  2.0235 -0.1999  0.8402
  602MOL0     H81224   6.228   9.237   9.617  0.5514  0.2050  4.6411
  602MOL0     H81225   6.172   9.402   9.619 -1.2051  1.3229 -0.5596
  602MOL0     H81226   6.387   9.479   9.749 -2.4931 -0.1075  2.2024
  602MOL0     H81227   6.456   9.328   9.712 -0.7429 -0.3733  0.3314
  602MOL0     H81228   6.307   9.224   9.856 -3.1564  1.0114  1.2868
  602MOL0     H81229   6.217   9.372   9.882  0.8760  1.9512  5.1165
  602MOL0     H81230   6.278   9.541  10.136 -1.1143 -0.3528  2.4253
  602MOL0     H81231   6.010   9.468  10.327 -1.1695  2.3839 -0.9950
  602MOL0     H81232   6.144   9.548  10.429 -0.9997 -0.5323  0.4064
  602MOL0     H81233   6.095   9.599  10.272 -2.2512 -1.0514 -0.8436
  602MOL0     H81234   6.161   9.443  10.717 -0.7458 -0.3071 -3.0339
  602MOL0     H81235   6.143   9.382  10.967  2.0707 -1.9332 -0.7639
  602MOL0     H81236   5.844   9.076  11.093  0.0383 -2.0028 -3.1527
  602MOL0     H81237   5.987   8.990  11.043 -0.3926  1.5026 -3.0393
  602MOL0     H81238   6.092   9.027  11.264  0.5638 -0.0258  3.5042
  602MOL0     H81239   5.965   9.136  11.316 -0.8102 -0.6341  1.6884
  602MOL0     H81240   5.924   8.833  11.279 -2.7557 -1.6316  3.8402
  602MOL0     H81241   5.796   8.957  11.275 -0.9364 -0.1250  2.7618
  602MOL0     H81242   6.016   8.931  11.491 -0.4249  0.5199  1.2250
  602MOL0     H81243   5.869   9.030  11.505  1.2358  0.1048 -0.5545
  602MOL0     H81244   5.911   8.766  11.596 -1.7475  0.2405  2.8235
  602MOL0     H81245   5.807   8.743  11.464 -1.1864 -1.1140  1.3483
  602MOL0     H81246   5.744   8.925  11.703 -1.3153 -0.9577  1.0623
  602MOL0     H81247   5.657   8.940  11.555 -0.1979 -0.7717  0.1176
  602MOL0     H81248   5.681   8.706  11.748  0.3024  1.3344 -1.4154
  602MOL0     H81249   5.608   8.677  11.590  2.9369 -4.4947  2.2737
  602MOL0     H81250   5.436   8.735  11.746 -0.7496 -1.6545 -2.7614
  602MOL0     H81251   5.465   8.873  11.638 -1.0251 -2.0764 -0.1666
  602MOL0     H81252   5.921   9.041  10.865  0.0864  0.5272  2.1950
  602MOL0     H81253   5.939   9.089  10.628 -1.0981  1.3347 -0.2534
  602MOL0     H81254   6.293   9.076  10.280  1.2629 -0.4308  0.7205
  602MOL0     H81255   6.421   9.141  10.082  0.1014  1.5778 -1.6406
  602MOL0     H81256   5.403   9.481   9.033  0.8793  2.3468  0.6729
  602MOL0     H81257   5.354   9.548   8.806 -2.3461  3.0759  0.6374
  602MOL0     H81258   4.838   9.777   8.530 -1.4089  0.5563 -1.9244
  602MOL0     H81259   4.755   9.738   8.298  0.5196  1.9177  2.0451
  602MOL0     H81260   4.643   9.637   8.142 -0.5525 -1.4921 -0.8390
  602MOL0     H81261   4.780   9.697   8.039  1.5678 -0.2272  1.9539
  602MOL0     H81262   4.554   9.497   7.985  0.1563 -0.8820 -2.3933
  602MOL0     H81263   4.709   9.455   7.918  3.2599  0.2423  1.5144
  602MOL0     H81264   4.724   9.667   7.794 -0.0300 -0.6376 -0.1237
  602MOL0     H81265   4.575   9.725   7.856 -1.4129 -0.9518  0.8889
  602MOL0     H81266   4.498   9.634   7.652 -0.7157 -0.4178  0.2542
  602MOL0     H81267   4.433   9.540   7.789 -1.0828  2.4897  0.8326
  602MOL0     H81268   4.721   9.307   7.569  0.8979  0.4283  1.0730
  602MOL0     H81269   4.981   9.369   8.283  2.2067  0.9302 -0.1242
  602MOL0     H81270   5.038   9.391   8.502 -1.7206 -1.8173 -1.2955
  603MOL0     O81271   4.228   1.233   2.692 -0.0742 -0.3957 -0.5653
  603MOL0     C81272   4.287   1.158   2.769  0.4692 -0.3610  0.3777
  603MOL0     O81273   4.251   1.119   2.895  0.6870 -0.6055 -0.1113
  603MOL0     C81274   4.125   1.153   2.941  0.2181 -0.4470  0.0050
  603MOL0     C81275   4.094   1.286   2.985  0.2277  0.7825  0.8099
  603MOL0     C81276   3.967   1.316   3.024  0.1344 -0.0960 -0.4919
  603MOL0     C81277   3.867   1.222   3.035 -0.0682 -0.3643 -0.5232
  603MOL0     O81278   3.747   1.269   3.074  0.3417  0.4803  0.1857
  603MOL0     C81279   3.649   1.175   3.117  0.6183  0.4591  0.5180
  603MOL0     C81280   3.512   1.255   3.123  0.4454 -1.1144 -0.0852
  603MOL0     C81281   3.458   1.308   2.982 -0.1825 -1.3826 -0.2468
  603MOL0     C81282   3.490   1.460   2.968 -0.0195  0.1753  0.6535
  603MOL0     C81283   3.480   1.522   2.827  0.8493  0.1809 -0.3148
  603MOL0     C81284   3.577   1.462   2.736 -0.6585  0.2105 -0.0875
  603MOL0     C81285   3.526   1.467   2.594  0.0152 -0.0533  0.6617
  603MOL0     C81286   3.633   1.429   2.493  1.0474  0.4727 -0.6334
  603MOL0     N81287   3.753   1.508   2.512  0.5155  0.2279  0.0701
  603MOL0     C81288   3.880   1.471   2.559  0.9393  0.4734 -0.3510
  603MOL0     C81289   3.960   1.579   2.544  0.7077  0.8703  0.5867
  603MOL0     C81290   4.097   1.575   2.612 -0.3627 -0.3842  1.3042
  603MOL0     C81291   4.213   1.581   2.496 -0.8585 -0.4686 -1.4653
  603MOL0     C81292   4.227   1.717   2.427  0.5763  0.6256  0.7283
  603MOL0     C81293   4.351   1.705   2.336 -0.4652  0.0383 -0.4015
  603MOL0     O81294   4.324   1.632   2.216  0.7494  0.0605  0.3616
  603MOL0     C81295   4.421   1.598   2.128 -1.1137 -0.3243  0.4415
  603MOL0     C81296   4.386   1.519   2.010  0.4586 -0.3369  0.2145
  603MOL0     C81297   4.470   1.497   1.904 -0.8773 -0.0004  0.4879
  603MOL0     C81298   4.412   1.440   1.781 -0.0468 -0.4057 -0.5242
  603MOL0     C81299   4.609   1.525   1.913 -0.5262 -0.0748  0.5848
  603MOL0     C81300   4.727   1.480   1.820  0.3194 -0.4244  0.1323
  603MOL0     O81301   4.844   1.537   1.833  0.0644 -0.5038  0.8306
  603MOL0     C81302   4.947   1.460   1.790 -0.4125 -0.2547 -1.3773
  603MOL0     C81303   5.020   1.506   1.673 -1.4528 -0.5164  0.7246
  603MOL0     C81304   5.131   1.430   1.619  0.4885  0.1334  0.1974
  603MOL0     C81305   5.173   1.314   1.691 -0.8684 -0.0137 -0.4668
  603MOL0     O81306   5.295   1.262   1.654 -0.2649  0.0675 -0.0129
  603MOL0     C81307   5.390   1.249   1.759  0.8780  0.2352 -0.4697
  603MOL0     C81308   5.517   1.225   1.691  0.5499 -0.4648  0.2037
  603MOL0     C81309   5.626   1.192   1.790 -0.7660 -0.6265 -0.5622
  603MOL0     C81310   5.760   1.200   1.711 -0.1397  0.7796 -0.0311
  603MOL0     C81311   5.890   1.180   1.795 -0.0675  0.7939 -0.4308
  603MOL0     C81312   5.892   1.078   1.920  0.9567 -1.4299  0.1023
  603MOL0     C81313   6.001   1.108   2.026 -1.0965  0.2589 -0.3188
  603MOL0     C81314   5.991   1.009   2.146  0.3806 -0.3572  0.6784
  603MOL0    Cl81315   5.849   1.060   2.243 -0.2545 -0.1349  0.1561
  603MOL0     C81316   5.117   1.274   1.813  0.6600 -0.3777 -0.1910
  603MOL0     C81317   5.000   1.345   1.858  0.0097 -0.5893  0.4528
  603MOL0     O81318   4.703   1.399   1.733  0.3972 -0.5297  0.2921
  603MOL0     C81319   4.647   1.593   2.033  1.5261  0.3993 -0.4088
  603MOL0     C81320   4.559   1.631   2.133 -0.1077 -0.3810 -0.9588
  603MOL0     N81321   3.889   1.682   2.478 -0.5474 -0.6536  0.6077
  603MOL0     N81322   3.771   1.630   2.453 -0.4002  1.0739  0.6376
  603MOL0     C81323   3.902   1.086   2.988 -0.2274 -0.4242  0.6690
  603MOL0     C81324   4.027   1.056   2.944  0.3065 -0.1378 -0.1476
  603MOL0     C81325   4.426   1.107   2.740  0.2988  0.5877 -0.4207
  603MOL0     C81326   4.503   1.130   2.624 -0.9910  0.5498  0.0966
  603MOL0     C81327   4.636   1.091   2.599  0.3320  0.1315  0.1262
  603MOL0     C81328   4.697   1.022   2.709 -1.2359  0.4283 -0.1762
  603MOL0     O81329   4.834   0.991   2.709  0.0759  0.0563 -1.0852
  603MOL0     C81330   4.876   0.925   2.593  0.6656 -0.7024  1.1130
  603MOL0     C81331   5.014   0.967   2.549 -0.0548  0.3783  0.3720
  603MOL0     C81332   5.130   0.971   2.654 -0.2183 -0.3384 -0.2562
  603MOL0     C81333   5.268   0.936   2.595 -0.4013 -0.4329 -0.4748
  603MOL0     C81334   5.258   0.798   2.551 -0.0279 -0.5675 -1.0634
  603MOL0     C81335   5.256   0.680   2.514 -0.4564  0.4524 -0.5273
  603MOL0     C81336   4.628   0.986   2.818  0.2619  0.5464 -0.6418
  603MOL0     C81337   4.499   1.036   2.841 -0.9640  0.2199 -0.8747
  603MOL0     H81338   4.156   1.375   2.976 -1.6055  2.0502  0.1757
  603MOL0     H81339   3.941   1.421   3.037  0.4826 -0.1789  1.1335
  603MOL0     H81340   3.625   1.091   3.051 -0.7241  1.3303 -0.1546
  603MOL0     H81341   3.685   1.159   3.219 -1.9431  0.4149  1.4991
  603MOL0     H81342   3.441   1.185   3.169  0.2179  0.2773  1.8277
  603MOL0     H81343   3.513   1.344   3.186 -2.7065 -1.6554  0.9125
  603MOL0     H81344   3.502   1.251   2.900  3.3141 -2.8471  2.4048
  603MOL0     H81345   3.349   1.319   2.973  0.0730  1.0409 -1.2413
  603MOL0     H81346   3.427   1.528   3.025 -0.3376  1.6535 -1.3591
  603MOL0     H81347   3.593   1.485   2.996 -0.2085  1.8185 -0.0007
  603MOL0     H81348   3.377   1.508   2.793  0.4619  2.1806 -0.1109
  603MOL0     H81349   3.504   1.629   2.833 -2.3018  0.9921 -0.0099
  603MOL0     H81350   3.671   1.516   2.748 -0.2530 -0.7761  1.4820
  603MOL0     H81351   3.613   1.360   2.751  3.9503  0.4471 -5.8984
  603MOL0     H81352   3.446   1.400   2.560  1.4621 -2.1325  1.1521
  603MOL0     H81353   3.500   1.571   2.572  2.6636  0.3573 -0.9579
  603MOL0     H81354   3.588   1.441   2.394  0.6324 -4.4209 -1.2827
  603MOL0     H81355   3.662   1.325   2.505 -1.1955  0.0573  2.2959
  603MOL0     H81356   3.898   1.371   2.599 -2.6922 -0.3784 -0.5331
  603MOL0     H81357   4.107   1.663   2.676  2.1429 -0.7042  1.4732
  603MOL0     H81358   4.107   1.483   2.669 -0.3921 -0.9872  0.3596
  603MOL0     H81359   4.195   1.502   2.423 -0.0796 -0.8653 -1.2377
  603MOL0     H81360   4.310   1.567   2.545 -0.5049  2.9142 -0.9646
  603MOL0     H81361   4.244   1.792   2.504  2.0007  2.6325 -1.4029
  603MOL0     H81362   4.138   1.743   2.368  3.6647  3.3311 -3.2506
  603MOL0     H81363   4.426   1.644   2.388  0.3590  1.0399 -0.3849
  603MOL0     H81364   4.389   1.804   2.309  2.2051 -0.2290  1.9056
  603MOL0     H81365   4.281   1.491   1.998 -1.0050  3.9993  1.1406
  603MOL0     H81366   4.476   1.454   1.694  0.5588  1.1748  0.1331
  603MOL0     H81367   4.400   1.333   1.799  1.9740 -0.4454  0.8422
  603MOL0     H81368   4.319   1.496   1.765 -0.0054 -0.1395  0.1212
  603MOL0     H81369   4.984   1.594   1.622 -0.7454 -0.2165  0.7401
  603MOL0     H81370   5.176   1.477   1.532  0.0461  0.5493  0.1900
  603MOL0     H81371   5.408   1.338   1.819  1.0841  1.7159 -2.6404
  603MOL0     H81372   5.369   1.169   1.831  2.4975  0.6175  0.4740
  603MOL0     H81373   5.503   1.152   1.611  0.1334  1.7866 -1.8927
  603MOL0     H81374   5.540   1.316   1.637  1.1023 -1.0510 -0.5743
  603MOL0     H81375   5.617   1.097   1.844  0.2169 -0.4501 -0.0701
  603MOL0     H81376   5.635   1.281   1.853 -0.1022 -1.9135  1.2439
  603MOL0     H81377   5.773   1.108   1.653  0.6388 -0.0692  1.4175
  603MOL0     H81378   5.766   1.297   1.663 -1.6679  1.4897  1.1189
  603MOL0     H81379   5.917   1.274   1.845  2.3489  0.0325 -0.1788
  603MOL0     H81380   5.972   1.157   1.727  0.1405 -0.4660  0.2259
  603MOL0     H81381   5.797   1.090   1.973  0.9416  3.0577 -0.5719
  603MOL0     H81382   5.903   0.972   1.892 -1.3635 -1.9647  1.0040
  603MOL0     H81383   6.001   1.213   2.057 -1.0112 -0.2407  1.5020
  603MOL0     H81384   6.094   1.094   1.971 -2.3400 -2.4580 -1.9339
  603MOL0     H81385   6.083   1.020   2.204  0.7854  3.9415 -0.4358
  603MOL0     H81386   5.979   0.908   2.106 -0.4863 -0.4670  1.2094
  603MOL0     H81387   5.155   1.195   1.876  1.1690  0.9732  1.2749
  603MOL0     H81388   4.944   1.317   1.947 -1.9572 -1.1904 -0.8953
  603MOL0     H81389   4.753   1.616   2.044  1.7308 -1.1141  1.3531
  603MOL0     H81390   4.591   1.690   2.219  1.1960 -3.2995  0.6867
  603MOL0     H81391   3.829   1.005   2.986 -0.2189 -0.4212 -1.3618
  603MOL0     H81392   4.039   0.955   2.906 -0.4567 -0.2652 -0.0710
  603MOL0     H81393   4.454   1.184   2.544 -4.8747 -0.8908  1.2339
  603MOL0     H81394   4.680   1.122   2.505  0.0984  1.0074  0.2917
  603MOL0     H81395   4.894   0.819   2.614  1.4877 -0.2679  2.7755
  603MOL0     H81396   4.803   0.926   2.511 -0.8004  2.4642  2.3217
  603MOL0     H81397   5.001   1.072   2.521  1.6121  0.7218  0.7830
  603MOL0     H81398   5.032   0.905   2.461 -2.9691 -1.7402  1.1152
  603MOL0     H81399   5.109   0.902   2.737 -2.6399 -0.9255 -1.2697
  603MOL0     H81400   5.128   1.073   2.693  2.8999  0.9460 -3.0154
  603MOL0     H81401   5.339   0.930   2.678 -2.0048 -2.1880  0.8562
  603MOL0     H81402   5.293   1.007   2.515  1.9239 -2.3191 -1.5392
  603MOL0     H81403   5.277   0.584   2.471  0.7480  0.0122  0.9334
  603MOL0     H81404   4.682   0.922   2.887  1.4678  0.0617 -1.9769
  603MOL0     H81405   4.454   1.005   2.936  1.7916  1.1745  0.8621
  604MOL0     O81406   9.030   6.350  11.418  0.8362 -0.6795 -0.0828
  604MOL0     C81407   8.936   6.287  11.367 -0.3080 -0.0798 -0.5806
  604MOL0     O81408   8.821   6.346  11.307  0.1292 -0.1374 -0.7187
  604MOL0     C81409   8.794   6.481  11.327 -0.0411 -0.0935  1.0587
  604MOL0     C81410   8.764   6.569  11.216  0.1878 -0.1745  0.3927
  604MOL0     C81411   8.732   6.702  11.242  0.5733  0.3007  0.5304
  604MOL0     C81412   8.735   6.755  11.368  0.2682  0.1125 -0.1848
  604MOL0     O81413   8.717   6.890  11.379 -0.1066  0.1351 -0.9297
  604MOL0     C81414   8.751   6.950  11.510  0.6383  0.5458 -0.2127
  604MOL0     C81415   8.708   7.099  11.493 -0.4304 -0.6716  0.7325
  604MOL0     C81416   8.766   7.169  11.373  0.1022 -0.2243  0.7867
  604MOL0     C81417   8.896   7.224  11.417 -0.2679  0.5389 -0.2027
  604MOL0     C81418   8.989   7.265  11.307 -0.3109 -0.5975  0.2677
  604MOL0     C81419   8.937   7.364  11.198 -0.0545 -0.4780  0.2906
  604MOL0     C81420   8.899   7.506  11.259  1.0980  0.0519 -0.0660
  604MOL0     C81421   8.856   7.588  11.141 -0.4114 -0.5039  0.0887
  604MOL0     N81422   8.801   7.714  11.195 -0.4368  0.1442  0.2158
  604MOL0     C81423   8.880   7.808  11.242 -0.3344 -0.2040 -0.7667
  604MOL0     C81424   8.803   7.918  11.278 -0.1833 -0.5042  0.5729
  604MOL0     C81425   8.842   8.057  11.339  1.0949 -0.3493  1.0064
  604MOL0     C81426   8.883   8.037  11.480 -0.1674  0.0988 -0.2459
  604MOL0     C81427   8.953   8.163  11.530  0.3064 -0.5535  0.3209
  604MOL0     C81428   8.960   8.140  11.687  0.2898 -0.1870 -0.1495
  604MOL0     O81429   9.033   8.249  11.742  0.3814 -0.3422 -0.6194
  604MOL0     C81430   9.024   8.282  11.876 -0.2738 -0.3165 -0.1463
  604MOL0     C81431   9.084   8.408  11.911  0.9159 -0.0610 -0.5686
  604MOL0     C81432   9.107   8.439  12.051  0.2746  0.5418  0.3442
  604MOL0     C81433   9.213   8.546  12.089  0.1252  0.5001  1.2988
  604MOL0     C81434   9.024   8.369  12.142  0.4327  0.4226 -0.1139
  604MOL0     C81435   9.012   8.410  12.293 -0.7956 -0.7040  0.4375
  604MOL0     O81436   9.109   8.490  12.350 -0.0032  0.6875 -0.4532
  604MOL0     C81437   9.114   8.487  12.491 -0.4902 -0.2039  0.2735
  604MOL0     C81438   9.175   8.388  12.559 -1.4703 -0.0586  0.9815
  604MOL0     C81439   9.160   8.388  12.699  0.3211  0.7117  0.6901
  604MOL0     C81440   9.094   8.497  12.771 -0.1252  0.2050  1.0799
  604MOL0     O81441   9.090   8.498  12.902  0.6536  0.5701  0.5330
  604MOL0     C81442   9.138   8.602  12.988  0.2232 -0.0820 -0.4550
  604MOL0     C81443   9.044   8.625  13.112 -0.3211  1.0536  0.5781
  604MOL0     C81444   9.106   8.604  13.254  1.2484  0.0431 -1.5266
  604MOL0     C81445   9.237   8.668  13.284 -1.3176 -0.2861 -0.3311
  604MOL0     C81446   9.282   8.659  13.433  0.3098  0.5993  0.0675
  604MOL0     C81447   9.195   8.722  13.545  0.8660 -0.1139 -0.2097
  604MOL0     C81448   9.283   8.727  13.676  0.1938 -0.2294 -0.7624
  604MOL0     C81449   9.197   8.781  13.789 -0.5672 -0.4551  0.3234
  604MOL0    Cl81450   9.317   8.846  13.910 -0.4215 -0.1720 -0.2480
  604MOL0     C81451   9.042   8.598  12.699  0.3134 -0.5840 -0.2504
  604MOL0     C81452   9.049   8.590  12.562 -0.5486  0.7447 -0.0651
  604MOL0     O81453   8.910   8.376  12.343 -0.0778 -0.3058 -0.0912
  604MOL0     C81454   8.939   8.254  12.101 -0.3098 -0.0887  0.6397
  604MOL0     C81455   8.950   8.212  11.971 -0.2895  0.8464  0.1205
  604MOL0     N81456   8.675   7.873  11.268  0.6453 -0.0369  0.1488
  604MOL0     N81457   8.676   7.753  11.217  0.5451 -0.5364 -0.1607
  604MOL0     C81458   8.760   6.670  11.479 -0.3466 -0.1792 -0.7303
  604MOL0     C81459   8.790   6.536  11.457  0.1982  0.2679  0.0235
  604MOL0     C81460   8.954   6.150  11.328  1.1632  0.9327  0.4400
  604MOL0     C81461   8.841   6.064  11.285  0.5216 -0.4379 -0.4768
  604MOL0     C81462   8.858   5.937  11.242  1.1047  0.2648  0.3327
  604MOL0     C81463   8.988   5.888  11.227 -0.6283  1.0373  0.5881
  604MOL0     O81464   9.006   5.760  11.174  0.7130  0.4816  0.4457
  604MOL0     C81465   8.909   5.655  11.202  0.0870  0.7025  1.2753
  604MOL0     C81466   8.986   5.517  11.190 -0.1153 -0.0640  0.1020
  604MOL0     C81467   9.078   5.512  11.306 -0.9621 -0.1523 -0.5104
  604MOL0     C81468   9.141   5.376  11.312  0.5499  0.0047  0.2667
  604MOL0     C81469   9.044   5.280  11.340  0.2413  0.8079  0.2259
  604MOL0     C81470   8.947   5.211  11.358 -0.1953  0.0280  0.6776
  604MOL0     C81471   9.099   5.958  11.269 -0.6456 -0.3624 -0.2130
  604MOL0     C81472   9.080   6.091  11.306  0.7289  0.2756 -1.1273
  604MOL0     H81473   8.765   6.527  11.116 -2.0369 -0.9356  0.6313
  604MOL0     H81474   8.727   6.773  11.160  1.9482  1.1305  1.1221
  604MOL0     H81475   8.686   6.918  11.592  1.1715  1.0342  0.4013
  604MOL0     H81476   8.858   6.933  11.521  0.7757  0.0008 -2.0758
  604MOL0     H81477   8.600   7.115  11.483 -0.0961  1.4101 -0.0809
  604MOL0     H81478   8.732   7.161  11.580  0.1274  0.3938 -0.1526
  604MOL0     H81479   8.784   7.108  11.285 -0.4329 -1.9637  1.8373
  604MOL0     H81480   8.702   7.256  11.351  2.2522  1.2248 -0.0102
  604MOL0     H81481   8.877   7.309  11.483 -1.5591 -0.1862  0.4043
  604MOL0     H81482   8.945   7.142  11.470 -1.4447 -1.7678 -2.4495
  604MOL0     H81483   9.077   7.316  11.347 -1.2003  1.3408 -0.1489
  604MOL0     H81484   9.012   7.179  11.243 -0.0286  1.0467 -1.9593
  604MOL0     H81485   9.018   7.372  11.124  2.2749 -0.0055  2.7250
  604MOL0     H81486   8.850   7.322  11.146 -1.3346  2.1296  0.1751
  604MOL0     H81487   8.811   7.499  11.324  1.7146  0.1169  0.7867
  604MOL0     H81488   8.976   7.563  11.312  1.1680 -1.4512  1.5280
  604MOL0     H81489   8.774   7.539  11.087 -4.4592  2.8358  2.6215
  604MOL0     H81490   8.950   7.604  11.087  0.5639 -1.8295  1.3085
  604MOL0     H81491   8.988   7.798  11.250 -0.1737  1.7442 -0.0944
  604MOL0     H81492   8.918   8.098  11.271  0.8144  2.2812  2.1308
  604MOL0     H81493   8.755   8.122  11.328  0.7073 -1.1367 -0.8954
  604MOL0     H81494   8.954   7.954  11.481  2.7684  2.4261  0.3242
  604MOL0     H81495   8.806   8.007  11.551  1.3673 -0.9360  1.0638
  604MOL0     H81496   8.907   8.259  11.505  1.6638 -0.4038 -1.9063
  604MOL0     H81497   9.056   8.171  11.495  1.0910  1.6225  2.8360
  604MOL0     H81498   9.011   8.046  11.707  0.2370 -0.3087 -0.5881
  604MOL0     H81499   8.862   8.130  11.735  1.6884 -0.9811  2.8293
  604MOL0     H81500   9.125   8.477  11.839  2.0219  1.9427  1.8192
  604MOL0     H81501   9.294   8.503  12.148  2.0009  0.3168 -1.2731
  604MOL0     H81502   9.263   8.596  12.006  2.0374 -1.6867  1.0285
  604MOL0     H81503   9.166   8.630  12.141 -1.4739  2.6411 -3.1067
  604MOL0     H81504   9.222   8.305  12.506  0.7188  2.0417 -0.6166
  604MOL0     H81505   9.193   8.308  12.765 -3.1730 -3.4311 -2.0263
  604MOL0     H81506   9.225   8.555  13.035  0.3864 -0.6893 -1.3264
  604MOL0     H81507   9.173   8.698  12.950  3.7649 -1.7037 -1.7541
  604MOL0     H81508   9.016   8.730  13.105  1.3353  1.5795  1.3334
  604MOL0     H81509   8.948   8.575  13.096  0.7158 -0.4225 -1.6103
  604MOL0     H81510   9.104   8.496  13.269  0.3861  0.0787 -1.3447
  604MOL0     H81511   9.031   8.637  13.325 -0.8859 -1.2065 -3.0876
  604MOL0     H81512   9.310   8.604  13.232  1.3678  0.4195  2.2813
  604MOL0     H81513   9.250   8.770  13.248 -2.4169  0.5767  1.5891
  604MOL0     H81514   9.379   8.710  13.435  0.2321  1.0117 -2.8817
  604MOL0     H81515   9.296   8.551  13.443  0.0373  0.3423 -1.9631
  604MOL0     H81516   9.163   8.824  13.520  2.8685  0.3935 -0.8773
  604MOL0     H81517   9.106   8.661  13.565  1.4901 -1.5397 -1.6129
  604MOL0     H81518   9.364   8.796  13.650 -1.3961  1.8474 -0.5416
  604MOL0     H81519   9.317   8.626  13.700 -0.4668 -0.3935 -0.4912
  604MOL0     H81520   9.131   8.702  13.826  0.8776 -2.1874 -0.6091
  604MOL0     H81521   9.134   8.864  13.756 -0.0675 -0.9871 -2.1665
  604MOL0     H81522   8.997   8.687  12.741  3.5143  2.0936 -2.0689
  604MOL0     H81523   8.992   8.668  12.513  1.0077  2.6049  0.9453
  604MOL0     H81524   8.876   8.206  12.176  0.6125 -1.7841  0.3833
  604MOL0     H81525   8.891   8.128  11.937 -2.3664  2.8149 -1.4009
  604MOL0     H81526   8.761   6.703  11.582 -1.1390  0.1620 -0.8280
  604MOL0     H81527   8.816   6.464  11.533 -1.0324 -1.6716 -1.3001
  604MOL0     H81528   8.740   6.102  11.296  0.7121 -0.0617 -0.0490
  604MOL0     H81529   8.772   5.877  11.212 -0.3975  1.6613  1.6637
  604MOL0     H81530   8.868   5.663  11.303 -1.2542  1.3820  0.7097
  604MOL0     H81531   8.833   5.659  11.123  0.5325  1.9887  0.8883
  604MOL0     H81532   9.042   5.514  11.095  2.9751  1.5927  1.7138
  604MOL0     H81533   8.905   5.444  11.197 -0.6875  0.5507 -0.0116
  604MOL0     H81534   9.042   5.535  11.406  0.7747  0.9508 -0.0903
  604MOL0     H81535   9.152   5.585  11.274 -0.4619  0.3605  1.6748
  604MOL0     H81536   9.211   5.392  11.394 -1.0832  0.0018  1.7241
  604MOL0     H81537   9.201   5.342  11.227 -0.2702 -4.0433  1.0802
  604MOL0     H81538   8.848   5.170  11.354 -0.5650  0.9903 -1.4493
  604MOL0     H81539   9.201   5.922  11.263 -0.5048 -0.1655  0.7850
  604MOL0     H81540   9.174   6.145  11.311  1.4257 -0.9887 -0.0543
  605MOL0     O81541  10.066   0.070   8.009  0.9152 -0.0418 -0.4899
  605MOL0     C81542  10.100   0.057   8.128 -0.3680 -0.6559 -0.0277
  605MOL0     O81543  10.022  -0.013   8.220 -0.1751 -0.1158 -0.0293
  605MOL0     C81544   9.921  -0.103   8.183 -0.0647 -0.4474  0.4439
  605MOL0     C81545   9.897  -0.204   8.267  0.5542 -0.0064 -0.2531
  605MOL0     C81546   9.774  -0.277   8.261  0.9307 -0.2706  0.3316
  605MOL0     C81547   9.677  -0.260   8.157  0.6787 -0.1187  0.0002
  605MOL0     O81548   9.554  -0.328   8.142  0.0092 -0.5803  0.2635
  605MOL0     C81549   9.534  -0.452   8.215  0.5178 -0.9575  0.0474
  605MOL0     C81550   9.400  -0.501   8.165 -0.6382  0.0798 -0.7065
  605MOL0     C81551   9.434  -0.557   8.026  0.6120  0.7784  0.2180
  605MOL0     C81552   9.305  -0.620   7.981 -1.0865 -0.1171 -0.0738
  605MOL0     C81553   9.327  -0.653   7.825  0.6518  0.1491  0.2305
  605MOL0     C81554   9.210  -0.744   7.779 -0.0812 -0.3496 -0.3255
  605MOL0     C81555   9.073  -0.716   7.853  0.4164  0.4850  0.2723
  605MOL0     C81556   9.006  -0.578   7.820 -0.1149 -0.1254 -0.2396
  605MOL0     N81557   8.883  -0.554   7.891  0.0853  0.0782  0.1905
  605MOL0     C81558   8.851  -0.432   7.953 -0.4482  0.0074  0.1168
  605MOL0     C81559   8.719  -0.446   7.991  0.5741  0.3176 -0.0721
  605MOL0     C81560   8.644  -0.330   8.056  0.1241  0.2836 -0.1176
  605MOL0     C81561   8.623  -0.219   7.956  0.1311  0.1286  1.1746
  605MOL0     C81562   8.578  -0.093   8.020  0.0743 -0.0054  0.3349
  605MOL0     C81563   8.559   0.027   7.929 -0.0086  0.4359 -0.5302
  605MOL0     O81564   8.587   0.151   7.995 -0.1023 -0.1743 -0.4435
  605MOL0     C81565   8.716   0.176   8.027  0.5968  0.0026 -0.1547
  605MOL0     C81566   8.731   0.259   8.129  0.5597 -0.8356 -0.3705
  605MOL0     C81567   8.853   0.291   8.184  0.8224 -0.9617  0.3062
  605MOL0     C81568   8.856   0.371   8.315  0.9793 -0.1208  0.1452
  605MOL0     C81569   8.971   0.228   8.123 -0.4023 -0.1133 -0.3821
  605MOL0     C81570   9.116   0.265   8.162 -0.0058  0.2630 -0.4903
  605MOL0     O81571   9.211   0.210   8.083 -0.5528  0.2462  0.5132
  605MOL0     C81572   9.339   0.262   8.080 -0.9774  0.2454  0.3412
  605MOL0     C81573   9.384   0.393   8.129  0.5947  0.6161 -0.2096
  605MOL0     C81574   9.523   0.417   8.151  0.6808  0.0337  0.8366
  605MOL0     C81575   9.627   0.319   8.119  0.5674  0.4559  0.7188
  605MOL0     O81576   9.753   0.365   8.137  0.0756 -0.1406  0.0618
  605MOL0     C81577   9.835   0.319   8.028  0.6278 -0.1523 -0.0511
  605MOL0     C81578   9.806   0.411   7.904  0.3523  0.6404 -0.3946
  605MOL0     C81579   9.881   0.352   7.777  0.3416  0.6618  0.4246
  605MOL0     C81580   9.833   0.216   7.735  0.4226  0.0200  0.1538
  605MOL0     C81581   9.883   0.175   7.601 -0.3972  0.2563  0.0601
  605MOL0     C81582  10.033   0.169   7.593 -0.4441 -0.6193  1.1170
  605MOL0     C81583  10.084   0.163   7.445 -0.1653 -0.0120 -0.2839
  605MOL0     C81584  10.224   0.099   7.422  0.7716 -0.1739  0.5666
  605MOL0    Cl81585  10.332   0.180   7.536  0.7266 -0.8949 -0.2474
  605MOL0     C81586   9.573   0.195   8.070 -0.1950  0.0598  0.7554
  605MOL0     C81587   9.442   0.167   8.047  0.1324  0.9894 -0.7036
  605MOL0     O81588   9.136   0.342   8.258 -0.4865 -0.9367  0.5415
  605MOL0     C81589   8.949   0.149   8.011 -0.5357  1.5246 -0.2619
  605MOL0     C81590   8.826   0.110   7.967  1.3828  0.0343  0.1377
  605MOL0     N81591   8.671  -0.563   7.941 -0.0830  0.6198 -0.0305
  605MOL0     N81592   8.773  -0.633   7.893 -0.3314  0.2537 -0.1161
  605MOL0     C81593   9.714  -0.165   8.055 -0.0457 -0.3309  0.3760
  605MOL0     C81594   9.837  -0.086   8.077  0.2793 -0.3923  0.0567
  605MOL0     C81595  10.176   0.164   8.178  0.2887 -1.0062 -0.4260
  605MOL0     C81596  10.217   0.173   8.315 -0.2917  0.1539 -0.1605
  605MOL0     C81597  10.281   0.282   8.369  0.0086 -0.5049  1.1003
  605MOL0     C81598  10.286   0.402   8.287 -0.6102 -0.0219  0.4167
  605MOL0     O81599  10.344   0.528   8.321 -0.0361 -0.6481  0.3562
  605MOL0     C81600  10.459   0.533   8.412  0.0009 -0.0116 -0.0846
  605MOL0     C81601  10.593   0.506   8.350  0.0922 -1.2820  0.0379
  605MOL0     C81602  10.689   0.482   8.466 -0.4555  0.1125  0.0917
  605MOL0     C81603  10.834   0.468   8.414 -0.2960  0.4065  0.1452
  605MOL0     C81604  10.846   0.359   8.315 -0.6583  0.5027  1.5044
  605MOL0     C81605  10.849   0.271   8.235 -0.0086 -0.1316  0.6410
  605MOL0     C81606  10.232   0.405   8.161 -1.0469  0.0277  0.1057
  605MOL0     C81607  10.184   0.284   8.104 -0.5620 -0.2076 -0.0878
  605MOL0     H81608   9.959  -0.223   8.354 -3.5530 -1.1635  2.7568
  605MOL0     H81609   9.750  -0.333   8.350  2.6907 -2.0643 -0.2341
  605MOL0     H81610   9.615  -0.521   8.193  0.2504 -0.7051 -1.9511
  605MOL0     H81611   9.520  -0.439   8.323 -2.5299  0.3395 -0.4041
  605MOL0     H81612   9.368  -0.591   8.220  1.0215  1.3109  2.5734
  605MOL0     H81613   9.317  -0.430   8.176  0.6491  1.4764  0.4489
  605MOL0     H81614   9.451  -0.470   7.962 -1.8541  1.9903  1.1078
  605MOL0     H81615   9.520  -0.626   8.029  0.8329  0.9636  4.3841
  605MOL0     H81616   9.278  -0.707   8.042 -2.3061  2.4428  3.3441
  605MOL0     H81617   9.228  -0.543   7.989 -1.4059 -0.3890 -0.4728
  605MOL0     H81618   9.313  -0.562   7.766 -1.9364 -1.4098 -1.7610
  605MOL0     H81619   9.423  -0.704   7.814  1.0394 -1.8450  7.3703
  605MOL0     H81620   9.192  -0.724   7.673  2.9955  0.3928 -0.8046
  605MOL0     H81621   9.254  -0.844   7.773  4.6629  1.2962  1.8527
  605MOL0     H81622   8.998  -0.786   7.816  0.8362 -0.4967  1.2104
  605MOL0     H81623   9.086  -0.746   7.957  1.3326 -0.9238 -0.2190
  605MOL0     H81624   8.989  -0.577   7.712 -1.6772 -1.0503 -0.0358
  605MOL0     H81625   9.086  -0.506   7.837  1.0799 -1.5447  0.4112
  605MOL0     H81626   8.911  -0.345   7.975  0.1148  0.2318 -2.0948
  605MOL0     H81627   8.544  -0.365   8.086  1.0131 -1.7509  0.6681
  605MOL0     H81628   8.683  -0.296   8.152 -3.6169 -2.5937  2.7585
  605MOL0     H81629   8.545  -0.244   7.883 -1.3929  2.2088  2.0063
  605MOL0     H81630   8.714  -0.199   7.898 -0.3443 -0.7884  0.0649
  605MOL0     H81631   8.647  -0.068   8.101  1.6039 -1.7079 -0.3839
  605MOL0     H81632   8.480  -0.119   8.061  0.1812 -1.4964 -0.3025
  605MOL0     H81633   8.459   0.033   7.885 -0.9743  2.0931  1.7449
  605MOL0     H81634   8.626   0.011   7.844 -1.6584  1.3234 -2.0632
  605MOL0     H81635   8.646   0.304   8.178  1.1225  0.9200 -0.9350
  605MOL0     H81636   8.936   0.444   8.305  2.7597 -2.0061 -0.0898
  605MOL0     H81637   8.755   0.412   8.324 -1.3605 -4.4333 -2.6937
  605MOL0     H81638   8.871   0.309   8.404 -2.3030  2.4848  2.7724
  605MOL0     H81639   9.307   0.463   8.158 -3.3005 -0.8012 -5.5981
  605MOL0     H81640   9.566   0.508   8.191 -0.4138  0.6520  0.6309
  605MOL0     H81641   9.940   0.329   8.059  1.6203 -1.6503 -2.5851
  605MOL0     H81642   9.824   0.214   7.998  1.9194 -0.4374  0.4111
  605MOL0     H81643   9.704   0.409   7.865  1.1250 -0.8972 -2.5086
  605MOL0     H81644   9.839   0.513   7.928 -1.0482  0.5643  2.2867
  605MOL0     H81645   9.988   0.358   7.798  0.5975  0.4661 -0.7849
  605MOL0     H81646   9.856   0.421   7.696 -2.4234  2.3093  2.4708
  605MOL0     H81647   9.850   0.135   7.808  0.4762  0.5334  0.7230
  605MOL0     H81648   9.725   0.230   7.727  0.6278  1.2187 -0.6970
  605MOL0     H81649   9.858   0.266   7.545  2.4300 -0.2160 -2.2653
  605MOL0     H81650   9.834   0.084   7.565 -1.5004  0.7924  0.1672
  605MOL0     H81651  10.081   0.260   7.629  2.0579 -0.2367 -2.5473
  605MOL0     H81652  10.072   0.087   7.654 -1.1512  0.3634  2.9402
  605MOL0     H81653  10.080   0.267   7.409 -0.4980  0.8291  2.0184
  605MOL0     H81654  10.011   0.099   7.396  1.7485 -1.0652 -1.9225
  605MOL0     H81655  10.270   0.114   7.324 -2.0574 -2.5230 -1.3001
  605MOL0     H81656  10.236  -0.009   7.440 -3.8027 -1.0841 -0.6417
  605MOL0     H81657   9.650   0.119   8.064  1.7865  2.0565 -0.6419
  605MOL0     H81658   9.404   0.067   8.026  1.1968  0.0188  1.6167
  605MOL0     H81659   9.037   0.113   7.960  1.0903  0.4073  3.0306
  605MOL0     H81660   8.823   0.043   7.881  1.7589  0.6981 -0.4007
  605MOL0     H81661   9.650  -0.154   7.968 -1.0454  3.4942  1.3962
  605MOL0     H81662   9.838  -0.009   8.000  2.2911  1.3025  1.6860
  605MOL0     H81663  10.205   0.083   8.375 -1.5076  1.3464  1.4880
  605MOL0     H81664  10.326   0.273   8.467  4.3335 -2.9417 -0.7961
  605MOL0     H81665  10.450   0.628   8.466 -0.4029  0.4965 -1.0243
  605MOL0     H81666  10.451   0.455   8.488 -2.9001 -1.1987 -1.4591
  605MOL0     H81667  10.637   0.590   8.294  1.4837 -1.3633  0.9594
  605MOL0     H81668  10.589   0.428   8.273 -0.3967  2.1645 -3.8006
  605MOL0     H81669  10.674   0.385   8.514  0.5309  0.6679  1.6160
  605MOL0     H81670  10.679   0.556   8.546  2.1964 -2.7387  3.4201
  605MOL0     H81671  10.896   0.455   8.504 -0.2856  2.8841  0.5494
  605MOL0     H81672  10.872   0.559   8.368  1.4856  0.0638  0.8345
  605MOL0     H81673  10.854   0.190   8.165  1.7876  0.4326  0.0643
  605MOL0     H81674  10.251   0.493   8.100 -1.3047  0.4326  0.5980
  605MOL0     H81675  10.163   0.291   7.998  1.1095  2.1179 -0.3442
  606MOL0     O81676   4.177   7.423   4.002  0.4473 -0.2565  0.1260
  606MOL0     C81677   4.175   7.516   3.911 -0.1450  0.2612 -0.3592
  606MOL0     O81678   4.221   7.496   3.783  0.2548  0.0081  0.3267
  606MOL0     C81679   4.305   7.396   3.739 -0.2117 -0.6119  0.2179
  606MOL0     C81680   4.415   7.430   3.651  1.4634  0.1426 -0.0211
  606MOL0     C81681   4.510   7.337   3.613 -0.0786  0.4633 -0.2614
  606MOL0     C81682   4.515   7.211   3.680  0.6795 -0.0941 -0.1944
  606MOL0     O81683   4.609   7.113   3.660 -0.1949  0.1755  0.0780
  606MOL0     C81684   4.714   7.134   3.559 -0.4061 -0.0415  0.6804
  606MOL0     C81685   4.800   7.008   3.540 -0.7808  0.5012  0.0875
  606MOL0     C81686   4.729   6.898   3.455 -0.0440 -0.6006 -1.1898
  606MOL0     C81687   4.820   6.784   3.435 -1.2003 -0.3885  0.0559
  606MOL0     C81688   4.749   6.654   3.384  0.4288  0.4767 -0.0747
  606MOL0     C81689   4.835   6.527   3.362  1.0000 -0.3648 -0.5498
  606MOL0     C81690   4.753   6.414   3.292 -0.1406  0.7356  0.3415
  606MOL0     C81691   4.680   6.459   3.159 -0.0675  0.1215 -0.1315
  606MOL0     N81692   4.642   6.356   3.059 -0.3303  0.6972 -0.3609
  606MOL0     C81693   4.526   6.284   3.053 -1.0134 -0.7827 -0.0890
  606MOL0     C81694   4.523   6.236   2.928  1.0673  1.0893  0.1936
  606MOL0     C81695   4.399   6.175   2.866 -0.0007  0.3571  0.3341
  606MOL0     C81696   4.381   6.018   2.864 -0.2522 -0.3392 -0.6726
  606MOL0     C81697   4.500   5.950   2.790  0.1682 -0.7349 -0.2377
  606MOL0     C81698   4.529   6.002   2.649 -0.4944  0.2041 -0.1417
  606MOL0     O81699   4.650   5.947   2.601  0.1393 -0.0894  0.1895
  606MOL0     C81700   4.649   5.811   2.581 -0.8463 -0.1435  0.2077
  606MOL0     C81701   4.601   5.771   2.462  0.0604 -1.0037 -0.5623
  606MOL0     C81702   4.603   5.635   2.428  0.0910  0.5791  0.1073
  606MOL0     C81703   4.516   5.597   2.315  0.4627  0.3847  0.2706
  606MOL0     C81704   4.666   5.540   2.510 -0.7171  0.4173  0.3376
  606MOL0     C81705   4.674   5.394   2.482  0.5552 -0.0211  1.1185
  606MOL0     O81706   4.681   5.313   2.599  0.6783 -0.1624  0.1347
  606MOL0     C81707   4.743   5.189   2.606  0.8790  0.0298  0.1454
  606MOL0     C81708   4.732   5.123   2.729 -0.9457 -0.8542  1.1659
  606MOL0     C81709   4.779   4.985   2.748 -0.2352 -0.8770 -0.5453
  606MOL0     C81710   4.839   4.912   2.648  0.2137 -0.3528  0.1885
  606MOL0     O81711   4.863   4.784   2.685 -0.0541 -0.5880  0.1436
  606MOL0     C81712   4.852   4.691   2.577  0.2926  0.0688 -0.3839
  606MOL0     C81713   4.922   4.569   2.628  0.0176  0.1341  0.3686
  606MOL0     C81714   5.070   4.591   2.649 -0.6333  0.3928  0.2770
  606MOL0     C81715   5.108   4.514   2.771  1.4781 -0.6168  0.3826
  606MOL0     C81716   5.261   4.489   2.778 -0.7008 -0.0735 -0.2437
  606MOL0     C81717   5.352   4.616   2.777  0.1749 -0.3360 -0.2435
  606MOL0     C81718   5.498   4.559   2.804  0.6113  0.5499  0.2942
  606MOL0     C81719   5.599   4.665   2.760  0.3001 -0.7777  0.3872
  606MOL0    Cl81720   5.563   4.823   2.843 -0.3657  0.1053 -0.4565
  606MOL0     C81721   4.852   4.974   2.523 -0.1359 -1.0170  0.0480
  606MOL0     C81722   4.807   5.114   2.508 -0.3711 -0.2339  0.0114
  606MOL0     O81723   4.701   5.355   2.369 -0.6837  0.3553  0.6312
  606MOL0     C81724   4.726   5.585   2.623  0.6814  0.8081 -0.1569
  606MOL0     C81725   4.723   5.727   2.660  0.4141 -0.0412  0.5385
  606MOL0     N81726   4.639   6.270   2.865 -0.2326 -0.2722 -0.0395
  606MOL0     N81727   4.715   6.342   2.946 -0.3922  1.0046  0.0087
  606MOL0     C81728   4.405   7.170   3.762 -0.2552 -0.4587 -0.5388
  606MOL0     C81729   4.303   7.261   3.784  0.7794 -0.2643 -0.0801
  606MOL0     C81730   4.126   7.642   3.960 -0.3452  0.1544  0.6535
  606MOL0     C81731   4.089   7.663   4.102 -0.5085  0.9121  0.7127
  606MOL0     C81732   4.026   7.788   4.135  1.3507 -0.6012  0.0355
  606MOL0     C81733   4.006   7.891   4.034  0.1470 -0.0263 -0.3274
  606MOL0     O81734   3.953   8.017   4.057 -0.8716 -0.2471 -0.6089
  606MOL0     C81735   4.062   8.105   4.101  0.0778 -0.0856  0.3797
  606MOL0     C81736   4.127   8.193   3.992 -0.6386  0.3814 -0.3817
  606MOL0     C81737   4.028   8.284   3.918 -0.5222  0.2645 -0.7276
  606MOL0     C81738   4.089   8.325   3.784  0.3580  0.1863  0.2505
  606MOL0     C81739   4.130   8.226   3.691 -0.3076 -0.3695  0.2057
  606MOL0     C81740   4.162   8.125   3.625  0.2876 -0.4134 -1.0468
  606MOL0     C81741   4.053   7.867   3.904  0.0004 -0.5570 -0.1518
  606MOL0     C81742   4.121   7.746   3.878 -0.2155 -0.3088  0.6633
  606MOL0     H81743   4.424   7.535   3.624  3.5589 -0.2690 -1.2419
  606MOL0     H81744   4.582   7.349   3.533  0.2893 -1.1135 -0.2000
  606MOL0     H81745   4.667   7.148   3.461  0.0127  2.5398  0.7574
  606MOL0     H81746   4.776   7.221   3.583 -0.2243  0.1498 -0.4302
  606MOL0     H81747   4.902   7.014   3.500 -0.6773 -5.0760 -1.2591
  606MOL0     H81748   4.815   6.976   3.643 -0.1823  1.9690  0.4797
  606MOL0     H81749   4.632   6.869   3.496  1.9033 -1.8691  3.0774
  606MOL0     H81750   4.720   6.948   3.358 -0.8540  0.3090 -0.6551
  606MOL0     H81751   4.905   6.804   3.369  0.1188  0.1063  1.7991
  606MOL0     H81752   4.877   6.764   3.527 -0.2356 -0.2572 -0.4978
  606MOL0     H81753   4.672   6.614   3.451  0.7414 -3.6897 -1.8445
  606MOL0     H81754   4.700   6.682   3.290 -0.0128  3.4142  0.9259
  606MOL0     H81755   4.918   6.561   3.300  0.9509 -1.6312 -1.3553
  606MOL0     H81756   4.872   6.501   3.461  0.5403  1.7158  0.2094
  606MOL0     H81757   4.828   6.346   3.250 -0.1313  0.9041  0.0855
  606MOL0     H81758   4.673   6.358   3.341  1.1493 -0.4257  1.2062
  606MOL0     H81759   4.735   6.537   3.104  0.4404  0.1032  0.3442
  606MOL0     H81760   4.589   6.499   3.204  1.3361  0.9608  2.1241
  606MOL0     H81761   4.447   6.286   3.128 -0.5361  5.1297  0.7574
  606MOL0     H81762   4.316   6.210   2.928  1.2042 -2.0252  3.5865
  606MOL0     H81763   4.391   6.219   2.766 -0.7950  0.9692  0.6501
  606MOL0     H81764   4.289   6.005   2.807 -2.5829 -0.2687  2.7990
  606MOL0     H81765   4.374   5.977   2.965  1.1170  1.6619  0.3215
  606MOL0     H81766   4.490   5.841   2.788 -0.0064 -0.7306  0.2143
  606MOL0     H81767   4.585   5.976   2.853 -0.7118 -0.3413  0.8236
  606MOL0     H81768   4.545   6.110   2.636 -2.3016  0.2147 -3.0819
  606MOL0     H81769   4.449   5.983   2.577  1.5916 -0.6637 -2.3463
  606MOL0     H81770   4.541   5.837   2.401  0.2023  0.9256  1.2662
  606MOL0     H81771   4.429   5.549   2.361 -0.4097 -0.5427 -2.1969
  606MOL0     H81772   4.486   5.674   2.244  1.0934 -0.8652 -1.4075
  606MOL0     H81773   4.582   5.535   2.253  0.0152  1.9708 -1.8875
  606MOL0     H81774   4.700   5.178   2.817  2.4379  2.3953  0.6017
  606MOL0     H81775   4.779   4.951   2.851 -1.2006 -0.2988 -0.3408
  606MOL0     H81776   4.743   4.695   2.568  0.2378  0.1775  0.2689
  606MOL0     H81777   4.900   4.726   2.485 -1.0551  2.4819 -0.2658
  606MOL0     H81778   4.867   4.513   2.704 -3.6861 -0.9922 -2.7976
  606MOL0     H81779   4.922   4.501   2.542  2.5205 -1.9076  1.8708
  606MOL0     H81780   5.098   4.697   2.659  0.7467 -0.0551  1.5689
  606MOL0     H81781   5.130   4.553   2.565 -0.1014 -1.9251  1.6326
  606MOL0     H81782   5.067   4.558   2.862  3.2287  1.4606  0.2628
  606MOL0     H81783   5.068   4.415   2.750 -0.4530  0.6724 -2.9029
  606MOL0     H81784   5.291   4.432   2.689  1.8959 -0.2379  0.6566
  606MOL0     H81785   5.289   4.425   2.863  0.4859 -1.4232 -1.5817
  606MOL0     H81786   5.363   4.670   2.682  3.2917 -0.3279  0.0127
  606MOL0     H81787   5.310   4.682   2.853 -3.8957 -4.6273  1.6610
  606MOL0     H81788   5.506   4.468   2.744 -1.8494 -0.5572  1.4608
  606MOL0     H81789   5.512   4.547   2.912 -0.4470  3.3490  0.8063
  606MOL0     H81790   5.586   4.688   2.654 -0.5962 -0.1404  0.6192
  606MOL0     H81791   5.703   4.643   2.784 -0.4196  0.3479  5.9891
  606MOL0     H81792   4.905   4.938   2.436 -0.5710  0.4823 -0.8761
  606MOL0     H81793   4.801   5.155   2.407 -0.9888  1.2446  0.6302
  606MOL0     H81794   4.771   5.522   2.699  0.2193 -0.7551 -1.1298
  606MOL0     H81795   4.767   5.759   2.754 -0.6232  1.2658  0.6141
  606MOL0     H81796   4.391   7.070   3.800  0.8658 -0.1008  0.8893
  606MOL0     H81797   4.238   7.239   3.868 -0.7658 -0.7686 -1.3486
  606MOL0     H81798   4.110   7.585   4.175  0.1041 -0.0625 -0.4725
  606MOL0     H81799   3.988   7.805   4.235 -0.9872 -0.8870 -0.7290
  606MOL0     H81800   4.020   8.179   4.171  1.0784  0.2898  0.5999
  606MOL0     H81801   4.142   8.052   4.153  1.7785  0.1692 -1.8593
  606MOL0     H81802   4.168   8.127   3.914 -0.5287  2.1621 -1.8892
  606MOL0     H81803   4.203   8.262   4.028 -0.2921  0.6492 -1.5669
  606MOL0     H81804   4.016   8.378   3.973  2.6996  1.2755 -1.5529
  606MOL0     H81805   3.930   8.235   3.913 -0.4038  0.1468 -2.2914
  606MOL0     H81806   4.183   8.378   3.802  1.1700 -1.5659  1.5253
  606MOL0     H81807   4.017   8.380   3.723 -0.9954 -3.7638 -2.0664
  606MOL0     H81808   4.181   8.029   3.581 -1.3909 -1.5805  0.6062
  606MOL0     H81809   4.037   7.945   3.830  0.0277 -2.0473 -1.7908
  606MOL0     H81810   4.152   7.733   3.775 -1.7616 -1.1331  0.2730
  607MOL0     O81811   4.765   1.818   3.860 -0.2642  1.0352 -0.2459
  607MOL0     C81812   4.737   1.823   3.741  0.3222  0.0284  0.1017
  607MOL0     O81813   4.654   1.912   3.677  0.0847 -0.0480  0.2782
  607MOL0     C81814   4.594   2.004   3.744  0.7276 -0.4848 -1.7198
  607MOL0     C81815   4.656   2.097   3.834 -0.5151  0.7277  0.0562
  607MOL0     C81816   4.567   2.175   3.911 -0.1891 -0.7334 -0.3152
  607MOL0     C81817   4.426   2.181   3.894 -0.5181 -0.0388  0.0932
  607MOL0     O81818   4.346   2.265   3.974 -0.3550  0.0312 -0.1976
  607MOL0     C81819   4.208   2.298   3.932 -0.5236 -0.2972  0.3207
  607MOL0     C81820   4.163   2.416   4.003 -0.2714 -0.2147 -0.5022
  607MOL0     C81821   4.080   2.389   4.132  0.0755 -0.3746 -0.6803
  607MOL0     C81822   4.035   2.528   4.184  0.1487  0.3872 -0.9924
  607MOL0     C81823   3.954   2.509   4.317 -0.2189  0.4826  0.6658
  607MOL0     C81824   3.946   2.645   4.396  0.7475  0.2974 -0.7346
  607MOL0     C81825   3.892   2.618   4.537  0.0887  0.1187 -0.8500
  607MOL0     C81826   3.910   2.744   4.629 -0.3809  0.6490 -0.7325
  607MOL0     N81827   3.861   2.716   4.763 -0.1409  0.1454  0.1161
  607MOL0     C81828   3.914   2.638   4.861 -0.0325 -0.3919  0.2433
  607MOL0     C81829   3.855   2.680   4.978 -1.3982 -0.6336 -0.5934
  607MOL0     C81830   3.884   2.645   5.124  1.0940  1.1623  0.7723
  607MOL0     C81831   3.999   2.727   5.189 -0.6645 -0.7126  0.0904
  607MOL0     C81832   3.987   2.884   5.178  0.4712  0.3085 -0.8713
  607MOL0     C81833   4.062   2.964   5.282 -0.6449 -0.9643 -0.7036
  607MOL0     O81834   4.204   2.960   5.232  0.1838  0.2248 -0.2196
  607MOL0     C81835   4.308   2.939   5.317 -1.0608  0.0614 -0.1690
  607MOL0     C81836   4.440   2.942   5.257  0.0271  0.0097 -0.6930
  607MOL0     C81837   4.556   2.938   5.346 -0.0754  1.1290  0.1800
  607MOL0     C81838   4.696   2.906   5.290 -0.6478  0.3910  0.1318
  607MOL0     C81839   4.537   2.944   5.488 -0.1302 -0.3225 -0.0112
  607MOL0     C81840   4.648   2.967   5.587  0.6586 -0.0373 -0.2310
  607MOL0     O81841   4.704   2.848   5.649  0.6237 -0.0878 -0.1977
  607MOL0     C81842   4.815   2.849   5.723 -0.6026  0.9725 -0.6437
  607MOL0     C81843   4.816   2.779   5.846  0.3332  0.1112  0.7363
  607MOL0     C81844   4.920   2.785   5.934  0.3275  0.2453 -0.6162
  607MOL0     C81845   5.029   2.871   5.906  0.0372  0.1335  0.0700
  607MOL0     O81846   5.131   2.900   5.996 -0.0805 -0.3202 -0.3645
  607MOL0     C81847   5.120   2.859   6.129  0.4208 -0.1122 -0.7697
  607MOL0     C81848   5.188   2.725   6.151  0.4303  0.0987  0.0324
  607MOL0     C81849   5.340   2.748   6.166  0.9963  0.2615 -0.6851
  607MOL0     C81850   5.419   2.630   6.215  0.2079 -0.6891  0.4613
  607MOL0     C81851   5.397   2.502   6.140 -0.1778 -0.0443 -0.2766
  607MOL0     C81852   5.397   2.367   6.226 -0.6367  1.1568 -0.4302
  607MOL0     C81853   5.329   2.249   6.159  0.1734  0.2131  0.1037
  607MOL0     C81854   5.422   2.135   6.145  0.7371  0.2135  0.1737
  607MOL0    Cl81855   5.333   1.981   6.120 -0.0410  0.0153 -0.7343
  607MOL0     C81856   5.032   2.942   5.787 -0.2794  0.1521 -1.2885
  607MOL0     C81857   4.927   2.933   5.697  0.1094 -0.2512 -0.5719
  607MOL0     O81858   4.683   3.081   5.606  0.7517 -0.4295  0.1815
  607MOL0     C81859   4.410   2.944   5.545 -0.3198 -0.3151  0.5714
  607MOL0     C81860   4.304   2.941   5.463  0.0462 -0.2718  1.1511
  607MOL0     N81861   3.763   2.776   4.961  0.2583  0.1948  0.7372
  607MOL0     N81862   3.771   2.797   4.831 -0.4086  0.1096 -0.0670
  607MOL0     C81863   4.373   2.093   3.800  0.0752  0.3871  0.3769
  607MOL0     C81864   4.454   2.005   3.726  0.7080 -0.7581 -0.8923
  607MOL0     C81865   4.814   1.743   3.649 -0.6917 -0.3853 -0.2493
  607MOL0     C81866   4.753   1.681   3.539  0.8076  0.1107  0.2089
  607MOL0     C81867   4.820   1.593   3.458  0.0251  0.2199 -0.4162
  607MOL0     C81868   4.957   1.563   3.473  0.1089  0.3645  0.3666
  607MOL0     O81869   5.036   1.480   3.399  0.1541  0.3791 -0.2041
  607MOL0     C81870   5.004   1.458   3.265  0.3889 -0.0895  0.6566
  607MOL0     C81871   5.089   1.362   3.182  0.3657  0.3003 -0.4084
  607MOL0     C81872   5.227   1.420   3.177  0.2538  0.9212  0.1493
  607MOL0     C81873   5.241   1.533   3.079  0.1205 -0.2106  0.6943
  607MOL0     C81874   5.330   1.646   3.109 -0.3323 -0.4503  0.0984
  607MOL0     C81875   5.431   1.719   3.116  0.1265 -0.3134  0.2716
  607MOL0     C81876   5.019   1.612   3.588  0.9488 -0.3618  0.0251
  607MOL0     C81877   4.954   1.711   3.671 -0.4911 -0.7456  0.3508
  607MOL0     H81878   4.764   2.103   3.834 -0.5467  1.5765  1.1262
  607MOL0     H81879   4.598   2.258   3.973  0.0605 -0.5926 -0.6245
  607MOL0     H81880   4.213   2.331   3.828 -3.0642  0.7461  0.4673
  607MOL0     H81881   4.134   2.220   3.950 -1.7365  0.0819 -2.5596
  607MOL0     H81882   4.251   2.474   4.031  0.5130 -1.8514  0.5814
  607MOL0     H81883   4.097   2.469   3.933  2.0228  0.0877 -2.5661
  607MOL0     H81884   3.996   2.320   4.121 -0.5265  0.4752 -1.6273
  607MOL0     H81885   4.154   2.354   4.204  1.5840 -2.2829 -3.0089
  607MOL0     H81886   4.132   2.578   4.195 -0.4972  1.1616  2.4770
  607MOL0     H81887   3.977   2.581   4.108 -2.0998 -3.2872 -2.0931
  607MOL0     H81888   3.856   2.466   4.294  0.7055 -2.1459  1.1582
  607MOL0     H81889   3.984   2.434   4.392  1.7945  0.1915 -0.3664
  607MOL0     H81890   4.042   2.694   4.414  2.1147 -2.5108  0.1543
  607MOL0     H81891   3.885   2.722   4.347  2.0744 -0.3925 -3.7095
  607MOL0     H81892   3.787   2.587   4.536 -0.1626  0.9033 -2.2216
  607MOL0     H81893   3.938   2.526   4.576  2.0782  0.7278 -1.5997
  607MOL0     H81894   3.850   2.821   4.580 -2.5879 -0.6201 -0.1801
  607MOL0     H81895   4.014   2.777   4.627 -0.7155  1.7792 -3.1367
  607MOL0     H81896   3.991   2.568   4.829 -1.1567 -0.9631 -1.3482
  607MOL0     H81897   3.792   2.654   5.183 -0.7028 -2.4266 -1.1344
  607MOL0     H81898   3.908   2.539   5.129 -1.5117  0.3706 -1.3191
  607MOL0     H81899   4.091   2.699   5.137 -1.1438 -5.8311  1.4516
  607MOL0     H81900   4.016   2.698   5.293  1.7297  2.8697  0.8845
  607MOL0     H81901   3.880   2.898   5.192 -0.2128 -2.9605 -1.9065
  607MOL0     H81902   4.022   2.916   5.079  4.3011 -0.6938 -0.0192
  607MOL0     H81903   4.048   2.927   5.384  0.2207  0.5671  0.0114
  607MOL0     H81904   4.027   3.068   5.276 -1.9539 -1.2427  1.3371
  607MOL0     H81905   4.457   2.917   5.152 -5.0582 -3.2559 -1.0973
  607MOL0     H81906   4.699   2.811   5.235  2.5542  1.8806 -2.6816
  607MOL0     H81907   4.723   2.968   5.204 -3.1875 -1.7520 -2.4296
  607MOL0     H81908   4.774   2.910   5.366 -1.4825  1.0171  0.9710
  607MOL0     H81909   4.728   2.724   5.878 -0.0533 -0.5502 -1.2843
  607MOL0     H81910   4.917   2.717   6.018 -0.1110 -0.8659 -1.5110
  607MOL0     H81911   5.167   2.927   6.200  0.1247 -2.0542  1.4017
  607MOL0     H81912   5.014   2.852   6.157  0.4598  2.3712  0.2294
  607MOL0     H81913   5.132   2.684   6.235 -2.6263  1.5621 -1.1437
  607MOL0     H81914   5.155   2.667   6.064 -0.5437  0.3802  0.2024
  607MOL0     H81915   5.362   2.837   6.226  1.3678  0.9803 -1.8497
  607MOL0     H81916   5.370   2.774   6.064 -1.0963  0.2798 -1.3415
  607MOL0     H81917   5.524   2.658   6.198  0.1513 -1.9768 -2.6619
  607MOL0     H81918   5.410   2.607   6.321  0.8130 -2.1919  0.2195
  607MOL0     H81919   5.479   2.493   6.067  0.3097 -2.7650  0.4985
  607MOL0     H81920   5.314   2.509   6.070  1.4300 -1.0933 -2.4258
  607MOL0     H81921   5.501   2.351   6.257 -0.2005  4.2156 -0.0035
  607MOL0     H81922   5.330   2.385   6.311 -4.1113 -0.1035 -2.6600
  607MOL0     H81923   5.272   2.279   6.071 -0.6224  0.2254  0.6117
  607MOL0     H81924   5.253   2.215   6.230 -2.1027  0.7223 -1.9498
  607MOL0     H81925   5.484   2.128   6.235 -0.5794  0.9756  1.1808
  607MOL0     H81926   5.494   2.141   6.063  2.2377 -2.8128  1.1008
  607MOL0     H81927   5.113   3.013   5.773  1.4893 -0.5442  3.4187
  607MOL0     H81928   4.927   3.000   5.611  0.5614  0.7913  0.2071
  607MOL0     H81929   4.395   2.965   5.650 -4.1280 -1.0673  0.3229
  607MOL0     H81930   4.209   2.954   5.514  0.7731 -1.1754  2.7968
  607MOL0     H81931   4.268   2.115   3.783  0.3558  1.2383 -0.3057
  607MOL0     H81932   4.403   1.941   3.654 -2.0944 -0.4020  0.6478
  607MOL0     H81933   4.648   1.691   3.515  0.6598 -0.3030  0.6514
  607MOL0     H81934   4.765   1.541   3.380 -0.6393 -1.9968  1.3991
  607MOL0     H81935   4.903   1.415   3.271 -0.4051  1.4235 -0.8461
  607MOL0     H81936   5.002   1.556   3.215  3.4154  0.0882  0.7178
  607MOL0     H81937   5.048   1.362   3.081 -4.3522  1.2377  1.2794
  607MOL0     H81938   5.069   1.260   3.218 -0.8216 -0.1452 -2.1963
  607MOL0     H81939   5.301   1.343   3.151 -0.5423  0.8642 -2.2066
  607MOL0     H81940   5.245   1.456   3.279  1.7256  0.0743  0.2149
  607MOL0     H81941   5.142   1.577   3.067  0.2896  0.0739  0.3090
  607MOL0     H81942   5.268   1.502   2.977 -3.2537  1.7569 -0.9707
  607MOL0     H81943   5.512   1.786   3.136 -0.7721  0.7001  0.5445
  607MOL0     H81944   5.122   1.582   3.606  2.0975  3.6032  1.1438
  607MOL0     H81945   4.989   1.766   3.758  0.3429  3.4176 -2.3079
  608MOL0     O81946  11.194   6.257   9.313 -0.2407 -0.0801  0.1920
  608MOL0     C81947  11.245   6.168   9.243 -0.1189  0.0491 -0.0561
  608MOL0     O81948  11.184   6.054   9.201  0.1201  0.5023 -0.2091
  608MOL0     C81949  11.050   6.026   9.209 -0.0778  0.2687 -0.1985
  608MOL0     C81950  11.010   5.888   9.238  0.1172 -0.0402 -0.1106
  608MOL0     C81951  10.877   5.857   9.259  0.0008 -0.1019  0.0363
  608MOL0     C81952  10.772   5.953   9.246 -0.9301 -0.3103 -0.0779
  608MOL0     O81953  10.639   5.931   9.252  0.9015 -0.6392 -0.9230
  608MOL0     C81954  10.595   5.803   9.285  0.0599 -0.1796 -0.0343
  608MOL0     C81955  10.456   5.783   9.224 -0.2708 -0.4851 -0.3485
  608MOL0     C81956  10.460   5.771   9.068 -0.4933  0.5468  0.7101
  608MOL0     C81957  10.321   5.737   9.009  1.0658 -0.1906 -0.5314
  608MOL0     C81958  10.329   5.721   8.857  1.0324  0.7181 -0.3499
  608MOL0     C81959  10.199   5.683   8.784  0.2932  0.3414  0.3848
  608MOL0     C81960  10.162   5.536   8.817  0.3440  0.4196 -0.0475
  608MOL0     C81961  10.021   5.504   8.753 -0.0554 -0.0006 -0.7684
  608MOL0     N81962   9.941   5.397   8.828 -0.5477 -0.5697 -0.0818
  608MOL0     C81963   9.967   5.275   8.875 -0.5789 -0.2011  0.2116
  608MOL0     C81964   9.856   5.245   8.950 -0.5076 -0.2296 -0.5191
  608MOL0     C81965   9.829   5.126   9.040  0.2233  0.8531 -0.1351
  608MOL0     C81966   9.855   5.151   9.189  0.7225  0.1301 -0.7652
  608MOL0     C81967   9.777   5.050   9.274 -0.2260  0.3548 -0.4358
  608MOL0     C81968   9.794   5.077   9.422 -0.0527 -0.3398 -0.7295
  608MOL0     O81969   9.743   5.202   9.463 -0.0630  0.5848  0.0166
  608MOL0     C81970   9.610   5.211   9.509 -0.8864 -0.4249 -0.6852
  608MOL0     C81971   9.520   5.268   9.419  0.1655  0.8376  0.0742
  608MOL0     C81972   9.385   5.275   9.461  0.2240  0.7608 -0.1993
  608MOL0     C81973   9.300   5.347   9.365  0.2207 -1.0350  0.6211
  608MOL0     C81974   9.347   5.241   9.598 -0.4016  0.6866  1.2470
  608MOL0     C81975   9.211   5.240   9.646  0.1829 -0.1588 -0.2576
  608MOL0     O81976   9.120   5.177   9.563  0.3412 -0.1170  0.7828
  608MOL0     C81977   9.014   5.110   9.625 -0.2801 -1.0167 -0.0945
  608MOL0     C81978   9.015   5.041   9.744  0.2902 -0.7163  0.2948
  608MOL0     C81979   8.899   4.991   9.805 -0.6636 -0.0132  0.1962
  608MOL0     C81980   8.783   5.004   9.735 -0.2729  0.5455 -0.4932
  608MOL0     O81981   8.667   4.946   9.781  0.3871 -0.2114  0.2943
  608MOL0     C81982   8.658   4.802   9.786 -0.0901 -0.2629  0.3764
  608MOL0     C81983   8.590   4.763   9.916 -0.4730 -0.5678  0.1417
  608MOL0     C81984   8.690   4.774  10.035  0.0790  0.0427  0.9939
  608MOL0     C81985   8.680   4.904  10.119 -0.7713  0.1875 -0.8600
  608MOL0     C81986   8.798   4.932  10.216 -0.0052 -0.0580  0.1188
  608MOL0     C81987   8.800   4.840  10.342  1.0085 -0.5661  0.3525
  608MOL0     C81988   8.668   4.805  10.407  0.2331  0.6852  0.4372
  608MOL0     C81989   8.590   4.931  10.449 -0.0530  0.1579 -0.5211
  608MOL0    Cl81990   8.419   4.881  10.497 -0.3188 -0.2452  0.0163
  608MOL0     C81991   8.780   5.079   9.614 -0.2531 -0.3922  0.1083
  608MOL0     C81992   8.892   5.143   9.560 -0.6060 -0.7473  0.1517
  608MOL0     O81993   9.184   5.291   9.754 -0.2430  0.1276  0.2776
  608MOL0     C81994   9.451   5.194   9.687 -0.9786 -0.4274 -0.2722
  608MOL0     C81995   9.585   5.167   9.643  0.3354 -1.4682 -0.0740
  608MOL0     N81996   9.757   5.337   8.937  0.5620 -0.0519 -0.8719
  608MOL0     N81997   9.809   5.418   8.858 -0.7068  0.8459 -0.3852
  608MOL0     C81998  10.814   6.084   9.210  0.8710 -0.3852 -1.2889
  608MOL0     C81999  10.948   6.124   9.199  0.8152  1.2265  0.0101
  608MOL0     C82000  11.389   6.176   9.203 -0.7521 -0.1241  0.8957
  608MOL0     C82001  11.465   6.297   9.201  0.9557  0.3783  0.2892
  608MOL0     C82002  11.593   6.306   9.154 -0.7844 -0.6097 -0.2182
  608MOL0     C82003  11.661   6.197   9.107  0.2434  0.2503  0.3158
  608MOL0     O82004  11.790   6.199   9.055  0.6320  0.1281  0.4095
  608MOL0     C82005  11.869   6.317   9.056 -0.1268  0.3075  0.0797
  608MOL0     C82006  11.944   6.319   9.187 -0.7752  0.3396  0.2040
  608MOL0     C82007  12.050   6.439   9.200  0.3212  0.8992  0.3926
  608MOL0     C82008  11.998   6.573   9.141 -0.4497  0.3037  0.3794
  608MOL0     C82009  11.860   6.605   9.177  0.2419  0.1012 -0.3367
  608MOL0     C82010  11.746   6.634   9.213 -0.2161  0.5318 -0.2492
  608MOL0     C82011  11.589   6.069   9.106  0.9867  0.1337 -0.6806
  608MOL0     C82012  11.454   6.065   9.154 -0.6812  0.2429 -0.2177
  608MOL0     H82013  11.090   5.815   9.239 -0.2335 -0.4824 -1.5331
  608MOL0     H82014  10.854   5.757   9.296  0.2483  0.9187  3.2737
  608MOL0     H82015  10.679   5.736   9.264  5.5178  5.6605  0.2560
  608MOL0     H82016  10.582   5.795   9.393  3.9807 -1.8688  0.4683
  608MOL0     H82017  10.416   5.686   9.254 -0.7795 -1.8294 -4.6987
  608MOL0     H82018  10.397   5.869   9.256  0.0629 -0.1193 -0.7019
  608MOL0     H82019  10.479   5.869   9.023 -2.9265  0.5761 -0.3954
  608MOL0     H82020  10.541   5.700   9.051  0.2881  1.8806 -1.5304
  608MOL0     H82021  10.296   5.641   9.055  0.5621 -0.2472 -0.9181
  608MOL0     H82022  10.250   5.812   9.045  1.0285 -1.1705  1.6298
  608MOL0     H82023  10.357   5.812   8.803 -1.3325  2.6736  1.4680
  608MOL0     H82024  10.401   5.642   8.832  0.8137  0.6281 -0.7040
  608MOL0     H82025  10.113   5.738   8.822 -1.5749 -2.2404  0.1467
  608MOL0     H82026  10.217   5.681   8.676  2.2763 -0.9518  0.6835
  608MOL0     H82027  10.247   5.473   8.790 -0.8965  0.3328 -4.5887
  608MOL0     H82028  10.164   5.510   8.923  0.6499  0.8035  0.0457
  608MOL0     H82029  10.021   5.468   8.649 -4.5398 -1.1872 -0.5539
  608MOL0     H82030   9.959   5.594   8.758 -1.0160 -0.5386 -2.2065
  608MOL0     H82031  10.058   5.220   8.855 -1.7040 -2.2293  0.3888
  608MOL0     H82032   9.721   5.105   9.039  0.3727 -0.2614  1.8128
  608MOL0     H82033   9.878   5.035   9.002  0.4836  1.3022 -0.8988
  608MOL0     H82034   9.806   5.243   9.223 -1.0340 -1.5932  1.7850
  608MOL0     H82035   9.963   5.152   9.205  0.6590 -2.2683  0.2044
  608MOL0     H82036   9.815   4.949   9.255 -0.0154  0.0044  1.5456
  608MOL0     H82037   9.671   5.063   9.252 -0.1856 -1.2362 -1.7166
  608MOL0     H82038   9.897   5.069   9.457  0.5501  1.9901 -1.7393
  608MOL0     H82039   9.736   4.998   9.470 -2.0017  1.7521  0.6129
  608MOL0     H82040   9.557   5.286   9.319 -0.8422 -1.2681 -0.7429
  608MOL0     H82041   9.205   5.293   9.362 -0.5966  0.3662 -0.4356
  608MOL0     H82042   9.301   5.447   9.409 -1.3214 -1.1177  0.8901
  608MOL0     H82043   9.343   5.350   9.264 -1.7559 -4.4262 -0.4747
  608MOL0     H82044   9.103   5.022   9.806 -0.3760 -0.0836  1.4764
  608MOL0     H82045   8.898   4.938   9.900 -1.8822  2.2534  1.5357
  608MOL0     H82046   8.610   4.762   9.697 -4.2534  1.9618  1.3770
  608MOL0     H82047   8.758   4.758   9.783 -1.5011 -3.9229 -4.0932
  608MOL0     H82048   8.490   4.804   9.933 -0.4246 -0.0635 -0.7160
  608MOL0     H82049   8.560   4.659   9.900 -0.6351 -0.5875  0.5596
  608MOL0     H82050   8.791   4.761   9.995 -0.5181  1.2084 -1.0871
  608MOL0     H82051   8.684   4.692  10.107  0.9187 -3.6167 -2.6754
  608MOL0     H82052   8.694   4.990  10.053  3.8435 -0.0411 -0.5165
  608MOL0     H82053   8.586   4.900  10.174  0.3364 -3.4761  1.0753
  608MOL0     H82054   8.788   5.036  10.250  1.8853  0.6840 -1.4004
  608MOL0     H82055   8.893   4.928  10.162 -1.3239 -1.9241 -2.2316
  608MOL0     H82056   8.843   4.744  10.310  3.1374  0.4775 -0.1128
  608MOL0     H82057   8.867   4.879  10.419  0.1647 -0.7196  1.1865
  608MOL0     H82058   8.694   4.753  10.499  2.5557 -2.6325 -1.8473
  608MOL0     H82059   8.617   4.743  10.332  0.3749  1.7305 -0.5538
  608MOL0     H82060   8.583   5.009  10.372 -1.1743 -0.4420 -1.0477
  608MOL0     H82061   8.645   4.969  10.535  1.6594  0.5641 -1.7405
  608MOL0     H82062   8.685   5.078   9.561 -0.8933  4.0978  0.7841
  608MOL0     H82063   8.877   5.202   9.470 -2.4099  0.4692  1.1880
  608MOL0     H82064   9.437   5.182   9.794  0.7272 -1.9362 -0.1740
  608MOL0     H82065   9.662   5.138   9.715  0.4601 -0.0259  0.4091
  608MOL0     H82066  10.735   6.158   9.207  0.4629 -0.6866  0.5219
  608MOL0     H82067  10.968   6.222   9.158  0.0143  0.8582 -1.3049
  608MOL0     H82068  11.403   6.383   9.224 -1.8710 -0.9160 -1.7959
  608MOL0     H82069  11.647   6.399   9.170 -0.2920 -1.1278  1.3250
  608MOL0     H82070  11.935   6.296   8.971 -0.1092 -1.6324  0.5252
  608MOL0     H82071  11.799   6.392   9.018 -2.4619 -2.4075 -1.4120
  608MOL0     H82072  12.016   6.238   9.202  3.5436  3.9113  0.8427
  608MOL0     H82073  11.873   6.309   9.269  1.5231 -3.4700  2.0011
  608MOL0     H82074  12.141   6.410   9.147 -1.1721 -1.5594 -1.0380
  608MOL0     H82075  12.083   6.451   9.303  0.6401  2.8244  0.1078
  608MOL0     H82076  12.011   6.569   9.032  2.0145 -1.5556  0.6659
  608MOL0     H82077  12.063   6.658   9.162 -1.4745  2.6538 -4.3996
  608MOL0     H82078  11.648   6.671   9.236  1.5441  4.2946  2.2442
  608MOL0     H82079  11.641   5.981   9.071  1.7404  1.5453 -3.3878
  608MOL0     H82080  11.419   5.963   9.163  0.0745 -0.0420 -0.4238
  609MOL0     O82081   0.830   9.935  10.139 -0.2468  0.0379  0.8411
  609MOL0     C82082   0.769  10.002  10.226  0.2350  0.3384  0.5778
  609MOL0     O82083   0.785  10.131  10.249  0.7151 -0.5562 -0.0943
  609MOL0     C82084   0.817  10.225  10.158 -0.2398 -0.3648 -0.4630
  609MOL0     C82085   0.785  10.215  10.019  0.0023 -0.3245 -0.4635
  609MOL0     C82086   0.825  10.322   9.927 -0.0270  0.8342 -0.7360
  609MOL0     C82087   0.889  10.438   9.982  0.0111  0.0379 -0.9508
  609MOL0     O82088   0.922  10.524   9.875 -0.7319 -1.2871 -0.3194
  609MOL0     C82089   1.043  10.593   9.887 -0.4542 -0.8574  0.1235
  609MOL0     C82090   1.025  10.727   9.821 -0.0313 -0.5335 -0.0264
  609MOL0     C82091   0.948  10.830   9.918  0.5776  0.3533  0.5456
  609MOL0     C82092   0.799  10.784   9.929  0.3002 -0.0929  0.3177
  609MOL0     C82093   0.708  10.891  10.003 -0.0430 -0.0726  0.4631
  609MOL0     C82094   0.727  10.888  10.152  0.5829  0.0377  0.3767
  609MOL0     C82095   0.624  10.971  10.233  1.0307  0.2679  0.0118
  609MOL0     C82096   0.572  11.107  10.172  0.5596 -0.4047  1.2464
  609MOL0     N82097   0.525  11.202  10.275  0.0216  0.9345  0.2047
  609MOL0     C82098   0.445  11.170  10.384 -1.3471  0.0306 -1.2709
  609MOL0     C82099   0.419  11.292  10.434 -0.2524  0.4480 -0.4683
  609MOL0     C82100   0.328  11.316  10.554  0.2186  1.3794  0.0467
  609MOL0     C82101   0.420  11.350  10.672 -0.7150 -0.5233 -0.1242
  609MOL0     C82102   0.532  11.251  10.720  0.5418  1.0709 -0.4680
  609MOL0     C82103   0.653  11.315  10.800  0.0155  0.6681  0.2584
  609MOL0     O82104   0.636  11.350  10.939 -1.1753 -0.2694  0.6412
  609MOL0     C82105   0.633  11.261  11.045 -0.1582 -0.6112  0.0804
  609MOL0     C82106   0.612  11.318  11.173 -0.2122  0.5141  0.3227
  609MOL0     C82107   0.613  11.234  11.288  0.4047 -1.3434  0.9486
  609MOL0     C82108   0.607  11.297  11.428 -0.4734  0.1110  0.4779
  609MOL0     C82109   0.628  11.094  11.272 -0.2165  0.0798 -0.5812
  609MOL0     C82110   0.612  11.002  11.395  0.0151  1.1301  0.1153
  609MOL0     O82111   0.634  11.050  11.523 -0.5275 -0.1861 -0.5244
  609MOL0     C82112   0.655  10.950  11.612  0.6988  0.8174 -0.2688
  609MOL0     C82113   0.780  10.875  11.604  0.3192 -0.0211 -0.4166
  609MOL0     C82114   0.799  10.768  11.693  1.0842  1.0882  0.3346
  609MOL0     C82115   0.702  10.730  11.787  0.3199  0.6857  0.0893
  609MOL0     O82116   0.729  10.629  11.866  0.2016 -0.5433  0.2994
  609MOL0     C82117   0.667  10.633  11.995  0.0578  0.3604  0.2704
  609MOL0     C82118   0.736  10.515  12.064 -0.4852 -1.0770 -0.4780
  609MOL0     C82119   0.698  10.382  12.012 -0.8911 -1.0030 -0.3096
  609MOL0     C82120   0.784  10.266  12.091 -0.1722 -0.2415  0.3624
  609MOL0     C82121   0.742  10.130  12.049 -1.0956 -0.5392  0.2449
  609MOL0     C82122   0.790  10.093  11.907  0.3159  0.5842  0.1315
  609MOL0     C82123   0.745   9.956  11.875 -1.0903  0.4843 -0.1731
  609MOL0     C82124   0.769   9.925  11.733 -0.4269 -0.2584 -0.5177
  609MOL0    Cl82125   0.627  10.006  11.646 -0.2935  0.6317 -0.1773
  609MOL0     C82126   0.573  10.802  11.786 -0.0633 -0.8024  0.3584
  609MOL0     C82127   0.549  10.912  11.700 -0.8192 -0.3112 -0.0231
  609MOL0     O82128   0.593  10.883  11.362 -0.3232 -1.2884 -0.0164
  609MOL0     C82129   0.648  11.041  11.138  0.3937 -0.8904 -0.1056
  609MOL0     C82130   0.648  11.125  11.024  0.4421  0.2737 -0.6722
  609MOL0     N82131   0.479  11.387  10.362  0.6703  0.3593  0.2412
  609MOL0     N82132   0.535  11.335  10.267  0.5206  0.8371  0.1264
  609MOL0     C82133   0.907  10.449  10.124 -0.3189  0.5556 -1.2778
  609MOL0     C82134   0.872  10.339  10.205  0.7895  0.0802 -0.1643
  609MOL0     C82135   0.676   9.923  10.308  0.3258 -0.4476 -0.3570
  609MOL0     C82136   0.657   9.784  10.294 -0.0258 -1.1731  0.6516
  609MOL0     C82137   0.554   9.718  10.364 -0.3113 -0.1473 -0.2829
  609MOL0     C82138   0.475   9.778  10.463 -0.1823 -0.6807 -0.1481
  609MOL0     O82139   0.398   9.697  10.547 -0.1536 -0.7288 -0.7607
  609MOL0     C82140   0.313   9.755  10.656 -0.8172  0.5362  0.2647
  609MOL0     C82141   0.398   9.738  10.782 -0.0024  1.3955 -0.4780
  609MOL0     C82142   0.465   9.599  10.783 -0.3139 -0.4675 -0.5760
  609MOL0     C82143   0.489   9.540  10.924 -0.0773  0.3803  1.1113
  609MOL0     C82144   0.353   9.514  10.986 -0.0447  0.0543  0.8792
  609MOL0     C82145   0.240   9.491  11.032 -0.1834 -0.1559 -0.2277
  609MOL0     C82146   0.489   9.918  10.478 -0.9494 -0.3939 -0.6554
  609MOL0     C82147   0.585   9.991  10.399 -0.2114  0.4240 -0.1064
  609MOL0     H82148   0.723  10.135   9.980  0.7798 -1.5031  0.6144
  609MOL0     H82149   0.812  10.315   9.820  3.3364  1.1546 -1.2868
  609MOL0     H82150   1.087  10.612   9.985 -1.1759 -0.4238  0.3717
  609MOL0     H82151   1.127  10.543   9.837  3.6000  0.9600  4.3268
  609MOL0     H82152   1.125  10.768   9.808 -0.9972  1.2194 -2.9702
  609MOL0     H82153   0.977  10.710   9.724 -0.7864 -1.6239  0.5232
  609MOL0     H82154   0.992  10.835  10.018 -1.3609 -3.2443  1.7627
  609MOL0     H82155   0.967  10.922   9.861  2.7008 -0.4660 -0.1834
  609MOL0     H82156   0.772  10.771   9.823 -2.2798 -3.1624  1.1903
  609MOL0     H82157   0.794  10.690   9.984  4.9357 -0.5277  0.3723
  609MOL0     H82158   0.714  10.993   9.964 -0.1303 -0.6223 -1.0744
  609MOL0     H82159   0.604  10.870   9.973  0.2875  2.0257 -2.5762
  609MOL0     H82160   0.695  10.787  10.179 -2.9027  0.3177 -2.1309
  609MOL0     H82161   0.829  10.895  10.192  0.1581 -2.4963  2.1729
  609MOL0     H82162   0.536  10.915  10.264 -0.9928  4.0702  1.6760
  609MOL0     H82163   0.670  11.001  10.328 -0.7877  2.8702  0.1587
  609MOL0     H82164   0.482  11.092  10.111  0.6035  0.1425  1.0427
  609MOL0     H82165   0.649  11.154  10.110 -0.0653  1.2491  1.6773
  609MOL0     H82166   0.405  11.075  10.419 -0.7923  0.2014 -0.1266
  609MOL0     H82167   0.268  11.404  10.529 -0.7169 -0.0875 -3.4872
  609MOL0     H82168   0.261  11.230  10.562  4.9336 -2.8606 -1.1547
  609MOL0     H82169   0.358  11.357  10.762 -0.8607  1.5362 -0.3483
  609MOL0     H82170   0.467  11.445  10.647 -1.5363  0.4961  1.9304
  609MOL0     H82171   0.567  11.205  10.627 -0.4850  3.6240 -2.2568
  609MOL0     H82172   0.485  11.170  10.777  1.6337  0.5672 -0.2716
  609MOL0     H82173   0.681  11.409  10.750  1.2094 -0.2998 -0.9798
  609MOL0     H82174   0.742  11.256  10.775 -0.0072  0.1472  1.3591
  609MOL0     H82175   0.611  11.426  11.181 -1.0680  0.4101  2.6396
  609MOL0     H82176   0.531  11.258  11.496  2.5045 -1.7152  3.0461
  609MOL0     H82177   0.705  11.280  11.474  1.0672 -2.0684 -3.1553
  609MOL0     H82178   0.571  11.400  11.423  0.1947  0.2913 -1.2076
  609MOL0     H82179   0.858  10.896  11.533  1.0455  1.1699  0.6832
  609MOL0     H82180   0.888  10.709  11.676 -0.3816 -1.7335  1.6865
  609MOL0     H82181   0.690  10.719  12.059 -2.1926 -0.0461  1.7603
  609MOL0     H82182   0.559  10.618  11.996  0.3996 -3.0371 -1.1285
  609MOL0     H82183   0.845  10.519  12.050 -0.7405  0.9539 -2.5654
  609MOL0     H82184   0.728  10.516  12.173  1.4235 -4.3909 -0.1581
  609MOL0     H82185   0.719  10.384  11.905  1.8100 -1.3202  0.1211
  609MOL0     H82186   0.593  10.362  12.034 -0.4865 -1.9156  0.9009
  609MOL0     H82187   0.889  10.295  12.078  0.2781 -0.4172  3.0576
  609MOL0     H82188   0.770  10.284  12.198  2.1468  0.9914  0.5203
  609MOL0     H82189   0.634  10.116  12.041 -0.8584 -2.2060 -0.4119
  609MOL0     H82190   0.780  10.062  12.126 -2.7049 -0.2243  1.3745
  609MOL0     H82191   0.751  10.162  11.832 -0.8130 -0.6914 -0.5095
  609MOL0     H82192   0.899  10.095  11.902  0.2905  2.9129 -0.5933
  609MOL0     H82193   0.636   9.945  11.875 -0.8245 -4.1829  0.3228
  609MOL0     H82194   0.776   9.873  11.939 -3.2363 -0.1430  0.1350
  609MOL0     H82195   0.773   9.818  11.715  1.7988 -0.6261  1.5966
  609MOL0     H82196   0.858   9.980  11.699 -0.4342 -1.1676 -2.0801
  609MOL0     H82197   0.489  10.775  11.851 -2.0793  0.1024 -1.7476
  609MOL0     H82198   0.462  10.975  11.684  0.3282  0.3914 -5.3704
  609MOL0     H82199   0.654  10.932  11.144  0.1578 -0.8427  3.9156
  609MOL0     H82200   0.660  11.062  10.937 -1.0688 -2.8806  1.2441
  609MOL0     H82201   0.957  10.528  10.179 -0.8239 -0.6652  1.0434
  609MOL0     H82202   0.889  10.353  10.312  0.7011 -2.0343  0.1731
  609MOL0     H82203   0.720   9.747  10.213 -1.2748  1.4881 -1.7246
  609MOL0     H82204   0.545   9.614  10.333 -4.1986 -0.7177  2.1353
  609MOL0     H82205   0.298   9.863  10.658 -1.6427  0.4413  3.7725
  609MOL0     H82206   0.221   9.696  10.661  0.7297 -1.9466  1.6448
  609MOL0     H82207   0.328   9.743  10.866  0.6486  2.2892  0.0354
  609MOL0     H82208   0.474   9.815  10.794  1.1008  0.5101 -1.5483
  609MOL0     H82209   0.561   9.604  10.732 -0.5270 -1.7106 -1.1359
  609MOL0     H82210   0.402   9.534  10.721 -2.6614  1.3045 -0.2118
  609MOL0     H82211   0.542   9.608  10.991 -2.2242  0.3551  2.9706
  609MOL0     H82212   0.533   9.440  10.919  1.1560  0.9512  0.1167
  609MOL0     H82213   0.137   9.483  11.060  0.4080 -1.1305  1.8945
  609MOL0     H82214   0.440   9.978  10.555 -1.9993 -1.4053 -0.4987
  609MOL0     H82215   0.581  10.099  10.387 -0.0198  0.5173  0.6276
  610MOL0     O82216   9.431   2.236   8.963  0.3132 -0.5302 -0.4011
  610MOL0     C82217   9.437   2.338   8.902 -0.0054  0.3642  0.0900
  610MOL0     O82218   9.347   2.374   8.804 -0.5502 -0.5500 -0.4599
  610MOL0     C82219   9.221   2.320   8.803  0.0268  0.3086  0.4312
  610MOL0     C82220   9.150   2.321   8.918 -0.5077 -0.8922  0.2721
  610MOL0     C82221   9.022   2.272   8.938  0.3838 -0.3793  0.7344
  610MOL0     C82222   8.952   2.232   8.825 -0.5754 -0.3432 -0.7329
  610MOL0     O82223   8.821   2.209   8.844  0.1460 -0.2502  0.2219
  610MOL0     C82224   8.726   2.197   8.745 -0.2534 -0.0142 -0.7150
  610MOL0     C82225   8.584   2.172   8.816  0.1645  0.0042 -0.0776
  610MOL0     C82226   8.483   2.065   8.768 -0.4221  0.4284  0.1968
  610MOL0     C82227   8.448   2.077   8.619 -0.6269 -0.4039  0.0425
  610MOL0     C82228   8.305   2.041   8.574  0.3918 -0.1153 -0.3056
  610MOL0     C82229   8.281   2.077   8.425  0.2218  0.6891 -0.3053
  610MOL0     C82230   8.138   2.031   8.380  0.5399  0.3736 -0.0426
  610MOL0     C82231   8.022   2.123   8.433 -0.4514 -0.4947 -0.2721
  610MOL0     N82232   7.963   2.085   8.558  0.4950  0.2697 -0.4719
  610MOL0     C82233   7.882   1.984   8.568  1.3278  0.1711  0.0095
  610MOL0     C82234   7.845   1.981   8.697  0.9182  0.4156  0.0902
  610MOL0     C82235   7.718   1.911   8.745  0.4292 -0.3525  0.3889
  610MOL0     C82236   7.590   1.982   8.696 -0.8945 -0.0101  1.0502
  610MOL0     C82237   7.563   2.116   8.769 -0.2109 -0.5266 -1.3083
  610MOL0     C82238   7.512   2.100   8.924  0.1339  0.5529 -0.2714
  610MOL0     O82239   7.583   2.023   9.032  0.1391 -0.6477  0.1400
  610MOL0     C82240   7.626   2.092   9.143 -0.2717  0.7256 -0.3636
  610MOL0     C82241   7.534   2.154   9.224 -0.7056 -0.5576 -1.2890
  610MOL0     C82242   7.583   2.242   9.330  0.0757  0.3058  0.2182
  610MOL0     C82243   7.482   2.334   9.401 -0.1014  0.6524 -0.2136
  610MOL0     C82244   7.727   2.242   9.360 -0.1573  0.5079 -0.6105
  610MOL0     C82245   7.787   2.313   9.482 -0.3380 -0.6836  1.3463
  610MOL0     O82246   7.926   2.311   9.489  0.6662  0.3655  0.2364
  610MOL0     C82247   7.991   2.372   9.589  0.6053  0.5511 -0.8526
  610MOL0     C82248   7.996   2.323   9.717 -0.0901 -0.2541  0.7441
  610MOL0     C82249   8.070   2.377   9.823  0.1467  1.0366 -0.3932
  610MOL0     C82250   8.114   2.506   9.802  0.1632 -0.2574 -1.6004
  610MOL0     O82251   8.198   2.560   9.899 -0.5709  0.0147  0.2369
  610MOL0     C82252   8.115   2.642   9.990  0.1139 -0.6702 -0.3842
  610MOL0     C82253   8.095   2.586  10.133 -0.3647 -0.2658 -0.3822
  610MOL0     C82254   8.233   2.548  10.198 -0.9363  0.1116  0.8186
  610MOL0     C82255   8.227   2.538  10.347  0.1356 -0.3608  0.2827
  610MOL0     C82256   8.362   2.493  10.415  0.0338 -0.0135 -0.9919
  610MOL0     C82257   8.340   2.496  10.560  0.0121 -0.2384 -0.4199
  610MOL0     C82258   8.454   2.421  10.637  0.3709 -0.9070  1.0237
  610MOL0     C82259   8.456   2.460  10.783  0.0240 -0.3184  1.2056
  610MOL0    Cl82260   8.483   2.631  10.811  0.1127  0.0447  0.4165
  610MOL0     C82261   8.094   2.564   9.679 -0.2573  0.4634  0.2662
  610MOL0     C82262   8.043   2.494   9.564 -0.4899 -0.6257 -0.5221
  610MOL0     O82263   7.718   2.377   9.561  0.3778  0.9087 -0.8164
  610MOL0     C82264   7.813   2.154   9.282 -0.3456  0.1106  0.0483
  610MOL0     C82265   7.761   2.086   9.179 -0.0060 -0.2199  0.0034
  610MOL0     N82266   7.920   2.076   8.766 -0.0920 -0.3855  0.4331
  610MOL0     N82267   7.978   2.154   8.674  0.8898  1.4552 -0.0177
  610MOL0     C82268   9.018   2.234   8.696 -0.0060  0.0197 -0.1054
  610MOL0     C82269   9.148   2.282   8.688  0.2738 -0.7769 -0.4025
  610MOL0     C82270   9.556   2.428   8.934  1.0513 -0.7776  0.4633
  610MOL0     C82271   9.675   2.382   8.989 -0.4414 -0.7386 -0.4797
  610MOL0     C82272   9.784   2.474   9.001 -0.7660 -0.3022 -0.1006
  610MOL0     C82273   9.772   2.598   8.940 -0.6387  0.0833  0.1553
  610MOL0     O82274   9.862   2.698   8.964  0.0972  0.5775 -0.0888
  610MOL0     C82275   9.971   2.680   9.066  0.0869  0.9024 -0.0743
  610MOL0     C82276  10.097   2.728   9.005 -0.8743 -0.9929  0.1829
  610MOL0     C82277  10.194   2.764   9.122 -0.2055  0.1688  0.3559
  610MOL0     C82278  10.284   2.648   9.156  0.3314  0.4961  0.5145
  610MOL0     C82279  10.370   2.661   9.272  0.0586 -0.3811  0.8186
  610MOL0     C82280  10.427   2.657   9.379  0.2688  0.1988 -0.1652
  610MOL0     C82281   9.657   2.640   8.882  0.4557 -0.0420  0.3834
  610MOL0     C82282   9.541   2.559   8.872 -0.5555  0.8613  0.1259
  610MOL0     H82283   9.201   2.345   9.011 -1.3481 -2.4257  1.1798
  610MOL0     H82284   8.988   2.260   9.040  0.2092 -1.2625  0.5892
  610MOL0     H82285   8.712   2.289   8.687  1.0802  0.4934 -0.2758
  610MOL0     H82286   8.750   2.118   8.673  1.8547 -1.4265  1.3805
  610MOL0     H82287   8.605   2.163   8.924  1.3790  2.6665 -0.0152
  610MOL0     H82288   8.534   2.268   8.804  3.7216  1.7707 -2.0882
  610MOL0     H82289   8.525   1.970   8.803  0.1626 -0.1386 -1.9279
  610MOL0     H82290   8.393   2.078   8.829  0.3190  1.3432  1.1251
  610MOL0     H82291   8.448   2.181   8.586 -3.0181 -1.0134 -2.2104
  610MOL0     H82292   8.533   2.024   8.575 -1.4412 -3.7818  2.0979
  610MOL0     H82293   8.283   1.934   8.588 -1.2185  0.3417  0.9590
  610MOL0     H82294   8.231   2.100   8.629  0.0373  2.9492 -3.7019
  610MOL0     H82295   8.290   2.184   8.410 -1.9719  0.6269 -2.6384
  610MOL0     H82296   8.365   2.036   8.368  1.3852  2.0533  0.3774
  610MOL0     H82297   8.126   2.047   8.272 -0.9728  6.4335  0.6577
  610MOL0     H82298   8.118   1.927   8.408 -1.5860  0.9343  0.6564
  610MOL0     H82299   7.939   2.121   8.362  1.9696  2.9725 -3.6781
  610MOL0     H82300   8.066   2.223   8.444 -1.8787  0.0352  1.0199
  610MOL0     H82301   7.830   1.930   8.489 -1.5728  0.1826  1.7600
  610MOL0     H82302   7.708   1.811   8.703 -2.1016 -0.0589  0.1732
  610MOL0     H82303   7.716   1.904   8.854 -0.2064 -0.7781  0.3529
  610MOL0     H82304   7.505   1.915   8.716 -1.0490 -0.3286 -0.5654
  610MOL0     H82305   7.596   1.993   8.588  0.1500 -0.4595  1.0435
  610MOL0     H82306   7.478   2.164   8.719 -1.9015 -3.7208 -1.7463
  610MOL0     H82307   7.650   2.182   8.765 -1.5921  1.4076 -0.8087
  610MOL0     H82308   7.418   2.045   8.914 -0.2195  1.0965  0.0651
  610MOL0     H82309   7.493   2.198   8.968  2.0707  0.3800  1.0740
  610MOL0     H82310   7.429   2.147   9.198 -1.2465  1.0043  0.2925
  610MOL0     H82311   7.526   2.434   9.399  0.3486  0.4745 -2.7427
  610MOL0     H82312   7.390   2.344   9.343  0.1446  0.3249 -0.6687
  610MOL0     H82313   7.456   2.298   9.501  1.5363  1.9455  0.7346
  610MOL0     H82314   7.950   2.225   9.726  1.2071 -0.9679  0.0088
  610MOL0     H82315   8.099   2.332   9.918  1.2758  0.2773 -1.0740
  610MOL0     H82316   8.160   2.741   9.988 -1.9417  0.3021 -0.7375
  610MOL0     H82317   8.016   2.659   9.949  0.8023  1.3153 -1.3340
  610MOL0     H82318   8.044   2.656  10.199 -3.1774 -0.0897 -2.5383
  610MOL0     H82319   8.034   2.495  10.123 -0.5526 -0.0278 -1.5492
  610MOL0     H82320   8.308   2.624  10.176  0.1198 -0.9172  0.7751
  610MOL0     H82321   8.279   2.463  10.146  2.0729  1.2465  1.4243
  610MOL0     H82322   8.191   2.636  10.379  1.1992  0.5938 -1.3049
  610MOL0     H82323   8.167   2.448  10.361  2.1881 -1.9376 -0.4721
  610MOL0     H82324   8.453   2.544  10.382  0.2910  0.3126  0.1980
  610MOL0     H82325   8.389   2.388  10.399  0.1522 -0.2382  0.5397
  610MOL0     H82326   8.343   2.602  10.588  0.3958 -0.4347  0.2938
  610MOL0     H82327   8.244   2.449  10.583 -1.3814  0.8078 -3.5190
  610MOL0     H82328   8.553   2.455  10.605 -0.1323  2.1966  2.4304
  610MOL0     H82329   8.434   2.314  10.637 -1.0842 -0.6568  0.3217
  610MOL0     H82330   8.533   2.396  10.829  1.6668 -0.5095 -1.5230
  610MOL0     H82331   8.359   2.440  10.828 -0.5082  2.9531  1.7425
  610MOL0     H82332   8.123   2.667   9.662  3.0407 -0.4404 -0.2078
  610MOL0     H82333   8.038   2.553   9.473  2.0088  1.1888  0.3876
  610MOL0     H82334   7.920   2.139   9.294  0.2171  4.2230  1.9678
  610MOL0     H82335   7.826   2.041   9.104  1.6411  0.9168  0.6730
  610MOL0     H82336   8.959   2.205   8.609 -1.1640 -0.1852  0.7320
  610MOL0     H82337   9.184   2.292   8.586  3.8255  0.9863  0.8549
  610MOL0     H82338   9.675   2.278   9.019 -2.1302 -0.5234  0.4117
  610MOL0     H82339   9.872   2.436   9.052 -0.1931 -1.3519 -1.7893
  610MOL0     H82340   9.948   2.733   9.158 -1.0844 -1.5498  1.1613
  610MOL0     H82341   9.998   2.580   9.102  2.3992  1.0708 -1.1863
  610MOL0     H82342  10.067   2.818   8.951 -0.7361 -1.0314  0.0427
  610MOL0     H82343  10.136   2.661   8.929 -2.2565 -2.2086  0.5003
  610MOL0     H82344  10.138   2.807   9.205 -1.3131 -0.6842  0.0725
  610MOL0     H82345  10.261   2.846   9.093  0.7661 -0.0247  1.9227
  610MOL0     H82346  10.357   2.640   9.075  1.7724 -1.4504  1.9305
  610MOL0     H82347  10.229   2.554   9.165  2.1229 -0.4371  2.5569
  610MOL0     H82348  10.473   2.654   9.475  0.7329  1.0021 -0.3555
  610MOL0     H82349   9.643   2.739   8.840  2.2989 -0.1060 -0.4849
  610MOL0     H82350   9.456   2.597   8.817 -1.1311 -2.6776 -1.7481
  611MOL0     O82351   7.254   6.724   2.498  1.0051  0.4847 -0.1841
  611MOL0     C82352   7.178   6.668   2.421 -0.3539  0.5248  0.3287
  611MOL0     O82353   7.131   6.711   2.301 -0.0823 -0.4304  0.3776
  611MOL0     C82354   7.172   6.833   2.250 -0.4016  0.3520 -0.0812
  611MOL0     C82355   7.081   6.903   2.163 -0.8309 -0.2753 -0.1474
  611MOL0     C82356   7.124   7.003   2.082  0.1687  0.4646  0.3682
  611MOL0     C82357   7.257   7.049   2.087  0.3100 -0.3259  0.4961
  611MOL0     O82358   7.298   7.162   2.011  0.7404 -0.5519  0.5956
  611MOL0     C82359   7.202   7.257   1.997 -0.5763 -0.1415  0.7064
  611MOL0     C82360   7.152   7.255   1.856 -0.4702  0.3852  0.4136
  611MOL0     C82361   7.043   7.364   1.838  0.2622  0.6301 -0.8414
  611MOL0     C82362   7.088   7.485   1.760  0.4396  0.6958  0.5025
  611MOL0     C82363   6.987   7.594   1.738 -0.0626  0.0124  0.0480
  611MOL0     C82364   7.055   7.729   1.705  0.3202 -0.9745 -0.8053
  611MOL0     C82365   6.940   7.836   1.711 -0.1700 -0.7478 -0.3408
  611MOL0     C82366   6.867   7.853   1.576 -0.8363  0.1977  0.3120
  611MOL0     N82367   6.734   7.790   1.586  0.3441  0.1525 -0.1751
  611MOL0     C82368   6.707   7.661   1.545 -0.2924 -0.3287 -0.0662
  611MOL0     C82369   6.593   7.631   1.601  1.0773 -0.4935  0.9900
  611MOL0     C82370   6.521   7.495   1.600 -0.6532 -0.3311 -0.6448
  611MOL0     C82371   6.566   7.411   1.482  0.0547  0.0820  1.0791
  611MOL0     C82372   6.504   7.263   1.474 -0.1122 -0.7033 -0.7743
  611MOL0     C82373   6.352   7.250   1.466  0.3469 -0.0170 -0.0413
  611MOL0     O82374   6.323   7.109   1.480  0.5009 -0.9724  0.3455
  611MOL0     C82375   6.233   7.044   1.396  0.3418  0.0440 -0.5235
  611MOL0     C82376   6.299   6.969   1.307 -0.9703  0.3378  0.6661
  611MOL0     C82377   6.225   6.908   1.201 -0.1866  0.7292  0.6825
  611MOL0     C82378   6.296   6.819   1.100  0.3683  0.8042  0.1104
  611MOL0     C82379   6.082   6.927   1.187  0.4193 -0.6224 -0.2544
  611MOL0     C82380   6.002   6.873   1.073  0.8996  0.1668  0.6126
  611MOL0     O82381   6.043   6.750   1.021  0.2272  0.1634  0.0285
  611MOL0     C82382   5.944   6.682   0.951  0.1711 -0.3051  0.1410
  611MOL0     C82383   5.945   6.699   0.812 -0.6020 -0.3847  0.6027
  611MOL0     C82384   5.825   6.664   0.743  0.6026 -0.4460 -1.2008
  611MOL0     C82385   5.715   6.594   0.799 -0.3395  0.1681  0.2329
  611MOL0     O82386   5.587   6.572   0.752 -0.1263  0.6691 -0.7442
  611MOL0     C82387   5.543   6.637   0.637 -0.1746 -0.0612 -0.5224
  611MOL0     C82388   5.594   6.573   0.511 -0.5909  0.3743 -0.8569
  611MOL0     C82389   5.570   6.673   0.397 -0.0821 -0.0740  1.5621
  611MOL0     C82390   5.697   6.747   0.357 -0.0921 -0.4523  0.0869
  611MOL0     C82391   5.687   6.862   0.248 -0.0736  0.0743 -0.4487
  611MOL0     C82392   5.597   6.837   0.132 -0.4056 -0.4411 -0.6344
  611MOL0     C82393   5.640   6.906   0.005 -0.5266  0.6096 -0.1532
  611MOL0     C82394   5.546   6.887  -0.110  0.2353  0.0764  0.1063
  611MOL0    Cl82395   5.638   6.954  -0.250  0.1989  0.2882  0.3899
  611MOL0     C82396   5.735   6.567   0.936 -0.5009  0.2327  0.1920
  611MOL0     C82397   5.835   6.619   1.012  0.2623  0.9961  0.1688
  611MOL0     O82398   5.906   6.934   1.032  0.0391  0.0605 -0.0938
  611MOL0     C82399   6.022   7.015   1.287 -0.4566 -0.1759 -0.2220
  611MOL0     C82400   6.094   7.066   1.394 -0.9321  0.0671  0.6588
  611MOL0     N82401   6.550   7.738   1.677  0.0323  1.6653  0.2390
  611MOL0     N82402   6.637   7.836   1.666  0.2522 -0.3121 -1.4105
  611MOL0     C82403   7.347   6.993   2.183 -0.5131  0.1751 -0.4423
  611MOL0     C82404   7.308   6.881   2.260  0.7603  0.1525 -0.3283
  611MOL0     C82405   7.129   6.538   2.460  0.4772  0.4222 -0.4746
  611MOL0     C82406   7.061   6.464   2.367 -0.8038  0.3635 -0.2310
  611MOL0     C82407   7.012   6.335   2.398  0.3952  0.3311  0.7557
  611MOL0     C82408   7.049   6.263   2.511 -0.1092 -0.4997  0.1660
  611MOL0     O82409   6.998   6.134   2.531  0.0984  0.7133 -0.0275
  611MOL0     C82410   7.023   6.076   2.658  1.1043  1.2943  0.8342
  611MOL0     C82411   6.979   5.921   2.662 -0.1771 -0.2414 -0.2431
  611MOL0     C82412   7.063   5.848   2.559 -1.2135 -0.5830 -0.1372
  611MOL0     C82413   7.042   5.698   2.577 -0.9958  0.5084 -0.3538
  611MOL0     C82414   6.991   5.631   2.446  0.3979 -0.5137  0.4266
  611MOL0     C82415   6.946   5.556   2.360 -0.2054  1.1830  0.3653
  611MOL0     C82416   7.133   6.334   2.602  0.4907 -0.0078 -0.1929
  611MOL0     C82417   7.169   6.462   2.575 -0.7211 -0.6728  0.6918
  611MOL0     H82418   6.983   6.858   2.144 -0.8264  0.5653 -2.5256
  611MOL0     H82419   7.042   7.037   2.019  1.9151  1.3871 -1.5039
  611MOL0     H82420   7.118   7.245   2.066 -0.6419  0.5483  0.7509
  611MOL0     H82421   7.254   7.349   2.026  0.5808  0.6857 -3.2937
  611MOL0     H82422   7.238   7.289   1.799  1.7185  1.1079  3.8366
  611MOL0     H82423   7.118   7.152   1.841  4.3328 -1.0084 -3.0419
  611MOL0     H82424   6.952   7.322   1.794 -0.9061  2.0058  0.1769
  611MOL0     H82425   6.998   7.390   1.934 -0.2195 -1.7639 -0.3395
  611MOL0     H82426   7.159   7.530   1.830  1.1581  2.2602 -1.1481
  611MOL0     H82427   7.141   7.461   1.668  0.3976  0.7074  0.4755
  611MOL0     H82428   6.904   7.570   1.670  1.0571  0.9946 -1.7343
  611MOL0     H82429   6.932   7.625   1.828 -2.0771  1.0204 -1.4513
  611MOL0     H82430   7.120   7.750   1.790 -1.7767  1.4348  0.3683
  611MOL0     H82431   7.116   7.731   1.614 -0.3512 -2.0302 -1.2908
  611MOL0     H82432   6.879   7.830   1.802  1.8259 -1.6325  1.0160
  611MOL0     H82433   6.988   7.932   1.726  1.3052 -1.1523 -2.1459
  611MOL0     H82434   6.930   7.805   1.501  1.7738  0.6641  2.0898
  611MOL0     H82435   6.861   7.962   1.568 -0.8061  0.2345  0.7681
  611MOL0     H82436   6.769   7.589   1.493 -1.8029 -1.3038 -0.5968
  611MOL0     H82437   6.536   7.441   1.693  2.9385  0.8969 -0.3708
  611MOL0     H82438   6.412   7.497   1.588 -0.5769  0.0290 -1.3400
  611MOL0     H82439   6.675   7.404   1.486  0.1973  1.2781 -0.0916
  611MOL0     H82440   6.551   7.468   1.390  2.1131  3.1407  2.4752
  611MOL0     H82441   6.524   7.209   1.567 -0.5665 -1.2239 -0.9770
  611MOL0     H82442   6.553   7.205   1.395 -4.4708 -3.6550 -1.6060
  611MOL0     H82443   6.319   7.282   1.367  3.0775 -0.3315 -1.1498
  611MOL0     H82444   6.315   7.306   1.553  0.4167  1.4603 -0.9330
  611MOL0     H82445   6.407   6.974   1.310 -0.4870 -4.2019 -1.0838
  611MOL0     H82446   6.256   6.717   1.105 -0.4870  1.1692  0.8214
  611MOL0     H82447   6.276   6.856   0.999  1.5361 -2.2975 -1.3979
  611MOL0     H82448   6.405   6.810   1.109  0.5635  3.1508  0.5973
  611MOL0     H82449   6.019   6.766   0.768  2.7157 -2.8622  1.9681
  611MOL0     H82450   5.829   6.698   0.640  2.5136 -1.4381 -1.4968
  611MOL0     H82451   5.436   6.659   0.635  0.3641  2.9184 -1.3964
  611MOL0     H82452   5.585   6.739   0.635  0.0156 -0.1375 -2.9715
  611MOL0     H82453   5.702   6.557   0.512 -0.3095  2.0853  0.5990
  611MOL0     H82454   5.543   6.477   0.496 -1.7227  0.4836  1.6569
  611MOL0     H82455   5.501   6.754   0.421 -0.6623 -0.6490  1.8591
  611MOL0     H82456   5.533   6.624   0.306 -1.6694  0.6166  1.7937
  611MOL0     H82457   5.738   6.789   0.449  0.9390  0.5855 -0.8092
  611MOL0     H82458   5.780   6.682   0.325 -0.4901 -1.3822  0.8855
  611MOL0     H82459   5.785   6.882   0.205  0.8600 -1.9658  0.5623
  611MOL0     H82460   5.660   6.953   0.302 -1.0267 -0.1351 -0.5402
  611MOL0     H82461   5.602   6.731   0.108 -0.0721 -1.6544  3.8148
  611MOL0     H82462   5.490   6.854   0.148 -0.8033  0.4908 -3.6917
  611MOL0     H82463   5.737   6.861  -0.015  0.9672  3.2122  0.7930
  611MOL0     H82464   5.670   7.010   0.018  0.5476  0.6350 -2.3711
  611MOL0     H82465   5.451   6.938  -0.094  0.1958 -0.6257  2.4684
  611MOL0     H82466   5.520   6.781  -0.123 -1.9157  0.5870 -0.1252
  611MOL0     H82467   5.662   6.507   0.989 -1.1879  1.9235  1.2510
  611MOL0     H82468   5.831   6.600   1.119  1.9814  0.6036  0.1919
  611MOL0     H82469   5.918   7.043   1.271 -0.9213 -0.9593  1.2316
  611MOL0     H82470   6.061   7.123   1.480  4.4647  1.3432  2.2458
  611MOL0     H82471   7.450   7.022   2.201 -0.2479 -1.0854  0.1639
  611MOL0     H82472   7.375   6.826   2.326  1.3920 -0.2988 -1.3275
  611MOL0     H82473   7.047   6.502   2.266  2.6683  3.4166  0.2232
  611MOL0     H82474   6.962   6.283   2.317  2.7625  1.0932 -1.3360
  611MOL0     H82475   7.129   6.067   2.679  1.2404  1.4079  0.2119
  611MOL0     H82476   6.963   6.135   2.728  0.0420  0.5548  0.5883
  611MOL0     H82477   6.874   5.923   2.632 -0.6190 -0.0024  1.2179
  611MOL0     H82478   7.000   5.874   2.759 -0.0279  0.1816 -0.0669
  611MOL0     H82479   7.169   5.877   2.563 -0.4591 -2.2439 -3.6556
  611MOL0     H82480   7.028   5.887   2.463  1.5445  0.4430 -0.8474
  611MOL0     H82481   6.970   5.675   2.656 -0.4697  0.4822  0.1213
  611MOL0     H82482   7.138   5.653   2.602 -0.9776  0.8113  0.1360
  611MOL0     H82483   6.900   5.499   2.281  0.1360  2.5324 -0.8599
  611MOL0     H82484   7.180   6.286   2.687  0.6989 -1.8442 -1.2780
  611MOL0     H82485   7.235   6.519   2.640  1.4563 -0.0438 -1.9152
  612MOL0     O82486   0.470   9.451   4.565 -0.7633  0.3458  0.1768
  612MOL0     C82487   0.556   9.521   4.520 -0.4085 -0.0497 -0.2224
  612MOL0     O82488   0.663   9.567   4.592  0.2993 -0.1454  0.2949
  612MOL0     C82489   0.702   9.503   4.706 -0.1424  0.0830 -1.2284
  612MOL0     C82490   0.701   9.578   4.824  0.6392 -0.2829 -0.1519
  612MOL0     C82491   0.723   9.522   4.946  0.4348 -0.0101 -0.4310
  612MOL0     C82492   0.762   9.389   4.961 -0.4404  1.1102  0.3162
  612MOL0     O82493   0.757   9.337   5.090  0.1608 -0.0479 -0.0649
  612MOL0     C82494   0.896   9.302   5.135  1.0742  0.1565 -0.2629
  612MOL0     C82495   0.889   9.229   5.276 -0.0425  0.6612 -0.5133
  612MOL0     C82496   0.758   9.234   5.353  0.0317  0.9104 -1.0154
  612MOL0     C82497   0.635   9.145   5.311 -0.5596  0.4650  1.1050
  612MOL0     C82498   0.515   9.183   5.394 -0.9028 -0.5652  0.0094
  612MOL0     C82499   0.404   9.088   5.338 -1.5989 -0.4557 -0.4656
  612MOL0     C82500   0.260   9.152   5.364  0.5939 -0.5127 -0.0708
  612MOL0     C82501   0.156   9.048   5.328  0.4393  0.3894  0.1019
  612MOL0     N82502   0.152   8.914   5.394  0.0846 -0.0177  0.5221
  612MOL0     C82503   0.072   8.874   5.508  0.1819  0.2578 -0.3753
  612MOL0     C82504   0.091   8.737   5.522 -0.0320  0.4816  0.2254
  612MOL0     C82505   0.030   8.644   5.627 -0.6703  0.5286  0.2148
  612MOL0     C82506  -0.117   8.681   5.664 -0.7690  0.2808 -0.2109
  612MOL0     C82507  -0.184   8.553   5.718 -0.4375 -0.1950  0.3368
  612MOL0     C82508  -0.331   8.563   5.752  0.0562  0.8047  0.3247
  612MOL0     O82509  -0.355   8.487   5.878 -0.7113 -0.7385  0.9938
  612MOL0     C82510  -0.431   8.373   5.850 -0.6266 -0.2394  0.1438
  612MOL0     C82511  -0.406   8.294   5.743  0.6367  0.3937  0.0767
  612MOL0     C82512  -0.486   8.175   5.712  0.1231 -0.0016 -0.3805
  612MOL0     C82513  -0.457   8.107   5.579  0.7266  0.8289 -0.7659
  612MOL0     C82514  -0.591   8.145   5.795 -0.3060 -0.3384  0.2302
  612MOL0     C82515  -0.691   8.039   5.760 -0.0611  0.4672 -1.1896
  612MOL0     O82516  -0.725   8.034   5.634  0.2082 -0.1761  0.7919
  612MOL0     C82517  -0.816   7.939   5.605  0.2102 -1.0825 -0.3622
  612MOL0     C82518  -0.950   7.972   5.636  0.0436  0.9534  0.3995
  612MOL0     C82519  -1.055   7.894   5.606 -0.1052  0.3240  1.1243
  612MOL0     C82520  -1.029   7.765   5.551  1.4387 -0.3523 -0.1427
  612MOL0     O82521  -1.142   7.678   5.540 -0.8677  0.2026  1.0822
  612MOL0     C82522  -1.126   7.585   5.424  0.3489 -0.3255  0.2673
  612MOL0     C82523  -1.245   7.490   5.397  0.0134 -0.2665 -1.0268
  612MOL0     C82524  -1.372   7.558   5.347 -0.1644 -0.7903 -0.1635
  612MOL0     C82525  -1.493   7.487   5.378  0.3120 -0.4705 -0.5322
  612MOL0     C82526  -1.509   7.344   5.321 -0.1989  0.4859 -1.0681
  612MOL0     C82527  -1.462   7.325   5.176  0.2371  0.8258  0.4133
  612MOL0     C82528  -1.467   7.170   5.125  0.3425  0.1820  0.4089
  612MOL0     C82529  -1.362   7.142   5.012  0.7037  0.9644 -0.7631
  612MOL0    Cl82530  -1.434   7.195   4.857 -0.0558  0.1406 -0.5106
  612MOL0     C82531  -0.900   7.732   5.524  0.0436  0.8147 -0.1796
  612MOL0     C82532  -0.789   7.814   5.554  0.1753  0.4859  0.1964
  612MOL0     O82533  -0.726   7.966   5.855  0.6059 -0.5192  0.4647
  612MOL0     C82534  -0.616   8.216   5.912  0.8469 -0.2582  0.0758
  612MOL0     C82535  -0.540   8.333   5.933  0.6016  0.7252  0.2545
  612MOL0     N82536   0.177   8.700   5.418  0.5677 -0.5415 -0.8613
  612MOL0     N82537   0.214   8.810   5.348 -0.1039 -0.0234  0.3231
  612MOL0     C82538   0.751   9.308   4.843  0.9062 -0.1491 -0.1782
  612MOL0     C82539   0.724   9.365   4.719  0.6087 -0.3309 -0.4977
  612MOL0     C82540   0.559   9.555   4.376  0.0463  0.2701  0.2896
  612MOL0     C82541   0.662   9.625   4.322 -0.8671 -0.2700  0.7649
  612MOL0     C82542   0.651   9.674   4.191  0.0811 -0.1352 -0.6156
  612MOL0     C82543   0.552   9.632   4.100  1.0301  0.3364  0.6285
  612MOL0     O82544   0.571   9.656   3.964 -1.5320  0.0362  0.9702
  612MOL0     C82545   0.529   9.542   3.883 -0.4348 -0.3261 -0.5588
  612MOL0     C82546   0.583   9.553   3.735  0.6064 -0.3399 -0.3683
  612MOL0     C82547   0.544   9.686   3.669  0.4366  0.4536 -0.6984
  612MOL0     C82548   0.596   9.710   3.526  0.1328  0.5789 -0.2715
  612MOL0     C82549   0.733   9.685   3.516  0.4877  0.7321  0.2012
  612MOL0     C82550   0.849   9.662   3.489  0.2762 -0.2789  0.1903
  612MOL0     C82551   0.457   9.543   4.153  0.3889 -1.0064 -0.2815
  612MOL0     C82552   0.450   9.522   4.287 -0.0876  0.6652 -0.6166
  612MOL0     H82553   0.670   9.682   4.828  4.5940  1.0161  1.7527
  612MOL0     H82554   0.713   9.581   5.037 -2.8879 -0.8743 -0.1145
  612MOL0     H82555   0.949   9.233   5.070  2.9925 -1.6222  2.9130
  612MOL0     H82556   0.958   9.393   5.131  0.6563  0.3854 -3.4443
  612MOL0     H82557   0.908   9.123   5.257 -0.1126  0.7069 -0.8409
  612MOL0     H82558   0.978   9.257   5.334 -0.2326  1.5248 -0.6254
  612MOL0     H82559   0.796   9.203   5.451  1.3601 -1.6575 -2.2240
  612MOL0     H82560   0.717   9.334   5.365 -1.6928  0.1050  0.4763
  612MOL0     H82561   0.606   9.169   5.209 -1.9906  1.7573  1.7665
  612MOL0     H82562   0.659   9.039   5.322  0.7290  0.6547  0.3224
  612MOL0     H82563   0.528   9.168   5.502  0.1105 -0.5289 -0.0949
  612MOL0     H82564   0.486   9.288   5.382 -3.6256 -1.4664 -2.4736
  612MOL0     H82565   0.415   9.096   5.230 -1.0117  1.2741 -0.3239
  612MOL0     H82566   0.420   8.988   5.379 -0.8654 -0.1568  0.0111
  612MOL0     H82567   0.254   9.188   5.467  0.8151  0.0424 -0.2473
  612MOL0     H82568   0.238   9.243   5.308 -0.9921 -0.8266 -0.0124
  612MOL0     H82569   0.173   9.024   5.223  0.7555 -0.2746  0.2967
  612MOL0     H82570   0.056   9.090   5.338  0.1520 -0.3023  0.1388
  612MOL0     H82571  -0.001   8.927   5.570 -1.8396 -2.0207 -0.6508
  612MOL0     H82572   0.021   8.549   5.574  1.8583  0.4431 -0.1968
  612MOL0     H82573   0.091   8.623   5.715  2.7272  2.1531 -1.5445
  612MOL0     H82574  -0.176   8.730   5.586  1.2443  4.6790  0.6767
  612MOL0     H82575  -0.118   8.763   5.737 -1.8601 -0.5097  0.6869
  612MOL0     H82576  -0.118   8.515   5.797  5.7496  3.9122 -2.1142
  612MOL0     H82577  -0.175   8.477   5.640  0.0926 -0.3136  0.5097
  612MOL0     H82578  -0.375   8.535   5.656  2.5351  1.4299 -1.0935
  612MOL0     H82579  -0.353   8.668   5.768 -0.3375  0.8910 -0.7102
  612MOL0     H82580  -0.327   8.315   5.671 -0.0757  0.4187 -0.7064
  612MOL0     H82581  -0.532   8.139   5.507 -2.5775 -2.1062  1.0807
  612MOL0     H82582  -0.352   8.130   5.556  1.7709 -0.3787  2.2561
  612MOL0     H82583  -0.468   7.999   5.594 -0.9118  0.7615 -2.1652
  612MOL0     H82584  -0.969   8.074   5.669 -2.2048  0.3792  1.1117
  612MOL0     H82585  -1.159   7.920   5.624 -0.4745  1.1135 -1.6204
  612MOL0     H82586  -1.123   7.643   5.330  0.2390 -0.4933  0.1599
  612MOL0     H82587  -1.043   7.515   5.437  1.3433  0.8180  0.2833
  612MOL0     H82588  -1.211   7.408   5.333 -0.9920  0.4185 -2.4961
  612MOL0     H82589  -1.262   7.448   5.497  2.1217  0.2066 -0.4109
  612MOL0     H82590  -1.379   7.568   5.238 -0.4410  3.5547  0.0872
  612MOL0     H82591  -1.380   7.657   5.393 -2.6053 -0.9497 -0.0983
  612MOL0     H82592  -1.500   7.486   5.487  3.0484  0.0197 -0.2904
  612MOL0     H82593  -1.564   7.551   5.324  2.9794 -0.2859 -4.2395
  612MOL0     H82594  -1.612   7.314   5.346  0.6042  0.8502  3.4689
  612MOL0     H82595  -1.451   7.278   5.386 -0.6469  1.8876  0.8655
  612MOL0     H82596  -1.529   7.393   5.122 -0.5742 -0.1559  0.1616
  612MOL0     H82597  -1.358   7.354   5.157  0.8630 -0.8625  1.0819
  612MOL0     H82598  -1.568   7.147   5.092  0.1286  1.5055  0.1000
  612MOL0     H82599  -1.447   7.116   5.219  0.4644  4.1997  2.9103
  612MOL0     H82600  -1.331   7.037   5.015 -1.4967  0.2923  0.1778
  612MOL0     H82601  -1.273   7.204   5.025  1.8948 -0.7569 -0.4419
  612MOL0     H82602  -0.873   7.629   5.502 -0.1107  0.8684 -0.6228
  612MOL0     H82603  -0.687   7.780   5.534 -0.3386  0.4955 -2.9220
  612MOL0     H82604  -0.702   8.192   5.974 -0.4585  3.0353 -0.2366
  612MOL0     H82605  -0.561   8.389   6.024 -1.6614  0.6631 -0.1779
  612MOL0     H82606   0.768   9.202   4.860  2.3714  0.3606  1.9475
  612MOL0     H82607   0.711   9.311   4.626 -1.4722  0.7666 -0.9068
  612MOL0     H82608   0.749   9.655   4.380  1.8133  0.2200 -3.1874
  612MOL0     H82609   0.727   9.748   4.165 -0.2920  0.9392  1.1767
  612MOL0     H82610   0.565   9.447   3.924  0.3921 -0.1781 -0.9330
  612MOL0     H82611   0.420   9.544   3.870 -0.5035 -0.2803  0.0020
  612MOL0     H82612   0.536   9.470   3.681  2.3301  0.7039 -3.7637
  612MOL0     H82613   0.692   9.543   3.739  0.7175  1.0443  2.4146
  612MOL0     H82614   0.575   9.767   3.735  0.9598  0.3837 -0.8583
  612MOL0     H82615   0.435   9.670   3.667  0.6032 -2.1754  2.1300
  612MOL0     H82616   0.595   9.817   3.504  0.5211  0.9673  1.4768
  612MOL0     H82617   0.547   9.642   3.455 -0.0104 -0.1852  0.5450
  612MOL0     H82618   0.950   9.630   3.474 -0.1420 -1.0922 -0.9682
  612MOL0     H82619   0.377   9.494   4.098 -0.4115  0.7636 -0.7413
  612MOL0     H82620   0.371   9.452   4.313  2.4991 -2.1452  0.2633
  613MOL0     O82621   5.857   8.389   2.652 -0.0061 -1.0755  0.0107
  613MOL0     C82622   5.915   8.428   2.753  0.0077  0.5930  0.8421
  613MOL0     O82623   5.886   8.544   2.814  0.6916  0.6279 -0.8873
  613MOL0     C82624   5.760   8.601   2.808  0.3731  0.3630 -0.0908
  613MOL0     C82625   5.739   8.724   2.742 -0.3776  0.2731 -1.3099
  613MOL0     C82626   5.617   8.789   2.757 -0.0134  0.3948  0.4193
  613MOL0     C82627   5.520   8.738   2.843  0.7716 -0.9514  1.0338
  613MOL0     O82628   5.406   8.819   2.873 -0.4390  0.2483 -0.6021
  613MOL0     C82629   5.286   8.755   2.835 -0.2064 -0.8866 -0.6741
  613MOL0     C82630   5.164   8.851   2.805  0.5681  0.0753 -0.0028
  613MOL0     C82631   5.196   8.981   2.727  0.3563  0.4214 -0.3461
  613MOL0     C82632   5.100   9.086   2.769 -0.4299 -0.3813  0.8714
  613MOL0     C82633   5.112   9.211   2.683  0.1767 -0.7528  0.3222
  613MOL0     C82634   5.036   9.206   2.549  0.1979 -0.3013  0.0573
  613MOL0     C82635   4.889   9.145   2.533  0.6840  0.6386  0.0647
  613MOL0     C82636   4.839   9.199   2.397 -0.5712 -0.0133 -0.1556
  613MOL0     N82637   4.792   9.336   2.413 -0.4417  0.1869 -0.0158
  613MOL0     C82638   4.662   9.370   2.433  0.0365  0.0044 -0.4348
  613MOL0     C82639   4.664   9.508   2.417 -0.3071  0.1626 -0.0098
  613MOL0     C82640   4.555   9.596   2.379  0.0659  0.4723 -1.1448
  613MOL0     C82641   4.485   9.582   2.244  0.0625 -0.6337  0.1979
  613MOL0     C82642   4.371   9.677   2.235  1.2922 -0.3256 -0.0478
  613MOL0     C82643   4.419   9.823   2.208  0.0836  0.4196 -0.6051
  613MOL0     O82644   4.506   9.808   2.098 -0.8551 -0.6875 -0.0288
  613MOL0     C82645   4.529   9.929   2.045 -0.5517  0.6224  0.1891
  613MOL0     C82646   4.588  10.042   2.103 -1.0377  0.1262  0.2374
  613MOL0     C82647   4.582  10.171   2.064  0.5436 -0.1712 -0.5530
  613MOL0     C82648   4.649  10.274   2.156 -0.0272 -0.6518  0.1394
  613MOL0     C82649   4.517  10.191   1.944 -0.3282  0.2423 -0.6518
  613MOL0     C82650   4.509  10.329   1.882 -0.6525  0.9305 -0.6952
  613MOL0     O82651   4.608  10.422   1.918 -0.0835  0.1267  0.4644
  613MOL0     C82652   4.613  10.542   1.848  0.0228  0.1680 -0.8840
  613MOL0     C82653   4.729  10.570   1.773  0.0749  0.3414 -0.2397
  613MOL0     C82654   4.748  10.687   1.709 -0.2671 -0.4328  1.1687
  613MOL0     C82655   4.643  10.780   1.690  0.0632  0.1555 -0.0263
  613MOL0     O82656   4.637  10.904   1.629  0.1491 -0.5702 -0.5556
  613MOL0     C82657   4.727  10.924   1.515  0.1693  0.6982  0.4496
  613MOL0     C82658   4.856  11.005   1.555  0.8045  0.1125  0.1855
  613MOL0     C82659   4.805  11.137   1.620 -0.3328  0.1988 -0.5161
  613MOL0     C82660   4.751  11.250   1.526  0.5618  0.3834 -0.4703
  613MOL0     C82661   4.847  11.289   1.414 -0.4914  0.2742  0.3840
  613MOL0     C82662   4.785  11.363   1.293 -0.2656  0.0639  0.6406
  613MOL0     C82663   4.722  11.504   1.316 -0.7169  0.3925 -0.1102
  613MOL0     C82664   4.681  11.567   1.184  0.1190  0.2999 -0.7338
  613MOL0    Cl82665   4.606  11.725   1.228 -0.0018 -0.5531 -0.4263
  613MOL0     C82666   4.530  10.749   1.771  0.0596  0.5304  0.6056
  613MOL0     C82667   4.509  10.638   1.847 -0.4687 -0.1074 -0.6699
  613MOL0     O82668   4.425  10.353   1.800  0.3801 -0.0549 -0.3462
  613MOL0     C82669   4.467  10.081   1.875  0.3455  0.3908 -0.0338
  613MOL0     C82670   4.467   9.943   1.923  0.4365  0.1013  0.8356
  613MOL0     N82671   4.792   9.553   2.401  0.0690 -0.6642  0.8046
  613MOL0     N82672   4.872   9.452   2.405  0.0584 -0.0723 -0.3402
  613MOL0     C82673   5.543   8.622   2.919 -0.2827  0.2382  0.0231
  613MOL0     C82674   5.656   8.549   2.885  0.0788 -0.1296 -0.2996
  613MOL0     C82675   6.033   8.349   2.790 -0.0808 -0.2832 -0.4241
  613MOL0     C82676   6.110   8.387   2.905  0.3605 -0.0146  0.3937
  613MOL0     C82677   6.207   8.304   2.958  0.6100  0.4596  0.4984
  613MOL0     C82678   6.224   8.174   2.913 -0.5437 -0.6226  0.5527
  613MOL0     O82679   6.296   8.076   2.985  0.7587  0.5526  0.9984
  613MOL0     C82680   6.363   8.111   3.104  0.5627  0.4086 -0.2826
  613MOL0     C82681   6.394   7.983   3.171  0.3047 -0.1233 -0.3480
  613MOL0     C82682   6.515   7.979   3.266 -0.2628 -0.4898 -0.5000
  613MOL0     C82683   6.534   8.118   3.342 -0.2383  0.2947  0.4339
  613MOL0     C82684   6.670   8.118   3.394  0.5238 -0.5748 -0.5639
  613MOL0     C82685   6.779   8.093   3.427  0.5787  0.2534  0.1050
  613MOL0     C82686   6.153   8.132   2.796  0.3672  0.4164 -0.4689
  613MOL0     C82687   6.058   8.220   2.737 -0.2999 -0.4516 -0.3452
  613MOL0     H82688   5.817   8.775   2.686 -0.0707  1.0846 -0.1811
  613MOL0     H82689   5.608   8.880   2.699 -0.4983 -0.2673 -0.5583
  613MOL0     H82690   5.295   8.693   2.745 -3.8224  0.1751 -1.9433
  613MOL0     H82691   5.267   8.684   2.916  1.8711  2.3043  2.9730
  613MOL0     H82692   5.088   8.803   2.742  1.3441  2.9436 -3.4977
  613MOL0     H82693   5.133   8.892   2.901  2.5605  0.9544  0.3140
  613MOL0     H82694   5.296   9.021   2.749  0.3783  1.8903 -2.7019
  613MOL0     H82695   5.198   8.961   2.619  3.4655 -3.2680  0.1702
  613MOL0     H82696   4.999   9.047   2.754 -0.2552  0.0666 -1.9470
  613MOL0     H82697   5.124   9.107   2.874 -0.9366  2.8555  0.4367
  613MOL0     H82698   5.074   9.292   2.745 -1.1237 -1.9631  1.1671
  613MOL0     H82699   5.218   9.228   2.662  0.6934 -3.2563  0.5756
  613MOL0     H82700   5.036   9.307   2.509  0.6152 -0.3371 -0.0343
  613MOL0     H82701   5.097   9.146   2.482  2.4784 -0.2001  1.8908
  613MOL0     H82702   4.894   9.035   2.528  3.7756  0.6903  0.2501
  613MOL0     H82703   4.824   9.166   2.618 -1.6156 -0.5576 -1.2863
  613MOL0     H82704   4.757   9.133   2.366  1.3838 -2.4426 -0.4414
  613MOL0     H82705   4.923   9.191   2.327  0.6764 -0.4127  1.3351
  613MOL0     H82706   4.569   9.314   2.439 -0.2508  0.1087 -2.9181
  613MOL0     H82707   4.479   9.568   2.452  1.6251 -4.5912 -1.0502
  613MOL0     H82708   4.587   9.698   2.398  2.0079 -0.4935  1.2889
  613MOL0     H82709   4.444   9.482   2.226  1.2016 -1.1210  0.2498
  613MOL0     H82710   4.557   9.599   2.164 -2.0635  0.0991 -1.6719
  613MOL0     H82711   4.301   9.674   2.319 -3.4617 -0.9752 -3.6351
  613MOL0     H82712   4.321   9.641   2.145  2.2411 -3.8471  0.6805
  613MOL0     H82713   4.473   9.851   2.299 -1.0199 -1.9803  0.9005
  613MOL0     H82714   4.330   9.885   2.193 -0.0323  0.7964  1.3820
  613MOL0     H82715   4.631  10.019   2.199 -1.4791  2.1980  0.9898
  613MOL0     H82716   4.744  10.316   2.122 -0.9773 -0.2865 -2.2706
  613MOL0     H82717   4.574  10.353   2.165 -0.0202 -0.4733 -1.1990
  613MOL0     H82718   4.665  10.248   2.261 -0.5583  1.8126  0.9072
  613MOL0     H82719   4.805  10.493   1.774  0.0240  0.2236  2.2131
  613MOL0     H82720   4.826  10.689   1.633 -1.4306 -0.4878 -0.0750
  613MOL0     H82721   4.752  10.823   1.481 -2.4197 -0.4796  1.7733
  613MOL0     H82722   4.671  10.969   1.432 -3.6541 -2.9986  0.6282
  613MOL0     H82723   4.911  10.955   1.636  0.3246  1.2230  1.2356
  613MOL0     H82724   4.918  11.017   1.465 -0.3834  1.6515 -0.4640
  613MOL0     H82725   4.890  11.183   1.671  2.5984 -0.4149 -4.4470
  613MOL0     H82726   4.745  11.115   1.709  0.7300  0.4181  0.2801
  613MOL0     H82727   4.660  11.210   1.480  1.6379 -1.4993 -1.0709
  613MOL0     H82728   4.719  11.336   1.586 -1.4632 -0.5858 -0.0877
  613MOL0     H82729   4.892  11.202   1.366  0.8591  0.9896  0.3122
  613MOL0     H82730   4.927  11.341   1.468  3.5659 -2.7455 -2.1465
  613MOL0     H82731   4.862  11.368   1.216 -1.1237 -2.2970 -0.4719
  613MOL0     H82732   4.712  11.295   1.248  1.3810 -1.6461  0.4467
  613MOL0     H82733   4.790  11.575   1.364  0.1798 -1.8237  2.1335
  613MOL0     H82734   4.635  11.499   1.381 -0.6760 -1.9627 -0.1350
  613MOL0     H82735   4.609  11.509   1.125 -1.0898  0.9150  0.0880
  613MOL0     H82736   4.770  11.596   1.127  0.4944  3.5213  1.2533
  613MOL0     H82737   4.451  10.824   1.771  0.1428  0.6366  1.5817
  613MOL0     H82738   4.410  10.629   1.891 -0.7853  0.8446 -1.1551
  613MOL0     H82739   4.416  10.105   1.782 -1.1024 -0.3319  0.5349
  613MOL0     H82740   4.432   9.852   1.875  1.6152 -0.5613  1.1890
  613MOL0     H82741   5.464   8.600   2.991  0.0370 -2.9252 -0.4575
  613MOL0     H82742   5.681   8.450   2.922  1.3549  0.0033 -0.7480
  613MOL0     H82743   6.093   8.479   2.959 -0.4387 -1.1601  2.1816
  613MOL0     H82744   6.259   8.342   3.045  0.0928  2.6816 -0.0738
  613MOL0     H82745   6.457   8.156   3.073  1.4069 -1.2289 -0.2088
  613MOL0     H82746   6.312   8.185   3.167 -0.1851 -1.9373  2.0621
  613MOL0     H82747   6.381   7.899   3.102  1.1746 -0.7897  0.2862
  613MOL0     H82748   6.307   7.977   3.237 -1.9628  0.6941 -3.0562
  613MOL0     H82749   6.599   7.959   3.198 -1.9126 -4.1797 -1.7103
  613MOL0     H82750   6.500   7.897   3.337 -4.5284  0.0628 -0.5095
  613MOL0     H82751   6.463   8.146   3.421 -1.8488 -0.8086 -0.5687
  613MOL0     H82752   6.530   8.199   3.269  3.7638  0.1832 -0.1138
  613MOL0     H82753   6.885   8.085   3.444  0.5524 -0.0811  0.1176
  613MOL0     H82754   6.160   8.027   2.772  2.1988  0.1305  1.0674
  613MOL0     H82755   5.998   8.192   2.651  2.0454 -1.8986 -1.6436
  614MOL0     O82756   4.730   0.095   8.941  0.6570 -0.2576 -0.2946
  614MOL0     C82757   4.675  -0.001   8.999 -0.5717 -0.7053 -0.2026
  614MOL0     O82758   4.691  -0.135   8.972 -0.9062 -0.3532 -0.9415
  614MOL0     C82759   4.796  -0.181   8.893  0.2203 -0.3286  0.5735
  614MOL0     C82760   4.846  -0.112   8.778 -0.6763  0.0346  0.3091
  614MOL0     C82761   4.937  -0.170   8.689 -0.2834  1.1080  0.5899
  614MOL0     C82762   4.985  -0.300   8.711 -0.5972 -0.0256  0.7222
  614MOL0     O82763   5.071  -0.345   8.609 -0.5728 -0.1315  0.6418
  614MOL0     C82764   5.045  -0.478   8.579  0.0934 -0.5094  0.3887
  614MOL0     C82765   5.154  -0.518   8.473 -0.8753  0.1917 -0.6110
  614MOL0     C82766   5.159  -0.419   8.358 -0.0043  0.1078  0.4434
  614MOL0     C82767   5.201  -0.483   8.227  0.2878 -1.1870  1.4007
  614MOL0     C82768   5.209  -0.378   8.124 -0.4532 -0.6020 -0.4766
  614MOL0     C82769   5.234  -0.443   7.989  0.2139  0.0598 -0.5133
  614MOL0     C82770   5.262  -0.337   7.894 -0.7886 -1.1401  0.4936
  614MOL0     C82771   5.314  -0.395   7.764 -0.5022  0.8331  0.5073
  614MOL0     N82772   5.291  -0.302   7.651 -0.0229  0.6325 -0.4584
  614MOL0     C82773   5.193  -0.309   7.556 -1.4229  0.6254  0.7964
  614MOL0     C82774   5.229  -0.211   7.466  0.0450 -0.3986 -0.1555
  614MOL0     C82775   5.152  -0.187   7.339  0.7638  0.6732 -0.1551
  614MOL0     C82776   5.116  -0.319   7.255  0.0231  0.3486  0.4377
  614MOL0     C82777   5.069  -0.272   7.122 -0.1644  0.7034 -0.9257
  614MOL0     C82778   4.914  -0.239   7.119 -0.1480  0.4924 -0.4571
  614MOL0     O82779   4.840  -0.290   7.007 -1.0793  0.9932  0.1186
  614MOL0     C82780   4.857  -0.247   6.877 -0.5191  0.0884 -0.1485
  614MOL0     C82781   4.923  -0.133   6.830 -0.5123  0.5317 -0.9260
  614MOL0     C82782   4.944  -0.107   6.697  0.3697  0.0281 -0.1237
  614MOL0     C82783   5.035   0.017   6.668 -0.0522  1.5699  1.2640
  614MOL0     C82784   4.894  -0.198   6.599  0.1647 -0.3422 -0.4473
  614MOL0     C82785   4.915  -0.193   6.457 -0.7780  0.6604  0.1060
  614MOL0     O82786   5.004  -0.094   6.417 -0.8939  0.8485 -0.1960
  614MOL0     C82787   5.040  -0.070   6.288  0.6532  1.0686  0.2986
  614MOL0     C82788   4.996   0.044   6.236 -0.4402 -1.0009  0.4629
  614MOL0     C82789   5.021   0.081   6.102 -0.1205 -0.6884 -0.0306
  614MOL0     C82790   5.099   0.004   6.024  0.1551  0.3980 -0.2794
  614MOL0     O82791   5.134   0.044   5.896  1.0171  0.8603  0.0225
  614MOL0     C82792   5.161  -0.049   5.794 -0.9382 -0.1062  0.1307
  614MOL0     C82793   5.253   0.033   5.702 -0.8882  0.5955  0.2789
  614MOL0     C82794   5.284  -0.055   5.583  0.2386  0.0698 -0.1157
  614MOL0     C82795   5.406   0.006   5.496 -0.3121 -0.4541  0.2890
  614MOL0     C82796   5.543   0.002   5.562 -0.8265 -0.6746  0.2134
  614MOL0     C82797   5.589  -0.136   5.618 -0.7805 -0.1901  0.4460
  614MOL0     C82798   5.724  -0.122   5.705  0.1182  0.6039  0.0755
  614MOL0     C82799   5.743  -0.252   5.789  0.3703 -0.0661  0.0214
  614MOL0    Cl82800   5.902  -0.248   5.875  0.0859 -0.0563  0.0042
  614MOL0     C82801   5.152  -0.115   6.081 -0.4615 -0.2746 -0.9965
  614MOL0     C82802   5.111  -0.157   6.207 -0.0793 -0.1162 -0.6597
  614MOL0     O82803   4.859  -0.266   6.374  0.0620  0.0458 -1.5739
  614MOL0     C82804   4.810  -0.296   6.646 -1.4082 -0.2071 -0.2170
  614MOL0     C82805   4.806  -0.329   6.778  0.8192  0.5752 -1.1408
  614MOL0     N82806   5.352  -0.159   7.510 -1.0648 -0.1330  0.1533
  614MOL0     N82807   5.394  -0.214   7.619 -0.1987 -0.3627 -0.0898
  614MOL0     C82808   4.944  -0.358   8.823 -0.8074  0.4354 -0.8387
  614MOL0     C82809   4.847  -0.308   8.916 -0.4871  0.4271  0.1570
  614MOL0     C82810   4.566   0.030   9.097  0.3247 -0.6299 -0.4764
  614MOL0     C82811   4.486   0.153   9.099 -0.8946 -0.5525  0.3347
  614MOL0     C82812   4.404   0.177   9.210 -0.3788 -0.2703  0.3546
  614MOL0     C82813   4.404   0.092   9.326  0.4112  0.4185 -0.2844
  614MOL0     O82814   4.326   0.144   9.427 -0.1430 -0.3440  0.2560
  614MOL0     C82815   4.332   0.082   9.558  0.6524 -0.1027  0.2984
  614MOL0     C82816   4.380   0.198   9.649  0.1696  0.2355  1.3320
  614MOL0     C82817   4.401   0.143   9.780 -0.5594  0.6638 -0.8326
  614MOL0     C82818   4.454   0.245   9.880  0.6615 -0.0009 -0.4043
  614MOL0     C82819   4.592   0.297   9.858 -0.0593  0.2030  1.1083
  614MOL0     C82820   4.710   0.336   9.841  0.3744  0.3753  0.6473
  614MOL0     C82821   4.475  -0.030   9.312  0.0726 -0.1873  0.6600
  614MOL0     C82822   4.554  -0.062   9.200  0.3715 -0.5614 -0.6171
  614MOL0     H82823   4.817  -0.010   8.754 -1.0713 -0.9571 -4.6450
  614MOL0     H82824   4.981  -0.115   8.606  0.6191  2.9241  2.1873
  614MOL0     H82825   5.061  -0.543   8.665  0.4703  0.5019  1.0978
  614MOL0     H82826   4.940  -0.496   8.553  0.2452  0.9625 -1.5308
  614MOL0     H82827   5.247  -0.532   8.527 -0.0824  0.9405 -1.7346
  614MOL0     H82828   5.114  -0.609   8.428  0.5577  0.8057 -3.3323
  614MOL0     H82829   5.060  -0.375   8.346 -0.3581 -0.8588 -0.3071
  614MOL0     H82830   5.224  -0.336   8.389  0.1831 -0.2362  0.9700
  614MOL0     H82831   5.297  -0.535   8.225  1.1852  0.3475 -1.6502
  614MOL0     H82832   5.120  -0.552   8.201  2.1489 -3.1146  0.4563
  614MOL0     H82833   5.114  -0.326   8.134 -0.1835 -0.5680  3.4171
  614MOL0     H82834   5.291  -0.312   8.152  0.6433 -1.5694 -1.2824
  614MOL0     H82835   5.318  -0.513   7.989 -0.7977 -1.2038  0.5175
  614MOL0     H82836   5.139  -0.491   7.964  0.7265 -1.1767 -0.1540
  614MOL0     H82837   5.167  -0.290   7.867 -0.6892 -1.0331  0.3325
  614MOL0     H82838   5.323  -0.250   7.920  1.8388 -1.8201 -2.6858
  614MOL0     H82839   5.285  -0.499   7.750  1.7551  0.1376  0.7295
  614MOL0     H82840   5.418  -0.428   7.767 -0.8653 -0.8521 -2.1225
  614MOL0     H82841   5.112  -0.380   7.539 -1.3870  0.1681  2.3292
  614MOL0     H82842   5.065  -0.129   7.370 -0.4001 -1.8325  1.7033
  614MOL0     H82843   5.214  -0.127   7.273  4.1563 -3.2080 -0.8979
  614MOL0     H82844   5.041  -0.382   7.304  2.6676 -3.4606  0.0648
  614MOL0     H82845   5.201  -0.384   7.233 -2.0176 -1.3687 -3.3283
  614MOL0     H82846   5.075  -0.354   7.050  0.7714 -1.3768  1.3603
  614MOL0     H82847   5.131  -0.190   7.085  0.3654  0.4591 -0.5993
  614MOL0     H82848   4.913  -0.130   7.112 -0.0122  0.5302  0.0824
  614MOL0     H82849   4.859  -0.263   7.210 -0.0978 -1.6356 -0.9108
  614MOL0     H82850   4.966  -0.070   6.907  0.5494 -1.5424  0.2572
  614MOL0     H82851   5.138  -0.012   6.643 -0.6570  0.6830 -0.4411
  614MOL0     H82852   4.990   0.067   6.581 -0.5685 -2.1074 -0.8344
  614MOL0     H82853   5.047   0.087   6.750  0.9235  1.2796  1.3804
  614MOL0     H82854   4.951   0.104   6.315  0.5963 -0.9252  1.0218
  614MOL0     H82855   4.993   0.181   6.071 -0.3703 -0.0401  2.1537
  614MOL0     H82856   5.211  -0.141   5.826 -1.1601 -0.1722  0.2918
  614MOL0     H82857   5.076  -0.084   5.736  2.2766 -1.2407 -4.4483
  614MOL0     H82858   5.193   0.120   5.673 -0.8989  0.1491 -1.1368
  614MOL0     H82859   5.338   0.071   5.758 -0.7995 -0.3313  0.7887
  614MOL0     H82860   5.196  -0.083   5.524 -1.2417  0.1312  1.9539
  614MOL0     H82861   5.308  -0.153   5.624 -1.9697  0.0889  1.4260
  614MOL0     H82862   5.398  -0.038   5.396  2.4047 -1.0533  0.2495
  614MOL0     H82863   5.390   0.113   5.481 -1.2240  0.0996  4.1677
  614MOL0     H82864   5.553   0.068   5.648  3.7308 -1.1602  0.2870
  614MOL0     H82865   5.617   0.030   5.486 -0.4923 -2.7411 -0.2976
  614MOL0     H82866   5.508  -0.182   5.675  1.6434 -0.7518  3.6965
  614MOL0     H82867   5.619  -0.205   5.539 -0.3357  1.0034 -0.4616
  614MOL0     H82868   5.732  -0.042   5.779  4.1855 -0.6274  1.2248
  614MOL0     H82869   5.804  -0.116   5.630 -0.0291  1.6594 -0.0154
  614MOL0     H82870   5.744  -0.335   5.718  1.6784  0.8026 -1.0369
  614MOL0     H82871   5.667  -0.260   5.867  4.9728  1.2477  5.3358
  614MOL0     H82872   5.233  -0.177   6.043  1.2315  0.3356  1.4000
  614MOL0     H82873   5.145  -0.253   6.245  0.9293 -0.1146 -1.4885
  614MOL0     H82874   4.746  -0.357   6.584 -3.0261  0.3190  0.8646
  614MOL0     H82875   4.754  -0.421   6.799  2.0054 -0.2484 -1.6661
  614MOL0     H82876   4.984  -0.454   8.853 -0.4521  0.8331  0.0040
  614MOL0     H82877   4.821  -0.357   9.009  0.6627 -0.5621 -0.0126
  614MOL0     H82878   4.489   0.211   9.007 -1.7569 -1.2009 -0.1160
  614MOL0     H82879   4.329   0.255   9.205  1.3309  1.3618 -3.0100
  614MOL0     H82880   4.228   0.062   9.584  0.6024  2.0870  2.0485
  614MOL0     H82881   4.401  -0.003   9.559  4.1774  2.5292  1.7405
  614MOL0     H82882   4.297   0.269   9.648 -1.0681 -1.1508  1.5467
  614MOL0     H82883   4.475   0.240   9.615 -0.2509 -0.2096 -0.4828
  614MOL0     H82884   4.451   0.046   9.780 -4.0194 -1.3436  1.8914
  614MOL0     H82885   4.296   0.124   9.803  0.2279 -0.4617  2.3407
  614MOL0     H82886   4.440   0.198   9.977  2.1451 -2.1837 -1.1716
  614MOL0     H82887   4.388   0.332   9.877 -0.9079 -1.0901  0.9067
  614MOL0     H82888   4.812   0.369   9.829  0.2188  1.2808  1.6763
  614MOL0     H82889   4.484  -0.108   9.386 -1.6321  1.3514  2.6049
  614MOL0     H82890   4.614  -0.152   9.197 -0.6678 -1.4130  1.9138
  615MOL0     O82891   2.717   5.776   5.201 -0.0892 -0.7734  0.4937
  615MOL0     C82892   2.644   5.858   5.141  1.1707  0.2611 -0.8838
  615MOL0     O82893   2.651   5.900   5.013 -0.0363 -0.1550 -0.5623
  615MOL0     C82894   2.764   5.874   4.941  0.6723  0.4634  1.5681
  615MOL0     C82895   2.739   5.824   4.800  0.5999  0.2961 -1.5780
  615MOL0     C82896   2.850   5.786   4.723  0.3978 -0.3375  0.6208
  615MOL0     C82897   2.987   5.799   4.763  0.0046  0.2589 -0.2665
  615MOL0     O82898   3.096   5.793   4.681 -0.8624  0.0422  0.4879
  615MOL0     C82899   3.067   5.744   4.545 -0.3727 -0.5424  0.1237
  615MOL0     C82900   3.199   5.719   4.464  0.4624  0.1665 -0.3421
  615MOL0     C82901   3.273   5.849   4.437 -0.0399 -1.2299  0.4763
  615MOL0     C82902   3.395   5.836   4.339 -0.2654  0.6556  0.6071
  615MOL0     C82903   3.458   5.975   4.307  0.1243 -0.3635  0.1074
  615MOL0     C82904   3.364   6.061   4.200 -0.2266 -1.1224 -1.2874
  615MOL0     C82905   3.436   6.191   4.161 -1.0123  1.2582  0.0110
  615MOL0     C82906   3.443   6.294   4.273 -0.1029  0.2557 -0.0428
  615MOL0     N82907   3.313   6.354   4.305  0.0676  1.4344  0.3769
  615MOL0     C82908   3.247   6.437   4.229  0.8982  0.6730 -0.6743
  615MOL0     C82909   3.136   6.472   4.299  0.0540  1.4775  0.0722
  615MOL0     C82910   3.034   6.575   4.269 -0.1766  0.1760  0.7468
  615MOL0     C82911   3.084   6.711   4.324 -0.1958  0.1199  0.3733
  615MOL0     C82912   2.975   6.774   4.401 -0.9844 -0.1994 -0.1612
  615MOL0     C82913   3.035   6.890   4.479 -0.4680 -0.5494  1.3832
  615MOL0     O82914   2.937   6.917   4.579  0.5841 -0.4994 -0.3122
  615MOL0     C82915   2.954   7.037   4.647 -0.1492  0.6185  0.1698
  615MOL0     C82916   3.075   7.113   4.661  0.5759 -0.1996 -0.1915
  615MOL0     C82917   3.076   7.217   4.754 -0.8940 -0.0617 -0.3686
  615MOL0     C82918   3.202   7.291   4.774 -0.1588  0.6056 -1.0140
  615MOL0     C82919   2.964   7.244   4.839 -0.1222 -0.0742  0.4353
  615MOL0     C82920   2.952   7.348   4.942 -0.1466  1.0552  0.4228
  615MOL0     O82921   2.853   7.445   4.925 -0.3158 -0.2993 -0.1558
  615MOL0     C82922   2.788   7.505   5.033 -1.2917 -0.4189 -0.4231
  615MOL0     C82923   2.792   7.452   5.161  0.3499  0.5250 -0.4748
  615MOL0     C82924   2.710   7.510   5.260 -0.7742  0.7948 -0.3258
  615MOL0     C82925   2.636   7.628   5.236  0.3014 -1.1194 -0.0203
  615MOL0     O82926   2.557   7.686   5.341 -0.2592 -0.3265  0.0186
  615MOL0     C82927   2.537   7.621   5.468  0.0392  1.4804 -0.2904
  615MOL0     C82928   2.412   7.532   5.473  0.1278 -0.8067  0.5415
  615MOL0     C82929   2.410   7.452   5.605 -0.2895  0.0193  0.5769
  615MOL0     C82930   2.334   7.529   5.717  0.0942 -1.2142 -0.9422
  615MOL0     C82931   2.334   7.465   5.850 -1.5138  1.2869  0.1650
  615MOL0     C82932   2.466   7.437   5.927 -0.3724  0.2441 -0.0862
  615MOL0     C82933   2.569   7.553   5.924 -0.2417  0.0020  0.5926
  615MOL0     C82934   2.662   7.550   6.040 -0.0003 -0.5686  0.3432
  615MOL0    Cl82935   2.590   7.573   6.204 -0.0773 -0.0557  0.6375
  615MOL0     C82936   2.645   7.685   5.111 -0.3499 -0.7007  0.6590
  615MOL0     C82937   2.718   7.622   5.006  0.3993  0.5821 -0.1571
  615MOL0     O82938   3.034   7.340   5.040  0.0920  0.4076  0.8445
  615MOL0     C82939   2.844   7.176   4.808  1.0884  0.3622 -0.5008
  615MOL0     C82940   2.837   7.075   4.707  0.5255 -0.1502 -0.4256
  615MOL0     N82941   3.145   6.400   4.418 -0.7702  1.3062  0.2124
  615MOL0     N82942   3.239   6.313   4.411 -0.8864 -0.3316  0.0952
  615MOL0     C82943   3.010   5.842   4.895  0.0685 -0.6272 -0.3512
  615MOL0     C82944   2.900   5.880   4.977  0.1502 -0.3292  0.4001
  615MOL0     C82945   2.537   5.907   5.232  0.3667 -0.7531  0.0331
  615MOL0     C82946   2.510   5.862   5.363  0.0882 -0.4208 -0.3757
  615MOL0     C82947   2.422   5.927   5.440  0.7409  0.2497  0.6975
  615MOL0     C82948   2.345   6.038   5.393  0.0860 -0.0954 -0.1696
  615MOL0     O82949   2.244   6.096   5.467  0.4957  0.1803  0.2480
  615MOL0     C82950   2.291   6.167   5.587 -0.8284 -0.6704  0.9306
  615MOL0     C82951   2.186   6.257   5.640 -0.1337 -0.3373  0.3319
  615MOL0     C82952   2.230   6.338   5.756 -0.3397 -0.0605  0.0916
  615MOL0     C82953   2.128   6.417   5.839 -0.0293  1.4692  0.0945
  615MOL0     C82954   1.995   6.360   5.833 -0.5572 -0.0099  0.1752
  615MOL0     C82955   1.879   6.322   5.837  0.0048 -0.0156 -0.6523
  615MOL0     C82956   2.374   6.098   5.277 -0.2236  0.7516 -0.0480
  615MOL0     C82957   2.466   6.026   5.192  0.3431 -0.1545 -0.0919
  615MOL0     H82958   2.638   5.815   4.761 -2.0779  4.5520  3.1717
  615MOL0     H82959   2.838   5.755   4.620  2.6296 -1.7632  0.7296
  615MOL0     H82960   3.013   5.650   4.551 -3.5612  1.2133  0.8912
  615MOL0     H82961   3.008   5.822   4.495  0.4806 -0.0863 -0.2027
  615MOL0     H82962   3.278   5.668   4.520 -0.8543 -0.8619  0.6469
  615MOL0     H82963   3.174   5.667   4.370 -1.7438  0.6513 -0.0766
  615MOL0     H82964   3.208   5.924   4.392  2.3945  0.4136 -0.4931
  615MOL0     H82965   3.312   5.892   4.529 -1.1306  1.6530 -0.3012
  615MOL0     H82966   3.472   5.767   4.375  0.0966 -0.7283 -2.4437
  615MOL0     H82967   3.360   5.793   4.244 -1.7489  0.8863  1.0346
  615MOL0     H82968   3.467   6.029   4.401  0.3037  0.6945 -0.5050
  615MOL0     H82969   3.552   5.960   4.254 -1.1437 -1.1220 -2.0816
  615MOL0     H82970   3.357   5.996   4.113  1.1210 -3.2801  0.1245
  615MOL0     H82971   3.265   6.083   4.242 -0.7091 -4.1680 -0.6003
  615MOL0     H82972   3.529   6.150   4.120 -0.8789  0.7336  0.8139
  615MOL0     H82973   3.385   6.239   4.077  0.3124  4.0801  0.6871
  615MOL0     H82974   3.511   6.362   4.221  0.0142 -1.9069 -2.9607
  615MOL0     H82975   3.493   6.256   4.363 -0.9331 -3.1381 -0.8707
  615MOL0     H82976   3.284   6.471   4.133  4.0767  6.5073  2.0920
  615MOL0     H82977   3.027   6.577   4.160  0.0402  0.4054  0.7370
  615MOL0     H82978   2.943   6.541   4.319  1.8407 -2.9403  2.5934
  615MOL0     H82979   3.114   6.781   4.245  0.5144  1.0896  1.4615
  615MOL0     H82980   3.172   6.677   4.379  0.0986  0.3978  0.0856
  615MOL0     H82981   2.934   6.706   4.476  1.9100 -0.6859  1.1235
  615MOL0     H82982   2.893   6.813   4.340 -1.0802  1.0670  0.7338
  615MOL0     H82983   3.060   6.979   4.421  0.2324 -1.0944  0.8298
  615MOL0     H82984   3.131   6.871   4.528  1.1241  1.9322 -0.4826
  615MOL0     H82985   3.157   7.090   4.593 -0.8910 -0.5925 -1.9091
  615MOL0     H82986   3.182   7.397   4.787  3.4801  1.4621 -1.5414
  615MOL0     H82987   3.248   7.255   4.866 -4.0333  0.6634  1.1958
  615MOL0     H82988   3.274   7.286   4.692  3.1651  2.0623  1.5915
  615MOL0     H82989   2.843   7.358   5.182  0.8349  0.4223 -2.0046
  615MOL0     H82990   2.733   7.456   5.351  0.9651  0.6522 -0.8181
  615MOL0     H82991   2.622   7.568   5.511 -0.7013  0.7086  0.2456
  615MOL0     H82992   2.523   7.710   5.531 -0.6265  4.9661 -4.7892
  615MOL0     H82993   2.320   7.590   5.462  1.5182  1.4625  0.1793
  615MOL0     H82994   2.418   7.457   5.393 -0.7486 -0.9205  0.5731
  615MOL0     H82995   2.515   7.442   5.633  0.2363  1.1421 -0.8974
  615MOL0     H82996   2.366   7.352   5.590  2.2110 -1.0957  0.1178
  615MOL0     H82997   2.386   7.622   5.741  0.3665 -2.1598  2.9158
  615MOL0     H82998   2.235   7.562   5.687  0.0209  1.7364  1.9692
  615MOL0     H82999   2.284   7.368   5.840 -0.3374  0.5092  1.4684
  615MOL0     H83000   2.262   7.530   5.901 -0.1065  2.0711  1.1997
  615MOL0     H83001   2.448   7.408   6.031  1.2501  1.7969  0.6766
  615MOL0     H83002   2.504   7.345   5.880 -0.5552  0.4946 -0.7382
  615MOL0     H83003   2.525   7.653   5.923  3.9754  2.1039  0.8268
  615MOL0     H83004   2.627   7.551   5.831 -0.3304  0.7790  0.5125
  615MOL0     H83005   2.735   7.623   6.004 -0.9602 -1.2720 -3.4504
  615MOL0     H83006   2.716   7.456   6.034  1.5875  0.3838 -1.3343
  615MOL0     H83007   2.594   7.780   5.099 -0.6253 -0.7358  1.5435
  615MOL0     H83008   2.720   7.664   4.906 -2.0370  0.7998 -0.1674
  615MOL0     H83009   2.758   7.202   4.869 -0.5113 -2.9196 -1.1123
  615MOL0     H83010   2.752   7.010   4.687 -0.0676  1.6928 -5.2456
  615MOL0     H83011   3.110   5.839   4.937  0.8324 -0.2787 -2.0327
  615MOL0     H83012   2.907   5.902   5.084 -0.0832  1.0476  0.1570
  615MOL0     H83013   2.557   5.773   5.403 -0.0602 -0.3429 -0.0250
  615MOL0     H83014   2.386   5.885   5.533 -0.4870  2.5194  1.3275
  615MOL0     H83015   2.321   6.081   5.648 -1.3336 -2.0048 -0.6337
  615MOL0     H83016   2.384   6.208   5.546 -0.6746 -1.1213  0.8157
  615MOL0     H83017   2.090   6.209   5.659  0.3476  0.1647  5.3577
  615MOL0     H83018   2.178   6.334   5.562  2.4282 -1.2099 -0.9250
  615MOL0     H83019   2.301   6.412   5.719 -0.2955  0.6741  1.5852
  615MOL0     H83020   2.283   6.270   5.824 -1.8584 -1.0463  0.3446
  615MOL0     H83021   2.145   6.523   5.815  0.6382  0.5742 -4.2711
  615MOL0     H83022   2.161   6.396   5.941  1.5811  3.2137 -0.0021
  615MOL0     H83023   1.778   6.288   5.851 -0.1439  1.0714  1.3093
  615MOL0     H83024   2.334   6.192   5.241 -1.0913 -0.6362 -3.0225
  615MOL0     H83025   2.477   6.073   5.095 -0.7327  1.6549  0.6032
  616MOL0     O83026  11.110   2.903  10.111 -0.3805 -0.7153 -0.6755
  616MOL0     C83027  11.072   2.859  10.217  0.4875 -0.0660 -0.2054
  616MOL0     O83028  11.150   2.829  10.320  0.6225  0.8410 -0.7007
  616MOL0     C83029  11.290   2.849  10.293 -0.7341  0.4690  0.0268
  616MOL0     C83030  11.380   2.746  10.270 -0.1728  0.0374 -0.3308
  616MOL0     C83031  11.516   2.768  10.251  0.3739 -0.9082  0.8316
  616MOL0     C83032  11.560   2.902  10.253  0.3640 -0.6224  0.3276
  616MOL0     O83033  11.686   2.944  10.225 -0.3971 -0.3792 -0.9785
  616MOL0     C83034  11.802   2.857  10.262  0.9120  0.5224  0.3305
  616MOL0     C83035  11.925   2.948  10.275 -1.1477  0.5294  0.1359
  616MOL0     C83036  12.022   2.942  10.164 -0.7155 -0.0821 -0.7378
  616MOL0     C83037  11.981   3.024  10.039 -0.0918  0.4458 -0.1445
  616MOL0     C83038  12.088   3.132  10.018  0.2555  0.0462 -0.9122
  616MOL0     C83039  12.049   3.254  10.093 -0.0349  0.0788  0.2844
  616MOL0     C83040  12.127   3.370  10.043  0.6558 -0.4897  0.1565
  616MOL0     C83041  12.161   3.480  10.157  0.7335  0.0057 -0.3790
  616MOL0     N83042  12.288   3.451  10.236  0.0500 -0.1258 -0.5008
  616MOL0     C83043  12.409   3.427  10.172 -1.0675 -0.4649  0.5727
  616MOL0     C83044  12.487   3.386  10.275 -0.2033 -0.8419  0.1144
  616MOL0     C83045  12.625   3.338  10.257  0.6512  0.1502  0.2714
  616MOL0     C83046  12.644   3.181  10.246  0.2495  0.5126 -0.2817
  616MOL0     C83047  12.551   3.081  10.318 -0.1429 -0.0632 -1.1147
  616MOL0     C83048  12.590   3.080  10.465  0.0346 -0.6117  0.1795
  616MOL0     O83049  12.530   2.965  10.534  0.4821 -0.3657  0.1684
  616MOL0     C83050  12.393   2.969  10.547 -0.7333 -0.2613  0.2259
  616MOL0     C83051  12.338   2.852  10.588 -0.3867 -0.0162 -0.4573
  616MOL0     C83052  12.198   2.840  10.622  0.3881 -0.1006 -0.4166
  616MOL0     C83053  12.152   2.705  10.671  0.4449  0.4354  0.3214
  616MOL0     C83054  12.108   2.955  10.615 -0.6992 -0.3110 -0.1486
  616MOL0     C83055  11.964   2.962  10.653 -1.2158 -0.6823  0.6412
  616MOL0     O83056  11.909   3.092  10.642 -0.4436  0.2586  0.5999
  616MOL0     C83057  11.782   3.112  10.684 -0.9864 -0.1995  0.6907
  616MOL0     C83058  11.753   3.120  10.821  0.4676 -1.3996 -0.1769
  616MOL0     C83059  11.626   3.136  10.867  0.5583 -0.6748 -0.0455
  616MOL0     C83060  11.517   3.144  10.772 -0.0348 -0.6735 -0.5538
  616MOL0     O83061  11.379   3.169  10.797 -0.2719 -0.3259  0.1567
  616MOL0     C83062  11.347   3.243  10.919 -0.3437 -0.0076  0.2457
  616MOL0     C83063  11.333   3.133  11.037  0.1325 -0.1334  0.2480
  616MOL0     C83064  11.338   3.201  11.183  0.3603  0.0314 -0.1824
  616MOL0     C83065  11.223   3.182  11.279  0.3233 -0.3429 -1.3965
  616MOL0     C83066  11.107   3.284  11.251 -0.1343  0.0936  0.1890
  616MOL0     C83067  11.006   3.262  11.367  0.6969 -0.0355  0.4221
  616MOL0     C83068  10.878   3.351  11.382  0.4794  0.7909  0.0176
  616MOL0     C83069  10.767   3.301  11.288 -0.7010 -0.1380  0.1935
  616MOL0    Cl83070  10.722   3.141  11.351 -0.0703  0.2536  0.0597
  616MOL0     C83071  11.546   3.125  10.636 -1.3262 -0.5995  0.5200
  616MOL0     C83072  11.676   3.107  10.595  0.0289  0.2988  1.2558
  616MOL0     O83073  11.906   2.867  10.700  0.3902 -0.1432 -0.5735
  616MOL0     C83074  12.171   3.077  10.556 -0.2193 -0.2984 -0.5023
  616MOL0     C83075  12.308   3.080  10.534 -0.1809 -0.6989 -0.8460
  616MOL0     N83076  12.421   3.400  10.401  0.2056  0.6903 -0.0291
  616MOL0     N83077  12.293   3.416  10.372 -0.5525 -0.2810  0.7412
  616MOL0     C83078  11.464   3.012  10.272  0.5042 -0.8427  0.6590
  616MOL0     C83079  11.332   2.989  10.304  0.1746  0.4484 -0.5420
  616MOL0     C83080  10.923   2.838  10.224 -0.6102 -0.2051 -0.5607
  616MOL0     C83081  10.858   2.861  10.344 -0.4482  0.1820  0.2536
  616MOL0     C83082  10.717   2.835  10.364 -1.0787  0.0180  0.6594
  616MOL0     C83083  10.641   2.807  10.246  0.3037 -0.1697 -0.9848
  616MOL0     O83084  10.511   2.787  10.268  0.2947 -0.5018  0.1196
  616MOL0     C83085  10.426   2.802  10.151  0.9587  0.1977 -0.0363
  616MOL0     C83086  10.278   2.793  10.191 -0.1072  0.7605 -0.7752
  616MOL0     C83087  10.240   2.907  10.287  0.2176 -0.3089 -0.5619
  616MOL0     C83088  10.096   2.916  10.327 -0.1574  0.8181  0.0224
  616MOL0     C83089  10.010   2.959  10.216 -0.7619 -0.9327  0.3919
  616MOL0     C83090   9.922   2.997  10.135 -0.6787  0.0763 -0.2088
  616MOL0     C83091  10.708   2.813  10.122 -0.7166 -0.1769  0.8335
  616MOL0     C83092  10.852   2.815  10.110  0.6048  0.0956  0.9849
  616MOL0     H83093  11.356   2.641  10.261  1.9839 -0.4933 -0.3175
  616MOL0     H83094  11.587   2.688  10.231  1.2505  0.9169 -5.1394
  616MOL0     H83095  11.792   2.808  10.359  1.6139 -0.1207  0.0853
  616MOL0     H83096  11.810   2.771  10.196 -0.6267 -0.6554  1.6140
  616MOL0     H83097  11.913   3.052  10.305  4.8680  1.5014  0.3741
  616MOL0     H83098  11.976   2.912  10.365 -2.7946  1.4695  1.5235
  616MOL0     H83099  12.122   2.959  10.205  0.5448 -1.5558 -2.9777
  616MOL0     H83100  12.031   2.838  10.132 -1.4707 -1.3417  2.6554
  616MOL0     H83101  11.965   2.967   9.948 -1.0535  3.1166 -1.7767
  616MOL0     H83102  11.880   3.062  10.059 -0.9262 -1.4200 -0.6104
  616MOL0     H83103  12.192   3.107  10.044  0.3539  2.0178  0.8571
  616MOL0     H83104  12.084   3.145   9.910  2.6375 -0.4907 -1.1317
  616MOL0     H83105  11.943   3.277  10.081  0.3430  1.3283 -1.0101
  616MOL0     H83106  12.076   3.258  10.199 -0.4702 -0.6829  0.4255
  616MOL0     H83107  12.215   3.337   9.987  2.9927 -1.0224  3.8058
  616MOL0     H83108  12.057   3.416   9.972  2.5644  2.0140 -0.2615
  616MOL0     H83109  12.076   3.481  10.226  1.4363  1.4390  0.4957
  616MOL0     H83110  12.160   3.579  10.112 -4.1720  0.2304 -0.3380
  616MOL0     H83111  12.444   3.444  10.071  3.6964 -0.7661  1.9315
  616MOL0     H83112  12.663   3.381  10.164  0.0336 -1.1866 -0.6364
  616MOL0     H83113  12.687   3.366  10.343  0.6934 -2.8622  1.3500
  616MOL0     H83114  12.751   3.156  10.243  0.3570  0.9764 -0.5388
  616MOL0     H83115  12.617   3.153  10.143 -0.7210  0.0942  0.0794
  616MOL0     H83116  12.561   2.979  10.279 -0.7302 -0.9769  0.9665
  616MOL0     H83117  12.449   3.121  10.311  0.3811  2.1884  2.1412
  616MOL0     H83118  12.554   3.174  10.509 -2.1358 -0.8091 -1.0053
  616MOL0     H83119  12.699   3.080  10.469  0.0404  0.3674  0.3626
  616MOL0     H83120  12.398   2.762  10.597 -0.3608  0.1443  1.4429
  616MOL0     H83121  12.049   2.691  10.636  0.3990  2.4537 -0.4748
  616MOL0     H83122  12.200   2.619  10.623 -3.8200 -1.7102 -0.6069
  616MOL0     H83123  12.161   2.701  10.780  1.7119  3.3492  0.4054
  616MOL0     H83124  11.838   3.126  10.888  0.3738 -0.7059 -0.1132
  616MOL0     H83125  11.601   3.139  10.972  1.0677 -2.5257  0.1627
  616MOL0     H83126  11.420   3.323  10.937 -0.4554  0.8440 -2.5296
  616MOL0     H83127  11.250   3.288  10.896 -0.4418 -0.8411 -1.0919
  616MOL0     H83128  11.248   3.066  11.025 -0.8779  1.3428 -1.4150
  616MOL0     H83129  11.411   3.058  11.022 -1.2449 -1.6564  0.5366
  616MOL0     H83130  11.366   3.306  11.168  4.0571 -0.8192 -0.2727
  616MOL0     H83131  11.431   3.158  11.222  1.5605  0.5200 -2.2910
  616MOL0     H83132  11.183   3.080  11.283  0.8376 -0.5007  1.1833
  616MOL0     H83133  11.237   3.205  11.385 -2.2911  1.5333 -1.3586
  616MOL0     H83134  11.057   3.277  11.155 -2.9313 -0.0953  1.5562
  616MOL0     H83135  11.147   3.386  11.253 -1.0394  0.6973 -4.1242
  616MOL0     H83136  10.970   3.158  11.372 -0.9107  0.4653 -0.2844
  616MOL0     H83137  11.063   3.290  11.456  1.6061  5.9531 -1.5849
  616MOL0     H83138  10.905   3.453  11.352  0.9982  0.6383 -0.0445
  616MOL0     H83139  10.834   3.355  11.482  1.4269  2.3732  0.4074
  616MOL0     H83140  10.791   3.316  11.183  1.1073 -1.1105  0.4393
  616MOL0     H83141  10.678   3.364  11.295 -0.7772 -0.0918 -1.0494
  616MOL0     H83142  11.463   3.117  10.567 -0.0844 -1.1074 -0.9810
  616MOL0     H83143  11.703   3.091  10.491 -2.6716 -0.9601  0.6515
  616MOL0     H83144  12.105   3.161  10.536 -2.4480 -1.9367 -0.3759
  616MOL0     H83145  12.346   3.180  10.514 -0.4489 -0.5149 -0.4618
  616MOL0     H83146  11.507   3.112  10.272  3.6291 -2.0085 -2.0197
  616MOL0     H83147  11.280   3.079  10.335  1.6202  0.7726  1.0309
  616MOL0     H83148  10.921   2.889  10.427  0.8046 -2.4395  0.3026
  616MOL0     H83149  10.678   2.842  10.465  0.9251  0.0679  1.4707
  616MOL0     H83150  10.438   2.901  10.107 -1.6577  1.4813  1.8326
  616MOL0     H83151  10.456   2.721  10.084 -1.0431 -2.2573  1.7903
  616MOL0     H83152  10.264   2.692  10.232 -0.8448  0.5824 -1.4462
  616MOL0     H83153  10.215   2.813  10.104 -0.5653 -0.5083 -0.7658
  616MOL0     H83154  10.257   2.999  10.232  0.1781  0.0819  0.0640
  616MOL0     H83155  10.307   2.916  10.374 -0.3538 -2.0308  0.1157
  616MOL0     H83156  10.074   2.993  10.402 -2.4738 -1.1610  1.5150
  616MOL0     H83157  10.068   2.819  10.367  0.5476 -0.1518 -1.7135
  616MOL0     H83158   9.861   3.045  10.061 -1.1578  1.9740  1.3459
  616MOL0     H83159  10.663   2.788  10.027 -0.2934  1.7098  0.0849
  616MOL0     H83160  10.903   2.798  10.016  0.4245  3.9293  0.0468
  617MOL0     O83161  11.463  10.214  10.325  0.3920 -0.1934  0.7032
  617MOL0     C83162  11.464  10.146  10.224 -0.5756  0.1690 -0.4643
  617MOL0     O83163  11.467  10.200  10.100 -0.0198  0.7186 -0.0933
  617MOL0     C83164  11.455  10.339  10.076  0.2634 -0.7602  0.0325
  617MOL0     C83165  11.400  10.443  10.158  0.1287  0.7646  0.5068
  617MOL0     C83166  11.391  10.574  10.117 -0.7875  0.5032 -0.1393
  617MOL0     C83167  11.422  10.602   9.980  0.2310  0.7128  0.6013
  617MOL0     O83168  11.410  10.719   9.916  0.1518  0.4199 -0.1275
  617MOL0     C83169  11.380  10.831   9.992  0.0349 -0.8116 -0.6009
  617MOL0     C83170  11.374  10.961   9.906  0.0788 -0.0242  0.8527
  617MOL0     C83171  11.283  11.067   9.972  0.0021  0.2446  0.4097
  617MOL0     C83172  11.308  11.210   9.904  0.6207  0.1544 -0.1569
  617MOL0     C83173  11.234  11.317   9.966 -0.0402 -0.3229 -0.3375
  617MOL0     C83174  11.084  11.286  10.009 -0.9612 -0.0980 -0.1025
  617MOL0     C83175  10.984  11.259   9.892  0.1139  0.4655 -0.3106
  617MOL0     C83176  10.956  11.372   9.798  0.0217 -0.1122  0.3219
  617MOL0     N83177  10.844  11.342   9.702 -0.9126  0.4647  0.1944
  617MOL0     C83178  10.847  11.227   9.623 -0.0120 -0.7375 -0.5746
  617MOL0     C83179  10.722  11.229   9.561  0.1149  0.4662  0.2654
  617MOL0     C83180  10.646  11.122   9.495 -0.6630  1.0126  0.9109
  617MOL0     C83181  10.623  11.163   9.346 -0.1946  1.0157 -0.0329
  617MOL0     C83182  10.538  11.060   9.268 -0.2683 -0.0759  0.4238
  617MOL0     C83183  10.601  10.921   9.253  0.5219  0.4016 -1.1004
  617MOL0     O83184  10.532  10.844   9.151 -0.5712  0.6517 -0.0702
  617MOL0     C83185  10.572  10.711   9.126  0.8108 -1.5891  0.3997
  617MOL0     C83186  10.472  10.628   9.075 -0.7018  0.6354  0.3576
  617MOL0     C83187  10.513  10.491   9.034  0.7819 -0.2333 -0.3422
  617MOL0     C83188  10.397  10.413   8.970  0.1922  0.2162 -0.9439
  617MOL0     C83189  10.653  10.459   9.025  0.7839 -0.2397  1.1463
  617MOL0     C83190  10.703  10.340   8.947 -0.5826 -0.4733 -0.7374
  617MOL0     O83191  10.840  10.299   8.965 -0.6211 -0.0526 -0.3052
  617MOL0     C83192  10.890  10.200   8.880  0.9171 -0.1344 -0.2611
  617MOL0     C83193  10.841  10.068   8.881  1.2085  0.3028  0.5074
  617MOL0     C83194  10.892   9.973   8.794 -0.6558 -0.3633 -0.0104
  617MOL0     C83195  10.986  10.006   8.702 -0.6592  1.1359 -0.2923
  617MOL0     O83196  11.028   9.895   8.628  0.0196 -0.6076 -0.5434
  617MOL0     C83197  11.077   9.933   8.497  0.3240 -0.3517 -0.1986
  617MOL0     C83198  11.075   9.801   8.421 -0.1609 -0.1707 -0.5978
  617MOL0     C83199  10.938   9.744   8.376 -0.9061 -0.3784  0.0833
  617MOL0     C83200  10.879   9.834   8.274  0.2859  0.1346  0.3265
  617MOL0     C83201  10.810   9.741   8.166  0.2935 -0.1736  0.1646
  617MOL0     C83202  10.696   9.660   8.228 -0.4451 -0.5404  0.4795
  617MOL0     C83203  10.596   9.629   8.116 -0.3212  0.6692  0.1759
  617MOL0     C83204  10.519   9.505   8.156 -0.0316  0.4931 -0.4170
  617MOL0    Cl83205  10.625   9.364   8.128 -0.2379 -0.1861 -0.3906
  617MOL0     C83206  11.037  10.139   8.696  0.0613  0.0282  0.1608
  617MOL0     C83207  10.993  10.230   8.790  0.5425 -0.4583 -0.9675
  617MOL0     O83208  10.617  10.292   8.879  0.2467  0.0044 -0.1731
  617MOL0     C83209  10.752  10.548   9.085  1.2340  2.1141  0.5287
  617MOL0     C83210  10.702  10.673   9.130  0.1016 -0.7316  0.5539
  617MOL0     N83211  10.666  11.346   9.593  0.0219  0.0723  0.2986
  617MOL0     N83212  10.730  11.411   9.682 -0.2490 -0.4254  1.3064
  617MOL0     C83213  11.464  10.498   9.899 -0.1984  0.0276  0.2448
  617MOL0     C83214  11.488  10.373   9.942 -0.2383 -0.1198  0.0455
  617MOL0     C83215  11.464  10.011  10.231 -0.9957 -0.6622 -0.7209
  617MOL0     C83216  11.418   9.941  10.343  0.0416  0.1296  0.0426
  617MOL0     C83217  11.422   9.799  10.343 -0.0541  0.1479 -0.1918
  617MOL0     C83218  11.477   9.730  10.236  0.5779  0.3604  0.2567
  617MOL0     O83219  11.473   9.588  10.227  0.8025  0.0682 -0.5241
  617MOL0     C83220  11.470   9.510  10.352  0.2222 -0.5589 -0.4656
  617MOL0     C83221  11.612   9.505  10.402  0.6811  0.1914 -0.1038
  617MOL0     C83222  11.704   9.434  10.296  1.0771 -0.4216 -0.2030
  617MOL0     C83223  11.857   9.452  10.333  0.3882 -0.6797 -0.0138
  617MOL0     C83224  11.944   9.380  10.236 -0.0900  0.6844  0.1040
  617MOL0     C83225  11.999   9.303  10.158 -0.5339 -1.2217  0.1192
  617MOL0     C83226  11.523   9.802  10.123 -0.1098  0.1798 -0.7196
  617MOL0     C83227  11.517   9.940  10.124  0.4080  0.0209  0.2833
  617MOL0     H83228  11.364  10.413  10.256  0.5942  0.1642  0.4941
  617MOL0     H83229  11.338  10.644  10.181 -4.0461 -2.2962  0.5025
  617MOL0     H83230  11.279  10.824  10.034  0.7473 -0.8869  1.2335
  617MOL0     H83231  11.461  10.851  10.063 -1.4072  2.0048  0.4216
  617MOL0     H83232  11.470  11.008   9.884 -0.1012 -0.3128 -0.6642
  617MOL0     H83233  11.323  10.934   9.812 -2.1242  1.6024  1.4918
  617MOL0     H83234  11.177  11.039   9.973 -0.5037  1.9163  3.0107
  617MOL0     H83235  11.319  11.076  10.075 -0.7883  0.2768  0.6963
  617MOL0     H83236  11.413  11.239   9.916  1.1762 -1.8313  0.3330
  617MOL0     H83237  11.277  11.210   9.800 -2.2170  1.9062  0.5857
  617MOL0     H83238  11.295  11.328  10.056  1.7911 -4.0827 -0.9159
  617MOL0     H83239  11.246  11.406   9.904  2.8497 -0.4984 -0.1747
  617MOL0     H83240  11.082  11.200  10.077 -3.6485 -0.5356 -0.6251
  617MOL0     H83241  11.036  11.368  10.062 -2.3089  1.0396 -2.8905
  617MOL0     H83242  11.006  11.160   9.850  0.1654  0.0951  0.5615
  617MOL0     H83243  10.892  11.241   9.948  1.6061  0.8213  2.4105
  617MOL0     H83244  11.042  11.412   9.744 -1.8172  3.9646  0.0375
  617MOL0     H83245  10.930  11.458   9.861 -0.5980 -0.4772  0.5707
  617MOL0     H83246  10.921  11.147   9.631  0.5358 -0.1382  0.7995
  617MOL0     H83247  10.693  11.024   9.486 -2.4130  0.2736 -1.2274
  617MOL0     H83248  10.548  11.107   9.541 -0.9142 -1.0048 -0.1671
  617MOL0     H83249  10.714  11.183   9.288  0.4997  0.6960  0.9259
  617MOL0     H83250  10.563  11.254   9.352 -1.4706  0.0928  3.7792
  617MOL0     H83251  10.521  11.099   9.168  0.5017  0.4784  0.4914
  617MOL0     H83252  10.442  11.049   9.319  1.0201 -1.8080  2.6739
  617MOL0     H83253  10.605  10.872   9.351 -2.1308 -1.2656 -1.7194
  617MOL0     H83254  10.703  10.943   9.221  0.0364  2.0271 -1.5864
  617MOL0     H83255  10.372  10.666   9.059 -0.7393 -0.2793 -1.9037
  617MOL0     H83256  10.405  10.453   8.869  4.3424 -0.3730 -1.0189
  617MOL0     H83257  10.400  10.304   8.979  1.9795  0.3699  0.9738
  617MOL0     H83258  10.301  10.438   9.017  0.3811 -0.6421 -0.0717
  617MOL0     H83259  10.770  10.029   8.953 -0.2025  4.4106  1.6424
  617MOL0     H83260  10.860   9.869   8.799  1.5975 -1.0573  1.9174
  617MOL0     H83261  11.008  10.007   8.456  1.5605 -0.2216 -2.1517
  617MOL0     H83262  11.174   9.982   8.498 -1.5836  3.8835 -1.1910
  617MOL0     H83263  11.132   9.819   8.330 -2.1472  2.6227 -1.4284
  617MOL0     H83264  11.110   9.721   8.488 -0.2588 -0.9116 -1.4136
  617MOL0     H83265  10.863   9.748   8.456 -0.2072  3.1394  0.7503
  617MOL0     H83266  10.953   9.639   8.351  0.3598 -0.6364  1.7627
  617MOL0     H83267  10.805   9.904   8.312  1.5021  1.8099 -0.2660
  617MOL0     H83268  10.942   9.897   8.210  0.2470 -1.1971 -1.0836
  617MOL0     H83269  10.877   9.669   8.119  1.2454  0.5956  0.3160
  617MOL0     H83270  10.780   9.804   8.082  2.1430  0.9799  0.3207
  617MOL0     H83271  10.731   9.567   8.274 -3.6185 -3.4031 -2.3366
  617MOL0     H83272  10.645   9.716   8.307 -0.6568  0.6878 -0.5019
  617MOL0     H83273  10.640   9.593   8.023  2.6802  1.4384  1.1844
  617MOL0     H83274  10.530   9.715   8.105  0.0703  0.7454 -1.8626
  617MOL0     H83275  10.430   9.499   8.092  1.3809  2.5916 -2.7694
  617MOL0     H83276  10.499   9.517   8.263  0.9167  1.4985 -0.3330
  617MOL0     H83277  11.121  10.170   8.635  2.8430  1.3398  4.2270
  617MOL0     H83278  11.030  10.325   8.826 -0.3643 -1.0307  1.7115
  617MOL0     H83279  10.857  10.523   9.087  1.6015  3.5895  0.7100
  617MOL0     H83280  10.777  10.741   9.170 -0.1727 -0.7427  1.0960
  617MOL0     H83281  11.503  10.522   9.800  1.0270  0.8113  0.8820
  617MOL0     H83282  11.514  10.286   9.883  0.4327 -2.2496  3.2295
  617MOL0     H83283  11.405   9.999  10.433  1.5334 -1.1295  1.1274
  617MOL0     H83284  11.374   9.747  10.425  1.1761 -0.3320  0.2546
  617MOL0     H83285  11.413   9.551  10.436  0.3852 -0.8203 -0.2304
  617MOL0     H83286  11.418   9.415  10.337 -1.8649  0.2137  1.3024
  617MOL0     H83287  11.633   9.452  10.495 -1.2429  0.9339  0.8011
  617MOL0     H83288  11.648   9.607  10.416  2.5958 -0.7114  2.4925
  617MOL0     H83289  11.689   9.476  10.196  0.7057 -0.3014 -0.0988
  617MOL0     H83290  11.681   9.327  10.291  1.4579 -0.6698  2.1888
  617MOL0     H83291  11.879   9.411  10.432  1.1301  2.4407  1.2256
  617MOL0     H83292  11.878   9.559  10.331  2.1936 -1.0105 -0.8877
  617MOL0     H83293  12.021   9.225  10.088 -0.6264 -1.4383  0.3292
  617MOL0     H83294  11.558   9.738  10.043  0.2803  0.5496 -0.8512
  617MOL0     H83295  11.577   9.998  10.055  1.4263 -0.4405  0.7598
  618MOL0     O83296   2.836  10.840   3.789 -0.6971  0.4251 -0.2642
  618MOL0     C83297   2.961  10.855   3.820  0.4682  0.5790  0.1918
  618MOL0     O83298   3.051  10.935   3.760 -0.6871 -0.1204 -0.0834
  618MOL0     C83299   3.006  11.022   3.656  0.0637  0.6810  0.1053
  618MOL0     C83300   2.920  10.978   3.549 -0.5460 -0.1422  0.4678
  618MOL0     C83301   2.879  11.067   3.446 -0.3971  0.1454 -0.8352
  618MOL0     C83302   2.912  11.205   3.463 -0.3335  0.1294 -0.6262
  618MOL0     O83303   2.865  11.304   3.379  0.0704 -0.3536  0.8822
  618MOL0     C83304   2.720  11.280   3.347 -0.0555  0.0108  0.1087
  618MOL0     C83305   2.677  11.409   3.279 -0.5727  0.7296 -0.3293
  618MOL0     C83306   2.528  11.406   3.244 -0.5115  1.2150 -0.6223
  618MOL0     C83307   2.494  11.522   3.149  0.0120  0.4968 -0.1986
  618MOL0     C83308   2.343  11.542   3.139 -0.1231 -0.2304  0.1050
  618MOL0     C83309   2.297  11.607   3.004  0.1343  0.6920  0.1689
  618MOL0     C83310   2.153  11.612   2.984  0.1606  0.5277  0.5299
  618MOL0     C83311   2.072  11.506   3.056  0.4179  0.2302  1.5296
  618MOL0     N83312   1.956  11.478   2.967  0.5169  0.1393 -0.0843
  618MOL0     C83313   1.954  11.381   2.870 -0.3971 -0.0917  0.2272
  618MOL0     C83314   1.831  11.386   2.820 -0.2388  0.5029 -0.9314
  618MOL0     C83315   1.777  11.286   2.720 -0.6984 -0.6953  0.2416
  618MOL0     C83316   1.854  11.285   2.585 -0.2798  0.2626 -0.0747
  618MOL0     C83317   1.887  11.430   2.534  0.3294 -0.0930  0.3237
  618MOL0     C83318   1.760  11.524   2.526 -0.7410 -0.1099  0.8628
  618MOL0     O83319   1.802  11.653   2.482  0.3849 -0.5303 -0.3995
  618MOL0     C83320   1.705  11.734   2.432  0.1166  1.0544 -0.2356
  618MOL0     C83321   1.567  11.711   2.433  0.9236  0.6226 -0.4716
  618MOL0     C83322   1.481  11.799   2.380 -0.5369  0.0030 -0.4268
  618MOL0     C83323   1.328  11.779   2.387 -0.5425  0.2630  0.5944
  618MOL0     C83324   1.536  11.919   2.319  0.0742  0.0036  0.0062
  618MOL0     C83325   1.454  12.029   2.255 -0.2121 -0.1932  1.0186
  618MOL0     O83326   1.339  11.988   2.194  0.8347 -0.3512 -0.5942
  618MOL0     C83327   1.256  12.078   2.138  0.1181  0.1344  0.0754
  618MOL0     C83328   1.278  12.139   2.013 -0.3881 -0.0306 -0.4491
  618MOL0     C83329   1.186  12.222   1.963 -0.2854 -0.4139  1.3609
  618MOL0     C83330   1.066  12.245   2.033 -1.2689  0.3247 -0.2766
  618MOL0     O83331   0.986  12.337   1.979  0.5749 -0.7438  0.2980
  618MOL0     C83332   1.030  12.472   2.021 -0.4360  0.1369 -0.4806
  618MOL0     C83333   1.069  12.545   1.894 -0.1027  0.0285 -0.6383
  618MOL0     C83334   1.053  12.697   1.901 -1.6831  0.5687 -0.8043
  618MOL0     C83335   1.127  12.746   1.772 -0.6049 -0.0374 -0.1092
  618MOL0     C83336   1.146  12.898   1.774 -0.1130 -0.3345  0.2016
  618MOL0     C83337   1.247  12.955   1.882 -0.7804  0.8865 -0.0422
  618MOL0     C83338   1.391  12.895   1.868  0.3724  0.1428  0.5924
  618MOL0     C83339   1.489  12.946   1.971 -0.0433  0.6488 -0.1248
  618MOL0    Cl83340   1.413  12.975   2.137  0.2992 -0.2869  0.5792
  618MOL0     C83341   1.047  12.174   2.155  0.4876 -0.9724  0.2079
  618MOL0     C83342   1.139  12.093   2.214 -0.7681 -0.3516  0.0793
  618MOL0     O83343   1.504  12.146   2.245 -0.6240  0.2747 -0.7230
  618MOL0     C83344   1.668  11.948   2.325  0.2009  0.3518  0.3541
  618MOL0     C83345   1.754  11.858   2.382  0.6058 -0.1147  0.1714
  618MOL0     N83346   1.775  11.503   2.856  0.5014  0.1796  0.7997
  618MOL0     N83347   1.852  11.550   2.949  1.0002  0.2056  0.1769
  618MOL0     C83348   3.000  11.241   3.562 -0.3662 -0.9427  0.2171
  618MOL0     C83349   3.042  11.158   3.665 -0.7252  0.1990 -0.8066
  618MOL0     C83350   3.022  10.754   3.911  0.2580  0.8852  0.5601
  618MOL0     C83351   3.154  10.776   3.957 -0.1845 -0.1452  0.9050
  618MOL0     C83352   3.210  10.673   4.036 -0.0080  0.2285  0.6346
  618MOL0     C83353   3.147  10.558   4.066  0.7729  1.0668  0.1726
  618MOL0     O83354   3.207  10.458   4.137 -0.6606  0.3753  0.0973
  618MOL0     C83355   3.175  10.319   4.120  0.6928 -0.3982  0.5015
  618MOL0     C83356   3.301  10.246   4.175  0.2512  1.3223  0.1999
  618MOL0     C83357   3.280  10.095   4.197 -1.1806  0.4831  0.2354
  618MOL0     C83358   3.228  10.032   4.065  0.6744 -0.4681  0.2065
  618MOL0     C83359   3.192   9.898   4.102  0.8577 -0.2367 -0.7098
  618MOL0     C83360   3.167   9.780   4.113 -0.4233 -0.8202  0.0808
  618MOL0     C83361   3.016  10.546   4.015  0.7307  0.7266 -0.4045
  618MOL0     C83362   2.951  10.644   3.955  0.0534 -0.2435  1.7540
  618MOL0     H83363   2.900  10.873   3.533  2.6169 -0.8250  0.3504
  618MOL0     H83364   2.816  11.046   3.361 -2.2224  0.0995  0.4615
  618MOL0     H83365   2.708  11.190   3.285  3.7190 -2.0123  1.9252
  618MOL0     H83366   2.674  11.269   3.446  0.3625 -1.4896  0.1669
  618MOL0     H83367   2.701  11.494   3.343  1.5726 -2.8647  4.2470
  618MOL0     H83368   2.734  11.412   3.185 -1.6332  1.5348 -0.9735
  618MOL0     H83369   2.506  11.312   3.194 -2.3361  1.5105 -0.4262
  618MOL0     H83370   2.468  11.407   3.335 -1.9978 -2.1073 -1.4138
  618MOL0     H83371   2.551  11.613   3.170 -0.2607 -0.0033  3.4162
  618MOL0     H83372   2.517  11.480   3.051  1.6314  0.6346  0.1048
  618MOL0     H83373   2.307  11.440   3.155 -2.0960  0.4724  0.5010
  618MOL0     H83374   2.307  11.606   3.220  1.6895 -0.4405  1.1163
  618MOL0     H83375   2.329  11.712   3.012 -2.3331  1.5492 -0.4051
  618MOL0     H83376   2.334  11.552   2.917  0.1809 -1.7492  1.6593
  618MOL0     H83377   2.117  11.709   3.020  1.2227  2.4114 -2.9827
  618MOL0     H83378   2.149  11.608   2.875  1.7483 -0.5310  0.4701
  618MOL0     H83379   2.043  11.545   3.154  2.6086  2.9148  1.2383
  618MOL0     H83380   2.131  11.415   3.044 -1.5144 -0.6528 -5.0728
  618MOL0     H83381   2.038  11.327   2.826 -1.1392  0.8607 -2.6044
  618MOL0     H83382   1.777  11.184   2.761  3.2698 -0.5283  1.0369
  618MOL0     H83383   1.678  11.325   2.697 -0.1926  0.9707  0.7607
  618MOL0     H83384   1.806  11.240   2.497  0.1470 -2.8606  1.1645
  618MOL0     H83385   1.942  11.222   2.594 -0.4205 -0.0652 -0.9482
  618MOL0     H83386   1.935  11.427   2.436  1.3462  1.7844  0.7241
  618MOL0     H83387   1.961  11.464   2.607 -0.5420  1.2240  0.6070
  618MOL0     H83388   1.723  11.541   2.627  1.0979 -0.2228  1.5920
  618MOL0     H83389   1.698  11.466   2.457  1.7741 -2.5098  0.4665
  618MOL0     H83390   1.519  11.623   2.476  2.2946 -0.2853 -0.7221
  618MOL0     H83391   1.285  11.878   2.405  0.5485  1.3112 -2.0377
  618MOL0     H83392   1.283  11.745   2.293  3.0063 -0.0020 -1.1783
  618MOL0     H83393   1.306  11.710   2.470 -0.2853  0.2948  0.6918
  618MOL0     H83394   1.376  12.134   1.966  0.3268  3.6679  0.2954
  618MOL0     H83395   1.208  12.277   1.871 -3.7709  0.3480  0.8340
  618MOL0     H83396   0.949  12.529   2.067 -1.4693 -0.2201 -1.7729
  618MOL0     H83397   1.111  12.464   2.093  0.6537  0.8516 -1.5842
  618MOL0     H83398   1.172  12.511   1.873 -0.6558 -0.9477 -1.9388
  618MOL0     H83399   1.005  12.506   1.814 -0.0512 -0.2809 -0.5293
  618MOL0     H83400   1.100  12.734   1.992  0.9597 -1.6978 -1.0709
  618MOL0     H83401   0.950  12.732   1.897 -1.6774  0.5561 -1.0973
  618MOL0     H83402   1.228  12.703   1.769  0.4631  2.1029  1.8561
  618MOL0     H83403   1.063  12.701   1.695 -1.7236 -1.9099  1.8109
  618MOL0     H83404   1.045  12.939   1.782 -0.0374  0.1041 -0.9261
  618MOL0     H83405   1.196  12.920   1.679  1.4142  2.3903  1.5368
  618MOL0     H83406   1.247  13.061   1.856  2.4386  0.5212 -2.2018
  618MOL0     H83407   1.209  12.947   1.984  0.7516  0.2162  0.5065
  618MOL0     H83408   1.424  12.924   1.768 -0.7660  0.8573  0.3951
  618MOL0     H83409   1.400  12.786   1.879  0.2594  0.1031  0.3063
  618MOL0     H83410   1.519  13.046   1.940 -2.5332  1.8264  1.0289
  618MOL0     H83411   1.568  12.875   1.998 -0.7350  0.4314  1.4216
  618MOL0     H83412   0.964  12.189   2.223  0.0465  0.0050 -0.5098
  618MOL0     H83413   1.116  12.062   2.316 -2.4474 -0.8278 -0.4250
  618MOL0     H83414   1.716  12.034   2.280  2.8107  0.7624  3.5551
  618MOL0     H83415   1.860  11.880   2.379  0.7408 -0.8412 -0.5568
  618MOL0     H83416   3.016  11.349   3.559 -0.3754 -0.9636 -1.0757
  618MOL0     H83417   3.097  11.198   3.749  1.6475 -1.5266 -1.4491
  618MOL0     H83418   3.221  10.857   3.932 -1.5838  0.0923 -2.7024
  618MOL0     H83419   3.306  10.695   4.080  0.8256 -0.6482 -0.6765
  618MOL0     H83420   3.091  10.285   4.180 -0.2106 -0.8902 -0.9893
  618MOL0     H83421   3.131  10.305   4.021 -2.1395  0.2276  1.5690
  618MOL0     H83422   3.320  10.302   4.267 -3.6803  5.1711 -1.0133
  618MOL0     H83423   3.387  10.248   4.108 -1.3587  0.2723 -2.0246
  618MOL0     H83424   3.211  10.071   4.279 -1.6566 -2.2405 -0.8349
  618MOL0     H83425   3.379  10.057   4.227 -0.0875  0.7559 -2.7215
  618MOL0     H83426   3.309  10.043   3.992 -0.7368  0.4922 -1.2779
  618MOL0     H83427   3.137  10.079   4.027 -0.6532 -3.4331 -0.6136
  618MOL0     H83428   3.156   9.674   4.127  0.5479 -0.7568  1.5278
  618MOL0     H83429   2.961  10.454   4.035 -1.5738  1.9251 -0.8167
  618MOL0     H83430   2.848  10.629   3.923  1.2402 -0.0896 -2.8210
  619MOL0     O83431   1.960   4.709   9.461  0.0507 -0.5257  0.0632
  619MOL0     C83432   1.924   4.747   9.575 -0.0409  0.1487 -0.1234
  619MOL0     O83433   1.818   4.694   9.648  0.1460 -0.2516 -0.7993
  619MOL0     C83434   1.723   4.599   9.610  0.2941 -0.0910  0.7355
  619MOL0     C83435   1.741   4.501   9.512 -0.5473 -0.4434  0.5605
  619MOL0     C83436   1.637   4.402   9.477 -0.3948 -0.1097  0.6846
  619MOL0     C83437   1.506   4.424   9.529  0.1430 -0.4411  0.1412
  619MOL0     O83438   1.387   4.364   9.485  0.4140  0.1746  0.0748
  619MOL0     C83439   1.396   4.222   9.456 -0.0865  0.2134  0.8238
  619MOL0     C83440   1.264   4.148   9.433 -0.8548 -0.1847  0.8233
  619MOL0     C83441   1.188   4.151   9.562 -0.2547  0.0849  0.3438
  619MOL0     C83442   1.048   4.109   9.530  0.4704 -2.0231 -0.1082
  619MOL0     C83443   0.959   4.123   9.654  0.0526 -0.7855  0.2264
  619MOL0     C83444   0.948   3.981   9.715 -0.2743  0.4006  0.9606
  619MOL0     C83445   0.899   3.991   9.854  0.1451 -0.0943  0.2610
  619MOL0     C83446   0.884   3.843   9.906 -0.6345  1.8360 -0.1559
  619MOL0     N83447   1.014   3.774   9.927  0.2019 -0.0956  0.2740
  619MOL0     C83448   1.107   3.825  10.015 -0.9159  0.7422  0.1805
  619MOL0     C83449   1.186   3.717  10.030  0.4893  0.9294 -0.5096
  619MOL0     C83450   1.290   3.718  10.137  0.8310 -0.6102  1.0646
  619MOL0     C83451   1.404   3.819  10.102 -0.0512  0.5374  0.2006
  619MOL0     C83452   1.529   3.793  10.199  0.2019 -0.0897  0.3291
  619MOL0     C83453   1.663   3.855  10.163  0.5847  0.4554 -1.0454
  619MOL0     O83454   1.649   4.001  10.185 -0.5414  0.0281  0.2878
  619MOL0     C83455   1.744   4.071  10.257  0.9034 -0.3902  0.1097
  619MOL0     C83456   1.705   4.180  10.325 -0.1501  0.6962  0.5502
  619MOL0     C83457   1.800   4.265  10.392  1.1492 -0.6609  0.4033
  619MOL0     C83458   1.726   4.394  10.451 -0.4537  0.1119  0.1730
  619MOL0     C83459   1.934   4.231  10.394  0.9522  0.9235 -0.9310
  619MOL0     C83460   2.031   4.326  10.462 -0.1010 -0.9375 -0.0821
  619MOL0     O83461   1.989   4.409  10.563 -0.1352  0.3472  0.1524
  619MOL0     C83462   2.069   4.506  10.617 -0.0752  0.3451  0.8848
  619MOL0     C83463   2.017   4.626  10.629 -0.1245 -1.2120  0.1465
  619MOL0     C83464   2.090   4.723  10.702  0.1129 -0.0434 -0.4039
  619MOL0     C83465   2.205   4.693  10.782 -0.1473  0.5662  0.0505
  619MOL0     O83466   2.268   4.805  10.847 -0.7403  0.0145  0.1312
  619MOL0     C83467   2.373   4.772  10.942 -0.5947 -0.8899 -0.6314
  619MOL0     C83468   2.437   4.910  10.996  0.5777 -0.5897 -0.3690
  619MOL0     C83469   2.522   4.891  11.122 -0.1657  0.7417 -0.0934
  619MOL0     C83470   2.454   4.889  11.241  0.2367 -0.5608 -0.0641
  619MOL0     C83471   2.544   4.827  11.359  0.2557  0.4386  0.2835
  619MOL0     C83472   2.628   4.924  11.439 -0.3625  0.3988  0.6512
  619MOL0     C83473   2.741   4.868  11.519  0.0564  0.6798 -0.0957
  619MOL0     C83474   2.702   4.755  11.613 -0.0006 -0.4324  0.0700
  619MOL0    Cl83475   2.854   4.690  11.689  0.2113  0.3382 -0.1055
  619MOL0     C83476   2.249   4.560  10.777 -0.4364 -1.3948  0.0962
  619MOL0     C83477   2.184   4.471  10.694 -0.7363  0.1809 -0.8376
  619MOL0     O83478   2.141   4.327  10.410  0.4101 -0.7539 -0.1034
  619MOL0     C83479   1.976   4.111  10.319 -0.9217  1.4872  1.3559
  619MOL0     C83480   1.881   4.036  10.258  0.4176 -0.2782 -0.2867
  619MOL0     N83481   1.160   3.611   9.941 -0.1047 -0.5791  0.0470
  619MOL0     N83482   1.054   3.649   9.879 -0.1668 -0.0922  0.7072
  619MOL0     C83483   1.484   4.531   9.614 -0.5658 -0.1771  0.1624
  619MOL0     C83484   1.593   4.612   9.655 -0.4162  0.9663  0.3593
  619MOL0     C83485   2.003   4.851   9.647  0.1685  0.8396 -1.0462
  619MOL0     C83486   2.114   4.911   9.596 -0.4447 -0.1112  0.6650
  619MOL0     C83487   2.176   5.009   9.671 -0.3745 -0.3785 -0.2986
  619MOL0     C83488   2.129   5.054   9.797 -0.1365 -0.6200 -0.4731
  619MOL0     O83489   2.209   5.153   9.864  0.0482 -0.2478 -0.2049
  619MOL0     C83490   2.225   5.127  10.002  0.2261 -0.3526  0.7451
  619MOL0     C83491   2.219   5.269  10.063  0.2912 -0.2065  0.2421
  619MOL0     C83492   2.184   5.260  10.215 -0.2597  0.8737 -0.3709
  619MOL0     C83493   2.064   5.348  10.258 -0.3381 -0.2345  0.2240
  619MOL0     C83494   1.991   5.288  10.377  0.2793  0.0712 -0.8801
  619MOL0     C83495   1.949   5.246  10.484 -0.7307 -0.5195  0.8202
  619MOL0     C83496   2.015   4.995   9.841  0.6533 -0.3611 -0.9172
  619MOL0     C83497   1.953   4.890   9.769  0.1050  0.2158 -0.2436
  619MOL0     H83498   1.834   4.491   9.458 -0.9781 -0.1900 -0.2500
  619MOL0     H83499   1.657   4.321   9.408 -1.2200  0.2195  0.0361
  619MOL0     H83500   1.459   4.200   9.370 -0.1198  1.5803  0.4163
  619MOL0     H83501   1.454   4.184   9.540  2.3549  0.2772 -0.7250
  619MOL0     H83502   1.208   4.184   9.347 -0.0281  1.1088  0.7864
  619MOL0     H83503   1.310   4.050   9.420 -1.2881 -0.9532  4.1999
  619MOL0     H83504   1.245   4.082   9.625 -0.3570 -0.3656 -0.0564
  619MOL0     H83505   1.186   4.256   9.591 -5.0846  1.0860 -2.4435
  619MOL0     H83506   0.997   4.179   9.463  3.8369  0.3219 -0.4603
  619MOL0     H83507   1.047   4.011   9.480  0.8222 -1.6841 -0.7967
  619MOL0     H83508   0.981   4.200   9.729 -1.2285 -1.4231  1.3005
  619MOL0     H83509   0.859   4.144   9.616  0.4063  1.7260  0.5010
  619MOL0     H83510   0.885   3.923   9.647  1.7063  2.7165 -3.2687
  619MOL0     H83511   1.044   3.928   9.712  0.6031  1.7676 -3.7065
  619MOL0     H83512   0.966   4.053   9.914  2.2322  1.0679 -3.0254
  619MOL0     H83513   0.800   4.037   9.859  0.4514  0.5558  4.8950
  619MOL0     H83514   0.826   3.789   9.830  0.4426 -1.2683  1.0855
  619MOL0     H83515   0.814   3.839   9.990  1.1984 -0.5721  1.3712
  619MOL0     H83516   1.118   3.920  10.067  0.8522  0.5159  0.3015
  619MOL0     H83517   1.232   3.747  10.225  0.8191 -2.2949  1.6436
  619MOL0     H83518   1.323   3.616  10.157  1.8134 -2.1254 -5.7013
  619MOL0     H83519   1.372   3.922  10.120 -0.0517  0.4980  0.4278
  619MOL0     H83520   1.424   3.805   9.996  0.7940 -2.2860  0.6333
  619MOL0     H83521   1.545   3.685  10.207 -1.2817 -0.3236  0.3656
  619MOL0     H83522   1.500   3.827  10.299  0.8900 -4.4326  2.2057
  619MOL0     H83523   1.697   3.834  10.061  4.4451  0.1035  0.1285
  619MOL0     H83524   1.733   3.822  10.240  0.9137  2.4142 -0.4341
  619MOL0     H83525   1.603   4.216  10.322  0.7730  3.7473  1.6473
  619MOL0     H83526   1.774   4.485  10.415 -3.0490 -0.1300 -4.7363
  619MOL0     H83527   1.625   4.403  10.410 -0.7464 -1.6010  0.4018
  619MOL0     H83528   1.717   4.380  10.560 -3.0364  1.6593  0.2415
  619MOL0     H83529   1.923   4.649  10.580  0.5139  1.6524  0.1101
  619MOL0     H83530   2.042   4.821  10.705 -0.1397 -0.1880  1.4472
  619MOL0     H83531   2.330   4.717  11.026  0.9039  2.6402  2.7537
  619MOL0     H83532   2.460   4.716  10.908  4.0778  4.6923  0.5465
  619MOL0     H83533   2.494   4.961  10.919  1.0004 -1.2266 -0.4908
  619MOL0     H83534   2.352   4.976  11.014  1.6175  1.3054 -2.0672
  619MOL0     H83535   2.601   4.965  11.133  3.0545 -2.5072  0.6278
  619MOL0     H83536   2.570   4.797  11.095 -0.7282  0.9924 -2.1042
  619MOL0     H83537   2.416   4.989  11.265  0.1602 -1.2420  3.2399
  619MOL0     H83538   2.365   4.825  11.232 -1.5049  2.0233 -3.4235
  619MOL0     H83539   2.601   4.751  11.305 -1.6682 -1.7918  1.2148
  619MOL0     H83540   2.477   4.775  11.428 -2.1054 -0.3778 -2.4333
  619MOL0     H83541   2.692   4.972  11.365  3.6180 -0.5769  3.1537
  619MOL0     H83542   2.567   4.995  11.495 -0.5467  0.8542 -0.1089
  619MOL0     H83543   2.784   4.957  11.566  0.5255  0.8019 -0.7421
  619MOL0     H83544   2.823   4.844  11.451  3.4686  1.9260  3.2420
  619MOL0     H83545   2.644   4.678  11.561 -1.7797  1.6986 -1.2825
  619MOL0     H83546   2.635   4.789  11.692  1.3139  1.5459  0.4042
  619MOL0     H83547   2.338   4.523  10.827  1.3117  0.3178 -1.5826
  619MOL0     H83548   2.223   4.371  10.710 -3.4811 -0.6738  1.0413
  619MOL0     H83549   2.079   4.083  10.303 -1.3130  1.4040 -1.5397
  619MOL0     H83550   1.905   3.951  10.194 -0.0817 -1.8449  1.5128
  619MOL0     H83551   1.385   4.565   9.642  0.1394  3.0022 -0.7658
  619MOL0     H83552   1.565   4.700   9.712  1.4218  0.9512  1.3459
  619MOL0     H83553   2.139   4.893   9.492  1.1833  3.4248  0.3109
  619MOL0     H83554   2.264   5.053   9.626  0.4244 -2.1848 -0.5746
  619MOL0     H83555   2.141   5.066  10.036  2.2233 -1.5896  3.8341
  619MOL0     H83556   2.317   5.075  10.029 -0.8901 -1.8251  1.8658
  619MOL0     H83557   2.146   5.330  10.009  2.3019  0.7662 -1.5054
  619MOL0     H83558   2.313   5.324  10.054  1.5023 -2.1451  0.4860
  619MOL0     H83559   2.270   5.289  10.276 -0.9038  1.1516  0.4227
  619MOL0     H83560   2.156   5.156  10.231 -0.0002  0.2447 -3.4135
  619MOL0     H83561   1.987   5.355  10.180  3.4251  0.1902 -3.8119
  619MOL0     H83562   2.097   5.449  10.285 -0.7404  0.0482 -0.3134
  619MOL0     H83563   1.933   5.226  10.588  3.2044 -1.7789  1.3098
  619MOL0     H83564   1.968   5.028   9.933  0.4212  0.2864 -1.2548
  619MOL0     H83565   1.882   4.830   9.824  1.0421 -0.1980  0.5339
  620MOL0     O83566   3.574   9.182   9.171 -0.2109  0.2623  0.5510
  620MOL0     C83567   3.514   9.130   9.269 -0.7642  0.2273 -0.3129
  620MOL0     O83568   3.568   9.036   9.354 -0.1852  0.0462  0.3565
  620MOL0     C83569   3.669   8.967   9.291 -1.3701 -0.0011  0.4786
  620MOL0     C83570   3.652   8.851   9.212 -0.1284 -0.2548  0.3252
  620MOL0     C83571   3.767   8.786   9.151 -0.3606  1.0747 -0.8299
  620MOL0     C83572   3.898   8.830   9.174  0.1270  0.4977  0.7525
  620MOL0     O83573   3.999   8.760   9.113  0.3787  0.7203  0.2273
  620MOL0     C83574   4.129   8.754   9.167 -0.2140  0.1954 -1.1540
  620MOL0     C83575   4.138   8.658   9.295 -0.2068 -1.0464  0.7820
  620MOL0     C83576   4.288   8.662   9.340  0.2693  0.3189 -0.2062
  620MOL0     C83577   4.336   8.571   9.448 -0.0901 -0.3336  0.3377
  620MOL0     C83578   4.488   8.602   9.491  0.9581  0.0016  0.2888
  620MOL0     C83579   4.598   8.492   9.461  0.5803 -0.2792  0.2823
  620MOL0     C83580   4.752   8.531   9.480  0.1026  0.5414 -0.3792
  620MOL0     C83581   4.785   8.558   9.631 -0.5807  0.4344  0.3800
  620MOL0     N83582   4.794   8.441   9.726  0.1190 -0.0313  0.6385
  620MOL0     C83583   4.708   8.417   9.827  0.4921 -0.0446  0.2279
  620MOL0     C83584   4.763   8.310   9.895 -0.0811  0.0323 -0.6043
  620MOL0     C83585   4.675   8.223   9.982 -0.6120 -0.3725 -0.2975
  620MOL0     C83586   4.664   8.271  10.124  0.2861 -0.1050 -0.2042
  620MOL0     C83587   4.795   8.283  10.202  0.8241  0.4715  0.1602
  620MOL0     C83588   4.867   8.141  10.217  0.6918 -0.7137  0.1911
  620MOL0     O83589   4.778   8.033  10.249 -0.2808 -0.3012  0.1199
  620MOL0     C83590   4.785   7.998  10.382  0.3385  0.0274 -0.0931
  620MOL0     C83591   4.721   8.070  10.481 -0.2196  0.0217  0.6076
  620MOL0     C83592   4.723   8.028  10.615 -0.5085  0.3234  0.1760
  620MOL0     C83593   4.633   8.118  10.712  0.2112  0.9819 -0.4475
  620MOL0     C83594   4.799   7.917  10.646  0.0294  0.4483 -0.2736
  620MOL0     C83595   4.823   7.879  10.788 -0.4431 -0.3263 -0.3849
  620MOL0     O83596   4.801   7.958  10.901  0.2470 -0.4133 -0.2301
  620MOL0     C83597   4.783   7.896  11.015  0.9711 -0.3572  0.0399
  620MOL0     C83598   4.882   7.873  11.114 -0.7818  0.4246  0.4038
  620MOL0     C83599   4.863   7.805  11.232 -0.5980  0.7587  1.4788
  620MOL0     C83600   4.735   7.752  11.257  0.3536 -0.2044 -0.3633
  620MOL0     O83601   4.700   7.688  11.378  1.0040 -0.4021  0.3360
  620MOL0     C83602   4.794   7.674  11.486 -0.6967 -0.2062  0.5957
  620MOL0     C83603   4.722   7.598  11.601  0.3726 -0.8672 -0.5891
  620MOL0     C83604   4.586   7.667  11.651 -0.0168  0.6084 -0.1956
  620MOL0     C83605   4.531   7.554  11.745 -0.2810  0.0050  0.0269
  620MOL0     C83606   4.391   7.593  11.800  0.2838 -0.6685 -0.0164
  620MOL0     C83607   4.319   7.473  11.865 -0.2022 -0.3943  0.0681
  620MOL0     C83608   4.212   7.497  11.966  0.1353 -0.2811  0.5791
  620MOL0     C83609   4.257   7.585  12.086 -0.7407 -0.0580 -0.0819
  620MOL0    Cl83610   4.404   7.527  12.161 -0.0969 -0.2972 -0.0299
  620MOL0     C83611   4.633   7.779  11.162 -0.3108  0.3611 -0.5551
  620MOL0     C83612   4.655   7.847  11.044 -1.1550  0.3649 -0.2235
  620MOL0     O83613   4.869   7.765  10.792  1.3451  0.5935 -0.9165
  620MOL0     C83614   4.854   7.838  10.543  0.4523  0.0139 -0.5512
  620MOL0     C83615   4.837   7.872  10.417 -0.0178 -1.1456  1.2109
  620MOL0     N83616   4.890   8.293   9.842  0.3773  0.7701 -0.7578
  620MOL0     N83617   4.908   8.375   9.742 -0.7916 -0.4658 -1.1946
  620MOL0     C83618   3.909   8.945   9.255  1.0610 -1.0413  0.0663
  620MOL0     C83619   3.799   9.012   9.309  0.5504  0.3530 -0.2162
  620MOL0     C83620   3.379   9.188   9.307 -0.2154  0.0865  0.0874
  620MOL0     C83621   3.314   9.149   9.429  0.1080  0.4479 -0.2815
  620MOL0     C83622   3.191   9.217   9.467  0.0613  2.0053  0.0259
  620MOL0     C83623   3.130   9.312   9.391 -1.0168 -0.6450 -0.5760
  620MOL0     O83624   3.016   9.364   9.447  0.5528  0.0807 -0.8965
  620MOL0     C83625   2.983   9.494   9.406  0.2044 -0.5667 -0.2198
  620MOL0     C83626   2.867   9.554   9.492 -0.3275  0.9424 -0.2130
  620MOL0     C83627   2.888   9.527   9.646 -0.3565  0.2528 -0.2117
  620MOL0     C83628   3.003   9.604   9.709 -0.7110 -0.5280 -0.1052
  620MOL0     C83629   2.957   9.736   9.751  0.9520 -0.8707  0.4737
  620MOL0     C83630   2.896   9.835   9.793  0.1106  0.1148 -0.6099
  620MOL0     C83631   3.197   9.352   9.270  0.1017  0.0244 -1.1353
  620MOL0     C83632   3.321   9.293   9.229  0.3875  0.8795  0.6052
  620MOL0     H83633   3.555   8.804   9.210 -0.5437  0.4070  2.4237
  620MOL0     H83634   3.770   8.697   9.090 -0.3797 -2.0193  3.2447
  620MOL0     H83635   4.200   8.714   9.093 -1.0439 -0.1296 -1.7914
  620MOL0     H83636   4.150   8.858   9.195 -3.9451  0.5435  1.0403
  620MOL0     H83637   4.069   8.704   9.366 -1.2681  0.6785 -1.2174
  620MOL0     H83638   4.102   8.556   9.280  2.1539 -1.8300  0.0132
  620MOL0     H83639   4.355   8.654   9.254  0.5529  0.3786  0.0058
  620MOL0     H83640   4.296   8.764   9.379  0.6381  0.4932 -0.7294
  620MOL0     H83641   4.272   8.563   9.536  0.0469 -1.4201  0.3531
  620MOL0     H83642   4.339   8.470   9.407  0.0537 -0.0628 -0.3403
  620MOL0     H83643   4.519   8.689   9.432 -3.6951 -0.8550 -4.0732
  620MOL0     H83644   4.477   8.632   9.596 -4.4318 -0.8452  0.2440
  620MOL0     H83645   4.576   8.399   9.514 -0.8509 -0.7730 -1.1054
  620MOL0     H83646   4.589   8.463   9.356 -2.1762  0.0485  0.3496
  620MOL0     H83647   4.801   8.441   9.443 -0.1372 -0.1289  0.8687
  620MOL0     H83648   4.782   8.617   9.419 -3.9783  2.0134 -0.6000
  620MOL0     H83649   4.709   8.628   9.667  0.3917  1.9960 -0.5117
  620MOL0     H83650   4.877   8.616   9.642 -0.1461  0.0307 -0.9228
  620MOL0     H83651   4.609   8.463   9.826  1.0216  1.1089 -0.2439
  620MOL0     H83652   4.574   8.235   9.940 -1.4501  1.5812  2.0243
  620MOL0     H83653   4.708   8.119   9.986 -1.3305 -0.5721  1.8371
  620MOL0     H83654   4.595   8.207  10.180 -0.5113  3.0578  2.7508
  620MOL0     H83655   4.614   8.368  10.125  0.6960  0.1230 -1.0694
  620MOL0     H83656   4.762   8.324  10.298  3.3374  2.7660  0.1560
  620MOL0     H83657   4.866   8.352  10.158 -0.7199  0.9879 -1.6648
  620MOL0     H83658   4.948   8.149  10.290  0.9888 -3.0001  0.1752
  620MOL0     H83659   4.915   8.116  10.122 -0.9836 -2.4305 -0.2767
  620MOL0     H83660   4.669   8.162  10.457  0.9509  0.7379  0.7631
  620MOL0     H83661   4.557   8.175  10.658 -0.6118  0.7635  0.4438
  620MOL0     H83662   4.580   8.063  10.791 -0.0456  1.4678 -0.2792
  620MOL0     H83663   4.709   8.179  10.762  2.4924 -1.9244 -0.0094
  620MOL0     H83664   4.985   7.903  11.098 -1.0337  0.4004 -1.4367
  620MOL0     H83665   4.954   7.798  11.291  1.1046 -3.4492 -1.1868
  620MOL0     H83666   4.874   7.610  11.448 -0.9371  0.6164 -1.4213
  620MOL0     H83667   4.834   7.770  11.518 -0.4752 -0.3689  0.8103
  620MOL0     H83668   4.704   7.500  11.556  1.6240 -2.1849  1.5915
  620MOL0     H83669   4.795   7.580  11.681  2.4830 -0.0977 -2.2387
  620MOL0     H83670   4.519   7.690  11.568  1.8035  1.7439 -1.4154
  620MOL0     H83671   4.608   7.761  11.703  1.9249 -0.3149  0.7908
  620MOL0     H83672   4.506   7.469  11.681  0.0853 -0.7933  0.9211
  620MOL0     H83673   4.599   7.504  11.815 -2.4205 -0.5904  1.7823
  620MOL0     H83674   4.326   7.647  11.731 -1.2521 -0.8493  1.2252
  620MOL0     H83675   4.401   7.670  11.878  0.5541 -0.8059  0.0883
  620MOL0     H83676   4.278   7.411  11.785 -2.9956  1.2986  0.0394
  620MOL0     H83677   4.403   7.421  11.912  0.0779 -0.0228 -0.0134
  620MOL0     H83678   4.195   7.395  12.003  1.8066 -0.5966  0.5437
  620MOL0     H83679   4.120   7.535  11.921 -0.4490 -0.1151  1.8617
  620MOL0     H83680   4.171   7.577  12.153 -2.3557  0.7615 -1.9726
  620MOL0     H83681   4.274   7.688  12.054  0.9337 -0.3238 -0.1679
  620MOL0     H83682   4.533   7.738  11.177 -0.6382  1.6409  1.0139
  620MOL0     H83683   4.567   7.862  10.982 -2.2395 -1.8865  0.6453
  620MOL0     H83684   4.908   7.746  10.561 -0.4224 -1.0624 -2.9093
  620MOL0     H83685   4.859   7.797  10.341  1.0837 -2.3312  2.6432
  620MOL0     H83686   4.009   8.989   9.260  1.6611 -2.4188  0.6435
  620MOL0     H83687   3.808   9.094   9.379 -0.4265 -0.8785  1.4421
  620MOL0     H83688   3.358   9.069   9.488  1.8842  2.2435  0.9457
  620MOL0     H83689   3.139   9.163   9.546 -0.9451  0.3060 -1.7115
  620MOL0     H83690   3.071   9.552   9.434 -1.3466  1.6347  0.3065
  620MOL0     H83691   2.956   9.488   9.300  0.5254 -2.2220 -0.2414
  620MOL0     H83692   2.772   9.508   9.462  1.5481 -1.8625 -2.4134
  620MOL0     H83693   2.868   9.663   9.482 -1.2655  0.9055 -0.8129
  620MOL0     H83694   2.914   9.421   9.657 -0.6579  0.0535 -1.2866
  620MOL0     H83695   2.796   9.543   9.702 -0.9417  2.3124 -1.6299
  620MOL0     H83696   3.075   9.628   9.631 -0.3219 -3.0966 -0.6195
  620MOL0     H83697   3.057   9.549   9.787 -1.1841 -1.8576 -0.6912
  620MOL0     H83698   2.851   9.923   9.836  0.6285  0.2964 -0.4345
  620MOL0     H83699   3.158   9.435   9.212 -0.8573  1.9239  1.9469
  620MOL0     H83700   3.360   9.332   9.135 -2.1568  0.0708 -0.8705
  621MOL0     O83701   3.640   2.056   1.387  0.5128 -0.1811 -0.6366
  621MOL0     C83702   3.750   2.074   1.416 -0.4886  0.5180 -0.4896
  621MOL0     O83703   3.790   2.144   1.526  0.2045 -0.2519  0.7076
  621MOL0     C83704   3.693   2.216   1.597  0.5410  0.4697  0.3586
  621MOL0     C83705   3.592   2.155   1.673 -0.0813 -0.1066 -0.2526
  621MOL0     C83706   3.516   2.237   1.754 -0.0522  1.1785  0.9961
  621MOL0     C83707   3.521   2.375   1.747 -0.7850 -0.7584 -0.3296
  621MOL0     O83708   3.444   2.458   1.830  0.4354 -0.3433 -0.3724
  621MOL0     C83709   3.494   2.502   1.955 -0.1005 -0.4569  0.9386
  621MOL0     C83710   3.372   2.559   2.027 -0.5594  0.5994  0.7799
  621MOL0     C83711   3.344   2.685   1.953  0.2486 -0.1788  0.1383
  621MOL0     C83712   3.237   2.772   2.015  0.5171 -0.8479 -0.0387
  621MOL0     C83713   3.220   2.907   1.936 -0.2679 -0.7090  0.4400
  621MOL0     C83714   3.076   2.964   1.945 -0.1582  0.1197 -0.4412
  621MOL0     C83715   3.076   3.072   2.053  0.5238 -0.0331 -0.5635
  621MOL0     C83716   2.957   3.171   2.048 -1.0931 -0.0693 -0.1405
  621MOL0     N83717   2.978   3.280   2.138 -0.9884 -0.1294 -0.0076
  621MOL0     C83718   2.886   3.387   2.148 -0.6515  0.3227 -0.1271
  621MOL0     C83719   2.920   3.445   2.269  0.1331  1.2163  0.5307
  621MOL0     C83720   2.831   3.550   2.328  0.2603 -0.6657  0.6703
  621MOL0     C83721   2.915   3.652   2.401  0.4984  0.4072  0.4338
  621MOL0     C83722   2.849   3.779   2.455  0.0171 -0.0633  0.3286
  621MOL0     C83723   2.954   3.874   2.522 -0.0676  0.4894 -0.2399
  621MOL0     O83724   2.891   4.006   2.519 -0.3076  0.2060 -0.2107
  621MOL0     C83725   2.894   4.078   2.633 -0.2478  0.5775 -0.2952
  621MOL0     C83726   2.778   4.147   2.678  0.1950  0.0838  0.2670
  621MOL0     C83727   2.780   4.202   2.810 -0.1805  0.1556 -0.7133
  621MOL0     C83728   2.646   4.263   2.861 -0.2177  0.9617  0.7691
  621MOL0     C83729   2.892   4.194   2.890 -0.2046 -0.1646  0.3954
  621MOL0     C83730   2.897   4.248   3.027 -0.6777 -0.0681 -0.6287
  621MOL0     O83731   2.787   4.242   3.106 -0.3390 -0.2329  0.6101
  621MOL0     C83732   2.802   4.309   3.225  0.7663 -0.1103  0.7627
  621MOL0     C83733   2.733   4.426   3.244 -0.1727  0.2887 -0.1441
  621MOL0     C83734   2.734   4.490   3.370 -0.3304 -0.4814  0.2873
  621MOL0     C83735   2.801   4.426   3.476 -0.1514 -0.5782  0.2002
  621MOL0     O83736   2.785   4.499   3.586  0.0363 -1.0202 -0.7518
  621MOL0     C83737   2.875   4.469   3.691  0.8912  0.0669  0.5038
  621MOL0     C83738   2.847   4.576   3.795 -0.9395 -0.1203  0.6161
  621MOL0     C83739   2.960   4.587   3.897  0.1875  0.4879 -0.1492
  621MOL0     C83740   3.081   4.679   3.862 -1.0886  0.0847  0.5595
  621MOL0     C83741   3.177   4.661   3.973 -0.1251 -0.2579  0.0135
  621MOL0     C83742   3.167   4.757   4.099 -0.1545  0.8849 -0.3948
  621MOL0     C83743   3.297   4.760   4.174  0.0647 -0.6930  1.1632
  621MOL0     C83744   3.279   4.764   4.323  0.6044 -0.5553 -0.2384
  621MOL0    Cl83745   3.171   4.899   4.367  0.0373 -0.0758 -0.6652
  621MOL0     C83746   2.872   4.306   3.449  0.2327  0.0712 -0.4213
  621MOL0     C83747   2.867   4.244   3.327 -0.6278 -0.2498 -0.5311
  621MOL0     O83748   3.004   4.293   3.063 -0.7369 -0.9012 -0.2748
  621MOL0     C83749   3.007   4.122   2.839 -0.1671  0.1714 -0.0376
  621MOL0     C83750   3.009   4.072   2.709  0.5562  0.2341 -0.4256
  621MOL0     N83751   3.016   3.364   2.334  0.3747  0.0274  0.0990
  621MOL0     N83752   3.052   3.269   2.256  0.4505  0.2570 -0.5047
  621MOL0     C83753   3.614   2.440   1.659 -0.3975  0.2235  0.8942
  621MOL0     C83754   3.708   2.354   1.592 -0.6761 -0.9096 -0.6797
  621MOL0     C83755   3.855   2.009   1.328 -0.5870 -0.3725  0.6024
  621MOL0     C83756   3.991   1.982   1.378  1.4678  0.2584 -0.8670
  621MOL0     C83757   4.087   1.940   1.282  0.1698 -0.0551 -0.3803
  621MOL0     C83758   4.056   1.908   1.147  1.0019 -0.1158  0.3811
  621MOL0     O83759   4.142   1.855   1.054 -0.1103 -0.5726  0.2149
  621MOL0     C83760   4.242   1.949   1.006  0.7546 -0.2601  0.1135
  621MOL0     C83761   4.383   1.886   0.998  1.6257 -0.4456  0.1074
  621MOL0     C83762   4.500   1.995   1.004  0.2852 -0.0786 -0.3784
  621MOL0     C83763   4.638   1.928   1.004 -0.2345 -0.2305  0.4343
  621MOL0     C83764   4.667   1.863   1.127 -0.3695 -1.2806  0.1857
  621MOL0     C83765   4.695   1.801   1.229 -0.7327  0.0753 -0.1803
  621MOL0     C83766   3.922   1.930   1.111  0.1141  0.7034 -1.0111
  621MOL0     C83767   3.823   1.981   1.200 -0.5943  0.1895 -0.2812
  621MOL0     H83768   3.573   2.049   1.689  0.7229 -0.1757  0.3152
  621MOL0     H83769   3.437   2.201   1.819 -1.2818  1.8422 -0.0805
  621MOL0     H83770   3.533   2.422   2.019  1.9813  0.2950  0.6666
  621MOL0     H83771   3.578   2.568   1.934  0.0003 -0.9285 -0.2280
  621MOL0     H83772   3.293   2.487   2.007  0.6764 -0.8133  0.8202
  621MOL0     H83773   3.405   2.566   2.131  0.9199 -0.3958  0.4048
  621MOL0     H83774   3.431   2.751   1.962 -0.5402  1.0188 -0.6580
  621MOL0     H83775   3.314   2.661   1.851 -3.0875 -1.3769  1.2397
  621MOL0     H83776   3.138   2.727   2.020  0.3335 -0.3040  3.0298
  621MOL0     H83777   3.256   2.782   2.122 -0.7843  0.9779  0.0818
  621MOL0     H83778   3.292   2.989   1.952 -1.5862  1.1222 -2.2894
  621MOL0     H83779   3.241   2.888   1.831 -0.3153  2.3945 -0.2233
  621MOL0     H83780   3.053   3.011   1.849  0.4337  4.3148  1.2705
  621MOL0     H83781   3.000   2.893   1.977 -0.2021  1.8017  3.7652
  621MOL0     H83782   3.083   3.024   2.151 -1.5310 -0.4490 -0.5740
  621MOL0     H83783   3.164   3.134   2.038  0.7572  0.0957  1.1577
  621MOL0     H83784   2.859   3.123   2.064 -1.4962  1.1160  1.1478
  621MOL0     H83785   2.944   3.198   1.943 -1.8287 -1.9672 -0.5749
  621MOL0     H83786   2.814   3.414   2.071  0.7366 -2.0476 -2.3931
  621MOL0     H83787   2.774   3.596   2.247  0.1730 -0.2956  0.9366
  621MOL0     H83788   2.778   3.509   2.415  1.1453 -1.2516  0.9497
  621MOL0     H83789   2.978   3.696   2.323  1.6964  0.3786  1.3591
  621MOL0     H83790   2.972   3.600   2.478  0.9217  1.4496  0.8570
  621MOL0     H83791   2.774   3.748   2.527 -1.1211 -0.8210 -1.1201
  621MOL0     H83792   2.788   3.826   2.376 -2.9237 -1.4460  1.6178
  621MOL0     H83793   3.047   3.879   2.465 -0.2521 -1.5110 -0.7890
  621MOL0     H83794   2.985   3.835   2.620  0.3694  0.0283 -0.5594
  621MOL0     H83795   2.690   4.160   2.617 -0.4064  1.9104  1.4238
  621MOL0     H83796   2.572   4.284   2.783  0.7504 -3.0163 -1.5202
  621MOL0     H83797   2.590   4.182   2.908  1.3954 -2.0804 -2.0990
  621MOL0     H83798   2.653   4.354   2.922 -0.1416  2.1676 -0.9499
  621MOL0     H83799   2.675   4.449   3.155 -2.1430  0.4018  1.1079
  621MOL0     H83800   2.693   4.589   3.389 -0.9830 -0.6599 -0.1434
  621MOL0     H83801   2.853   4.373   3.739  1.8735 -0.2908  0.2649
  621MOL0     H83802   2.979   4.463   3.659  0.2372 -0.4791 -1.7419
  621MOL0     H83803   2.825   4.671   3.746 -0.3569 -0.2168  0.1491
  621MOL0     H83804   2.756   4.550   3.850 -1.6601  0.8083 -0.1086
  621MOL0     H83805   2.983   4.484   3.924  2.4085  0.9165 -0.1926
  621MOL0     H83806   2.906   4.630   3.982  0.3601  0.4718 -0.0303
  621MOL0     H83807   3.131   4.629   3.779  0.6353  0.3012  1.4251
  621MOL0     H83808   3.048   4.782   3.845 -0.4588  0.3611  0.9993
  621MOL0     H83809   3.278   4.658   3.930 -0.3728 -0.5215 -0.5601
  621MOL0     H83810   3.172   4.556   4.000  2.0430 -0.0257  1.5854
  621MOL0     H83811   3.125   4.854   4.071 -0.6051  0.0261 -2.9428
  621MOL0     H83812   3.089   4.706   4.157 -2.4256  1.3590 -2.8479
  621MOL0     H83813   3.344   4.854   4.144  1.1792 -2.2723 -2.7144
  621MOL0     H83814   3.357   4.675   4.142  1.1034  0.5594 -0.3676
  621MOL0     H83815   3.373   4.782   4.376 -1.2992  0.3268  3.0732
  621MOL0     H83816   3.239   4.672   4.365  0.0551  0.4210  1.4787
  621MOL0     H83817   2.925   4.248   3.524  1.1040  1.1671 -0.1672
  621MOL0     H83818   2.901   4.143   3.309 -0.2326 -0.0644 -0.8446
  621MOL0     H83819   3.094   4.100   2.901 -1.2410  2.1453  2.3157
  621MOL0     H83820   3.098   4.025   2.668 -0.6001 -1.5915 -1.0030
  621MOL0     H83821   3.631   2.547   1.652 -0.4269  0.4064  3.0902
  621MOL0     H83822   3.787   2.404   1.537 -1.2083 -1.8176 -2.3334
  621MOL0     H83823   4.019   1.984   1.483 -0.6184 -0.2433 -0.2519
  621MOL0     H83824   4.194   1.929   1.296  0.2829  1.0249 -0.3368
  621MOL0     H83825   4.220   2.006   0.915  1.6330 -5.4193 -3.7879
  621MOL0     H83826   4.250   2.030   1.080  2.9339  2.3977 -2.7343
  621MOL0     H83827   4.394   1.836   0.901 -2.0385 -1.1943 -0.0679
  621MOL0     H83828   4.394   1.798   1.063  2.8590 -1.0526 -0.8724
  621MOL0     H83829   4.478   2.053   1.094 -0.4825 -0.3928 -0.3606
  621MOL0     H83830   4.503   2.062   0.917  1.5610  2.6554  1.6065
  621MOL0     H83831   4.724   1.992   0.986  1.0853 -1.7465  1.1147
  621MOL0     H83832   4.645   1.850   0.928  0.9003  2.2173 -2.1638
  621MOL0     H83833   4.704   1.759   1.328 -3.4571 -0.9488 -0.2746
  621MOL0     H83834   3.881   1.908   1.013 -1.5415  0.4363 -0.2917
  621MOL0     H83835   3.729   2.010   1.153  0.9281  0.0482 -3.6648
  622MOL0     O83836   1.931   3.193   1.164 -0.6889  1.2469  0.4146
  622MOL0     C83837   2.022   3.193   1.086 -0.7012  1.3913  0.2138
  622MOL0     O83838   2.041   3.102   0.993  0.3387 -0.6167  1.4440
  622MOL0     C83839   1.973   2.981   0.984  0.4148  0.2240 -0.1960
  622MOL0     C83840   1.924   2.949   0.859 -0.3916  0.5866  0.6647
  622MOL0     C83841   1.860   2.833   0.846 -0.0835 -0.2253  0.4519
  622MOL0     C83842   1.836   2.745   0.949  0.1906 -0.7755  0.2249
  622MOL0     O83843   1.770   2.626   0.939 -0.1622  0.2014 -0.2626
  622MOL0     C83844   1.691   2.603   0.822  0.3026  1.0624  0.3106
  622MOL0     C83845   1.587   2.495   0.842  0.0937  0.1109  0.2527
  622MOL0     C83846   1.495   2.515   0.953  0.7066 -0.0505 -0.5927
  622MOL0     C83847   1.367   2.448   0.915  0.7605 -0.1176  0.4796
  622MOL0     C83848   1.276   2.436   1.036  0.4856  0.1403  0.5183
  622MOL0     C83849   1.163   2.325   1.028 -0.1897  1.1458  0.4960
  622MOL0     C83850   1.074   2.353   0.904 -0.2469 -0.4710 -0.5887
  622MOL0     C83851   0.985   2.480   0.915  0.4051  0.5797  0.8860
  622MOL0     N83852   0.873   2.474   1.000  0.3028 -0.3455  0.1501
  622MOL0     C83853   0.870   2.513   1.132 -0.3262  0.0387  0.2976
  622MOL0     C83854   0.742   2.494   1.168  0.3832  0.1544  0.4059
  622MOL0     C83855   0.670   2.513   1.298  0.5161  0.1412  0.0445
  622MOL0     C83856   0.751   2.476   1.423  0.0121 -0.0460 -0.7120
  622MOL0     C83857   0.671   2.504   1.546  0.5804  0.0431 -0.5741
  622MOL0     C83858   0.700   2.640   1.610  0.1633 -1.0732  0.0868
  622MOL0     O83859   0.626   2.633   1.730  0.3065 -0.2293  0.3903
  622MOL0     C83860   0.586   2.751   1.792 -0.3418  0.5018  0.6055
  622MOL0     C83861   0.661   2.868   1.790  0.1699 -0.3640  0.6888
  622MOL0     C83862   0.622   2.984   1.856 -1.1117  0.1812 -0.4097
  622MOL0     C83863   0.724   3.097   1.850 -0.1814  0.6236  0.4460
  622MOL0     C83864   0.509   2.988   1.933  0.8951 -0.2688 -0.4394
  622MOL0     C83865   0.463   3.106   2.013 -0.1046 -0.5899 -0.2122
  622MOL0     O83866   0.465   3.233   1.943  0.2601 -0.0869 -0.4341
  622MOL0     C83867   0.396   3.336   2.005  0.4975 -0.0139  0.3445
  622MOL0     C83868   0.255   3.323   2.002  0.1009  0.7254 -0.5377
  622MOL0     C83869   0.183   3.436   2.023 -0.1131 -0.1004 -0.6226
  622MOL0     C83870   0.235   3.564   2.073 -0.3797  0.3708 -0.3139
  622MOL0     O83871   0.150   3.666   2.085  0.2973  0.0917  0.7410
  622MOL0     C83872   0.187   3.789   2.139  0.3098  0.4975 -0.5066
  622MOL0     C83873   0.066   3.875   2.167  1.4928 -0.5342  0.9102
  622MOL0     C83874  -0.029   3.828   2.273  0.2153  0.0489 -0.0394
  622MOL0     C83875  -0.164   3.911   2.294 -0.5084  0.0322 -0.4543
  622MOL0     C83876  -0.245   3.847   2.414  0.3839 -0.7712  0.7684
  622MOL0     C83877  -0.297   3.708   2.396  0.3503  0.6949  0.1421
  622MOL0     C83878  -0.342   3.673   2.259  0.2622 -0.7132  0.1744
  622MOL0     C83879  -0.389   3.528   2.255  0.2270  1.0582  0.3481
  622MOL0    Cl83880  -0.255   3.413   2.216  0.3258  0.2015  0.1225
  622MOL0     C83881   0.380   3.564   2.091 -0.2300 -0.2320 -1.2752
  622MOL0     C83882   0.455   3.456   2.046  0.6426 -0.3493 -0.6774
  622MOL0     O83883   0.413   3.086   2.129 -0.8053 -0.5743  0.0721
  622MOL0     C83884   0.444   2.868   1.943  1.0310  0.3304  0.3703
  622MOL0     C83885   0.484   2.752   1.872 -0.3077 -0.1618  0.5360
  622MOL0     N83886   0.667   2.461   1.052 -0.4999 -0.1445 -0.7699
  622MOL0     N83887   0.748   2.447   0.957 -0.4390  0.5856 -0.3504
  622MOL0     C83888   1.898   2.776   1.071  0.8819 -0.0126 -0.3759
  622MOL0     C83889   1.963   2.896   1.086 -1.5164  0.3366  0.1942
  622MOL0     C83890   2.122   3.291   1.115  0.0523  0.4643 -0.1722
  622MOL0     C83891   2.249   3.240   1.144  0.2768  0.6259 -0.3537
  622MOL0     C83892   2.344   3.335   1.198  0.3097 -0.2550 -0.2135
  622MOL0     C83893   2.317   3.466   1.215  0.7447 -0.9070  0.6367
  622MOL0     O83894   2.421   3.552   1.246  0.0039 -0.2329 -0.7010
  622MOL0     C83895   2.456   3.654   1.156 -0.2417  0.1135  0.9280
  622MOL0     C83896   2.608   3.674   1.138 -0.8036 -0.4645  0.3943
  622MOL0     C83897   2.689   3.737   1.260 -0.3164  0.3282  0.5252
  622MOL0     C83898   2.842   3.706   1.263 -0.1131 -1.3745  0.5302
  622MOL0     C83899   2.882   3.564   1.254  0.9549  0.3303 -0.8379
  622MOL0     C83900   2.916   3.450   1.251  0.1225  0.2450  0.3711
  622MOL0     C83901   2.193   3.507   1.176  0.3106 -0.1480 -0.2950
  622MOL0     C83902   2.094   3.420   1.136 -0.5526 -0.3343  0.1302
  622MOL0     H83903   1.956   2.994   0.767  3.7985 -1.7545  0.7317
  622MOL0     H83904   1.824   2.806   0.747  0.8548  2.7988 -0.8223
  622MOL0     H83905   1.639   2.696   0.795 -1.4376 -0.0969 -0.5517
  622MOL0     H83906   1.750   2.578   0.734 -0.0243  3.8883 -0.8323
  622MOL0     H83907   1.530   2.505   0.749  0.1730  1.2520  0.3144
  622MOL0     H83908   1.624   2.392   0.840  0.8562  0.3052 -3.7005
  622MOL0     H83909   1.542   2.471   1.041  0.8431  2.3963  0.6317
  622MOL0     H83910   1.480   2.619   0.983 -3.0527 -0.7717  0.6030
  622MOL0     H83911   1.323   2.517   0.842 -0.6502  3.1992  4.1756
  622MOL0     H83912   1.376   2.351   0.865 -0.6614  0.9224 -1.9939
  622MOL0     H83913   1.334   2.401   1.122  0.1459 -1.7706  0.0203
  622MOL0     H83914   1.233   2.532   1.069 -1.1839 -1.4233  3.2918
  622MOL0     H83915   1.219   2.231   1.032  0.8795  1.7771  1.0423
  622MOL0     H83916   1.086   2.316   1.106 -0.9703  1.6254 -0.2024
  622MOL0     H83917   1.138   2.359   0.815  0.8715  0.0994  0.2189
  622MOL0     H83918   1.012   2.264   0.896 -0.8177 -0.0387 -1.0117
  622MOL0     H83919   0.957   2.521   0.818  0.0783 -0.9107  0.3178
  622MOL0     H83920   1.050   2.559   0.953  1.3118 -0.9836  2.8249
  622MOL0     H83921   0.956   2.545   1.189 -0.1534  1.7349 -0.8348
  622MOL0     H83922   0.637   2.617   1.303 -0.4279  0.1172 -3.3393
  622MOL0     H83923   0.576   2.459   1.280 -0.4751  0.8603  2.7161
  622MOL0     H83924   0.841   2.537   1.421 -0.5360  0.7700 -1.7585
  622MOL0     H83925   0.765   2.367   1.419 -2.2092 -0.3560 -2.6773
  622MOL0     H83926   0.692   2.425   1.618 -0.6127  2.7904  3.1152
  622MOL0     H83927   0.563   2.504   1.529  0.5603  1.1973 -0.5581
  622MOL0     H83928   0.679   2.727   1.547  0.1184 -2.7112 -2.2764
  622MOL0     H83929   0.804   2.653   1.639  0.7793  2.3982 -2.9698
  622MOL0     H83930   0.762   2.852   1.752  1.7936  0.5269  4.2650
  622MOL0     H83931   0.793   3.083   1.934 -1.4413  1.4849  1.6685
  622MOL0     H83932   0.790   3.074   1.765 -1.4959 -4.2502  0.4146
  622MOL0     H83933   0.674   3.194   1.843  2.0235  1.7508 -0.6196
  622MOL0     H83934   0.197   3.240   1.964  1.1534  0.3008 -1.2879
  622MOL0     H83935   0.076   3.440   2.005 -0.3897  0.7944  1.0692
  622MOL0     H83936   0.232   3.765   2.236  0.2942  0.0945 -0.5964
  622MOL0     H83937   0.266   3.842   2.085  1.9638  0.5509  1.7822
  622MOL0     H83938   0.101   3.977   2.183  0.6604  0.1845 -1.4271
  622MOL0     H83939   0.015   3.881   2.070  5.2127  0.8194 -1.1567
  622MOL0     H83940   0.030   3.828   2.365  1.0872  1.3517 -0.5761
  622MOL0     H83941  -0.051   3.722   2.260 -0.0168 -0.3389  2.8609
  622MOL0     H83942  -0.143   4.015   2.321  1.0163 -0.7564  1.7486
  622MOL0     H83943  -0.224   3.917   2.204 -1.5121 -3.5638 -0.1870
  622MOL0     H83944  -0.323   3.917   2.445  2.5541  0.7793  3.0516
  622MOL0     H83945  -0.178   3.855   2.500  1.5482 -1.8703 -0.0029
  622MOL0     H83946  -0.221   3.637   2.430 -1.1589 -1.3438 -0.5205
  622MOL0     H83947  -0.382   3.702   2.466  1.7163 -0.4818  1.7806
  622MOL0     H83948  -0.270   3.696   2.180 -0.0465  2.0908  0.6188
  622MOL0     H83949  -0.422   3.746   2.244 -0.1363 -1.5590 -2.1698
  622MOL0     H83950  -0.472   3.498   2.191  1.6336  0.0866 -1.1020
  622MOL0     H83951  -0.432   3.495   2.350  4.5526  1.6515  2.7670
  622MOL0     H83952   0.424   3.657   2.124 -2.1615  0.4812 -0.5805
  622MOL0     H83953   0.563   3.471   2.045  0.6669  2.0814  4.8136
  622MOL0     H83954   0.364   2.861   2.017 -0.7123  3.0040 -1.0946
  622MOL0     H83955   0.435   2.655   1.883 -3.6431  0.9766 -2.3794
  622MOL0     H83956   1.885   2.719   1.163  0.7771  1.3054  0.4501
  622MOL0     H83957   2.003   2.912   1.186 -0.8173 -3.0789  0.5732
  622MOL0     H83958   2.259   3.132   1.150  2.6117  0.8375  0.7767
  622MOL0     H83959   2.441   3.306   1.238 -0.9172 -0.4162  2.9063
  622MOL0     H83960   2.417   3.634   1.055  1.1307  2.2327 -0.1043
  622MOL0     H83961   2.407   3.744   1.194 -3.7803  0.3266 -3.2829
  622MOL0     H83962   2.615   3.745   1.055  0.6329  0.5494  1.3260
  622MOL0     H83963   2.636   3.569   1.121 -4.0859 -1.3699 -0.0847
  622MOL0     H83964   2.656   3.704   1.359  3.0813  1.1702  2.0608
  622MOL0     H83965   2.680   3.846   1.259 -0.2130  0.3558  1.8329
  622MOL0     H83966   2.893   3.742   1.353 -0.0858  1.0131 -0.3704
  622MOL0     H83967   2.884   3.768   1.183  1.6371 -0.4787  2.0476
  622MOL0     H83968   2.947   3.348   1.257  2.3723  0.9256  1.5690
  622MOL0     H83969   2.165   3.610   1.200  1.1510 -0.4100  2.1575
  622MOL0     H83970   1.995   3.461   1.118 -0.0032  0.5019 -1.1452
  623MOL0     O83971   8.305   9.818   7.690  0.3917  0.0927  0.3596
  623MOL0     C83972   8.279   9.719   7.622  0.3385  0.0453 -0.2619
  623MOL0     O83973   8.182   9.714   7.530  0.9562 -0.1737 -0.5960
  623MOL0     C83974   8.065   9.781   7.550  0.4773  0.3037 -0.4269
  623MOL0     C83975   8.047   9.913   7.504 -0.3292  0.6027 -0.0276
  623MOL0     C83976   7.928   9.992   7.526 -0.0394 -0.8270  0.3703
  623MOL0     C83977   7.813   9.932   7.578  0.6740 -0.1310  0.0295
  623MOL0     O83978   7.689   9.991   7.594 -0.2967 -0.1007  0.0152
  623MOL0     C83979   7.677  10.135   7.571  1.1247  0.6891 -0.0308
  623MOL0     C83980   7.525  10.180   7.596 -1.1530  0.7794 -0.8591
  623MOL0     C83981   7.470  10.129   7.729  0.0449 -0.1978  0.3234
  623MOL0     C83982   7.510  10.217   7.848 -0.2774 -0.2611  0.6956
  623MOL0     C83983   7.500  10.142   7.979 -0.1798 -0.1556 -0.3647
  623MOL0     C83984   7.577  10.201   8.095  0.2275 -0.5629  0.1286
  623MOL0     C83985   7.582  10.354   8.119 -0.4541 -0.6514  0.1852
  623MOL0     C83986   7.447  10.417   8.165  0.1705 -0.0816 -0.8664
  623MOL0     N83987   7.417  10.413   8.315  0.2296  0.4485  0.3691
  623MOL0     C83988   7.504  10.461   8.411  0.0296 -0.5068 -0.7268
  623MOL0     C83989   7.451  10.413   8.530 -0.9068 -0.8800  0.7300
  623MOL0     C83990   7.485  10.446   8.659  0.3020 -0.4625  0.1255
  623MOL0     C83991   7.551  10.330   8.730  0.4324 -0.0137  0.0838
  623MOL0     C83992   7.541  10.337   8.882 -0.2204 -1.1133 -0.4673
  623MOL0     C83993   7.623  10.220   8.933  1.0330  0.9102  0.2701
  623MOL0     O83994   7.644  10.237   9.072 -0.8158  1.0636  0.3752
  623MOL0     C83995   7.558  10.169   9.158  0.4278  0.2505  0.8162
  623MOL0     C83996   7.518  10.248   9.267  0.2596 -0.0182  0.0541
  623MOL0     C83997   7.440  10.190   9.368 -0.3118  0.4947 -0.0471
  623MOL0     C83998   7.382  10.281   9.469  1.2372  0.8728 -0.1621
  623MOL0     C83999   7.411  10.044   9.361  0.2934  0.3068  0.2418
  623MOL0     C84000   7.309   9.976   9.450 -0.0012 -0.2036  1.4529
  623MOL0     O84001   7.297  10.030   9.571 -0.0073 -0.2291  0.3522
  623MOL0     C84002   7.234   9.966   9.670  0.8583 -1.2281 -0.0344
  623MOL0     C84003   7.100  10.000   9.707 -0.1941  0.5764 -0.1306
  623MOL0     C84004   7.036   9.927   9.809 -0.2966 -0.2331  0.4942
  623MOL0     C84005   7.100   9.810   9.864  0.8576 -0.4325 -0.6173
  623MOL0     O84006   7.035   9.736   9.960  0.4049  0.5144  0.4727
  623MOL0     C84007   7.094   9.610   9.996 -0.1343  0.5812 -0.1691
  623MOL0     C84008   7.000   9.522  10.081  0.2455 -0.1080  1.0656
  623MOL0     C84009   6.906   9.428  10.005  0.3262 -0.3108 -0.1761
  623MOL0     C84010   6.847   9.330  10.107  0.3483  0.1543  1.1186
  623MOL0     C84011   6.749   9.239  10.039  0.2978  0.9122 -0.6711
  623MOL0     C84012   6.666   9.144  10.134  0.2332 -0.7380  0.7870
  623MOL0     C84013   6.757   9.058  10.212 -0.2544 -0.4649 -0.9851
  623MOL0     C84014   6.664   8.968  10.295 -0.7282 -0.2244  0.0416
  623MOL0    Cl84015   6.775   8.850  10.383  0.1156 -0.0594  0.1307
  623MOL0     C84016   7.231   9.773   9.820  0.5128  0.5645 -0.4902
  623MOL0     C84017   7.285   9.859   9.729 -0.5112  0.3805  0.0413
  623MOL0     O84018   7.255   9.870   9.415  0.3764  0.1010  0.1328
  623MOL0     C84019   7.458   9.972   9.251 -0.1730 -0.2014 -0.5392
  623MOL0     C84020   7.530  10.029   9.146 -0.2354  0.1960 -0.8775
  623MOL0     N84021   7.339  10.345   8.505 -1.2182  0.2635  1.4342
  623MOL0     N84022   7.324  10.344   8.374 -0.1799 -0.2635  0.3531
  623MOL0     C84023   7.831   9.796   7.621 -0.2414 -0.2951  0.1723
  623MOL0     C84024   7.952   9.727   7.615 -0.4074 -0.0366 -0.1685
  623MOL0     C84025   8.368   9.596   7.624 -0.1075 -0.8582  0.1842
  623MOL0     C84026   8.350   9.487   7.537 -1.6200 -0.6665  0.0526
  623MOL0     C84027   8.445   9.386   7.527  0.7472 -0.0657  0.5773
  623MOL0     C84028   8.566   9.387   7.592 -1.2280  0.0357 -0.7152
  623MOL0     O84029   8.661   9.291   7.567 -0.4156 -0.5136 -0.0197
  623MOL0     C84030   8.784   9.355   7.503  0.5156  0.3405 -0.0832
  623MOL0     C84031   8.836   9.246   7.409  0.2709 -0.9228 -0.1721
  623MOL0     C84032   8.722   9.175   7.318 -0.9343 -0.2756  0.3356
  623MOL0     C84033   8.637   9.269   7.232 -0.0219 -0.3150  0.0324
  623MOL0     C84034   8.733   9.320   7.133  0.1455  0.3591 -0.3565
  623MOL0     C84035   8.808   9.347   7.040  0.0593 -0.1981  0.9611
  623MOL0     C84036   8.600   9.504   7.670 -0.7269 -1.0778  0.3743
  623MOL0     C84037   8.503   9.602   7.687  1.4336 -0.0806 -0.8756
  623MOL0     H84038   8.128   9.974   7.465 -1.9658  3.3929  0.6562
  623MOL0     H84039   7.920  10.098   7.503  1.0655 -0.6305  0.7900
  623MOL0     H84040   7.733  10.186   7.650 -1.2682  3.2477  0.1603
  623MOL0     H84041   7.705  10.162   7.469 -1.5560 -0.6519 -1.2148
  623MOL0     H84042   7.503  10.285   7.578  0.4329  1.3530  0.3094
  623MOL0     H84043   7.465  10.130   7.519 -2.7475 -0.3604  1.0238
  623MOL0     H84044   7.365  10.109   7.708  0.5817 -3.0205 -0.1484
  623MOL0     H84045   7.499  10.025   7.746 -1.7527 -1.2179 -2.2201
  623MOL0     H84046   7.616  10.240   7.837 -0.2158 -0.6079  0.5291
  623MOL0     H84047   7.470  10.319   7.841  2.0191  0.5517 -2.1554
  623MOL0     H84048   7.398  10.159   8.014 -0.3104 -1.1738 -0.2186
  623MOL0     H84049   7.525  10.036   7.967 -0.4224 -0.0359 -2.2399
  623MOL0     H84050   7.527  10.160   8.183 -0.8323 -1.6157 -0.9238
  623MOL0     H84051   7.676  10.156   8.097  0.2468 -0.5313 -0.1261
  623MOL0     H84052   7.663  10.363   8.192 -1.6173 -1.2883  1.5970
  623MOL0     H84053   7.614  10.390   8.020 -1.0821 -1.5214 -0.3460
  623MOL0     H84054   7.365  10.372   8.108 -0.6169 -0.2565  0.3844
  623MOL0     H84055   7.459  10.520   8.131  1.8883 -0.8337 -2.7810
  623MOL0     H84056   7.593  10.523   8.407  1.1683 -1.9038  0.9912
  623MOL0     H84057   7.552  10.533   8.664 -1.0770  0.6264  0.3168
  623MOL0     H84058   7.388  10.476   8.700 -1.1074  0.1267 -3.2879
  623MOL0     H84059   7.653  10.324   8.690  1.7205  2.9941  2.4979
  623MOL0     H84060   7.488  10.249   8.693 -1.5379  2.1335 -1.6503
  623MOL0     H84061   7.440  10.329   8.924  1.0801 -0.1547  3.2835
  623MOL0     H84062   7.582  10.430   8.923 -0.4453 -1.0139 -0.4678
  623MOL0     H84063   7.716  10.202   8.879 -0.5847 -0.9388 -2.1631
  623MOL0     H84064   7.563  10.130   8.914 -0.1996  0.9806  3.1766
  623MOL0     H84065   7.544  10.354   9.262  0.3902  0.0650  1.8405
  623MOL0     H84066   7.406  10.387   9.462 -1.2146  1.5151  0.2601
  623MOL0     H84067   7.273  10.268   9.463  1.0316  2.6098 -0.7610
  623MOL0     H84068   7.407  10.256   9.572  0.8752 -0.4405 -0.3742
  623MOL0     H84069   7.032  10.073   9.663 -3.0021 -1.5447  0.3990
  623MOL0     H84070   6.935   9.947   9.841 -1.4777 -1.3133 -2.3050
  623MOL0     H84071   7.134   9.552   9.913  1.2548 -1.2725  1.6880
  623MOL0     H84072   7.180   9.635  10.059  0.4841  2.9137 -1.7935
  623MOL0     H84073   7.064   9.460  10.144  1.4155 -0.1178 -0.0917
  623MOL0     H84074   6.940   9.582  10.151 -0.1917  1.9141 -0.9409
  623MOL0     H84075   6.962   9.369   9.932  0.3169 -1.8537  1.0173
  623MOL0     H84076   6.825   9.479   9.951 -1.2623 -3.7114 -1.3568
  623MOL0     H84077   6.929   9.272  10.148  1.9407  0.0526 -1.8822
  623MOL0     H84078   6.792   9.395  10.176 -0.2728  0.5512  0.2675
  623MOL0     H84079   6.813   9.173   9.979  3.6880  1.6909  1.8303
  623MOL0     H84080   6.676   9.300   9.985  0.2864  0.5567 -1.0642
  623MOL0     H84081   6.610   9.208  10.204 -0.3386 -1.1230  0.6851
  623MOL0     H84082   6.599   9.086  10.070 -0.1938  0.9061 -0.3189
  623MOL0     H84083   6.802   9.126  10.285 -3.5093 -0.6122  1.3993
  623MOL0     H84084   6.842   9.010  10.162  0.7776  0.5084 -0.2047
  623MOL0     H84085   6.592   8.922  10.227  0.8817  0.2571 -2.1216
  623MOL0     H84086   6.596   9.025  10.358 -1.0950  1.5688 -1.8682
  623MOL0     H84087   7.290   9.688   9.852  1.8129  1.3526 -0.7197
  623MOL0     H84088   7.385   9.827   9.700  0.3830  2.6025  0.4274
  623MOL0     H84089   7.456   9.864   9.254  1.5892 -0.2798  3.0040
  623MOL0     H84090   7.570   9.967   9.066 -0.6116  1.0775 -1.7626
  623MOL0     H84091   7.752   9.747   7.677  1.5726  0.9636  4.2530
  623MOL0     H84092   7.949   9.621   7.639  1.4061 -0.8349 -2.9058
  623MOL0     H84093   8.265   9.477   7.470 -0.4927  1.4100 -1.8246
  623MOL0     H84094   8.417   9.301   7.466  3.4503  0.0416 -0.9667
  623MOL0     H84095   8.766   9.449   7.449  0.8878 -0.3460 -1.4509
  623MOL0     H84096   8.861   9.382   7.577  1.4218  0.7282 -1.1346
  623MOL0     H84097   8.878   9.172   7.477 -0.1513  0.9550  2.2638
  623MOL0     H84098   8.912   9.298   7.349 -0.5552  0.8993  0.2756
  623MOL0     H84099   8.653   9.118   7.381  0.1702 -0.9968  0.9100
  623MOL0     H84100   8.770   9.106   7.249 -1.5275  0.7840 -1.2146
  623MOL0     H84101   8.590   9.351   7.288  0.9854 -0.3746  1.0004
  623MOL0     H84102   8.557   9.213   7.182 -0.5340  1.0927 -0.7923
  623MOL0     H84103   8.877   9.382   6.966 -0.0705 -2.1256 -0.1546
  623MOL0     H84104   8.700   9.516   7.710 -1.1616 -0.1860  1.2193
  623MOL0     H84105   8.529   9.693   7.741  2.3444 -0.1456 -1.1798
  624MOL0     O84106   2.277   3.426   8.452  0.3616  0.6038 -0.4593
  624MOL0     C84107   2.262   3.350   8.546 -0.7139  0.3346  0.0163
  624MOL0     O84108   2.141   3.289   8.568 -0.0962 -0.5638  0.4837
  624MOL0     C84109   2.044   3.314   8.469  0.1930  0.4365  0.5841
  624MOL0     C84110   2.054   3.238   8.354 -0.2190 -0.4142 -0.2264
  624MOL0     C84111   1.951   3.237   8.264  0.8661  0.2304  0.9579
  624MOL0     C84112   1.835   3.312   8.282  0.8105  0.2691 -0.1532
  624MOL0     O84113   1.721   3.310   8.203 -0.2387 -0.0635  1.0835
  624MOL0     C84114   1.735   3.260   8.070  0.5614  0.2762  0.0079
  624MOL0     C84115   1.625   3.309   7.981 -0.0322  0.4028 -0.3246
  624MOL0     C84116   1.637   3.269   7.831 -0.3366 -0.2746 -0.3019
  624MOL0     C84117   1.503   3.235   7.785  0.3866 -1.1132  0.3441
  624MOL0     C84118   1.486   3.249   7.631  0.0830  0.6010  0.0546
  624MOL0     C84119   1.342   3.246   7.582 -0.2265  0.3773 -0.7379
  624MOL0     C84120   1.253   3.350   7.653  0.0798  1.4039  0.0128
  624MOL0     C84121   1.295   3.493   7.638 -0.2487  0.0461 -0.1648
  624MOL0     N84122   1.186   3.593   7.636 -0.0457 -0.0143 -0.4594
  624MOL0     C84123   1.090   3.607   7.726  0.1334  0.9469 -0.5829
  624MOL0     C84124   1.025   3.718   7.693  1.0925  0.0011 -0.5739
  624MOL0     C84125   0.906   3.754   7.768  1.0091  0.3205 -0.1227
  624MOL0     C84126   0.771   3.716   7.690  0.2503 -0.1087  0.1855
  624MOL0     C84127   0.757   3.775   7.548  0.1328 -0.0240  0.5030
  624MOL0     C84128   0.697   3.916   7.557  0.3101 -0.1110  0.3747
  624MOL0     O84129   0.632   3.951   7.437 -0.1820  0.1959  0.2372
  624MOL0     C84130   0.551   3.860   7.372  0.0961 -0.5803 -0.0005
  624MOL0     C84131   0.595   3.819   7.246  0.1452 -0.4244  0.5454
  624MOL0     C84132   0.512   3.738   7.172  0.2972  0.7668  0.1983
  624MOL0     C84133   0.548   3.704   7.028  0.2580 -0.1845 -1.8652
  624MOL0     C84134   0.385   3.696   7.224  0.1429 -0.6936  0.6306
  624MOL0     C84135   0.285   3.612   7.158  0.0777  0.2574  1.3341
  624MOL0     O84136   0.161   3.612   7.210  0.0848 -0.4489 -0.2351
  624MOL0     C84137   0.061   3.546   7.145  0.2593  0.5073  0.1051
  624MOL0     C84138   0.014   3.580   7.025  0.3536 -0.2134  1.1349
  624MOL0     C84139  -0.097   3.513   6.968  0.2182 -0.4176 -0.2210
  624MOL0     C84140  -0.177   3.422   7.038  0.2271  0.1459  0.0990
  624MOL0     O84141  -0.302   3.387   6.987  0.0768  0.7351 -0.0568
  624MOL0     C84142  -0.391   3.298   7.051  0.6831 -0.4071 -0.1038
  624MOL0     C84143  -0.511   3.286   6.954 -0.4844 -0.2306 -0.8628
  624MOL0     C84144  -0.515   3.142   6.898  0.4483 -0.0155  0.6798
  624MOL0     C84145  -0.529   3.025   7.009  0.8963 -0.3625  0.6585
  624MOL0     C84146  -0.673   3.013   7.056 -0.5066  0.6707 -0.7562
  624MOL0     C84147  -0.770   2.967   6.955 -0.2611  0.5997 -0.2191
  624MOL0     C84148  -0.907   2.932   7.016  0.0375 -0.2600  0.8230
  624MOL0     C84149  -1.008   2.913   6.909 -0.0290 -0.6385 -0.4819
  624MOL0    Cl84150  -1.011   2.758   6.831 -0.1811  0.2592 -0.5966
  624MOL0     C84151  -0.126   3.385   7.164  0.7702 -0.2174 -0.2582
  624MOL0     C84152  -0.010   3.444   7.213 -0.5931 -0.1885  1.1183
  624MOL0     O84153   0.309   3.523   7.078 -0.1459 -0.4144 -0.0315
  624MOL0     C84154   0.345   3.747   7.340 -0.1348 -0.1800 -0.4872
  624MOL0     C84155   0.423   3.833   7.423 -0.1677  0.2559  0.6186
  624MOL0     N84156   1.079   3.773   7.579  0.1395  0.9162 -0.5912
  624MOL0     N84157   1.166   3.691   7.544 -0.9411  1.3609 -0.3767
  624MOL0     C84158   1.818   3.385   8.402  0.1212 -0.0292  0.2694
  624MOL0     C84159   1.929   3.392   8.502 -0.1928  0.0171  0.2445
  624MOL0     C84160   2.371   3.322   8.632  0.1243  0.2599 -0.4211
  624MOL0     C84161   2.377   3.221   8.725  0.0373 -0.1738  0.0132
  624MOL0     C84162   2.489   3.199   8.807 -0.3627 -0.5700 -0.3325
  624MOL0     C84163   2.597   3.287   8.804 -0.4797 -0.9580 -0.0470
  624MOL0     O84164   2.717   3.272   8.872 -0.5372 -0.4701  0.2045
  624MOL0     C84165   2.704   3.244   9.007 -0.2977  0.2877  0.4076
  624MOL0     C84166   2.750   3.357   9.102  0.1007 -0.9357 -0.9362
  624MOL0     C84167   2.692   3.501   9.088 -0.5284 -0.6403  1.2708
  624MOL0     C84168   2.772   3.590   8.982 -0.0236  0.3582 -0.8638
  624MOL0     C84169   2.918   3.595   9.004 -0.0941  0.4554 -1.1324
  624MOL0     C84170   3.039   3.587   9.018  1.4763  0.0113 -0.1661
  624MOL0     C84171   2.599   3.401   8.714 -0.2198  0.2972 -0.0429
  624MOL0     C84172   2.489   3.408   8.621  0.5775 -0.8135 -0.4052
  624MOL0     H84173   2.144   3.176   8.352  1.9596  2.5152 -0.0023
  624MOL0     H84174   1.952   3.169   8.179  0.6311  2.2570 -0.7496
  624MOL0     H84175   1.828   3.300   8.028 -0.3000  1.5335 -0.7387
  624MOL0     H84176   1.738   3.150   8.066  1.8903  0.0919  2.9965
  624MOL0     H84177   1.533   3.269   8.024  0.3169  0.2681  0.2996
  624MOL0     H84178   1.629   3.418   7.992  0.1301  0.1818  2.5915
  624MOL0     H84179   1.676   3.354   7.774 -1.0206 -1.0030 -1.9358
  624MOL0     H84180   1.711   3.188   7.824 -0.0577 -0.0043 -0.5233
  624MOL0     H84181   1.470   3.136   7.819 -1.3726 -1.8527 -2.9935
  624MOL0     H84182   1.438   3.304   7.839  1.2085 -1.7488  2.2379
  624MOL0     H84183   1.531   3.344   7.602  0.7949  0.5292  0.8863
  624MOL0     H84184   1.542   3.178   7.568 -0.9637 -0.7230  0.5518
  624MOL0     H84185   1.342   3.268   7.474 -2.3415 -2.0174 -1.3228
  624MOL0     H84186   1.287   3.151   7.577 -1.7769  1.0864  1.4598
  624MOL0     H84187   1.160   3.345   7.596  0.2310 -0.4684 -0.1480
  624MOL0     H84188   1.242   3.317   7.756 -2.0981  3.8573  0.6644
  624MOL0     H84189   1.350   3.501   7.544  0.5237  0.7205  0.3341
  624MOL0     H84190   1.361   3.522   7.720 -3.3814  2.5060  1.6962
  624MOL0     H84191   1.071   3.544   7.813  3.0822  1.3918  0.4993
  624MOL0     H84192   0.913   3.706   7.866 -0.4639  1.3887  0.5524
  624MOL0     H84193   0.916   3.862   7.784  1.2850  0.3359 -0.3902
  624MOL0     H84194   0.683   3.748   7.746  0.0709  3.3783 -1.8385
  624MOL0     H84195   0.764   3.606   7.686  0.7756 -0.1210 -0.6645
  624MOL0     H84196   0.696   3.706   7.490 -2.2462  1.0472  1.5857
  624MOL0     H84197   0.853   3.777   7.495 -0.4221 -4.1803 -0.9756
  624MOL0     H84198   0.765   3.999   7.580 -2.0385  3.5365 -4.2078
  624MOL0     H84199   0.618   3.899   7.631 -0.0243 -4.5967 -0.7542
  624MOL0     H84200   0.684   3.863   7.202 -0.2203  0.3805  0.6023
  624MOL0     H84201   0.468   3.750   6.969  0.4280  0.0990 -1.8747
  624MOL0     H84202   0.642   3.747   6.995  0.7719 -0.6839 -1.1015
  624MOL0     H84203   0.557   3.596   7.012 -2.0130 -0.6588 -0.3678
  624MOL0     H84204   0.077   3.652   6.973 -0.3729 -0.1666  0.3096
  624MOL0     H84205  -0.118   3.529   6.863  1.5966 -0.9553 -0.6006
  624MOL0     H84206  -0.345   3.200   7.070 -1.3918 -0.7009  5.1534
  624MOL0     H84207  -0.432   3.347   7.140 -0.2732  0.0962 -0.8171
  624MOL0     H84208  -0.605   3.308   7.005 -0.3779  0.4603 -0.9536
  624MOL0     H84209  -0.504   3.357   6.871  1.1136 -2.3211 -2.6255
  624MOL0     H84210  -0.428   3.109   6.840  0.0498 -1.9634  1.1201
  624MOL0     H84211  -0.597   3.140   6.826  1.2222  2.4734 -0.3701
  624MOL0     H84212  -0.506   2.930   6.960 -1.2631  0.1856 -1.6438
  624MOL0     H84213  -0.471   3.044   7.100 -0.0328 -2.3291  1.7594
  624MOL0     H84214  -0.712   3.108   7.095 -2.2690  0.8685 -2.8490
  624MOL0     H84215  -0.651   2.943   7.138  2.2099  1.8969 -0.3293
  624MOL0     H84216  -0.776   3.051   6.885  0.7884 -0.1738 -1.2823
  624MOL0     H84217  -0.734   2.874   6.910 -1.6781 -0.4311  0.7147
  624MOL0     H84218  -0.937   3.022   7.070 -0.7143 -0.7494  1.2308
  624MOL0     H84219  -0.908   2.834   7.066  4.2204 -2.4492 -2.7099
  624MOL0     H84220  -1.013   2.994   6.835 -0.1898 -0.5616 -0.3894
  624MOL0     H84221  -1.108   2.918   6.953 -1.4503 -1.8490 -3.3251
  624MOL0     H84222  -0.165   3.301   7.220  1.4628  0.7184  1.7673
  624MOL0     H84223   0.030   3.430   7.313  1.4607 -1.7105  0.1594
  624MOL0     H84224   0.249   3.718   7.383  0.5100 -1.7999 -0.0851
  624MOL0     H84225   0.397   3.858   7.525 -0.1914 -3.7208  1.7391
  624MOL0     H84226   1.715   3.421   8.402  0.1360  0.0800 -1.2832
  624MOL0     H84227   1.913   3.445   8.595  3.1041  0.3404  0.7729
  624MOL0     H84228   2.291   3.156   8.725 -0.4766  0.4092 -2.3170
  624MOL0     H84229   2.499   3.120   8.882  5.6342  0.5813  0.5905
  624MOL0     H84230   2.601   3.214   9.030 -0.3787 -1.9545 -2.2872
  624MOL0     H84231   2.770   3.158   9.020  0.1868  0.7355  0.9192
  624MOL0     H84232   2.858   3.371   9.115 -0.5468  2.8210  2.7163
  624MOL0     H84233   2.715   3.331   9.202  2.4369 -0.0557  0.1911
  624MOL0     H84234   2.704   3.549   9.185 -0.0032 -0.2967  1.0431
  624MOL0     H84235   2.587   3.480   9.062 -0.3147  0.6523 -0.9281
  624MOL0     H84236   2.735   3.692   8.995  0.2169  0.2819  0.5736
  624MOL0     H84237   2.753   3.566   8.877  1.2665  2.7006 -1.7190
  624MOL0     H84238   3.144   3.573   9.037  0.6871 -2.7885  3.0650
  624MOL0     H84239   2.677   3.476   8.720  1.7707 -0.9204 -5.5256
  624MOL0     H84240   2.477   3.489   8.549  3.3305  0.0101 -0.0166
  625MOL0     O84241   3.831   6.990   5.844  0.1768  0.6428 -0.1523
  625MOL0     C84242   3.844   7.045   5.734 -0.5621 -0.5085  0.3854
  625MOL0     O84243   3.943   7.028   5.641  0.5843  0.2425 -0.1322
  625MOL0     C84244   4.010   6.910   5.654 -0.1736 -0.8166 -0.5383
  625MOL0     C84245   4.122   6.903   5.729 -0.1002  0.0329 -1.2294
  625MOL0     C84246   4.196   6.780   5.736  0.8114 -0.6441  0.0632
  625MOL0     C84247   4.144   6.670   5.674  0.0397  1.7989 -0.2638
  625MOL0     O84248   4.214   6.545   5.690 -0.1840  0.1194  0.1456
  625MOL0     C84249   4.291   6.528   5.810 -0.6469  0.7005 -0.1027
  625MOL0     C84250   4.308   6.374   5.832 -1.1073  0.8977 -0.7260
  625MOL0     C84251   4.451   6.349   5.891  0.0746 -0.2513 -0.4140
  625MOL0     C84252   4.508   6.208   5.877 -0.2451  0.6170  0.5188
  625MOL0     C84253   4.424   6.104   5.959  0.9616  0.4878  0.7442
  625MOL0     C84254   4.460   5.959   5.914  0.2919  0.4958 -0.2713
  625MOL0     C84255   4.444   5.931   5.769 -0.2190 -0.6378  0.2593
  625MOL0     C84256   4.429   5.779   5.745 -0.1568  0.6158  0.5293
  625MOL0     N84257   4.296   5.726   5.781 -0.3033  0.3682  0.5806
  625MOL0     C84258   4.179   5.773   5.721 -0.4376 -0.5930  0.7584
  625MOL0     C84259   4.083   5.691   5.771  0.6307  0.2814 -0.2072
  625MOL0     C84260   3.940   5.719   5.737  0.9389  0.5493  0.6489
  625MOL0     C84261   3.887   5.640   5.615 -0.0273  0.1212  0.3009
  625MOL0     C84262   3.947   5.502   5.601 -0.4502  0.1656 -0.2804
  625MOL0     C84263   3.851   5.415   5.506 -0.1663 -1.6639  0.0766
  625MOL0     O84264   3.921   5.299   5.465 -0.1216 -0.0730 -1.1634
  625MOL0     C84265   4.022   5.297   5.380  0.0384 -0.0890 -0.5673
  625MOL0     C84266   4.089   5.178   5.352  1.2256 -0.8825 -0.7339
  625MOL0     C84267   4.203   5.173   5.269 -0.2777  0.0466 -0.6314
  625MOL0     C84268   4.277   5.043   5.261 -0.6471  0.7293 -0.3648
  625MOL0     C84269   4.247   5.295   5.205 -0.7862  0.3850  0.0544
  625MOL0     C84270   4.377   5.310   5.125 -0.1450 -0.1745 -0.2953
  625MOL0     O84271   4.465   5.199   5.118  0.4407 -0.7451 -0.1931
  625MOL0     C84272   4.585   5.218   5.051  1.2778  0.2952 -0.0997
  625MOL0     C84273   4.578   5.212   4.914  0.3625 -0.4289 -0.4222
  625MOL0     C84274   4.689   5.208   4.842  0.0355 -0.3455 -1.1174
  625MOL0     C84275   4.816   5.210   4.910 -0.1324  0.9358  0.8775
  625MOL0     O84276   4.943   5.196   4.852  0.7367 -0.7139 -0.3110
  625MOL0     C84277   4.964   5.201   4.712 -0.2973 -0.1496  0.1134
  625MOL0     C84278   5.111   5.233   4.676 -0.7258  0.5104  0.0632
  625MOL0     C84279   5.116   5.269   4.529 -0.1029  0.1204  0.4176
  625MOL0     C84280   5.254   5.259   4.466 -1.0215  0.4834 -0.3281
  625MOL0     C84281   5.304   5.117   4.432 -0.0871 -0.2516  0.2265
  625MOL0     C84282   5.241   5.065   4.298 -0.1081 -0.7977  0.2852
  625MOL0     C84283   5.331   4.975   4.214 -0.5196  0.0810  0.4433
  625MOL0     C84284   5.387   4.861   4.293 -1.3423 -0.0902 -0.0387
  625MOL0    Cl84285   5.458   4.719   4.202  0.2929  0.0056 -0.5597
  625MOL0     C84286   4.820   5.227   5.044 -0.8030 -0.1839  0.0993
  625MOL0     C84287   4.704   5.240   5.118  0.2634 -0.3979 -0.0693
  625MOL0     O84288   4.404   5.420   5.084 -0.2095  0.5236  0.5490
  625MOL0     C84289   4.170   5.410   5.228 -0.1039 -0.5908 -0.0801
  625MOL0     C84290   4.070   5.419   5.321  0.6272  0.4281 -0.2121
  625MOL0     N84291   4.142   5.605   5.862 -0.1008 -0.4805  0.6325
  625MOL0     N84292   4.268   5.625   5.872  0.4736 -0.9392 -0.1385
  625MOL0     C84293   4.014   6.666   5.607 -0.6550 -0.1557 -0.6554
  625MOL0     C84294   3.959   6.797   5.590 -0.6480  0.2044  0.3734
  625MOL0     C84295   3.768   7.170   5.707 -0.1203 -0.8639  0.1924
  625MOL0     C84296   3.776   7.231   5.587  0.1587  0.5732  0.2162
  625MOL0     C84297   3.699   7.343   5.550 -1.0967  0.4465  0.2355
  625MOL0     C84298   3.615   7.394   5.644 -0.3331 -0.4594 -0.1348
  625MOL0     O84299   3.529   7.491   5.603  0.6960 -0.4636  0.3087
  625MOL0     C84300   3.387   7.469   5.645 -0.5556  0.7942 -0.0510
  625MOL0     C84301   3.304   7.461   5.516  0.4812  0.5253  0.4268
  625MOL0     C84302   3.346   7.338   5.429 -0.8799  0.0526  0.1366
  625MOL0     C84303   3.242   7.292   5.322 -1.1141  0.3913  0.2419
  625MOL0     C84304   3.294   7.185   5.229  0.4754 -0.7692  0.5406
  625MOL0     C84305   3.317   7.089   5.159  0.5251  0.1244 -0.6686
  625MOL0     C84306   3.608   7.348   5.778 -0.1301 -0.1224 -0.5068
  625MOL0     C84307   3.682   7.231   5.806 -0.4032  0.1376  0.0800
  625MOL0     H84308   4.163   6.995   5.770 -1.4862 -0.3829  1.3202
  625MOL0     H84309   4.287   6.791   5.794  1.6268  3.9676 -1.6441
  625MOL0     H84310   4.387   6.579   5.795 -0.7850  2.0164  2.8975
  625MOL0     H84311   4.252   6.565   5.905  1.9397 -2.1011  2.2906
  625MOL0     H84312   4.223   6.321   5.876 -0.2085 -0.5849 -0.7182
  625MOL0     H84313   4.325   6.332   5.733 -1.3320  0.8503 -0.7436
  625MOL0     H84314   4.519   6.414   5.835  2.4633 -1.7871  0.5354
  625MOL0     H84315   4.453   6.377   5.997  0.3596 -0.7324 -0.2903
  625MOL0     H84316   4.500   6.190   5.769 -0.6650  0.8337  0.5095
  625MOL0     H84317   4.608   6.207   5.920 -0.8988  0.4378  2.1033
  625MOL0     H84318   4.451   6.116   6.064  5.4842  0.3101 -0.1822
  625MOL0     H84319   4.318   6.121   5.943  0.6974 -1.1430  0.5991
  625MOL0     H84320   4.557   5.937   5.958 -0.9462  0.1475  2.4825
  625MOL0     H84321   4.390   5.896   5.971  2.5254 -0.2849  1.7868
  625MOL0     H84322   4.353   5.981   5.735 -0.3588  0.1285  1.7130
  625MOL0     H84323   4.540   5.958   5.723 -0.3794  0.2586  0.4430
  625MOL0     H84324   4.508   5.712   5.778 -0.5627 -0.1870 -0.1041
  625MOL0     H84325   4.437   5.772   5.636  0.1224 -1.7182  0.6545
  625MOL0     H84326   4.178   5.837   5.633  2.4024 -1.2081  0.2040
  625MOL0     H84327   3.880   5.703   5.827  1.0184 -1.3661  0.3969
  625MOL0     H84328   3.928   5.823   5.705 -6.5412 -0.4985 -1.8969
  625MOL0     H84329   3.906   5.698   5.524 -2.2926 -0.1253 -0.3944
  625MOL0     H84330   3.778   5.634   5.617  0.0475 -3.6538  0.0341
  625MOL0     H84331   3.941   5.459   5.702  1.0507  1.7155  0.5188
  625MOL0     H84332   4.052   5.506   5.571 -0.5073 -0.2740 -0.5456
  625MOL0     H84333   3.831   5.468   5.413  0.5815 -2.6251 -0.6483
  625MOL0     H84334   3.756   5.400   5.558 -2.5953  2.3383 -2.7007
  625MOL0     H84335   4.073   5.087   5.408  0.7364 -0.9080 -0.9133
  625MOL0     H84336   4.288   5.018   5.155  1.0329 -1.9110  0.3235
  625MOL0     H84337   4.373   5.063   5.311  0.9610 -0.8353 -2.6249
  625MOL0     H84338   4.226   4.959   5.309 -2.9186  1.8939 -0.6231
  625MOL0     H84339   4.484   5.199   4.861 -0.3030  2.1257  0.0238
  625MOL0     H84340   4.695   5.189   4.735 -0.4167 -0.2653 -1.1573
  625MOL0     H84341   4.937   5.109   4.659 -3.5098 -1.1643  3.1108
  625MOL0     H84342   4.905   5.286   4.676  0.9158  0.5623 -0.2650
  625MOL0     H84343   5.136   5.318   4.741  1.1136 -1.5919  2.3287
  625MOL0     H84344   5.167   5.149   4.719  1.0664  1.4705 -0.3118
  625MOL0     H84345   5.074   5.369   4.520  2.3312  1.1041 -1.3790
  625MOL0     H84346   5.049   5.202   4.474 -1.4421 -1.0662  3.2781
  625MOL0     H84347   5.256   5.314   4.372  0.9404  0.4055 -0.3659
  625MOL0     H84348   5.321   5.312   4.535  2.7010 -3.0542 -0.8388
  625MOL0     H84349   5.276   5.052   4.516 -2.9130  3.5508  2.5324
  625MOL0     H84350   5.414   5.119   4.432 -0.0620  1.6757  1.8817
  625MOL0     H84351   5.143   5.016   4.310  0.2738 -1.2917  1.6622
  625MOL0     H84352   5.218   5.159   4.247 -0.6319  1.1709  3.7992
  625MOL0     H84353   5.410   5.028   4.162 -3.3609  2.8401 -1.3747
  625MOL0     H84354   5.267   4.937   4.134  1.6911 -0.6168 -1.0929
  625MOL0     H84355   5.307   4.819   4.355 -0.6887  0.5682  1.2936
  625MOL0     H84356   5.463   4.904   4.360 -1.5723 -0.8928  0.7658
  625MOL0     H84357   4.917   5.210   5.090  0.2601  1.1600 -1.5230
  625MOL0     H84358   4.712   5.241   5.226 -1.2664  4.4966  0.2612
  625MOL0     H84359   4.205   5.503   5.186  2.6881 -2.1928 -1.6254
  625MOL0     H84360   4.015   5.511   5.333 -2.4942 -1.2592 -0.3635
  625MOL0     H84361   3.974   6.578   5.558 -0.5801  0.2624 -1.4956
  625MOL0     H84362   3.867   6.809   5.535 -1.6488 -1.4210  1.5980
  625MOL0     H84363   3.841   7.206   5.503 -0.1785  0.3718  0.0113
  625MOL0     H84364   3.704   7.378   5.447 -0.3811 -0.3321 -0.0083
  625MOL0     H84365   3.379   7.373   5.698 -0.1010 -0.2609 -1.7723
  625MOL0     H84366   3.350   7.554   5.702  1.4227  2.4218 -1.0519
  625MOL0     H84367   3.321   7.555   5.463 -0.3198  0.1728 -0.5056
  625MOL0     H84368   3.197   7.453   5.537  0.3768 -2.4310 -0.6740
  625MOL0     H84369   3.366   7.261   5.505 -3.6641  1.1769  2.1596
  625MOL0     H84370   3.433   7.363   5.368 -0.3279 -2.0112 -0.0050
  625MOL0     H84371   3.217   7.374   5.255  1.8166 -0.2826 -1.9135
  625MOL0     H84372   3.156   7.250   5.375 -1.2267 -0.5937 -0.6599
  625MOL0     H84373   3.324   7.009   5.088 -1.9366  0.4069 -1.3096
  625MOL0     H84374   3.562   7.416   5.849  1.5618 -0.0429  0.5745
  625MOL0     H84375   3.665   7.177   5.899  0.9679 -0.0296  0.2540
  626MOL0     O84376   4.865   4.713   7.116  0.3270  0.3348  0.4749
  626MOL0     C84377   4.984   4.686   7.108  0.0240 -0.9454 -0.0600
  626MOL0     O84378   5.048   4.577   7.176 -0.1527 -0.6849 -0.6240
  626MOL0     C84379   4.967   4.496   7.252 -0.5757  0.5207  1.0487
  626MOL0     C84380   4.847   4.439   7.211  0.5202 -0.1394  0.5532
  626MOL0     C84381   4.778   4.351   7.290  0.1159  0.4978  0.0030
  626MOL0     C84382   4.831   4.288   7.408  0.2760 -0.5442  0.7752
  626MOL0     O84383   4.775   4.181   7.462 -0.2225 -0.0819 -0.0983
  626MOL0     C84384   4.842   4.093   7.563 -0.4827 -0.1090  0.8724
  626MOL0     C84385   4.778   3.959   7.556  0.8525 -0.4521  0.9535
  626MOL0     C84386   4.778   3.895   7.412  1.2196  0.2638 -0.6616
  626MOL0     C84387   4.724   3.755   7.416  0.1158  0.3648  0.0287
  626MOL0     C84388   4.811   3.637   7.457 -0.6198 -0.2202 -1.0556
  626MOL0     C84389   4.719   3.507   7.470  0.2208  0.5132 -1.0359
  626MOL0     C84390   4.771   3.416   7.582  0.1215  0.9053  0.7587
  626MOL0     C84391   4.675   3.313   7.655  0.2846 -0.0945 -1.3249
  626MOL0     N84392   4.656   3.198   7.573 -0.3187  0.2927 -0.3881
  626MOL0     C84393   4.755   3.114   7.515  0.7523  0.3459 -0.4919
  626MOL0     C84394   4.686   3.040   7.421  0.5142  0.3956 -1.4055
  626MOL0     C84395   4.765   2.922   7.357 -0.1155 -0.6141 -0.4763
  626MOL0     C84396   4.703   2.901   7.220 -0.2344 -0.0493 -0.0011
  626MOL0     C84397   4.773   2.780   7.148  0.0777  0.4526 -0.1435
  626MOL0     C84398   4.707   2.745   7.016 -0.2162  0.2421 -1.1720
  626MOL0     O84399   4.735   2.840   6.910  0.0779 -0.6394  0.3406
  626MOL0     C84400   4.734   2.789   6.775  0.6300  0.1352 -0.4347
  626MOL0     C84401   4.800   2.874   6.686  0.1400  0.1827 -0.4257
  626MOL0     C84402   4.812   2.847   6.548  0.5395 -0.0196  0.3974
  626MOL0     C84403   4.902   2.944   6.470  0.4271  0.1951  0.7513
  626MOL0     C84404   4.739   2.731   6.503  0.3271 -0.0494 -0.8473
  626MOL0     C84405   4.754   2.673   6.367 -0.9862  1.4651  1.7943
  626MOL0     O84406   4.685   2.556   6.341  0.4391  0.0012  0.5810
  626MOL0     C84407   4.669   2.526   6.213 -0.4381  0.5542  0.1923
  626MOL0     C84408   4.550   2.563   6.151 -0.1148  0.2831 -0.9850
  626MOL0     C84409   4.528   2.543   6.012  0.2929 -0.3143  0.2666
  626MOL0     C84410   4.633   2.478   5.940  0.3168 -0.1564  0.4259
  626MOL0     O84411   4.612   2.453   5.806  0.0291  0.7110 -0.6922
  626MOL0     C84412   4.491   2.396   5.770 -0.3249  0.9550  0.0706
  626MOL0     C84413   4.394   2.500   5.694 -0.1193 -0.3529  0.5239
  626MOL0     C84414   4.448   2.559   5.560 -0.6841 -0.0316  0.6007
  626MOL0     C84415   4.403   2.470   5.443 -0.2872  0.5807 -0.3193
  626MOL0     C84416   4.428   2.534   5.308 -0.1091 -0.4698  0.6038
  626MOL0     C84417   4.376   2.427   5.209  0.5793  0.6368  0.1060
  626MOL0     C84418   4.396   2.459   5.063 -0.1941 -0.2377 -0.1194
  626MOL0     C84419   4.344   2.348   4.961 -0.3748 -0.7991  0.6986
  626MOL0    Cl84420   4.174   2.324   4.975  0.3806 -0.5149 -0.2919
  626MOL0     C84421   4.751   2.431   6.005  0.4573  0.1303 -0.3249
  626MOL0     C84422   4.768   2.454   6.142 -0.1869 -0.4764  0.6537
  626MOL0     O84423   4.824   2.728   6.284 -0.2075  0.2783 -0.0211
  626MOL0     C84424   4.664   2.655   6.598  0.2760 -0.1491 -0.7211
  626MOL0     C84425   4.669   2.672   6.732 -0.0443 -0.5954 -0.1265
  626MOL0     N84426   4.552   3.065   7.426  0.8183  0.1554 -0.1053
  626MOL0     N84427   4.528   3.160   7.515 -0.1704 -0.3253 -0.3458
  626MOL0     C84428   4.941   4.354   7.453  0.3685 -0.1941  0.2222
  626MOL0     C84429   5.006   4.460   7.377  0.2501  0.5938 -0.5315
  626MOL0     C84430   5.073   4.777   7.035  0.3089  0.0371  0.6779
  626MOL0     C84431   5.043   4.897   6.963  0.0651 -0.4066 -0.9829
  626MOL0     C84432   5.137   4.982   6.920 -0.4127 -0.3725  0.4787
  626MOL0     C84433   5.282   4.946   6.934  0.3262  0.7882 -0.7420
  626MOL0     O84434   5.386   5.034   6.905  0.4288  0.4561  0.5478
  626MOL0     C84435   5.367   5.163   6.845 -0.6906  0.1803 -0.1554
  626MOL0     C84436   5.373   5.136   6.700 -0.0441  0.3161 -0.4958
  626MOL0     C84437   5.322   5.269   6.629  0.5070 -0.0761 -0.0830
  626MOL0     C84438   5.419   5.388   6.655 -0.3310  0.3869 -0.8501
  626MOL0     C84439   5.349   5.501   6.582 -0.6202 -0.2986  0.6142
  626MOL0     C84440   5.296   5.592   6.525  0.5730  0.2400  0.1130
  626MOL0     C84441   5.314   4.823   6.985  0.4355  0.1706  0.6321
  626MOL0     C84442   5.216   4.742   7.046  0.2590  0.1328  0.8941
  626MOL0     H84443   4.797   4.477   7.122  0.3731 -1.4662  0.0369
  626MOL0     H84444   4.690   4.305   7.247  0.4176  1.2228 -1.4696
  626MOL0     H84445   4.948   4.094   7.534 -0.9737  0.4160 -1.1089
  626MOL0     H84446   4.819   4.143   7.657 -1.4360 -1.8927  1.6223
  626MOL0     H84447   4.838   3.897   7.624  2.5843 -0.8675 -0.8473
  626MOL0     H84448   4.674   3.982   7.577 -0.7966 -0.6237 -5.1643
  626MOL0     H84449   4.716   3.947   7.338  0.7893  1.4249  0.4873
  626MOL0     H84450   4.883   3.892   7.379  0.9140 -0.3092 -1.6356
  626MOL0     H84451   4.636   3.757   7.481  0.5621  0.6660  0.6324
  626MOL0     H84452   4.692   3.725   7.316  1.1038  0.6733 -0.3885
  626MOL0     H84453   4.898   3.616   7.396 -0.5307 -3.5700  0.0361
  626MOL0     H84454   4.845   3.656   7.560 -0.6338  2.7318 -1.4945
  626MOL0     H84455   4.624   3.538   7.514  2.0131  2.1037  2.0623
  626MOL0     H84456   4.704   3.463   7.371  0.3509 -0.8332 -0.4752
  626MOL0     H84457   4.859   3.362   7.547 -1.0121  1.3766 -3.2997
  626MOL0     H84458   4.807   3.475   7.668  1.1420 -0.4305  1.2848
  626MOL0     H84459   4.586   3.370   7.683  2.0032  1.9669  0.2477
  626MOL0     H84460   4.712   3.283   7.753  1.0946  2.1063 -0.9080
  626MOL0     H84461   4.858   3.097   7.544  0.9236 -6.0541 -3.2762
  626MOL0     H84462   4.871   2.950   7.347 -0.5641  0.7753 -1.8169
  626MOL0     H84463   4.761   2.826   7.409 -0.9983 -0.6454 -0.5985
  626MOL0     H84464   4.716   2.986   7.153 -2.8321  0.3952 -0.0205
  626MOL0     H84465   4.596   2.877   7.217 -0.5842  1.4157  0.2588
  626MOL0     H84466   4.752   2.689   7.205  0.7116 -0.5647 -1.4870
  626MOL0     H84467   4.878   2.802   7.129 -0.5742  3.4720 -0.8835
  626MOL0     H84468   4.600   2.747   7.038  0.1971  1.4430  0.9932
  626MOL0     H84469   4.749   2.648   6.988 -2.2589 -0.3639 -2.3562
  626MOL0     H84470   4.843   2.967   6.721 -2.4739  1.5671 -0.6105
  626MOL0     H84471   4.839   2.999   6.400  0.3822 -1.6591 -0.7646
  626MOL0     H84472   4.952   3.013   6.538  1.2452  0.9702 -0.5769
  626MOL0     H84473   4.985   2.892   6.420  0.3925  2.0790 -1.4047
  626MOL0     H84474   4.476   2.616   6.211 -0.6074  1.3398 -2.4812
  626MOL0     H84475   4.442   2.587   5.964  1.0959  1.6549  0.4906
  626MOL0     H84476   4.511   2.307   5.709 -1.4543  1.3171 -0.8482
  626MOL0     H84477   4.442   2.363   5.862  1.7221  1.1804  1.3229
  626MOL0     H84478   4.296   2.456   5.673  0.1252 -1.9362  2.4185
  626MOL0     H84479   4.379   2.586   5.759  0.3584 -0.4711  0.7953
  626MOL0     H84480   4.558   2.566   5.558 -0.4906 -2.1318 -2.1275
  626MOL0     H84481   4.416   2.662   5.544  4.5370  2.2495  2.4955
  626MOL0     H84482   4.445   2.369   5.452 -3.5623 -0.9842 -1.1927
  626MOL0     H84483   4.295   2.457   5.449 -0.5302  2.1694 -0.7916
  626MOL0     H84484   4.534   2.549   5.288  0.2772 -1.0385  2.1516
  626MOL0     H84485   4.370   2.626   5.301  0.0187 -0.4198  0.1436
  626MOL0     H84486   4.421   2.330   5.234 -3.7216 -1.2060  1.5297
  626MOL0     H84487   4.268   2.415   5.220  0.8771 -0.6148  2.4003
  626MOL0     H84488   4.498   2.487   5.034  0.5340 -1.5052  1.0859
  626MOL0     H84489   4.337   2.548   5.039 -2.1264 -1.1438  1.0319
  626MOL0     H84490   4.395   2.252   4.975  0.9908 -0.0788  0.7394
  626MOL0     H84491   4.371   2.386   4.862 -1.5954 -3.8410 -0.9487
  626MOL0     H84492   4.830   2.375   5.958  3.0254  0.1016  3.5593
  626MOL0     H84493   4.858   2.414   6.187  1.2485 -0.0580 -1.7132
  626MOL0     H84494   4.610   2.569   6.561  1.8572 -0.9032 -1.3974
  626MOL0     H84495   4.603   2.613   6.795  1.1475 -1.5487  0.2754
  626MOL0     H84496   4.987   4.315   7.543 -2.8622  0.0915  2.1500
  626MOL0     H84497   5.079   4.525   7.422  0.6052  0.7390 -1.3083
  626MOL0     H84498   4.941   4.933   6.958  0.0776  0.3606  2.1438
  626MOL0     H84499   5.106   5.081   6.889 -1.2636 -1.3839 -2.1729
  626MOL0     H84500   5.276   5.205   6.887  0.5275  2.1531  0.6383
  626MOL0     H84501   5.461   5.216   6.860  2.3111 -3.6862 -2.9101
  626MOL0     H84502   5.311   5.049   6.677  0.1026 -0.6745  2.4246
  626MOL0     H84503   5.466   5.103   6.653 -0.7405 -1.9088 -0.3911
  626MOL0     H84504   5.223   5.286   6.673  2.1327  2.1909  3.1171
  626MOL0     H84505   5.310   5.252   6.522  2.5317 -2.6021 -0.0089
  626MOL0     H84506   5.513   5.371   6.602  0.1448  0.6226 -0.0915
  626MOL0     H84507   5.438   5.414   6.759  1.6268  1.1266 -1.3478
  626MOL0     H84508   5.240   5.672   6.478 -2.4140 -2.3558 -1.1409
  626MOL0     H84509   5.417   4.789   6.990 -0.2583 -2.4997 -0.8124
  626MOL0     H84510   5.246   4.654   7.102 -1.0013 -1.6561 -1.0685
  627MOL0     O84511   3.794  10.509   1.100 -0.3277  0.1041  0.2961
  627MOL0     C84512   3.673  10.482   1.103  0.2741  0.3982 -1.2289
  627MOL0     O84513   3.581  10.505   1.007 -0.3754  0.6914 -0.1125
  627MOL0     C84514   3.622  10.575   0.896 -0.4076 -0.3965 -0.1321
  627MOL0     C84515   3.550  10.697   0.877 -0.1178  1.0038  0.2265
  627MOL0     C84516   3.571  10.768   0.753 -0.2571 -0.1368 -0.2427
  627MOL0     C84517   3.663  10.719   0.663 -0.1121  0.9157  0.2048
  627MOL0     O84518   3.684  10.788   0.548  0.0971 -0.2676  0.1234
  627MOL0     C84519   3.581  10.787   0.450 -0.8977 -0.3871  0.0452
  627MOL0     C84520   3.552  10.652   0.389 -0.0549 -0.3730 -0.4219
  627MOL0     C84521   3.652  10.602   0.294 -0.0405  0.3777  0.2144
  627MOL0     C84522   3.627  10.458   0.254 -0.2840 -0.4427 -0.1862
  627MOL0     C84523   3.769  10.393   0.218  0.0263 -0.4916 -0.4748
  627MOL0     C84524   3.851  10.460   0.105 -0.2472  0.3700  0.5818
  627MOL0     C84525   3.940  10.363   0.038 -0.0534  0.2813  0.5597
  627MOL0     C84526   3.873  10.289  -0.079 -0.0427 -0.0080  0.5415
  627MOL0     N84527   3.953  10.176  -0.121 -0.0303 -0.1519 -0.3451
  627MOL0     C84528   3.906  10.046  -0.134  0.0746  0.9064 -0.1978
  627MOL0     C84529   3.995   9.968  -0.185 -0.7789  0.1871  0.6897
  627MOL0     C84530   3.994   9.826  -0.230 -0.8921  0.2220 -0.1367
  627MOL0     C84531   4.116   9.746  -0.208  0.2771  1.1601  0.0766
  627MOL0     C84532   4.171   9.742  -0.059 -0.5228  0.0325 -0.0882
  627MOL0     C84533   4.114   9.627   0.020  0.3932  0.1555 -0.4671
  627MOL0     O84534   3.969   9.630   0.040 -0.3031  0.0386 -0.2531
  627MOL0     C84535   3.927   9.524   0.121 -0.5145  0.7126 -0.5995
  627MOL0     C84536   3.913   9.542   0.257 -0.0355  0.4329  0.9337
  627MOL0     C84537   3.871   9.435   0.352 -0.2146  1.2073  0.5056
  627MOL0     C84538   3.868   9.470   0.491 -0.1286  0.9602  0.3362
  627MOL0     C84539   3.841   9.313   0.297 -0.1370 -0.2627 -0.0851
  627MOL0     C84540   3.788   9.200   0.380 -0.4185 -0.0254  0.1859
  627MOL0     O84541   3.840   9.081   0.341  0.0977 -0.4756  0.1481
  627MOL0     C84542   3.777   8.972   0.400  0.6144 -0.0670  0.6892
  627MOL0     C84543   3.825   8.923   0.518 -0.2373 -0.1997  0.2801
  627MOL0     C84544   3.785   8.798   0.580 -0.5479  0.2923 -0.5090
  627MOL0     C84545   3.677   8.734   0.522 -0.3912 -0.6175  0.4791
  627MOL0     O84546   3.638   8.621   0.591 -0.1718 -0.1078  0.4267
  627MOL0     C84547   3.539   8.535   0.532 -0.3061 -0.4891 -0.6657
  627MOL0     C84548   3.527   8.424   0.623  0.7811 -0.3467 -0.1559
  627MOL0     C84549   3.442   8.311   0.565  1.0566 -1.3099  0.4510
  627MOL0     C84550   3.292   8.334   0.575  0.5753 -0.3178  0.3826
  627MOL0     C84551   3.258   8.363   0.728  0.3774 -0.0555  0.7745
  627MOL0     C84552   3.317   8.262   0.830 -0.3255 -0.2220  1.2275
  627MOL0     C84553   3.267   8.294   0.968 -1.2737 -0.2730  0.2892
  627MOL0     C84554   3.124   8.230   1.003  0.2043 -0.7785 -0.8700
  627MOL0    Cl84555   3.104   8.229   1.181  0.1105 -0.1784 -0.3702
  627MOL0     C84556   3.622   8.777   0.396 -0.8674 -0.6428  0.5539
  627MOL0     C84557   3.673   8.896   0.340 -1.3477 -0.0368  0.5030
  627MOL0     O84558   3.689   9.213   0.453  0.6468 -0.3134  0.2848
  627MOL0     C84559   3.853   9.294   0.151  0.3020 -1.0642  0.4546
  627MOL0     C84560   3.886   9.400   0.064 -0.5342  0.3160  0.0536
  627MOL0     N84561   4.110  10.042  -0.203 -0.5428  0.2044  0.2514
  627MOL0     N84562   4.088  10.160  -0.159  0.4516  0.1375 -0.8581
  627MOL0     C84563   3.734  10.599   0.686  0.5419  0.4324 -0.7038
  627MOL0     C84564   3.717  10.525   0.798  0.4607 -0.2351 -0.1435
  627MOL0     C84565   3.636  10.387   1.210  0.5637 -0.0600 -0.0250
  627MOL0     C84566   3.527  10.295   1.188  0.0289  0.5010  0.0037
  627MOL0     C84567   3.488  10.212   1.293 -0.3954  0.6717  0.2840
  627MOL0     C84568   3.552  10.211   1.415  0.3797 -0.1625 -0.1880
  627MOL0     O84569   3.519  10.123   1.516 -0.4686  0.5449 -0.5670
  627MOL0     C84570   3.635  10.060   1.581  0.0540 -0.2721  0.3522
  627MOL0     C84571   3.588   9.940   1.668 -0.3522  0.1247  0.3407
  627MOL0     C84572   3.535   9.836   1.565  0.3644 -0.4066  0.4801
  627MOL0     C84573   3.555   9.690   1.586  0.6296 -0.6704  0.2895
  627MOL0     C84574   3.494   9.650   1.714 -0.6508  0.1809  0.3993
  627MOL0     C84575   3.453   9.637   1.832  1.0578 -0.3600 -0.1361
  627MOL0     C84576   3.653  10.307   1.437 -0.5709 -0.5918  0.5880
  627MOL0     C84577   3.696  10.403   1.335  0.0812  0.5542 -0.9275
  627MOL0     H84578   3.483  10.733   0.955 -0.2865 -1.1824  1.1818
  627MOL0     H84579   3.509  10.856   0.737  0.4464  0.2474 -0.8772
  627MOL0     H84580   3.498  10.823   0.511 -1.1702  0.9420 -1.0612
  627MOL0     H84581   3.606  10.852   0.366  3.0699 -2.5918 -0.7074
  627MOL0     H84582   3.552  10.584   0.474  1.4540  0.3941  0.2320
  627MOL0     H84583   3.452  10.645   0.344  0.4960  1.2361 -2.0553
  627MOL0     H84584   3.651  10.660   0.201  1.3275  1.0148  0.5725
  627MOL0     H84585   3.749  10.603   0.345 -1.1569  2.1151  2.5133
  627MOL0     H84586   3.581  10.390   0.327  1.9912 -2.3775 -0.4219
  627MOL0     H84587   3.547  10.466   0.180  2.8108  2.6827 -3.5754
  627MOL0     H84588   3.832  10.366   0.303  1.6301 -0.4392 -1.5984
  627MOL0     H84589   3.742  10.295   0.177  1.3519 -0.9494 -0.2882
  627MOL0     H84590   3.788  10.515   0.034  0.4924  1.1038  0.4778
  627MOL0     H84591   3.903  10.544   0.151 -0.7112  1.7852 -1.3086
  627MOL0     H84592   4.037  10.408   0.015 -0.0857 -0.6196 -1.5045
  627MOL0     H84593   3.963  10.278   0.104  1.2122 -1.3494 -1.8220
  627MOL0     H84594   3.868  10.346  -0.173 -0.8269 -3.9565 -2.0527
  627MOL0     H84595   3.772  10.257  -0.051 -1.4326  4.4746  1.4893
  627MOL0     H84596   3.800  10.025  -0.125  0.0748  0.6432 -0.7278
  627MOL0     H84597   3.909   9.770  -0.190  0.4023 -1.9514 -0.3325
  627MOL0     H84598   3.971   9.822  -0.336 -1.6932 -1.3502  0.0690
  627MOL0     H84599   4.205   9.801  -0.240  1.3528  1.1664  2.8051
  627MOL0     H84600   4.109   9.645  -0.248  1.8719 -0.4964  3.5540
  627MOL0     H84601   4.161   9.836  -0.004  0.0792 -0.1067  0.2769
  627MOL0     H84602   4.277   9.713  -0.064 -0.7007 -0.4068 -1.6455
  627MOL0     H84603   4.164   9.617   0.117  1.3885  0.8255 -0.8938
  627MOL0     H84604   4.139   9.541  -0.043 -1.5323 -0.6676 -0.1981
  627MOL0     H84605   3.952   9.635   0.296 -0.1788  0.8657  0.0673
  627MOL0     H84606   3.894   9.575   0.504  1.9896  0.7565 -1.7330
  627MOL0     H84607   3.761   9.458   0.513 -0.3896 -0.2165 -1.4108
  627MOL0     H84608   3.926   9.405   0.557 -2.4190 -0.4417  1.0976
  627MOL0     H84609   3.908   8.982   0.557  0.1501 -0.0945 -0.6577
  627MOL0     H84610   3.840   8.765   0.668  0.5259  1.6159 -0.6609
  627MOL0     H84611   3.436   8.572   0.522 -1.1553 -2.3255  0.6845
  627MOL0     H84612   3.573   8.495   0.436  1.5417 -3.4147  1.0967
  627MOL0     H84613   3.625   8.378   0.637 -0.0844 -3.0741 -2.2887
  627MOL0     H84614   3.492   8.455   0.723 -1.1811 -3.0786  0.1124
  627MOL0     H84615   3.477   8.229   0.628  1.3531 -1.2850  0.3185
  627MOL0     H84616   3.465   8.280   0.463 -1.3230  0.4615 -0.7067
  627MOL0     H84617   3.260   8.417   0.512  3.6323  1.3468  0.8266
  627MOL0     H84618   3.245   8.244   0.534 -0.3122 -1.6042  3.8822
  627MOL0     H84619   3.149   8.367   0.736 -0.0143 -2.8899 -1.5646
  627MOL0     H84620   3.290   8.466   0.749 -2.4143  1.1743 -0.4382
  627MOL0     H84621   3.312   8.156   0.805  0.2275 -0.5766  2.5431
  627MOL0     H84622   3.423   8.288   0.831 -0.7473  1.7005  0.4609
  627MOL0     H84623   3.274   8.401   0.985 -0.2752 -0.3380  0.3728
  627MOL0     H84624   3.345   8.234   1.017  0.4864  0.4865 -1.4079
  627MOL0     H84625   3.130   8.125   0.973 -3.4574 -0.8578 -1.7206
  627MOL0     H84626   3.036   8.280   0.963  1.3748  2.2854  0.0463
  627MOL0     H84627   3.545   8.711   0.358 -2.4186  0.4967  1.6011
  627MOL0     H84628   3.627   8.933   0.248 -3.0708 -1.0018  0.9252
  627MOL0     H84629   3.825   9.198   0.108  0.0133 -0.5404 -0.5402
  627MOL0     H84630   3.869   9.403  -0.043  0.0041  0.2476 -0.0374
  627MOL0     H84631   3.797  10.559   0.608 -2.6955 -2.0983 -2.2540
  627MOL0     H84632   3.775  10.436   0.821  0.6431 -0.2280 -0.5863
  627MOL0     H84633   3.478  10.294   1.091  0.6416  3.7515 -0.4467
  627MOL0     H84634   3.407  10.145   1.268 -0.4640  0.5702  0.7696
  627MOL0     H84635   3.697  10.018   1.501  0.0883 -2.7249  1.5796
  627MOL0     H84636   3.686  10.127   1.652  1.0233 -1.3896  0.7385
  627MOL0     H84637   3.516   9.965   1.747  1.2998 -0.4621  2.1033
  627MOL0     H84638   3.678   9.904   1.718 -0.1767  0.5531  0.3365
  627MOL0     H84639   3.571   9.848   1.463  4.3749  1.4642  1.9401
  627MOL0     H84640   3.425   9.839   1.565  0.3196 -0.8146  2.2277
  627MOL0     H84641   3.662   9.665   1.585  0.2542 -2.3780 -0.1091
  627MOL0     H84642   3.515   9.637   1.500  0.9155  1.2065 -1.0838
  627MOL0     H84643   3.419   9.621   1.933  1.2577  0.4039  0.0571
  627MOL0     H84644   3.680  10.333   1.539 -0.2517 -1.3910  0.7112
  627MOL0     H84645   3.758  10.486   1.366 -1.8574  1.3147  1.1297
  628MOL0     O84646   6.178   4.594  10.021  0.3711  0.2460 -0.2600
  628MOL0     C84647   6.269   4.609   9.932 -0.3392 -0.1382  0.1836
  628MOL0     O84648   6.374   4.518   9.901 -0.0642  0.1185  0.6680
  628MOL0     C84649   6.414   4.400   9.959  0.5587 -0.3555  0.0821
  628MOL0     C84650   6.361   4.340  10.073 -0.2741  0.0283 -0.7867
  628MOL0     C84651   6.407   4.218  10.128 -0.5362  0.7496 -0.7288
  628MOL0     C84652   6.499   4.138  10.061  0.4191 -0.2410  0.4142
  628MOL0     O84653   6.529   4.016  10.111 -0.0089 -0.0094 -0.5794
  628MOL0     C84654   6.458   3.913  10.044  0.7300 -0.4981  0.9770
  628MOL0     C84655   6.539   3.784  10.067  0.3174  0.0371  0.4933
  628MOL0     C84656   6.511   3.740  10.204 -0.3468  0.6205  0.1212
  628MOL0     C84657   6.601   3.627  10.241 -0.6412  0.2284  0.7104
  628MOL0     C84658   6.567   3.563  10.370  0.0373 -0.0289 -0.7373
  628MOL0     C84659   6.692   3.500  10.440 -0.5336 -0.6846 -0.4145
  628MOL0     C84660   6.674   3.474  10.589 -0.2129  0.5113 -0.7452
  628MOL0     C84661   6.580   3.356  10.600 -0.7818  0.0277  0.1651
  628MOL0     N84662   6.529   3.322  10.729 -0.4572  0.2077 -0.2868
  628MOL0     C84663   6.598   3.333  10.851  0.3143  0.4667 -0.5074
  628MOL0     C84664   6.498   3.315  10.943  0.6113 -1.7199 -0.9707
  628MOL0     C84665   6.519   3.308  11.098 -0.3207 -0.2140  0.8214
  628MOL0     C84666   6.583   3.435  11.153 -0.1598  0.4503  0.0319
  628MOL0     C84667   6.605   3.431  11.300  1.0137  0.6837 -0.3024
  628MOL0     C84668   6.477   3.442  11.375 -0.3041  0.3897 -0.5287
  628MOL0     O84669   6.504   3.434  11.521 -0.4646  0.1413  0.2796
  628MOL0     C84670   6.411   3.405  11.615 -0.8517 -0.0049 -1.6531
  628MOL0     C84671   6.471   3.390  11.743 -0.3070 -0.3017  0.2161
  628MOL0     C84672   6.388   3.364  11.853 -0.8736 -0.8002  0.0085
  628MOL0     C84673   6.462   3.379  11.985  0.1461 -0.0598  0.3967
  628MOL0     C84674   6.255   3.338  11.846 -0.8806 -0.3206 -0.0896
  628MOL0     C84675   6.168   3.319  11.965 -0.6697  0.1527  0.1910
  628MOL0     O84676   6.082   3.215  11.956 -0.0716 -0.2521 -0.2907
  628MOL0     C84677   6.011   3.179  12.066 -0.8560  0.0507  0.5812
  628MOL0     C84678   6.077   3.137  12.185  1.2553  0.0836  0.4130
  628MOL0     C84679   5.992   3.100  12.297 -0.7666  0.5393 -0.0236
  628MOL0     C84680   5.849   3.102  12.288 -0.0344 -0.2538 -0.5166
  628MOL0     O84681   5.773   3.085  12.404 -1.2772  0.0488 -0.8369
  628MOL0     C84682   5.634   3.069  12.387  0.3255 -0.6526 -0.0606
  628MOL0     C84683   5.565   3.055  12.524 -0.3546  0.3582  0.4804
  628MOL0     C84684   5.562   2.913  12.582  0.2695  0.2395  0.0234
  628MOL0     C84685   5.489   2.909  12.721  1.0529  0.2220 -0.6875
  628MOL0     C84686   5.597   2.916  12.829  0.3495  0.4637 -0.0887
  628MOL0     C84687   5.542   2.897  12.975  0.1907 -1.0979  0.7313
  628MOL0     C84688   5.490   3.035  13.024 -0.9527  0.5692  0.3505
  628MOL0     C84689   5.382   3.035  13.133 -0.1456  0.2289 -0.3185
  628MOL0    Cl84690   5.228   2.954  13.070  0.5767 -0.6365  0.0060
  628MOL0     C84691   5.795   3.116  12.158  0.3260  0.8171  0.1034
  628MOL0     C84692   5.877   3.150  12.046  0.3621 -0.3458  1.0351
  628MOL0     O84693   6.180   3.397  12.061  0.0903  0.4852  0.5004
  628MOL0     C84694   6.201   3.337  11.718 -0.1664  0.7482  0.7696
  628MOL0     C84695   6.275   3.386  11.606  1.1059 -0.9807 -1.0238
  628MOL0     N84696   6.371   3.273  10.886 -1.3708 -0.7661 -0.1390
  628MOL0     N84697   6.397   3.286  10.756 -0.2712 -1.0740 -0.0955
  628MOL0     C84698   6.556   4.193   9.948  0.0217  0.4326  0.4777
  628MOL0     C84699   6.513   4.319   9.896 -0.0469  0.3733  0.0563
  628MOL0     C84700   6.250   4.722   9.841 -0.7043 -1.1984  0.0494
  628MOL0     C84701   6.314   4.727   9.713 -0.4275 -0.8260 -0.7988
  628MOL0     C84702   6.296   4.839   9.632  0.3733 -0.0042  0.6452
  628MOL0     C84703   6.234   4.959   9.675  0.4420 -0.5487  0.2754
  628MOL0     O84704   6.234   5.065   9.598 -1.0291 -1.1207  0.7081
  628MOL0     C84705   6.113   5.135   9.593 -0.6343 -0.9681 -0.4073
  628MOL0     C84706   6.014   5.074   9.502  0.3716  0.0754 -0.7601
  628MOL0     C84707   5.878   5.144   9.483  0.8738 -0.7891  0.1718
  628MOL0     C84708   5.779   5.077   9.387  0.5439  0.0594  1.0431
  628MOL0     C84709   5.814   5.077   9.242  0.5501  0.3867 -0.4373
  628MOL0     C84710   5.844   5.072   9.122 -0.4849 -0.2672 -0.2397
  628MOL0     C84711   6.166   4.951   9.802 -0.1793 -0.1464  0.7175
  628MOL0     C84712   6.165   4.829   9.876 -1.2158 -0.2445  0.4035
  628MOL0     H84713   6.282   4.382  10.134  0.8341  2.9811 -1.2433
  628MOL0     H84714   6.380   4.197  10.231  0.6643 -2.0610 -0.9010
  628MOL0     H84715   6.358   3.909  10.089 -0.0336 -2.2391 -0.7311
  628MOL0     H84716   6.444   3.931   9.937  2.6499 -3.0557  0.2049
  628MOL0     H84717   6.508   3.713   9.990  0.0120 -0.2271  0.8561
  628MOL0     H84718   6.646   3.806  10.055 -0.2453  2.9703  0.0236
  628MOL0     H84719   6.532   3.819  10.277 -0.4499  0.5370  0.2406
  628MOL0     H84720   6.411   3.695  10.207 -0.3183  0.3284 -1.9458
  628MOL0     H84721   6.604   3.539  10.175 -1.1066  0.1921  0.7339
  628MOL0     H84722   6.708   3.648  10.239 -0.7482  0.8126 -1.0114
  628MOL0     H84723   6.522   3.641  10.432  1.7694  1.3998 -1.2015
  628MOL0     H84724   6.491   3.485  10.363 -0.9480  0.7312  0.9030
  628MOL0     H84725   6.730   3.410  10.390 -3.1462 -0.7727 -2.4593
  628MOL0     H84726   6.772   3.574  10.426  1.3038 -2.8179 -1.9051
  628MOL0     H84727   6.770   3.451  10.635 -1.5577 -1.8212  1.0920
  628MOL0     H84728   6.634   3.567  10.630  1.1962  1.1810 -0.8434
  628MOL0     H84729   6.628   3.269  10.555 -0.3967  0.1118  0.4181
  628MOL0     H84730   6.489   3.366  10.539 -1.7680  0.8684  1.7192
  628MOL0     H84731   6.702   3.351  10.874  0.2292  1.9419 -1.1259
  628MOL0     H84732   6.418   3.316  11.137 -0.3508 -0.5380  0.8093
  628MOL0     H84733   6.579   3.220  11.120  2.4859  2.1573  3.7202
  628MOL0     H84734   6.521   3.522  11.133  0.1202  1.0409  1.6246
  628MOL0     H84735   6.684   3.454  11.115  0.1539  0.0243  0.6285
  628MOL0     H84736   6.686   3.499  11.328  1.6376  0.4767 -1.5119
  628MOL0     H84737   6.647   3.332  11.322 -0.1391  0.4059  0.7656
  628MOL0     H84738   6.405   3.361  11.361 -0.1578 -0.5996  3.2743
  628MOL0     H84739   6.427   3.532  11.337 -0.0378  0.2511 -1.2160
  628MOL0     H84740   6.573   3.425  11.753  0.0230 -0.5689 -1.8286
  628MOL0     H84741   6.425   3.300  12.051  0.1264 -1.4197 -1.1743
  628MOL0     H84742   6.568   3.358  11.973  0.6598  1.8566  1.1659
  628MOL0     H84743   6.447   3.478  12.029 -2.8565  0.0610 -0.6306
  628MOL0     H84744   6.184   3.135  12.197  1.4448  0.1751 -1.1185
  628MOL0     H84745   6.043   3.069  12.388  0.4297  0.2246 -0.7624
  628MOL0     H84746   5.591   3.161  12.347 -0.0725 -1.2631 -1.0764
  628MOL0     H84747   5.602   2.986  12.323 -0.2829 -0.9185  0.5658
  628MOL0     H84748   5.598   3.145  12.576  3.5733  0.9517 -2.5906
  628MOL0     H84749   5.462   3.085  12.501 -0.6115  0.1867  1.3872
  628MOL0     H84750   5.664   2.874  12.585  0.5402  0.9960  1.3575
  628MOL0     H84751   5.501   2.853  12.514 -1.5357  0.8286  1.0464
  628MOL0     H84752   5.418   2.991  12.736 -0.9800 -1.5465 -0.2327
  628MOL0     H84753   5.429   2.822  12.747 -0.0074  1.1604  0.1001
  628MOL0     H84754   5.651   3.012  12.825  1.9134 -0.3944 -0.6013
  628MOL0     H84755   5.674   2.842  12.807 -0.2087 -0.3687  0.6915
  628MOL0     H84756   5.460   2.825  12.975 -1.1326  0.3677  0.2661
  628MOL0     H84757   5.631   2.875  13.036  0.9321 -0.9364 -0.2697
  628MOL0     H84758   5.448   3.093  12.942  1.6818  0.3003 -1.3197
  628MOL0     H84759   5.578   3.082  13.068 -0.6800  0.5526 -0.1737
  628MOL0     H84760   5.353   3.138  13.158 -0.1771  0.7362 -2.2990
  628MOL0     H84761   5.414   2.988  13.226 -0.6097  0.6716  0.0715
  628MOL0     H84762   5.687   3.116  12.142  0.3151  0.2963  0.1537
  628MOL0     H84763   5.824   3.172  11.953  1.6025  0.5458  0.5077
  628MOL0     H84764   6.098   3.307  11.702 -0.2794  1.5990 -0.2070
  628MOL0     H84765   6.226   3.397  11.509  3.7548  0.5841 -2.3203
  628MOL0     H84766   6.634   4.126   9.915  0.4367  0.2807  1.6914
  628MOL0     H84767   6.548   4.352   9.799  0.5685 -0.4948 -0.0303
  628MOL0     H84768   6.371   4.645   9.671  5.8548  2.6876 -0.3479
  628MOL0     H84769   6.348   4.820   9.538  2.0753 -2.9761  2.0195
  628MOL0     H84770   6.051   5.140   9.682  0.0004  4.2405  0.0105
  628MOL0     H84771   6.137   5.237   9.562 -3.0859  0.2020  1.2951
  628MOL0     H84772   5.997   4.970   9.531 -1.9561 -0.5391 -3.7868
  628MOL0     H84773   6.055   5.068   9.400 -0.5106 -0.3644 -1.0958
  628MOL0     H84774   5.888   5.248   9.450 -1.0107 -0.1654  1.4469
  628MOL0     H84775   5.835   5.135   9.583  2.3535 -0.2966  0.8839
  628MOL0     H84776   5.684   5.124   9.412  0.6716 -0.4027  2.5176
  628MOL0     H84777   5.762   4.971   9.409  1.1713 -0.8001 -2.0669
  628MOL0     H84778   5.852   5.046   9.019 -0.0125 -1.0177 -0.0225
  628MOL0     H84779   6.104   5.030   9.843 -1.5369 -0.4838 -0.6214
  628MOL0     H84780   6.122   4.814   9.975  0.8307 -0.4083  1.3110
  629MOL0     O84781   0.789   6.170   7.276 -0.5861 -1.0968  1.0417
  629MOL0     C84782   0.878   6.269   7.285  0.7833 -0.1454 -0.2766
  629MOL0     O84783   1.003   6.277   7.232  0.6402  0.0067  0.3429
  629MOL0     C84784   1.068   6.171   7.152  0.7310  0.0978  0.2085
  629MOL0     C84785   1.206   6.169   7.155  0.4094 -0.4632 -0.0669
  629MOL0     C84786   1.279   6.065   7.090  0.2861  0.8493 -0.3055
  629MOL0     C84787   1.217   5.959   7.027 -0.0199  0.4914 -0.5253
  629MOL0     O84788   1.295   5.857   6.976 -0.0150  0.3177 -0.1491
  629MOL0     C84789   1.209   5.747   6.924 -0.0330  0.1952 -0.3191
  629MOL0     C84790   1.276   5.630   6.845 -0.1741 -0.9561  0.1034
  629MOL0     C84791   1.317   5.513   6.936  0.6387  0.6156  0.6638
  629MOL0     C84792   1.377   5.563   7.069 -0.7009 -0.0721  0.2761
  629MOL0     C84793   1.425   5.439   7.144  0.2866  0.6981  0.7014
  629MOL0     C84794   1.560   5.392   7.096 -0.2491 -0.0794 -0.6111
  629MOL0     C84795   1.627   5.312   7.214 -0.1072 -0.1535 -1.3738
  629MOL0     C84796   1.715   5.411   7.294 -0.7850  0.3633  0.1717
  629MOL0     N84797   1.799   5.359   7.401  0.8764  0.3491 -0.4118
  629MOL0     C84798   1.906   5.282   7.391 -0.3999 -0.3036 -0.5101
  629MOL0     C84799   1.955   5.286   7.517  0.0777  0.0923 -0.5061
  629MOL0     C84800   2.074   5.195   7.563 -0.4145 -1.2795  0.3465
  629MOL0     C84801   2.168   5.267   7.666 -0.5171 -0.0709  0.5552
  629MOL0     C84802   2.286   5.183   7.707  0.2624 -0.0784  0.0758
  629MOL0     C84803   2.232   5.043   7.745 -0.2900  1.1472 -0.7545
  629MOL0     O84804   2.322   4.959   7.817  0.0870  0.2458  0.7771
  629MOL0     C84805   2.344   4.991   7.953  1.0452  0.1978  0.1083
  629MOL0     C84806   2.449   4.907   8.013  0.4492 -0.3924  0.0319
  629MOL0     C84807   2.502   4.930   8.140 -0.1962  0.6935  0.0418
  629MOL0     C84808   2.615   4.842   8.195  0.3968  0.1625  0.1321
  629MOL0     C84809   2.446   5.041   8.208  0.0860 -0.4931 -0.8414
  629MOL0     C84810   2.496   5.090   8.341 -0.6921 -0.2403 -0.2597
  629MOL0     O84811   2.448   5.208   8.380  0.7561 -0.3872 -0.1167
  629MOL0     C84812   2.495   5.246   8.507  0.4429 -0.6000  0.5033
  629MOL0     C84813   2.607   5.326   8.521 -0.4834  0.9170 -0.5684
  629MOL0     C84814   2.666   5.354   8.646 -0.7125 -0.0369  0.6145
  629MOL0     C84815   2.609   5.307   8.763 -0.2823  0.0066 -1.1927
  629MOL0     O84816   2.644   5.327   8.899  0.4760  0.0750 -0.0667
  629MOL0     C84817   2.774   5.349   8.933  0.4529 -0.0258  0.5483
  629MOL0     C84818   2.789   5.424   9.067  0.2053 -1.1481  0.4988
  629MOL0     C84819   2.922   5.396   9.133  0.4222  0.0703 -0.1426
  629MOL0     C84820   3.035   5.455   9.050 -0.1065 -0.2045  0.5966
  629MOL0     C84821   3.158   5.476   9.147  0.3820 -0.7946 -0.9150
  629MOL0     C84822   3.257   5.571   9.075  0.2559  0.2217 -0.8293
  629MOL0     C84823   3.371   5.603   9.177 -1.3252  0.3039 -0.1544
  629MOL0     C84824   3.395   5.749   9.202  0.3418  0.1800 -0.1892
  629MOL0    Cl84825   3.430   5.835   9.053 -0.2269  0.3689  0.0734
  629MOL0     C84826   2.483   5.234   8.753  0.4658 -0.1787 -0.5448
  629MOL0     C84827   2.432   5.199   8.624 -0.2622 -0.2632 -0.1680
  629MOL0     O84828   2.570   5.024   8.410 -0.1050  0.4150  0.3760
  629MOL0     C84829   2.343   5.122   8.151  0.0954  0.0155 -0.0923
  629MOL0     C84830   2.293   5.099   8.023  0.2834  0.5193 -0.5364
  629MOL0     N84831   1.872   5.348   7.603 -0.4655 -0.0852  0.5687
  629MOL0     N84832   1.776   5.395   7.528  0.0882 -0.8464 -0.5119
  629MOL0     C84833   1.077   5.950   7.034 -0.0419 -0.3328 -0.4933
  629MOL0     C84834   1.003   6.055   7.094 -0.3421  0.2577  0.1781
  629MOL0     C84835   0.845   6.377   7.377  0.8213  1.2092 -0.7778
  629MOL0     C84836   0.942   6.444   7.448  0.6038 -0.6100 -0.3381
  629MOL0     C84837   0.905   6.547   7.531 -0.0521 -0.7754 -0.2821
  629MOL0     C84838   0.770   6.590   7.550 -0.3279 -0.8743  0.2661
  629MOL0     O84839   0.740   6.700   7.626  0.4323 -0.6351 -0.8519
  629MOL0     C84840   0.856   6.782   7.670  0.5948 -0.4247  0.4626
  629MOL0     C84841   0.811   6.902   7.745  0.5551  0.3439 -0.4966
  629MOL0     C84842   0.727   6.994   7.660  0.2533  0.1481  0.5940
  629MOL0     C84843   0.674   7.115   7.735 -0.1596  0.3097 -0.3354
  629MOL0     C84844   0.604   7.188   7.645  0.4947 -0.5731  0.4341
  629MOL0     C84845   0.539   7.244   7.558  0.2521  0.4188 -0.0397
  629MOL0     C84846   0.676   6.510   7.485 -0.1528 -0.1019 -0.9177
  629MOL0     C84847   0.706   6.402   7.402 -0.9376  0.0467  0.1484
  629MOL0     H84848   1.262   6.252   7.198 -1.9120  1.6923 -0.9588
  629MOL0     H84849   1.387   6.078   7.087  0.1972  1.6459 -0.2018
  629MOL0     H84850   1.138   5.700   6.992 -0.2022 -2.8124 -2.3695
  629MOL0     H84851   1.145   5.778   6.841  0.3276  0.8538 -0.3566
  629MOL0     H84852   1.197   5.582   6.787 -1.3517 -0.0408  0.9107
  629MOL0     H84853   1.354   5.666   6.777  2.7750 -2.2216  2.6161
  629MOL0     H84854   1.222   5.468   6.966 -0.9985  2.5934 -1.2009
  629MOL0     H84855   1.369   5.438   6.876 -2.3477 -0.3069 -1.0147
  629MOL0     H84856   1.453   5.641   7.057 -0.2073 -0.7462 -1.1340
  629MOL0     H84857   1.297   5.611   7.127  0.0704  3.2755 -1.1556
  629MOL0     H84858   1.433   5.480   7.245  2.6315  3.3558 -0.4439
  629MOL0     H84859   1.357   5.354   7.150 -1.5398  2.1060  1.0037
  629MOL0     H84860   1.537   5.323   7.015  1.1706 -1.8891  0.4509
  629MOL0     H84861   1.620   5.476   7.060  0.6420  0.1248  1.2266
  629MOL0     H84862   1.559   5.256   7.279  3.8614 -0.6939  2.8241
  629MOL0     H84863   1.702   5.247   7.170  0.9007  1.5824 -2.3399
  629MOL0     H84864   1.647   5.493   7.322 -1.1198 -0.5804  2.3628
  629MOL0     H84865   1.795   5.451   7.231  0.6374  1.9251  2.8127
  629MOL0     H84866   1.955   5.236   7.306 -2.4623  0.1294 -2.0165
  629MOL0     H84867   2.024   5.114   7.616 -1.1322 -0.1661  1.4462
  629MOL0     H84868   2.125   5.159   7.474 -1.0217 -3.5959  0.8798
  629MOL0     H84869   2.117   5.283   7.762 -0.1300  1.4055  0.5482
  629MOL0     H84870   2.204   5.367   7.639  4.0187 -1.5101  0.3446
  629MOL0     H84871   2.347   5.221   7.790  2.5244 -2.3329 -0.4280
  629MOL0     H84872   2.360   5.191   7.626 -2.0800  0.3963 -2.1566
  629MOL0     H84873   2.210   4.983   7.656  0.6062  0.0296 -0.2644
  629MOL0     H84874   2.138   5.053   7.800  0.3842  0.0210  0.6738
  629MOL0     H84875   2.484   4.823   7.953  0.3030  1.3024 -2.5928
  629MOL0     H84876   2.649   4.769   8.120 -1.2939 -0.8704  0.3274
  629MOL0     H84877   2.693   4.909   8.231 -1.1075  2.1133 -0.1022
  629MOL0     H84878   2.585   4.782   8.282 -0.1076 -2.6031 -1.8043
  629MOL0     H84879   2.651   5.371   8.432 -2.4254  1.6456 -1.2336
  629MOL0     H84880   2.753   5.418   8.652  0.7800 -1.2467 -4.1072
  629MOL0     H84881   2.828   5.254   8.923  3.5675  1.7189 -0.4249
  629MOL0     H84882   2.827   5.414   8.863  0.0636  0.3185  0.5680
  629MOL0     H84883   2.778   5.530   9.043 -1.1847 -1.3142  0.3328
  629MOL0     H84884   2.714   5.406   9.145 -2.4097  1.1820 -1.2864
  629MOL0     H84885   2.938   5.289   9.154  1.4874  0.2376 -0.0347
  629MOL0     H84886   2.913   5.442   9.231  0.3951  2.6442 -1.2698
  629MOL0     H84887   3.070   5.405   8.959 -2.4071 -0.2259 -0.3371
  629MOL0     H84888   2.991   5.546   9.009 -0.4501  0.0269  1.4602
  629MOL0     H84889   3.204   5.381   9.177  2.0555  0.5244  0.9873
  629MOL0     H84890   3.125   5.530   9.237  1.0286  0.6332 -1.5009
  629MOL0     H84891   3.305   5.533   8.984 -0.7923  3.9747 -3.2018
  629MOL0     H84892   3.204   5.660   9.039  0.9794  0.8919 -0.2724
  629MOL0     H84893   3.459   5.549   9.139 -1.4542  0.2951 -0.4419
  629MOL0     H84894   3.343   5.555   9.271  1.4696 -0.5469  0.3451
  629MOL0     H84895   3.487   5.755   9.260 -0.4288 -0.3671  1.1340
  629MOL0     H84896   3.309   5.788   9.258  0.4516 -2.1818  1.8099
  629MOL0     H84897   2.426   5.200   8.839 -1.3714  0.7649 -1.3234
  629MOL0     H84898   2.342   5.139   8.608  0.6750 -2.4280  2.0207
  629MOL0     H84899   2.287   5.194   8.210  1.9664  0.8517  0.7347
  629MOL0     H84900   2.214   5.162   7.983 -1.7287 -1.7201 -0.3405
  629MOL0     H84901   1.013   5.865   7.013  0.7943 -1.0877 -0.0549
  629MOL0     H84902   0.896   6.041   7.107 -0.0606 -2.6058  0.0286
  629MOL0     H84903   1.047   6.419   7.445  2.3851  5.3010 -2.8728
  629MOL0     H84904   0.990   6.602   7.571 -0.9986 -0.4729  1.4344
  629MOL0     H84905   0.917   6.728   7.744  1.9907 -0.0773 -0.3901
  629MOL0     H84906   0.910   6.818   7.582 -0.7171  0.3618 -0.0409
  629MOL0     H84907   0.893   6.964   7.782  0.2240  3.5555 -4.3761
  629MOL0     H84908   0.744   6.872   7.826  0.4352 -0.5453 -0.9115
  629MOL0     H84909   0.644   6.933   7.625 -0.5484  2.2493 -1.3991
  629MOL0     H84910   0.779   7.027   7.570 -0.3269 -1.9844 -0.5860
  629MOL0     H84911   0.757   7.173   7.779  2.2526 -1.4591 -2.2432
  629MOL0     H84912   0.615   7.081   7.821  0.3275  2.6509  1.0192
  629MOL0     H84913   0.480   7.276   7.475  0.8705 -2.9530 -1.9589
  629MOL0     H84914   0.576   6.549   7.502  0.5962  1.9501 -0.9286
  629MOL0     H84915   0.624   6.346   7.358 -0.0349  0.4322 -2.1219
  630MOL0     O84916   6.551   1.674   9.306 -0.2540 -0.3721  0.4556
  630MOL0     C84917   6.588   1.556   9.282 -0.1179 -0.0249 -0.5490
  630MOL0     O84918   6.556   1.477   9.173 -0.1119  0.2265 -0.0512
  630MOL0     C84919   6.472   1.516   9.070 -0.1297  0.8454 -0.3474
  630MOL0     C84920   6.345   1.575   9.096 -1.0683 -0.4202  1.1302
  630MOL0     C84921   6.262   1.620   8.993 -0.2121  0.9206  0.1574
  630MOL0     C84922   6.293   1.596   8.860 -0.4866 -0.3007 -0.2204
  630MOL0     O84923   6.208   1.653   8.769 -0.8596 -0.2238  0.2196
  630MOL0     C84924   6.224   1.617   8.630 -0.3930 -0.1909 -0.0188
  630MOL0     C84925   6.104   1.688   8.566  0.5969 -0.1417 -0.0332
  630MOL0     C84926   5.973   1.622   8.583 -0.0376  0.4612  0.5064
  630MOL0     C84927   5.888   1.680   8.704 -1.1735  0.3188 -0.0154
  630MOL0     C84928   5.763   1.603   8.745  1.3780 -0.0945  0.4370
  630MOL0     C84929   5.680   1.659   8.856  0.7358  0.0059  0.5737
  630MOL0     C84930   5.567   1.556   8.881  0.3904  0.9469 -0.2641
  630MOL0     C84931   5.463   1.544   8.775  1.1945  0.2069 -0.3991
  630MOL0     N84932   5.343   1.499   8.844  0.2264  0.1234  0.1153
  630MOL0     C84933   5.318   1.364   8.848 -0.2186 -0.9590  0.2460
  630MOL0     C84934   5.191   1.362   8.882  0.2055  1.1842  0.7644
  630MOL0     C84935   5.115   1.237   8.873  0.4757  0.9631 -0.1568
  630MOL0     C84936   4.996   1.248   8.965 -0.0221 -0.5173 -0.0125
  630MOL0     C84937   4.942   1.113   9.001  0.1783  0.1631  0.3696
  630MOL0     C84938   4.808   1.110   9.075 -0.9057 -1.2248 -0.6336
  630MOL0     O84939   4.775   0.978   9.123 -0.7696  0.7473  0.5112
  630MOL0     C84940   4.704   0.970   9.240 -0.3296  0.0960  0.4685
  630MOL0     C84941   4.664   0.844   9.268 -0.0015  0.6397  0.5401
  630MOL0     C84942   4.574   0.815   9.371  0.1458  0.6276 -0.7080
  630MOL0     C84943   4.530   0.669   9.367  0.3619 -0.8427  0.6123
  630MOL0     C84944   4.533   0.912   9.466  0.2636  0.4148 -0.5978
  630MOL0     C84945   4.445   0.888   9.584  0.0791  0.3104 -0.4174
  630MOL0     O84946   4.401   1.001   9.647 -0.3746 -0.1522 -0.4013
  630MOL0     C84947   4.298   1.006   9.733 -0.1319 -0.0276  0.3226
  630MOL0     C84948   4.300   1.098   9.834 -0.1192  1.0034  0.1561
  630MOL0     C84949   4.188   1.125   9.916  0.3935 -0.2581 -0.8629
  630MOL0     C84950   4.067   1.049   9.898  0.1491  0.2937  0.5424
  630MOL0     O84951   3.956   1.054   9.976 -0.6644  0.7552 -0.0302
  630MOL0     C84952   3.960   1.123  10.103  0.8276  0.2181  0.4551
  630MOL0     C84953   3.824   1.101  10.165  0.3826 -0.2820  0.0856
  630MOL0     C84954   3.832   1.111  10.315  0.4353 -0.1740 -0.5750
  630MOL0     C84955   3.871   1.252  10.349  0.6011  0.4271  0.1596
  630MOL0     C84956   3.869   1.288  10.496 -0.2454  0.1027 -0.8900
  630MOL0     C84957   3.949   1.186  10.578  0.6937  0.1256 -0.4891
  630MOL0     C84958   3.935   1.207  10.732  0.3287 -0.8598 -0.6070
  630MOL0     C84959   4.049   1.130  10.814  0.2932 -0.6917  0.2993
  630MOL0    Cl84960   4.039   1.170  10.989 -0.4391 -0.2381  0.3112
  630MOL0     C84961   4.061   0.957   9.795 -0.9548 -0.1727  0.0001
  630MOL0     C84962   4.173   0.945   9.707  0.7139 -0.1943 -0.4572
  630MOL0     O84963   4.413   0.778   9.615  0.5844 -0.7809  0.0613
  630MOL0     C84964   4.581   1.042   9.440  0.1794 -0.1710 -0.8003
  630MOL0     C84965   4.656   1.070   9.319  0.0968 -0.5933 -0.0398
  630MOL0     N84966   5.142   1.489   8.899  0.8481 -0.0138 -0.7019
  630MOL0     N84967   5.236   1.571   8.870  0.1066  0.2072  0.0338
  630MOL0     C84968   6.415   1.531   8.824  0.1466 -0.8637 -1.0519
  630MOL0     C84969   6.499   1.490   8.936  0.6956 -0.5327  0.6409
  630MOL0     C84970   6.666   1.488   9.379 -0.7403 -0.0928  0.3037
  630MOL0     C84971   6.733   1.552   9.489  0.9394  0.1840 -0.3653
  630MOL0     C84972   6.814   1.487   9.582  0.4832 -0.1190 -0.2290
  630MOL0     C84973   6.848   1.359   9.563  0.0275  1.1968 -0.0141
  630MOL0     O84974   6.912   1.280   9.659  0.8490 -0.6922  0.1314
  630MOL0     C84975   6.831   1.205   9.748  0.0528 -0.1321  1.1578
  630MOL0     C84976   6.879   1.251   9.892  0.5328 -0.6141  0.5781
  630MOL0     C84977   6.838   1.142   9.990  0.5485 -1.0829 -0.0491
  630MOL0     C84978   6.892   1.167  10.134  0.9571 -0.1282 -0.5987
  630MOL0     C84979   7.034   1.139  10.142  0.3558 -1.3328  0.0488
  630MOL0     C84980   7.145   1.102  10.174  0.0388  0.2240 -0.9013
  630MOL0     C84981   6.786   1.286   9.456  0.1991 -0.2113 -0.2722
  630MOL0     C84982   6.699   1.347   9.366  0.9395  0.1335  0.4985
  630MOL0     H84983   6.305   1.617   9.188  0.1501  1.4071  0.8846
  630MOL0     H84984   6.172   1.677   9.010  0.3387  1.0600  3.0727
  630MOL0     H84985   6.312   1.662   8.582 -0.7521 -2.9041 -3.6647
  630MOL0     H84986   6.231   1.511   8.601  2.3838 -0.1091  0.0265
  630MOL0     H84987   6.107   1.791   8.601 -1.9164  0.5582 -1.6088
  630MOL0     H84988   6.113   1.698   8.457  2.3228 -0.1376  0.0777
  630MOL0     H84989   5.916   1.655   8.496 -0.4021  0.5975  0.7939
  630MOL0     H84990   5.971   1.513   8.585  3.5862  0.1367 -2.5827
  630MOL0     H84991   5.964   1.670   8.782  0.2218 -1.5658 -1.5335
  630MOL0     H84992   5.864   1.786   8.699 -0.4802  0.5841  1.5846
  630MOL0     H84993   5.696   1.596   8.659 -2.0845  4.1537  2.4152
  630MOL0     H84994   5.793   1.503   8.777 -2.1933 -1.5291 -0.1809
  630MOL0     H84995   5.746   1.664   8.943 -0.5741 -0.2673  1.6170
  630MOL0     H84996   5.629   1.753   8.837 -4.0786 -1.9393  2.2477
  630MOL0     H84997   5.592   1.458   8.922 -1.0769  1.3830  1.8503
  630MOL0     H84998   5.519   1.589   8.973  0.2789 -1.5946  0.6704
  630MOL0     H84999   5.500   1.472   8.702  1.4282  0.0258 -0.1030
  630MOL0     H85000   5.450   1.638   8.721  1.9665  1.8748  2.1079
  630MOL0     H85001   5.380   1.287   8.804 -0.9360 -1.6044  0.3400
  630MOL0     H85002   5.072   1.229   8.773 -1.9274  0.7850  0.8316
  630MOL0     H85003   5.183   1.155   8.901 -0.6790  0.1193  0.2595
  630MOL0     H85004   4.921   1.306   8.910  0.1041  1.2461  1.5850
  630MOL0     H85005   5.012   1.305   9.056 -1.6031  1.2674 -0.7745
  630MOL0     H85006   5.017   1.065   9.064 -1.8228 -1.2577  1.7916
  630MOL0     H85007   4.925   1.055   8.910 -2.0606  1.5151 -0.1591
  630MOL0     H85008   4.730   1.173   9.030 -0.6504 -0.6277 -0.2556
  630MOL0     H85009   4.827   1.172   9.164 -0.6292  1.0302 -2.1851
  630MOL0     H85010   4.705   0.761   9.211 -0.2305 -0.4071  1.8306
  630MOL0     H85011   4.553   0.636   9.265 -1.2069 -2.3573  0.7188
  630MOL0     H85012   4.593   0.605   9.430  0.0474 -1.2060  0.5544
  630MOL0     H85013   4.425   0.640   9.374  0.3259 -1.0655 -0.6414
  630MOL0     H85014   4.393   1.154   9.840  1.0495 -0.0769 -4.2617
  630MOL0     H85015   4.193   1.207   9.988  0.1730  0.0051 -1.1457
  630MOL0     H85016   4.045   1.094  10.165 -0.9987 -0.7999  2.6518
  630MOL0     H85017   3.976   1.226  10.070  1.3892 -0.2191 -0.6835
  630MOL0     H85018   3.754   1.172  10.120  0.9057  1.3709  1.7663
  630MOL0     H85019   3.782   1.007  10.127 -2.0343  0.7635  0.0234
  630MOL0     H85020   3.893   1.032  10.361  0.3157  0.4189  0.6318
  630MOL0     H85021   3.735   1.086  10.359  0.7695 -0.1242  0.2167
  630MOL0     H85022   3.970   1.267  10.305  0.3294 -1.6547 -1.3576
  630MOL0     H85023   3.801   1.312  10.290  0.9656  0.2211 -0.4994
  630MOL0     H85024   3.764   1.285  10.528 -0.8232  2.2373 -2.4124
  630MOL0     H85025   3.905   1.389  10.516  2.8164 -1.2005  0.9297
  630MOL0     H85026   3.915   1.087  10.547 -0.0198  0.4707 -0.8373
  630MOL0     H85027   4.053   1.209  10.553  0.7332  0.6153  0.0983
  630MOL0     H85028   3.835   1.177  10.765  0.2031 -0.6604 -0.8046
  630MOL0     H85029   3.940   1.313  10.756 -3.3445  0.0941 -3.1259
  630MOL0     H85030   4.150   1.161  10.787  0.0924  1.5887  1.8096
  630MOL0     H85031   4.047   1.022  10.797  2.2451 -0.8216  0.7313
  630MOL0     H85032   3.967   0.913   9.764  0.7242 -3.6109 -0.7037
  630MOL0     H85033   4.146   0.868   9.635 -1.9825 -1.7953  2.0426
  630MOL0     H85034   4.563   1.126   9.505  0.6040  0.2467 -1.2151
  630MOL0     H85035   4.677   1.175   9.298 -0.3051 -0.4506  0.2584
  630MOL0     H85036   6.445   1.525   8.720  2.8284  1.3175 -0.5240
  630MOL0     H85037   6.598   1.453   8.911  1.7368  0.9612  2.3081
  630MOL0     H85038   6.715   1.658   9.507  3.0812  0.4604  0.3922
  630MOL0     H85039   6.846   1.541   9.671 -1.8676 -0.7889  1.1002
  630MOL0     H85040   6.724   1.225   9.736  0.1927 -0.3415 -0.9053
  630MOL0     H85041   6.848   1.101   9.719 -1.3293 -0.4592  1.4234
  630MOL0     H85042   6.846   1.350   9.923  0.9067 -0.0054 -0.8838
  630MOL0     H85043   6.987   1.267   9.895  1.1174 -2.4344 -3.5810
  630MOL0     H85044   6.873   1.043   9.960  4.3327  0.2277 -0.4719
  630MOL0     H85045   6.729   1.137   9.997  0.4143  1.1435  0.3509
  630MOL0     H85046   6.832   1.106  10.202 -0.1932  0.5343 -0.9812
  630MOL0     H85047   6.867   1.267  10.168 -1.0781 -0.7349 -0.1455
  630MOL0     H85048   7.244   1.071  10.201 -0.2803  0.0165  0.0735
  630MOL0     H85049   6.811   1.180   9.455  0.7399 -0.0791 -1.1817
  630MOL0     H85050   6.645   1.287   9.294 -0.3351  3.6929 -1.7458
  631MOL0     O85051   5.763   6.183  11.005 -0.0319 -0.8379 -0.4360
  631MOL0     C85052   5.662   6.153  10.941 -0.0043  0.2330 -0.2622
  631MOL0     O85053   5.653   6.039  10.869 -0.3955 -0.0916 -0.2098
  631MOL0     C85054   5.764   5.954  10.864  0.7256  0.5554 -0.3625
  631MOL0     C85055   5.810   5.898  10.990 -0.5014  0.4261  0.4858
  631MOL0     C85056   5.910   5.804  10.977 -0.8651 -0.1763  0.3201
  631MOL0     C85057   5.945   5.746  10.853  0.5209  0.8245 -0.0302
  631MOL0     O85058   6.030   5.642  10.852 -0.1301  0.3796  0.0284
  631MOL0     C85059   5.968   5.510  10.863  0.0512 -0.0339  0.4158
  631MOL0     C85060   6.075   5.406  10.904  0.5077  1.0947  0.2905
  631MOL0     C85061   6.115   5.398  11.055  0.1628  0.5579 -0.7326
  631MOL0     C85062   6.223   5.293  11.084  0.4155 -0.3528  0.0930
  631MOL0     C85063   6.332   5.342  11.188 -0.2371  1.1007  0.0434
  631MOL0     C85064   6.282   5.333  11.334  0.0539  0.5476  0.7105
  631MOL0     C85065   6.382   5.397  11.423 -0.4951  0.6130 -0.6034
  631MOL0     C85066   6.523   5.321  11.439 -0.0265 -0.1991 -1.2807
  631MOL0     N85067   6.508   5.179  11.470  0.2357  0.6930  0.4341
  631MOL0     C85068   6.497   5.135  11.591 -0.3464  0.8550  0.7707
  631MOL0     C85069   6.469   4.998  11.569  0.4329  0.3607 -0.3818
  631MOL0     C85070   6.444   4.891  11.674 -0.7644 -0.5779 -0.1757
  631MOL0     C85071   6.301   4.907  11.739 -0.2023 -0.2252 -0.5829
  631MOL0     C85072   6.185   4.899  11.646  0.4774 -0.1241  0.4039
  631MOL0     C85073   6.169   4.774  11.567  0.5039  0.0204 -0.3370
  631MOL0     O85074   6.049   4.768  11.482  0.1603 -0.4606 -0.3916
  631MOL0     C85075   6.036   4.818  11.354 -0.2342  0.2888 -0.0575
  631MOL0     C85076   5.920   4.786  11.292 -0.4833  0.5515  0.9741
  631MOL0     C85077   5.891   4.817  11.158  0.6669  0.0390  0.3518
  631MOL0     C85078   5.752   4.777  11.111  0.4013 -0.8006  0.4651
  631MOL0     C85079   5.985   4.897  11.081 -0.1050 -0.1995  0.0124
  631MOL0     C85080   5.966   4.928  10.935  0.2838  0.0431  0.4703
  631MOL0     O85081   5.847   4.980  10.905  0.0590 -0.2518  0.0243
  631MOL0     C85082   5.843   5.059  10.788  0.8684 -0.2800  0.3933
  631MOL0     C85083   5.888   5.013  10.664 -0.0233  0.2224 -0.5230
  631MOL0     C85084   5.891   5.090  10.549 -1.0074  0.2249  0.6252
  631MOL0     C85085   5.827   5.225  10.550 -0.6298  0.8507 -0.0879
  631MOL0     O85086   5.817   5.295  10.432  0.3446 -0.3985 -1.1429
  631MOL0     C85087   5.690   5.351  10.421 -0.1258  0.0310 -0.3242
  631MOL0     C85088   5.686   5.404  10.281  0.4498  0.2787  0.7715
  631MOL0     C85089   5.695   5.293  10.176 -0.7919  0.4415  0.4147
  631MOL0     C85090   5.839   5.269  10.133 -0.4380 -0.4790 -0.0492
  631MOL0     C85091   5.841   5.212   9.990  0.6873  1.5276  0.0624
  631MOL0     C85092   5.758   5.079   9.982  0.8527  0.1231 -0.2578
  631MOL0     C85093   5.798   5.002   9.857  0.1815 -0.2444  0.2932
  631MOL0     C85094   5.695   4.890   9.844 -0.0988  0.0102  1.2179
  631MOL0    Cl85095   5.777   4.794   9.715  0.3550 -0.3246  0.6678
  631MOL0     C85096   5.777   5.266  10.671 -0.4157 -0.1893 -1.1920
  631MOL0     C85097   5.787   5.189  10.793  0.8214 -0.4315  0.0661
  631MOL0     O85098   6.067   4.940  10.871 -0.0695  0.1530  0.8016
  631MOL0     C85099   6.111   4.922  11.149 -1.1744  0.7414  0.7906
  631MOL0     C85100   6.132   4.889  11.280  0.3356 -0.1263 -0.0593
  631MOL0     N85101   6.448   4.972  11.441 -0.0870 -0.3872  0.5115
  631MOL0     N85102   6.493   5.073  11.377 -0.5168  0.0921  0.9353
  631MOL0     C85103   5.899   5.807  10.738  0.4230 -0.2833  1.7471
  631MOL0     C85104   5.805   5.915  10.745 -0.0070 -0.3365  1.1690
  631MOL0     C85105   5.545   6.244  10.941  0.0719  1.1266 -0.7643
  631MOL0     C85106   5.499   6.290  11.063 -0.4163 -0.5724  0.4014
  631MOL0     C85107   5.405   6.386  11.057 -0.3549 -0.1459 -0.5371
  631MOL0     C85108   5.342   6.426  10.945 -0.6612 -0.1441  0.1036
  631MOL0     O85109   5.251   6.519  10.966 -0.2102 -0.5524  0.0727
  631MOL0     C85110   5.207   6.608  10.862 -0.0069  0.0728  0.3925
  631MOL0     C85111   5.082   6.548  10.785  0.4078 -0.0803  0.4497
  631MOL0     C85112   4.969   6.496  10.874 -0.7217  1.4596 -0.4178
  631MOL0     C85113   4.850   6.463  10.792 -0.3754  0.0796  0.3189
  631MOL0     C85114   4.780   6.577  10.760  0.3195 -0.4325  0.2755
  631MOL0     C85115   4.718   6.675  10.704  0.0493  0.6836 -0.5905
  631MOL0     C85116   5.391   6.379  10.819  0.0755 -0.9249  0.1995
  631MOL0     C85117   5.499   6.294  10.818  1.2157  0.4785 -0.1524
  631MOL0     H85118   5.789   5.949  11.083 -0.6739 -1.1223  1.3405
  631MOL0     H85119   5.965   5.780  11.067 -0.3913  3.6528  1.2447
  631MOL0     H85120   5.885   5.515  10.935  0.2387  3.1888  0.5465
  631MOL0     H85121   5.928   5.495  10.762 -0.4056 -0.2176  0.6183
  631MOL0     H85122   6.048   5.309  10.861 -2.1217  3.5268 -4.2087
  631MOL0     H85123   6.153   5.433  10.833 -0.5774 -0.7284 -1.7051
  631MOL0     H85124   6.181   5.485  11.059  2.3068 -1.0327  1.2208
  631MOL0     H85125   6.029   5.403  11.123 -0.9013 -1.0280 -1.9054
  631MOL0     H85126   6.164   5.212  11.128  1.3124 -0.2218  1.5912
  631MOL0     H85127   6.278   5.278  10.990  0.7464  0.1448  0.2062
  631MOL0     H85128   6.412   5.268  11.176 -2.3446 -1.4315  0.6894
  631MOL0     H85129   6.370   5.442  11.165 -3.6316  2.8306  1.2738
  631MOL0     H85130   6.187   5.388  11.339 -1.6341 -2.1398  0.5888
  631MOL0     H85131   6.261   5.227  11.351 -3.0204  0.2777 -3.0773
  631MOL0     H85132   6.398   5.501  11.393  3.7306  0.8189  1.5584
  631MOL0     H85133   6.335   5.390  11.522 -0.0007 -3.7461 -0.4611
  631MOL0     H85134   6.559   5.368  11.531  1.6547 -5.0250  0.8291
  631MOL0     H85135   6.589   5.326  11.351  0.3369  0.0861 -0.9973
  631MOL0     H85136   6.498   5.195  11.681  2.5101  2.6788 -0.3614
  631MOL0     H85137   6.462   4.794  11.626  0.3552  0.9168 -3.0480
  631MOL0     H85138   6.521   4.890  11.751 -1.5008  1.2032  0.6277
  631MOL0     H85139   6.299   5.004  11.789  2.1723  0.7874 -2.2743
  631MOL0     H85140   6.289   4.833  11.819 -1.8869 -0.4287 -0.9906
  631MOL0     H85141   6.198   4.975  11.569 -1.9482 -0.2827 -0.2625
  631MOL0     H85142   6.094   4.922  11.704  1.4428 -0.5860  2.1801
  631MOL0     H85143   6.171   4.689  11.635 -0.7373  0.7675  0.6653
  631MOL0     H85144   6.257   4.758  11.504  0.1636 -0.4756 -0.6957
  631MOL0     H85145   5.860   4.723  11.358  0.9989 -1.8931  0.1479
  631MOL0     H85146   5.731   4.796  11.006  3.6079  1.1719  0.0574
  631MOL0     H85147   5.715   4.677  11.134 -3.4083  0.2811 -0.2029
  631MOL0     H85148   5.685   4.845  11.165  1.0789  0.6605 -0.4931
  631MOL0     H85149   5.915   4.908  10.666  0.4806  0.3543  1.8864
  631MOL0     H85150   5.901   5.047  10.450 -3.3076  0.2843  0.3205
  631MOL0     H85151   5.605   5.286  10.443 -0.5118  0.8901  0.8195
  631MOL0     H85152   5.672   5.434  10.491  0.5362 -0.4062  0.3674
  631MOL0     H85153   5.599   5.470  10.264 -1.7967 -2.3064  1.5337
  631MOL0     H85154   5.770   5.475  10.279  0.2553  0.5025  0.4472
  631MOL0     H85155   5.636   5.329  10.091 -1.7718  1.3185  1.4398
  631MOL0     H85156   5.652   5.199  10.209  0.0561  1.0295  3.5133
  631MOL0     H85157   5.904   5.357  10.135  0.5010 -1.1460  1.4865
  631MOL0     H85158   5.878   5.195  10.204 -1.9772 -2.4923 -1.1796
  631MOL0     H85159   5.940   5.179   9.958 -0.9937  0.3612 -5.0211
  631MOL0     H85160   5.805   5.267   9.902 -0.6756 -2.2318 -1.9515
  631MOL0     H85161   5.764   5.011  10.067 -2.1862 -0.5330 -0.4478
  631MOL0     H85162   5.654   5.112   9.984  1.4561  2.1493  0.5584
  631MOL0     H85163   5.894   4.955   9.877 -1.3872 -2.3445  4.0936
  631MOL0     H85164   5.792   5.076   9.777 -0.4346  0.7149  1.1857
  631MOL0     H85165   5.595   4.926   9.820  0.3480  0.1335 -0.6810
  631MOL0     H85166   5.689   4.825   9.932 -0.8505 -1.3150  0.2318
  631MOL0     H85167   5.737   5.366  10.684  1.0139  0.1407  1.5080
  631MOL0     H85168   5.766   5.242  10.886  0.7770 -0.2641 -0.0398
  631MOL0     H85169   6.181   4.965  11.078  0.5041 -2.4099  0.3380
  631MOL0     H85170   6.229   4.901  11.329 -1.0075 -3.0111  3.8492
  631MOL0     H85171   5.926   5.773  10.639 -1.3604  1.7627  0.4436
  631MOL0     H85172   5.775   5.957  10.650  4.2749 -1.7488 -1.0741
  631MOL0     H85173   5.532   6.243  11.155  0.6221 -2.8285 -1.0360
  631MOL0     H85174   5.356   6.419  11.148 -0.1580 -3.7655  1.0584
  631MOL0     H85175   5.170   6.697  10.914 -2.1643 -2.4316  3.5023
  631MOL0     H85176   5.296   6.631  10.802  1.7856 -3.2724  1.5110
  631MOL0     H85177   5.124   6.472  10.718  0.7823 -0.5013  1.1543
  631MOL0     H85178   5.039   6.628  10.724  1.4994  0.5271  0.4582
  631MOL0     H85179   4.939   6.569  10.950 -1.6396  2.3058 -1.5401
  631MOL0     H85180   4.990   6.400  10.921 -1.7390  1.9412  1.0964
  631MOL0     H85181   4.780   6.406  10.854  0.2088 -1.8553 -0.7214
  631MOL0     H85182   4.880   6.403  10.706  5.4553  1.8909  0.6250
  631MOL0     H85183   4.660   6.743  10.645 -1.1735  2.2917  2.2617
  631MOL0     H85184   5.337   6.404  10.729 -2.5892  1.2638  2.2166
  631MOL0     H85185   5.534   6.264  10.720  0.9829 -1.4620  0.3250
  632MOL0     O85186   3.155   9.201   1.988 -0.3011 -0.4649 -0.8514
  632MOL0     C85187   3.100   9.284   2.064  0.7985 -0.7811 -0.2901
  632MOL0     O85188   3.057   9.401   2.024  0.0689 -0.1039 -0.3366
  632MOL0     C85189   3.047   9.433   1.889 -0.5986  0.4753 -0.4604
  632MOL0     C85190   3.017   9.344   1.781  0.1869 -0.5339  0.8920
  632MOL0     C85191   3.014   9.393   1.641 -0.9079  0.3223 -0.3022
  632MOL0     C85192   3.053   9.523   1.615  0.1246  0.7163  0.5747
  632MOL0     O85193   3.064   9.563   1.489  0.1966 -0.0813 -1.3960
  632MOL0     C85194   3.129   9.473   1.401  0.1167 -0.5483 -0.0468
  632MOL0     C85195   3.138   9.533   1.257  0.0571 -0.6899  0.3430
  632MOL0     C85196   3.282   9.567   1.221  0.1122  0.0880 -0.0205
  632MOL0     C85197   3.295   9.651   1.090  0.7494  0.0207 -0.3091
  632MOL0     C85198   3.441   9.637   1.040 -0.3822  0.0112  0.5546
  632MOL0     C85199   3.471   9.735   0.918  0.2349  0.6479  1.3161
  632MOL0     C85200   3.389   9.708   0.791 -0.4223  0.1197  0.2697
  632MOL0     C85201   3.465   9.623   0.688 -0.2154  0.2696  0.8447
  632MOL0     N85202   3.407   9.661   0.559  0.0258  0.0956  0.0873
  632MOL0     C85203   3.276   9.668   0.510  0.8258 -0.4981 -0.1038
  632MOL0     C85204   3.283   9.707   0.381 -0.2619 -0.4006  0.0783
  632MOL0     C85205   3.176   9.724   0.279  0.4829 -1.0186 -0.3297
  632MOL0     C85206   3.091   9.845   0.334 -0.1036  0.0778  0.5060
  632MOL0     C85207   2.963   9.801   0.400  0.5031 -0.3248  0.5027
  632MOL0     C85208   2.853   9.750   0.298  0.5782 -0.3012  0.4520
  632MOL0     O85209   2.753   9.858   0.290 -0.2968 -0.0672 -0.7088
  632MOL0     C85210   2.784   9.964   0.202 -0.4177 -0.0106  0.4092
  632MOL0     C85211   2.779  10.093   0.242  0.9049  0.2370  0.7158
  632MOL0     C85212   2.794  10.200   0.155 -0.3908 -0.5125  0.6856
  632MOL0     C85213   2.797  10.346   0.201  0.5971 -0.1280 -0.1993
  632MOL0     C85214   2.821  10.180   0.018 -0.5682 -0.6994  0.6761
  632MOL0     C85215   2.840  10.284  -0.094  0.1074  0.0867  0.6064
  632MOL0     O85216   2.907  10.255  -0.210  1.0462  0.0511 -0.4635
  632MOL0     C85217   2.911  10.331  -0.317 -0.1664 -0.5066 -0.0681
  632MOL0     C85218   2.806  10.367  -0.389 -0.2976  0.0990  0.3691
  632MOL0     C85219   2.814  10.458  -0.491  0.3423 -0.3570  0.0059
  632MOL0     C85220   2.934  10.509  -0.531  0.6762  0.4310 -0.6773
  632MOL0     O85221   2.953  10.605  -0.624  0.9699  0.3266  0.5300
  632MOL0     C85222   2.891  10.585  -0.751  1.0975 -0.7154  1.1616
  632MOL0     C85223   2.835  10.715  -0.804 -0.2602  0.3844  1.2525
  632MOL0     C85224   2.708  10.748  -0.734  0.1096 -0.0493  0.2879
  632MOL0     C85225   2.581  10.742  -0.824 -0.1060 -0.3190 -0.1654
  632MOL0     C85226   2.448  10.782  -0.776 -0.0288  0.0850 -0.0153
  632MOL0     C85227   2.405  10.706  -0.649 -0.9184 -0.1782 -0.1515
  632MOL0     C85228   2.452  10.761  -0.513  0.6171 -0.0404 -0.8603
  632MOL0     C85229   2.404  10.673  -0.397  0.5498 -0.2792 -0.4304
  632MOL0    Cl85230   2.232  10.675  -0.395  0.1557 -0.1855 -0.0969
  632MOL0     C85231   3.050  10.463  -0.460 -0.8081 -0.5778 -0.7751
  632MOL0     C85232   3.041  10.365  -0.366  0.0082  0.3199  0.7494
  632MOL0     O85233   2.788  10.394  -0.086  0.7975 -0.1759 -0.4824
  632MOL0     C85234   2.837  10.045  -0.021  1.1219 -0.2521 -0.1348
  632MOL0     C85235   2.807   9.936   0.069 -0.5075 -0.5788 -0.3047
  632MOL0     N85236   3.417   9.753   0.362  0.0673  0.7950  0.3061
  632MOL0     N85237   3.482   9.731   0.474  0.5980 -0.2150 -0.8581
  632MOL0     C85238   3.062   9.614   1.721  0.8637 -1.0631  0.4995
  632MOL0     C85239   3.066   9.571   1.853  0.0005 -0.1697  1.0972
  632MOL0     C85240   3.100   9.259   2.211  0.3717 -0.6310  1.0622
  632MOL0     C85241   3.062   9.364   2.295 -0.2932  0.8525 -0.5546
  632MOL0     C85242   3.056   9.339   2.435 -0.4563 -0.5354 -0.0680
  632MOL0     C85243   3.071   9.213   2.482 -0.2337 -0.4722 -0.2126
  632MOL0     O85244   3.075   9.172   2.611 -0.4299  0.3852 -0.2499
  632MOL0     C85245   3.106   9.283   2.708  1.0308  0.2087  0.7801
  632MOL0     C85246   3.138   9.213   2.850  0.1706 -0.0512  0.0346
  632MOL0     C85247   3.136   9.319   2.957  0.1313  0.0363 -0.6678
  632MOL0     C85248   3.263   9.408   2.964 -0.6493 -0.0131  0.4812
  632MOL0     C85249   3.247   9.520   3.056 -0.0428  0.0510 -0.4483
  632MOL0     C85250   3.243   9.589   3.153 -0.2879 -0.1390  0.4574
  632MOL0     C85251   3.103   9.110   2.388  0.3003  0.5353 -0.2133
  632MOL0     C85252   3.107   9.131   2.257 -0.2269 -0.7971 -0.2373
  632MOL0     H85253   2.997   9.239   1.801  2.0930 -1.5027 -1.7328
  632MOL0     H85254   2.986   9.317   1.568  3.0114 -1.4048 -0.2473
  632MOL0     H85255   3.229   9.437   1.426  0.6310 -0.2588 -1.6202
  632MOL0     H85256   3.061   9.388   1.388 -1.7157  1.1227 -2.3160
  632MOL0     H85257   3.115   9.451   1.188 -0.9336 -0.2527  0.1415
  632MOL0     H85258   3.072   9.617   1.237  0.9882 -0.3639 -1.6158
  632MOL0     H85259   3.339   9.625   1.296  2.3063 -0.8543 -0.8649
  632MOL0     H85260   3.322   9.465   1.221 -0.4003 -0.1607  1.9109
  632MOL0     H85261   3.222   9.630   1.010  1.0687 -0.6594 -0.4318
  632MOL0     H85262   3.286   9.756   1.117  0.7012  0.0333 -0.3755
  632MOL0     H85263   3.516   9.660   1.116  1.9650 -0.5065 -1.4694
  632MOL0     H85264   3.466   9.534   1.010  1.6597  0.3057  1.1139
  632MOL0     H85265   3.436   9.833   0.950 -4.0370 -1.2022  3.0819
  632MOL0     H85266   3.578   9.735   0.894 -0.1931 -1.1726 -0.9059
  632MOL0     H85267   3.290   9.671   0.815  1.1334 -2.3312  3.6497
  632MOL0     H85268   3.379   9.809   0.748  1.5360  0.3700  0.2779
  632MOL0     H85269   3.464   9.515   0.704  0.8144 -0.0893 -1.2106
  632MOL0     H85270   3.569   9.654   0.702 -0.8256  3.3664 -0.7336
  632MOL0     H85271   3.179   9.645   0.555  0.6910  1.7434  0.8804
  632MOL0     H85272   3.184   9.743   0.172 -1.0189  2.2740  0.0147
  632MOL0     H85273   3.125   9.627   0.281 -0.5725 -0.4915 -1.0819
  632MOL0     H85274   3.074   9.917   0.254  2.1344 -0.5546 -0.6001
  632MOL0     H85275   3.148   9.893   0.415 -0.1701 -3.0281  2.5996
  632MOL0     H85276   2.918   9.874   0.467 -3.0635 -3.1528  1.5349
  632MOL0     H85277   2.991   9.718   0.465 -1.5082 -0.1192  1.7222
  632MOL0     H85278   2.807   9.670   0.358  0.9747  0.1332  1.3550
  632MOL0     H85279   2.896   9.714   0.204  2.5149  0.0967  1.1449
  632MOL0     H85280   2.756  10.129   0.342 -1.1821  3.3393 -0.7023
  632MOL0     H85281   2.708  10.406   0.180  1.0711 -0.1322 -2.5437
  632MOL0     H85282   2.810  10.349   0.309  3.3777 -1.0756 -0.4152
  632MOL0     H85283   2.887  10.396   0.165  1.2375  2.4862  4.3842
  632MOL0     H85284   2.705  10.335  -0.368  0.4220 -1.2491  2.0149
  632MOL0     H85285   2.721  10.474  -0.545 -0.7321  2.7354  2.5167
  632MOL0     H85286   2.952  10.529  -0.822  4.4908  0.2989  3.0437
  632MOL0     H85287   2.806  10.518  -0.736  0.8460 -1.0564 -1.4201
  632MOL0     H85288   2.914  10.790  -0.797 -2.0651  3.4304 -4.6588
  632MOL0     H85289   2.809  10.725  -0.910  1.3959  2.5541  0.9575
  632MOL0     H85290   2.712  10.849  -0.692  0.3635  0.7849 -1.6536
  632MOL0     H85291   2.689  10.679  -0.650 -0.8894  1.0179  0.9578
  632MOL0     H85292   2.595  10.811  -0.908  0.5485 -0.5400 -0.2489
  632MOL0     H85293   2.573  10.644  -0.872  2.7736  0.3334 -2.2614
  632MOL0     H85294   2.373  10.783  -0.856  2.1939  0.2903 -2.2030
  632MOL0     H85295   2.444  10.890  -0.755  0.7947 -0.0713  1.0576
  632MOL0     H85296   2.297  10.717  -0.660 -1.6670 -2.0682  3.7167
  632MOL0     H85297   2.430  10.600  -0.653  0.3599 -0.0897  2.8229
  632MOL0     H85298   2.432  10.868  -0.503  0.6543  0.0004 -1.2005
  632MOL0     H85299   2.561  10.766  -0.511  0.5649  1.1170  0.1321
  632MOL0     H85300   2.438  10.707  -0.299 -2.8737  0.5594  0.6067
  632MOL0     H85301   2.435  10.569  -0.413  3.4873  0.2419  1.1775
  632MOL0     H85302   3.150  10.504  -0.472 -0.9807 -0.1390 -0.7208
  632MOL0     H85303   3.129  10.332  -0.312  0.5269 -1.3348 -0.9923
  632MOL0     H85304   2.845  10.022  -0.126 -0.2550  0.1901 -0.3695
  632MOL0     H85305   2.825   9.839   0.023  2.4417  0.7912 -2.3437
  632MOL0     H85306   3.099   9.715   1.706  0.2309 -1.1933 -2.5144
  632MOL0     H85307   3.081   9.649   1.927  0.8514  0.8860 -0.1195
  632MOL0     H85308   3.044   9.459   2.246 -0.2230  1.5429  0.7059
  632MOL0     H85309   3.021   9.420   2.497 -0.9129  0.0454 -1.0527
  632MOL0     H85310   3.193   9.338   2.671 -0.6589 -0.5915 -5.5355
  632MOL0     H85311   3.015   9.343   2.705  0.1130 -1.1798 -0.9006
  632MOL0     H85312   3.240   9.174   2.845  0.4231 -0.2268  3.6473
  632MOL0     H85313   3.070   9.131   2.875 -0.5748  0.9628  1.4854
  632MOL0     H85314   3.132   9.263   3.051 -1.1965  0.2027 -0.6081
  632MOL0     H85315   3.039   9.369   2.949  1.2041  2.6211  1.3234
  632MOL0     H85316   3.278   9.463   2.870 -3.0124  0.4863  0.3497
  632MOL0     H85317   3.351   9.344   2.974 -0.8180 -0.4439 -0.6389
  632MOL0     H85318   3.225   9.662   3.229 -0.4543  1.7717 -1.3553
  632MOL0     H85319   3.117   9.011   2.431  3.6193  0.6722 -0.7710
  632MOL0     H85320   3.110   9.039   2.199 -2.4805 -1.6113  0.8126
  633MOL0     O85321   0.422  11.239   4.326 -0.3427  0.5471  0.7796
  633MOL0     C85322   0.360  11.293   4.229 -0.3386  0.1721 -0.8514
  633MOL0     O85323   0.251  11.242   4.163 -0.4189 -0.0810  0.4374
  633MOL0     C85324   0.184  11.155   4.241  0.5353  0.1788  0.0021
  633MOL0     C85325   0.060  11.191   4.282 -0.7513 -0.1657  0.6273
  633MOL0     C85326  -0.026  11.104   4.343  0.9193  0.0235 -0.2790
  633MOL0     C85327   0.013  10.976   4.368 -0.9370  0.8798  0.8087
  633MOL0     O85328  -0.081  10.890   4.413  0.0257 -0.5251  0.0704
  633MOL0     C85329  -0.058  10.754   4.451 -0.7038 -0.3984 -0.8151
  633MOL0     C85330  -0.156  10.711   4.560 -0.3182  0.3954  0.4894
  633MOL0     C85331  -0.156  10.556   4.579 -0.0319 -0.4349 -0.0591
  633MOL0     C85332  -0.258  10.500   4.681  0.0397  0.4503 -0.5383
  633MOL0     C85333  -0.250  10.341   4.699  0.0483 -0.6801 -0.8001
  633MOL0     C85334  -0.126  10.275   4.737  0.0652 -0.3800  0.0412
  633MOL0     C85335  -0.154  10.123   4.794 -0.6430  0.1614  0.5607
  633MOL0     C85336  -0.074  10.014   4.720  0.2818 -0.5645  0.6411
  633MOL0     N85337  -0.138   9.979   4.595 -0.6778 -0.4331 -0.7925
  633MOL0     C85338  -0.119  10.044   4.469 -0.6675  0.2201 -0.4008
  633MOL0     C85339  -0.198   9.971   4.391 -0.4913 -0.0387  1.3048
  633MOL0     C85340  -0.215   9.982   4.239  0.5124  0.3185  0.2365
  633MOL0     C85341  -0.126  10.080   4.157  0.2386 -0.3404 -0.9962
  633MOL0     C85342  -0.150  10.067   4.008 -0.6409  0.1815 -0.6811
  633MOL0     C85343  -0.070  10.159   3.918 -0.4493  0.4057 -0.3436
  633MOL0     O85344  -0.065  10.293   3.980 -0.0397  0.2552 -0.1233
  633MOL0     C85345   0.022  10.384   3.937 -0.7393  0.2836 -0.3148
  633MOL0     C85346   0.008  10.507   3.992  0.0545  0.0448 -0.4910
  633MOL0     C85347   0.097  10.608   3.947 -0.2512 -0.1027 -0.6151
  633MOL0     C85348   0.092  10.736   4.017  0.2468  0.2012  0.5008
  633MOL0     C85349   0.187  10.584   3.841  0.1067  0.4906  0.4938
  633MOL0     C85350   0.301  10.670   3.794 -0.8184 -0.7243 -0.3647
  633MOL0     O85351   0.353  10.642   3.676 -0.4992 -0.7122  0.7562
  633MOL0     C85352   0.472  10.701   3.629 -0.3183  0.2120  1.1009
  633MOL0     C85353   0.469  10.780   3.514  0.0540  0.3964 -0.6013
  633MOL0     C85354   0.594  10.838   3.465  0.0584 -0.6423  0.6056
  633MOL0     C85355   0.711  10.800   3.530  0.3258 -0.3711  0.2280
  633MOL0     O85356   0.837  10.838   3.487  0.0099 -0.0801 -0.3428
  633MOL0     C85357   0.858  10.791   3.352 -0.4342  0.0078  0.3028
  633MOL0     C85358   1.010  10.794   3.307  0.5656  1.3651 -0.0334
  633MOL0     C85359   1.025  10.742   3.163  0.2371  0.1825 -0.2669
  633MOL0     C85360   1.175  10.749   3.112  0.2351  0.0022 -0.0036
  633MOL0     C85361   1.183  10.719   2.968  0.4913 -0.6315 -0.3090
  633MOL0     C85362   1.169  10.564   2.926 -0.0134 -0.4745 -0.6853
  633MOL0     C85363   1.217  10.524   2.794 -0.4331 -0.7934  0.4055
  633MOL0     C85364   1.163  10.621   2.686 -0.5453 -0.3651 -0.2216
  633MOL0    Cl85365   0.990  10.636   2.686  0.0551  0.3120  0.9680
  633MOL0     C85366   0.701  10.717   3.635 -0.3057  0.0077 -0.5734
  633MOL0     C85367   0.584  10.671   3.687  0.2446 -0.8350 -0.9154
  633MOL0     O85368   0.347  10.750   3.872  0.9060  0.1323  0.1010
  633MOL0     C85369   0.172  10.464   3.771 -0.1191 -0.4403  0.0240
  633MOL0     C85370   0.099  10.367   3.821 -0.1988 -0.0682 -0.1779
  633MOL0     N85371  -0.276   9.883   4.462 -0.8825  0.5224  0.2171
  633MOL0     N85372  -0.234   9.877   4.583 -0.4210 -0.6474  0.2924
  633MOL0     C85373   0.132  10.940   4.311 -0.9781  0.3535  0.4494
  633MOL0     C85374   0.230  11.027   4.258 -0.2591  0.1053 -0.1379
  633MOL0     C85375   0.420  11.413   4.173  0.8975  0.4959  0.5501
  633MOL0     C85376   0.397  11.455   4.036  0.5886 -0.1344  0.5539
  633MOL0     C85377   0.469  11.564   3.979 -0.9512 -0.1398  0.1211
  633MOL0     C85378   0.561  11.633   4.057 -0.8204 -0.5745  0.1532
  633MOL0     O85379   0.644  11.726   3.992 -0.0828 -0.0885 -0.3643
  633MOL0     C85380   0.772  11.669   3.944  0.3537 -0.2429 -0.3601
  633MOL0     C85381   0.877  11.776   3.916  0.6549 -0.8632 -0.0879
  633MOL0     C85382   0.820  11.892   3.833 -0.1304 -0.9779 -0.1575
  633MOL0     C85383   0.784  12.012   3.930  0.5774 -0.0971  0.7865
  633MOL0     C85384   0.687  12.106   3.880  0.0733 -0.6013 -0.8478
  633MOL0     C85385   0.593  12.191   3.859  0.6453  0.9671 -0.1547
  633MOL0     C85386   0.575  11.606   4.190  0.4150  0.5363 -0.5109
  633MOL0     C85387   0.505  11.495   4.249 -1.3256 -0.5646 -0.2202
  633MOL0     H85388   0.031  11.293   4.256  1.1760 -0.1278 -1.7087
  633MOL0     H85389  -0.125  11.148   4.354  0.4566 -1.3231  1.4472
  633MOL0     H85390  -0.064  10.685   4.367  2.1504 -0.5153 -0.9999
  633MOL0     H85391   0.042  10.741   4.493 -0.8487 -1.3642 -0.7597
  633MOL0     H85392  -0.138  10.759   4.657 -1.6363 -0.1961  1.0414
  633MOL0     H85393  -0.250  10.751   4.521  0.5059  1.3822 -0.5649
  633MOL0     H85394  -0.165  10.506   4.483  2.1496  0.0633 -0.5861
  633MOL0     H85395  -0.057  10.529   4.619  0.9047  0.5245 -1.6433
  633MOL0     H85396  -0.223  10.533   4.779  2.1850  0.9188 -1.3882
  633MOL0     H85397  -0.358  10.541   4.670  0.2086  0.6617 -1.3937
  633MOL0     H85398  -0.318  10.323   4.783  1.2481 -2.9789 -0.2393
  633MOL0     H85399  -0.298  10.304   4.607  1.6358 -1.0758 -1.5034
  633MOL0     H85400  -0.070  10.257   4.644 -1.8839 -4.3589 -0.5548
  633MOL0     H85401  -0.061  10.336   4.800 -0.7545  0.2355  0.3077
  633MOL0     H85402  -0.135  10.110   4.901 -0.5392 -0.7208  0.4465
  633MOL0     H85403  -0.257  10.096   4.768  0.0132 -1.9101 -0.1158
  633MOL0     H85404  -0.084   9.921   4.777 -1.3824 -0.8174  0.0101
  633MOL0     H85405   0.031  10.042   4.713  0.1131  1.6052  4.1141
  633MOL0     H85406  -0.045  10.120   4.447 -1.2460  0.1838 -2.7851
  633MOL0     H85407  -0.187   9.883   4.202 -0.1272  0.2712 -0.1348
  633MOL0     H85408  -0.318  10.013   4.221  1.3880  4.2330  1.0060
  633MOL0     H85409  -0.021  10.074   4.188  0.8571 -0.8468 -3.0224
  633MOL0     H85410  -0.165  10.179   4.181 -3.1304 -1.6808 -0.4762
  633MOL0     H85411  -0.257  10.079   3.985 -0.4584  0.4345 -1.3967
  633MOL0     H85412  -0.129   9.964   3.978 -1.7320 -0.3237  0.1819
  633MOL0     H85413  -0.121  10.167   3.821 -1.6536  3.1548  0.4003
  633MOL0     H85414   0.030  10.117   3.913 -0.8173 -1.0866  2.5209
  633MOL0     H85415  -0.061  10.533   4.072 -0.1830 -0.7254 -0.4347
  633MOL0     H85416   0.176  10.753   4.084  1.6358  0.2068 -1.1919
  633MOL0     H85417   0.093  10.819   3.946  1.1112  0.4978  0.8566
  633MOL0     H85418  -0.001  10.747   4.074  0.4640  2.4905  0.5059
  633MOL0     H85419   0.382  10.812   3.457 -0.8825 -1.6780 -0.4514
  633MOL0     H85420   0.592  10.897   3.374 -0.6245 -3.7166 -1.5252
  633MOL0     H85421   0.814  10.692   3.337 -0.3868  0.2897 -2.0775
  633MOL0     H85422   0.808  10.859   3.282  1.2758  2.2200  1.1077
  633MOL0     H85423   1.043  10.898   3.311 -0.2635  1.7104 -1.4572
  633MOL0     H85424   1.068  10.725   3.368 -0.8700  0.6317  0.5451
  633MOL0     H85425   0.952  10.795   3.102  0.4214  2.6166  1.4550
  633MOL0     H85426   0.995  10.637   3.168 -0.6955  0.4819  1.2376
  633MOL0     H85427   1.212  10.851   3.126  2.6296 -0.7131 -0.6611
  633MOL0     H85428   1.227  10.681   3.181 -2.9376 -1.2035  1.4535
  633MOL0     H85429   1.281  10.749   2.931  0.1597  2.5529  1.1217
  633MOL0     H85430   1.109  10.785   2.923 -0.7761 -0.8033  1.4266
  633MOL0     H85431   1.231  10.511   2.999  1.0029  5.7724  3.8793
  633MOL0     H85432   1.068  10.533   2.953 -0.0120  1.5354  2.1012
  633MOL0     H85433   1.192  10.422   2.761 -1.0015  0.3709 -3.1857
  633MOL0     H85434   1.326  10.524   2.801 -0.4638  1.3099  1.6502
  633MOL0     H85435   1.186  10.592   2.583 -0.3529 -0.2209 -0.2197
  633MOL0     H85436   1.199  10.724   2.701  0.2394 -0.6540 -0.0579
  633MOL0     H85437   0.789  10.674   3.681  1.1431  0.4053 -2.7794
  633MOL0     H85438   0.579  10.624   3.784  2.2352  3.9969  1.8805
  633MOL0     H85439   0.249  10.440   3.698  1.7967  1.6801  1.2244
  633MOL0     H85440   0.107  10.270   3.773 -4.0996 -1.0458  0.7703
  633MOL0     H85441   0.156  10.836   4.292  3.3725  1.1426  0.5607
  633MOL0     H85442   0.328  11.003   4.218  0.7300  2.2980  0.8111
  633MOL0     H85443   0.325  11.410   3.969  1.0977  3.5638 -2.8373
  633MOL0     H85444   0.462  11.593   3.874 -2.7293  0.7313  0.4310
  633MOL0     H85445   0.809  11.595   4.015  1.4000  0.5264 -0.0882
  633MOL0     H85446   0.751  11.604   3.859  0.3114 -0.4660 -0.1793
  633MOL0     H85447   0.952  11.731   3.850  0.5903 -1.0121 -0.0580
  633MOL0     H85448   0.921  11.814   4.009 -1.1593  2.9613 -0.5887
  633MOL0     H85449   0.730  11.863   3.777 -0.7319 -0.0983  0.3269
  633MOL0     H85450   0.904  11.923   3.770  0.9983 -2.6602  0.4473
  633MOL0     H85451   0.879  12.062   3.952 -0.6593  2.5394  0.5461
  633MOL0     H85452   0.752  11.979   4.030 -0.5937  1.2933  0.9142
  633MOL0     H85453   0.520  12.270   3.860 -0.5009 -0.0299 -1.4811
  633MOL0     H85454   0.641  11.661   4.257 -0.1054  1.7475 -0.9659
  633MOL0     H85455   0.518  11.471   4.354 -0.3839 -0.0570 -0.2189
  634MOL0     O85456   8.694   6.224   7.634 -0.1508 -0.1095  0.9479
  634MOL0     C85457   8.708   6.243   7.514 -0.5586  0.2019 -0.1089
  634MOL0     O85458   8.727   6.361   7.458  0.1004  0.5543  0.0925
  634MOL0     C85459   8.753   6.479   7.527  0.0909 -1.2476 -0.5057
  634MOL0     C85460   8.828   6.571   7.455  0.7888 -0.2089  0.0187
  634MOL0     C85461   8.849   6.701   7.505 -0.9204 -0.1281 -0.0970
  634MOL0     C85462   8.799   6.743   7.630 -0.1546  0.1432 -0.8062
  634MOL0     O85463   8.825   6.874   7.672  0.3684 -0.7002 -0.8034
  634MOL0     C85464   8.773   6.939   7.785  0.2630  0.0755  1.4549
  634MOL0     C85465   8.833   7.079   7.783 -0.1361  0.1209  0.3317
  634MOL0     C85466   8.747   7.188   7.857  0.0173  0.2977 -0.0553
  634MOL0     C85467   8.751   7.188   8.014 -0.7803  0.6425 -0.1235
  634MOL0     C85468   8.667   7.295   8.069  0.7639 -1.2643 -0.0033
  634MOL0     C85469   8.648   7.271   8.219 -0.3460  0.2776  0.3208
  634MOL0     C85470   8.541   7.378   8.262 -0.9595 -0.0041 -0.4543
  634MOL0     C85471   8.597   7.515   8.286 -0.8980  0.1491  0.7432
  634MOL0     N85472   8.502   7.608   8.357  0.5688  0.7592 -0.3298
  634MOL0     C85473   8.471   7.613   8.487  0.1182  0.4207  0.5431
  634MOL0     C85474   8.408   7.732   8.503 -0.4869 -0.3404 -0.1955
  634MOL0     C85475   8.356   7.785   8.640 -0.3857  0.2006  0.0480
  634MOL0     C85476   8.204   7.772   8.648 -0.1395 -0.5582  0.0818
  634MOL0     C85477   8.123   7.883   8.566 -0.7478 -0.8104  0.3532
  634MOL0     C85478   8.064   8.000   8.645  0.4403 -0.3236  0.1904
  634MOL0     O85479   7.961   7.934   8.721  0.0874 -0.2432 -0.1065
  634MOL0     C85480   7.842   7.892   8.661  0.5582 -0.3873  0.2500
  634MOL0     C85481   7.801   7.911   8.524 -0.1909 -0.0251 -0.2469
  634MOL0     C85482   7.695   7.830   8.469 -0.4622 -0.1389  0.5566
  634MOL0     C85483   7.660   7.857   8.325  0.0216 -0.1832  0.3028
  634MOL0     C85484   7.611   7.768   8.556  0.0076  0.1737  0.2517
  634MOL0     C85485   7.479   7.700   8.523 -0.0776 -0.0997  0.2917
  634MOL0     O85486   7.401   7.657   8.635 -0.6892 -0.5711  0.4793
  634MOL0     C85487   7.267   7.665   8.641  0.4988 -0.5496 -0.1478
  634MOL0     C85488   7.185   7.753   8.574  0.2400  0.1907  0.4479
  634MOL0     C85489   7.055   7.786   8.605 -0.1354 -0.5204  0.1040
  634MOL0     C85490   6.993   7.715   8.709  0.0461  0.1476 -0.1068
  634MOL0     O85491   6.859   7.744   8.722  0.1442  0.2455  0.3951
  634MOL0     C85492   6.792   7.675   8.838 -0.3575  0.9890  0.4089
  634MOL0     C85493   6.647   7.711   8.823 -0.6993 -0.2439 -0.0227
  634MOL0     C85494   6.582   7.630   8.709 -0.0834 -0.3873 -0.0379
  634MOL0     C85495   6.434   7.685   8.706  0.4903 -0.4483 -0.3190
  634MOL0     C85496   6.337   7.613   8.597 -0.0251 -0.6613  0.3874
  634MOL0     C85497   6.220   7.695   8.578 -0.9410  0.1996  0.0649
  634MOL0     C85498   6.131   7.634   8.470  0.0959 -0.0398 -0.5151
  634MOL0     C85499   6.016   7.725   8.449 -0.5839 -0.3506  0.5544
  634MOL0    Cl85500   5.920   7.752   8.604  0.1473  0.1354  0.6763
  634MOL0     C85501   7.067   7.623   8.780 -0.1581  0.3822 -0.3405
  634MOL0     C85502   7.203   7.604   8.748  0.3305 -0.0585 -0.5459
  634MOL0     O85503   7.456   7.666   8.408  0.1591  0.0198 -0.5216
  634MOL0     C85504   7.637   7.774   8.695  0.2319  0.9244 -0.2302
  634MOL0     C85505   7.748   7.838   8.743 -0.1564 -0.3437  0.0462
  634MOL0     N85506   8.382   7.796   8.383  0.1771 -0.3688  0.1893
  634MOL0     N85507   8.425   7.706   8.297 -0.3112  0.3782 -0.8543
  634MOL0     C85508   8.713   6.654   7.700 -0.1435  0.1442 -0.0411
  634MOL0     C85509   8.695   6.527   7.650  0.1765 -0.5807  0.2394
  634MOL0     C85510   8.707   6.133   7.422  0.9235 -0.8111 -0.6492
  634MOL0     C85511   8.721   6.165   7.282 -0.6229 -0.1079  0.1842
  634MOL0     C85512   8.712   6.056   7.198  0.8884 -0.0951 -0.4456
  634MOL0     C85513   8.681   5.919   7.243 -0.0692 -0.2297  0.3679
  634MOL0     O85514   8.668   5.833   7.139  0.0592  1.1162  0.5343
  634MOL0     C85515   8.628   5.692   7.155 -0.3648 -0.4532 -0.4156
  634MOL0     C85516   8.477   5.670   7.152 -0.0671 -0.5181 -0.3645
  634MOL0     C85517   8.442   5.527   7.159 -0.4750 -0.6518  0.6636
  634MOL0     C85518   8.288   5.482   7.165  0.0825 -0.4503  0.3339
  634MOL0     C85519   8.230   5.519   7.033 -0.2621  0.5640 -0.4383
  634MOL0     C85520   8.185   5.559   6.931  0.5911  0.4322  0.1111
  634MOL0     C85521   8.670   5.889   7.379 -0.0006  0.3787 -0.3266
  634MOL0     C85522   8.672   6.003   7.467 -0.4046 -0.0012  0.1994
  634MOL0     H85523   8.859   6.539   7.356 -0.1976  0.1893 -0.4421
  634MOL0     H85524   8.918   6.770   7.457 -2.1734  1.0586 -0.2567
  634MOL0     H85525   8.667   6.945   7.758  1.2175  0.1150 -3.0652
  634MOL0     H85526   8.781   6.895   7.885 -0.0827 -1.6480  0.7554
  634MOL0     H85527   8.936   7.091   7.816 -0.7103  2.0080  1.6033
  634MOL0     H85528   8.833   7.106   7.677 -2.6234 -0.8411  0.0161
  634MOL0     H85529   8.782   7.288   7.829 -2.5041  1.2282 -0.1306
  634MOL0     H85530   8.644   7.180   7.822  0.3589 -3.6150 -0.6706
  634MOL0     H85531   8.713   7.094   8.055 -1.2185  0.9335  0.1553
  634MOL0     H85532   8.853   7.202   8.050 -1.0824 -1.4818  1.7770
  634MOL0     H85533   8.712   7.391   8.043  2.8535 -1.7883  1.4540
  634MOL0     H85534   8.571   7.290   8.016  1.8065 -0.1870 -2.1274
  634MOL0     H85535   8.608   7.170   8.237 -1.6416  0.1225 -2.7703
  634MOL0     H85536   8.738   7.276   8.280 -1.3212 -1.8018  2.0747
  634MOL0     H85537   8.460   7.373   8.189  0.0331 -1.2487 -1.5209
  634MOL0     H85538   8.496   7.343   8.355 -2.2197 -2.5803 -1.8964
  634MOL0     H85539   8.625   7.565   8.193  2.4879  1.4351  2.2992
  634MOL0     H85540   8.693   7.501   8.337 -0.2665  0.8291 -0.2275
  634MOL0     H85541   8.499   7.540   8.562 -0.2256 -1.2436 -0.8757
  634MOL0     H85542   8.419   7.724   8.705  2.7070 -0.7787 -3.5104
  634MOL0     H85543   8.376   7.892   8.650 -2.8104  1.0413 -2.5909
  634MOL0     H85544   8.161   7.775   8.749 -1.5618  0.5098 -0.5173
  634MOL0     H85545   8.174   7.676   8.605 -0.3917 -0.1802 -0.5970
  634MOL0     H85546   8.045   7.828   8.514 -0.0415 -1.5645  0.0582
  634MOL0     H85547   8.185   7.927   8.487 -2.7424  3.0444  0.6861
  634MOL0     H85548   8.019   8.063   8.568 -1.1919 -0.8341  0.6789
  634MOL0     H85549   8.134   8.052   8.710  0.4726  0.6050 -0.5734
  634MOL0     H85550   7.873   7.955   8.455  1.3347  2.5521  2.7438
  634MOL0     H85551   7.672   7.758   8.282  1.1469 -1.4836  3.3159
  634MOL0     H85552   7.559   7.898   8.328  0.0014 -0.2527  0.6222
  634MOL0     H85553   7.733   7.930   8.289 -0.7339  1.7261  2.3910
  634MOL0     H85554   7.224   7.822   8.499  2.5361  3.7826  4.4453
  634MOL0     H85555   7.014   7.874   8.557 -0.2596 -0.0779  1.0079
  634MOL0     H85556   6.798   7.566   8.841 -1.5476  0.9216  0.7796
  634MOL0     H85557   6.830   7.719   8.931 -0.3207  1.9839 -0.0648
  634MOL0     H85558   6.595   7.680   8.914  2.1342  0.2738  1.8971
  634MOL0     H85559   6.632   7.820   8.825  0.7708  0.0297 -1.3965
  634MOL0     H85560   6.585   7.522   8.726  0.6096 -0.4961 -0.7707
  634MOL0     H85561   6.647   7.639   8.621  2.4817 -1.8939  1.5629
  634MOL0     H85562   6.387   7.674   8.804 -2.8052  2.6150 -1.3422
  634MOL0     H85563   6.445   7.793   8.692  3.2725 -0.6456 -0.2168
  634MOL0     H85564   6.307   7.512   8.625 -0.2635 -0.8556 -0.5251
  634MOL0     H85565   6.384   7.604   8.499 -1.7138 -1.0619 -0.4302
  634MOL0     H85566   6.173   7.691   8.677  1.6374  0.1523  1.3774
  634MOL0     H85567   6.238   7.799   8.548 -0.4444 -0.6193 -2.7428
  634MOL0     H85568   6.086   7.537   8.493 -0.4194 -0.5884 -3.4828
  634MOL0     H85569   6.183   7.635   8.374 -1.8531  0.8204 -1.6199
  634MOL0     H85570   5.955   7.669   8.376  1.0868 -0.8477 -0.5196
  634MOL0     H85571   6.043   7.824   8.414  2.2280 -0.8447  1.1070
  634MOL0     H85572   7.022   7.560   8.857  0.2074 -0.1485 -0.5513
  634MOL0     H85573   7.262   7.547   8.819 -0.9325 -0.5822  0.1082
  634MOL0     H85574   7.580   7.727   8.774 -0.5761 -0.3890 -1.5216
  634MOL0     H85575   7.779   7.832   8.847 -2.2643 -1.4692  0.6621
  634MOL0     H85576   8.667   6.690   7.792 -0.5552  0.3805 -0.3315
  634MOL0     H85577   8.620   6.471   7.703  0.5774 -1.1183  0.2462
  634MOL0     H85578   8.736   6.263   7.238 -1.3239  0.7283  1.7485
  634MOL0     H85579   8.723   6.080   7.092  0.1872 -0.1983 -0.5444
  634MOL0     H85580   8.669   5.649   7.063  0.7182  2.8986 -1.6603
  634MOL0     H85581   8.665   5.645   7.246 -0.1181  0.9828  0.2509
  634MOL0     H85582   8.432   5.719   7.065  2.6081  0.8509 -1.1013
  634MOL0     H85583   8.436   5.723   7.238 -1.2267 -0.8591 -0.6936
  634MOL0     H85584   8.499   5.490   7.245  0.6800  1.4074  0.8552
  634MOL0     H85585   8.477   5.484   7.065 -1.4004  1.9301 -0.9808
  634MOL0     H85586   8.232   5.531   7.245  1.7517  2.1249  0.0182
  634MOL0     H85587   8.285   5.376   7.192  0.2914 -1.0886 -1.8922
  634MOL0     H85588   8.143   5.595   6.840  3.0175  0.7405 -0.9640
  634MOL0     H85589   8.635   5.787   7.391 -2.1063  0.6048 -3.4853
  634MOL0     H85590   8.638   5.977   7.567 -1.7690  0.1445 -0.2055
  635MOL0     O85591   0.108   0.770   3.015 -0.0917 -0.0784 -0.5281
  635MOL0     C85592   0.150   0.841   3.104 -0.8346 -0.0863 -0.1699
  635MOL0     O85593   0.158   0.805   3.229  0.3195  0.1077 -0.2028
  635MOL0     C85594   0.115   0.683   3.270 -0.5703  1.2387  0.2276
  635MOL0     C85595   0.153   0.656   3.399  0.2463 -0.7879  0.5554
  635MOL0     C85596   0.119   0.548   3.463 -0.2154  1.0516  0.1585
  635MOL0     C85597   0.034   0.445   3.403  0.6058 -0.4074  0.6407
  635MOL0     O85598   0.014   0.326   3.470  0.1840 -0.3383 -0.2872
  635MOL0     C85599  -0.120   0.277   3.462  0.9073 -0.4487  0.2087
  635MOL0     C85600  -0.231   0.354   3.539  0.3801  0.4085 -0.2626
  635MOL0     C85601  -0.372   0.297   3.496  0.2587  0.1202  0.6100
  635MOL0     C85602  -0.439   0.371   3.380 -0.0659 -0.2952  0.3581
  635MOL0     C85603  -0.577   0.414   3.424  0.5423 -0.1489 -1.2942
  635MOL0     C85604  -0.666   0.303   3.456  0.6514 -0.5985  0.4335
  635MOL0     C85605  -0.813   0.340   3.400 -0.2055 -0.4635  0.2153
  635MOL0     C85606  -0.899   0.224   3.404 -0.5958 -0.5166 -1.3040
  635MOL0     N85607  -1.027   0.254   3.338 -0.3738  0.3726 -0.2078
  635MOL0     C85608  -1.145   0.289   3.386 -0.0592 -0.3962 -0.6098
  635MOL0     C85609  -1.219   0.316   3.284  0.0407 -0.2685  0.6893
  635MOL0     C85610  -1.356   0.374   3.308  0.4594  0.1156 -0.7108
  635MOL0     C85611  -1.411   0.460   3.188 -0.0041 -0.3549  0.1105
  635MOL0     C85612  -1.517   0.374   3.112  0.3521 -0.0950  0.3529
  635MOL0     C85613  -1.479   0.232   3.048  0.9425  0.3113  0.3776
  635MOL0     O85614  -1.588   0.191   2.966  0.2026  0.7450 -0.4827
  635MOL0     C85615  -1.710   0.176   3.016  0.2984 -0.8414  0.4270
  635MOL0     C85616  -1.748   0.101   3.130  0.1563 -0.2177  0.2336
  635MOL0     C85617  -1.885   0.095   3.172  0.5698 -0.1222 -0.7613
  635MOL0     C85618  -1.905   0.015   3.297  0.0638 -0.2967  0.9441
  635MOL0     C85619  -1.985   0.147   3.089  0.1114  0.2567  0.6384
  635MOL0     C85620  -2.127   0.143   3.126  0.9414 -0.4122 -0.5033
  635MOL0     O85621  -2.207   0.061   3.047 -0.4370 -1.1243  1.1079
  635MOL0     C85622  -2.345   0.048   3.067 -0.6864  0.0696  0.0759
  635MOL0     C85623  -2.416   0.021   3.189  0.2707  0.0818 -0.8160
  635MOL0     C85624  -2.550   0.020   3.195 -0.2566  0.2721  0.1734
  635MOL0     C85625  -2.629   0.036   3.082  0.7902  0.1154  0.1274
  635MOL0     O85626  -2.765   0.027   3.095  0.0187  0.3449 -0.1622
  635MOL0     C85627  -2.848   0.142   3.065 -0.1526  0.1095 -0.0137
  635MOL0     C85628  -2.941   0.120   2.948 -0.5662  0.4220  0.5068
  635MOL0     C85629  -2.891   0.204   2.826 -0.0111 -0.0430  0.1340
  635MOL0     C85630  -2.980   0.330   2.805  0.5662  0.1089 -0.7687
  635MOL0     C85631  -2.921   0.438   2.715 -0.7534  0.5368  1.1594
  635MOL0     C85632  -2.885   0.381   2.576  0.3067  0.0819 -0.2495
  635MOL0     C85633  -2.832   0.494   2.486  0.4137 -0.2340  0.8187
  635MOL0     C85634  -2.728   0.430   2.388  0.5680  0.2564 -0.1370
  635MOL0    Cl85635  -2.795   0.277   2.307 -0.1021 -0.1265  0.3034
  635MOL0     C85636  -2.568   0.064   2.964  1.2794 -0.1647 -0.3463
  635MOL0     C85637  -2.434   0.061   2.950 -0.5521 -0.0413 -0.0916
  635MOL0     O85638  -2.161   0.210   3.218 -0.3994  0.0035 -1.0756
  635MOL0     C85639  -1.946   0.216   2.981  0.3158 -0.9856  0.1466
  635MOL0     C85640  -1.810   0.225   2.945  0.8318  0.2315 -0.1685
  635MOL0     N85641  -1.153   0.296   3.164 -1.2472  0.6767  0.0021
  635MOL0     N85642  -1.033   0.255   3.198 -0.2930  0.7476 -0.1251
  635MOL0     C85643  -0.012   0.475   3.274 -1.9882  0.1887 -1.1414
  635MOL0     C85644   0.015   0.594   3.213  0.5555  0.5300  0.1460
  635MOL0     C85645   0.198   0.974   3.059 -0.9576  0.0866 -0.0218
  635MOL0     C85646   0.190   1.013   2.924 -0.4533  0.0288 -0.9281
  635MOL0     C85647   0.245   1.140   2.891 -0.0036  1.2299 -0.7367
  635MOL0     C85648   0.304   1.228   2.987  0.2581  0.5361 -0.5907
  635MOL0     O85649   0.346   1.356   2.955 -0.1763  0.0720 -0.4381
  635MOL0     C85650   0.369   1.395   2.817 -0.1401  0.1347 -0.3996
  635MOL0     C85651   0.273   1.509   2.778 -0.2493 -0.1261  0.2813
  635MOL0     C85652   0.292   1.623   2.876 -0.1104 -1.3880 -0.2594
  635MOL0     C85653   0.230   1.751   2.847 -0.7614 -0.7670  0.0668
  635MOL0     C85654   0.284   1.816   2.724  0.2546  0.0705 -0.2174
  635MOL0     C85655   0.332   1.864   2.623 -0.2433 -0.2045  0.0612
  635MOL0     C85656   0.306   1.185   3.119 -0.0648  0.1059  0.3485
  635MOL0     C85657   0.253   1.063   3.151  0.1556  0.5413 -0.6131
  635MOL0     H85658   0.214   0.730   3.451 -1.1426 -0.0189  1.1345
  635MOL0     H85659   0.140   0.537   3.568 -0.6961  0.6300  0.2114
  635MOL0     H85660  -0.138   0.259   3.355 -2.3120  2.2997  0.1317
  635MOL0     H85661  -0.128   0.178   3.508 -1.1125 -0.4416 -0.0311
  635MOL0     H85662  -0.219   0.342   3.647 -0.7055  0.1748 -0.1496
  635MOL0     H85663  -0.224   0.460   3.513  1.2979  0.3690 -0.1870
  635MOL0     H85664  -0.366   0.193   3.463 -2.9850  0.3288 -1.0832
  635MOL0     H85665  -0.436   0.302   3.585 -3.9945 -0.6865 -2.0751
  635MOL0     H85666  -0.386   0.462   3.352  0.4491 -0.9139 -0.7491
  635MOL0     H85667  -0.438   0.303   3.294  1.8883 -0.7391  0.6976
  635MOL0     H85668  -0.572   0.492   3.501 -1.3013 -0.2197 -1.0483
  635MOL0     H85669  -0.610   0.468   3.334  0.1173 -0.4537 -1.3221
  635MOL0     H85670  -0.628   0.204   3.430 -0.4993 -0.7881 -0.6158
  635MOL0     H85671  -0.676   0.292   3.565 -0.9536 -2.0319  0.1939
  635MOL0     H85672  -0.863   0.406   3.471 -2.1945 -2.0897  0.4140
  635MOL0     H85673  -0.806   0.385   3.301 -0.7910  3.3482  1.7262
  635MOL0     H85674  -0.916   0.194   3.508  0.9984 -0.9947 -1.1479
  635MOL0     H85675  -0.853   0.133   3.362 -1.5158 -2.0759  0.8804
  635MOL0     H85676  -1.167   0.310   3.490  4.1328  1.3248  0.1278
  635MOL0     H85677  -1.425   0.298   3.346  1.8688 -0.6602  0.4333
  635MOL0     H85678  -1.335   0.444   3.390  0.4963 -2.1752  1.3708
  635MOL0     H85679  -1.327   0.491   3.126  0.2541 -2.8555 -0.9159
  635MOL0     H85680  -1.463   0.545   3.233 -1.1295 -1.4655  0.9826
  635MOL0     H85681  -1.564   0.431   3.031  0.2968  1.3938  1.3803
  635MOL0     H85682  -1.596   0.361   3.186 -1.3513  2.5982 -0.8529
  635MOL0     H85683  -1.460   0.160   3.128  1.1753  2.4905  2.3734
  635MOL0     H85684  -1.385   0.247   2.994  1.6826 -1.0807  1.2148
  635MOL0     H85685  -1.670   0.037   3.169 -0.1034 -2.2718 -2.4004
  635MOL0     H85686  -1.991   0.054   3.351 -1.9304 -2.1272 -0.7088
  635MOL0     H85687  -1.924  -0.087   3.262 -1.7125  0.4388 -0.3469
  635MOL0     H85688  -1.814   0.013   3.358  0.5202  1.6099  0.3961
  635MOL0     H85689  -2.359   0.005   3.280 -0.9608  0.4848  0.0373
  635MOL0     H85690  -2.589  -0.016   3.290  3.5681 -1.1103  1.4170
  635MOL0     H85691  -2.919   0.165   3.145  3.4523  3.9725  2.5162
  635MOL0     H85692  -2.795   0.238   3.071 -1.2077  0.6023  3.7125
  635MOL0     H85693  -2.939   0.015   2.918 -1.8110  1.5357 -4.1999
  635MOL0     H85694  -3.048   0.129   2.972 -0.4923  1.0968  0.6052
  635MOL0     H85695  -2.906   0.139   2.740 -1.0937  0.1640  0.1516
  635MOL0     H85696  -2.787   0.235   2.841 -1.0713  2.9828  2.2173
  635MOL0     H85697  -3.080   0.300   2.773 -0.1704  1.3178  0.3003
  635MOL0     H85698  -2.996   0.371   2.905 -0.4529 -0.9087 -0.4911
  635MOL0     H85699  -2.824   0.463   2.761  1.9712 -4.7500 -0.8808
  635MOL0     H85700  -2.991   0.521   2.703 -0.4038  0.3616 -4.3283
  635MOL0     H85701  -2.808   0.306   2.594  1.0212  0.4375 -1.6470
  635MOL0     H85702  -2.975   0.342   2.527 -0.8422 -0.1664  1.9335
  635MOL0     H85703  -2.777   0.563   2.552 -0.1072 -1.2949  2.4386
  635MOL0     H85704  -2.903   0.549   2.424  3.3425  0.1415 -2.5171
  635MOL0     H85705  -2.645   0.391   2.446 -1.0032  0.5531  2.4590
  635MOL0     H85706  -2.696   0.508   2.318 -5.1979  1.8760 -1.5367
  635MOL0     H85707  -2.636   0.079   2.881 -1.3906  2.2210  2.0790
  635MOL0     H85708  -2.385   0.084   2.856  2.7014  3.4483  2.1317
  635MOL0     H85709  -2.021   0.271   2.924  0.5750 -0.5167  0.2577
  635MOL0     H85710  -1.786   0.274   2.851  0.4259  1.1297  0.1813
  635MOL0     H85711  -0.044   0.387   3.219 -0.5675 -0.6765 -0.6483
  635MOL0     H85712  -0.040   0.617   3.122 -1.0287  1.2432  1.2269
  635MOL0     H85713   0.157   0.947   2.844 -2.2651 -1.2051  0.7432
  635MOL0     H85714   0.260   1.159   2.785 -0.3264  0.5380 -0.9096
  635MOL0     H85715   0.472   1.433   2.817  0.0621 -0.2547  1.9357
  635MOL0     H85716   0.364   1.315   2.743  1.3026  0.9818 -1.4678
  635MOL0     H85717   0.168   1.479   2.774 -0.1535 -0.3524 -2.1793
  635MOL0     H85718   0.294   1.540   2.675 -2.0886 -0.8522 -0.3526
  635MOL0     H85719   0.398   1.639   2.899 -0.4523 -0.6598  0.8986
  635MOL0     H85720   0.255   1.594   2.975  3.4534 -0.1424  1.6162
  635MOL0     H85721   0.248   1.814   2.935  1.6841 -1.4850  0.1520
  635MOL0     H85722   0.122   1.738   2.834 -0.5303 -4.4842  0.6099
  635MOL0     H85723   0.386   1.908   2.542  3.6244 -2.2727  1.2112
  635MOL0     H85724   0.355   1.252   3.189  1.3431  0.6262 -1.0605
  635MOL0     H85725   0.256   1.047   3.259  0.7510  2.4198 -0.3087
  636MOL0     O85726   9.139   4.675   5.172  0.3509 -0.0991  0.1227
  636MOL0     C85727   9.104   4.720   5.276 -0.3057 -0.8423 -1.0984
  636MOL0     O85728   9.072   4.851   5.304  0.7612  0.0561 -0.1142
  636MOL0     C85729   9.072   4.932   5.193 -0.5448  0.2532 -0.5771
  636MOL0     C85730   9.186   4.997   5.145  0.5945 -0.0109  0.2778
  636MOL0     C85731   9.179   5.079   5.026  1.3552  0.2208  0.5342
  636MOL0     C85732   9.062   5.091   4.947  0.3152 -0.1985  0.0103
  636MOL0     O85733   9.062   5.181   4.836  0.0468  0.6654 -0.7226
  636MOL0     C85734   8.984   5.157   4.724  1.3166 -0.2159  0.7105
  636MOL0     C85735   9.064   5.102   4.602 -0.2457 -0.1093 -0.7360
  636MOL0     C85736   8.972   5.107   4.475 -0.2904  0.8173  0.8727
  636MOL0     C85737   8.883   4.979   4.464  0.0872 -0.8661  0.5993
  636MOL0     C85738   8.836   4.968   4.315  0.8564 -0.6608 -0.5999
  636MOL0     C85739   8.717   4.876   4.286  0.4864 -1.0018  1.0423
  636MOL0     C85740   8.746   4.730   4.274  0.6848 -0.0931 -0.2597
  636MOL0     C85741   8.627   4.646   4.321 -0.4459  0.2940  0.5391
  636MOL0     N85742   8.626   4.612   4.464  0.2552 -0.1997 -0.3984
  636MOL0     C85743   8.520   4.607   4.546 -0.2128  0.0097  0.1384
  636MOL0     C85744   8.569   4.573   4.668 -0.6406  0.7748  0.6053
  636MOL0     C85745   8.507   4.588   4.800  0.5341  0.4975  0.6232
  636MOL0     C85746   8.546   4.471   4.883 -0.8225  0.6972 -0.3182
  636MOL0     C85747   8.448   4.408   4.988  0.0836 -1.0197  0.8345
  636MOL0     C85748   8.483   4.275   5.024  0.3735 -0.7815  0.1931
  636MOL0     O85749   8.457   4.191   4.913 -0.4048  0.3241  0.4800
  636MOL0     C85750   8.480   4.056   4.937 -1.1499 -0.4716 -0.6517
  636MOL0     C85751   8.452   3.970   4.829 -0.6452  0.6979 -0.1993
  636MOL0     C85752   8.450   3.830   4.847 -0.5733 -0.9111  0.4893
  636MOL0     C85753   8.412   3.748   4.725  0.4871  0.7753 -0.5301
  636MOL0     C85754   8.497   3.775   4.967  0.2379 -0.0668  0.6187
  636MOL0     C85755   8.510   3.616   4.988 -0.1286 -0.6773 -0.5335
  636MOL0     O85756   8.559   3.600   5.121 -0.0370  0.6071 -0.1557
  636MOL0     C85757   8.590   3.471   5.148  0.3373 -0.5560  0.3726
  636MOL0     C85758   8.499   3.400   5.235 -0.0649 -0.3973  0.9639
  636MOL0     C85759   8.537   3.270   5.272  0.0590  0.8317  0.5659
  636MOL0     C85760   8.657   3.212   5.220 -0.2761 -1.0032  0.2482
  636MOL0     O85761   8.681   3.082   5.251  0.4285 -0.5358  0.1005
  636MOL0     C85762   8.774   3.016   5.167 -0.2918  0.5917  0.2921
  636MOL0     C85763   8.768   2.862   5.186 -0.4074 -0.0181 -0.5458
  636MOL0     C85764   8.622   2.812   5.197  0.3001 -0.4415  0.3788
  636MOL0     C85765   8.619   2.671   5.240  0.4609  0.0648  1.4571
  636MOL0     C85766   8.484   2.625   5.286  0.9330 -0.3720 -0.2301
  636MOL0     C85767   8.495   2.498   5.366  0.1662  0.7757  0.2404
  636MOL0     C85768   8.365   2.424   5.363  0.3770  0.0813 -0.3763
  636MOL0     C85769   8.323   2.378   5.227 -0.1162  1.1941 -0.0649
  636MOL0    Cl85770   8.192   2.262   5.241 -0.7826  0.3854  0.1365
  636MOL0     C85771   8.745   3.297   5.138 -0.4394  0.2263 -0.2612
  636MOL0     C85772   8.715   3.425   5.098  0.2699  0.6500 -0.0742
  636MOL0     O85773   8.494   3.526   4.905 -0.6413  0.4224  0.7081
  636MOL0     C85774   8.533   3.862   5.074  0.0236 -0.3946  1.3679
  636MOL0     C85775   8.531   3.998   5.059 -0.6392 -0.0487 -1.0845
  636MOL0     N85776   8.702   4.542   4.650 -0.1014  0.2884 -0.9367
  636MOL0     N85777   8.729   4.556   4.526 -0.1063 -0.1992  0.3735
  636MOL0     C85778   8.948   5.020   5.006 -0.3608 -0.2978  0.4686
  636MOL0     C85779   8.961   4.940   5.116 -0.7458 -0.1831 -0.5883
  636MOL0     C85780   9.115   4.617   5.396 -0.2747 -0.1774  0.3292
  636MOL0     C85781   9.127   4.662   5.530 -0.6735 -0.2277  0.4488
  636MOL0     C85782   9.146   4.568   5.633  0.3765 -0.7667 -0.2981
  636MOL0     C85783   9.137   4.432   5.598  0.1046  0.1390  0.8365
  636MOL0     O85784   9.157   4.327   5.687  0.4680 -1.2522 -0.2881
  636MOL0     C85785   9.189   4.367   5.827  0.7416 -0.0265 -0.0831
  636MOL0     C85786   9.212   4.233   5.896  1.5884 -0.0045  0.5166
  636MOL0     C85787   9.242   4.251   6.047 -0.7396 -1.1985 -1.1388
  636MOL0     C85788   9.312   4.128   6.102  0.9135  0.3112 -0.0220
  636MOL0     C85789   9.356   4.139   6.246  0.0487 -0.5948  1.0344
  636MOL0     C85790   9.384   4.140   6.367  0.0041 -0.7607  0.1900
  636MOL0     C85791   9.133   4.396   5.461 -0.4055  1.2216  0.4869
  636MOL0     C85792   9.123   4.484   5.354 -0.1248 -0.3146  0.2411
  636MOL0     H85793   9.286   4.991   5.188  1.1467 -0.5004 -1.0300
  636MOL0     H85794   9.273   5.126   5.000  2.7001 -2.5029  0.1691
  636MOL0     H85795   8.901   5.090   4.749  0.5072  0.4760 -0.0930
  636MOL0     H85796   8.932   5.248   4.693 -1.8591 -1.8011  1.0331
  636MOL0     H85797   9.161   5.149   4.581  0.6708 -1.2360  0.7266
  636MOL0     H85798   9.095   4.998   4.616  1.0943  0.1900 -1.2786
  636MOL0     H85799   8.910   5.196   4.462  0.1554  1.1800  1.1631
  636MOL0     H85800   9.044   5.092   4.394 -0.8743 -1.1510  0.6709
  636MOL0     H85801   8.951   4.893   4.471 -1.4160 -2.5106 -2.6560
  636MOL0     H85802   8.803   4.977   4.538 -1.7578  0.9595 -1.1881
  636MOL0     H85803   8.811   5.064   4.269 -0.2372 -0.7043 -0.1097
  636MOL0     H85804   8.926   4.929   4.266  0.2356 -1.5727 -1.0376
  636MOL0     H85805   8.635   4.894   4.356 -0.1917 -1.1148  0.2940
  636MOL0     H85806   8.687   4.911   4.186  2.6509 -0.2954  0.5779
  636MOL0     H85807   8.757   4.707   4.168 -0.7250 -0.1926 -0.4041
  636MOL0     H85808   8.837   4.714   4.333  0.0332  2.0483  1.4457
  636MOL0     H85809   8.641   4.552   4.267 -2.1945 -0.9722  2.1670
  636MOL0     H85810   8.527   4.679   4.290 -0.6941 -0.6319  0.3405
  636MOL0     H85811   8.422   4.633   4.507 -1.3047  0.2755  2.8825
  636MOL0     H85812   8.532   4.687   4.839 -0.3185  1.3365 -0.8723
  636MOL0     H85813   8.399   4.586   4.782  0.4119  0.8428  1.2979
  636MOL0     H85814   8.631   4.497   4.947 -0.2539 -1.4120 -0.1713
  636MOL0     H85815   8.579   4.392   4.816 -2.2533 -1.2119  1.0915
  636MOL0     H85816   8.343   4.402   4.957 -0.8827 -2.8475  4.0614
  636MOL0     H85817   8.432   4.476   5.071  0.7146  2.8148 -1.9124
  636MOL0     H85818   8.431   4.248   5.117  2.7688 -3.9315  0.8053
  636MOL0     H85819   8.589   4.266   5.048 -0.1880 -1.9303  2.5531
  636MOL0     H85820   8.426   4.008   4.731 -2.2820 -0.4595 -0.2473
  636MOL0     H85821   8.495   3.722   4.659 -0.1441 -0.6007 -0.8086
  636MOL0     H85822   8.361   3.661   4.767  3.2789  0.2783  2.1720
  636MOL0     H85823   8.343   3.809   4.665 -1.3260  0.5464  1.2218
  636MOL0     H85824   8.410   3.451   5.272 -1.1670  0.2609 -2.2047
  636MOL0     H85825   8.460   3.220   5.329 -1.2121  0.9866 -0.9352
  636MOL0     H85826   8.752   3.042   5.063 -0.3218 -2.0557 -0.4577
  636MOL0     H85827   8.875   3.044   5.197  1.1104 -3.2509 -0.2478
  636MOL0     H85828   8.821   2.797   5.115  0.4021 -0.2419  0.2455
  636MOL0     H85829   8.819   2.850   5.282 -2.1057 -2.0598  0.1903
  636MOL0     H85830   8.562   2.827   5.106  2.4493 -1.7929 -1.3806
  636MOL0     H85831   8.564   2.867   5.271  1.9408  0.9853  0.6584
  636MOL0     H85832   8.640   2.615   5.148 -1.0702 -1.2603  1.8698
  636MOL0     H85833   8.695   2.655   5.317  0.9670  0.2975  1.0081
  636MOL0     H85834   8.425   2.609   5.196  2.2214 -0.6758 -1.0530
  636MOL0     H85835   8.428   2.701   5.340 -0.4492  1.4009 -3.8054
  636MOL0     H85836   8.583   2.448   5.325 -0.4531  0.7578 -1.0823
  636MOL0     H85837   8.524   2.510   5.471  3.7299 -0.6095 -0.4163
  636MOL0     H85838   8.281   2.469   5.417 -0.7583 -1.5905 -0.6650
  636MOL0     H85839   8.380   2.338   5.429  1.0940  2.3335  2.6451
  636MOL0     H85840   8.409   2.323   5.187 -0.6958 -0.9638  1.4650
  636MOL0     H85841   8.287   2.447   5.150 -0.9998 -3.0798 -3.9292
  636MOL0     H85842   8.840   3.250   5.115 -0.4607 -1.6244  2.9114
  636MOL0     H85843   8.782   3.483   5.037  0.5819  0.0394 -0.3193
  636MOL0     H85844   8.549   3.831   5.177  0.6247  1.6212  1.9211
  636MOL0     H85845   8.556   4.039   5.157 -2.7826 -4.7382  1.7833
  636MOL0     H85846   8.855   5.032   4.952  0.3514 -0.6208 -0.8925
  636MOL0     H85847   8.870   4.908   5.166 -3.2049  1.4866 -3.6012
  636MOL0     H85848   9.132   4.769   5.546  4.8831 -0.3451  1.4046
  636MOL0     H85849   9.143   4.597   5.737 -1.6564 -0.1935 -0.4587
  636MOL0     H85850   9.280   4.427   5.834  1.1483 -0.7420  1.2521
  636MOL0     H85851   9.105   4.422   5.872  2.0576  0.8478  1.3901
  636MOL0     H85852   9.301   4.183   5.857 -0.2348 -3.9691  1.0124
  636MOL0     H85853   9.127   4.165   5.887  2.8837 -1.9072  1.9752
  636MOL0     H85854   9.148   4.273   6.098  0.7626 -1.2516  1.8806
  636MOL0     H85855   9.308   4.337   6.064 -0.6109 -1.3845 -0.6736
  636MOL0     H85856   9.404   4.105   6.047 -0.7144 -0.5752 -2.5678
  636MOL0     H85857   9.249   4.039   6.100  0.7666  0.3298  2.0257
  636MOL0     H85858   9.413   4.159   6.469 -2.4457  1.2603  0.6334
  636MOL0     H85859   9.146   4.293   5.429  0.6178  1.9243 -1.5258
  636MOL0     H85860   9.122   4.452   5.250  2.3027  0.6152 -0.1547
  637MOL0     O85861   7.876  10.749   0.946  0.6403  0.0740 -0.5132
  637MOL0     C85862   7.976  10.682   0.921  0.1011  0.5386  0.5246
  637MOL0     O85863   8.080  10.715   0.835  0.5344  0.5002  0.5662
  637MOL0     C85864   8.070  10.826   0.754  0.0732  0.0235 -0.2097
  637MOL0     C85865   7.953  10.872   0.689 -0.0459  1.3980 -0.7809
  637MOL0     C85866   7.957  10.979   0.602  0.2496 -0.3020  0.5873
  637MOL0     C85867   8.071  11.050   0.574  0.4519  0.4034 -0.3493
  637MOL0     O85868   8.075  11.158   0.484 -0.1264 -0.3747 -0.0013
  637MOL0     C85869   7.960  11.230   0.461  0.1606 -0.0396  0.4166
  637MOL0     C85870   7.994  11.340   0.364 -0.5184 -0.2136  0.0495
  637MOL0     C85871   8.084  11.450   0.411 -0.1323  0.1688 -0.8892
  637MOL0     C85872   8.173  11.501   0.296 -0.3678 -0.1425 -0.0472
  637MOL0     C85873   8.290  11.587   0.339 -0.0445 -0.9695  0.2856
  637MOL0     C85874   8.401  11.524   0.436  0.4663  0.2962  0.7023
  637MOL0     C85875   8.445  11.398   0.363 -0.1740 -0.1559  0.2527
  637MOL0     C85876   8.586  11.355   0.427 -0.3682  0.1835  0.1249
  637MOL0     N85877   8.577  11.214   0.462 -0.6774  0.7702 -0.2305
  637MOL0     C85878   8.631  11.105   0.398  0.7226  0.4264 -0.5112
  637MOL0     C85879   8.655  11.012   0.493  0.0388  0.4158 -0.0511
  637MOL0     C85880   8.703  10.877   0.454 -0.4334 -0.0282 -0.4946
  637MOL0     C85881   8.614  10.761   0.478 -0.3411 -0.5566 -0.2042
  637MOL0     C85882   8.461  10.796   0.448  0.1739  0.5403  1.1758
  637MOL0     C85883   8.421  10.782   0.302 -0.1591  0.7181 -0.0643
  637MOL0     O85884   8.527  10.816   0.206 -0.6005 -0.4618 -0.4087
  637MOL0     C85885   8.503  10.909   0.107  0.0297 -0.0996  0.6137
  637MOL0     C85886   8.615  10.953   0.036 -0.0036  0.2934 -0.6421
  637MOL0     C85887   8.613  11.050  -0.063  0.4917 -0.7704 -0.1242
  637MOL0     C85888   8.756  11.077  -0.128  0.1080 -0.6712 -0.2549
  637MOL0     C85889   8.489  11.104  -0.104 -0.2671  0.1350  0.8438
  637MOL0     C85890   8.470  11.217  -0.200 -0.0005  0.1003 -0.3534
  637MOL0     O85891   8.342  11.236  -0.245 -0.3101  1.0930 -0.2625
  637MOL0     C85892   8.314  11.349  -0.310  1.1015 -0.5869 -0.2353
  637MOL0     C85893   8.192  11.415  -0.283  0.5450 -0.2383  0.0767
  637MOL0     C85894   8.138  11.513  -0.375  0.0163  0.2746 -0.2025
  637MOL0     C85895   8.206  11.548  -0.487  0.3348  0.0223  0.7375
  637MOL0     O85896   8.168  11.641  -0.583 -0.4160  0.8801  0.1115
  637MOL0     C85897   8.030  11.659  -0.604  1.0156  0.3079 -0.1092
  637MOL0     C85898   8.009  11.766  -0.707 -0.0820 -0.4147 -0.5415
  637MOL0     C85899   7.886  11.742  -0.788 -0.2448 -1.0944  0.8051
  637MOL0     C85900   7.834  11.865  -0.861  0.4799  0.4478 -1.0039
  637MOL0     C85901   7.701  11.844  -0.930 -0.2100 -0.2159  0.2814
  637MOL0     C85902   7.646  11.963  -0.999 -0.2461  0.5125  0.1434
  637MOL0     C85903   7.739  12.022  -1.100  1.0555  0.6960 -0.0180
  637MOL0     C85904   7.674  12.063  -1.222  0.2864  0.2980  0.2618
  637MOL0    Cl85905   7.556  12.198  -1.194  0.4714  0.1545  0.0399
  637MOL0     C85906   8.331  11.493  -0.504 -0.1086  0.4633  0.2565
  637MOL0     C85907   8.383  11.387  -0.428  1.4481  0.0354 -0.4401
  637MOL0     O85908   8.566  11.287  -0.223 -0.4151  0.6299 -0.6406
  637MOL0     C85909   8.378  11.041  -0.044  0.4899  0.1607  0.0750
  637MOL0     C85910   8.381  10.953   0.058 -0.6360  0.0024  0.6606
  637MOL0     N85911   8.617  11.057   0.620 -0.9284 -0.3033  0.1882
  637MOL0     N85912   8.558  11.178   0.596  0.3177 -0.1360  1.0390
  637MOL0     C85913   8.190  11.006   0.634  0.1832  0.2217  0.5747
  637MOL0     C85914   8.186  10.894   0.719  1.2579  0.0191 -0.6200
  637MOL0     C85915   7.982  10.549   0.983  0.1043  0.7727 -0.2881
  637MOL0     C85916   8.041  10.441   0.913 -0.1949  0.4207  0.3023
  637MOL0     C85917   8.036  10.307   0.950  1.2141  0.0957  0.2639
  637MOL0     C85918   7.960  10.272   1.062 -0.2712 -0.6058  0.3059
  637MOL0     O85919   7.970  10.140   1.096  0.9540 -0.3216 -0.4227
  637MOL0     C85920   7.894  10.100   1.211 -0.5209  0.6591 -0.5043
  637MOL0     C85921   7.917   9.957   1.247  0.3931 -0.2967  0.4744
  637MOL0     C85922   7.825   9.902   1.359  0.1200 -0.0516  0.5346
  637MOL0     C85923   7.852   9.757   1.382 -0.3607 -0.6210 -0.2929
  637MOL0     C85924   7.820   9.663   1.274  0.4619  0.4329 -0.0878
  637MOL0     C85925   7.795   9.576   1.190  0.2258 -0.2509  0.2207
  637MOL0     C85926   7.906  10.376   1.141 -0.0425  0.1654  0.6925
  637MOL0     C85927   7.907  10.508   1.100 -0.8703  0.5385  0.3648
  637MOL0     H85928   7.865  10.811   0.704  3.2509 -4.0230 -1.0652
  637MOL0     H85929   7.869  11.013   0.548  0.0659  0.8307  1.5536
  637MOL0     H85930   7.881  11.170   0.415  1.1186 -1.0762  0.0752
  637MOL0     H85931   7.925  11.277   0.553  2.0355  1.9170  0.1938
  637MOL0     H85932   8.035  11.298   0.271 -0.4915 -0.7146  0.2855
  637MOL0     H85933   7.898  11.387   0.342  0.4501  0.9599 -1.8954
  637MOL0     H85934   8.023  11.528   0.456 -0.4318  0.1123 -1.1917
  637MOL0     H85935   8.152  11.414   0.488 -1.7247 -1.7256 -0.2747
  637MOL0     H85936   8.213  11.416   0.241 -0.2794 -0.4105  0.4224
  637MOL0     H85937   8.105  11.562   0.237  0.2070 -0.1930 -0.7692
  637MOL0     H85938   8.345  11.619   0.250  1.2747 -0.4422  1.2589
  637MOL0     H85939   8.258  11.686   0.374 -0.2913 -1.3176  1.0570
  637MOL0     H85940   8.482  11.597   0.441  0.3924  0.3358  1.4245
  637MOL0     H85941   8.365  11.496   0.536  3.7304  0.7881  2.1204
  637MOL0     H85942   8.364  11.325   0.365 -2.5308  2.3325  1.0177
  637MOL0     H85943   8.439  11.421   0.257 -3.3549  0.7579  0.5179
  637MOL0     H85944   8.615  11.405   0.520  3.0609 -1.5135  0.1129
  637MOL0     H85945   8.656  11.375   0.345 -0.9021 -0.5463 -0.5342
  637MOL0     H85946   8.639  11.097   0.290  1.3014 -1.2828 -0.3576
  637MOL0     H85947   8.745  10.877   0.353 -0.2592  2.8268 -0.5047
  637MOL0     H85948   8.784  10.857   0.525  1.2711 -0.6267 -2.5018
  637MOL0     H85949   8.628  10.733   0.583  3.4860  2.3321  0.2661
  637MOL0     H85950   8.642  10.670   0.424  1.9380  1.1396 -2.1015
  637MOL0     H85951   8.431  10.894   0.485  0.6732  2.0673 -2.1727
  637MOL0     H85952   8.395  10.727   0.503 -1.0836 -0.0854 -0.9869
  637MOL0     H85953   8.344  10.860   0.299  2.1300  3.3834  2.7124
  637MOL0     H85954   8.387  10.680   0.280  1.5436  0.3261 -1.0417
  637MOL0     H85955   8.705  10.911   0.079 -0.0642 -0.0088 -0.8062
  637MOL0     H85956   8.765  11.165  -0.192 -0.7500  0.3666  0.9900
  637MOL0     H85957   8.850  11.071  -0.074  1.7281  0.1117 -2.8120
  637MOL0     H85958   8.764  11.000  -0.205  1.2504 -0.3306 -0.4982
  637MOL0     H85959   8.132  11.378  -0.200 -2.1027 -2.2534 -2.5134
  637MOL0     H85960   8.034  11.532  -0.352 -0.6258  0.5181 -2.9470
  637MOL0     H85961   7.997  11.565  -0.647 -1.6549 -0.9255  4.0113
  637MOL0     H85962   7.966  11.676  -0.517 -0.3481  1.3237 -1.2681
  637MOL0     H85963   7.994  11.863  -0.658 -1.4365 -1.6173  1.5706
  637MOL0     H85964   8.081  11.769  -0.789  2.6922 -1.2880  1.6873
  637MOL0     H85965   7.807  11.702  -0.724 -0.2508  1.2247  2.3792
  637MOL0     H85966   7.913  11.672  -0.868  1.1895  0.4092 -0.0825
  637MOL0     H85967   7.837  11.960  -0.807  1.7980  0.0300 -0.2970
  637MOL0     H85968   7.911  11.888  -0.936  1.5355  1.4704  0.3475
  637MOL0     H85969   7.620  11.811  -0.864 -2.6466  0.8666 -1.9820
  637MOL0     H85970   7.719  11.762  -1.000  1.0148 -1.0099  1.4510
  637MOL0     H85971   7.546  11.948  -1.040  0.6509  2.1017 -2.9360
  637MOL0     H85972   7.647  12.036  -0.917  0.4679  1.5983 -0.7993
  637MOL0     H85973   7.808  11.940  -1.122  0.2892 -0.1471  0.6418
  637MOL0     H85974   7.793  12.108  -1.061  2.2938 -0.6391  1.3127
  637MOL0     H85975   7.628  11.973  -1.264  2.6532 -1.8885  2.0366
  637MOL0     H85976   7.742  12.093  -1.302 -2.3538 -1.9276 -3.1093
  637MOL0     H85977   8.381  11.511  -0.599  0.2133 -1.1559  0.0928
  637MOL0     H85978   8.477  11.344  -0.461  1.6106 -1.2329  1.4964
  637MOL0     H85979   8.277  11.078  -0.056  0.1892 -0.2681  1.1313
  637MOL0     H85980   8.292  10.918   0.108 -1.6538 -0.0501 -1.1223
  637MOL0     H85981   8.278  11.068   0.619 -0.3464  0.9939  0.6037
  637MOL0     H85982   8.277  10.855   0.764  0.1457 -0.0403  1.7446
  637MOL0     H85983   8.085  10.469   0.818 -3.2345 -1.9674 -2.0331
  637MOL0     H85984   8.064  10.216   0.898 -3.4613 -1.9915  0.9020
  637MOL0     H85985   7.916  10.158   1.301  1.1944 -0.4231 -0.1756
  637MOL0     H85986   7.790  10.125   1.187  0.0095  1.8155 -1.7115
  637MOL0     H85987   8.021   9.945   1.280  0.1776  1.4306  1.9037
  637MOL0     H85988   7.898   9.904   1.153 -1.0359  0.8229  0.1047
  637MOL0     H85989   7.716   9.915   1.357  0.1008  0.2668  2.1885
  637MOL0     H85990   7.845   9.953   1.453 -0.2855 -2.7658  2.2211
  637MOL0     H85991   7.788   9.735   1.468  0.3425  5.7748  2.3847
  637MOL0     H85992   7.956   9.751   1.414 -0.6740  0.2279  0.9575
  637MOL0     H85993   7.752   9.513   1.114  3.0022 -0.5340 -1.2390
  637MOL0     H85994   7.842  10.355   1.225 -1.8860 -0.2881 -0.7629
  637MOL0     H85995   7.859  10.591   1.151 -0.9850  1.1557 -0.7176
  638MOL0     O85996   5.574   7.952   1.835  0.3592 -0.1373 -0.2122
  638MOL0     C85997   5.493   7.922   1.754 -0.3786  0.2932 -1.1570
  638MOL0     O85998   5.526   7.858   1.634  0.1978  0.1802  0.5028
  638MOL0     C85999   5.658   7.830   1.598  0.6846 -0.5255 -1.1371
  638MOL0     C86000   5.739   7.758   1.675 -0.3996  0.9854  0.4402
  638MOL0     C86001   5.865   7.725   1.620  0.1396 -0.1828 -0.2622
  638MOL0     C86002   5.929   7.794   1.512 -0.1441  1.1073 -0.0594
  638MOL0     O86003   6.051   7.760   1.457  0.3932  0.7898 -1.0304
  638MOL0     C86004   6.130   7.656   1.500  0.3917 -0.1213  0.0614
  638MOL0     C86005   6.184   7.587   1.365  0.0703 -0.1295 -0.0117
  638MOL0     C86006   6.100   7.482   1.301  0.0404  0.8975 -0.8349
  638MOL0     C86007   6.153   7.455   1.173  0.0736  0.2793  1.5428
  638MOL0     C86008   6.076   7.342   1.115 -0.4776  0.0232  0.3396
  638MOL0     C86009   6.125   7.332   0.962  0.3541  0.4001  0.3424
  638MOL0     C86010   6.089   7.194   0.902  1.0974 -0.4367 -0.4715
  638MOL0     C86011   6.168   7.159   0.775 -0.0463 -0.2743 -0.0953
  638MOL0     N86012   6.304   7.096   0.799  0.1332  0.2786 -0.1257
  638MOL0     C86013   6.329   6.979   0.733 -0.6450 -1.0200  0.9299
  638MOL0     C86014   6.455   6.959   0.758 -0.2303 -0.0323  0.3546
  638MOL0     C86015   6.541   6.845   0.712 -0.3641  0.7406  0.1248
  638MOL0     C86016   6.576   6.735   0.811  0.1312 -0.1343 -0.1414
  638MOL0     C86017   6.640   6.604   0.745  0.0577 -0.6752 -0.3613
  638MOL0     C86018   6.731   6.623   0.619 -0.3360 -0.2770 -0.6099
  638MOL0     O86019   6.834   6.717   0.636 -0.8237 -0.2719  0.4728
  638MOL0     C86020   6.886   6.778   0.526 -0.7144 -0.2394 -0.6197
  638MOL0     C86021   6.882   6.722   0.398  0.1804  0.0279 -0.1443
  638MOL0     C86022   6.928   6.793   0.281  0.5944 -0.1141 -1.0643
  638MOL0     C86023   6.941   6.709   0.155  0.7654 -0.5082  0.8525
  638MOL0     C86024   6.987   6.917   0.300  0.0468 -0.7146  1.5988
  638MOL0     C86025   7.031   7.000   0.187  0.3563 -0.3889 -0.1443
  638MOL0     O86026   7.038   6.958   0.060 -0.5232 -0.3106  0.1168
  638MOL0     C86027   7.113   7.020  -0.036 -0.3825  0.0031 -0.0571
  638MOL0     C86028   7.249   6.995  -0.045  0.7737  0.3008  0.1256
  638MOL0     C86029   7.325   7.064  -0.135  0.0297  0.1594 -0.3473
  638MOL0     C86030   7.266   7.155  -0.224 -0.6896 -0.4788  0.4127
  638MOL0     O86031   7.358   7.207  -0.314  0.1418 -0.2566 -0.4225
  638MOL0     C86032   7.326   7.283  -0.424  0.8163  0.5793 -0.4586
  638MOL0     C86033   7.444   7.269  -0.523  0.0743  0.3341 -0.5003
  638MOL0     C86034   7.394   7.309  -0.659 -0.6191  0.1518 -0.0774
  638MOL0     C86035   7.501   7.302  -0.770 -0.2636 -0.3812 -0.4285
  638MOL0     C86036   7.601   7.410  -0.748 -0.2588 -0.2141 -0.2600
  638MOL0     C86037   7.713   7.405  -0.846  0.2370  0.3472 -0.7032
  638MOL0     C86038   7.811   7.524  -0.850 -0.9769  0.1965 -1.1767
  638MOL0     C86039   7.745   7.633  -0.941  0.1069 -0.0277  0.4922
  638MOL0    Cl86040   7.861   7.776  -0.963  0.0780 -0.0394 -0.0923
  638MOL0     C86041   7.131   7.192  -0.211  1.7684 -0.3105  0.8304
  638MOL0     C86042   7.059   7.123  -0.117 -0.5153  0.2794 -0.0614
  638MOL0     O86043   7.064   7.109   0.224 -0.7369 -0.1312  0.4191
  638MOL0     C86044   6.996   6.970   0.425  0.5309 -0.0024  0.6695
  638MOL0     C86045   6.947   6.904   0.537 -0.1892 -0.7107 -0.1274
  638MOL0     N86046   6.501   7.057   0.849  0.4548  0.0115  0.2501
  638MOL0     N86047   6.402   7.136   0.881 -0.3988  0.6794  0.2367
  638MOL0     C86048   5.846   7.886   1.452  0.9641 -0.0375 -0.9526
  638MOL0     C86049   5.708   7.901   1.492 -0.9989  0.7239  0.7142
  638MOL0     C86050   5.351   7.937   1.778 -0.7441  0.7864  0.4191
  638MOL0     C86051   5.301   8.007   1.888 -0.5220  0.3836  0.5919
  638MOL0     C86052   5.168   8.033   1.904 -0.3960  0.2018 -0.4127
  638MOL0     C86053   5.082   7.997   1.809  0.0940  0.4795 -0.5774
  638MOL0     O86054   4.953   8.027   1.839  1.0591 -0.1812  0.0443
  638MOL0     C86055   4.842   7.997   1.749 -0.3535  0.1661 -0.2924
  638MOL0     C86056   4.789   7.849   1.782  0.5004  0.9770  0.1547
  638MOL0     C86057   4.649   7.813   1.735  0.5691 -0.2158  0.1153
  638MOL0     C86058   4.550   7.823   1.859  0.0849  0.5552  0.3233
  638MOL0     C86059   4.570   7.703   1.954 -0.1509 -0.3316  0.6136
  638MOL0     C86060   4.584   7.598   2.004 -0.0178  0.1167  0.6507
  638MOL0     C86061   5.126   7.932   1.693 -0.6028  0.0115 -0.8032
  638MOL0     C86062   5.267   7.902   1.676  0.5746 -0.3031  0.0937
  638MOL0     H86063   5.716   7.690   1.757  2.4172 -3.6085 -2.1089
  638MOL0     H86064   5.909   7.642   1.673  0.1853 -0.2794 -0.4507
  638MOL0     H86065   6.216   7.705   1.547 -0.8914  3.9452 -1.4761
  638MOL0     H86066   6.089   7.588   1.576  1.6943 -0.2083  0.7220
  638MOL0     H86067   6.203   7.667   1.293 -1.0574  1.5139  1.4254
  638MOL0     H86068   6.277   7.536   1.390  0.8025  0.7834 -0.7989
  638MOL0     H86069   6.102   7.394   1.366  4.2061 -1.2390 -3.4592
  638MOL0     H86070   6.001   7.524   1.278  0.5655  1.1835 -2.7327
  638MOL0     H86071   6.134   7.534   1.099 -0.8012 -3.2291 -2.3714
  638MOL0     H86072   6.259   7.428   1.166 -0.4465 -1.4104 -1.9565
  638MOL0     H86073   6.107   7.251   1.167  0.0185  0.9836  1.7918
  638MOL0     H86074   5.967   7.346   1.126 -0.5117 -0.9890  0.4478
  638MOL0     H86075   6.077   7.404   0.896  1.3887  0.9262  0.1309
  638MOL0     H86076   6.234   7.344   0.963  0.4949 -0.6159 -0.5438
  638MOL0     H86077   6.117   7.107   0.962 -0.5074 -0.7462 -0.1243
  638MOL0     H86078   5.983   7.180   0.880  0.1479  0.9229  2.6592
  638MOL0     H86079   6.178   7.247   0.711 -0.3634 -0.0307  0.1908
  638MOL0     H86080   6.112   7.087   0.713 -2.6603  2.5849 -1.2937
  638MOL0     H86081   6.261   6.916   0.676  1.3834 -1.8089 -0.7764
  638MOL0     H86082   6.493   6.795   0.627  4.0348 -1.2353 -1.5207
  638MOL0     H86083   6.636   6.872   0.665  2.3281 -3.7027  2.2478
  638MOL0     H86084   6.491   6.713   0.876  0.3738  0.0697  0.2470
  638MOL0     H86085   6.649   6.776   0.882 -1.5942 -0.6947  2.0620
  638MOL0     H86086   6.571   6.522   0.724  1.2262 -2.3384  1.8803
  638MOL0     H86087   6.708   6.563   0.820  1.9166 -0.1275 -1.6771
  638MOL0     H86088   6.664   6.645   0.536 -0.6343 -4.1150 -1.5659
  638MOL0     H86089   6.773   6.524   0.599  1.6842  0.4878 -0.4050
  638MOL0     H86090   6.843   6.621   0.391  1.0663 -0.3467  0.1625
  638MOL0     H86091   7.043   6.711   0.114 -0.3926  0.8952 -2.2873
  638MOL0     H86092   6.927   6.601   0.161 -1.7969 -0.1329  3.2240
  638MOL0     H86093   6.871   6.735   0.075  1.3684 -1.0463  0.1285
  638MOL0     H86094   7.306   6.920   0.009  1.9136  0.4258 -0.8490
  638MOL0     H86095   7.433   7.063  -0.142  0.0794 -2.1804  0.2175
  638MOL0     H86096   7.231   7.246  -0.463  1.2561 -1.5388  0.2926
  638MOL0     H86097   7.320   7.386  -0.390  0.6514 -0.3444  2.5715
  638MOL0     H86098   7.532   7.317  -0.478  0.7429 -0.3652 -1.0483
  638MOL0     H86099   7.475   7.165  -0.529 -0.5962  0.1696 -1.4040
  638MOL0     H86100   7.363   7.414  -0.659  2.1074  1.1431 -3.4898
  638MOL0     H86101   7.314   7.241  -0.692  2.3191 -2.3400 -2.7087
  638MOL0     H86102   7.538   7.200  -0.780  0.0507 -0.1808 -1.5160
  638MOL0     H86103   7.446   7.323  -0.863 -1.8845 -1.5623  0.2176
  638MOL0     H86104   7.647   7.393  -0.650 -3.0183  0.2606  1.2052
  638MOL0     H86105   7.543   7.502  -0.759  0.6911  0.5565  0.8832
  638MOL0     H86106   7.764   7.309  -0.836 -1.1400 -0.1689  2.6052
  638MOL0     H86107   7.658   7.393  -0.940  0.5696 -0.8826 -0.7598
  638MOL0     H86108   7.914   7.505  -0.879  1.0561  5.6315  1.1315
  638MOL0     H86109   7.823   7.572  -0.753 -0.0750  1.4351 -1.8725
  638MOL0     H86110   7.655   7.673  -0.893  0.5000 -0.8890  1.9946
  638MOL0     H86111   7.713   7.582  -1.032 -2.7774 -1.1685  2.0440
  638MOL0     H86112   7.081   7.268  -0.270 -1.4760 -0.9057  2.5717
  638MOL0     H86113   6.957   7.154  -0.097 -0.1582  0.6894  1.2480
  638MOL0     H86114   7.028   7.071   0.448 -0.5681  0.9026 -1.4359
  638MOL0     H86115   6.948   6.952   0.634  0.2256  0.9304 -0.9009
  638MOL0     H86116   5.881   7.921   1.355  1.7666 -1.3364 -1.1481
  638MOL0     H86117   5.648   7.974   1.440 -0.5019 -0.6605 -1.9480
  638MOL0     H86118   5.374   8.035   1.964  2.1082  0.4818 -1.7919
  638MOL0     H86119   5.127   8.081   1.991 -1.0906  0.2849 -0.7807
  638MOL0     H86120   4.770   8.077   1.768 -0.2283  1.6867 -4.9729
  638MOL0     H86121   4.860   8.009   1.642  0.9643 -2.0802 -0.3785
  638MOL0     H86122   4.810   7.825   1.887  1.3216  1.8167  0.2020
  638MOL0     H86123   4.860   7.773   1.747  2.4703  2.6530  0.2634
  638MOL0     H86124   4.653   7.712   1.695 -1.4406  0.1963 -1.2748
  638MOL0     H86125   4.605   7.881   1.662 -1.6582 -1.6240  0.0607
  638MOL0     H86126   4.451   7.815   1.813  0.2731 -1.6753  0.2029
  638MOL0     H86127   4.567   7.919   1.909 -0.2069  2.4468 -2.9351
  638MOL0     H86128   4.586   7.505   2.057 -0.3415 -0.3951 -0.2226
  638MOL0     H86129   5.056   7.908   1.613 -0.3016 -3.2284 -0.2221
  638MOL0     H86130   5.304   7.860   1.583 -1.7918  1.0518 -1.5673
  639MOL0     O86131   6.218   0.510   4.284  0.6101  0.9620 -0.0349
  639MOL0     C86132   6.114   0.529   4.223  0.7658  0.1780  0.4021
  639MOL0     O86133   6.106   0.535   4.085  0.2758  0.2277 -0.0047
  639MOL0     C86134   6.221   0.528   4.010 -0.9458 -0.4172 -0.5363
  639MOL0     C86135   6.332   0.609   4.039 -0.7593  1.0212 -0.3424
  639MOL0     C86136   6.445   0.611   3.963  0.0258 -0.3289  0.4991
  639MOL0     C86137   6.445   0.525   3.850  0.7086  0.5282 -1.1291
  639MOL0     O86138   6.542   0.531   3.755 -0.3853 -0.3397 -0.2247
  639MOL0     C86139   6.569   0.429   3.660  0.3012  0.1099  0.5882
  639MOL0     C86140   6.693   0.473   3.578 -0.7428 -0.5493  0.1765
  639MOL0     C86141   6.711   0.441   3.438 -0.3245 -0.4488 -0.0513
  639MOL0     C86142   6.703   0.290   3.424 -1.1911 -0.0952  0.5626
  639MOL0     C86143   6.731   0.254   3.275  0.6568 -0.0944  0.5928
  639MOL0     C86144   6.624   0.156   3.220 -0.2845 -0.6046  0.4894
  639MOL0     C86145   6.642   0.122   3.068 -0.3313  0.2198  0.5930
  639MOL0     C86146   6.757   0.020   3.045  0.9056  1.1316  0.1261
  639MOL0     N86147   6.725  -0.108   3.101  0.0710  0.2901  0.0125
  639MOL0     C86148   6.628  -0.190   3.050 -0.2113  0.1316 -0.6490
  639MOL0     C86149   6.636  -0.292   3.138  0.3060  0.0243 -1.1240
  639MOL0     C86150   6.544  -0.417   3.139  0.4714  0.0108  0.2711
  639MOL0     C86151   6.600  -0.558   3.154  0.0913 -0.6004  0.2045
  639MOL0     C86152   6.642  -0.590   3.307  0.2689 -0.0787  1.0673
  639MOL0     C86153   6.517  -0.600   3.393 -0.5925 -1.3932  1.2222
  639MOL0     O86154   6.547  -0.604   3.533 -0.4561  0.2389 -1.0364
  639MOL0     C86155   6.623  -0.500   3.596  0.0549  0.3473 -0.5641
  639MOL0     C86156   6.624  -0.362   3.555  0.2760  0.5531 -0.2660
  639MOL0     C86157   6.703  -0.270   3.617 -0.2482 -0.3757  0.6085
  639MOL0     C86158   6.700  -0.124   3.575  0.2605  0.7518 -0.0337
  639MOL0     C86159   6.772  -0.309   3.737 -0.4121 -0.5107  0.2288
  639MOL0     C86160   6.869  -0.222   3.808 -0.0035 -0.9198  0.0098
  639MOL0     O86161   6.928  -0.113   3.731  0.8707 -0.0259 -0.3389
  639MOL0     C86162   7.003  -0.019   3.801 -0.7105  0.7218 -0.0450
  639MOL0     C86163   6.961   0.114   3.797 -0.2399  0.3255 -0.5198
  639MOL0     C86164   7.025   0.216   3.867  0.7045  0.4041  0.9302
  639MOL0     C86165   7.140   0.186   3.947 -0.0125  0.2827 -0.0998
  639MOL0     O86166   7.200   0.285   4.006  0.5168  0.2275 -0.6268
  639MOL0     C86167   7.121   0.334   4.118 -0.1226  1.3643  0.1386
  639MOL0     C86168   7.152   0.488   4.132  0.0563  0.2304 -0.3641
  639MOL0     C86169   7.142   0.561   4.000 -0.6527 -0.4082 -1.0489
  639MOL0     C86170   7.120   0.714   4.026  0.0409 -1.2339  0.2058
  639MOL0     C86171   7.235   0.787   4.102  0.1104 -0.4292  0.6064
  639MOL0     C86172   7.193   0.932   4.125  1.5025 -0.5172  0.8273
  639MOL0     C86173   7.311   1.032   4.168  0.2383  0.4139  0.3473
  639MOL0     C86174   7.266   1.179   4.165 -0.2271 -0.2352 -0.6031
  639MOL0    Cl86175   7.123   1.220   4.266 -0.1551 -0.1216  0.0965
  639MOL0     C86176   7.191   0.056   3.936  0.2873  0.0706  0.1661
  639MOL0     C86177   7.129  -0.047   3.866  0.9031  0.5000 -0.7035
  639MOL0     O86178   6.900  -0.251   3.920 -0.1039  0.0324 -0.2861
  639MOL0     C86179   6.764  -0.442   3.785  0.8745  0.1122 -1.0997
  639MOL0     C86180   6.691  -0.534   3.714 -0.5081 -0.4877  0.6668
  639MOL0     N86181   6.744  -0.262   3.238  0.3234  0.2549 -0.5166
  639MOL0     N86182   6.795  -0.147   3.210 -0.6856  0.2632 -0.4700
  639MOL0     C86183   6.332   0.451   3.819 -0.3135 -1.1273 -0.4868
  639MOL0     C86184   6.213   0.456   3.890  1.0864 -1.1559 -1.0572
  639MOL0     C86185   5.983   0.526   4.304 -0.8110 -0.1891 -0.3181
  639MOL0     C86186   5.996   0.494   4.438  0.4942 -0.5470 -0.1250
  639MOL0     C86187   5.884   0.509   4.520 -0.7970 -0.3601 -0.2883
  639MOL0     C86188   5.761   0.560   4.474  1.3061 -0.2564  0.3980
  639MOL0     O86189   5.646   0.566   4.548 -0.3853 -0.5210 -0.1050
  639MOL0     C86190   5.660   0.616   4.684  0.0486  0.2685 -0.0232
  639MOL0     C86191   5.521   0.652   4.723 -0.7113 -1.1440 -0.0892
  639MOL0     C86192   5.512   0.764   4.834  0.7060 -0.4423  0.7557
  639MOL0     C86193   5.460   0.710   4.967  0.5719  0.5007 -0.0506
  639MOL0     C86194   5.568   0.646   5.039  0.5087 -0.0495 -1.0937
  639MOL0     C86195   5.659   0.585   5.091 -0.7423 -1.1905 -0.4777
  639MOL0     C86196   5.748   0.585   4.337 -0.1177 -0.0838 -0.8018
  639MOL0     C86197   5.860   0.574   4.252 -0.3680 -0.4774 -0.0790
  639MOL0     H86198   6.325   0.675   4.125 -2.0943  0.4759  0.0048
  639MOL0     H86199   6.528   0.674   3.991 -0.8870  2.7601 -2.9260
  639MOL0     H86200   6.590   0.336   3.714 -0.1348  0.6618  1.7434
  639MOL0     H86201   6.493   0.413   3.582  0.1111  1.3264  0.5009
  639MOL0     H86202   6.710   0.581   3.579 -0.8579 -0.5294  1.3086
  639MOL0     H86203   6.783   0.434   3.627 -1.1359  0.7294  2.0534
  639MOL0     H86204   6.632   0.493   3.383 -1.2367  3.5554  4.3294
  639MOL0     H86205   6.810   0.469   3.402 -0.6808  2.8075  1.1172
  639MOL0     H86206   6.781   0.242   3.483 -1.0143  0.7388  1.0292
  639MOL0     H86207   6.603   0.251   3.444 -1.8257  1.8466  1.4638
  639MOL0     H86208   6.731   0.348   3.220 -0.9004 -0.6542 -0.4272
  639MOL0     H86209   6.829   0.206   3.267 -0.1294 -1.7280  0.1764
  639MOL0     H86210   6.620   0.068   3.285 -2.5915 -0.2640  0.8693
  639MOL0     H86211   6.530   0.210   3.236  1.7338  2.8237  2.0948
  639MOL0     H86212   6.560   0.064   3.023  5.2024 -5.7216 -3.5973
  639MOL0     H86213   6.653   0.212   3.008 -0.5540  1.5301  2.4372
  639MOL0     H86214   6.849   0.062   3.088  2.1428 -2.9600  1.9411
  639MOL0     H86215   6.777  -0.004   2.940  3.1414  1.2811  0.4662
  639MOL0     H86216   6.570  -0.173   2.960  2.2128  1.2605 -2.0909
  639MOL0     H86217   6.455  -0.405   3.202  0.3308  2.5050 -0.2720
  639MOL0     H86218   6.504  -0.418   3.037 -0.3402  4.0033  0.3651
  639MOL0     H86219   6.672  -0.575   3.074 -2.1058  0.2455 -2.0725
  639MOL0     H86220   6.518  -0.626   3.126 -0.7906  0.9838 -1.2514
  639MOL0     H86221   6.714  -0.518   3.348 -1.6687  1.3130  2.1559
  639MOL0     H86222   6.686  -0.690   3.308 -1.2879 -0.9104 -1.7413
  639MOL0     H86223   6.469  -0.693   3.361  0.4499 -1.2893 -0.8351
  639MOL0     H86224   6.450  -0.515   3.376 -0.5357 -1.8381 -1.9286
  639MOL0     H86225   6.564  -0.334   3.469 -1.1655  1.7421  1.0475
  639MOL0     H86226   6.775  -0.106   3.498  0.9260  2.8390  1.0134
  639MOL0     H86227   6.604  -0.092   3.533  0.8610  0.9769 -1.2579
  639MOL0     H86228   6.719  -0.055   3.657 -0.7682  0.0168  0.8553
  639MOL0     H86229   6.871   0.139   3.742 -1.0268 -1.1213  0.0717
  639MOL0     H86230   6.981   0.315   3.867  0.1673  0.2397 -2.1019
  639MOL0     H86231   7.014   0.318   4.109 -0.4225  2.9500  0.5660
  639MOL0     H86232   7.152   0.276   4.205 -0.5584  1.2610  0.2254
  639MOL0     H86233   7.078   0.526   4.204  0.9851  0.9797  0.2258
  639MOL0     H86234   7.251   0.498   4.178 -0.0829  0.2769 -0.0709
  639MOL0     H86235   7.063   0.518   3.938  0.5810 -4.2635 -0.1830
  639MOL0     H86236   7.239   0.546   3.952 -0.8900 -1.4039 -1.2314
  639MOL0     H86237   7.117   0.751   3.923 -0.4515 -2.6423 -0.3114
  639MOL0     H86238   7.021   0.726   4.069 -0.3125  0.7115 -1.0486
  639MOL0     H86239   7.318   0.785   4.030  0.5712  0.2569  1.1053
  639MOL0     H86240   7.262   0.746   4.200  1.4181 -0.4123  0.2753
  639MOL0     H86241   7.150   0.976   4.035 -1.0936  0.0461  2.2255
  639MOL0     H86242   7.111   0.935   4.197 -0.0452 -0.5110 -0.8578
  639MOL0     H86243   7.393   1.010   4.099 -0.4813 -0.3288 -0.2928
  639MOL0     H86244   7.337   1.002   4.271  1.4031 -2.7261 -0.7229
  639MOL0     H86245   7.237   1.208   4.064 -1.1581 -1.2601 -0.6496
  639MOL0     H86246   7.354   1.238   4.192 -0.5633  0.2312 -0.5225
  639MOL0     H86247   7.276   0.031   4.000  0.8166 -1.0571 -0.9341
  639MOL0     H86248   7.165  -0.149   3.858  1.7760  0.7426  0.0354
  639MOL0     H86249   6.818  -0.478   3.872 -0.9113 -2.0183 -0.7865
  639MOL0     H86250   6.672  -0.626   3.768 -2.1433 -0.9819 -0.6730
  639MOL0     H86251   6.332   0.391   3.729  0.5546 -1.0401 -0.5465
  639MOL0     H86252   6.123   0.400   3.869 -0.0510  0.0653  0.3561
  639MOL0     H86253   6.082   0.447   4.484 -0.9658 -2.6416  0.6269
  639MOL0     H86254   5.908   0.482   4.622 -0.1025 -0.8251 -0.5707
  639MOL0     H86255   5.710   0.545   4.750  1.8861 -1.0358 -2.6210
  639MOL0     H86256   5.711   0.712   4.683  0.9651 -0.2126 -1.0379
  639MOL0     H86257   5.457   0.563   4.724 -3.0621  0.4319 -0.9613
  639MOL0     H86258   5.480   0.700   4.634 -2.6197  1.3793  2.0083
  639MOL0     H86259   5.432   0.835   4.811  0.5008 -0.7868  0.4064
  639MOL0     H86260   5.603   0.824   4.846 -0.9027  2.4292 -0.3733
  639MOL0     H86261   5.384   0.632   4.957  0.2036  0.9932 -1.2032
  639MOL0     H86262   5.416   0.786   5.032  0.1670 -0.0071  0.2759
  639MOL0     H86263   5.733   0.525   5.141  1.3838  1.3711 -0.3266
  639MOL0     H86264   5.651   0.622   4.307 -0.1483  0.5016 -0.0090
  639MOL0     H86265   5.863   0.607   4.149  1.2002 -0.7847 -0.1548
  640MOL0     O86266   8.642   0.733  10.317 -0.2690  0.6728  0.5453
  640MOL0     C86267   8.581   0.768  10.415 -0.2765  0.8141  0.2641
  640MOL0     O86268   8.452   0.805  10.416 -0.1507  0.8003 -0.4798
  640MOL0     C86269   8.366   0.813  10.305  0.0601  0.0761  0.5242
  640MOL0     C86270   8.229   0.816  10.342 -0.4710  0.3470  0.1842
  640MOL0     C86271   8.119   0.828  10.252 -0.4156  0.7116 -0.1281
  640MOL0     C86272   8.156   0.822  10.117  0.0305  1.0239  0.2141
  640MOL0     O86273   8.065   0.828  10.014  0.2181 -0.1533 -0.0968
  640MOL0     C86274   7.921   0.878  10.018 -0.8050  0.1779 -0.0712
  640MOL0     C86275   7.857   0.883   9.883  0.6584 -0.0017 -1.1093
  640MOL0     C86276   7.922   0.975   9.782  0.0210  1.0951 -0.1353
  640MOL0     C86277   7.894   1.121   9.829 -0.4076  0.0423  0.4547
  640MOL0     C86278   7.902   1.225   9.718  1.2592  0.0640  0.5547
  640MOL0     C86279   7.833   1.364   9.754 -0.1552 -0.5524  0.4353
  640MOL0     C86280   7.685   1.372   9.794  0.6578  0.2851 -0.3899
  640MOL0     C86281   7.605   1.500   9.753 -0.5528  0.0210  0.9090
  640MOL0     N86282   7.468   1.511   9.803 -0.4803 -0.0590 -0.5125
  640MOL0     C86283   7.435   1.562   9.927  0.8843  0.1050 -0.7968
  640MOL0     C86284   7.294   1.556   9.926 -0.0155 -0.0732 -0.4279
  640MOL0     C86285   7.197   1.572  10.036  0.2266  0.2941 -0.7072
  640MOL0     C86286   7.227   1.486  10.157 -0.5149  0.2428 -0.0113
  640MOL0     C86287   7.122   1.489  10.268  0.0642 -0.5995 -0.0481
  640MOL0     C86288   7.162   1.415  10.396 -0.1007 -0.6248  0.8550
  640MOL0     O86289   7.307   1.431  10.427  0.0562  0.1561  0.3565
  640MOL0     C86290   7.359   1.355  10.523 -0.7523  1.0475  0.1896
  640MOL0     C86291   7.498   1.331  10.531  0.4540  0.0932 -0.3536
  640MOL0     C86292   7.565   1.263  10.634 -0.0074  0.0489 -0.4703
  640MOL0     C86293   7.718   1.262  10.633  0.5496  0.2077 -1.1362
  640MOL0     C86294   7.483   1.194  10.722  0.6170  0.6032 -1.7281
  640MOL0     C86295   7.540   1.110  10.841  0.3651  0.3012 -0.9307
  640MOL0     O86296   7.657   1.155  10.908 -0.0862  0.1443  0.4952
  640MOL0     C86297   7.704   1.077  11.014  0.0261 -0.5399 -0.3416
  640MOL0     C86298   7.826   1.001  11.020  0.0045 -0.4769 -0.8704
  640MOL0     C86299   7.857   0.928  11.131 -0.9138 -0.5224  0.9078
  640MOL0     C86300   7.772   0.907  11.237 -0.3110 -0.3313 -0.3111
  640MOL0     O86301   7.818   0.840  11.344 -0.2154  0.5579 -0.3991
  640MOL0     C86302   7.764   0.891  11.472 -0.8937  0.5788 -0.3973
  640MOL0     C86303   7.859   0.845  11.580  0.3754  0.5843 -0.4600
  640MOL0     C86304   7.782   0.812  11.705  0.2256 -0.5255 -0.8735
  640MOL0     C86305   7.861   0.764  11.828  1.5494  0.5485 -0.3617
  640MOL0     C86306   7.783   0.823  11.949 -0.4087 -0.7501 -0.2644
  640MOL0     C86307   7.826   0.774  12.093 -0.3359  0.6147  0.0799
  640MOL0     C86308   7.973   0.791  12.111 -0.0971  0.4979 -0.5204
  640MOL0     C86309   7.996   0.810  12.259  0.7967 -0.3537 -1.8113
  640MOL0    Cl86310   7.919   0.691  12.381  0.2512  0.3609  0.2494
  640MOL0     C86311   7.654   0.995  11.241  0.7203  0.4554  0.1828
  640MOL0     C86312   7.631   1.075  11.133 -0.2822 -0.0762 -0.3648
  640MOL0     O86313   7.480   0.998  10.869  0.3975 -0.9295 -0.3450
  640MOL0     C86314   7.346   1.218  10.721 -0.3646  0.0572  0.3819
  640MOL0     C86315   7.284   1.308  10.632 -0.6925  0.4283  0.4960
  640MOL0     N86316   7.252   1.510   9.805 -0.2335  0.7197 -0.1905
  640MOL0     N86317   7.357   1.482   9.733 -1.6474  0.4714 -0.5527
  640MOL0     C86318   8.289   0.831  10.077  0.0435  0.0612 -0.7366
  640MOL0     C86319   8.397   0.820  10.171  0.3202  0.7598  0.6655
  640MOL0     C86320   8.664   0.773  10.542  0.1869 -0.2718  0.5526
  640MOL0     C86321   8.643   0.874  10.639  0.1937 -0.6458 -0.1251
  640MOL0     C86322   8.716   0.876  10.756 -0.2326 -0.8264 -0.1913
  640MOL0     C86323   8.807   0.775  10.788 -0.1749  0.6208 -0.0646
  640MOL0     O86324   8.854   0.747  10.916 -0.6300  0.6567  1.0321
  640MOL0     C86325   8.813   0.811  11.026  0.2995 -0.7151 -0.6826
  640MOL0     C86326   8.683   0.741  11.075  0.2254  0.2215  0.3464
  640MOL0     C86327   8.618   0.806  11.194  0.2595 -0.8502  0.6834
  640MOL0     C86328   8.704   0.812  11.320  0.1780 -0.0302  0.5214
  640MOL0     C86329   8.716   0.679  11.371 -0.4043  0.1012  1.1552
  640MOL0     C86330   8.734   0.565  11.423  0.5569  0.2011  0.3426
  640MOL0     C86331   8.835   0.679  10.696 -0.0493  1.0603  0.0183
  640MOL0     C86332   8.769   0.681  10.572  0.6273  0.2284 -1.8212
  640MOL0     H86333   8.216   0.813  10.450 -1.9621  1.3689  0.0601
  640MOL0     H86334   8.013   0.834  10.272 -1.2793  0.7162 -3.9294
  640MOL0     H86335   7.850   0.828  10.084 -0.6777 -0.2403 -0.2512
  640MOL0     H86336   7.923   0.980  10.059 -3.2441 -0.3060  1.4317
  640MOL0     H86337   7.847   0.778   9.852 -2.3935  0.0823 -0.6517
  640MOL0     H86338   7.754   0.915   9.896  0.3504 -1.4748  0.4811
  640MOL0     H86339   8.028   0.950   9.774 -0.1092 -1.7559  4.1078
  640MOL0     H86340   7.872   0.943   9.690  1.9713 -1.4265 -0.4414
  640MOL0     H86341   7.790   1.128   9.860 -0.8747 -0.0972 -0.9870
  640MOL0     H86342   7.955   1.154   9.913 -2.5865  3.0540  1.0103
  640MOL0     H86343   8.006   1.245   9.691  0.3235  3.9292 -0.7305
  640MOL0     H86344   7.846   1.198   9.628  2.7949 -3.5957  0.5030
  640MOL0     H86345   7.893   1.411   9.832 -0.3675 -1.1292  0.9560
  640MOL0     H86346   7.851   1.430   9.668  2.0361 -1.2765  0.2619
  640MOL0     H86347   7.622   1.295   9.748 -1.1690  1.1264  0.6104
  640MOL0     H86348   7.675   1.347   9.900 -2.9581 -1.6431 -1.0432
  640MOL0     H86349   7.606   1.484   9.645  1.7364  1.4961  0.6526
  640MOL0     H86350   7.666   1.588   9.776  1.8593 -1.3138 -0.0250
  640MOL0     H86351   7.502   1.574  10.012  0.5537 -0.3608 -0.4685
  640MOL0     H86352   7.195   1.678  10.064  1.4325  0.3584 -0.7882
  640MOL0     H86353   7.098   1.551   9.994  0.8707 -1.7130 -1.3415
  640MOL0     H86354   7.326   1.516  10.192  0.0692 -0.7837 -0.7079
  640MOL0     H86355   7.240   1.383  10.123 -0.4096  0.8625 -1.9916
  640MOL0     H86356   7.027   1.450  10.231 -1.2844  0.5210  2.0692
  640MOL0     H86357   7.103   1.595  10.288  1.1955 -0.1280 -1.2854
  640MOL0     H86358   7.132   1.310  10.389  1.2618 -1.0026  0.3406
  640MOL0     H86359   7.100   1.453  10.478  2.1919 -0.1306  2.4463
  640MOL0     H86360   7.567   1.355  10.451  0.3846 -4.1458 -1.8831
  640MOL0     H86361   7.769   1.266  10.536  0.5502  1.3614 -1.1020
  640MOL0     H86362   7.740   1.351  10.693 -1.5181  1.0995 -1.6102
  640MOL0     H86363   7.765   1.182  10.691  2.4687  2.3795  0.4645
  640MOL0     H86364   7.887   0.995  10.930 -3.2502  0.0358 -3.3016
  640MOL0     H86365   7.945   0.866  11.122  0.3203  1.5052 -4.4596
  640MOL0     H86366   7.753   0.999  11.469  1.4239  0.8521 -2.1948
  640MOL0     H86367   7.662   0.852  11.477 -0.8862  0.6882  0.9948
  640MOL0     H86368   7.899   0.749  11.545 -0.6040  0.5051 -1.3863
  640MOL0     H86369   7.944   0.913  11.596  1.3808  0.1928 -3.4980
  640MOL0     H86370   7.702   0.746  11.669  1.0689 -2.3499  0.4152
  640MOL0     H86371   7.731   0.905  11.731 -1.9714 -2.4468  2.5505
  640MOL0     H86372   7.858   0.654  11.831  0.9051  0.5827  2.2079
  640MOL0     H86373   7.961   0.808  11.823  0.7173  3.0017  2.1700
  640MOL0     H86374   7.675   0.811  11.939 -0.7813  1.4622  0.4945
  640MOL0     H86375   7.792   0.932  11.959 -0.9721 -0.7295  0.0021
  640MOL0     H86376   7.773   0.829  12.172 -3.1329 -1.0549 -0.5104
  640MOL0     H86377   7.788   0.672  12.100  0.2432  0.3290 -0.7630
  640MOL0     H86378   8.009   0.881  12.062  1.1234 -0.3677 -1.2835
  640MOL0     H86379   8.023   0.702  12.071 -1.1934 -0.8161  0.8954
  640MOL0     H86380   7.946   0.901  12.293  2.3614  0.1987 -0.9003
  640MOL0     H86381   8.103   0.810  12.280  0.8835  1.8495 -2.0521
  640MOL0     H86382   7.582   0.988  11.322  1.2652  1.4481  0.7754
  640MOL0     H86383   7.541   1.135  11.127 -1.2675 -1.0710  2.8241
  640MOL0     H86384   7.280   1.177  10.796 -1.8557  0.8817 -0.4349
  640MOL0     H86385   7.182   1.343  10.629 -0.7400  0.2565  0.0835
  640MOL0     H86386   8.310   0.831   9.971 -2.0788 -1.6303 -1.2089
  640MOL0     H86387   8.497   0.811  10.129 -0.7143 -2.6626 -1.4474
  640MOL0     H86388   8.556   0.939  10.634  0.1193 -0.5028  2.0147
  640MOL0     H86389   8.690   0.959  10.820 -0.1466  1.0131 -2.4210
  640MOL0     H86390   8.901   0.805  11.092  0.6971  0.7845 -1.0392
  640MOL0     H86391   8.799   0.919  11.012 -0.9823 -0.6316  0.8904
  640MOL0     H86392   8.701   0.637  11.102 -1.2107  0.1805  1.2835
  640MOL0     H86393   8.611   0.736  10.993 -0.2616 -2.4225  0.8402
  640MOL0     H86394   8.521   0.767  11.225 -0.4564  1.8793  2.1269
  640MOL0     H86395   8.611   0.910  11.161  1.7920 -1.3089 -1.3600
  640MOL0     H86396   8.658   0.867  11.402  1.5302  0.2843  1.0866
  640MOL0     H86397   8.801   0.856  11.294  1.0012 -2.0776 -0.0867
  640MOL0     H86398   8.739   0.473  11.477  0.2069  0.3335  0.6039
  640MOL0     H86399   8.905   0.598  10.713  2.0867  2.9220  0.5741
  640MOL0     H86400   8.784   0.603  10.498 -0.1561 -0.0158 -1.7228
  641MOL0     O86401   9.752   7.292   6.125  0.4163 -0.2284 -0.1335
  641MOL0     C86402   9.792   7.306   6.012 -0.4919  0.8729 -0.8679
  641MOL0     O86403   9.913   7.276   5.974 -0.0632 -0.4607  0.1518
  641MOL0     C86404  10.001   7.299   6.074 -0.5510  0.2455 -0.6689
  641MOL0     C86405  10.067   7.424   6.086  1.1095 -0.1645 -0.0648
  641MOL0     C86406  10.154   7.432   6.200  0.2410  0.5904  0.9210
  641MOL0     C86407  10.193   7.325   6.283  0.2821 -0.5715 -0.4546
  641MOL0     O86408  10.282   7.345   6.379  0.6588 -0.2513  0.9465
  641MOL0     C86409  10.254   7.291   6.504 -0.2751  0.1931  0.1911
  641MOL0     C86410  10.369   7.364   6.593  0.2519  0.0199  0.4959
  641MOL0     C86411  10.366   7.332   6.739 -0.7001 -0.0327 -1.0566
  641MOL0     C86412  10.465   7.434   6.820  0.1513  0.4172 -0.8347
  641MOL0     C86413  10.469   7.389   6.965  0.5060  0.3908 -0.6935
  641MOL0     C86414  10.574   7.266   6.974 -0.1946 -0.2744 -0.6489
  641MOL0     C86415  10.691   7.336   7.043  0.0523  0.7472  0.5069
  641MOL0     C86416  10.813   7.245   7.056 -1.1580 -0.3117 -0.3993
  641MOL0     N86417  10.780   7.116   7.110  0.2104  0.4774  0.3618
  641MOL0     C86418  10.805   7.079   7.239  1.2239 -0.9192 -0.2987
  641MOL0     C86419  10.765   6.945   7.258 -0.5853 -0.3870  0.2611
  641MOL0     C86420  10.784   6.871   7.380 -0.6751 -0.0634  0.3264
  641MOL0     C86421  10.657   6.778   7.409 -0.0109 -0.0265  0.1378
  641MOL0     C86422  10.682   6.704   7.541  0.1502  0.6363  0.4938
  641MOL0     C86423  10.697   6.771   7.677  0.2642  0.0899 -0.5974
  641MOL0     O86424  10.675   6.906   7.670  0.3089 -0.5908 -0.5932
  641MOL0     C86425  10.672   6.975   7.789  0.5092  0.7045  0.4133
  641MOL0     C86426  10.600   7.094   7.798  0.0175  0.7328  0.2820
  641MOL0     C86427  10.600   7.172   7.906 -0.3916  0.4983  0.3326
  641MOL0     C86428  10.536   7.306   7.888  0.2637 -0.5054 -0.6167
  641MOL0     C86429  10.657   7.118   8.027  0.5043  0.2675  1.0518
  641MOL0     C86430  10.636   7.186   8.159  0.2655  0.2057 -0.3993
  641MOL0     O86431  10.640   7.113   8.268 -0.0992 -0.1107  0.1112
  641MOL0     C86432  10.642   7.181   8.389  0.0863  0.9908 -0.1535
  641MOL0     C86433  10.762   7.237   8.429  0.5476  1.2432 -0.5610
  641MOL0     C86434  10.758   7.308   8.553 -0.0110 -0.2510  0.0132
  641MOL0     C86435  10.644   7.321   8.630 -0.3986 -0.3147  0.3890
  641MOL0     O86436  10.636   7.396   8.743  0.4772  0.1670 -0.2945
  641MOL0     C86437  10.744   7.477   8.785  0.8056  0.5513 -0.0338
  641MOL0     C86438  10.697   7.529   8.918  0.2929 -0.3334  0.1563
  641MOL0     C86439  10.819   7.591   8.987 -1.7172  0.3892 -0.1570
  641MOL0     C86440  10.820   7.564   9.146  0.6707  0.1823  0.8197
  641MOL0     C86441  10.939   7.639   9.207 -0.4622 -1.2018 -0.3620
  641MOL0     C86442  10.913   7.651   9.366  0.1521  0.5602  0.7116
  641MOL0     C86443  10.934   7.515   9.439  0.1876  0.3035 -0.5541
  641MOL0     C86444  11.078   7.475   9.444  0.3534 -0.6611  0.7099
  641MOL0    Cl86445  11.076   7.304   9.472  0.2176 -0.0925  0.3261
  641MOL0     C86446  10.535   7.239   8.599  0.8744  1.0130  0.3027
  641MOL0     C86447  10.530   7.169   8.479 -1.0546  0.2538  0.4568
  641MOL0     O86448  10.644   7.310   8.161  0.0485  0.0243 -0.5376
  641MOL0     C86449  10.722   6.994   8.019  0.0724  0.7151  0.0078
  641MOL0     C86450  10.736   6.924   7.897  0.7057 -0.2754  0.3886
  641MOL0     N86451  10.727   6.903   7.132  0.3472 -0.2218 -0.3319
  641MOL0     N86452  10.737   6.999   7.043 -0.3620 -0.2018 -0.4101
  641MOL0     C86453  10.139   7.206   6.254  0.0455  0.5141 -0.7637
  641MOL0     C86454  10.044   7.193   6.146 -0.1939  0.2360  0.2011
  641MOL0     C86455   9.697   7.352   5.906 -0.8877  0.0785 -0.1269
  641MOL0     C86456   9.558   7.375   5.931 -0.2302  0.6847  0.1191
  641MOL0     C86457   9.475   7.434   5.833 -1.2060 -0.1305 -0.8601
  641MOL0     C86458   9.531   7.464   5.711  0.6002 -0.1142  0.6250
  641MOL0     O86459   9.451   7.507   5.608 -0.2284 -0.0747  0.5707
  641MOL0     C86460   9.383   7.416   5.530  0.3018  0.1869 -0.1132
  641MOL0     C86461   9.236   7.413   5.569  0.4326 -0.2026  0.2472
  641MOL0     C86462   9.146   7.504   5.477 -0.4909 -1.4729 -1.0224
  641MOL0     C86463   9.000   7.465   5.488  1.0420  0.2070 -0.3868
  641MOL0     C86464   8.969   7.323   5.492  0.1309 -0.4048  1.3797
  641MOL0     C86465   8.942   7.204   5.494 -0.5237 -0.0668 -0.1595
  641MOL0     C86466   9.664   7.449   5.685 -0.5023 -0.1234  0.3293
  641MOL0     C86467   9.748   7.401   5.780 -0.2428 -0.4245 -0.9373
  641MOL0     H86468  10.049   7.511   6.025  0.0057 -1.6522 -1.9747
  641MOL0     H86469  10.204   7.527   6.217  0.0526  1.1140 -1.1321
  641MOL0     H86470  10.158   7.330   6.538 -0.5576  1.3881 -1.8201
  641MOL0     H86471  10.268   7.183   6.514  1.6894  0.2444 -1.3451
  641MOL0     H86472  10.462   7.339   6.541 -0.9364  0.0635 -1.7968
  641MOL0     H86473  10.367   7.471   6.571  0.6576 -0.3544 -1.5970
  641MOL0     H86474  10.268   7.348   6.786  0.1000 -0.9526  1.0823
  641MOL0     H86475  10.412   7.236   6.762 -0.4289  0.7611  2.3051
  641MOL0     H86476  10.565   7.435   6.777 -0.0823 -0.8388 -1.4394
  641MOL0     H86477  10.422   7.535   6.828  0.8453  0.6022  4.1436
  641MOL0     H86478  10.483   7.470   7.037  2.4061 -0.0571 -0.5044
  641MOL0     H86479  10.371   7.352   6.996 -1.5136  2.5778 -3.8855
  641MOL0     H86480  10.518   7.187   7.023  2.3450 -2.6927 -1.3719
  641MOL0     H86481  10.610   7.224   6.879  2.4217 -0.5860  0.3899
  641MOL0     H86482  10.717   7.421   6.979  3.4183 -1.3026 -1.1101
  641MOL0     H86483  10.649   7.371   7.138 -0.7839 -0.1290  0.4814
  641MOL0     H86484  10.877   7.299   7.127 -3.8772  2.2629  0.3159
  641MOL0     H86485  10.860   7.233   6.958  2.1372  2.5564  0.6172
  641MOL0     H86486  10.827   7.150   7.319 -0.0149  0.7703 -1.3966
  641MOL0     H86487  10.867   6.803   7.361 -1.8493 -1.0450 -1.6057
  641MOL0     H86488  10.819   6.933   7.464 -1.0091  1.2436 -0.4678
  641MOL0     H86489  10.641   6.713   7.323  0.2332 -0.3967  0.3680
  641MOL0     H86490  10.571   6.846   7.419 -0.9365 -0.8921 -1.5508
  641MOL0     H86491  10.766   6.634   7.538 -1.4697 -1.5417  2.3103
  641MOL0     H86492  10.584   6.655   7.543 -1.2105  2.9790  4.5384
  641MOL0     H86493  10.803   6.758   7.701 -0.2231 -1.6954  0.8961
  641MOL0     H86494  10.631   6.726   7.752  1.1803 -0.5870 -0.1748
  641MOL0     H86495  10.544   7.120   7.709 -1.8301 -0.9410  0.8842
  641MOL0     H86496  10.589   7.383   7.945 -0.2826 -1.7317  1.6300
  641MOL0     H86497  10.524   7.336   7.783 -2.3200  2.2567  0.3300
  641MOL0     H86498  10.434   7.305   7.926  0.4464 -2.0556 -0.0993
  641MOL0     H86499  10.852   7.241   8.368  1.1109  1.7536  0.2797
  641MOL0     H86500  10.852   7.353   8.582  0.0327 -1.3689  1.8128
  641MOL0     H86501  10.837   7.420   8.789  0.4899 -0.0485 -1.0147
  641MOL0     H86502  10.763   7.566   8.724  1.3948  0.6347  0.2592
  641MOL0     H86503  10.624   7.609   8.903  1.3246  0.4322 -1.0998
  641MOL0     H86504  10.656   7.442   8.970  0.8261  0.8856  2.7529
  641MOL0     H86505  10.828   7.700   8.990  2.4765  0.2918 -2.2111
  641MOL0     H86506  10.915   7.563   8.942  0.3661  2.2056  2.8162
  641MOL0     H86507  10.729   7.604   9.192  1.4073  1.8282  0.9163
  641MOL0     H86508  10.830   7.458   9.171 -0.3235 -0.3650 -0.9351
  641MOL0     H86509  10.957   7.740   9.170  2.8270 -1.2647  0.7043
  641MOL0     H86510  11.032   7.583   9.192 -0.1959 -0.5140 -1.3770
  641MOL0     H86511  10.984   7.729   9.397 -1.9244  3.3650 -1.0654
  641MOL0     H86512  10.812   7.692   9.377 -0.1009  0.0533  0.2962
  641MOL0     H86513  10.880   7.437   9.384  1.7914 -1.0815 -0.2624
  641MOL0     H86514  10.885   7.531   9.536  1.3319 -1.1721  0.3199
  641MOL0     H86515  11.129   7.530   9.524  0.3362  0.8391 -0.2644
  641MOL0     H86516  11.133   7.515   9.358 -1.2796  0.6221  0.2160
  641MOL0     H86517  10.451   7.247   8.667  1.1934 -1.5176  1.1424
  641MOL0     H86518  10.451   7.107   8.438 -3.0355  1.3790  2.3022
  641MOL0     H86519  10.770   6.950   8.106  0.0939  1.9975  0.6528
  641MOL0     H86520  10.809   6.843   7.897  0.5079 -0.4823  1.5933
  641MOL0     H86521  10.167   7.109   6.294 -0.4893  1.2371  1.5208
  641MOL0     H86522   9.995   7.096   6.142  1.6678 -0.6965 -1.8850
  641MOL0     H86523   9.505   7.348   6.022  2.5542 -0.6475  1.4705
  641MOL0     H86524   9.370   7.453   5.850 -0.9041  1.1197 -0.2726
  641MOL0     H86525   9.389   7.458   5.429 -2.7712  0.7748 -0.1467
  641MOL0     H86526   9.430   7.318   5.542  0.4290  0.0745 -1.3772
  641MOL0     H86527   9.212   7.443   5.671  1.6616 -1.1258  0.8421
  641MOL0     H86528   9.208   7.307   5.564 -1.0519  0.1754 -4.2618
  641MOL0     H86529   9.165   7.517   5.370 -2.3990  4.1387 -1.0150
  641MOL0     H86530   9.159   7.606   5.513 -1.3746 -1.8064  0.3285
  641MOL0     H86531   8.950   7.526   5.413  2.6965  0.9361 -0.9446
  641MOL0     H86532   8.965   7.499   5.586 -1.3782 -0.5505 -0.9362
  641MOL0     H86533   8.937   7.098   5.509 -0.0353 -0.4315 -2.2632
  641MOL0     H86534   9.705   7.476   5.588  0.6827 -0.4814  0.7181
  641MOL0     H86535   9.856   7.390   5.766 -0.0461 -1.1477  0.9148
  642MOL0     O86536   0.668   1.179   2.137 -0.4207 -0.5942  0.0916
  642MOL0     C86537   0.699   1.244   2.033 -0.6813  0.3687 -0.0130
  642MOL0     O86538   0.683   1.195   1.905  0.7979  0.0680  0.2531
  642MOL0     C86539   0.608   1.080   1.908  0.2931  0.1513  0.0775
  642MOL0     C86540   0.654   0.958   1.863 -0.4749  0.1305  0.2096
  642MOL0     C86541   0.582   0.844   1.888  0.2942  0.2873  0.2368
  642MOL0     C86542   0.455   0.842   1.939  0.0789 -0.7970 -0.3580
  642MOL0     O86543   0.395   0.721   1.963 -0.4831 -0.2812 -0.7151
  642MOL0     C86544   0.316   0.713   2.080  0.4188 -0.5964 -0.4805
  642MOL0     C86545   0.334   0.562   2.107 -0.5474 -1.1636  0.6458
  642MOL0     C86546   0.318   0.520   2.246  0.9757  0.3269  0.1164
  642MOL0     C86547   0.317   0.362   2.271  0.3658 -0.2067 -0.5249
  642MOL0     C86548   0.331   0.331   2.423 -0.3477 -0.5268 -0.1047
  642MOL0     C86549   0.374   0.187   2.465 -0.3046  0.2428  1.1384
  642MOL0     C86550   0.295   0.079   2.389  0.3123  0.1169 -0.1092
  642MOL0     C86551   0.336  -0.058   2.431 -0.5181  0.6522 -0.3287
  642MOL0     N86552   0.272  -0.158   2.350  0.0091 -0.5104  0.6638
  642MOL0     C86553   0.159  -0.229   2.379  0.0480 -0.5889 -0.6859
  642MOL0     C86554   0.161  -0.340   2.301  0.2068 -1.0802 -0.7749
  642MOL0     C86555   0.092  -0.463   2.337 -0.4135  0.2114  0.1429
  642MOL0     C86556   0.134  -0.513   2.471 -0.8838 -1.1017 -0.3403
  642MOL0     C86557   0.277  -0.536   2.469 -0.2298  0.0088 -0.4658
  642MOL0     C86558   0.333  -0.586   2.599 -0.5116 -0.2316 -0.5350
  642MOL0     O86559   0.328  -0.467   2.690  1.1412  0.3764 -0.1098
  642MOL0     C86560   0.420  -0.368   2.669  0.4849  0.0451 -0.4796
  642MOL0     C86561   0.411  -0.256   2.744  1.0259 -1.2909 -0.2064
  642MOL0     C86562   0.493  -0.144   2.741 -0.9825 -0.6445  0.1724
  642MOL0     C86563   0.482  -0.041   2.852 -0.0999 -0.2940 -0.4671
  642MOL0     C86564   0.590  -0.132   2.642 -0.4919  1.0089 -0.2932
  642MOL0     C86565   0.688  -0.020   2.620  0.5424  0.2189 -0.1707
  642MOL0     O86566   0.674   0.097   2.679 -0.5403 -1.0091  0.9162
  642MOL0     C86567   0.772   0.194   2.671  0.0383  1.4474  0.7982
  642MOL0     C86568   0.732   0.321   2.626 -1.0633 -1.5765  0.7934
  642MOL0     C86569   0.827   0.424   2.624 -0.3927 -0.0372 -0.0703
  642MOL0     C86570   0.958   0.404   2.661  1.1477 -0.3002 -0.8042
  642MOL0     O86571   1.046   0.518   2.654 -0.1178 -0.2533 -0.3806
  642MOL0     C86572   1.183   0.493   2.671 -0.1987 -1.1975  0.1086
  642MOL0     C86573   1.247   0.603   2.598 -0.4927 -0.2045 -0.2243
  642MOL0     C86574   1.398   0.598   2.617  0.7254  0.5453 -0.4015
  642MOL0     C86575   1.451   0.733   2.598 -0.5080  0.5112 -0.5678
  642MOL0     C86576   1.595   0.751   2.650 -0.3295 -0.1874  0.4167
  642MOL0     C86577   1.672   0.651   2.573 -0.0145  0.1168 -0.5208
  642MOL0     C86578   1.822   0.699   2.568  0.3009 -0.2746  0.1361
  642MOL0     C86579   1.916   0.598   2.493 -0.5885 -1.1662  0.5288
  642MOL0    Cl86580   2.083   0.667   2.464  0.4920  0.1251 -0.0173
  642MOL0     C86581   0.996   0.273   2.701  0.6989 -0.8528  0.6689
  642MOL0     C86582   0.900   0.173   2.717 -0.4751 -0.4939  0.3748
  642MOL0     O86583   0.787  -0.056   2.561 -0.2804  0.3587 -0.1486
  642MOL0     C86584   0.594  -0.244   2.556 -0.1889 -0.0680 -0.5099
  642MOL0     C86585   0.510  -0.357   2.564  0.4273  0.7546  0.3416
  642MOL0     N86586   0.264  -0.328   2.214 -0.0931  0.4037 -0.0791
  642MOL0     N86587   0.337  -0.218   2.242  0.6190  0.9065 -0.1918
  642MOL0     C86588   0.396   0.970   1.955 -0.6373  0.1476  0.7794
  642MOL0     C86589   0.471   1.082   1.935 -0.7510 -0.7492 -0.6125
  642MOL0     C86590   0.784   1.363   2.048 -1.0716 -1.3991 -0.1028
  642MOL0     C86591   0.796   1.447   1.937 -0.4835 -0.5736  0.1002
  642MOL0     C86592   0.863   1.569   1.953 -0.6636 -0.1492 -0.3560
  642MOL0     C86593   0.919   1.621   2.070 -0.1523  0.1530  0.1073
  642MOL0     O86594   0.989   1.742   2.071 -0.6566  0.3099 -0.2972
  642MOL0     C86595   1.052   1.806   2.192  0.2517  0.6926  0.5971
  642MOL0     C86596   0.935   1.879   2.257  0.4190 -0.2470  0.3007
  642MOL0     C86597   0.972   2.010   2.320 -0.4017 -0.1900  0.1991
  642MOL0     C86598   0.858   2.075   2.395 -0.9229 -0.5867 -0.3876
  642MOL0     C86599   0.867   2.221   2.403 -0.3385 -0.2948  0.4538
  642MOL0     C86600   0.873   2.343   2.387 -0.6397  0.2510 -0.0673
  642MOL0     C86601   0.914   1.531   2.175 -0.4098 -0.5067  0.1115
  642MOL0     C86602   0.835   1.414   2.169 -0.6603 -0.7907  0.2700
  642MOL0     H86603   0.758   0.941   1.834  0.6197 -1.3670  4.3852
  642MOL0     H86604   0.623   0.750   1.850  0.7615  0.8282 -0.6296
  642MOL0     H86605   0.363   0.771   2.159 -1.1795  0.4218 -0.2330
  642MOL0     H86606   0.220   0.764   2.065  1.5216  1.9176  0.3574
  642MOL0     H86607   0.271   0.513   2.032 -0.0669  0.8422 -1.1590
  642MOL0     H86608   0.436   0.528   2.085 -0.6889 -0.4002 -1.4631
  642MOL0     H86609   0.383   0.583   2.306 -3.9260  2.4369  3.9718
  642MOL0     H86610   0.219   0.545   2.286 -0.2660 -1.5614 -1.6034
  642MOL0     H86611   0.218   0.327   2.238  0.4437  0.3752 -1.4159
  642MOL0     H86612   0.400   0.314   2.219  1.3690  1.9238 -0.9604
  642MOL0     H86613   0.407   0.399   2.462  0.3252  0.2413 -2.6364
  642MOL0     H86614   0.237   0.355   2.473 -1.8820 -2.9148 -1.6288
  642MOL0     H86615   0.478   0.167   2.438 -0.8126 -1.4531  0.2827
  642MOL0     H86616   0.370   0.184   2.574  1.4180 -4.4277  1.3019
  642MOL0     H86617   0.189   0.077   2.414 -0.3699  2.9751 -2.2865
  642MOL0     H86618   0.307   0.083   2.280 -1.2270 -0.9524 -0.3602
  642MOL0     H86619   0.304  -0.078   2.534 -0.4166  0.9518 -0.2403
  642MOL0     H86620   0.444  -0.065   2.442 -0.7846 -0.4021  2.6399
  642MOL0     H86621   0.086  -0.208   2.458  3.1470  0.8307  2.0326
  642MOL0     H86622  -0.014  -0.440   2.339 -0.8215 -1.5064  0.1392
  642MOL0     H86623   0.113  -0.534   2.256 -3.1810  0.2425 -0.6840
  642MOL0     H86624   0.094  -0.612   2.498 -0.1313 -1.8856 -1.9718
  642MOL0     H86625   0.105  -0.438   2.545 -2.0906  1.7052 -3.4269
  642MOL0     H86626   0.334  -0.451   2.432  0.9224 -0.6583 -0.2736
  642MOL0     H86627   0.288  -0.615   2.394  1.5255  0.9116 -1.2114
  642MOL0     H86628   0.435  -0.622   2.584 -0.5042  0.2831 -1.8260
  642MOL0     H86629   0.275  -0.670   2.638 -0.9985  0.0345 -0.6763
  642MOL0     H86630   0.337  -0.247   2.823  1.5618  0.4671  0.1368
  642MOL0     H86631   0.579   0.007   2.866  1.6314 -3.1915 -1.7105
  642MOL0     H86632   0.401   0.033   2.845  1.0596  0.9724 -0.9610
  642MOL0     H86633   0.468  -0.088   2.949 -1.5563  0.5289 -0.2394
  642MOL0     H86634   0.636   0.351   2.585  1.5617  3.5037 -2.6693
  642MOL0     H86635   0.811   0.532   2.620 -2.5791 -0.2061  2.0479
  642MOL0     H86636   1.213   0.496   2.776  1.0614  1.1541 -0.2397
  642MOL0     H86637   1.199   0.396   2.623 -1.9473 -1.0014 -0.9271
  642MOL0     H86638   1.225   0.597   2.491  1.5026 -1.5772 -0.6176
  642MOL0     H86639   1.209   0.694   2.643 -2.5707 -1.9548  1.8074
  642MOL0     H86640   1.433   0.522   2.546 -3.1139 -2.2220  0.3367
  642MOL0     H86641   1.419   0.573   2.721 -1.9571 -0.4792 -0.0361
  642MOL0     H86642   1.461   0.771   2.495  2.8504  0.2863 -0.4099
  642MOL0     H86643   1.393   0.797   2.665  0.4401 -2.3764  3.3687
  642MOL0     H86644   1.597   0.732   2.757 -2.0941 -0.9148  0.3562
  642MOL0     H86645   1.632   0.852   2.632 -0.0557 -0.2823  0.4434
  642MOL0     H86646   1.658   0.557   2.626  0.6213  0.9529  1.2326
  642MOL0     H86647   1.638   0.625   2.473 -0.3130 -0.5023 -0.2618
  642MOL0     H86648   1.867   0.710   2.667  5.3794  1.2928 -2.0042
  642MOL0     H86649   1.838   0.799   2.526 -1.1234  0.6738  1.7378
  642MOL0     H86650   1.874   0.564   2.398  1.8752 -4.0861  0.3331
  642MOL0     H86651   1.939   0.511   2.555  3.9393 -1.2547 -0.9369
  642MOL0     H86652   1.096   0.245   2.731  0.9123 -1.6394 -0.6887
  642MOL0     H86653   0.932   0.072   2.741  2.0503  0.1009 -0.1952
  642MOL0     H86654   0.666  -0.245   2.474 -1.8570  1.1880 -2.0955
  642MOL0     H86655   0.556  -0.431   2.499  1.7500  0.4431  1.5849
  642MOL0     H86656   0.292   0.998   1.972 -1.0216  0.9799 -2.3300
  642MOL0     H86657   0.427   1.177   1.963 -1.4564 -1.1578 -0.2887
  642MOL0     H86658   0.776   1.420   1.834  0.8647 -0.2057 -0.2736
  642MOL0     H86659   0.885   1.617   1.858 -0.7438  2.7711  0.9923
  642MOL0     H86660   1.109   1.733   2.250  3.1729  1.3957 -1.2260
  642MOL0     H86661   1.124   1.883   2.162  1.5318 -1.1780 -1.4358
  642MOL0     H86662   0.898   1.810   2.334 -2.1437 -1.6186 -1.9632
  642MOL0     H86663   0.847   1.888   2.192 -1.1330 -1.1930  2.1472
  642MOL0     H86664   1.016   2.079   2.247  2.1765 -1.5550  0.3404
  642MOL0     H86665   1.051   1.986   2.392  2.0008 -0.6053 -2.3986
  642MOL0     H86666   0.857   2.020   2.489 -1.5600 -0.7722 -0.5019
  642MOL0     H86667   0.767   2.048   2.341  0.1870  0.7176 -3.1168
  642MOL0     H86668   0.867   2.449   2.396 -0.3737  0.2787 -0.2175
  642MOL0     H86669   0.960   1.569   2.266 -0.8249  3.3022 -1.0687
  642MOL0     H86670   0.822   1.344   2.252 -1.0941  0.0654  0.9376
  643MOL0     O86671   5.342  11.299   6.630 -0.4532 -0.0450  0.4556
  643MOL0     C86672   5.318  11.205   6.707 -0.5972 -0.3364  0.0343
  643MOL0     O86673   5.359  11.199   6.837  0.6144 -0.4303  0.5146
  643MOL0     C86674   5.393  11.309   6.912  0.1881 -0.8928  0.7316
  643MOL0     C86675   5.333  11.437   6.895 -0.2657  0.1471  0.5580
  643MOL0     C86676   5.391  11.543   6.970  0.1207 -0.5936 -0.3939
  643MOL0     C86677   5.480  11.520   7.073 -0.5008  0.4747 -0.0720
  643MOL0     O86678   5.530  11.622   7.133  0.1441 -0.4758  0.1535
  643MOL0     C86679   5.464  11.675   7.245  0.1706 -0.3343  0.5200
  643MOL0     C86680   5.532  11.801   7.305 -1.0366  0.0373 -0.5560
  643MOL0     C86681   5.665  11.771   7.379  1.3290  1.2716 -0.6631
  643MOL0     C86682   5.713  11.900   7.436  0.1489 -0.3552 -0.0416
  643MOL0     C86683   5.808  11.878   7.564 -0.5134  0.1366 -0.4450
  643MOL0     C86684   5.835  12.014   7.630 -0.2173  0.4577 -0.8294
  643MOL0     C86685   5.916  12.007   7.768  0.8606 -0.8019  0.4627
  643MOL0     C86686   6.060  11.935   7.762 -0.4591  0.0356 -0.1426
  643MOL0     N86687   6.047  11.785   7.758 -0.6691  0.0104 -0.3732
  643MOL0     C86688   5.938  11.705   7.789 -0.3227  0.0822  0.4013
  643MOL0     C86689   5.990  11.582   7.798 -0.0339 -0.0918  0.2430
  643MOL0     C86690   5.904  11.464   7.845 -0.1733 -0.0542 -0.0877
  643MOL0     C86691   5.851  11.363   7.735 -0.8702  0.4227 -0.1674
  643MOL0     C86692   5.738  11.283   7.779  0.2734  0.5896 -0.7070
  643MOL0     C86693   5.773  11.147   7.846 -0.2456 -0.0179  0.1201
  643MOL0     O86694   5.659  11.084   7.903  0.1565  0.4927  0.0858
  643MOL0     C86695   5.695  10.974   7.984  0.3515 -0.1451 -0.1711
  643MOL0     C86696   5.779  10.868   7.951  1.2454  0.5215 -0.3868
  643MOL0     C86697   5.808  10.765   8.043 -0.6423 -0.7095  0.4014
  643MOL0     C86698   5.909  10.666   7.992  0.1305 -0.0074 -0.0661
  643MOL0     C86699   5.762  10.773   8.172 -0.6170  0.2415 -0.3522
  643MOL0     C86700   5.821  10.690   8.285  0.6336 -0.1959 -0.7729
  643MOL0     O86701   5.834  10.762   8.401  1.1955  0.6949  0.4626
  643MOL0     C86702   5.874  10.699   8.526  1.6353  0.6393  0.3529
  643MOL0     C86703   5.934  10.572   8.543 -0.1668 -0.7225  0.2162
  643MOL0     C86704   5.961  10.522   8.673  1.2656  0.3808 -0.6018
  643MOL0     C86705   5.924  10.586   8.788 -0.5793 -0.6883 -0.8505
  643MOL0     O86706   5.953  10.555   8.926 -0.2997  0.1946  0.6052
  643MOL0     C86707   6.055  10.453   8.934  0.6693 -0.3435 -0.0477
  643MOL0     C86708   6.001  10.315   8.932  0.4221  0.5780 -0.4558
  643MOL0     C86709   6.092  10.219   8.999  0.3179  0.3445  0.0854
  643MOL0     C86710   6.230  10.187   8.944  1.1208  0.7272  0.6041
  643MOL0     C86711   6.308  10.088   9.020  0.1351  0.1626  0.3205
  643MOL0     C86712   6.455  10.085   8.979 -0.7976 -0.0706 -0.4900
  643MOL0     C86713   6.538   9.966   9.026 -0.4665  0.0095 -0.9002
  643MOL0     C86714   6.575   9.983   9.172 -0.2025 -0.6125 -1.3979
  643MOL0    Cl86715   6.689   9.848   9.231  0.0558 -0.8130 -0.0844
  643MOL0     C86716   5.864  10.709   8.767  0.4665 -0.1966  0.0582
  643MOL0     C86717   5.833  10.760   8.640  0.2558 -1.3165  0.2181
  643MOL0     O86718   5.837  10.570   8.265 -0.7249 -0.0396  0.2261
  643MOL0     C86719   5.668  10.869   8.206  0.6764  0.5964 -0.4616
  643MOL0     C86720   5.639  10.970   8.110 -0.2169  0.3803  1.0169
  643MOL0     N86721   6.118  11.581   7.758 -0.7488  0.8068 -0.8606
  643MOL0     N86722   6.154  11.702   7.731  0.4201 -0.5913  0.8388
  643MOL0     C86723   5.541  11.399   7.086 -0.1545  0.2539  0.3040
  643MOL0     C86724   5.499  11.291   7.004 -1.5401 -0.9023  0.0234
  643MOL0     C86725   5.232  11.093   6.659  0.5998 -0.2152 -0.3829
  643MOL0     C86726   5.163  11.109   6.533 -0.9867  0.1405 -0.2994
  643MOL0     C86727   5.079  11.003   6.490  0.5501  0.6416  0.5041
  643MOL0     C86728   5.050  10.893   6.572 -0.5209  0.6988 -0.6501
  643MOL0     O86729   4.961  10.793   6.541  0.1606 -0.2104  0.6210
  643MOL0     C86730   4.839  10.829   6.480  0.4769  0.1589 -0.0303
  643MOL0     C86731   4.733  10.728   6.528  0.5897 -0.6152  1.0066
  643MOL0     C86732   4.591  10.753   6.462 -1.0783 -0.4974 -0.3212
  643MOL0     C86733   4.543  10.901   6.474  0.5378  0.3788  0.1440
  643MOL0     C86734   4.516  10.935   6.616 -0.0222  0.9277 -0.4054
  643MOL0     C86735   4.523  10.986   6.722 -0.5189  0.1279  0.3167
  643MOL0     C86736   5.133  10.876   6.688  0.2740  0.2383 -0.1580
  643MOL0     C86737   5.217  10.974   6.731 -0.0376 -0.4009 -0.0727
  643MOL0     H86738   5.248  11.458   6.832 -1.0955  1.2472  1.9698
  643MOL0     H86739   5.356  11.644   6.951 -1.4668 -0.6286  1.8673
  643MOL0     H86740   5.367  11.714   7.211  0.2122  0.5498  1.3739
  643MOL0     H86741   5.449  11.603   7.326  1.4209  0.5557  1.5861
  643MOL0     H86742   5.553  11.881   7.235 -2.5928 -1.3788 -2.7792
  643MOL0     H86743   5.460  11.840   7.378 -0.6204  0.1320 -0.1909
  643MOL0     H86744   5.655  11.716   7.473  2.1221 -0.1888 -1.4130
  643MOL0     H86745   5.745  11.724   7.322  2.0343  0.6154  0.8026
  643MOL0     H86746   5.770  11.939   7.351 -1.0262  0.7806 -0.3413
  643MOL0     H86747   5.629  11.962   7.468  1.6286  1.0826  1.2394
  643MOL0     H86748   5.753  11.819   7.638  0.8557 -0.9968 -0.2878
  643MOL0     H86749   5.897  11.823   7.534 -0.6074  1.6828 -4.0840
  643MOL0     H86750   5.883  12.074   7.553 -0.0978  2.9133  1.0423
  643MOL0     H86751   5.738  12.062   7.643 -0.6896 -0.5281 -0.5675
  643MOL0     H86752   5.925  12.110   7.805 -0.2936 -1.2229  2.0088
  643MOL0     H86753   5.849  11.959   7.840 -1.2572  1.6856  0.3011
  643MOL0     H86754   6.117  11.964   7.851 -1.9416 -3.3406  2.1102
  643MOL0     H86755   6.119  11.965   7.674 -0.4616 -2.1098 -0.9403
  643MOL0     H86756   5.834  11.731   7.801 -0.5435 -0.1771 -0.7944
  643MOL0     H86757   5.956  11.420   7.931  0.2981  1.0327  0.2058
  643MOL0     H86758   5.807  11.497   7.885 -0.7766 -1.4150 -0.3776
  643MOL0     H86759   5.926  11.290   7.706 -1.6103 -1.6022  2.6098
  643MOL0     H86760   5.810  11.422   7.653 -2.0341 -0.5631 -0.3152
  643MOL0     H86761   5.688  11.258   7.685  0.7408 -1.5150 -0.4581
  643MOL0     H86762   5.679  11.344   7.847 -0.3825 -0.6468 -0.1307
  643MOL0     H86763   5.853  11.167   7.918  0.1703  2.0026 -0.8247
  643MOL0     H86764   5.817  11.080   7.771 -0.0543  0.7655 -0.4744
  643MOL0     H86765   5.825  10.865   7.852  0.8672  0.4843 -0.5656
  643MOL0     H86766   5.878  10.562   8.011  2.2577 -0.4981  1.1121
  643MOL0     H86767   5.930  10.688   7.887 -1.9077 -1.5118 -0.8596
  643MOL0     H86768   6.002  10.685   8.047 -0.6204  0.2896  1.1370
  643MOL0     H86769   5.961  10.510   8.458 -0.9447  0.8705 -1.2508
  643MOL0     H86770   6.016  10.428   8.675 -1.6783 -1.4940 -0.8401
  643MOL0     H86771   6.138  10.490   8.875 -0.0224  3.2842  1.0432
  643MOL0     H86772   6.095  10.468   9.034 -0.7823  2.4681  0.1874
  643MOL0     H86773   5.897  10.321   8.965  0.4671  1.1551 -0.3969
  643MOL0     H86774   5.983  10.280   8.830 -0.4565 -1.3622  0.3212
  643MOL0     H86775   6.051  10.121   9.023  0.3084  0.7533  1.8678
  643MOL0     H86776   6.103  10.255   9.102  2.6518 -3.0425  1.2000
  643MOL0     H86777   6.223  10.154   8.840  1.2404  0.3893  0.7020
  643MOL0     H86778   6.288  10.280   8.946  2.6396 -0.1733 -0.2284
  643MOL0     H86779   6.253   9.996   9.002 -0.2616  0.5780 -0.6626
  643MOL0     H86780   6.300  10.124   9.124 -3.9198  0.5705  0.0196
  643MOL0     H86781   6.459  10.089   8.869 -2.9906  0.1438 -0.5916
  643MOL0     H86782   6.503  10.175   9.020 -2.2686  0.0572  1.0290
  643MOL0     H86783   6.630   9.957   8.967  1.3922  0.4240  1.7745
  643MOL0     H86784   6.468   9.884   9.004 -1.5003  0.9154 -1.0865
  643MOL0     H86785   6.484   9.988   9.233 -0.2749 -0.4143 -1.5204
  643MOL0     H86786   6.618  10.083   9.179 -3.1346  0.6936 -0.0518
  643MOL0     H86787   5.832  10.771   8.850 -1.7244 -1.2989  0.0934
  643MOL0     H86788   5.778  10.853   8.635  0.8440 -1.0186 -2.0997
  643MOL0     H86789   5.621  10.875   8.304  3.3055  1.1614  0.8636
  643MOL0     H86790   5.571  11.046   8.146 -0.4990  0.3496  0.5571
  643MOL0     H86791   5.624  11.392   7.155  1.6383 -2.2283 -1.9102
  643MOL0     H86792   5.540  11.191   7.015 -1.7593 -1.0994 -0.8771
  643MOL0     H86793   5.186  11.197   6.474 -2.2338 -0.1454 -1.2655
  643MOL0     H86794   5.038  11.012   6.390  1.3515 -1.0729 -0.0103
  643MOL0     H86795   4.821  10.929   6.520 -1.2640  0.4186 -1.3442
  643MOL0     H86796   4.843  10.833   6.370  3.3544  0.3487  0.0065
  643MOL0     H86797   4.719  10.744   6.635 -0.5979  0.1810  0.7504
  643MOL0     H86798   4.760  10.622   6.523  1.7242 -0.3042  0.2839
  643MOL0     H86799   4.517  10.690   6.512 -0.2368 -0.8079  0.5518
  643MOL0     H86800   4.595  10.721   6.357  0.1441  2.2952 -1.2239
  643MOL0     H86801   4.446  10.909   6.424  0.2698  1.4268  0.8040
  643MOL0     H86802   4.608  10.980   6.436 -1.4315  1.9312 -0.1530
  643MOL0     H86803   4.537  11.041   6.813  1.1027 -0.1466  0.2622
  643MOL0     H86804   5.133  10.795   6.761  6.2390  1.5451  1.8282
  643MOL0     H86805   5.273  10.964   6.823 -0.4355 -0.4879  0.1669
  644MOL0     O86806   1.169   2.513   1.302  0.6254 -0.1823  0.2390
  644MOL0     C86807   1.211   2.481   1.418 -0.8261 -0.7547 -0.1250
  644MOL0     O86808   1.300   2.558   1.491 -0.4881 -0.5120  0.4235
  644MOL0     C86809   1.361   2.664   1.437  0.6802 -0.0631  0.5635
  644MOL0     C86810   1.482   2.659   1.368  0.9460  0.5380  0.4509
  644MOL0     C86811   1.535   2.774   1.310  0.0363  0.1267 -0.5208
  644MOL0     C86812   1.468   2.890   1.302 -0.1934  0.6095 -0.4161
  644MOL0     O86813   1.528   2.997   1.233 -0.4618 -0.5170  0.3829
  644MOL0     C86814   1.639   3.059   1.284 -0.9043  0.6268  0.5440
  644MOL0     C86815   1.637   3.199   1.307  0.3383 -0.4195  0.0247
  644MOL0     C86816   1.557   3.249   1.436  0.5022  0.9014 -1.0992
  644MOL0     C86817   1.599   3.186   1.559 -0.8319  0.6080  0.1451
  644MOL0     C86818   1.550   3.268   1.688  0.4324  0.2065  0.0512
  644MOL0     C86819   1.402   3.305   1.694 -0.0844  0.2840 -0.8540
  644MOL0     C86820   1.314   3.182   1.692 -0.2890 -0.0618  0.4350
  644MOL0     C86821   1.168   3.222   1.744 -0.0169 -0.0484  0.0525
  644MOL0     N86822   1.065   3.163   1.648  0.3140 -0.4624  1.0944
  644MOL0     C86823   1.008   3.233   1.547 -0.3460 -0.0517 -0.4129
  644MOL0     C86824   0.933   3.142   1.475 -0.9599 -0.1815  0.7311
  644MOL0     C86825   0.839   3.172   1.364  0.7859  0.9410  0.5423
  644MOL0     C86826   0.906   3.135   1.230  0.7718 -0.1940  0.1906
  644MOL0     C86827   0.888   2.984   1.203 -0.1375  0.1248 -0.3410
  644MOL0     C86828   0.954   2.941   1.081 -0.3467  0.5885  0.6396
  644MOL0     O86829   1.094   2.980   1.072  0.8778  0.2894  0.4722
  644MOL0     C86830   1.168   2.949   0.958  0.0055  0.6093  0.1691
  644MOL0     C86831   1.305   2.987   0.954 -0.1145 -0.4016 -0.5073
  644MOL0     C86832   1.394   2.938   0.859 -0.0809 -0.5035  0.3646
  644MOL0     C86833   1.535   2.965   0.884  0.2144 -0.0209 -1.2557
  644MOL0     C86834   1.342   2.858   0.746  0.1351 -0.1855  0.0538
  644MOL0     C86835   1.417   2.805   0.623 -0.2494  0.7847 -1.3102
  644MOL0     O86836   1.343   2.726   0.531 -0.0915  0.3032 -0.0057
  644MOL0     C86837   1.405   2.695   0.409  0.3821  1.0104 -0.2154
  644MOL0     C86838   1.373   2.766   0.292  0.1034 -0.6184 -0.0591
  644MOL0     C86839   1.451   2.752   0.177 -1.5141 -0.1446  0.1627
  644MOL0     C86840   1.557   2.668   0.172  0.3558 -0.3813 -0.1349
  644MOL0     O86841   1.641   2.678   0.068 -0.3982 -0.3458  0.2728
  644MOL0     C86842   1.683   2.547   0.028  0.4826 -0.2545  0.1577
  644MOL0     C86843   1.767   2.530  -0.093 -0.0616 -0.0565 -0.0418
  644MOL0     C86844   1.737   2.422  -0.182  0.6276  0.4672 -0.2764
  644MOL0     C86845   1.832   2.431  -0.304 -0.4158 -0.3431 -0.3278
  644MOL0     C86846   1.787   2.341  -0.429 -1.1586  0.3310  0.3007
  644MOL0     C86847   1.655   2.403  -0.486 -0.3371  0.9893  0.8036
  644MOL0     C86848   1.605   2.307  -0.602 -0.2520  0.4134  0.5912
  644MOL0     C86849   1.509   2.375  -0.704  0.2356 -0.4354 -0.4760
  644MOL0    Cl86850   1.347   2.415  -0.634 -0.1566  0.3969 -0.1482
  644MOL0     C86851   1.583   2.592   0.292 -0.0914  0.0141  0.3386
  644MOL0     C86852   1.507   2.600   0.407  0.5878  0.9029 -0.8995
  644MOL0     O86853   1.542   2.821   0.623  0.7060 -0.0043 -0.3698
  644MOL0     C86854   1.201   2.828   0.751  0.8606  0.2791 -0.6392
  644MOL0     C86855   1.118   2.874   0.846  0.1392 -0.0741  0.1948
  644MOL0     N86856   0.935   3.027   1.544  0.2973  0.2384  0.1600
  644MOL0     N86857   1.023   3.033   1.631 -0.1153  0.5260 -0.7206
  644MOL0     C86858   1.343   2.898   1.370 -1.0329 -0.3779  0.2783
  644MOL0     C86859   1.291   2.787   1.433 -0.0338  1.2269 -0.8143
  644MOL0     C86860   1.156   2.374   1.482  0.4785 -0.2047  0.6226
  644MOL0     C86861   1.081   2.274   1.411  0.1418  0.5764 -1.4874
  644MOL0     C86862   1.027   2.163   1.487  0.6179  0.7229  0.6875
  644MOL0     C86863   1.054   2.151   1.621 -0.2462  0.2304  0.6829
  644MOL0     O86864   0.993   2.038   1.676  0.0263 -0.2213 -0.2305
  644MOL0     C86865   1.080   1.958   1.747  0.9756  0.1129 -0.1458
  644MOL0     C86866   1.033   1.812   1.750 -0.5114  0.4895  1.1152
  644MOL0     C86867   1.031   1.749   1.606 -0.5523 -1.2003 -0.4123
  644MOL0     C86868   1.161   1.660   1.579 -0.7713  0.2221 -0.0828
  644MOL0     C86869   1.273   1.736   1.533  0.1384  0.1989 -0.3261
  644MOL0     C86870   1.359   1.816   1.488  0.6607  0.3349  0.6234
  644MOL0     C86871   1.138   2.247   1.691  0.2306 -0.0892 -0.3954
  644MOL0     C86872   1.191   2.353   1.624 -0.9748  0.0055 -0.2919
  644MOL0     H86873   1.531   2.563   1.356  2.4385  1.3692 -0.3452
  644MOL0     H86874   1.638   2.759   1.280  0.3840  1.9958 -0.3699
  644MOL0     H86875   1.673   3.017   1.379 -2.6926 -0.0749  0.9171
  644MOL0     H86876   1.714   3.034   1.208 -1.1487 -1.0664  0.8252
  644MOL0     H86877   1.739   3.236   1.298  0.0777 -0.0282 -1.8807
  644MOL0     H86878   1.593   3.235   1.213  3.2825 -0.8193 -1.6218
  644MOL0     H86879   1.554   3.357   1.456 -1.4943  0.2264  3.8085
  644MOL0     H86880   1.458   3.207   1.415  0.3520  1.1470 -0.8924
  644MOL0     H86881   1.577   3.078   1.558  2.4468 -0.2117 -2.4509
  644MOL0     H86882   1.709   3.185   1.564 -0.8812  1.0734  2.5217
  644MOL0     H86883   1.575   3.207   1.775  0.6603 -0.7025 -0.6259
  644MOL0     H86884   1.593   3.368   1.683 -1.2304  0.9234 -3.8658
  644MOL0     H86885   1.400   3.354   1.791  1.2532 -0.8705 -0.2046
  644MOL0     H86886   1.356   3.374   1.623 -0.1093  0.6849 -0.4487
  644MOL0     H86887   1.309   3.138   1.592  2.3636 -2.0586  1.0850
  644MOL0     H86888   1.350   3.109   1.766  2.4848  1.5335  0.8105
  644MOL0     H86889   1.158   3.329   1.762 -0.8927  0.1261 -1.3279
  644MOL0     H86890   1.183   3.173   1.840  0.6743  3.0541  1.6599
  644MOL0     H86891   1.032   3.331   1.508  3.5550  0.0846  1.8453
  644MOL0     H86892   0.745   3.118   1.379  1.3742 -0.6941 -1.1702
  644MOL0     H86893   0.809   3.277   1.363 -1.7657  0.2975  0.6171
  644MOL0     H86894   1.013   3.157   1.237  1.5238 -2.3487 -2.8886
  644MOL0     H86895   0.856   3.180   1.144  0.4709 -3.2080 -1.3361
  644MOL0     H86896   0.780   2.969   1.192 -0.2943  1.4533 -0.8122
  644MOL0     H86897   0.923   2.920   1.285 -2.4576 -0.0299  0.6042
  644MOL0     H86898   0.909   2.986   0.991  0.1811  1.1748  0.6583
  644MOL0     H86899   0.952   2.832   1.073 -1.4148  0.6566 -0.2075
  644MOL0     H86900   1.342   3.050   1.034  1.8667  0.7450 -2.2194
  644MOL0     H86901   1.592   2.983   0.793 -0.1181  0.2457 -1.4147
  644MOL0     H86902   1.538   3.068   0.922  2.5726 -0.1370 -0.9837
  644MOL0     H86903   1.585   2.899   0.955  1.2524 -0.0759 -2.0220
  644MOL0     H86904   1.283   2.827   0.282  0.6381  0.3005  0.5226
  644MOL0     H86905   1.432   2.819   0.094 -0.4517  0.1766  0.1604
  644MOL0     H86906   1.741   2.500   0.108  0.9806 -2.6663 -1.5017
  644MOL0     H86907   1.587   2.496   0.018  0.2030  0.3797 -0.4515
  644MOL0     H86908   1.761   2.628  -0.141 -1.2412 -2.0368 -4.4323
  644MOL0     H86909   1.869   2.506  -0.061  1.4375  0.9493 -3.6004
  644MOL0     H86910   1.630   2.430  -0.205 -0.1701  0.9247  3.0748
  644MOL0     H86911   1.737   2.325  -0.132 -1.0707 -0.4009 -1.8491
  644MOL0     H86912   1.846   2.537  -0.326  0.8209 -1.0123 -3.1777
  644MOL0     H86913   1.933   2.403  -0.271 -0.7018 -0.6598  0.2983
  644MOL0     H86914   1.774   2.236  -0.401  0.2561 -0.9948 -3.3941
  644MOL0     H86915   1.863   2.348  -0.508 -1.6124  0.1397 -0.1561
  644MOL0     H86916   1.585   2.395  -0.402  0.2039  0.1388  1.1890
  644MOL0     H86917   1.666   2.504  -0.527  1.2167 -0.0259 -1.4735
  644MOL0     H86918   1.548   2.228  -0.552 -1.4109  2.4028  2.6534
  644MOL0     H86919   1.689   2.272  -0.662  1.5679  1.0675  2.6286
  644MOL0     H86920   1.487   2.313  -0.792 -2.4703  0.7557 -0.7275
  644MOL0     H86921   1.558   2.469  -0.731  0.0713 -0.6645 -1.6332
  644MOL0     H86922   1.672   2.530   0.297  0.6183  0.8240 -1.3412
  644MOL0     H86923   1.533   2.543   0.495 -1.3283  1.2391 -0.0734
  644MOL0     H86924   1.159   2.750   0.688  0.5112  1.3042 -1.7192
  644MOL0     H86925   1.015   2.841   0.853 -0.5061  1.6222 -0.6973
  644MOL0     H86926   1.292   2.994   1.367  4.5216  3.0969  2.0056
  644MOL0     H86927   1.194   2.794   1.482 -0.0711 -2.6568 -0.0106
  644MOL0     H86928   1.068   2.281   1.304  3.4302  0.5663 -1.9831
  644MOL0     H86929   0.966   2.084   1.444  0.9621 -0.1772  1.7914
  644MOL0     H86930   1.180   1.963   1.704  1.1999  1.8243  0.5009
  644MOL0     H86931   1.084   1.999   1.849  1.1583  0.4408 -0.2839
  644MOL0     H86932   0.934   1.807   1.797 -0.0578  2.0240  2.3124
  644MOL0     H86933   1.105   1.759   1.811 -0.4404  2.2705  2.6770
  644MOL0     H86934   1.020   1.830   1.534  2.1355 -0.3204  0.0208
  644MOL0     H86935   0.947   1.681   1.616 -0.3009 -1.3395  0.9490
  644MOL0     H86936   1.140   1.580   1.507 -1.2148 -1.3703  1.7238
  644MOL0     H86937   1.201   1.603   1.663 -0.3568  0.3552 -0.1883
  644MOL0     H86938   1.425   1.888   1.444  2.4621 -0.1775  2.3649
  644MOL0     H86939   1.143   2.221   1.796  0.7913 -0.1054 -0.4235
  644MOL0     H86940   1.260   2.420   1.675  0.4057 -3.3646  2.7580
  645MOL0     O86941   9.162   2.539   5.203  0.5146 -0.7763  0.3784
  645MOL0     C86942   9.254   2.487   5.148  0.1221  0.1108  1.0163
  645MOL0     O86943   9.277   2.489   5.012  0.3650  0.5997 -0.0405
  645MOL0     C86944   9.175   2.534   4.930 -0.3766 -0.6594  0.3647
  645MOL0     C86945   9.156   2.469   4.806  0.1517  0.6548  0.0530
  645MOL0     C86946   9.085   2.531   4.708  0.4319 -0.7368  0.5387
  645MOL0     C86947   9.004   2.651   4.731  0.7974  0.4133 -1.0367
  645MOL0     O86948   8.936   2.724   4.648 -0.8266 -0.7345  0.4610
  645MOL0     C86949   8.965   2.713   4.504 -0.1462  0.2367  0.7084
  645MOL0     C86950   8.930   2.846   4.438 -0.5437  0.2268 -0.1921
  645MOL0     C86951   8.793   2.887   4.428  0.0368  0.6137  0.0071
  645MOL0     C86952   8.787   3.027   4.355  0.4260 -0.1924  0.6003
  645MOL0     C86953   8.638   3.070   4.336 -0.6024  0.3383 -0.1905
  645MOL0     C86954   8.630   3.137   4.202  1.1128  0.6348  0.3321
  645MOL0     C86955   8.500   3.213   4.177 -0.3030 -0.3679 -0.1645
  645MOL0     C86956   8.487   3.280   4.040 -0.7376  0.4330  0.6640
  645MOL0     N86957   8.457   3.175   3.940 -0.1763  0.4859  0.4317
  645MOL0     C86958   8.458   3.194   3.803  0.2990 -0.3065 -0.7207
  645MOL0     C86959   8.462   3.081   3.745 -0.6120  0.3263  0.5917
  645MOL0     C86960   8.450   3.048   3.597 -1.3988 -0.2968  0.0996
  645MOL0     C86961   8.353   3.131   3.510  0.1958 -0.1856  0.5214
  645MOL0     C86962   8.204   3.072   3.508  0.2479 -0.5545 -0.3942
  645MOL0     C86963   8.126   3.045   3.636  0.2827  1.1042  0.1074
  645MOL0     O86964   7.991   3.008   3.625  0.4347  0.3816 -0.4027
  645MOL0     C86965   7.919   2.969   3.736  0.7720 -0.2896 -1.1674
  645MOL0     C86966   7.965   2.966   3.871  0.0462  0.8339 -0.7817
  645MOL0     C86967   7.883   2.896   3.968 -0.1576 -1.1702  0.5779
  645MOL0     C86968   7.950   2.891   4.107  0.6198  0.1883  0.1762
  645MOL0     C86969   7.752   2.852   3.936 -0.0874 -0.1733  0.1601
  645MOL0     C86970   7.680   2.771   4.035  0.8643  1.5735 -0.1798
  645MOL0     O86971   7.700   2.800   4.167 -0.0379 -0.5972  0.6102
  645MOL0     C86972   7.606   2.742   4.256 -0.6748 -0.1802 -0.0952
  645MOL0     C86973   7.627   2.607   4.275 -0.4425  0.2243 -0.1426
  645MOL0     C86974   7.542   2.523   4.356 -0.0358 -0.3817 -0.2998
  645MOL0     C86975   7.433   2.589   4.415  1.1120 -0.8638 -0.2346
  645MOL0     O86976   7.346   2.510   4.493  0.3067 -0.1064 -0.2607
  645MOL0     C86977   7.216   2.567   4.529  0.2448 -0.3432  1.3439
  645MOL0     C86978   7.118   2.452   4.572 -0.7495 -0.4959  0.3339
  645MOL0     C86979   7.168   2.379   4.703 -0.4013 -0.5594  1.5256
  645MOL0     C86980   7.067   2.279   4.738  0.2623 -0.8083  0.0730
  645MOL0     C86981   7.114   2.166   4.844 -0.1639  0.5820  0.2029
  645MOL0     C86982   7.003   2.094   4.928 -0.6448 -0.4368 -0.4649
  645MOL0     C86983   6.888   2.040   4.838 -0.9524 -0.5766 -0.5893
  645MOL0     C86984   6.798   1.930   4.904 -0.1057  0.7651 -0.0889
  645MOL0    Cl86985   6.652   1.863   4.813  0.2024  0.0291  0.4298
  645MOL0     C86986   7.412   2.726   4.391 -0.3410  0.0063  0.5456
  645MOL0     C86987   7.503   2.803   4.320 -0.4279  0.4310  0.4098
  645MOL0     O86988   7.597   2.688   3.997  0.4532  0.2205 -0.4972
  645MOL0     C86989   7.711   2.849   3.803  0.6329 -0.6479  0.0714
  645MOL0     C86990   7.792   2.911   3.708  1.1860 -0.6513 -1.1130
  645MOL0     N86991   8.460   2.982   3.850  0.0182 -0.2942  0.6993
  645MOL0     N86992   8.442   3.043   3.969 -0.5167  0.0420  0.5699
  645MOL0     C86993   9.006   2.706   4.860 -0.1286 -0.2252  0.2160
  645MOL0     C86994   9.105   2.657   4.946  0.0464  0.9642 -0.2885
  645MOL0     C86995   9.372   2.441   5.224 -0.6077  0.8500  0.0246
  645MOL0     C86996   9.479   2.393   5.153 -0.9694 -0.0295 -0.9710
  645MOL0     C86997   9.606   2.364   5.209 -0.3210 -0.0702  0.1187
  645MOL0     C86998   9.622   2.368   5.350 -0.0182  0.1583 -0.8699
  645MOL0     O86999   9.733   2.335   5.427 -0.6125  0.0337 -0.3234
  645MOL0     C87000   9.849   2.276   5.359  0.2922  0.1541  0.2472
  645MOL0     C87001   9.961   2.255   5.448 -0.3579  1.1682 -0.4980
  645MOL0     C87002   9.963   2.133   5.547  0.4742 -0.8359 -1.9953
  645MOL0     C87003   9.862   2.155   5.660 -0.6571  0.4131 -0.6136
  645MOL0     C87004   9.930   2.240   5.758 -0.3420  0.2736  0.6919
  645MOL0     C87005   9.979   2.303   5.853 -0.1631  1.5644 -0.3501
  645MOL0     C87006   9.507   2.410   5.416 -0.2399  1.4653  0.1275
  645MOL0     C87007   9.386   2.438   5.362  0.1633  0.2146  0.5041
  645MOL0     H87008   9.201   2.372   4.790  2.4025  1.2460  2.1370
  645MOL0     H87009   9.095   2.482   4.611  0.9093  1.0757 -0.3617
  645MOL0     H87010   9.070   2.698   4.479 -0.3300  2.2304 -1.5837
  645MOL0     H87011   8.912   2.629   4.458  1.8760 -2.2326  2.5930
  645MOL0     H87012   8.978   2.926   4.494 -0.4720  0.2731 -0.3199
  645MOL0     H87013   8.975   2.839   4.338  0.3095 -1.5538  0.2742
  645MOL0     H87014   8.743   2.811   4.368 -0.3397  1.3075 -0.5817
  645MOL0     H87015   8.756   2.895   4.531 -1.5630 -1.6769 -0.3221
  645MOL0     H87016   8.845   3.099   4.414 -0.3544 -0.7933  2.1847
  645MOL0     H87017   8.831   3.005   4.258 -1.8032 -1.7673 -0.1238
  645MOL0     H87018   8.567   2.987   4.347  2.0105 -1.6493  4.8063
  645MOL0     H87019   8.611   3.144   4.412  1.0653  0.5232  0.2703
  645MOL0     H87020   8.711   3.210   4.200  1.1509  0.6145  0.9260
  645MOL0     H87021   8.645   3.050   4.137 -0.4669 -2.5864  3.8661
  645MOL0     H87022   8.408   3.162   4.205  0.3681  0.0068  3.1049
  645MOL0     H87023   8.508   3.279   4.264  1.6788 -1.0928  0.2644
  645MOL0     H87024   8.577   3.330   4.000 -2.5222  1.3275 -2.5994
  645MOL0     H87025   8.404   3.349   4.025 -0.7045  0.0014 -1.8855
  645MOL0     H87026   8.451   3.293   3.759 -0.7899 -0.0139  0.0599
  645MOL0     H87027   8.548   3.066   3.550 -3.1236  0.5730 -3.5448
  645MOL0     H87028   8.428   2.942   3.581 -0.2343 -0.6964  1.0048
  645MOL0     H87029   8.384   3.130   3.405 -2.6464  2.5970 -0.4894
  645MOL0     H87030   8.356   3.234   3.546  0.8375 -0.1793  0.4622
  645MOL0     H87031   8.215   2.974   3.461  0.8134 -0.2135 -0.9948
  645MOL0     H87032   8.145   3.133   3.438  0.0889  0.8288  0.8907
  645MOL0     H87033   8.124   3.137   3.695  1.6801 -0.3076  2.5471
  645MOL0     H87034   8.170   2.970   3.702  1.7735  1.1733 -0.7694
  645MOL0     H87035   8.067   2.998   3.893  0.7466 -0.1161 -2.3840
  645MOL0     H87036   8.049   2.937   4.103  0.6401  0.1595  0.3370
  645MOL0     H87037   7.901   2.952   4.183  1.5597  0.1152  0.8551
  645MOL0     H87038   7.959   2.791   4.152  0.1865  1.5971  3.6737
  645MOL0     H87039   7.705   2.558   4.219 -0.6930 -2.3428  1.5984
  645MOL0     H87040   7.557   2.416   4.373  0.2248 -0.5322 -1.4313
  645MOL0     H87041   7.239   2.636   4.610 -1.9452  0.9706  0.9140
  645MOL0     H87042   7.173   2.629   4.450  1.4371 -0.9739  0.1466
  645MOL0     H87043   7.013   2.482   4.566 -0.1715  1.4679 -4.6179
  645MOL0     H87044   7.123   2.372   4.498  2.3820 -1.0096  0.9655
  645MOL0     H87045   7.184   2.460   4.774  0.8093  1.4262 -0.8542
  645MOL0     H87046   7.257   2.320   4.683 -0.5802  0.0766 -1.7043
  645MOL0     H87047   6.981   2.340   4.767  0.8852  0.0403  0.1638
  645MOL0     H87048   7.042   2.221   4.649  0.7636  0.0827 -0.6693
  645MOL0     H87049   7.186   2.203   4.917 -2.1426  0.6274  2.2322
  645MOL0     H87050   7.175   2.093   4.789 -0.5182 -0.3050  0.9709
  645MOL0     H87051   7.039   2.019   4.999 -1.4002 -1.6303 -1.3139
  645MOL0     H87052   6.953   2.166   4.993  1.6533 -1.8829  3.2697
  645MOL0     H87053   6.914   2.003   4.738 -1.2706 -1.1564 -0.4577
  645MOL0     H87054   6.834   2.132   4.811  0.5194  0.1715 -1.0851
  645MOL0     H87055   6.790   1.952   5.011  1.0334 -1.2980  0.4677
  645MOL0     H87056   6.868   1.846   4.910 -0.7300  0.3571  3.2038
  645MOL0     H87057   7.329   2.771   4.446 -0.4257  1.8527 -0.9760
  645MOL0     H87058   7.501   2.911   4.306 -1.8623  0.5079  1.0620
  645MOL0     H87059   7.613   2.810   3.779  0.1584  0.2165  0.5585
  645MOL0     H87060   7.745   2.925   3.611  1.2293 -0.7321 -1.1454
  645MOL0     H87061   8.941   2.786   4.892  0.1448  0.9068 -1.8853
  645MOL0     H87062   9.107   2.704   5.044 -4.0892 -0.9183  0.9310
  645MOL0     H87063   9.479   2.389   5.045  0.8869  1.0705 -1.0576
  645MOL0     H87064   9.688   2.326   5.148  0.5681  0.9780  0.6226
  645MOL0     H87065   9.827   2.181   5.310 -1.5869 -0.1725  1.5715
  645MOL0     H87066   9.871   2.353   5.285 -1.5014 -1.1488 -1.7343
  645MOL0     H87067   9.972   2.355   5.491 -2.7831  0.7284  1.3929
  645MOL0     H87068  10.050   2.231   5.390  0.1365  1.1926  0.2415
  645MOL0     H87069  10.060   2.125   5.596 -0.1834  0.4624 -0.3713
  645MOL0     H87070   9.954   2.040   5.489  0.4777 -1.7674 -0.5377
  645MOL0     H87071   9.826   2.067   5.713 -4.7298 -0.1146 -3.7287
  645MOL0     H87072   9.764   2.196   5.632 -0.2332  2.4622  0.7034
  645MOL0     H87073  10.030   2.352   5.933  3.7420  2.0747 -2.8705
  645MOL0     H87074   9.512   2.407   5.525 -0.5360  0.3527  0.1213
  645MOL0     H87075   9.305   2.472   5.425 -0.8648 -0.9624 -0.1462
  646MOL0     O87076   0.682  11.281   7.402  1.1910 -0.3481  0.8065
  646MOL0     C87077   0.606  11.307   7.310 -0.3424  0.5600 -0.2518
  646MOL0     O87078   0.543  11.431   7.293  0.4390 -0.3325 -0.5305
  646MOL0     C87079   0.583  11.549   7.343  0.9281 -0.3014 -0.2223
  646MOL0     C87080   0.504  11.660   7.297  0.3197 -0.2172  0.1204
  646MOL0     C87081   0.530  11.794   7.342  1.1080 -0.6031 -0.3220
  646MOL0     C87082   0.642  11.813   7.420 -0.4802  0.4302 -0.8156
  646MOL0     O87083   0.658  11.953   7.441  0.3128  0.6557 -0.1966
  646MOL0     C87084   0.786  12.013   7.462  0.7740  0.2553 -0.3894
  646MOL0     C87085   0.777  12.149   7.538  0.6129  1.1042  0.5402
  646MOL0     C87086   0.712  12.134   7.672 -0.1346  0.4836 -0.2596
  646MOL0     C87087   0.684  12.273   7.737 -0.5647  0.1102 -0.2841
  646MOL0     C87088   0.608  12.264   7.878 -0.4256 -0.2364  0.3554
  646MOL0     C87089   0.576  12.398   7.957  0.0276 -0.9582  0.8600
  646MOL0     C87090   0.463  12.384   8.071 -0.9845  0.1505  0.5677
  646MOL0     C87091   0.389  12.514   8.090 -0.3013 -0.8883 -0.3081
  646MOL0     N87092   0.349  12.531   8.225 -0.2170 -0.5072 -0.5772
  646MOL0     C87093   0.423  12.526   8.343  0.0588  1.3261 -0.9789
  646MOL0     C87094   0.338  12.549   8.444  0.8136 -0.0866  0.2639
  646MOL0     C87095   0.349  12.557   8.592 -0.2969 -0.0677 -0.2537
  646MOL0     C87096   0.300  12.434   8.675 -0.2234  0.6794 -0.3449
  646MOL0     C87097   0.298  12.466   8.821  0.5985 -0.6009 -0.0861
  646MOL0     C87098   0.261  12.345   8.895  0.0509 -0.3466 -0.8065
  646MOL0     O87099   0.348  12.234   8.874 -0.5528 -0.1546 -0.8853
  646MOL0     C87100   0.457  12.212   8.959  0.0655 -0.1707 -0.6178
  646MOL0     C87101   0.504  12.086   8.928 -0.3358 -0.1732 -0.8873
  646MOL0     C87102   0.615  12.041   9.000 -0.0528 -0.2967  0.8086
  646MOL0     C87103   0.681  11.911   8.962  1.8146  0.1481 -0.6402
  646MOL0     C87104   0.680  12.118   9.100  0.9363 -0.1773 -0.9244
  646MOL0     C87105   0.806  12.088   9.183  0.1946 -0.6586  0.1136
  646MOL0     O87106   0.868  12.184   9.260  0.2073 -0.0744  0.6601
  646MOL0     C87107   0.945  12.150   9.364  0.0670  0.1357  0.3002
  646MOL0     C87108   0.931  12.034   9.440  1.0458  0.2181 -0.0033
  646MOL0     C87109   1.004  12.016   9.551 -0.1702 -0.8945 -0.2506
  646MOL0     C87110   1.108  12.100   9.588  0.0212  0.0704 -0.5684
  646MOL0     O87111   1.197  12.061   9.685  0.1981  0.3205 -0.2415
  646MOL0     C87112   1.127  12.005   9.800 -0.0639 -0.2203  1.0062
  646MOL0     C87113   1.214  12.008   9.924 -0.0455  0.5328 -0.7529
  646MOL0     C87114   1.202  12.135  10.001  0.1328 -0.0775 -0.5529
  646MOL0     C87115   1.297  12.164  10.115 -0.4116  1.1235 -0.7763
  646MOL0     C87116   1.272  12.300  10.188  0.0605  0.2871 -0.1899
  646MOL0     C87117   1.344  12.316  10.324 -0.5367  0.6605  0.6455
  646MOL0     C87118   1.293  12.440  10.391 -0.5721  0.0355  0.3216
  646MOL0     C87119   1.368  12.467  10.522 -1.0359 -0.4965 -0.4303
  646MOL0    Cl87120   1.543  12.509  10.516  0.1394 -0.3003 -0.4672
  646MOL0     C87121   1.120  12.221   9.519  0.9649 -0.9305  0.1310
  646MOL0     C87122   1.039  12.249   9.410  0.1719  0.2269  0.6911
  646MOL0     O87123   0.840  11.972   9.183 -0.1039 -0.0251  0.6324
  646MOL0     C87124   0.625  12.247   9.127 -0.6969  0.2067  1.2593
  646MOL0     C87125   0.510  12.300   9.058 -0.1505 -0.1895 -0.5821
  646MOL0     N87126   0.211  12.548   8.392 -0.2903 -0.2691  0.8397
  646MOL0     N87127   0.223  12.542   8.258 -0.2332  0.0293 -1.0019
  646MOL0     C87128   0.715  11.705   7.474 -0.7190 -0.4884 -0.9971
  646MOL0     C87129   0.676  11.574   7.444 -0.5745 -0.5361 -0.0259
  646MOL0     C87130   0.578  11.206   7.215  0.3406  0.9810 -0.0239
  646MOL0     C87131   0.445  11.203   7.165  0.0251  0.9243 -0.8730
  646MOL0     C87132   0.415  11.100   7.075 -0.2560  0.4619  0.2142
  646MOL0     C87133   0.504  10.994   7.040  0.4386 -0.1776 -0.1857
  646MOL0     O87134   0.494  10.889   6.953  1.1273 -0.6616  0.5000
  646MOL0     C87135   0.356  10.853   6.922  0.8747  0.2385  0.2227
  646MOL0     C87136   0.276  10.785   7.036  1.0361 -0.1736 -1.4245
  646MOL0     C87137   0.343  10.646   7.072 -0.9908 -0.8648  0.3783
  646MOL0     C87138   0.344  10.604   7.228  0.3703 -0.1540  0.3633
  646MOL0     C87139   0.411  10.715   7.299  0.7982  0.2825 -1.4177
  646MOL0     C87140   0.469  10.799   7.360  0.4232 -0.3145  0.4305
  646MOL0     C87141   0.628  10.998   7.102 -0.0434  0.1521  0.1195
  646MOL0     C87142   0.664  11.096   7.191  0.2903  0.9852 -0.3869
  646MOL0     H87143   0.419  11.636   7.234 -0.2479  0.6112  0.5653
  646MOL0     H87144   0.462  11.867   7.300  2.9434 -0.1173 -2.6877
  646MOL0     H87145   0.858  11.948   7.511  0.8507  0.2163 -0.5532
  646MOL0     H87146   0.832  12.033   7.365  3.8693  2.0226  1.3001
  646MOL0     H87147   0.882  12.181   7.538  2.7321 -4.6971  0.1998
  646MOL0     H87148   0.716  12.210   7.470  0.3898  2.0702  1.5644
  646MOL0     H87149   0.613  12.089   7.661 -0.8312  1.8792  0.0936
  646MOL0     H87150   0.788  12.076   7.725  1.0699  0.8746 -1.4966
  646MOL0     H87151   0.779  12.324   7.754 -1.7531  2.0061  1.0744
  646MOL0     H87152   0.614  12.324   7.670 -1.0803  0.9497  0.8476
  646MOL0     H87153   0.523  12.198   7.861 -1.9763  0.9063  3.0632
  646MOL0     H87154   0.682  12.212   7.940  0.0269 -3.9716 -2.8902
  646MOL0     H87155   0.673  12.411   8.005  0.5960 -4.5772  0.9716
  646MOL0     H87156   0.552  12.472   7.881 -3.2011 -2.9931 -0.3541
  646MOL0     H87157   0.391  12.304   8.053  1.5358 -1.9263 -1.0906
  646MOL0     H87158   0.504  12.358   8.169 -1.6866 -0.4773  0.7007
  646MOL0     H87159   0.305  12.524   8.021  0.6552 -3.9409 -2.0955
  646MOL0     H87160   0.463  12.592   8.071 -0.1240 -0.5955  1.4240
  646MOL0     H87161   0.529  12.503   8.353  0.0241  1.4720 -0.2055
  646MOL0     H87162   0.454  12.573   8.619 -0.9846  1.2760  1.8096
  646MOL0     H87163   0.286  12.635   8.635 -0.6590 -1.0850  1.1403
  646MOL0     H87164   0.371  12.352   8.662 -2.0030 -0.8816 -0.5154
  646MOL0     H87165   0.198  12.401   8.655 -1.0721 -0.4988  4.6321
  646MOL0     H87166   0.229  12.549   8.834  0.6423  0.0087 -2.9909
  646MOL0     H87167   0.397  12.495   8.858  0.6578 -1.1901  0.2274
  646MOL0     H87168   0.160  12.315   8.867 -1.6324  4.4447 -0.8100
  646MOL0     H87169   0.260  12.378   8.999  2.9517 -1.6955 -0.2432
  646MOL0     H87170   0.446  12.028   8.857  0.3132  0.9317 -2.3804
  646MOL0     H87171   0.634  11.876   8.870  0.9649  1.0738 -0.5829
  646MOL0     H87172   0.786  11.918   8.931  2.0697 -3.8542 -1.1801
  646MOL0     H87173   0.668  11.848   9.050 -1.8195 -0.0335 -1.1688
  646MOL0     H87174   0.850  11.969   9.408  2.2322 -1.5933  0.4923
  646MOL0     H87175   0.993  11.919   9.598 -0.1021 -1.1388 -0.7305
  646MOL0     H87176   1.032  12.059   9.809 -0.0185 -0.0428  0.4442
  646MOL0     H87177   1.101  11.901   9.778  0.2392  0.3090 -2.3106
  646MOL0     H87178   1.177  11.929   9.989 -0.8789  0.4772 -1.2927
  646MOL0     H87179   1.314  11.973   9.896 -0.0910 -0.8592  0.6729
  646MOL0     H87180   1.102  12.142  10.044  0.0083  1.8419 -1.0647
  646MOL0     H87181   1.219  12.214   9.928  0.1284  0.5442  0.1051
  646MOL0     H87182   1.299  12.086  10.191  2.0324 -1.9357 -3.6384
  646MOL0     H87183   1.399  12.173  10.075 -0.6153  0.3500 -1.4882
  646MOL0     H87184   1.164  12.304  10.205  0.2474 -0.1509  1.2318
  646MOL0     H87185   1.284  12.385  10.120  4.4193  1.0864  1.2415
  646MOL0     H87186   1.321  12.232  10.390 -1.9710  0.3917 -0.1493
  646MOL0     H87187   1.453  12.320  10.319 -0.5677  1.5063  0.5585
  646MOL0     H87188   1.187  12.423  10.408  0.0014 -3.8121  0.9923
  646MOL0     H87189   1.307  12.531  10.332 -1.7064 -0.8674 -1.3771
  646MOL0     H87190   1.361  12.374  10.579  1.0329 -1.5242 -1.7193
  646MOL0     H87191   1.313  12.547  10.573  0.2264 -0.3610  0.7678
  646MOL0     H87192   1.178  12.307   9.552 -0.0429  0.1126 -0.7099
  646MOL0     H87193   1.054  12.337   9.349 -2.2773  0.3594  0.1643
  646MOL0     H87194   0.654  12.318   9.204 -1.9615  2.7724 -0.4672
  646MOL0     H87195   0.465  12.396   9.083 -1.4462 -0.8800 -0.2127
  646MOL0     H87196   0.796  11.727   7.544  1.4704 -0.0662 -3.5020
  646MOL0     H87197   0.731  11.497   7.497  0.7934 -0.5371 -1.3733
  646MOL0     H87198   0.378  11.289   7.172 -0.3065  0.6645 -0.8531
  646MOL0     H87199   0.320  11.097   7.024 -1.2911  0.9212  2.0301
  646MOL0     H87200   0.287  10.928   6.881 -0.6422 -2.2785 -2.2503
  646MOL0     H87201   0.371  10.787   6.836 -2.3535 -1.0718  0.5133
  646MOL0     H87202   0.179  10.757   6.993 -1.9737  0.1384  4.2853
  646MOL0     H87203   0.241  10.858   7.109 -1.7929 -1.2420 -1.5637
  646MOL0     H87204   0.450  10.660   7.057 -1.0457  1.2551  1.5570
  646MOL0     H87205   0.314  10.569   7.000 -0.2747 -1.6985  0.9635
  646MOL0     H87206   0.406  10.516   7.246 -1.8075 -1.1731  3.9917
  646MOL0     H87207   0.243  10.581   7.262 -0.8401  3.1697 -0.4825
  646MOL0     H87208   0.527  10.881   7.399 -0.3050 -0.8305  2.7861
  646MOL0     H87209   0.700  10.930   7.059  1.1987  1.7635 -0.4529
  646MOL0     H87210   0.755  11.080   7.248 -1.0882  3.2189  2.7776
  647MOL0     O87211   3.748   6.004   2.752  0.6541  0.3416 -0.0843
  647MOL0     C87212   3.745   5.884   2.788  0.9333  0.5889  1.4652
  647MOL0     O87213   3.644   5.790   2.748  0.5812 -0.4869  0.9395
  647MOL0     C87214   3.522   5.828   2.693  0.3991 -0.6360  0.6545
  647MOL0     C87215   3.398   5.781   2.736  0.0697 -0.6022 -0.2417
  647MOL0     C87216   3.275   5.818   2.688 -0.2565 -1.0701  0.3594
  647MOL0     C87217   3.263   5.919   2.600  0.3969 -0.0734  0.6192
  647MOL0     O87218   3.135   5.973   2.573  0.4053  0.4093  0.6215
  647MOL0     C87219   3.126   6.113   2.549  0.5115 -0.6922  0.1576
  647MOL0     C87220   3.182   6.208   2.650  0.6799  0.6486  0.5356
  647MOL0     C87221   3.159   6.353   2.612  0.8227 -0.3520  0.4357
  647MOL0     C87222   3.019   6.413   2.649  0.0079  0.1724  0.0694
  647MOL0     C87223   3.034   6.578   2.651  1.0654 -0.2714 -0.6698
  647MOL0     C87224   2.914   6.641   2.707  0.4206  0.0499 -0.3878
  647MOL0     C87225   2.919   6.654   2.860 -0.3401  0.3109  0.1982
  647MOL0     C87226   2.786   6.729   2.910 -0.2566 -0.6345  0.4731
  647MOL0     N87227   2.715   6.645   2.999  0.0302 -0.2172  0.1739
  647MOL0     C87228   2.657   6.530   2.956  0.1019 -0.6374 -0.1120
  647MOL0     C87229   2.621   6.464   3.073  0.1410  0.7034 -0.6166
  647MOL0     C87230   2.536   6.337   3.085  0.6767 -1.0703  1.1807
  647MOL0     C87231   2.586   6.249   3.200 -0.1436  1.2464  0.4921
  647MOL0     C87232   2.540   6.282   3.344 -1.1330  0.4616 -0.7473
  647MOL0     C87233   2.629   6.237   3.461  0.4502 -0.1492  0.4176
  647MOL0     O87234   2.581   6.264   3.591  0.7543  0.4461 -0.4139
  647MOL0     C87235   2.614   6.388   3.641 -0.1044 -0.1116 -0.1810
  647MOL0     C87236   2.686   6.487   3.579 -0.5073  0.3392 -0.3775
  647MOL0     C87237   2.700   6.617   3.635  0.0798  0.1603  0.2023
  647MOL0     C87238   2.750   6.736   3.542 -0.4350  0.2991  0.1774
  647MOL0     C87239   2.677   6.622   3.782 -0.0779 -0.1097  0.5596
  647MOL0     C87240   2.709   6.748   3.863 -0.1524  0.4941  1.3660
  647MOL0     O87241   2.810   6.830   3.809  0.7791 -0.6905 -0.2313
  647MOL0     C87242   2.848   6.941   3.887 -0.0259  0.9645 -0.9969
  647MOL0     C87243   2.917   6.909   4.004  0.4104  0.0554 -0.3573
  647MOL0     C87244   2.955   7.013   4.083 -0.3956  0.0667 -0.2622
  647MOL0     C87245   2.921   7.151   4.053  0.1848  1.1004  0.5679
  647MOL0     O87246   2.957   7.248   4.134 -0.5621  0.3979 -0.2056
  647MOL0     C87247   2.892   7.235   4.267 -0.6496  0.7486  1.1005
  647MOL0     C87248   2.968   7.319   4.370 -0.2049  0.1772  0.7185
  647MOL0     C87249   2.941   7.471   4.344  1.0392 -1.6413  0.4162
  647MOL0     C87250   2.909   7.550   4.474  0.3247 -0.0220  0.7802
  647MOL0     C87251   3.027   7.563   4.558  0.1395  0.4564  1.1334
  647MOL0     C87252   3.015   7.661   4.668 -0.3064 -0.1977 -0.7175
  647MOL0     C87253   3.142   7.741   4.676 -1.1388  0.2135  0.5337
  647MOL0     C87254   3.269   7.666   4.713 -0.0313  0.1930  0.0676
  647MOL0    Cl87255   3.404   7.783   4.724 -0.0728  0.8365 -0.1189
  647MOL0     C87256   2.839   7.174   3.944  0.4397 -0.5181  0.7430
  647MOL0     C87257   2.804   7.067   3.860 -0.2079  0.0974 -0.0974
  647MOL0     O87258   2.667   6.755   3.978 -0.2156  0.6612  0.0876
  647MOL0     C87259   2.626   6.519   3.854  0.2045 -0.4283  0.8501
  647MOL0     C87260   2.590   6.405   3.784  0.7239  0.2274  0.4007
  647MOL0     N87261   2.652   6.544   3.183 -0.3074 -0.3308 -0.2677
  647MOL0     N87262   2.713   6.639   3.132  0.1423 -0.2071  0.3002
  647MOL0     C87263   3.382   5.973   2.550 -0.5529 -0.4780 -0.1209
  647MOL0     C87264   3.512   5.932   2.596  0.1072 -0.2522  0.0543
  647MOL0     C87265   3.852   5.834   2.869  0.3488 -0.0203 -0.7946
  647MOL0     C87266   3.909   5.705   2.858 -0.5905 -0.5466 -0.8061
  647MOL0     C87267   4.022   5.663   2.945  0.6055 -0.2888  0.5227
  647MOL0     C87268   4.068   5.754   3.041 -0.0776  0.4194 -0.4501
  647MOL0     O87269   4.167   5.724   3.129  0.0105 -0.3246 -0.1986
  647MOL0     C87270   4.202   5.588   3.159  0.1102  0.1393  0.4875
  647MOL0     C87271   4.307   5.581   3.266 -0.6863 -0.9804 -0.2024
  647MOL0     C87272   4.286   5.478   3.370  0.7916  1.0194 -0.0870
  647MOL0     C87273   4.403   5.382   3.383 -1.0116  0.9821  0.1027
  647MOL0     C87274   4.430   5.309   3.257  0.0693 -0.3242 -0.3547
  647MOL0     C87275   4.455   5.262   3.142  0.8068  0.5822 -0.4571
  647MOL0     C87276   4.012   5.883   3.044 -0.3696 -0.2241  0.4610
  647MOL0     C87277   3.907   5.922   2.968  0.2576  0.6822  1.0303
  647MOL0     H87278   3.395   5.694   2.801  0.3495  1.7079  3.1194
  647MOL0     H87279   3.186   5.793   2.745 -1.2366  0.1588 -0.5691
  647MOL0     H87280   3.177   6.127   2.453  0.3082 -0.5362  0.0727
  647MOL0     H87281   3.020   6.139   2.545  0.2151 -1.3089  2.3659
  647MOL0     H87282   3.135   6.172   2.742  0.6277 -0.2382  0.1665
  647MOL0     H87283   3.291   6.199   2.654  0.8753  2.5210  0.2221
  647MOL0     H87284   3.226   6.407   2.680  2.3633  0.3094 -1.5266
  647MOL0     H87285   3.188   6.370   2.508  0.3299  4.0131  0.8402
  647MOL0     H87286   2.951   6.401   2.565 -0.6327  2.3974  0.1997
  647MOL0     H87287   2.983   6.376   2.746 -1.7032  0.4540 -0.4204
  647MOL0     H87288   3.124   6.623   2.692  1.0893 -0.5325 -0.4314
  647MOL0     H87289   3.028   6.600   2.544 -1.4659  1.8000 -0.2105
  647MOL0     H87290   2.918   6.744   2.671  0.0799  0.0489 -0.4295
  647MOL0     H87291   2.824   6.593   2.667  1.3210  0.0767 -2.5741
  647MOL0     H87292   2.933   6.556   2.906  0.4027 -0.4140 -1.5157
  647MOL0     H87293   2.996   6.723   2.897 -1.8703  1.2381  1.8349
  647MOL0     H87294   2.717   6.754   2.829 -1.3505 -1.2366  1.1944
  647MOL0     H87295   2.802   6.816   2.976 -1.9054 -0.9286  1.3248
  647MOL0     H87296   2.624   6.494   2.860 -0.4996 -2.9666  0.9107
  647MOL0     H87297   2.433   6.368   3.108 -0.5858 -2.7760 -1.5668
  647MOL0     H87298   2.552   6.281   2.992  2.1136 -0.1373  0.8398
  647MOL0     H87299   2.696   6.248   3.199  0.0572 -3.0982 -2.6079
  647MOL0     H87300   2.553   6.145   3.197  0.5739  1.0143  0.1913
  647MOL0     H87301   2.445   6.232   3.365  0.3146 -1.8817  0.6695
  647MOL0     H87302   2.532   6.391   3.337 -0.8149  0.5393  0.0210
  647MOL0     H87303   2.732   6.268   3.440 -0.7397  2.8562 -1.6872
  647MOL0     H87304   2.624   6.128   3.452 -3.2348  0.0140 -1.5006
  647MOL0     H87305   2.708   6.490   3.473  1.8877  1.1319  0.0734
  647MOL0     H87306   2.737   6.835   3.587  1.4732  1.1604 -1.0391
  647MOL0     H87307   2.858   6.722   3.527 -0.4745 -4.3240  2.2689
  647MOL0     H87308   2.699   6.729   3.446 -1.0951 -0.9992  0.5932
  647MOL0     H87309   2.940   6.804   4.019 -0.4019  0.0719  1.1914
  647MOL0     H87310   3.027   6.986   4.160  1.4288  3.2502 -0.6429
  647MOL0     H87311   2.787   7.262   4.253 -1.4372 -2.3844  0.0658
  647MOL0     H87312   2.880   7.127   4.285 -4.0199  0.6507 -0.8200
  647MOL0     H87313   2.921   7.286   4.463  0.6670 -0.4058  0.9645
  647MOL0     H87314   3.074   7.294   4.368 -0.2521 -0.2539 -3.1306
  647MOL0     H87315   2.863   7.494   4.270  1.4443  2.0397  0.9396
  647MOL0     H87316   3.023   7.521   4.291 -1.6353  0.2706 -2.2694
  647MOL0     H87317   2.879   7.649   4.439 -0.8983 -1.3381 -2.2606
  647MOL0     H87318   2.824   7.499   4.520  1.0949 -2.4398 -0.2955
  647MOL0     H87319   3.122   7.579   4.507  1.2345 -0.9412  2.6236
  647MOL0     H87320   3.035   7.465   4.606 -0.6667  0.1337  0.6267
  647MOL0     H87321   2.927   7.726   4.666 -1.8371 -2.1573 -1.7382
  647MOL0     H87322   3.001   7.606   4.761 -1.0679  1.7591  0.3812
  647MOL0     H87323   3.121   7.819   4.751 -2.5535  0.7939 -0.4159
  647MOL0     H87324   3.155   7.779   4.575 -1.5142 -3.1785 -0.9164
  647MOL0     H87325   3.289   7.588   4.638 -1.8202 -1.6754  1.4094
  647MOL0     H87326   3.255   7.621   4.812 -2.9479 -2.0328 -1.1951
  647MOL0     H87327   2.812   7.279   3.937  0.7831 -0.5427 -1.9010
  647MOL0     H87328   2.734   7.093   3.781 -2.0216  0.2951  1.4914
  647MOL0     H87329   2.618   6.510   3.962  1.4698 -1.0164  0.9063
  647MOL0     H87330   2.544   6.315   3.823  1.1764  0.3121  1.1701
  647MOL0     H87331   3.381   6.047   2.471 -0.3288 -2.2536 -1.8405
  647MOL0     H87332   3.600   5.984   2.560  0.3414 -2.9158 -3.7684
  647MOL0     H87333   3.885   5.632   2.781  0.3660  2.0567 -3.7648
  647MOL0     H87334   4.063   5.566   2.921  0.1430  0.3736 -3.8372
  647MOL0     H87335   4.110   5.542   3.196 -0.4843  1.0970  0.2234
  647MOL0     H87336   4.235   5.532   3.071  3.4926 -0.7018  2.1112
  647MOL0     H87337   4.315   5.674   3.323  2.5410 -0.2804 -1.6202
  647MOL0     H87338   4.406   5.575   3.222 -0.5680  1.1988 -0.3497
  647MOL0     H87339   4.202   5.410   3.357  0.5976  1.1258  0.5488
  647MOL0     H87340   4.278   5.525   3.469  4.3188 -1.2227  1.4732
  647MOL0     H87341   4.397   5.316   3.470 -3.0503 -0.4818 -1.0432
  647MOL0     H87342   4.484   5.454   3.390 -0.7775  0.8271 -0.8752
  647MOL0     H87343   4.475   5.211   3.049 -1.5541  0.5277 -1.0128
  647MOL0     H87344   4.043   5.954   3.120 -2.3617  0.2098  0.9049
  647MOL0     H87345   3.865   6.021   2.982  0.8129  1.5020 -2.1997
  648MOL0     O87346  11.278   9.720   0.014 -0.0632 -0.1982 -0.2443
  648MOL0     C87347  11.362   9.696  -0.079  0.2148  0.7581 -0.0709
  648MOL0     O87348  11.346   9.726  -0.209 -0.3482 -0.4791  0.5359
  648MOL0     C87349  11.237   9.812  -0.245  0.8979  0.6804  0.3308
  648MOL0     C87350  11.221   9.943  -0.200 -0.6585  0.2304  1.0387
  648MOL0     C87351  11.107  10.018  -0.235 -0.3670 -1.3629 -0.7949
  648MOL0     C87352  11.011   9.964  -0.326 -0.4491  0.1731 -0.4963
  648MOL0     O87353  10.885  10.024  -0.362  0.6471  0.5909 -0.1205
  648MOL0     C87354  10.829  10.099  -0.254  0.0759 -0.2953 -0.5972
  648MOL0     C87355  10.709  10.179  -0.305 -0.2203  0.2504  0.0027
  648MOL0     C87356  10.589  10.086  -0.336 -0.6066  0.2058  0.5996
  648MOL0     C87357  10.480  10.169  -0.399  0.5825 -0.7857 -0.6330
  648MOL0     C87358  10.347  10.108  -0.402  0.2897  0.4168  0.1096
  648MOL0     C87359  10.346   9.962  -0.462  0.4095  0.3021 -0.2645
  648MOL0     C87360  10.204   9.894  -0.457  0.0087 -0.1263  0.7256
  648MOL0     C87361  10.201   9.757  -0.515  0.4099 -0.1375 -0.2784
  648MOL0     N87362  10.136   9.651  -0.435 -0.0037  0.0187  0.5088
  648MOL0     C87363  10.014   9.660  -0.385 -0.3022 -0.0314  0.2199
  648MOL0     C87364   9.991   9.536  -0.331  0.6480  0.0196  0.1497
  648MOL0     C87365   9.858   9.497  -0.268  0.3213  0.0383  0.0854
  648MOL0     C87366   9.883   9.410  -0.149 -0.7450  0.6852  0.9845
  648MOL0     C87367   9.759   9.373  -0.063 -0.9742 -0.8186 -0.4626
  648MOL0     C87368   9.664   9.271  -0.121  0.1846  0.4870  0.1015
  648MOL0     O87369   9.605   9.328  -0.237  0.7165 -0.6779 -0.4988
  648MOL0     C87370   9.480   9.287  -0.283  0.3583 -0.0731 -0.0143
  648MOL0     C87371   9.424   9.164  -0.245 -1.1864  0.9499  0.1043
  648MOL0     C87372   9.298   9.128  -0.284 -0.4174  0.2332  1.1897
  648MOL0     C87373   9.264   8.991  -0.243  0.8590  0.1758  0.5198
  648MOL0     C87374   9.227   9.217  -0.369  0.0827 -0.3541  0.4452
  648MOL0     C87375   9.104   9.181  -0.427 -0.5129  0.5751  0.1044
  648MOL0     O87376   9.065   9.240  -0.542  0.4075  0.5868  0.4437
  648MOL0     C87377   8.964   9.184  -0.610  1.0042  0.2180  0.6924
  648MOL0     C87378   8.884   9.274  -0.680  0.2584  0.0817  0.7589
  648MOL0     C87379   8.796   9.224  -0.778 -0.1333  0.1508  0.3937
  648MOL0     C87380   8.787   9.086  -0.813  0.5429  0.2239 -0.4659
  648MOL0     O87381   8.697   9.030  -0.902  0.8736 -0.1241 -0.1316
  648MOL0     C87382   8.646   9.122  -0.997  0.8515  0.3551  0.2181
  648MOL0     C87383   8.542   9.072  -1.101 -0.4315  0.9694  0.6730
  648MOL0     C87384   8.616   9.054  -1.237  0.4078  0.0134 -0.6055
  648MOL0     C87385   8.509   9.031  -1.344  0.7366  0.1157  0.6129
  648MOL0     C87386   8.473   9.160  -1.420 -0.1339 -0.6865 -0.4196
  648MOL0     C87387   8.358   9.147  -1.526 -0.5215 -0.0406 -0.9369
  648MOL0     C87388   8.376   9.040  -1.637 -0.2845  0.7423  0.0602
  648MOL0     C87389   8.510   9.051  -1.711  0.0680 -0.3281  0.4244
  648MOL0    Cl87390   8.537   9.212  -1.778  0.1356  0.1434  0.0577
  648MOL0     C87391   8.866   9.001  -0.730  0.2306  0.6773  0.8665
  648MOL0     C87392   8.960   9.049  -0.637 -0.5844  0.5330  0.6589
  648MOL0     O87393   9.031   9.106  -0.359  0.2473 -0.0764 -0.1548
  648MOL0     C87394   9.285   9.340  -0.416 -0.2470  0.1328  0.5649
  648MOL0     C87395   9.411   9.372  -0.371 -0.9381 -1.0077  0.0949
  648MOL0     N87396  10.094   9.453  -0.349  0.1002  0.5188 -0.1344
  648MOL0     N87397  10.179   9.518  -0.420 -0.2976  0.2427 -0.4744
  648MOL0     C87398  11.034   9.839  -0.372  0.1934  0.7816 -0.0822
  648MOL0     C87399  11.140   9.765  -0.333 -1.0267 -0.4640 -0.0429
  648MOL0     C87400  11.483   9.633  -0.024 -0.1198  0.7501  0.2019
  648MOL0     C87401  11.500   9.612   0.112 -0.5607 -0.5192 -0.2752
  648MOL0     C87402  11.624   9.559   0.156  0.7266 -0.0997  0.4304
  648MOL0     C87403  11.715   9.511   0.067 -0.3379 -0.1980 -0.5828
  648MOL0     O87404  11.822   9.450   0.117  0.7126  0.1251 -0.9918
  648MOL0     C87405  11.937   9.403   0.040 -0.7958  0.7762  0.6703
  648MOL0     C87406  12.020   9.293   0.112  0.1255 -0.4596 -1.1498
  648MOL0     C87407  11.982   9.153   0.067 -0.1562  0.0939  0.8134
  648MOL0     C87408  12.063   9.051   0.147  0.7604 -0.4868  0.2978
  648MOL0     C87409  11.998   8.924   0.131  0.3149  0.0134 -0.2242
  648MOL0     C87410  11.951   8.812   0.131  0.0229 -0.1887  0.1211
  648MOL0     C87411  11.698   9.538  -0.069 -0.1337  0.7954 -0.5265
  648MOL0     C87412  11.582   9.599  -0.117 -0.0388 -0.9059  0.1963
  648MOL0     H87413  11.297   9.989  -0.137  0.0461 -1.9956  1.9464
  648MOL0     H87414  11.111  10.122  -0.202 -0.4154 -1.7698  0.5517
  648MOL0     H87415  10.798  10.034  -0.171  3.0444 -0.6225  0.3678
  648MOL0     H87416  10.900  10.171  -0.212  1.2020 -1.0662 -1.1275
  648MOL0     H87417  10.684  10.260  -0.236  0.2628  2.0659 -1.8453
  648MOL0     H87418  10.740  10.229  -0.397  2.6133  3.0231  2.2407
  648MOL0     H87419  10.619  10.005  -0.403  0.9347  2.4309 -1.5560
  648MOL0     H87420  10.553  10.059  -0.236  0.2778 -1.3390  0.5355
  648MOL0     H87421  10.469  10.265  -0.348 -0.7209 -0.5857 -1.2431
  648MOL0     H87422  10.498  10.204  -0.502  0.6326 -0.5387 -0.5419
  648MOL0     H87423  10.302  10.103  -0.303  0.3315  2.7442  0.3115
  648MOL0     H87424  10.292  10.168  -0.475  0.7177 -2.3760 -2.7489
  648MOL0     H87425  10.379   9.950  -0.565 -0.0192 -1.3734 -0.2335
  648MOL0     H87426  10.407   9.903  -0.393 -3.0714 -2.7477  0.5423
  648MOL0     H87427  10.183   9.895  -0.349  1.2623  1.3220  0.9937
  648MOL0     H87428  10.137   9.954  -0.519  1.5976 -1.6779 -2.7205
  648MOL0     H87429  10.298   9.730  -0.559  0.3906 -0.5360 -0.0731
  648MOL0     H87430  10.134   9.764  -0.601 -2.5571  2.7729  2.0229
  648MOL0     H87431   9.952   9.749  -0.375  3.1098  2.5426  0.3210
  648MOL0     H87432   9.801   9.586  -0.240 -0.8259  0.5208 -3.3471
  648MOL0     H87433   9.804   9.444  -0.346 -0.8678 -0.7780  1.4251
  648MOL0     H87434   9.942   9.483  -0.093 -1.2563  1.8386  0.0718
  648MOL0     H87435   9.945   9.323  -0.173 -1.2702 -0.7362  4.2972
  648MOL0     H87436   9.714   9.470  -0.039  3.4703  1.1871  1.0097
  648MOL0     H87437   9.797   9.327   0.028 -0.2110  2.6624  1.1578
  648MOL0     H87438   9.590   9.260  -0.041  0.7214  0.8423  0.6590
  648MOL0     H87439   9.704   9.170  -0.136  0.1729  0.7347 -1.8799
  648MOL0     H87440   9.481   9.087  -0.194 -0.7764 -0.0800 -1.8517
  648MOL0     H87441   9.206   8.947  -0.324 -0.7261  3.2199 -0.1259
  648MOL0     H87442   9.349   8.924  -0.225  1.4994  1.5189  3.0446
  648MOL0     H87443   9.195   9.001  -0.159 -4.3047 -0.2579 -3.1663
  648MOL0     H87444   8.886   9.382  -0.671  0.1735  0.1280  0.2345
  648MOL0     H87445   8.733   9.288  -0.839 -0.7828 -0.8947 -0.0772
  648MOL0     H87446   8.581   9.195  -0.949  1.1348  4.1296 -4.4570
  648MOL0     H87447   8.721   9.182  -1.049  2.1165 -2.8650 -1.9635
  648MOL0     H87448   8.491   8.980  -1.071  1.7231  0.3500  2.7191
  648MOL0     H87449   8.469   9.153  -1.109  1.6719  2.9013  0.0336
  648MOL0     H87450   8.679   8.965  -1.232 -0.3421 -0.7681 -3.3399
  648MOL0     H87451   8.676   9.141  -1.263 -1.2057  1.2145 -0.4387
  648MOL0     H87452   8.544   8.958  -1.418  2.1019  0.6250  0.7320
  648MOL0     H87453   8.416   8.985  -1.306 -0.8194  4.2525  2.3684
  648MOL0     H87454   8.565   9.186  -1.472 -1.4353  1.4963 -1.7560
  648MOL0     H87455   8.455   9.241  -1.349  0.3885  0.1268 -1.2017
  648MOL0     H87456   8.257   9.130  -1.487 -1.2191 -0.0412 -2.6467
  648MOL0     H87457   8.352   9.252  -1.557 -0.6059  0.1838 -0.1787
  648MOL0     H87458   8.298   9.059  -1.711  0.3017  2.7993 -0.0952
  648MOL0     H87459   8.364   8.938  -1.599 -1.0022  0.4269 -0.9861
  648MOL0     H87460   8.501   8.988  -1.800 -1.2125 -0.1623  0.4133
  648MOL0     H87461   8.596   9.017  -1.653  0.4676 -3.0241 -1.5552
  648MOL0     H87462   8.845   8.895  -0.739  1.6906  0.1527  2.9162
  648MOL0     H87463   9.036   8.984  -0.594  1.4671  4.1672  2.9665
  648MOL0     H87464   9.234   9.398  -0.492 -1.7451 -1.1357  0.5520
  648MOL0     H87465   9.458   9.463  -0.406  0.5402 -2.3907 -1.7062
  648MOL0     H87466  10.953   9.792  -0.426 -1.6257  3.1704  0.3853
  648MOL0     H87467  11.142   9.661  -0.364  1.5539 -0.3800 -0.3522
  648MOL0     H87468  11.429   9.629   0.193 -2.2225 -1.7708 -1.3975
  648MOL0     H87469  11.621   9.543   0.263 -3.0233  1.5774  0.7311
  648MOL0     H87470  11.905   9.359  -0.055  3.0639 -1.5725  0.2617
  648MOL0     H87471  12.003   9.485   0.010 -2.0325  1.3880 -0.5514
  648MOL0     H87472  12.019   9.305   0.221  1.2071 -2.1568 -0.9144
  648MOL0     H87473  12.124   9.318   0.088  0.2588 -0.1762 -0.3232
  648MOL0     H87474  12.000   9.133  -0.039 -2.7955 -3.7243  0.9056
  648MOL0     H87475  11.876   9.132   0.083  0.3914 -3.3211  0.6058
  648MOL0     H87476  12.064   9.065   0.256  0.7425 -1.5742  0.4459
  648MOL0     H87477  12.163   9.051   0.101  1.1782  2.3054  0.9865
  648MOL0     H87478  11.896   8.725   0.102 -1.2114  1.1224 -1.6785
  648MOL0     H87479  11.778   9.506  -0.135 -0.6540 -3.0241  0.4335
  648MOL0     H87480  11.577   9.631  -0.221  1.5682 -0.4889  0.2237
  649MOL0     O87481   7.245   7.240   8.553 -0.9269  0.2383 -1.0086
  649MOL0     C87482   7.147   7.295   8.493 -1.1070  0.2839 -0.4726
  649MOL0     O87483   7.141   7.321   8.357 -0.3019 -0.6418 -0.4575
  649MOL0     C87484   7.228   7.281   8.262 -0.2302  0.4230 -0.1856
  649MOL0     C87485   7.204   7.171   8.185  0.3313  0.0789 -0.0874
  649MOL0     C87486   7.288   7.149   8.076 -0.0178  0.5976 -0.3758
  649MOL0     C87487   7.410   7.211   8.059  0.1082 -0.4422 -0.3915
  649MOL0     O87488   7.500   7.196   7.958  1.0460 -1.0148  0.1886
  649MOL0     C87489   7.489   7.078   7.875  0.2090 -0.4927  0.4011
  649MOL0     C87490   7.612   7.041   7.793  0.4945  0.3827 -0.1053
  649MOL0     C87491   7.728   7.008   7.880 -0.5788  1.7149 -0.5145
  649MOL0     C87492   7.850   6.992   7.796  0.5055  0.7820 -0.2109
  649MOL0     C87493   7.975   6.954   7.877 -0.0601 -0.1595  0.2396
  649MOL0     C87494   8.013   7.053   7.975 -0.9892 -0.6454  0.2799
  649MOL0     C87495   8.150   6.997   8.019  0.5720  0.6968  0.5350
  649MOL0     C87496   8.272   7.024   7.940  0.1929  0.3779  0.2785
  649MOL0     N87497   8.289   7.166   7.901  0.1727  0.5775  0.1558
  649MOL0     C87498   8.239   7.277   7.959  0.2688  0.7924 -0.6565
  649MOL0     C87499   8.285   7.378   7.887 -0.7839 -0.3523 -0.2165
  649MOL0     C87500   8.275   7.523   7.904  0.5885  0.2075 -0.5121
  649MOL0     C87501   8.404   7.591   7.957  0.1828 -0.0818  0.6552
  649MOL0     C87502   8.378   7.737   8.005  0.2435 -0.2574  0.0627
  649MOL0     C87503   8.355   7.833   7.894 -0.5031 -0.3975 -0.4106
  649MOL0     O87504   8.487   7.841   7.837 -0.1561 -0.1041  0.5801
  649MOL0     C87505   8.525   7.967   7.786  0.0258  0.4871  0.6592
  649MOL0     C87506   8.435   8.058   7.732  0.9643 -0.3526  0.2572
  649MOL0     C87507   8.476   8.183   7.688 -0.2749  1.1476 -0.0074
  649MOL0     C87508   8.372   8.275   7.637  0.0358 -0.7532  0.3656
  649MOL0     C87509   8.614   8.218   7.702  0.2192  0.0795  1.3226
  649MOL0     C87510   8.670   8.340   7.635  0.2514 -0.3886 -0.3435
  649MOL0     O87511   8.776   8.408   7.696 -0.6844  0.3154  0.3153
  649MOL0     C87512   8.842   8.522   7.649 -0.4764  0.5753 -0.5302
  649MOL0     C87513   8.980   8.531   7.687  0.3548  1.0608  0.9033
  649MOL0     C87514   9.047   8.645   7.653 -0.4449  0.2340 -1.0771
  649MOL0     C87515   8.980   8.765   7.611  0.0485  0.2137  1.2367
  649MOL0     O87516   9.043   8.878   7.572  0.2077 -0.2960 -0.1472
  649MOL0     C87517   9.066   8.880   7.431  0.1896  0.2724 -0.2202
  649MOL0     C87518   9.143   9.008   7.372 -0.9354 -0.7712  0.0150
  649MOL0     C87519   9.149   9.020   7.218 -0.3515  0.0727  0.0770
  649MOL0     C87520   9.225   8.895   7.163 -0.2451 -0.6852  0.7769
  649MOL0     C87521   9.337   8.938   7.056  0.5766 -0.1277 -0.5429
  649MOL0     C87522   9.278   8.976   6.919 -0.9413  0.2053 -0.0306
  649MOL0     C87523   9.401   9.012   6.835  0.2408 -0.1701  0.1693
  649MOL0     C87524   9.360   9.007   6.678  0.5695 -0.1471  0.3799
  649MOL0    Cl87525   9.300   8.847   6.600  0.0909 -0.3883 -0.0204
  649MOL0     C87526   8.846   8.761   7.582  0.4606 -0.0495  0.2682
  649MOL0     C87527   8.786   8.635   7.593  1.0278 -0.1091 -0.0295
  649MOL0     O87528   8.625   8.371   7.528 -0.4095  0.2179  1.2319
  649MOL0     C87529   8.705   8.133   7.769  0.4274  0.0003 -0.4843
  649MOL0     C87530   8.661   8.003   7.799  0.3666  0.2519  0.5899
  649MOL0     N87531   8.368   7.327   7.793  0.4351  0.0517 -0.0354
  649MOL0     N87532   8.373   7.199   7.799 -0.2176 -0.1662  0.4499
  649MOL0     C87533   7.442   7.319   8.147 -0.5244 -0.1619 -0.0911
  649MOL0     C87534   7.348   7.359   8.243  0.7344 -0.5600  0.3688
  649MOL0     C87535   7.021   7.306   8.567 -0.9994 -1.3589 -0.6671
  649MOL0     C87536   6.901   7.352   8.503 -1.1113  0.1473 -0.8552
  649MOL0     C87537   6.775   7.354   8.568 -0.3901 -0.0955  0.4300
  649MOL0     C87538   6.769   7.313   8.699  0.5144 -0.1403 -0.6332
  649MOL0     O87539   6.649   7.308   8.770  0.3445 -0.1035  0.3708
  649MOL0     C87540   6.588   7.182   8.784 -0.3433 -0.3250 -0.1823
  649MOL0     C87541   6.459   7.160   8.699  0.1669 -0.9232 -0.4083
  649MOL0     C87542   6.478   7.195   8.555  0.5151  0.2243  0.0040
  649MOL0     C87543   6.356   7.154   8.477 -0.3362 -0.2003  0.2312
  649MOL0     C87544   6.373   7.184   8.330 -1.4572 -0.1068 -0.3300
  649MOL0     C87545   6.382   7.216   8.219  1.6756 -0.1816  0.0892
  649MOL0     C87546   6.882   7.278   8.772 -0.7858 -0.6286  0.8597
  649MOL0     C87547   7.004   7.272   8.702  0.5322 -0.4198  0.0119
  649MOL0     H87548   7.112   7.116   8.197  0.2083  0.5332  1.2660
  649MOL0     H87549   7.255   7.066   8.014  3.6969  0.8773 -3.0126
  649MOL0     H87550   7.462   6.997   7.943  0.6882  0.4360  1.7260
  649MOL0     H87551   7.396   7.097   7.820 -0.0700  1.1650  1.3840
  649MOL0     H87552   7.582   6.959   7.727 -0.2945  1.1600 -0.7241
  649MOL0     H87553   7.645   7.116   7.722  2.4353 -3.2729 -3.4957
  649MOL0     H87554   7.750   7.080   7.959  0.6523 -0.4125  1.1933
  649MOL0     H87555   7.695   6.916   7.930  0.0814  0.5468 -2.1204
  649MOL0     H87556   7.836   6.906   7.730  2.9281  2.1957 -2.7606
  649MOL0     H87557   7.884   7.079   7.740  1.6911 -0.0393 -0.8125
  649MOL0     H87558   7.960   6.857   7.925  0.8711 -1.3749 -1.8049
  649MOL0     H87559   8.052   6.927   7.805 -0.5163 -0.8637  0.0056
  649MOL0     H87560   8.015   7.158   7.947  2.8989 -1.5636 -4.1676
  649MOL0     H87561   7.941   7.030   8.054 -3.1744 -0.8834 -1.6802
  649MOL0     H87562   8.169   7.037   8.119  4.3789 -1.7967  0.9802
  649MOL0     H87563   8.133   6.890   8.033 -4.2293  1.3409  1.3567
  649MOL0     H87564   8.262   6.973   7.844  0.6224  2.4233 -0.9007
  649MOL0     H87565   8.358   6.988   7.997 -0.2618  0.8415  1.2747
  649MOL0     H87566   8.171   7.288   8.043 -1.0288 -0.3933 -1.5274
  649MOL0     H87567   8.238   7.563   7.809  2.1750 -0.4165 -1.4383
  649MOL0     H87568   8.203   7.535   7.985  2.2878 -0.4033  1.1684
  649MOL0     H87569   8.493   7.585   7.894 -0.8028 -2.8687 -0.6368
  649MOL0     H87570   8.430   7.546   8.053  1.7422  0.6089  0.5908
  649MOL0     H87571   8.463   7.781   8.057 -0.6372  1.4844  0.1077
  649MOL0     H87572   8.295   7.739   8.077 -0.0467  3.1534 -0.1939
  649MOL0     H87573   8.322   7.931   7.930 -1.3039  0.1881 -2.5659
  649MOL0     H87574   8.293   7.792   7.814 -0.1577  1.3604 -1.6489
  649MOL0     H87575   8.332   8.024   7.726  0.6325  0.6673 -0.0763
  649MOL0     H87576   8.374   8.365   7.699 -1.6976  0.4723 -1.2585
  649MOL0     H87577   8.387   8.308   7.534  0.0822 -0.6560  0.4046
  649MOL0     H87578   8.269   8.239   7.649 -0.2891 -0.8312 -2.0699
  649MOL0     H87579   9.029   8.454   7.747 -1.6100 -1.4535 -0.4951
  649MOL0     H87580   9.151   8.659   7.681 -1.3706  1.3004  2.3986
  649MOL0     H87581   9.108   8.787   7.392  0.1360  1.2750 -2.8714
  649MOL0     H87582   8.963   8.879   7.394 -0.9527 -1.7302  2.6596
  649MOL0     H87583   9.112   9.101   7.420  2.1670 -0.1855  1.1397
  649MOL0     H87584   9.244   9.003   7.413  1.0429  0.4406 -4.1280
  649MOL0     H87585   9.200   9.111   7.184  2.8699 -0.8788  1.9015
  649MOL0     H87586   9.048   9.026   7.177  0.6605 -0.6237 -2.7245
  649MOL0     H87587   9.278   8.841   7.242  0.7953 -0.7127  0.0843
  649MOL0     H87588   9.146   8.828   7.126 -2.7610  1.7813  1.3953
  649MOL0     H87589   9.403   8.853   7.041  0.8203  0.0337 -0.3913
  649MOL0     H87590   9.398   9.022   7.091  1.8203 -0.2520 -2.2833
  649MOL0     H87591   9.236   8.889   6.868 -0.9630 -0.2854  0.8027
  649MOL0     H87592   9.203   9.056   6.923 -3.0828 -1.6794 -0.6008
  649MOL0     H87593   9.485   8.942   6.833  0.7271  0.3620 -2.6094
  649MOL0     H87594   9.439   9.110   6.866 -2.5254  1.2147 -0.3958
  649MOL0     H87595   9.441   9.050   6.618 -0.8811  1.8585 -0.2546
  649MOL0     H87596   9.285   9.086   6.666  0.1866 -0.6656 -0.7579
  649MOL0     H87597   8.795   8.850   7.547  0.3174 -1.1204 -2.4105
  649MOL0     H87598   8.692   8.633   7.540  0.5607  3.3284  0.4974
  649MOL0     H87599   8.813   8.144   7.773  0.2248  2.1579  0.9647
  649MOL0     H87600   8.737   7.928   7.820 -0.3145 -0.9602 -1.0674
  649MOL0     H87601   7.522   7.386   8.118 -1.0728  1.4386  1.8944
  649MOL0     H87602   7.361   7.442   8.311 -2.7794  1.6535 -1.3703
  649MOL0     H87603   6.910   7.391   8.402 -1.8507 -0.0195 -0.9883
  649MOL0     H87604   6.701   7.407   8.509  0.5224 -1.2314 -1.8303
  649MOL0     H87605   6.658   7.106   8.749  0.9725  0.8426 -0.1269
  649MOL0     H87606   6.568   7.154   8.888  0.0822  1.0926  0.3067
  649MOL0     H87607   6.381   7.223   8.741  1.7863  2.5783 -2.1325
  649MOL0     H87608   6.438   7.053   8.707 -1.4903 -0.5338  0.7822
  649MOL0     H87609   6.566   7.143   8.517 -0.1470  0.2847 -1.7307
  649MOL0     H87610   6.476   7.304   8.553 -1.5626  0.2425 -2.4814
  649MOL0     H87611   6.276   7.212   8.524  0.2187 -1.8848  3.5062
  649MOL0     H87612   6.338   7.047   8.485 -0.0212 -0.1857  1.1819
  649MOL0     H87613   6.391   7.243   8.116 -1.3225 -0.2166 -0.2873
  649MOL0     H87614   6.894   7.251   8.876 -1.9573  1.7598  1.6857
  649MOL0     H87615   7.092   7.250   8.760 -0.6136  2.1574  3.0429
  650MOL0     O87616   6.145   3.202  11.159 -0.2887 -0.0440  0.0559
  650MOL0     C87617   6.025   3.224  11.177 -0.3648  0.6138  0.2235
  650MOL0     O87618   5.959   3.210  11.291 -0.1974 -0.0729  0.2327
  650MOL0     C87619   6.016   3.149  11.407  0.3765 -0.8117  1.1173
  650MOL0     C87620   5.936   3.149  11.518  0.0888  0.2098 -0.5965
  650MOL0     C87621   5.971   3.079  11.642  0.0823 -0.8506  0.3678
  650MOL0     C87622   6.088   3.011  11.654  1.7759 -1.6043  0.0191
  650MOL0     O87623   6.115   2.952  11.772 -0.8309  1.0625 -0.3250
  650MOL0     C87624   6.243   2.952  11.821  0.0926  0.4829 -0.4402
  650MOL0     C87625   6.244   2.879  11.959  0.1388  0.9186  0.0357
  650MOL0     C87626   6.383   2.861  12.014 -0.9975  0.6703 -0.6462
  650MOL0     C87627   6.486   2.966  12.023 -0.0651 -0.3409 -0.9417
  650MOL0     C87628   6.614   2.965  12.118  0.6219  0.3173 -0.1229
  650MOL0     C87629   6.580   2.990  12.269 -0.3612  0.4445 -0.0860
  650MOL0     C87630   6.693   2.988  12.376  0.8847  0.0191  0.1026
  650MOL0     C87631   6.810   3.079  12.347 -0.2602 -0.0975  0.1069
  650MOL0     N87632   6.921   3.034  12.440 -0.5823  0.1650 -0.3505
  650MOL0     C87633   7.026   2.942  12.419  0.2262  0.7796  0.2699
  650MOL0     C87634   7.081   2.928  12.542 -0.0580 -1.0640 -0.9768
  650MOL0     C87635   7.194   2.845  12.577  0.1649  0.1694 -0.0289
  650MOL0     C87636   7.129   2.731  12.651  0.0965 -0.2876  0.4868
  650MOL0     C87637   7.222   2.608  12.680  0.1490  0.1428 -0.8470
  650MOL0     C87638   7.353   2.656  12.734  0.9879  0.0180 -0.0019
  650MOL0     O87639   7.339   2.748  12.838 -0.2631  0.5825 -0.1310
  650MOL0     C87640   7.448   2.837  12.843 -0.0772 -0.0579  0.0770
  650MOL0     C87641   7.569   2.784  12.836 -0.7360 -0.6184  0.7205
  650MOL0     C87642   7.686   2.861  12.829  0.4650 -0.4419  0.0996
  650MOL0     C87643   7.811   2.783  12.803  0.7191  0.3135  0.0812
  650MOL0     C87644   7.674   3.002  12.843 -0.4491  0.3247  0.4369
  650MOL0     C87645   7.788   3.085  12.849 -0.8784  1.1646  0.5312
  650MOL0     O87646   7.755   3.222  12.832 -0.2237 -0.1883 -0.0261
  650MOL0     C87647   7.846   3.313  12.866 -0.2299  0.7377 -0.7028
  650MOL0     C87648   7.890   3.368  12.988 -0.4736  0.5308 -0.4377
  650MOL0     C87649   8.001   3.455  12.984  0.2405 -0.3631 -0.5588
  650MOL0     C87650   8.070   3.490  12.871  0.2004  0.5403  0.6936
  650MOL0     O87651   8.174   3.577  12.868 -0.8908 -0.0213 -0.5341
  650MOL0     C87652   8.302   3.535  12.815  0.8441  0.0407 -0.1706
  650MOL0     C87653   8.407   3.637  12.854 -0.5772 -0.0530  0.8075
  650MOL0     C87654   8.379   3.774  12.788  0.0093  0.0743  0.0900
  650MOL0     C87655   8.335   3.785  12.637  0.4880 -0.3397 -0.5125
  650MOL0     C87656   8.333   3.930  12.584 -0.3332 -0.1218  0.7088
  650MOL0     C87657   8.281   3.944  12.441 -0.7682  0.7204 -0.2410
  650MOL0     C87658   8.128   3.987  12.431  0.3252  0.5902  0.1427
  650MOL0     C87659   8.093   4.016  12.284 -0.7633 -0.3013  0.5939
  650MOL0    Cl87660   8.206   4.107  12.172  0.5355 -0.2376  0.2603
  650MOL0     C87661   8.021   3.434  12.756 -0.1059  0.3495  0.7719
  650MOL0     C87662   7.909   3.365  12.749  0.3117  0.7165  0.0150
  650MOL0     O87663   7.903   3.045  12.864  0.3590 -0.4641  0.3380
  650MOL0     C87664   7.545   3.062  12.860  0.4458 -0.0816  1.8220
  650MOL0     C87665   7.430   2.977  12.850 -0.0908  0.0893 -0.3008
  650MOL0     N87666   7.030   3.017  12.630  0.2999 -0.2878  0.0781
  650MOL0     N87667   6.923   3.078  12.572 -0.4131  0.1582  0.3795
  650MOL0     C87668   6.176   3.007  11.538  0.0268 -1.7472 -0.3711
  650MOL0     C87669   6.139   3.071  11.422 -0.0532  0.6733 -0.5627
  650MOL0     C87670   5.945   3.265  11.061 -0.9101  0.1971  0.0302
  650MOL0     C87671   5.799   3.272  11.051 -0.3017 -0.4699 -0.2880
  650MOL0     C87672   5.737   3.331  10.938  0.4706  0.2991  0.1627
  650MOL0     C87673   5.808   3.381  10.832  0.2328 -0.7420 -0.9620
  650MOL0     O87674   5.732   3.423  10.726 -0.1912  0.1129  0.7287
  650MOL0     C87675   5.768   3.556  10.670  0.4625 -0.3225  0.7496
  650MOL0     C87676   5.648   3.653  10.680  0.7466  1.1903 -0.0110
  650MOL0     C87677   5.591   3.676  10.820  1.0786 -0.5755 -0.0153
  650MOL0     C87678   5.657   3.795  10.890  0.0858  0.8397 -0.6984
  650MOL0     C87679   5.613   3.910  10.809  0.2370 -0.1305 -0.3914
  650MOL0     C87680   5.572   3.997  10.738  0.6015 -0.6774  0.0670
  650MOL0     C87681   5.946   3.374  10.834  0.7876 -0.4620  0.3343
  650MOL0     C87682   6.011   3.314  10.942 -0.2328  0.5292  1.5173
  650MOL0     H87683   5.847   3.210  11.507  0.7617  1.2118 -0.6193
  650MOL0     H87684   5.898   3.098  11.721  0.1935  2.4771 -0.1807
  650MOL0     H87685   6.315   2.902  11.755  0.0094  1.3367 -1.2009
  650MOL0     H87686   6.265   3.055  11.850 -1.4536  0.2173  1.9534
  650MOL0     H87687   6.174   2.931  12.026 -1.2615  2.2481 -2.3504
  650MOL0     H87688   6.215   2.775  11.939  3.3195  0.2872 -1.9091
  650MOL0     H87689   6.370   2.812  12.111  2.5698 -1.9947 -1.3264
  650MOL0     H87690   6.432   2.779  11.962  1.6934 -0.2472  2.9258
  650MOL0     H87691   6.526   2.990  11.923  1.0401  1.8925 -0.0551
  650MOL0     H87692   6.430   3.055  12.054  0.1432 -0.9076  1.1961
  650MOL0     H87693   6.662   2.867  12.111 -0.6428 -0.3590  0.4158
  650MOL0     H87694   6.685   3.044  12.091 -0.5064  1.0926 -0.9038
  650MOL0     H87695   6.528   3.083  12.293 -0.9160 -0.4457  2.5344
  650MOL0     H87696   6.509   2.915  12.305 -0.7849  1.3321  0.9880
  650MOL0     H87697   6.658   3.021  12.474  1.9801  2.5256 -0.2675
  650MOL0     H87698   6.737   2.888  12.390 -0.6524 -0.7610 -0.4307
  650MOL0     H87699   6.784   3.186  12.348  0.0804  0.0556 -2.2121
  650MOL0     H87700   6.839   3.042  12.248 -3.2979 -0.3920 -0.7741
  650MOL0     H87701   7.035   2.890  12.324 -3.6761  1.8873 -0.8972
  650MOL0     H87702   7.237   2.810  12.482 -1.0014 -0.8376 -0.2256
  650MOL0     H87703   7.268   2.902  12.634 -0.6470  0.8105  0.4058
  650MOL0     H87704   7.053   2.691  12.583  0.2026 -1.2374  0.9093
  650MOL0     H87705   7.090   2.761  12.748  1.9960 -2.9166  2.2014
  650MOL0     H87706   7.248   2.532  12.606  5.4400  1.7560 -1.0403
  650MOL0     H87707   7.179   2.557  12.767  1.1278  0.3063 -0.2567
  650MOL0     H87708   7.373   2.718  12.646 -1.3074  1.7449  0.5863
  650MOL0     H87709   7.410   2.564  12.750 -0.2587 -2.1596 -5.5778
  650MOL0     H87710   7.570   2.676  12.824 -2.2731 -0.7845  1.7019
  650MOL0     H87711   7.874   2.783  12.892  1.0092 -1.1176 -0.1032
  650MOL0     H87712   7.793   2.679  12.774 -2.0632  1.2003 -1.8147
  650MOL0     H87713   7.866   2.822  12.716 -1.6320 -1.2116 -2.2659
  650MOL0     H87714   7.835   3.346  13.080  1.4460  3.1379  1.5013
  650MOL0     H87715   8.027   3.488  13.083  0.4972 -2.6242  0.1924
  650MOL0     H87716   8.326   3.435  12.850  0.1569 -0.6641 -1.6318
  650MOL0     H87717   8.304   3.517  12.708 -2.3282 -0.7268 -0.1950
  650MOL0     H87718   8.409   3.641  12.963 -1.7651 -0.6645  0.8632
  650MOL0     H87719   8.499   3.598  12.808 -2.1422 -0.5159 -2.1652
  650MOL0     H87720   8.478   3.821  12.779  0.1083 -0.5435 -3.4202
  650MOL0     H87721   8.311   3.840  12.843 -1.2097 -0.6647 -0.4799
  650MOL0     H87722   8.403   3.729  12.572  1.3604 -1.1905  1.0884
  650MOL0     H87723   8.235   3.741  12.632 -0.0672  0.8878 -0.7512
  650MOL0     H87724   8.435   3.970  12.588 -0.2765 -0.2949  1.0720
  650MOL0     H87725   8.269   4.000  12.638  0.7195  2.2016 -0.9098
  650MOL0     H87726   8.334   4.018  12.380  0.4962  0.2625  0.2628
  650MOL0     H87727   8.298   3.846  12.396 -2.5042 -0.2633  1.1179
  650MOL0     H87728   8.101   4.072  12.494 -2.2558 -0.4425  0.5671
  650MOL0     H87729   8.072   3.901  12.470  5.5939 -2.3820  2.2446
  650MOL0     H87730   8.001   4.075  12.282 -0.5449  0.0392 -0.1230
  650MOL0     H87731   8.058   3.932  12.225 -2.1085  2.4747 -2.9337
  650MOL0     H87732   8.068   3.450  12.659  0.7099  3.8149  1.6271
  650MOL0     H87733   7.878   3.315  12.658  0.8410 -0.7208  0.5900
  650MOL0     H87734   7.524   3.169  12.867 -2.0859 -0.2042 -1.2700
  650MOL0     H87735   7.327   3.009  12.855 -0.5119 -0.8228 -2.1636
  650MOL0     H87736   6.266   2.949  11.524  1.7291  0.8476 -0.7577
  650MOL0     H87737   6.202   3.060  11.334  1.6943 -0.2191  0.7538
  650MOL0     H87738   5.746   3.223  11.132 -0.6879  2.3467  1.2824
  650MOL0     H87739   5.630   3.318  10.925  0.5614  0.4855 -0.8386
  650MOL0     H87740   5.859   3.599  10.713 -0.2245  2.4389 -0.3404
  650MOL0     H87741   5.769   3.535  10.563 -1.5368  1.9309  0.1875
  650MOL0     H87742   5.566   3.599  10.632 -0.8430  2.6731  0.9223
  650MOL0     H87743   5.671   3.746  10.627  0.8435  1.1804  0.0148
  650MOL0     H87744   5.606   3.590  10.885 -1.0172  0.9560  2.7382
  650MOL0     H87745   5.485   3.697  10.799  0.0338 -2.4395  2.8568
  650MOL0     H87746   5.765   3.782  10.883  0.0758 -0.0214  0.4541
  650MOL0     H87747   5.636   3.795  10.998  3.2772 -1.1512  0.0578
  650MOL0     H87748   5.525   4.078  10.686  1.0293  1.6909  3.0753
  650MOL0     H87749   5.998   3.414  10.747  2.1664  0.5927  1.5888
  650MOL0     H87750   6.118   3.315  10.928 -0.2425  3.5415  1.0007
  651MOL0     O87751   2.540   1.771   9.279  0.6060 -0.3575  0.1110
  651MOL0     C87752   2.543   1.663   9.215  0.3182  0.0337  0.9078
  651MOL0     O87753   2.502   1.546   9.268 -0.2316 -0.1160 -0.0689
  651MOL0     C87754   2.438   1.536   9.387  0.4739 -0.3648 -0.3253
  651MOL0     C87755   2.402   1.400   9.421 -0.1444  0.8976  0.1601
  651MOL0     C87756   2.329   1.369   9.538 -0.5166  0.1122  0.7035
  651MOL0     C87757   2.280   1.474   9.620  0.9379 -0.2521  0.8099
  651MOL0     O87758   2.218   1.440   9.739  0.0660  0.8290  0.7378
  651MOL0     C87759   2.106   1.513   9.789  0.4423 -0.8035  0.2635
  651MOL0     C87760   1.992   1.501   9.681 -0.5317 -0.4475  0.0249
  651MOL0     C87761   1.931   1.362   9.664 -0.3838  0.6124  0.0451
  651MOL0     C87762   1.856   1.348   9.524  0.2141 -0.3923 -0.1552
  651MOL0     C87763   1.794   1.209   9.536  0.3153 -0.3418  0.0903
  651MOL0     C87764   1.748   1.159   9.405  0.5319  0.1527  1.2884
  651MOL0     C87765   1.855   1.133   9.299 -0.6633  0.7005  0.3466
  651MOL0     C87766   1.790   1.097   9.164 -0.3623  0.1085  1.2428
  651MOL0     N87767   1.778   1.223   9.089  0.2860 -0.4672  0.0195
  651MOL0     C87768   1.661   1.278   9.043  0.2113 -0.2058 -0.8372
  651MOL0     C87769   1.701   1.384   8.974 -0.6478 -0.1237  0.0363
  651MOL0     C87770   1.604   1.479   8.908  0.6329 -0.3492  0.4836
  651MOL0     C87771   1.675   1.519   8.775 -0.4363 -0.2905 -0.2218
  651MOL0     C87772   1.587   1.587   8.679  0.7951 -0.0730  0.3431
  651MOL0     C87773   1.572   1.735   8.703 -0.3715  0.0351 -0.1540
  651MOL0     O87774   1.496   1.761   8.827  0.1310  0.6427  0.4321
  651MOL0     C87775   1.447   1.888   8.835  0.1108 -0.4013 -0.7854
  651MOL0     C87776   1.339   1.934   8.765  0.1467 -0.6225 -1.0048
  651MOL0     C87777   1.288   2.068   8.783  0.0792  0.4089 -0.1317
  651MOL0     C87778   1.148   2.099   8.727  0.0271 -0.2205 -0.2626
  651MOL0     C87779   1.356   2.157   8.876  0.7227  0.6089  0.5640
  651MOL0     C87780   1.311   2.290   8.918 -0.3092  1.4662  0.0342
  651MOL0     O87781   1.336   2.328   9.040 -0.3917  0.6760 -0.0205
  651MOL0     C87782   1.288   2.444   9.097 -0.2399 -0.1939 -0.0758
  651MOL0     C87783   1.380   2.523   9.165 -0.5262  0.4786 -0.3590
  651MOL0     C87784   1.346   2.649   9.221 -0.5303  0.7614  0.2050
  651MOL0     C87785   1.205   2.686   9.226  0.0713 -0.3074 -0.2966
  651MOL0     O87786   1.185   2.810   9.277  0.3418  0.1670 -0.4496
  651MOL0     C87787   1.065   2.830   9.344  0.6162 -0.3779 -0.6805
  651MOL0     C87788   1.081   2.919   9.462  0.2846  0.2519  0.2454
  651MOL0     C87789   1.145   3.060   9.430  0.4098 -0.1021  0.1591
  651MOL0     C87790   1.283   3.061   9.485  0.3108 -0.2146  0.6741
  651MOL0     C87791   1.343   3.193   9.424 -0.7401 -0.5559  0.8034
  651MOL0     C87792   1.469   3.249   9.500 -0.8756 -1.2089  0.4485
  651MOL0     C87793   1.522   3.361   9.417 -0.3226  0.0474  0.4211
  651MOL0     C87794   1.643   3.425   9.489 -0.3809  0.5741  0.6842
  651MOL0    Cl87795   1.802   3.384   9.413 -0.0480  0.2748 -0.1289
  651MOL0     C87796   1.118   2.618   9.151 -0.4723  1.3349  0.1015
  651MOL0     C87797   1.154   2.501   9.085  0.7005 -0.7256  0.8541
  651MOL0     O87798   1.272   2.358   8.829  0.2850 -0.3397 -0.1850
  651MOL0     C87799   1.471   2.105   8.941  0.5791 -0.4197 -0.2740
  651MOL0     C87800   1.515   1.980   8.916  0.8784 -0.2995 -0.9810
  651MOL0     N87801   1.837   1.384   8.964 -0.2577  0.7177  0.5271
  651MOL0     N87802   1.893   1.281   9.020  0.0282  0.6424 -0.4284
  651MOL0     C87803   2.293   1.609   9.579 -0.8633 -0.1745 -0.2859
  651MOL0     C87804   2.371   1.638   9.459  0.4696  0.0052  0.7537
  651MOL0     C87805   2.591   1.659   9.070  0.3113 -0.5391  0.9635
  651MOL0     C87806   2.663   1.766   9.016 -0.1991  0.3157  0.2996
  651MOL0     C87807   2.709   1.771   8.886  0.5159  0.4478 -0.4959
  651MOL0     C87808   2.675   1.664   8.795 -0.0956  0.4492 -0.5128
  651MOL0     O87809   2.726   1.670   8.666  0.6315  0.1319  0.3772
  651MOL0     C87810   2.694   1.560   8.566 -0.2611 -0.5706 -0.0452
  651MOL0     C87811   2.780   1.430   8.579  0.1395 -0.2286  0.2931
  651MOL0     C87812   2.726   1.335   8.464 -0.2919  0.8588  0.0591
  651MOL0     C87813   2.808   1.209   8.466 -0.5582  0.3907  0.5623
  651MOL0     C87814   2.760   1.113   8.365  0.1838 -0.5754  0.0700
  651MOL0     C87815   2.715   1.037   8.279  0.1517 -0.6349 -0.5463
  651MOL0     C87816   2.607   1.552   8.851 -0.6395  0.0892 -0.4866
  651MOL0     C87817   2.566   1.550   8.981 -0.2688  0.5985 -0.2491
  651MOL0     H87818   2.436   1.325   9.351 -1.9488 -1.0657  1.2602
  651MOL0     H87819   2.316   1.265   9.567 -1.6078 -0.4918 -1.7022
  651MOL0     H87820   2.066   1.478   9.885 -3.4971 -3.1784 -1.9767
  651MOL0     H87821   2.118   1.621   9.803 -1.2107 -0.0241 -3.3035
  651MOL0     H87822   1.902   1.560   9.701 -0.8466 -0.8944 -0.0600
  651MOL0     H87823   2.026   1.534   9.582 -3.1184  0.4288 -0.6396
  651MOL0     H87824   2.014   1.291   9.670 -1.7648 -1.0839  0.2442
  651MOL0     H87825   1.871   1.317   9.744  2.0297  0.6553  1.9852
  651MOL0     H87826   1.781   1.428   9.514 -1.5844 -1.8161  1.3047
  651MOL0     H87827   1.931   1.355   9.444  2.6449 -0.8554  1.9624
  651MOL0     H87828   1.878   1.142   9.561  0.8046 -0.3273 -1.4327
  651MOL0     H87829   1.714   1.203   9.610  2.4985 -1.4711  2.5338
  651MOL0     H87830   1.687   1.070   9.420 -1.3157  1.4639  1.9873
  651MOL0     H87831   1.676   1.233   9.370 -0.0747 -0.8653  0.3229
  651MOL0     H87832   1.926   1.214   9.279  3.5022 -1.9081  3.1499
  651MOL0     H87833   1.911   1.052   9.346 -1.0234  0.1819 -0.1186
  651MOL0     H87834   1.696   1.044   9.182 -0.3552 -0.6002 -0.6020
  651MOL0     H87835   1.842   1.025   9.099 -0.8771  1.6620 -1.0119
  651MOL0     H87836   1.564   1.235   9.064  1.0690 -1.1364  1.4838
  651MOL0     H87837   1.510   1.429   8.884  1.2757 -0.6709 -1.6209
  651MOL0     H87838   1.575   1.563   8.971 -1.3314 -0.9155  0.3875
  651MOL0     H87839   1.698   1.423   8.728  0.3840 -0.6562  0.8946
  651MOL0     H87840   1.765   1.575   8.799 -0.5123  0.6785 -2.0149
  651MOL0     H87841   1.490   1.538   8.683  0.4196  0.7058  1.5847
  651MOL0     H87842   1.634   1.584   8.580 -1.4522  0.7171 -0.8184
  651MOL0     H87843   1.535   1.763   8.605 -1.5278  2.1348  0.8122
  651MOL0     H87844   1.672   1.779   8.713  1.1930 -3.1506 -0.5301
  651MOL0     H87845   1.273   1.862   8.716 -1.6852 -0.9281  1.6932
  651MOL0     H87846   1.096   2.009   8.693  0.2862 -0.8516  0.9549
  651MOL0     H87847   1.095   2.143   8.812  0.7923  3.9669 -1.7249
  651MOL0     H87848   1.169   2.178   8.655  0.0959  1.6914  1.7563
  651MOL0     H87849   1.480   2.481   9.173 -1.3562 -1.5813 -0.2064
  651MOL0     H87850   1.428   2.707   9.264  1.0830 -1.5122  0.3272
  651MOL0     H87851   1.005   2.888   9.272 -1.0568  0.5334  1.3329
  651MOL0     H87852   1.008   2.741   9.371 -2.2524  0.3354 -3.6696
  651MOL0     H87853   0.987   2.941   9.514  0.7815 -0.1242  1.3263
  651MOL0     H87854   1.149   2.871   9.533  1.4079  2.0769  0.4862
  651MOL0     H87855   1.076   3.137   9.466 -1.2273 -2.1475  1.6494
  651MOL0     H87856   1.152   3.077   9.322 -1.9258  0.2736  0.0164
  651MOL0     H87857   1.266   3.067   9.593 -0.4221 -3.7690  0.8720
  651MOL0     H87858   1.348   2.977   9.459 -0.0706 -1.4163  3.3449
  651MOL0     H87859   1.265   3.270   9.424  1.6070  1.9750  0.2022
  651MOL0     H87860   1.371   3.177   9.320 -3.2512  4.7964 -1.0438
  651MOL0     H87861   1.449   3.261   9.607 -1.5374 -0.1499  0.2307
  651MOL0     H87862   1.543   3.170   9.487  1.5861  0.6967  2.1159
  651MOL0     H87863   1.443   3.436   9.426  0.1401  0.2417  4.0736
  651MOL0     H87864   1.539   3.341   9.310 -0.1883  0.1617  0.4216
  651MOL0     H87865   1.635   3.400   9.595  2.1621 -2.1715  0.3569
  651MOL0     H87866   1.628   3.533   9.497 -3.2020  0.2347  0.7062
  651MOL0     H87867   1.016   2.647   9.128 -0.4315  1.0505 -0.4453
  651MOL0     H87868   1.086   2.448   9.019  0.1061  2.0393 -0.8881
  651MOL0     H87869   1.528   2.169   9.008  2.1298  0.7775 -2.6218
  651MOL0     H87870   1.611   1.952   8.959  0.2463 -2.3943 -0.8045
  651MOL0     H87871   2.263   1.691   9.645  1.6386 -2.3841  4.0335
  651MOL0     H87872   2.353   1.736   9.417 -0.5117 -0.6435 -0.4155
  651MOL0     H87873   2.689   1.846   9.084  1.1270  0.5480 -0.4529
  651MOL0     H87874   2.776   1.848   8.849 -0.1819  2.9132  2.8430
  651MOL0     H87875   2.587   1.538   8.567  0.2150 -3.2353  1.8368
  651MOL0     H87876   2.730   1.613   8.477  2.7818  1.9693  2.4317
  651MOL0     H87877   2.767   1.388   8.679  1.8586 -0.5305  0.4189
  651MOL0     H87878   2.887   1.449   8.566  0.4585 -2.3594 -0.6066
  651MOL0     H87879   2.762   1.376   8.369  0.5336 -0.1679 -0.1028
  651MOL0     H87880   2.619   1.313   8.470 -0.3720  0.2188 -2.3839
  651MOL0     H87881   2.809   1.150   8.558  0.7936  0.8525  0.8662
  651MOL0     H87882   2.913   1.228   8.443 -0.6261  1.1889  0.8766
  651MOL0     H87883   2.677   0.970   8.206 -0.6506  2.6121 -3.3726
  651MOL0     H87884   2.610   1.456   8.801  3.1954 -0.6974  0.8921
  651MOL0     H87885   2.525   1.454   9.011 -0.7806  0.4383 -1.4007
  652MOL0     O87886   0.649   4.947  10.481 -0.2307  0.2231 -0.6410
  652MOL0     C87887   0.602   4.867  10.567  0.7743  0.4702 -0.3299
  652MOL0     O87888   0.490   4.788  10.551  0.1595  0.1431 -0.6908
  652MOL0     C87889   0.455   4.745  10.422  0.2637  0.1699 -0.7553
  652MOL0     C87890   0.538   4.698  10.315  0.2548 -1.5732  0.0226
  652MOL0     C87891   0.490   4.661  10.187 -0.2895  0.0408  0.1411
  652MOL0     C87892   0.353   4.674  10.162  0.3888 -0.2794  0.3217
  652MOL0     O87893   0.308   4.639  10.037  0.1143 -0.3299 -0.2313
  652MOL0     C87894   0.361   4.510   9.985  0.6152  0.4727 -0.1125
  652MOL0     C87895   0.258   4.442   9.880 -0.1696  0.9591 -1.0160
  652MOL0     C87896   0.264   4.522   9.753  0.2816  0.2542  0.6744
  652MOL0     C87897   0.191   4.452   9.649 -0.2035 -0.7533  0.9854
  652MOL0     C87898   0.200   4.522   9.510 -0.4839  0.0588 -0.5858
  652MOL0     C87899   0.327   4.493   9.439 -0.5477  0.0971  0.6136
  652MOL0     C87900   0.356   4.595   9.323  0.9288  1.0674 -0.1658
  652MOL0     C87901   0.494   4.589   9.265 -0.0037 -0.1099  0.4007
  652MOL0     N87902   0.545   4.472   9.191  1.5190  0.4589  0.0290
  652MOL0     C87903   0.538   4.428   9.058  0.5724 -0.2493 -0.4481
  652MOL0     C87904   0.584   4.299   9.063  0.8359  0.6775  0.6076
  652MOL0     C87905   0.574   4.188   8.951  0.1304 -0.4401 -0.3061
  652MOL0     C87906   0.607   4.230   8.810 -0.5121  0.4291  0.5025
  652MOL0     C87907   0.762   4.250   8.787 -0.0676  0.5416 -0.3527
  652MOL0     C87908   0.786   4.368   8.680 -0.5486  0.5905  0.6019
  652MOL0     O87909   0.708   4.321   8.568 -0.0165 -0.9231 -0.2929
  652MOL0     C87910   0.677   4.419   8.473  0.5960  0.0875 -0.3909
  652MOL0     C87911   0.692   4.560   8.482  0.3953 -0.8096 -0.4627
  652MOL0     C87912   0.659   4.645   8.372  1.4176  0.1426 -0.7784
  652MOL0     C87913   0.722   4.783   8.374  0.4013  0.6111 -0.8032
  652MOL0     C87914   0.586   4.593   8.260  0.4957  0.3838 -0.4156
  652MOL0     C87915   0.534   4.672   8.146  0.1407  0.6048  0.0461
  652MOL0     O87916   0.524   4.811   8.161 -0.4264 -0.7065 -0.0590
  652MOL0     C87917   0.521   4.890   8.055 -0.2476 -0.1848 -0.5215
  652MOL0     C87918   0.604   4.999   8.052  0.2839 -0.4398 -0.0580
  652MOL0     C87919   0.611   5.086   7.945 -0.0121 -0.2657  0.2078
  652MOL0     C87920   0.538   5.062   7.827  0.1615  0.2248 -0.4483
  652MOL0     O87921   0.554   5.145   7.715 -0.3608  0.2774 -0.3841
  652MOL0     C87922   0.438   5.149   7.627 -0.0300  0.5306 -0.2219
  652MOL0     C87923   0.485   5.260   7.531 -0.1258 -0.6349 -0.2379
  652MOL0     C87924   0.573   5.182   7.431  0.0700 -0.2696  0.4498
  652MOL0     C87925   0.678   5.282   7.394  0.4879 -0.5583  0.7071
  652MOL0     C87926   0.773   5.231   7.284  0.4699 -0.5052 -0.4878
  652MOL0     C87927   0.884   5.329   7.252  0.5770 -1.3862  0.1603
  652MOL0     C87928   0.826   5.458   7.189  1.0488 -0.6560 -0.8044
  652MOL0     C87929   0.904   5.511   7.071 -0.4366  0.6237 -0.4441
  652MOL0    Cl87930   0.862   5.673   7.022 -0.2866  0.3153  0.2633
  652MOL0     C87931   0.443   4.954   7.836  0.7606  0.1492 -0.1283
  652MOL0     C87932   0.430   4.870   7.952 -0.5355  0.2994  0.1512
  652MOL0     O87933   0.488   4.598   8.053  0.1304 -0.2645  0.1910
  652MOL0     C87934   0.560   4.454   8.262  0.4724  0.0986 -0.2806
  652MOL0     C87935   0.603   4.373   8.366  0.2138  0.0803 -0.6527
  652MOL0     N87936   0.628   4.271   9.192  0.2157  0.4378  0.5629
  652MOL0     N87937   0.592   4.369   9.261  0.3271  0.0062 -0.7141
  652MOL0     C87938   0.261   4.712  10.262 -0.2056 -0.5965  0.4338
  652MOL0     C87939   0.316   4.746  10.390  0.4578 -0.4449 -0.2500
  652MOL0     C87940   0.671   4.852  10.686  0.0936 -0.0485  0.2996
  652MOL0     C87941   0.634   4.752  10.784 -0.1633 -0.3338  0.0240
  652MOL0     C87942   0.691   4.752  10.905  0.2738  0.1418  0.3850
  652MOL0     C87943   0.789   4.843  10.943  0.4329  1.7524 -0.6234
  652MOL0     O87944   0.838   4.827  11.070  0.6714 -0.8445 -0.1658
  652MOL0     C87945   0.951   4.906  11.100 -0.4118 -0.5116  0.5055
  652MOL0     C87946   1.013   4.856  11.229 -0.8585  0.5857 -1.1927
  652MOL0     C87947   0.936   4.883  11.354  0.0408  0.0731  0.6833
  652MOL0     C87948   0.908   5.042  11.359 -1.1527  0.2252  0.2525
  652MOL0     C87949   0.842   5.078  11.486 -0.5094 -0.5623 -0.1724
  652MOL0     C87950   0.798   5.124  11.590  1.1890 -0.6542  1.0490
  652MOL0     C87951   0.823   4.946  10.855 -0.6008 -0.1368 -0.7185
  652MOL0     C87952   0.768   4.949  10.725  0.7137 -0.5728  0.1715
  652MOL0     H87953   0.645   4.693  10.333  0.2923  0.5173  0.6460
  652MOL0     H87954   0.560   4.632  10.109  1.9662  2.3026  1.1720
  652MOL0     H87955   0.462   4.513   9.944  1.2431  0.7372  1.3843
  652MOL0     H87956   0.372   4.449  10.075  3.1901  0.5734 -0.2896
  652MOL0     H87957   0.302   4.344   9.861  0.7088  1.0040  0.5648
  652MOL0     H87958   0.156   4.435   9.918 -0.0903 -0.5923 -1.0080
  652MOL0     H87959   0.215   4.618   9.773 -0.5441 -0.2308  1.0047
  652MOL0     H87960   0.364   4.542   9.713 -0.7971  4.4796 -0.4770
  652MOL0     H87961   0.230   4.351   9.629 -0.0869 -0.2626 -1.6314
  652MOL0     H87962   0.088   4.456   9.685  0.4874  2.3810  2.9975
  652MOL0     H87963   0.126   4.483   9.440 -1.0891  1.2537 -0.6424
  652MOL0     H87964   0.192   4.630   9.523  0.1526  0.0695 -0.2583
  652MOL0     H87965   0.413   4.494   9.507 -0.5532 -1.2499  0.6720
  652MOL0     H87966   0.321   4.400   9.381 -1.2164  0.3219  0.3131
  652MOL0     H87967   0.278   4.588   9.247  1.0158  0.0271 -0.1665
  652MOL0     H87968   0.351   4.697   9.362 -1.7637  1.0645 -0.2974
  652MOL0     H87969   0.554   4.615   9.352 -0.9756  2.9843  0.2818
  652MOL0     H87970   0.500   4.665   9.186  0.8530 -1.3740 -0.8032
  652MOL0     H87971   0.501   4.484   8.974 -1.9412 -1.4586 -0.2410
  652MOL0     H87972   0.635   4.102   8.980 -0.1069 -1.5674 -2.8533
  652MOL0     H87973   0.471   4.150   8.952 -0.9896  2.3645 -0.6349
  652MOL0     H87974   0.566   4.325   8.776  1.9364  1.7634  1.0449
  652MOL0     H87975   0.576   4.151   8.741  0.8180 -0.5605  0.9842
  652MOL0     H87976   0.805   4.154   8.757 -1.2354  0.3372 -1.4473
  652MOL0     H87977   0.813   4.275   8.881  0.9750  0.5236 -0.8965
  652MOL0     H87978   0.885   4.391   8.639  1.0645 -2.2224  2.5568
  652MOL0     H87979   0.742   4.457   8.727 -2.5813 -0.0192 -0.0261
  652MOL0     H87980   0.752   4.607   8.559  0.2473 -1.1637 -0.1265
  652MOL0     H87981   0.742   4.812   8.271 -0.2001 -1.6212 -1.6164
  652MOL0     H87982   0.649   4.860   8.400  0.3713  0.6666 -1.0515
  652MOL0     H87983   0.817   4.795   8.428  0.7096  0.7581 -1.3719
  652MOL0     H87984   0.671   5.027   8.132 -1.5605  2.4118  0.6176
  652MOL0     H87985   0.694   5.156   7.937  0.4653 -1.0497 -2.6173
  652MOL0     H87986   0.421   5.052   7.579  0.7381 -0.1636  0.8722
  652MOL0     H87987   0.348   5.180   7.682 -1.3477  0.4040 -2.1966
  652MOL0     H87988   0.394   5.305   7.491 -2.1832 -3.0709  1.3406
  652MOL0     H87989   0.544   5.330   7.591  0.2827  0.4468 -1.8350
  652MOL0     H87990   0.516   5.161   7.340  1.8363  1.8932 -1.2698
  652MOL0     H87991   0.618   5.090   7.468  0.7453  0.6213  1.9020
  652MOL0     H87992   0.620   5.369   7.363 -0.6836 -1.8147 -0.7719
  652MOL0     H87993   0.736   5.309   7.484 -0.5915 -0.3856  1.3707
  652MOL0     H87994   0.733   5.213   7.183 -1.2287 -1.7896  0.3573
  652MOL0     H87995   0.809   5.134   7.319 -2.0546 -1.1594  0.5190
  652MOL0     H87996   0.928   5.359   7.347  0.3686  5.5095 -1.4028
  652MOL0     H87997   0.954   5.283   7.182 -0.3983 -1.9223 -0.5000
  652MOL0     H87998   0.821   5.535   7.267 -1.8315 -2.4945  1.0147
  652MOL0     H87999   0.721   5.450   7.161  0.4660  3.1557 -0.2225
  652MOL0     H88000   0.890   5.440   6.990 -1.2439 -1.3521  1.3401
  652MOL0     H88001   1.008   5.507   7.105 -0.1860 -0.3156 -1.2886
  652MOL0     H88002   0.383   4.937   7.747  0.9875 -2.4600  0.1422
  652MOL0     H88003   0.355   4.793   7.970 -2.0283  1.8295  0.8069
  652MOL0     H88004   0.493   4.411   8.189  0.0736  1.7165 -0.8980
  652MOL0     H88005   0.568   4.271   8.370  0.6014 -0.0178  1.7643
  652MOL0     H88006   0.156   4.687  10.256 -0.3543  0.0640  0.2620
  652MOL0     H88007   0.251   4.765  10.476 -0.5828  1.4627 -1.3909
  652MOL0     H88008   0.572   4.667  10.758  2.6128 -2.1008 -1.3871
  652MOL0     H88009   0.659   4.674  10.974 -2.7436  0.5296 -0.4425
  652MOL0     H88010   1.021   4.891  11.017 -0.4286  0.0422  0.3889
  652MOL0     H88011   0.917   5.010  11.095 -0.7049 -0.6592 -2.7435
  652MOL0     H88012   1.119   4.879  11.222 -0.0932 -2.0270  0.4036
  652MOL0     H88013   1.009   4.747  11.220 -1.7434  0.7781 -5.3730
  652MOL0     H88014   0.999   4.857  11.439  1.1460 -3.8610 -1.1025
  652MOL0     H88015   0.846   4.823  11.367  0.9176 -1.4886 -0.0849
  652MOL0     H88016   0.849   5.060  11.269  0.6240 -2.0235 -1.5254
  652MOL0     H88017   1.007   5.089  11.348  0.3449 -1.7095  3.6628
  652MOL0     H88018   0.766   5.185  11.672  0.5680  1.5651 -0.7275
  652MOL0     H88019   0.896   5.020  10.885  1.7175 -2.1027 -1.2248
  652MOL0     H88020   0.793   5.033  10.661  0.6839 -2.5013 -2.5417
  653MOL0     O88021  10.045   1.672   4.283 -0.3093 -0.0561 -0.2700
  653MOL0     C88022  10.114   1.773   4.261 -0.5121 -0.4243 -0.4873
  653MOL0     O88023  10.074   1.889   4.195 -0.0200 -0.0436  0.3804
  653MOL0     C88024   9.958   1.873   4.120 -1.0696 -0.3104 -1.1674
  653MOL0     C88025   9.844   1.870   4.197 -1.2622 -0.2295 -0.6884
  653MOL0     C88026   9.724   1.868   4.133  1.2542 -0.7664  0.3366
  653MOL0     C88027   9.708   1.854   3.996 -0.9709  1.0732 -0.0286
  653MOL0     O88028   9.582   1.848   3.931  0.1408  0.3146  0.7684
  653MOL0     C88029   9.489   1.746   3.968  0.5956  0.5072  0.1883
  653MOL0     C88030   9.368   1.758   3.868  0.1737 -0.1550 -0.4507
  653MOL0     C88031   9.420   1.714   3.733  0.3714  0.0120 -0.2449
  653MOL0     C88032   9.309   1.746   3.632  0.7329  0.4250  0.0725
  653MOL0     C88033   9.368   1.727   3.496  1.5784  0.2786 -0.3126
  653MOL0     C88034   9.285   1.808   3.391 -0.6639  0.7755 -0.5372
  653MOL0     C88035   9.144   1.756   3.373  1.1107 -1.0783  0.0088
  653MOL0     C88036   9.070   1.857   3.282  1.0777  0.6885 -0.3820
  653MOL0     N88037   8.939   1.806   3.241 -0.6194  0.2156  0.4642
  653MOL0     C88038   8.825   1.785   3.317  1.9833 -0.8597 -0.0274
  653MOL0     C88039   8.727   1.759   3.225 -0.9369  0.5929 -0.5015
  653MOL0     C88040   8.581   1.735   3.247 -0.4806 -0.4415 -0.1775
  653MOL0     C88041   8.532   1.592   3.202 -0.2056 -0.6728 -0.1252
  653MOL0     C88042   8.641   1.487   3.216 -0.0341 -0.5537 -0.9382
  653MOL0     C88043   8.591   1.355   3.167 -0.5031 -0.1698 -0.2446
  653MOL0     O88044   8.698   1.256   3.191  0.2289  0.0069  0.5822
  653MOL0     C88045   8.734   1.214   3.312 -0.5177  0.1198 -0.1922
  653MOL0     C88046   8.849   1.129   3.304 -0.4045  0.4719  0.3659
  653MOL0     C88047   8.899   1.085   3.427  0.6904 -0.2358  0.0321
  653MOL0     C88048   9.020   0.998   3.431 -0.8595 -0.7402  0.4085
  653MOL0     C88049   8.852   1.119   3.549  0.1178  0.2366 -0.6604
  653MOL0     C88050   8.889   1.069   3.682 -0.4827 -0.2338  0.2206
  653MOL0     O88051   8.792   0.998   3.740 -0.7424 -0.2380 -0.8383
  653MOL0     C88052   8.805   0.966   3.880 -0.9268 -0.2266  0.3951
  653MOL0     C88053   8.712   1.010   3.980  0.4395  0.1889 -0.0549
  653MOL0     C88054   8.708   0.964   4.115 -0.5319  0.0556 -1.1613
  653MOL0     C88055   8.799   0.857   4.153  0.3395 -0.2140 -0.0456
  653MOL0     O88056   8.778   0.789   4.275 -0.1714 -0.4747  0.1023
  653MOL0     C88057   8.843   0.669   4.325  0.5423 -0.0658  0.5729
  653MOL0     C88058   8.980   0.677   4.386 -1.0972  0.2725 -0.4133
  653MOL0     C88059   9.001   0.579   4.504 -0.3273  0.0280 -0.4005
  653MOL0     C88060   9.150   0.572   4.562  0.5908 -0.1497  0.3992
  653MOL0     C88061   9.170   0.686   4.667  0.4377 -0.4588 -0.6076
  653MOL0     C88062   9.323   0.691   4.697  0.2682 -0.2447 -0.5384
  653MOL0     C88063   9.362   0.760   4.825  0.9345 -0.0148 -0.1268
  653MOL0     C88064   9.494   0.724   4.881 -0.1984  0.9560  0.5430
  653MOL0    Cl88065   9.565   0.843   5.004  1.0701  0.1688 -0.3404
  653MOL0     C88066   8.884   0.823   4.052 -0.0359  0.8181 -0.3933
  653MOL0     C88067   8.896   0.871   3.921  0.0226 -0.6616  0.6984
  653MOL0     O88068   9.004   1.094   3.730 -0.0104 -0.0106 -0.0625
  653MOL0     C88069   8.745   1.213   3.554  0.8251 -0.4196 -0.5068
  653MOL0     C88070   8.681   1.247   3.437 -0.5608  0.3420  0.4063
  653MOL0     N88071   8.801   1.754   3.103  0.3126  0.0219  0.2339
  653MOL0     N88072   8.920   1.777   3.115 -0.2263  0.8581  1.0771
  653MOL0     C88073   9.820   1.859   3.917  0.1870  0.0517 -0.5294
  653MOL0     C88074   9.945   1.879   3.979 -0.7740 -0.6821 -0.1159
  653MOL0     C88075  10.249   1.786   4.323  0.7391 -0.0686  0.0263
  653MOL0     C88076  10.319   1.909   4.334  0.5961  0.4552 -0.1466
  653MOL0     C88077  10.439   1.909   4.407  0.1791 -0.3248  0.5396
  653MOL0     C88078  10.480   1.803   4.474  0.7976  0.8447 -0.3305
  653MOL0     O88079  10.595   1.829   4.540 -0.1049  0.0244  0.1476
  653MOL0     C88080  10.696   1.733   4.568  0.5472  0.1588  0.0063
  653MOL0     C88081  10.820   1.790   4.633  0.0382  1.6248  0.4658
  653MOL0     C88082  10.931   1.686   4.639 -0.5190  1.1588  0.5374
  653MOL0     C88083  11.065   1.757   4.668 -0.2279  0.0249  0.1345
  653MOL0     C88084  11.058   1.818   4.802  0.5953 -0.5362  1.6520
  653MOL0     C88085  11.074   1.871   4.906 -0.3392  0.2289 -0.0027
  653MOL0     C88086  10.426   1.676   4.456 -0.0163 -0.5122 -0.0770
  653MOL0     C88087  10.305   1.668   4.380 -0.0447 -1.0427  0.4788
  653MOL0     H88088   9.853   1.858   4.304  1.2232 -1.9557 -1.0014
  653MOL0     H88089   9.630   1.866   4.188  0.4181  1.0684 -0.9106
  653MOL0     H88090   9.538   1.649   3.974 -0.1787 -0.0683 -1.8028
  653MOL0     H88091   9.460   1.772   4.070  1.8599  0.4332  0.5847
  653MOL0     H88092   9.277   1.711   3.905  0.1027  0.9649  0.8750
  653MOL0     H88093   9.344   1.864   3.856  1.6382  0.0199 -2.4085
  653MOL0     H88094   9.515   1.753   3.697  1.9836 -3.1438  0.2280
  653MOL0     H88095   9.429   1.606   3.749 -3.4473 -0.3492  0.3965
  653MOL0     H88096   9.221   1.683   3.641 -0.8186  2.2991 -1.2527
  653MOL0     H88097   9.278   1.849   3.653 -4.1182 -0.6121 -0.8956
  653MOL0     H88098   9.472   1.761   3.503  1.0043  1.9273  0.3842
  653MOL0     H88099   9.351   1.620   3.478  0.2089  0.3743  0.3276
  653MOL0     H88100   9.276   1.914   3.415 -0.1525  0.8340 -0.5911
  653MOL0     H88101   9.329   1.787   3.293  1.3190 -1.3964  0.7298
  653MOL0     H88102   9.158   1.660   3.322  2.5726 -0.6633 -0.4368
  653MOL0     H88103   9.083   1.743   3.462 -1.9535  1.8996 -1.4126
  653MOL0     H88104   9.132   1.877   3.194 -0.6947 -3.4172 -2.8429
  653MOL0     H88105   9.051   1.955   3.327 -2.2469 -0.6618  1.4768
  653MOL0     H88106   8.828   1.789   3.426 -4.5708 -2.0255  0.6009
  653MOL0     H88107   8.557   1.753   3.352 -1.5990  0.7437 -0.6094
  653MOL0     H88108   8.529   1.809   3.185  0.2330  0.4831  0.2992
  653MOL0     H88109   8.496   1.601   3.099 -1.3773  2.2720  0.4315
  653MOL0     H88110   8.444   1.574   3.265 -0.0127  0.1552  0.3885
  653MOL0     H88111   8.682   1.470   3.316  3.1199 -0.2662 -2.0824
  653MOL0     H88112   8.732   1.520   3.165 -0.2721 -0.2554 -1.1733
  653MOL0     H88113   8.578   1.377   3.061 -1.0024  2.7378  0.3576
  653MOL0     H88114   8.503   1.317   3.221  1.8454 -1.4796  3.0371
  653MOL0     H88115   8.904   1.102   3.215  0.4220  0.3688  0.8969
  653MOL0     H88116   8.993   0.892   3.440  1.7889 -1.6815 -1.4894
  653MOL0     H88117   9.066   1.015   3.333  0.1123  0.2782  1.0291
  653MOL0     H88118   9.102   1.021   3.499 -1.6945  1.9611  0.6119
  653MOL0     H88119   8.637   1.078   3.942  1.2418 -0.2065 -2.5586
  653MOL0     H88120   8.636   1.007   4.183  1.0530  0.1580  0.5262
  653MOL0     H88121   8.771   0.620   4.391  0.0629  0.7501  0.6664
  653MOL0     H88122   8.862   0.599   4.243  0.4372 -2.6967  2.6676
  653MOL0     H88123   9.062   0.668   4.315 -0.8476  3.6038 -0.7046
  653MOL0     H88124   9.000   0.776   4.427 -1.3481  0.3031 -0.3637
  653MOL0     H88125   8.964   0.480   4.477 -0.5235 -0.8672  2.7738
  653MOL0     H88126   8.935   0.616   4.582 -1.2925 -0.4620 -0.9611
  653MOL0     H88127   9.164   0.472   4.604  1.3889 -0.3103 -0.2338
  653MOL0     H88128   9.212   0.599   4.476  1.2044  0.7871  1.1292
  653MOL0     H88129   9.114   0.653   4.755  0.2045  1.7817  0.1523
  653MOL0     H88130   9.137   0.783   4.629 -0.9196  0.0716  1.7896
  653MOL0     H88131   9.358   0.587   4.699 -1.5061 -0.9101  2.3270
  653MOL0     H88132   9.369   0.746   4.614  1.7893  1.7017  1.4871
  653MOL0     H88133   9.277   0.753   4.893  0.8190 -1.9899 -0.4083
  653MOL0     H88134   9.364   0.867   4.805  1.4464 -0.0020 -0.0302
  653MOL0     H88135   9.566   0.722   4.799  0.6094 -0.5269  1.2572
  653MOL0     H88136   9.497   0.623   4.923  1.4752  1.0872  0.7962
  653MOL0     H88137   8.935   0.731   4.080  0.2429  1.9464  3.4709
  653MOL0     H88138   8.974   0.838   3.854  0.7676 -1.4247  1.9089
  653MOL0     H88139   8.690   1.244   3.642 -0.0074 -2.0032 -0.4411
  653MOL0     H88140   8.599   1.317   3.451  0.9464  1.6142  3.5481
  653MOL0     H88141   9.828   1.864   3.809  5.8076 -2.4611 -0.5807
  653MOL0     H88142  10.041   1.894   3.929 -0.2513  3.5817  1.7415
  653MOL0     H88143  10.274   1.997   4.289 -3.8637 -0.3218  2.1762
  653MOL0     H88144  10.495   2.001   4.419 -0.2097  0.3025 -1.7895
  653MOL0     H88145  10.650   1.654   4.628  1.1855  0.2732  0.6604
  653MOL0     H88146  10.732   1.705   4.469  4.3541 -1.2853  1.5831
  653MOL0     H88147  10.796   1.822   4.735 -0.0218  2.0209  0.3281
  653MOL0     H88148  10.860   1.869   4.569  0.4428 -0.2470 -1.7182
  653MOL0     H88149  10.921   1.632   4.544 -1.4710  0.1336  1.1884
  653MOL0     H88150  10.903   1.617   4.719 -0.5382  0.5177 -0.0157
  653MOL0     H88151  11.087   1.839   4.599 -2.2791  0.6163  0.1277
  653MOL0     H88152  11.146   1.684   4.655  0.7052  1.4821 -3.4103
  653MOL0     H88153  11.084   1.910   5.005  0.0341  3.8047 -1.3248
  653MOL0     H88154  10.460   1.583   4.502 -0.0739 -0.3654  0.2706
  653MOL0     H88155  10.252   1.573   4.376 -1.5875 -0.1829 -2.1198
  654MOL0     O88156  10.004   4.647   9.542 -0.8045  0.2023  0.6699
  654MOL0     C88157  10.061   4.759   9.556 -0.0215  0.6805  0.0766
  654MOL0     O88158  10.148   4.814   9.474  0.4589 -0.5586  0.4545
  654MOL0     C88159  10.232   4.739   9.391 -0.4057  1.1168  0.0786
  654MOL0     C88160  10.293   4.811   9.292 -0.7542 -0.0070  0.9586
  654MOL0     C88161  10.371   4.747   9.194 -1.1503 -0.0301 -0.3723
  654MOL0     C88162  10.388   4.605   9.196  0.8531 -0.1655  0.5577
  654MOL0     O88163  10.459   4.537   9.106 -0.0275  0.4656 -0.7784
  654MOL0     C88164  10.514   4.593   8.987 -0.5692 -0.4295 -0.3406
  654MOL0     C88165  10.644   4.662   9.017 -0.4425  0.4444 -0.0626
  654MOL0     C88166  10.716   4.673   8.881  0.1683 -0.0681  0.8355
  654MOL0     C88167  10.810   4.790   8.867  0.1666 -0.2783 -0.1015
  654MOL0     C88168  10.898   4.806   8.990 -0.6637  0.1321 -0.0432
  654MOL0     C88169  11.000   4.695   8.993  0.3344  0.4443 -0.0341
  654MOL0     C88170  11.122   4.731   9.079  0.5391 -0.1781 -0.1492
  654MOL0     C88171  11.224   4.614   9.090 -0.9913  0.1028 -0.5594
  654MOL0     N88172  11.331   4.647   9.187 -0.3911 -0.1902  0.2782
  654MOL0     C88173  11.314   4.671   9.323  1.6190  0.0849  0.9647
  654MOL0     C88174  11.436   4.718   9.356  0.5511 -1.0507  0.5480
  654MOL0     C88175  11.454   4.788   9.497  0.1339 -0.6771 -0.2928
  654MOL0     C88176  11.563   4.890   9.495  0.0323  1.0131 -0.2434
  654MOL0     C88177  11.522   5.019   9.436  0.4705  0.6353 -0.4947
  654MOL0     C88178  11.431   5.103   9.526  0.9872 -0.3119 -0.6688
  654MOL0     O88179  11.493   5.158   9.642 -0.0511  1.1270 -0.7813
  654MOL0     C88180  11.555   5.281   9.647  0.8484  0.2522 -0.0519
  654MOL0     C88181  11.591   5.335   9.773  0.4861 -0.2877  0.1862
  654MOL0     C88182  11.641   5.467   9.793  0.5534 -0.5192  0.1520
  654MOL0     C88183  11.683   5.508   9.930 -0.1898  0.9573  0.0784
  654MOL0     C88184  11.648   5.549   9.685 -0.8848 -0.3693  0.5971
  654MOL0     C88185  11.719   5.675   9.680 -0.0570  0.4370  0.1176
  654MOL0     O88186  11.768   5.706   9.553 -0.4728  1.0174  0.1157
  654MOL0     C88187  11.839   5.824   9.534  0.5272  0.4811  0.3556
  654MOL0     C88188  11.928   5.876   9.624 -0.3313 -0.9708  0.9389
  654MOL0     C88189  12.013   5.994   9.598  0.2321  0.4814 -0.4099
  654MOL0     C88190  11.994   6.069   9.486 -0.7243 -0.5447  0.8260
  654MOL0     O88191  12.078   6.174   9.447 -0.2766 -0.3478 -0.7569
  654MOL0     C88192  12.218   6.184   9.499  0.0318  0.3151 -0.3792
  654MOL0     C88193  12.222   6.285   9.620  0.4818  0.5808  0.6317
  654MOL0     C88194  12.360   6.292   9.680 -0.2825 -0.4082 -0.0705
  654MOL0     C88195  12.470   6.344   9.579 -0.9982 -0.3538  0.4100
  654MOL0     C88196  12.510   6.486   9.608 -0.7875 -0.5520  1.0687
  654MOL0     C88197  12.397   6.586   9.578 -0.0562  0.0624 -0.0395
  654MOL0     C88198  12.369   6.590   9.425  0.0877  0.0990  0.7428
  654MOL0     C88199  12.301   6.727   9.385 -0.4061 -0.2611  0.5406
  654MOL0    Cl88200  12.419   6.856   9.363  0.3101  0.3316 -0.9270
  654MOL0     C88201  11.896   6.018   9.398 -0.4400 -0.4747  0.5058
  654MOL0     C88202  11.822   5.896   9.416 -0.9031 -0.7972 -0.3519
  654MOL0     O88203  11.719   5.745   9.779 -0.2159 -0.5560 -0.6048
  654MOL0     C88204  11.604   5.504   9.568  1.0250  0.4626  0.2236
  654MOL0     C88205  11.559   5.374   9.548 -0.2849  1.2654 -0.0349
  654MOL0     N88206  11.525   4.707   9.250 -0.4042  0.4727 -0.2668
  654MOL0     N88207  11.460   4.671   9.156 -0.8735 -0.2432 -0.5671
  654MOL0     C88208  10.325   4.529   9.295  0.4055  0.4776 -0.6369
  654MOL0     C88209  10.253   4.597   9.387 -0.2179 -0.7328 -0.1021
  654MOL0     C88210  10.022   4.831   9.681 -0.9034 -0.4776 -0.1918
  654MOL0     C88211   9.965   4.767   9.793 -0.2561  0.4005  0.2750
  654MOL0     C88212   9.947   4.837   9.918 -0.2329  0.1891  0.1382
  654MOL0     C88213   9.959   4.977   9.927 -0.1439  0.3722 -0.7544
  654MOL0     O88214   9.908   5.057  10.030 -0.4978  0.0516  0.4075
  654MOL0     C88215   9.854   4.997  10.147 -0.1341 -0.3632 -0.4723
  654MOL0     C88216   9.828   5.119  10.235  0.4391  0.1328 -0.5991
  654MOL0     C88217   9.695   5.184  10.193  0.1963 -0.4832 -0.3504
  654MOL0     C88218   9.716   5.294  10.090 -0.7102  0.5157  0.4260
  654MOL0     C88219   9.587   5.351  10.052  0.7112  0.2874  0.6756
  654MOL0     C88220   9.478   5.381  10.010  1.2075 -0.1221  0.1467
  654MOL0     C88221  10.014   5.042   9.816 -0.0383 -0.4538 -0.1125
  654MOL0     C88222  10.058   4.970   9.702 -0.4790 -0.1064  0.2168
  654MOL0     H88223  10.279   4.919   9.295 -1.0897 -0.0212  0.1595
  654MOL0     H88224  10.425   4.805   9.120 -1.2776  0.2213 -0.2671
  654MOL0     H88225  10.529   4.506   8.924 -2.9398 -3.5557  3.0244
  654MOL0     H88226  10.447   4.657   8.930  1.7071  0.4276 -2.2038
  654MOL0     H88227  10.617   4.760   9.058 -1.8436 -0.7698  2.1749
  654MOL0     H88228  10.707   4.603   9.084  0.6544 -0.8385 -2.1092
  654MOL0     H88229  10.765   4.578   8.859  1.5959  0.4899  1.4968
  654MOL0     H88230  10.638   4.693   8.807  1.0030 -2.5660 -0.8294
  654MOL0     H88231  10.869   4.780   8.776 -0.6180 -4.0624 -0.3635
  654MOL0     H88232  10.745   4.877   8.858 -0.2903 -0.7535 -1.7460
  654MOL0     H88233  10.955   4.899   8.979  2.5421 -1.9404 -2.7240
  654MOL0     H88234  10.837   4.823   9.079  0.2549  0.0208  0.6269
  654MOL0     H88235  10.960   4.610   9.048 -1.3036  0.6223 -0.8721
  654MOL0     H88236  11.043   4.667   8.896  0.5930 -1.6597  0.6598
  654MOL0     H88237  11.177   4.816   9.037  0.4083  0.6047  1.2150
  654MOL0     H88238  11.094   4.763   9.180  2.3744 -2.5697  1.1957
  654MOL0     H88239  11.269   4.598   8.992  0.3689  1.7650 -0.2479
  654MOL0     H88240  11.168   4.521   9.107 -2.5608  0.7154 -2.0308
  654MOL0     H88241  11.216   4.674   9.370  0.7436  1.9777 -0.8217
  654MOL0     H88242  11.356   4.830   9.521 -1.2238 -1.0302 -4.3985
  654MOL0     H88243  11.465   4.703   9.565 -3.5572 -0.3757  0.9353
  654MOL0     H88244  11.640   4.840   9.435 -0.8254 -3.9813  2.2535
  654MOL0     H88245  11.609   4.903   9.594 -2.3097 -3.4635  1.7151
  654MOL0     H88246  11.473   4.995   9.341  1.7090  1.0090 -1.2474
  654MOL0     H88247  11.613   5.075   9.416 -0.3475  2.6218  0.9899
  654MOL0     H88248  11.349   5.039   9.561 -0.6744  0.9101 -2.1126
  654MOL0     H88249  11.384   5.186   9.473  0.0574 -0.1832  0.3215
  654MOL0     H88250  11.595   5.267   9.857  1.9637  0.4925  0.8027
  654MOL0     H88251  11.621   5.593   9.962 -3.0808 -0.9609 -0.0170
  654MOL0     H88252  11.650   5.435  10.005  0.7537 -1.7400 -1.9586
  654MOL0     H88253  11.787   5.542   9.939  0.9168 -2.2564  0.7956
  654MOL0     H88254  11.947   5.833   9.722  0.2718 -1.4496  0.6121
  654MOL0     H88255  12.087   6.027   9.671 -0.6953  2.7446 -0.4211
  654MOL0     H88256  12.270   6.089   9.509 -0.4386  0.1726  1.0330
  654MOL0     H88257  12.268   6.235   9.417 -0.4349  2.8361  0.7871
  654MOL0     H88258  12.190   6.385   9.588  2.8947  2.1374  2.6638
  654MOL0     H88259  12.155   6.249   9.698  0.6699  2.3696  1.6761
  654MOL0     H88260  12.378   6.185   9.696 -0.1267 -0.4707 -0.6287
  654MOL0     H88261  12.373   6.343   9.776  4.2226  1.2079 -1.2373
  654MOL0     H88262  12.555   6.278   9.596 -1.3632 -0.6974  0.9322
  654MOL0     H88263  12.435   6.328   9.476 -1.7287  1.1637  0.3886
  654MOL0     H88264  12.595   6.515   9.547  0.5833 -1.3241  2.5247
  654MOL0     H88265  12.544   6.479   9.712  2.0103 -4.3682  0.1228
  654MOL0     H88266  12.302   6.564   9.627  0.8387 -3.4335  0.4141
  654MOL0     H88267  12.428   6.684   9.618  2.5016  0.1583 -1.9880
  654MOL0     H88268  12.309   6.501   9.406 -0.1961 -0.1190  2.5108
  654MOL0     H88269  12.455   6.594   9.357 -1.6498 -2.1080 -1.8210
  654MOL0     H88270  12.227   6.760   9.458 -1.7624  0.3681 -1.0606
  654MOL0     H88271  12.257   6.711   9.287  0.6769  0.3779 -0.0812
  654MOL0     H88272  11.887   6.081   9.310  2.5287 -0.7202 -0.0623
  654MOL0     H88273  11.749   5.878   9.337 -1.3675  0.7778 -0.3187
  654MOL0     H88274  11.614   5.556   9.473 -0.3024 -3.3405 -2.2531
  654MOL0     H88275  11.545   5.345   9.444  0.0909 -1.8803  0.6727
  654MOL0     H88276  10.334   4.421   9.303  0.2842  0.2331 -3.0186
  654MOL0     H88277  10.203   4.536   9.462 -2.0561 -0.7338 -1.2635
  654MOL0     H88278   9.934   4.666   9.770  0.3994  0.4018 -0.6955
  654MOL0     H88279   9.910   4.778  10.000  2.9845 -2.0653  0.1695
  654MOL0     H88280   9.768   4.932  10.132 -0.4535 -0.0152 -0.1661
  654MOL0     H88281   9.932   4.934  10.191 -0.5441 -0.8787 -0.4810
  654MOL0     H88282   9.914   5.187  10.236  1.5920 -1.1787  2.7336
  654MOL0     H88283   9.811   5.080  10.335 -0.8594 -1.4895 -1.4083
  654MOL0     H88284   9.654   5.229  10.284  0.8183 -2.5641  1.0407
  654MOL0     H88285   9.633   5.103  10.154  2.6183 -2.4414 -0.3773
  654MOL0     H88286   9.770   5.253  10.005 -2.1822 -3.2073  1.0703
  654MOL0     H88287   9.770   5.377  10.137 -1.7430  1.8981 -0.7037
  654MOL0     H88288   9.379   5.402   9.975 -0.3950 -3.5192  2.1259
  654MOL0     H88289  10.038   5.146   9.838  2.7123 -1.5563  2.9314
  654MOL0     H88290  10.105   5.015   9.615 -0.5628  2.3692  1.3736
  655MOL0     O88291   0.754   7.751   1.215 -0.3441 -0.0913  0.7051
  655MOL0     C88292   0.816   7.782   1.314  1.2900  0.9617 -0.3035
  655MOL0     O88293   0.840   7.910   1.352 -0.4277 -0.3010  0.3797
  655MOL0     C88294   0.791   8.017   1.277  0.2341 -1.0017  0.2888
  655MOL0     C88295   0.871   8.068   1.180 -0.7893 -0.7419 -0.8379
  655MOL0     C88296   0.849   8.196   1.131 -0.5094  0.4968  0.0717
  655MOL0     C88297   0.726   8.267   1.163 -1.2493 -0.6230 -0.8480
  655MOL0     O88298   0.699   8.395   1.118  0.1273 -0.3893  0.9729
  655MOL0     C88299   0.749   8.422   0.987 -0.0456 -0.0380  0.4359
  655MOL0     C88300   0.685   8.550   0.938  0.3007 -0.2280  0.1563
  655MOL0     C88301   0.725   8.673   1.032 -0.7592  0.3478  0.2285
  655MOL0     C88302   0.657   8.804   0.991  0.5861  0.3796  1.0752
  655MOL0     C88303   0.503   8.793   0.977 -0.9577 -0.7023 -0.4958
  655MOL0     C88304   0.441   8.929   0.938  0.2394  0.7101 -0.4635
  655MOL0     C88305   0.520   9.018   0.837 -0.2517 -1.2969 -1.1163
  655MOL0     C88306   0.512   8.971   0.696  0.2668 -0.4824 -1.2039
  655MOL0     N88307   0.569   9.066   0.599  0.3159  1.2876  1.1353
  655MOL0     C88308   0.545   9.195   0.586 -0.6728 -0.2717 -0.2641
  655MOL0     C88309   0.634   9.237   0.496  0.1510  0.0408  0.5583
  655MOL0     C88310   0.668   9.377   0.435 -0.3634  0.4893 -1.0767
  655MOL0     C88311   0.544   9.462   0.451 -0.0860 -0.4039  0.1201
  655MOL0     C88312   0.547   9.608   0.386  0.1234  0.9772  0.4455
  655MOL0     C88313   0.411   9.685   0.407 -0.7232  0.2165  0.1842
  655MOL0     O88314   0.418   9.813   0.340  0.5310 -0.4308 -0.1893
  655MOL0     C88315   0.298   9.866   0.302  0.2636 -0.4801  1.0618
  655MOL0     C88316   0.231   9.961   0.386 -0.3776  0.0161 -0.2289
  655MOL0     C88317   0.109  10.020   0.359  0.2356 -0.0171 -0.7635
  655MOL0     C88318   0.027  10.090   0.463 -0.5054  0.4228 -0.3447
  655MOL0     C88319   0.060  10.000   0.223 -0.4009  0.7926 -0.5563
  655MOL0     C88320  -0.064  10.045   0.170 -0.6059 -0.2798  0.0177
  655MOL0     O88321  -0.167  10.036   0.260 -0.2256 -0.1287 -0.5813
  655MOL0     C88322  -0.287  10.108   0.233 -0.7512  0.1733 -0.5676
  655MOL0     C88323  -0.320  10.224   0.304 -0.7858 -0.2235 -0.1373
  655MOL0     C88324  -0.445  10.286   0.290  0.3543  0.3130 -0.0954
  655MOL0     C88325  -0.541  10.227   0.205 -0.2220 -0.3070 -0.1085
  655MOL0     O88326  -0.663  10.282   0.180 -0.4645 -0.5098  1.1947
  655MOL0     C88327  -0.683  10.413   0.241  0.9786  0.0056 -0.3211
  655MOL0     C88328  -0.808  10.486   0.182  0.6129  0.0800  0.1155
  655MOL0     C88329  -0.814  10.492   0.029  0.4083  0.1931  0.3207
  655MOL0     C88330  -0.725  10.595  -0.044 -0.6276  0.4784  0.1070
  655MOL0     C88331  -0.751  10.584  -0.187  0.2896 -1.0794  0.7864
  655MOL0     C88332  -0.872  10.646  -0.241 -0.4403  0.3287  0.9148
  655MOL0     C88333  -0.861  10.651  -0.396  0.6727  0.9478 -0.0384
  655MOL0     C88334  -1.006  10.677  -0.443  0.8563  0.5502  0.0300
  655MOL0    Cl88335  -1.106  10.519  -0.450 -0.0809 -0.1538  0.0352
  655MOL0     C88336  -0.506  10.107   0.142 -0.8542 -0.9353 -0.3543
  655MOL0     C88337  -0.380  10.047   0.155  0.5579 -0.1832  0.2136
  655MOL0     O88338  -0.072  10.087   0.055 -0.8833 -0.3527  0.3473
  655MOL0     C88339   0.131   9.915   0.134 -0.3005  1.1397  0.0946
  655MOL0     C88340   0.245   9.843   0.178  0.6880  0.8999  0.0576
  655MOL0     N88341   0.705   9.128   0.450 -1.0197 -1.2690  0.1802
  655MOL0     N88342   0.670   9.025   0.510 -0.7920  0.5341 -0.4444
  655MOL0     C88343   0.630   8.200   1.243  0.1156  0.4121  0.4273
  655MOL0     C88344   0.660   8.080   1.300 -0.4148  0.6679  0.1503
  655MOL0     C88345   0.867   7.667   1.389  0.4639 -0.4850 -0.7248
  655MOL0     C88346   0.851   7.660   1.525 -0.2737  0.5456 -0.7652
  655MOL0     C88347   0.900   7.543   1.591 -0.1260 -0.8032  0.5730
  655MOL0     C88348   0.948   7.435   1.516  0.6756  0.5270 -0.2495
  655MOL0     O88349   0.976   7.311   1.570  0.0757 -0.1188 -1.0594
  655MOL0     C88350   1.082   7.305   1.677  0.0999 -0.1832 -0.5120
  655MOL0     C88351   1.216   7.325   1.603 -0.4240  0.1841 -0.1892
  655MOL0     C88352   1.248   7.209   1.513 -0.2534  0.7965  0.8212
  655MOL0     C88353   1.367   7.234   1.416 -0.2855 -0.4460  0.6451
  655MOL0     C88354   1.498   7.240   1.486  0.6649  0.3697 -0.1815
  655MOL0     C88355   1.605   7.240   1.552 -0.3107 -0.8649 -0.0409
  655MOL0     C88356   0.953   7.438   1.377  1.0585  0.0658 -0.0130
  655MOL0     C88357   0.914   7.557   1.320  0.0123 -1.3617  0.9761
  655MOL0     H88358   0.964   8.023   1.148  0.6098 -0.5865  2.5783
  655MOL0     H88359   0.923   8.222   1.056  0.1703 -0.1792  0.4949
  655MOL0     H88360   0.855   8.447   0.989  0.4220 -1.9023  1.7906
  655MOL0     H88361   0.736   8.339   0.917  1.1628  0.1598 -0.0457
  655MOL0     H88362   0.720   8.571   0.837 -0.5561  2.3488  0.3113
  655MOL0     H88363   0.578   8.537   0.915  0.8254  0.1006 -2.9604
  655MOL0     H88364   0.687   8.656   1.134 -0.5168  0.9935  0.4289
  655MOL0     H88365   0.833   8.683   1.023 -0.5878 -1.3116  0.1014
  655MOL0     H88366   0.670   8.873   1.075 -0.8280 -0.8366  2.3502
  655MOL0     H88367   0.712   8.836   0.902  0.4496 -0.1265  0.8041
  655MOL0     H88368   0.469   8.718   0.905 -0.9869  1.4319 -2.8518
  655MOL0     H88369   0.461   8.757   1.071 -2.9160 -1.0607 -1.4525
  655MOL0     H88370   0.340   8.932   0.895 -0.2313  1.0833  0.6349
  655MOL0     H88371   0.435   8.985   1.032  0.7191 -1.2269  0.7701
  655MOL0     H88372   0.481   9.120   0.838  2.7800 -0.0381  0.0904
  655MOL0     H88373   0.628   9.028   0.854 -0.5485 -0.4227  0.4220
  655MOL0     H88374   0.407   8.959   0.665 -1.0176  0.3614  2.4224
  655MOL0     H88375   0.565   8.877   0.679 -0.2426 -0.9794 -0.1297
  655MOL0     H88376   0.469   9.254   0.637 -0.2157  0.3010 -0.2280
  655MOL0     H88377   0.761   9.415   0.478 -0.2933 -0.5456 -0.2896
  655MOL0     H88378   0.693   9.380   0.329  2.6084  0.5728 -0.4520
  655MOL0     H88379   0.529   9.468   0.560  0.5623 -2.0734  0.3218
  655MOL0     H88380   0.459   9.410   0.405  0.2642 -0.7459 -0.1354
  655MOL0     H88381   0.552   9.610   0.277  2.4432 -2.6009  0.3293
  655MOL0     H88382   0.634   9.666   0.419  0.9496 -0.1463  0.2620
  655MOL0     H88383   0.393   9.691   0.515  0.4875 -1.4520  0.5044
  655MOL0     H88384   0.331   9.629   0.358  0.2855  0.2257 -1.5410
  655MOL0     H88385   0.259   9.973   0.490 -1.7107  0.7964  0.0626
  655MOL0     H88386   0.095  10.128   0.539  1.6869 -1.6603 -1.1598
  655MOL0     H88387  -0.028  10.170   0.413  1.8960  2.0955 -0.4687
  655MOL0     H88388  -0.038  10.013   0.507  0.6439 -0.2016  0.2903
  655MOL0     H88389  -0.238  10.271   0.357 -1.0121  1.0567 -0.8919
  655MOL0     H88390  -0.468  10.373   0.351 -2.2974 -1.3135  1.4066
  655MOL0     H88391  -0.711  10.390   0.345 -2.0624 -1.0955 -1.2485
  655MOL0     H88392  -0.595  10.477   0.237  2.4135 -1.9196 -1.6054
  655MOL0     H88393  -0.903  10.442   0.213  2.5966 -2.7048  2.7861
  655MOL0     H88394  -0.812  10.589   0.221 -2.6394 -0.0389  0.3717
  655MOL0     H88395  -0.917  10.512  -0.004 -0.4834  2.1674  3.8256
  655MOL0     H88396  -0.797  10.393  -0.013 -2.4557  0.9326 -3.1198
  655MOL0     H88397  -0.747  10.693  -0.001 -1.9515 -0.3801  1.5008
  655MOL0     H88398  -0.618  10.578  -0.027 -0.7430  0.3673  0.7276
  655MOL0     H88399  -0.758  10.480  -0.222 -1.5399 -1.5615  2.4337
  655MOL0     H88400  -0.663  10.631  -0.231 -0.3336 -0.7115 -0.0836
  655MOL0     H88401  -0.955  10.582  -0.209  1.4588 -2.3909  0.7274
  655MOL0     H88402  -0.886  10.747  -0.201 -1.5936 -0.2952  2.1621
  655MOL0     H88403  -0.820  10.559  -0.440  1.8241  2.1235 -1.5249
  655MOL0     H88404  -0.802  10.738  -0.425 -2.8099  3.0637 -1.3460
  655MOL0     H88405  -1.008  10.709  -0.548 -0.6162 -1.1309 -0.5125
  655MOL0     H88406  -1.051  10.754  -0.380 -1.7112 -0.5187 -0.3631
  655MOL0     H88407  -0.584  10.070   0.077 -2.7454 -0.8524  1.7523
  655MOL0     H88408  -0.357   9.954   0.104  1.1275 -0.2314  0.5609
  655MOL0     H88409   0.092   9.896   0.035 -0.4097 -1.4859  0.5661
  655MOL0     H88410   0.296   9.771   0.116  3.0889  0.4667  2.3452
  655MOL0     H88411   0.529   8.236   1.258 -1.0020 -2.3581  0.0658
  655MOL0     H88412   0.583   8.043   1.368 -0.4226 -0.1819 -0.2996
  655MOL0     H88413   0.805   7.732   1.592 -1.0708 -0.7167  0.0892
  655MOL0     H88414   0.898   7.541   1.700  3.1421 -0.6656  0.7345
  655MOL0     H88415   1.077   7.380   1.756 -1.3394  0.5678 -1.2832
  655MOL0     H88416   1.077   7.211   1.732 -0.8733  0.1275 -0.0452
  655MOL0     H88417   1.287   7.348   1.683 -1.5308  1.5567  0.4378
  655MOL0     H88418   1.206   7.415   1.541  0.2400 -0.0447 -0.6398
  655MOL0     H88419   1.168   7.187   1.442  1.8054  0.1204 -1.4313
  655MOL0     H88420   1.271   7.111   1.557  2.1446  0.7507 -0.3470
  655MOL0     H88421   1.342   7.321   1.355  0.7143 -0.6732 -0.0905
  655MOL0     H88422   1.382   7.151   1.346  2.7723 -1.9311  2.8220
  655MOL0     H88423   1.699   7.243   1.603  1.3327  0.6277 -2.9427
  655MOL0     H88424   0.971   7.343   1.327  2.4513  0.7966 -0.9818
  655MOL0     H88425   0.923   7.555   1.212 -0.6590  2.2898  0.6963
  656MOL0     O88426   3.470   2.195   6.825  0.2091  0.1321  0.4750
  656MOL0     C88427   3.374   2.122   6.786  0.5172  0.5643 -0.3045
  656MOL0     O88428   3.368   1.990   6.788 -0.0413 -0.5076 -0.7130
  656MOL0     C88429   3.485   1.928   6.798 -0.2034  0.6652  0.1171
  656MOL0     C88430   3.499   1.817   6.712 -0.3962 -0.5007 -0.2195
  656MOL0     C88431   3.603   1.719   6.733  1.8152 -0.8604  0.1288
  656MOL0     C88432   3.704   1.738   6.831 -0.5389 -0.6840  0.6285
  656MOL0     O88433   3.796   1.639   6.862 -0.4414 -0.4097 -0.2939
  656MOL0     C88434   3.751   1.507   6.887 -0.2538  0.0660  0.1756
  656MOL0     C88435   3.876   1.423   6.931 -0.6791 -0.0278  0.0703
  656MOL0     C88436   3.921   1.432   7.081  0.4573 -0.5493  0.1897
  656MOL0     C88437   4.054   1.368   7.102 -0.2904 -0.0875  0.0128
  656MOL0     C88438   4.178   1.454   7.072 -0.4754  0.0001 -0.9997
  656MOL0     C88439   4.188   1.571   7.161  0.5065 -0.3846  0.2507
  656MOL0     C88440   4.305   1.659   7.122  0.7161  1.0649  0.6920
  656MOL0     C88441   4.320   1.795   7.195 -0.3299 -0.0297  0.2150
  656MOL0     N88442   4.448   1.860   7.167 -0.3107  0.0342 -0.1974
  656MOL0     C88443   4.535   1.829   7.062 -0.4060  0.3552 -0.2483
  656MOL0     C88444   4.642   1.909   7.082  0.0521 -0.7044 -0.0139
  656MOL0     C88445   4.784   1.912   7.008  0.6440 -0.1941 -1.1131
  656MOL0     C88446   4.771   1.900   6.849  0.1353 -0.5681 -0.2461
  656MOL0     C88447   4.874   1.982   6.780 -0.0392  0.0604  1.0462
  656MOL0     C88448   4.874   2.130   6.821 -0.3784 -0.3530  1.1570
  656MOL0     O88449   4.930   2.218   6.723 -0.5729  0.2336  0.4140
  656MOL0     C88450   4.992   2.339   6.744  0.3507 -0.2424 -0.1529
  656MOL0     C88451   5.048   2.413   6.630 -0.2592  0.2625  0.3134
  656MOL0     C88452   5.097   2.549   6.651  0.0692  0.6802  0.4951
  656MOL0     C88453   5.152   2.617   6.523  0.0283 -0.0624  0.1441
  656MOL0     C88454   5.100   2.599   6.779  0.4554  0.2082  0.6303
  656MOL0     C88455   5.157   2.738   6.813 -0.2194 -0.4016  1.0405
  656MOL0     O88456   5.209   2.813   6.716  0.5491  0.5195  0.9403
  656MOL0     C88457   5.281   2.918   6.744  0.2717  0.1277 -0.1776
  656MOL0     C88458   5.382   2.931   6.836 -0.3734  1.2451  0.2373
  656MOL0     C88459   5.452   3.053   6.844 -0.4227  0.0049 -0.0291
  656MOL0     C88460   5.430   3.155   6.747 -0.7694 -0.9275  0.5098
  656MOL0     O88461   5.499   3.272   6.725 -0.5847  0.3760 -0.9323
  656MOL0     C88462   5.579   3.303   6.839  0.4579 -1.3293  0.0455
  656MOL0     C88463   5.618   3.451   6.822  0.2393  0.2163  0.2222
  656MOL0     C88464   5.491   3.534   6.826  0.1366  0.4996  0.4474
  656MOL0     C88465   5.441   3.589   6.691  0.3448  0.7933  0.5330
  656MOL0     C88466   5.525   3.702   6.624  0.0922  0.1382 -0.1378
  656MOL0     C88467   5.577   3.805   6.725 -0.8746  0.0217 -0.4372
  656MOL0     C88468   5.693   3.894   6.661  0.0794  0.4872  0.0379
  656MOL0     C88469   5.713   4.017   6.743 -0.4086  0.1507  0.0091
  656MOL0    Cl88470   5.845   4.103   6.670  0.2206  0.3191 -0.1443
  656MOL0     C88471   5.328   3.142   6.653  0.4879 -0.0151 -0.5857
  656MOL0     C88472   5.255   3.022   6.658 -0.3932 -0.7305 -0.2420
  656MOL0     O88473   5.157   2.769   6.926  0.9598 -0.1141  0.2949
  656MOL0     C88474   5.045   2.523   6.890  0.0689  0.0135 -0.5410
  656MOL0     C88475   4.976   2.401   6.870 -0.5631  0.3445  0.1209
  656MOL0     N88476   4.616   1.995   7.191 -0.2525  0.0508 -0.2467
  656MOL0     N88477   4.502   1.961   7.248 -0.5465  0.4015  0.4399
  656MOL0     C88478   3.703   1.862   6.905 -0.1672 -0.7314 -0.3539
  656MOL0     C88479   3.585   1.941   6.899 -0.9728  0.8958 -0.0780
  656MOL0     C88480   3.250   2.189   6.727 -0.2965  0.6029 -0.4140
  656MOL0     C88481   3.229   2.326   6.744  0.5164 -0.4179  0.7535
  656MOL0     C88482   3.121   2.385   6.676  0.3716 -0.1449 -0.5514
  656MOL0     C88483   3.030   2.308   6.595 -0.1298 -0.0028  0.0835
  656MOL0     O88484   2.927   2.364   6.522  0.0046  0.2339  0.1660
  656MOL0     C88485   2.898   2.504   6.549 -0.1760  0.0815 -1.0068
  656MOL0     C88486   2.772   2.553   6.490 -0.0046 -0.8344 -0.7316
  656MOL0     C88487   2.779   2.576   6.344 -0.6443 -0.8091  0.4020
  656MOL0     C88488   2.662   2.661   6.278  0.7759  0.5705  0.8187
  656MOL0     C88489   2.629   2.789   6.340  0.3795 -0.2322 -0.0136
  656MOL0     C88490   2.612   2.893   6.405 -0.3974  1.3125 -0.4943
  656MOL0     C88491   3.057   2.167   6.586 -0.0070 -0.0325  0.5464
  656MOL0     C88492   3.164   2.115   6.651  0.5462  1.2195  0.2133
  656MOL0     H88493   3.414   1.805   6.646  1.2308 -2.5616 -2.0759
  656MOL0     H88494   3.603   1.620   6.688  2.9393 -1.9894  2.4364
  656MOL0     H88495   3.669   1.507   6.959 -2.7750 -3.5675 -2.3267
  656MOL0     H88496   3.714   1.460   6.795  0.3571  3.8231 -2.1866
  656MOL0     H88497   3.871   1.318   6.900  2.3132 -0.4611  0.7256
  656MOL0     H88498   3.961   1.459   6.871 -3.2122  2.5048 -2.3198
  656MOL0     H88499   3.908   1.538   7.105 -1.4718 -0.0547 -2.6092
  656MOL0     H88500   3.849   1.378   7.144  0.1230 -3.0124 -2.0994
  656MOL0     H88501   4.063   1.322   7.200 -1.0386 -2.4552 -0.9653
  656MOL0     H88502   4.056   1.291   7.024  1.8867  1.1587 -1.2891
  656MOL0     H88503   4.275   1.404   7.079  0.1806  1.4553  2.2440
  656MOL0     H88504   4.165   1.480   6.966 -3.2122 -0.4817 -0.8504
  656MOL0     H88505   4.106   1.644   7.163  2.7146  2.3592 -1.4103
  656MOL0     H88506   4.214   1.533   7.260  1.3745 -1.1177 -0.2502
  656MOL0     H88507   4.400   1.609   7.140  1.5643  1.9916 -1.0015
  656MOL0     H88508   4.296   1.666   7.013  0.6317 -5.8377 -0.1930
  656MOL0     H88509   4.303   1.791   7.303 -1.8161  1.0991  0.0636
  656MOL0     H88510   4.248   1.868   7.157 -0.2906 -1.0952 -2.0589
  656MOL0     H88511   4.529   1.758   6.980 -3.2088  1.0492 -0.7284
  656MOL0     H88512   4.819   2.013   7.032 -2.2124  0.9297 -1.2756
  656MOL0     H88513   4.848   1.833   7.046  0.4750  0.6584  1.0873
  656MOL0     H88514   4.672   1.932   6.813  0.5358 -0.9238 -1.7285
  656MOL0     H88515   4.773   1.797   6.812 -0.7816 -0.8499  0.4711
  656MOL0     H88516   4.878   1.957   6.674 -2.9034  0.9899  0.6458
  656MOL0     H88517   4.971   1.947   6.817  0.0372 -2.2147 -1.0296
  656MOL0     H88518   4.938   2.137   6.910  2.3538 -4.1901 -0.1934
  656MOL0     H88519   4.778   2.157   6.866  0.5850 -1.0860  3.9031
  656MOL0     H88520   5.035   2.375   6.529 -0.1239 -0.4478  0.5604
  656MOL0     H88521   5.181   2.550   6.442  4.0966  3.9261 -2.1425
  656MOL0     H88522   5.078   2.692   6.491  0.2467  1.4841  2.9215
  656MOL0     H88523   5.246   2.669   6.542  0.4211  0.1471 -2.0969
  656MOL0     H88524   5.404   2.854   6.909 -1.8735 -0.8173 -1.3707
  656MOL0     H88525   5.529   3.057   6.921 -0.7999  2.5107  0.3011
  656MOL0     H88526   5.528   3.303   6.936 -0.0038 -2.1331 -0.1828
  656MOL0     H88527   5.675   3.252   6.852  1.5638  1.2815  3.6236
  656MOL0     H88528   5.677   3.493   6.904 -0.8316  2.1940  0.0421
  656MOL0     H88529   5.672   3.476   6.730 -0.7627  1.4890 -0.0516
  656MOL0     H88530   5.491   3.614   6.901 -0.0162 -1.4639  2.6349
  656MOL0     H88531   5.410   3.464   6.846  1.1714 -1.7004 -2.2951
  656MOL0     H88532   5.407   3.514   6.618  2.0764  2.2572 -1.9241
  656MOL0     H88533   5.343   3.630   6.718  0.4741  0.5765  1.3501
  656MOL0     H88534   5.466   3.759   6.551  1.4630 -1.1647 -2.3900
  656MOL0     H88535   5.614   3.652   6.586  0.9097  1.3566  0.1268
  656MOL0     H88536   5.492   3.869   6.748 -1.0186  0.7972 -2.8231
  656MOL0     H88537   5.619   3.750   6.810  1.5462  0.8413 -1.0300
  656MOL0     H88538   5.665   3.932   6.563 -2.3516  0.1659  0.5390
  656MOL0     H88539   5.783   3.834   6.646  0.1944  0.3324  1.2124
  656MOL0     H88540   5.747   3.994   6.844 -0.5351 -3.9671 -0.7202
  656MOL0     H88541   5.624   4.080   6.742  1.2600  2.6533 -0.1689
  656MOL0     H88542   5.298   3.211   6.575  0.5222  1.0728  0.3270
  656MOL0     H88543   5.182   3.015   6.578 -3.2556  1.0300  2.0271
  656MOL0     H88544   5.058   2.545   6.995 -0.2290  0.3883 -0.5815
  656MOL0     H88545   4.919   2.359   6.952  2.4251 -1.2242  1.5922
  656MOL0     H88546   3.781   1.875   6.979  2.4377 -0.6649 -2.9349
  656MOL0     H88547   3.576   2.012   6.981 -3.4595 -1.0657  1.4669
  656MOL0     H88548   3.299   2.385   6.803 -3.0788  0.9043  4.0791
  656MOL0     H88549   3.113   2.491   6.695 -1.8609 -0.5782  1.5166
  656MOL0     H88550   2.898   2.529   6.656 -1.7785 -1.5155 -0.5970
  656MOL0     H88551   2.977   2.571   6.512  2.3161 -0.9158  2.0207
  656MOL0     H88552   2.768   2.653   6.532  3.7307 -1.2568  1.0718
  656MOL0     H88553   2.683   2.501   6.527  1.1423 -0.7993  2.3110
  656MOL0     H88554   2.791   2.486   6.284 -0.1395  0.8846 -2.2250
  656MOL0     H88555   2.870   2.635   6.331 -0.1710 -0.1720  5.0201
  656MOL0     H88556   2.575   2.598   6.261  0.6557  1.1319 -0.7913
  656MOL0     H88557   2.707   2.687   6.182  2.7564  0.0069  1.5409
  656MOL0     H88558   2.604   2.989   6.452 -1.3509  0.3420  1.3935
  656MOL0     H88559   2.999   2.108   6.516  0.7563 -2.7903  2.1018
  656MOL0     H88560   3.181   2.008   6.646 -1.9499  0.7928 -0.3368
  657MOL0     O88561   4.716   0.093   3.639  0.1725 -0.4447 -0.1609
  657MOL0     C88562   4.827   0.040   3.629 -0.1553  0.2725 -0.1315
  657MOL0     O88563   4.895  -0.008   3.733  0.0063  0.0331  0.4269
  657MOL0     C88564   4.846   0.002   3.856  0.0557  0.1478  0.8379
  657MOL0     C88565   4.774  -0.104   3.909 -0.3395  0.0621  0.2937
  657MOL0     C88566   4.704  -0.098   4.030  0.2530  1.0066  0.4138
  657MOL0     C88567   4.710   0.018   4.104 -0.4847  0.6781 -0.4758
  657MOL0     O88568   4.650   0.041   4.221 -0.0970  0.5003  0.2318
  657MOL0     C88569   4.601  -0.054   4.319 -0.4698  0.8704  0.2079
  657MOL0     C88570   4.544   0.028   4.434  1.0682 -0.0858  0.1580
  657MOL0     C88571   4.646   0.123   4.499  0.8412  0.4912 -0.8224
  657MOL0     C88572   4.586   0.193   4.625  0.9979 -0.1048  0.7373
  657MOL0     C88573   4.687   0.303   4.668 -0.2676 -0.0198  0.3634
  657MOL0     C88574   4.626   0.388   4.779 -0.0995  0.6566 -0.3198
  657MOL0     C88575   4.727   0.453   4.865 -0.2442 -0.8580  0.0198
  657MOL0     C88576   4.761   0.362   4.986 -0.0954  0.7740 -0.6886
  657MOL0     N88577   4.658   0.394   5.091  0.6324  0.2307 -0.1118
  657MOL0     C88578   4.554   0.310   5.129  1.7226  0.1871 -1.0451
  657MOL0     C88579   4.525   0.364   5.251 -0.8049  0.5025 -0.9613
  657MOL0     C88580   4.434   0.297   5.346  1.1396  0.8037  0.1197
  657MOL0     C88581   4.393   0.147   5.333  1.3168  0.2586  0.7193
  657MOL0     C88582   4.514   0.053   5.357  0.0799 -0.2175  1.7345
  657MOL0     C88583   4.522  -0.052   5.253 -0.8465  0.2390 -0.3103
  657MOL0     O88584   4.523   0.002   5.117  0.3332  0.3877 -0.3036
  657MOL0     C88585   4.525  -0.092   5.010 -0.3395  0.0713  0.1518
  657MOL0     C88586   4.472  -0.221   5.018 -0.5498  0.6510 -0.3200
  657MOL0     C88587   4.497  -0.322   4.926  1.5161 -0.5534 -0.0164
  657MOL0     C88588   4.460  -0.460   4.968  0.9542  1.2987  0.5278
  657MOL0     C88589   4.565  -0.288   4.808 -0.8045 -1.0427 -1.3736
  657MOL0     C88590   4.588  -0.377   4.703  0.1256 -0.2533  0.4864
  657MOL0     O88591   4.545  -0.338   4.575 -0.1202  0.1479  0.2259
  657MOL0     C88592   4.592  -0.393   4.463 -0.1059  0.4609 -0.7484
  657MOL0     C88593   4.505  -0.425   4.360  1.2215  0.4411  0.8483
  657MOL0     C88594   4.549  -0.475   4.232  0.3292  0.8299  0.1770
  657MOL0     C88595   4.682  -0.491   4.209  0.7855 -0.1242 -0.2928
  657MOL0     O88596   4.736  -0.554   4.102 -0.4328 -0.4730 -0.1990
  657MOL0     C88597   4.806  -0.465   4.014 -0.0019  0.3211  0.0879
  657MOL0     C88598   4.851  -0.554   3.897 -0.6546  0.4719 -0.2953
  657MOL0     C88599   4.926  -0.469   3.786  0.7004  0.4955 -0.4134
  657MOL0     C88600   4.973  -0.544   3.661 -0.2286 -0.5286  0.6265
  657MOL0     C88601   5.071  -0.656   3.703 -0.5384 -0.6454 -1.2505
  657MOL0     C88602   5.191  -0.645   3.618  0.1984 -0.2225 -0.6716
  657MOL0     C88603   5.262  -0.787   3.617 -0.0160 -0.2199 -0.0126
  657MOL0     C88604   5.396  -0.785   3.527 -0.1625 -0.3664  0.0689
  657MOL0    Cl88605   5.521  -0.692   3.613 -0.0639  0.1124  0.2494
  657MOL0     C88606   4.776  -0.458   4.313 -0.0645  0.4526 -0.3802
  657MOL0     C88607   4.730  -0.398   4.435  0.2310  0.2338  0.0148
  657MOL0     O88608   4.628  -0.489   4.735  0.2644  0.0863 -0.7030
  657MOL0     C88609   4.613  -0.152   4.790 -0.2979  0.2848 -0.4036
  657MOL0     C88610   4.597  -0.061   4.896 -0.2398 -0.0777 -0.1272
  657MOL0     N88611   4.607   0.470   5.284 -0.1334  0.1298  1.5802
  657MOL0     N88612   4.690   0.483   5.188  0.1186  0.3808  0.1294
  657MOL0     C88613   4.773   0.129   4.049  0.5184  0.7053 -0.4452
  657MOL0     C88614   4.836   0.127   3.922  0.5037  0.6376 -0.4669
  657MOL0     C88615   4.883  -0.001   3.496  0.4734 -0.1168  0.1101
  657MOL0     C88616   4.859   0.068   3.378  0.0989  0.0401 -0.1525
  657MOL0     C88617   4.916   0.045   3.255  0.5734  0.5233 -0.6675
  657MOL0     C88618   5.008  -0.058   3.239 -0.8225 -0.0318 -0.4224
  657MOL0     O88619   5.079  -0.082   3.129 -0.4016  1.1257 -0.4166
  657MOL0     C88620   5.069   0.012   3.024  0.4930  0.4031  0.1003
  657MOL0     C88621   5.151  -0.039   2.900 -0.5029 -0.2262 -0.7793
  657MOL0     C88622   5.069  -0.163   2.853 -0.5012 -0.1011  0.0723
  657MOL0     C88623   5.144  -0.243   2.753 -1.1987  0.3361  0.8883
  657MOL0     C88624   5.077  -0.374   2.718  0.5651 -0.4552  0.6664
  657MOL0     C88625   5.011  -0.475   2.697 -0.8110  1.0125 -0.3896
  657MOL0     C88626   5.044  -0.125   3.354 -0.2592 -0.5112 -0.1578
  657MOL0     C88627   4.973  -0.108   3.483 -0.0225  0.3861  1.1141
  657MOL0     H88628   4.774  -0.197   3.853  2.1577  0.2124 -0.0747
  657MOL0     H88629   4.651  -0.186   4.063 -1.7811  1.8116 -0.5765
  657MOL0     H88630   4.513  -0.109   4.283 -0.0885  1.1458 -1.2274
  657MOL0     H88631   4.676  -0.130   4.344 -0.7768 -0.1887 -1.8290
  657MOL0     H88632   4.456   0.086   4.406  0.4220 -1.4233 -0.7113
  657MOL0     H88633   4.512  -0.036   4.517  1.7399  1.2235  1.4750
  657MOL0     H88634   4.743   0.079   4.524  1.8709 -1.6657 -6.8547
  657MOL0     H88635   4.667   0.207   4.432 -0.9649  1.8314  0.1979
  657MOL0     H88636   4.495   0.248   4.598  1.1752 -1.0590 -2.1405
  657MOL0     H88637   4.559   0.119   4.701 -1.0207 -1.1907 -0.9296
  657MOL0     H88638   4.785   0.261   4.689 -0.2088 -1.7243 -2.7615
  657MOL0     H88639   4.703   0.368   4.581 -1.9857  3.9296  2.6925
  657MOL0     H88640   4.560   0.468   4.743  1.0687  2.1952  0.8124
  657MOL0     H88641   4.549   0.334   4.836 -1.7989  3.7690  0.5781
  657MOL0     H88642   4.819   0.478   4.811  1.0139 -3.1543  0.9476
  657MOL0     H88643   4.697   0.551   4.901  1.5729  0.6179 -2.2153
  657MOL0     H88644   4.855   0.401   5.024 -2.2940  1.7159  4.5818
  657MOL0     H88645   4.762   0.255   4.963  0.8464 -0.0283  2.6590
  657MOL0     H88646   4.508   0.221   5.087 -1.1167  0.4759  1.1161
  657MOL0     H88647   4.467   0.317   5.448  0.4522  0.5491  0.4018
  657MOL0     H88648   4.340   0.353   5.340  2.6817  3.4856 -0.5343
  657MOL0     H88649   4.347   0.134   5.234  2.2275  2.1109 -0.0072
  657MOL0     H88650   4.320   0.120   5.409  1.9742 -0.6044  1.0623
  657MOL0     H88651   4.496  -0.006   5.448 -2.2171  0.2617  1.6572
  657MOL0     H88652   4.610   0.104   5.351  0.8225 -1.7827 -1.8128
  657MOL0     H88653   4.446  -0.130   5.262  0.7351 -1.4182 -0.8651
  657MOL0     H88654   4.615  -0.109   5.254  0.6714  2.5572  0.0493
  657MOL0     H88655   4.431  -0.251   5.114  0.0440  0.6812 -0.0493
  657MOL0     H88656   4.383  -0.502   4.902 -0.0330  1.2094  1.6945
  657MOL0     H88657   4.550  -0.522   4.964 -0.2599 -0.4754 -1.0307
  657MOL0     H88658   4.420  -0.459   5.070 -1.2406  0.0493 -0.2420
  657MOL0     H88659   4.405  -0.423   4.402  0.5071  0.7028 -0.8277
  657MOL0     H88660   4.464  -0.514   4.177 -0.0036  0.0831  1.1730
  657MOL0     H88661   4.753  -0.373   3.989  0.3866 -0.0889 -2.4813
  657MOL0     H88662   4.896  -0.427   4.064  0.9622 -1.2224 -0.4100
  657MOL0     H88663   4.929  -0.628   3.919  0.0143  1.1767 -0.2196
  657MOL0     H88664   4.765  -0.606   3.853 -1.5778  0.3654  1.5298
  657MOL0     H88665   5.013  -0.417   3.827  1.8559 -3.6059  3.1021
  657MOL0     H88666   4.854  -0.391   3.759 -0.7272  1.1509  4.3589
  657MOL0     H88667   4.890  -0.593   3.610 -1.1180  1.6562 -0.1802
  657MOL0     H88668   5.011  -0.468   3.592 -2.9361  0.4509  0.1054
  657MOL0     H88669   5.029  -0.756   3.689 -1.4603 -0.5383  0.4635
  657MOL0     H88670   5.114  -0.646   3.803 -2.3609 -2.1691 -0.2580
  657MOL0     H88671   5.167  -0.623   3.514  1.8300  1.4466 -0.7442
  657MOL0     H88672   5.258  -0.566   3.653 -0.6205  1.7075 -3.2318
  657MOL0     H88673   5.188  -0.852   3.570 -0.3972 -1.1665  1.7809
  657MOL0     H88674   5.277  -0.829   3.717 -1.9229  2.0935  1.3662
  657MOL0     H88675   5.371  -0.733   3.434 -1.3885 -1.8574 -0.4727
  657MOL0     H88676   5.431  -0.886   3.505 -3.6043 -1.3960 -1.2817
  657MOL0     H88677   4.883  -0.476   4.311 -0.3570 -3.7599  3.6451
  657MOL0     H88678   4.804  -0.379   4.513  0.6462 -4.6678  1.1583
  657MOL0     H88679   4.683  -0.133   4.709 -1.0576  2.5330 -0.6045
  657MOL0     H88680   4.650   0.033   4.884 -2.6885  1.5742  1.0026
  657MOL0     H88681   4.765   0.228   4.093 -1.7461  1.3858 -2.1645
  657MOL0     H88682   4.875   0.218   3.879 -1.6775  0.8519 -2.1951
  657MOL0     H88683   4.802   0.160   3.372 -1.8592 -1.1473 -0.5867
  657MOL0     H88684   4.899   0.113   3.173  0.8679  2.1360  0.5597
  657MOL0     H88685   4.963   0.015   2.997 -1.2409  3.3108  5.6791
  657MOL0     H88686   5.108   0.111   3.049 -0.9927  1.1825 -0.5235
  657MOL0     H88687   5.249  -0.073   2.935 -0.2192  1.2952 -0.0268
  657MOL0     H88688   5.149   0.033   2.818 -3.0083 -0.3576 -0.9262
  657MOL0     H88689   4.982  -0.120   2.801 -1.1382 -1.1312  0.2572
  657MOL0     H88690   5.038  -0.227   2.936 -0.0071  1.1201  1.2243
  657MOL0     H88691   5.240  -0.267   2.801 -2.1290 -0.9436  2.2028
  657MOL0     H88692   5.168  -0.178   2.669 -2.8747 -0.9379 -0.6352
  657MOL0     H88693   4.961  -0.569   2.686  0.3385  0.4305 -0.7471
  657MOL0     H88694   5.116  -0.204   3.331 -0.5643 -0.8761  0.1197
  657MOL0     H88695   5.017  -0.163   3.565  0.8470 -2.2764 -1.0137
  658MOL0     O88696  10.978   4.276   8.502 -0.0333 -0.7302 -0.8056
  658MOL0     C88697  11.049   4.348   8.429 -0.2337 -0.4839 -0.4997
  658MOL0     O88698  11.078   4.319   8.297 -0.5209  0.2467  0.4394
  658MOL0     C88699  11.023   4.198   8.252  1.1847 -0.5609  1.1641
  658MOL0     C88700  10.893   4.199   8.194  0.6310  0.3301  0.5179
  658MOL0     C88701  10.843   4.077   8.146  0.2268 -0.0282 -0.6159
  658MOL0     C88702  10.920   3.963   8.140 -1.0939 -0.7920 -0.0915
  658MOL0     O88703  10.868   3.841   8.096 -0.2500  0.4308 -0.0655
  658MOL0     C88704  10.782   3.839   7.980 -0.5803 -0.5132  0.4008
  658MOL0     C88705  10.771   3.694   7.934  0.7206  0.3838  0.6682
  658MOL0     C88706  10.885   3.651   7.843  0.3241 -1.3773 -0.6530
  658MOL0     C88707  10.859   3.507   7.793 -0.3137  0.2191 -0.1445
  658MOL0     C88708  10.981   3.434   7.738 -0.2478 -0.3469 -0.2759
  658MOL0     C88709  10.976   3.281   7.749  0.1115 -0.7094 -0.9700
  658MOL0     C88710  11.063   3.185   7.667 -0.4770 -0.2955  0.9399
  658MOL0     C88711  11.077   3.238   7.526  0.3607  0.6337 -0.7022
  658MOL0     N88712  11.143   3.137   7.447 -0.2243 -0.9359  0.1567
  658MOL0     C88713  11.266   3.150   7.391  0.0544 -0.8477 -0.2479
  658MOL0     C88714  11.292   3.034   7.320  0.4643 -0.3261 -0.4373
  658MOL0     C88715  11.428   3.009   7.261 -0.3087  0.7847 -0.9051
  658MOL0     C88716  11.495   2.896   7.354  0.3800 -0.1781  0.7098
  658MOL0     C88717  11.622   2.846   7.278 -0.6175  0.2103 -0.2676
  658MOL0     C88718  11.658   2.706   7.336  0.0803  0.6449  0.3774
  658MOL0     O88719  11.681   2.692   7.476 -0.7804  0.0939 -0.2450
  658MOL0     C88720  11.808   2.735   7.524 -0.3234 -0.1472  0.5586
  658MOL0     C88721  11.821   2.737   7.667 -0.5891 -0.3853  0.2802
  658MOL0     C88722  11.941   2.794   7.726 -0.0787 -0.4094 -0.6627
  658MOL0     C88723  11.955   2.789   7.877 -0.2591  0.5156  0.2574
  658MOL0     C88724  12.039   2.852   7.640  0.0135  0.4839 -1.6774
  658MOL0     C88725  12.156   2.922   7.692 -1.1790 -0.8315  0.4397
  658MOL0     O88726  12.133   3.032   7.776  0.3627  0.3431 -0.8179
  658MOL0     C88727  12.243   3.104   7.825  0.6328  0.3915 -0.8469
  658MOL0     C88728  12.304   3.058   7.942  0.0069  0.1438  0.9535
  658MOL0     C88729  12.421   3.113   7.992  0.1491  0.5928  0.4733
  658MOL0     C88730  12.475   3.225   7.922  0.6703 -0.0417 -0.1740
  658MOL0     O88731  12.594   3.287   7.953 -0.5538  0.0800  0.3717
  658MOL0     C88732  12.655   3.245   8.076  0.2009 -0.6724 -0.0795
  658MOL0     C88733  12.786   3.302   8.109 -1.5404 -0.0551 -0.6081
  658MOL0     C88734  12.787   3.434   8.189  0.2064 -0.2619  0.0528
  658MOL0     C88735  12.924   3.494   8.203  0.2456 -0.1835  0.1159
  658MOL0     C88736  12.917   3.603   8.322  0.0950  1.1062  0.7537
  658MOL0     C88737  13.036   3.617   8.416 -0.5948 -0.2820 -0.0422
  658MOL0     C88738  13.015   3.737   8.507 -0.1469 -0.3729 -0.4270
  658MOL0     C88739  13.125   3.728   8.615  0.9443 -0.2840  0.6290
  658MOL0    Cl88740  13.137   3.565   8.690  0.2428  0.6856  0.1254
  658MOL0     C88741  12.412   3.267   7.811 -1.0717 -0.8209 -0.3197
  658MOL0     C88742  12.296   3.214   7.764  0.9823  0.4244  0.3004
  658MOL0     O88743  12.261   2.892   7.650  0.3960 -0.8006  0.3717
  658MOL0     C88744  12.041   2.832   7.504 -0.0158 -0.3181  0.0179
  658MOL0     C88745  11.924   2.776   7.453  0.0655  0.0029  0.3808
  658MOL0     N88746  11.173   2.965   7.310  0.1762  0.0182 -1.3879
  658MOL0     N88747  11.089   3.017   7.403  0.1280 -0.0323  0.0371
  658MOL0     C88748  11.050   3.969   8.191  0.6082  0.9982 -0.2047
  658MOL0     C88749  11.106   4.083   8.245 -0.5822  0.0350 -0.0141
  658MOL0     C88750  11.114   4.471   8.479 -0.2834 -0.6383  0.5008
  658MOL0     C88751  11.141   4.487   8.612 -0.5976  0.3878 -0.1400
  658MOL0     C88752  11.203   4.607   8.649  0.3651  0.0150  0.3323
  658MOL0     C88753  11.238   4.709   8.561  0.3154  0.2620  0.3882
  658MOL0     O88754  11.291   4.825   8.608  0.9554  0.2280 -0.2677
  658MOL0     C88755  11.376   4.898   8.516 -0.6421 -0.3650 -0.5292
  658MOL0     C88756  11.475   4.978   8.605 -0.1495 -0.4399  0.2912
  658MOL0     C88757  11.439   5.009   8.752 -0.1592  0.0124  0.0127
  658MOL0     C88758  11.333   5.118   8.764  0.0523  0.5029 -0.1005
  658MOL0     C88759  11.379   5.251   8.726 -0.5854 -0.8265  0.1440
  658MOL0     C88760  11.434   5.360   8.709 -0.7211  0.1445 -0.9076
  658MOL0     C88761  11.224   4.679   8.425 -0.1499  0.1681 -0.1732
  658MOL0     C88762  11.168   4.558   8.379  0.3524 -0.1153  0.0641
  658MOL0     H88763  10.812   4.271   8.184 -1.1164 -1.6822 -0.5852
  658MOL0     H88764  10.739   4.082   8.113 -0.0763 -2.1078 -0.1441
  658MOL0     H88765  10.684   3.877   8.010 -0.0927  1.8209 -0.7456
  658MOL0     H88766  10.808   3.910   7.902 -2.3659  0.1180  0.3363
  658MOL0     H88767  10.735   3.621   8.008 -2.6114 -2.9962 -3.7002
  658MOL0     H88768  10.682   3.700   7.870  1.0219 -0.3332  0.1663
  658MOL0     H88769  10.874   3.725   7.764 -1.6952 -1.6798 -0.7156
  658MOL0     H88770  10.980   3.677   7.889  0.5635 -4.4878  0.8996
  658MOL0     H88771  10.823   3.445   7.876  1.8926  2.8356  3.0612
  658MOL0     H88772  10.773   3.500   7.726 -1.7916  1.4824  1.5272
  658MOL0     H88773  11.000   3.458   7.633  1.4030 -0.2396  0.0236
  658MOL0     H88774  11.070   3.467   7.792 -1.8632 -0.6101  2.7386
  658MOL0     H88775  11.006   3.267   7.853  2.3948  0.3259 -1.4468
  658MOL0     H88776  10.871   3.257   7.725 -1.3999  2.0008  2.2329
  658MOL0     H88777  11.160   3.169   7.714  0.3581  1.3187 -0.1644
  658MOL0     H88778  11.000   3.095   7.666 -2.3871  0.7939  4.5405
  658MOL0     H88779  11.147   3.323   7.521  1.5411 -0.3685 -3.0556
  658MOL0     H88780  10.978   3.261   7.485 -1.0229 -3.2034  0.0475
  658MOL0     H88781  11.338   3.226   7.418  1.7492 -2.4095 -0.1721
  658MOL0     H88782  11.411   2.991   7.155 -1.5267  2.8152 -1.1317
  658MOL0     H88783  11.488   3.101   7.267  0.7641  0.0123  2.3824
  658MOL0     H88784  11.423   2.818   7.379  1.2613 -0.8920  1.0924
  658MOL0     H88785  11.539   2.931   7.448 -3.8177 -0.0958  2.8651
  658MOL0     H88786  11.685   2.936   7.281 -2.8137  2.1588 -4.5254
  658MOL0     H88787  11.610   2.835   7.170  1.3552  3.5832 -0.9753
  658MOL0     H88788  11.750   2.686   7.280  1.3807  1.1299  2.2367
  658MOL0     H88789  11.570   2.649   7.304  0.3678  1.2096 -1.5288
  658MOL0     H88790  11.733   2.704   7.721 -1.5687 -0.3819 -1.2515
  658MOL0     H88791  11.972   2.881   7.934 -1.6375 -0.5556  2.5391
  658MOL0     H88792  11.872   2.732   7.919  1.3836 -1.8133  0.5705
  658MOL0     H88793  12.041   2.722   7.890  0.0818  0.0976 -3.0648
  658MOL0     H88794  12.257   2.974   7.990 -0.8584 -1.4778 -2.4260
  658MOL0     H88795  12.455   3.066   8.084 -0.2014 -1.2687 -0.3065
  658MOL0     H88796  12.585   3.277   8.153  1.5409  3.4445 -0.3242
  658MOL0     H88797  12.669   3.137   8.069 -0.8266 -0.9184  1.3492
  658MOL0     H88798  12.843   3.229   8.168 -0.2228 -0.1657 -1.9677
  658MOL0     H88799  12.840   3.319   8.016 -2.6046  2.4408 -0.8403
  658MOL0     H88800  12.751   3.417   8.291 -1.9495  0.5023 -0.5222
  658MOL0     H88801  12.715   3.509   8.153  0.2081 -0.3432 -0.1202
  658MOL0     H88802  13.002   3.420   8.223  2.7735  1.4755 -2.6736
  658MOL0     H88803  12.944   3.540   8.106  0.6186 -0.0813  0.2383
  658MOL0     H88804  12.829   3.590   8.385 -0.5552  1.8634  0.0351
  658MOL0     H88805  12.904   3.700   8.272 -2.2812  0.8591  0.7856
  658MOL0     H88806  13.037   3.525   8.474 -0.4414 -1.7245 -2.1919
  658MOL0     H88807  13.129   3.639   8.362 -1.3002  2.5400 -0.2551
  658MOL0     H88808  12.913   3.741   8.546 -0.6475  1.6889 -1.7939
  658MOL0     H88809  13.029   3.823   8.441  1.2045 -0.3415 -0.1348
  658MOL0     H88810  13.105   3.810   8.685 -1.7405 -1.0093  0.8167
  658MOL0     H88811  13.224   3.751   8.573  2.2171 -5.2588  0.2658
  658MOL0     H88812  12.445   3.357   7.761 -1.7265  1.2103  2.6033
  658MOL0     H88813  12.238   3.268   7.689  1.4389 -0.7036 -0.9038
  658MOL0     H88814  12.126   2.863   7.445  0.2794 -0.0030  0.5965
  658MOL0     H88815  11.918   2.774   7.344  2.4004  0.5088  0.2051
  658MOL0     H88816  11.111   3.880   8.204  0.5412  0.8795 -0.6974
  658MOL0     H88817  11.209   4.082   8.281  0.3319 -1.8080 -2.4068
  658MOL0     H88818  11.119   4.408   8.683  1.8152  3.1690  4.0913
  658MOL0     H88819  11.240   4.629   8.749  1.1932  0.2245 -0.0118
  658MOL0     H88820  11.446   4.825   8.475  2.6232  0.9447  2.1761
  658MOL0     H88821  11.325   4.965   8.446 -4.3133 -1.0445  1.2751
  658MOL0     H88822  11.502   5.067   8.548 -3.1038  0.7013  0.4950
  658MOL0     H88823  11.558   4.907   8.617  1.0754  1.1624  1.7082
  658MOL0     H88824  11.526   5.050   8.804 -0.2120 -0.3948  0.4276
  658MOL0     H88825  11.402   4.920   8.804 -0.9213  0.9552  1.1327
  658MOL0     H88826  11.303   5.115   8.869 -0.3127 -3.4663 -0.1398
  658MOL0     H88827  11.249   5.090   8.699  0.5705  3.8002 -2.4544
  658MOL0     H88828  11.497   5.446   8.704  1.7937 -1.4962  0.2761
  658MOL0     H88829  11.246   4.752   8.348 -1.3366  1.2847  0.4962
  658MOL0     H88830  11.160   4.544   8.272  2.3928 -1.9199  0.0513
  659MOL0     O88831  10.753   0.669   1.011 -0.4345 -0.4370 -0.7652
  659MOL0     C88832  10.791   0.678   0.899 -0.3274 -0.9010  0.3992
  659MOL0     O88833  10.715   0.740   0.792  0.0108 -0.4204 -0.6545
  659MOL0     C88834  10.582   0.758   0.808 -0.2157 -0.7476 -0.4833
  659MOL0     C88835  10.500   0.663   0.863  0.0020  0.5741  0.3207
  659MOL0     C88836  10.362   0.680   0.867 -0.1758  0.5683 -0.4750
  659MOL0     C88837  10.303   0.798   0.815  0.1799 -0.2258  1.1492
  659MOL0     O88838  10.170   0.815   0.803  1.1024 -0.2840  0.2634
  659MOL0     C88839  10.098   0.803   0.931  0.0949  0.4143  0.0007
  659MOL0     C88840   9.951   0.819   0.907  0.0733 -0.2406  0.8037
  659MOL0     C88841   9.866   0.791   1.035 -0.5695  0.5544 -0.0655
  659MOL0     C88842   9.735   0.859   1.027  0.2630  0.1290 -0.7174
  659MOL0     C88843   9.662   0.856   1.171 -0.3168  0.1857  0.3324
  659MOL0     C88844   9.729   0.920   1.290  0.3993  0.1462 -0.2916
  659MOL0     C88845   9.750   1.063   1.271  0.2169 -0.4043  0.2448
  659MOL0     C88846   9.819   1.133   1.387 -0.5981  0.0313 -0.0689
  659MOL0     N88847   9.954   1.099   1.428 -0.3532  0.4685 -0.2367
  659MOL0     C88848  10.059   1.178   1.394  0.6565  0.1004 -0.1976
  659MOL0     C88849  10.165   1.119   1.456 -0.0634  0.7673  0.4260
  659MOL0     C88850  10.311   1.159   1.471  0.3899  0.9827 -0.2306
  659MOL0     C88851  10.368   1.120   1.607  0.1109  0.1296 -0.0954
  659MOL0     C88852  10.295   1.159   1.735  0.1119 -0.1718  0.2194
  659MOL0     C88853  10.277   1.306   1.757 -0.5038  0.0230 -0.3931
  659MOL0     O88854  10.410   1.368   1.757  0.6175 -0.3900  0.6891
  659MOL0     C88855  10.421   1.502   1.766  0.1122  0.5193 -1.0475
  659MOL0     C88856  10.316   1.592   1.739  0.8034 -0.2337 -0.7597
  659MOL0     C88857  10.329   1.728   1.766  0.1289 -0.0950  0.1461
  659MOL0     C88858  10.203   1.814   1.743 -0.3952 -0.6277  0.0801
  659MOL0     C88859  10.463   1.779   1.802  0.3369  0.3096 -0.4449
  659MOL0     C88860  10.482   1.917   1.837  0.9252  0.5058 -0.3049
  659MOL0     O88861  10.567   1.935   1.940 -0.5127 -0.8980 -0.3554
  659MOL0     C88862  10.612   2.053   1.977  0.1390 -0.1949 -0.3223
  659MOL0     C88863  10.535   2.166   2.018 -0.5112 -0.5173 -0.5039
  659MOL0     C88864  10.601   2.279   2.046  0.5320 -0.2810 -0.0606
  659MOL0     C88865  10.743   2.290   2.039 -0.2694  0.3423 -0.3703
  659MOL0     O88866  10.800   2.405   2.077  0.0950 -0.0650 -0.8388
  659MOL0     C88867  10.939   2.441   2.063 -0.0814 -0.1589  0.1705
  659MOL0     C88868  10.971   2.595   2.081 -0.0633 -0.8287 -0.4211
  659MOL0     C88869  10.866   2.673   2.155 -0.8235 -0.9791 -0.3245
  659MOL0     C88870  10.933   2.809   2.202 -0.1542  0.9586  0.1213
  659MOL0     C88871  10.827   2.904   2.244 -0.8663 -0.5485  0.3735
  659MOL0     C88872  10.885   3.010   2.345 -0.2349  1.1806  0.3485
  659MOL0     C88873  10.783   3.109   2.372 -0.3722  1.1801 -0.2454
  659MOL0     C88874  10.823   3.202   2.486 -0.5986 -0.6796 -0.9426
  659MOL0    Cl88875  10.953   3.313   2.453 -0.1086 -0.3354  0.1272
  659MOL0     C88876  10.826   2.177   2.003  0.5455 -0.6845 -0.7262
  659MOL0     C88877  10.752   2.057   1.974 -1.0907 -0.4751 -0.0205
  659MOL0     O88878  10.420   2.008   1.773  0.6002  0.0418 -0.3644
  659MOL0     C88879  10.557   1.680   1.834 -0.9148 -0.1538 -0.4243
  659MOL0     C88880  10.541   1.543   1.818 -0.1137  0.5965 -0.3118
  659MOL0     N88881  10.119   0.995   1.503 -0.0572  0.2622  0.1624
  659MOL0     N88882   9.992   0.983   1.482  0.4905 -0.6435 -0.5188
  659MOL0     C88883  10.390   0.897   0.753  0.5223  0.3086 -1.0185
  659MOL0     C88884  10.527   0.880   0.760  0.5313  0.0473 -0.2991
  659MOL0     C88885  10.921   0.634   0.870 -0.8160 -0.2725  0.0392
  659MOL0     C88886  10.978   0.668   0.745  0.4730 -0.7208  0.4490
  659MOL0     C88887  11.108   0.636   0.713  0.0608 -0.1243  0.1706
  659MOL0     C88888  11.197   0.586   0.813  0.1922 -0.7101 -0.4896
  659MOL0     O88889  11.335   0.559   0.794 -0.0684  0.3257 -0.7610
  659MOL0     C88890  11.399   0.611   0.672 -0.2260  1.3067 -0.6324
  659MOL0     C88891  11.380   0.508   0.560 -1.3836 -0.3377 -0.1766
  659MOL0     C88892  11.501   0.521   0.456 -0.0376 -0.6271 -0.3464
  659MOL0     C88893  11.513   0.664   0.411  0.2389  0.6730 -0.2135
  659MOL0     C88894  11.617   0.696   0.311 -1.7803 -0.2472  0.3466
  659MOL0     C88895  11.690   0.719   0.215 -0.6171 -0.0303 -0.5041
  659MOL0     C88896  11.142   0.560   0.937 -0.4067  0.1044 -0.8656
  659MOL0     C88897  11.009   0.575   0.970  1.0405 -0.2254  0.0240
  659MOL0     H88898  10.549   0.571   0.893  0.2085  0.8716  0.9112
  659MOL0     H88899  10.307   0.596   0.908  0.4525  0.3661 -0.0452
  659MOL0     H88900  10.102   0.705   0.979  3.4753  0.2819 -0.2860
  659MOL0     H88901  10.123   0.885   0.999  3.7252 -0.9155  0.4956
  659MOL0     H88902   9.931   0.915   0.859  0.1263 -0.5784  0.0751
  659MOL0     H88903   9.916   0.758   0.823  0.6103  4.5234 -3.3919
  659MOL0     H88904   9.857   0.683   1.051 -0.0763  0.2701 -1.5082
  659MOL0     H88905   9.904   0.836   1.127 -2.1010  1.7949 -0.0014
  659MOL0     H88906   9.727   0.961   0.990  0.0712  0.2771 -0.2708
  659MOL0     H88907   9.665   0.804   0.964 -1.7510  3.0621 -1.2529
  659MOL0     H88908   9.565   0.906   1.156 -4.2099 -6.3943 -0.2161
  659MOL0     H88909   9.646   0.750   1.192  0.7495  0.1152  0.8166
  659MOL0     H88910   9.666   0.901   1.377  1.8939 -1.3842  0.5316
  659MOL0     H88911   9.822   0.867   1.312  0.5432  0.6013  0.2232
  659MOL0     H88912   9.809   1.069   1.179 -2.1580  1.3577 -1.3105
  659MOL0     H88913   9.651   1.109   1.276  0.7458  0.6576  4.9645
  659MOL0     H88914   9.760   1.107   1.475 -0.3274  1.8521  0.6940
  659MOL0     H88915   9.812   1.241   1.373  1.2003  0.3052  0.8399
  659MOL0     H88916  10.052   1.272   1.341 -0.2418  0.1370 -0.0247
  659MOL0     H88917  10.378   1.102   1.405 -1.4434  1.3009 -2.4734
  659MOL0     H88918  10.322   1.265   1.449 -1.3431  1.1184 -0.5576
  659MOL0     H88919  10.475   1.139   1.616  0.2899  0.4037 -2.2372
  659MOL0     H88920  10.367   1.010   1.613  1.1510  0.0291 -1.3095
  659MOL0     H88921  10.348   1.123   1.823  2.0842 -1.8898 -1.5642
  659MOL0     H88922  10.194   1.119   1.742  0.1800 -0.6670 -1.1533
  659MOL0     H88923  10.235   1.334   1.854  0.4366  0.2803 -0.0521
  659MOL0     H88924  10.218   1.348   1.675  3.5183  0.4955 -3.3550
  659MOL0     H88925  10.223   1.549   1.703  0.2712 -0.7466  1.0848
  659MOL0     H88926  10.106   1.766   1.726 -1.5502  1.4377  0.5701
  659MOL0     H88927  10.191   1.872   1.835  0.8117 -3.1859  1.9803
  659MOL0     H88928  10.209   1.881   1.657  0.4445 -1.4932 -0.5537
  659MOL0     H88929  10.428   2.151   2.028 -0.6396 -0.6065 -1.8329
  659MOL0     H88930  10.542   2.364   2.079  0.8660  0.3663 -1.0555
  659MOL0     H88931  11.002   2.387   2.134  2.1075 -1.3973 -2.5426
  659MOL0     H88932  10.977   2.409   1.965  1.7448  1.3920  0.3142
  659MOL0     H88933  11.067   2.607   2.131  0.1151  0.0118 -0.9456
  659MOL0     H88934  10.979   2.646   1.985 -1.2349  0.7009  0.2421
  659MOL0     H88935  10.839   2.621   2.248 -1.0816  1.0314  0.7765
  659MOL0     H88936  10.784   2.693   2.087 -0.7000  2.5745  0.4141
  659MOL0     H88937  11.020   2.784   2.263  2.4527 -0.5157 -3.7952
  659MOL0     H88938  10.993   2.850   2.120  1.8141  2.2800  2.1264
  659MOL0     H88939  10.741   2.863   2.298 -1.4708  1.0101  0.6452
  659MOL0     H88940  10.782   2.948   2.155 -2.7033 -2.5138  0.2435
  659MOL0     H88941  10.908   2.959   2.439 -2.6840 -0.8501 -0.0579
  659MOL0     H88942  10.977   3.052   2.304  1.5295 -2.6376 -0.0465
  659MOL0     H88943  10.695   3.051   2.398 -1.5610  2.0768 -2.0325
  659MOL0     H88944  10.768   3.171   2.283  1.9089  1.4821 -0.4755
  659MOL0     H88945  10.840   3.142   2.576  0.4380  3.5276  1.9494
  659MOL0     H88946  10.731   3.256   2.511 -1.5246 -1.6671 -2.0396
  659MOL0     H88947  10.932   2.178   1.982  0.0238 -1.1842 -3.8543
  659MOL0     H88948  10.809   1.985   1.917  1.3733  1.6292 -0.4165
  659MOL0     H88949  10.656   1.707   1.870 -1.1804  0.4184 -0.1081
  659MOL0     H88950  10.623   1.477   1.845  2.6965  4.2184  0.8884
  659MOL0     H88951  10.371   0.996   0.714 -0.7937  0.3035 -0.4497
  659MOL0     H88952  10.590   0.955   0.713 -0.4608  0.8536 -0.3593
  659MOL0     H88953  10.920   0.711   0.663  0.8562 -0.7700  0.1502
  659MOL0     H88954  11.137   0.647   0.609 -2.1121 -1.1630 -0.6046
  659MOL0     H88955  11.350   0.706   0.652 -0.5484  0.2755 -6.6811
  659MOL0     H88956  11.504   0.624   0.699 -0.5442 -1.9623  3.0479
  659MOL0     H88957  11.291   0.520   0.498 -0.9557  0.3697 -0.6533
  659MOL0     H88958  11.389   0.410   0.608  3.7535  0.6337  1.4258
  659MOL0     H88959  11.483   0.454   0.371  0.9391  0.1753 -1.2116
  659MOL0     H88960  11.591   0.488   0.509 -0.8137 -0.2004  1.2881
  659MOL0     H88961  11.545   0.735   0.487  0.1481  0.2442  0.2323
  659MOL0     H88962  11.415   0.690   0.371 -0.2818 -0.9140 -0.0656
  659MOL0     H88963  11.762   0.746   0.141  0.5280  0.1664  0.6284
  659MOL0     H88964  11.205   0.507   1.008 -3.5664 -2.3807  0.3323
  659MOL0     H88965  10.975   0.548   1.070  0.4640  0.1321 -0.0691
  660MOL0     O88966   0.563   5.659   6.077  0.4185 -0.2594  0.2461
  660MOL0     C88967   0.570   5.554   6.016 -0.2330 -0.6023  0.8462
  660MOL0     O88968   0.577   5.433   6.071  0.2959 -0.1932  0.0350
  660MOL0     C88969   0.568   5.417   6.213  0.1953 -0.0233 -0.1809
  660MOL0     C88970   0.470   5.349   6.289 -0.4433  0.2756  0.2239
  660MOL0     C88971   0.463   5.349   6.426 -0.8738  0.8229 -0.3699
  660MOL0     C88972   0.546   5.426   6.500 -0.4258 -0.4680 -0.5085
  660MOL0     O88973   0.524   5.439   6.632  0.3422 -0.4157  0.0286
  660MOL0     C88974   0.628   5.439   6.731 -0.5314  0.0449 -0.0645
  660MOL0     C88975   0.578   5.529   6.846  0.2647 -0.7900  0.1732
  660MOL0     C88976   0.480   5.460   6.944  0.4078 -1.0010  1.8159
  660MOL0     C88977   0.373   5.566   6.991 -0.2364 -0.1235 -0.0792
  660MOL0     C88978   0.301   5.533   7.121  0.0741 -0.6065  0.7831
  660MOL0     C88979   0.211   5.399   7.114 -0.4928 -0.7562 -0.8385
  660MOL0     C88980   0.133   5.378   7.244 -0.5759 -0.3326 -0.0045
  660MOL0     C88981   0.071   5.232   7.259 -0.1565  1.1527  0.4180
  660MOL0     N88982   0.178   5.131   7.300  0.0574  0.0648 -0.3235
  660MOL0     C88983   0.261   5.069   7.210  0.0455  0.1365 -0.9534
  660MOL0     C88984   0.306   4.958   7.264  0.2395  0.4625 -0.3537
  660MOL0     C88985   0.378   4.854   7.191  1.1317  0.4033  0.0474
  660MOL0     C88986   0.525   4.831   7.250 -0.3309  0.2478 -0.2213
  660MOL0     C88987   0.568   4.693   7.208  0.4377  0.0144 -0.6860
  660MOL0     C88988   0.718   4.653   7.216  0.2313 -0.5603 -0.9915
  660MOL0     O88989   0.759   4.608   7.089 -0.5313  0.8093  0.4859
  660MOL0     C88990   0.893   4.622   7.076  0.0433  0.2487 -0.4558
  660MOL0     C88991   0.988   4.630   7.186 -0.7431  0.2950  0.1689
  660MOL0     C88992   1.131   4.610   7.165  0.8122 -0.1740 -0.5349
  660MOL0     C88993   1.224   4.616   7.282 -1.4639 -1.1706  0.0628
  660MOL0     C88994   1.175   4.598   7.031 -0.0853 -0.2134 -0.7924
  660MOL0     C88995   1.321   4.593   7.002  1.1399 -0.1210  0.3786
  660MOL0     O88996   1.394   4.509   7.072  0.0093 -0.3300  0.6783
  660MOL0     C88997   1.536   4.523   7.097  0.3428 -0.2918  0.1444
  660MOL0     C88998   1.617   4.639   7.102  1.1977 -0.1559 -0.0395
  660MOL0     C88999   1.756   4.632   7.133  0.1543 -0.1793  0.3371
  660MOL0     C89000   1.818   4.512   7.167  0.6802 -0.0730  0.4484
  660MOL0     O89001   1.942   4.514   7.226 -0.2482 -0.5537  1.1808
  660MOL0     C89002   1.996   4.399   7.294 -0.6482  0.1913 -0.1089
  660MOL0     C89003   2.074   4.313   7.198  0.2829  0.2825 -0.1312
  660MOL0     C89004   2.074   4.167   7.237 -0.5006  0.2141  0.2595
  660MOL0     C89005   2.170   4.142   7.357 -0.6701  0.0348  0.2827
  660MOL0     C89006   2.181   3.994   7.377 -0.7458 -0.7568 -1.1795
  660MOL0     C89007   2.308   3.939   7.294  0.6532  0.3673  0.1713
  660MOL0     C89008   2.328   3.783   7.313 -0.5516  0.3050  0.0706
  660MOL0     C89009   2.431   3.726   7.220 -1.2876 -0.0863 -0.3547
  660MOL0    Cl89010   2.494   3.569   7.282 -0.3210  0.1805 -0.0629
  660MOL0     C89011   1.739   4.394   7.154 -0.2243  1.2292 -0.1092
  660MOL0     C89012   1.603   4.400   7.115  0.2865 -0.5052  0.6090
  660MOL0     O89013   1.357   4.638   6.895 -0.1307  0.0201  0.5267
  660MOL0     C89014   1.087   4.590   6.923 -0.7390  0.5067  0.2258
  660MOL0     C89015   0.953   4.605   6.947  0.1164 -0.3491 -0.5361
  660MOL0     N89016   0.257   4.954   7.393  0.0337 -0.1350  0.6364
  660MOL0     N89017   0.192   5.059   7.413 -0.5317  0.3424 -0.7557
  660MOL0     C89018   0.645   5.504   6.431 -0.0302 -0.8538  0.0987
  660MOL0     C89019   0.648   5.501   6.293 -0.8390 -0.0052  0.4369
  660MOL0     C89020   0.557   5.571   5.872 -0.4438  0.0197 -1.2486
  660MOL0     C89021   0.594   5.463   5.790  0.1555  0.5723 -0.6879
  660MOL0     C89022   0.570   5.471   5.654  0.2244 -0.0612 -0.1523
  660MOL0     C89023   0.499   5.580   5.596 -0.2297 -0.1538  0.1364
  660MOL0     O89024   0.448   5.586   5.477 -0.2817  0.2537  0.1860
  660MOL0     C89025   0.401   5.454   5.432  0.2496  0.4160 -0.1140
  660MOL0     C89026   0.505   5.399   5.326  0.3416  0.8382 -0.3151
  660MOL0     C89027   0.438   5.315   5.212  0.4343  0.0091  0.0800
  660MOL0     C89028   0.399   5.404   5.090  0.2582 -1.1744 -0.0644
  660MOL0     C89029   0.302   5.337   5.003 -0.0926 -0.9292 -0.0264
  660MOL0     C89030   0.232   5.271   4.932  0.0475  0.4888  0.4599
  660MOL0     C89031   0.474   5.689   5.677  0.0073 -0.2574 -0.9890
  660MOL0     C89032   0.506   5.692   5.813 -0.3534  0.5716 -0.0872
  660MOL0     H89033   0.400   5.294   6.228  0.0151 -0.0694  0.0044
  660MOL0     H89034   0.396   5.278   6.472  3.0316 -0.1567  4.7287
  660MOL0     H89035   0.645   5.340   6.773 -0.9086  0.2469  0.5844
  660MOL0     H89036   0.720   5.485   6.693  0.4492 -0.9547  1.0234
  660MOL0     H89037   0.665   5.567   6.899 -0.1865 -0.8043  0.9482
  660MOL0     H89038   0.542   5.620   6.797  1.8349 -0.7966 -1.0570
  660MOL0     H89039   0.427   5.372   6.904 -1.7526  1.1925 -0.5163
  660MOL0     H89040   0.543   5.428   7.027  2.6630  0.2505  0.7066
  660MOL0     H89041   0.422   5.664   6.995 -1.0355  0.3194 -0.8626
  660MOL0     H89042   0.290   5.567   6.921 -0.2063 -0.2694 -0.1166
  660MOL0     H89043   0.383   5.519   7.192  1.3255 -1.5762 -0.7680
  660MOL0     H89044   0.240   5.617   7.154  1.7639  0.1931  1.9627
  660MOL0     H89045   0.140   5.407   7.032 -0.0821 -2.2240 -1.3640
  660MOL0     H89046   0.283   5.318   7.096 -0.4619 -0.1612 -3.9308
  660MOL0     H89047   0.204   5.401   7.324 -1.3449 -0.1556  0.6388
  660MOL0     H89048   0.043   5.440   7.248 -1.0202 -0.8751 -1.0875
  660MOL0     H89049   0.031   5.207   7.161  0.7390  2.6029 -0.3636
  660MOL0     H89050   0.002   5.244   7.343 -2.4115 -1.3799 -0.9330
  660MOL0     H89051   0.261   5.100   7.106 -3.5290 -0.4938 -1.2576
  660MOL0     H89052   0.314   4.765   7.195 -2.6663  2.9772  2.1912
  660MOL0     H89053   0.391   4.867   7.083  0.2972  1.3452  0.0487
  660MOL0     H89054   0.526   4.839   7.359 -0.9336  1.5410 -0.2926
  660MOL0     H89055   0.591   4.906   7.206 -0.4792  0.1409 -0.6397
  660MOL0     H89056   0.543   4.699   7.102  4.3777  2.6990 -1.6740
  660MOL0     H89057   0.498   4.624   7.257  1.5673 -1.7228 -1.4040
  660MOL0     H89058   0.749   4.583   7.295  0.7198  1.3826  0.6222
  660MOL0     H89059   0.763   4.749   7.241  0.3904 -0.7799 -0.4007
  660MOL0     H89060   0.962   4.653   7.289 -0.8892  0.7801  0.0296
  660MOL0     H89061   1.290   4.529   7.279  2.2793  1.4542 -1.4031
  660MOL0     H89062   1.280   4.711   7.286 -4.7572  0.9114  1.1310
  660MOL0     H89063   1.182   4.604   7.382  0.6743 -2.5132  0.8773
  660MOL0     H89064   1.579   4.740   7.095  2.5692  0.4988  1.2692
  660MOL0     H89065   1.821   4.716   7.157  1.4682 -0.9463 -0.4236
  660MOL0     H89066   2.060   4.457   7.361  0.3561 -0.1364 -0.7738
  660MOL0     H89067   1.920   4.338   7.344 -1.9875  1.3991 -0.5678
  660MOL0     H89068   2.031   4.320   7.098 -1.9126 -3.3542  0.3668
  660MOL0     H89069   2.169   4.367   7.207 -0.4713  1.3883  1.9422
  660MOL0     H89070   2.106   4.109   7.150  2.2534  1.2251  0.4751
  660MOL0     H89071   1.974   4.139   7.270  0.5761 -0.5218  3.2971
  660MOL0     H89072   2.274   4.175   7.347 -0.8773  0.7155  0.2972
  660MOL0     H89073   2.119   4.187   7.442 -3.1406  0.8766 -1.5304
  660MOL0     H89074   2.093   3.942   7.338 -0.6815  1.3475 -4.5193
  660MOL0     H89075   2.190   3.971   7.483 -2.7075 -1.0316 -1.0442
  660MOL0     H89076   2.295   3.967   7.188 -2.2601 -0.8643  0.1136
  660MOL0     H89077   2.397   3.992   7.329 -0.0956  0.8387  1.4070
  660MOL0     H89078   2.233   3.730   7.304 -0.3189 -0.0912 -0.0772
  660MOL0     H89079   2.367   3.771   7.414  0.0029  0.1215 -0.1615
  660MOL0     H89080   2.521   3.787   7.213 -0.8600 -0.4076  1.8555
  660MOL0     H89081   2.393   3.708   7.118  1.4629 -0.3309 -1.4095
  660MOL0     H89082   1.781   4.295   7.165 -1.3660  0.6289 -0.9396
  660MOL0     H89083   1.549   4.307   7.105 -0.9311  0.4541 -4.4585
  660MOL0     H89084   1.125   4.575   6.822  2.8107 -1.8107  1.6963
  660MOL0     H89085   0.877   4.588   6.871  0.1522 -2.9813 -0.0964
  660MOL0     H89086   0.724   5.563   6.477  1.2599 -4.0385  2.3069
  660MOL0     H89087   0.728   5.556   6.244 -0.1222 -3.2280 -2.3910
  660MOL0     H89088   0.641   5.376   5.834  1.7771  0.1215 -3.1238
  660MOL0     H89089   0.602   5.392   5.587  0.2960 -0.4315  0.3094
  660MOL0     H89090   0.389   5.384   5.516  0.9182 -0.5049 -0.7574
  660MOL0     H89091   0.306   5.482   5.387  0.3601  0.9782  0.0041
  660MOL0     H89092   0.580   5.334   5.373 -1.4346 -0.6301  0.6143
  660MOL0     H89093   0.553   5.484   5.277  1.7457  0.5684  0.5276
  660MOL0     H89094   0.347   5.282   5.261  0.2012  0.7459  0.1572
  660MOL0     H89095   0.490   5.226   5.175 -1.3213 -0.7848 -0.5304
  660MOL0     H89096   0.487   5.419   5.027  2.0686  0.9966  2.7790
  660MOL0     H89097   0.365   5.497   5.137  0.5414 -0.6591 -0.8561
  660MOL0     H89098   0.176   5.211   4.863 -3.3170  2.3214  1.3690
  660MOL0     H89099   0.427   5.773   5.626  1.0555  0.0404 -1.4879
  660MOL0     H89100   0.508   5.785   5.868  1.6410 -1.2953  3.3516
  661MOL0     O89101   5.661   6.195   7.509  0.5722  0.3182  0.7939
  661MOL0     C89102   5.545   6.169   7.473 -1.4180 -0.7132 -0.8547
  661MOL0     O89103   5.435   6.250   7.486  0.2383 -0.8853  0.3584
  661MOL0     C89104   5.449   6.368   7.549 -0.1756  0.8256 -0.2251
  661MOL0     C89105   5.488   6.491   7.484  0.5088 -0.5546 -0.5250
  661MOL0     C89106   5.470   6.612   7.553  0.5764  0.0887  0.0127
  661MOL0     C89107   5.436   6.616   7.685 -0.5564  0.0085  1.0048
  661MOL0     O89108   5.412   6.744   7.741 -0.6858 -0.2425 -0.9791
  661MOL0     C89109   5.516   6.800   7.823  0.2130 -0.1756 -0.4510
  661MOL0     C89110   5.540   6.726   7.954 -0.0792  0.0433 -0.1257
  661MOL0     C89111   5.413   6.722   8.038  0.0010 -0.5436 -0.3856
  661MOL0     C89112   5.423   6.654   8.170 -0.2890 -0.4495  0.6453
  661MOL0     C89113   5.297   6.665   8.244  0.3670 -0.9329  0.8088
  661MOL0     C89114   5.314   6.605   8.379 -0.5531  0.7624 -0.4458
  661MOL0     C89115   5.195   6.643   8.465  0.3361 -0.6852  0.6500
  661MOL0     C89116   5.057   6.581   8.422 -0.4945  0.7813 -0.5783
  661MOL0     N89117   4.961   6.686   8.385 -0.5850 -0.5050 -0.3022
  661MOL0     C89118   4.941   6.742   8.260 -0.1076  0.4178 -0.1644
  661MOL0     C89119   4.861   6.854   8.284 -0.5385  0.3427 -0.7463
  661MOL0     C89120   4.827   6.955   8.170  0.3408 -0.2946 -0.1156
  661MOL0     C89121   4.855   7.104   8.215 -0.3082  0.0230  0.4980
  661MOL0     C89122   5.006   7.125   8.260 -0.4703  0.5292 -0.1834
  661MOL0     C89123   5.054   7.271   8.272 -0.9180 -0.2569 -0.5882
  661MOL0     O89124   5.178   7.286   8.342 -0.4948  0.3506 -0.0056
  661MOL0     C89125   5.246   7.405   8.327  0.2822 -0.3271  0.6178
  661MOL0     C89126   5.373   7.414   8.383 -0.0438 -0.1901 -0.4428
  661MOL0     C89127   5.442   7.537   8.394 -0.2894  1.4605 -0.4033
  661MOL0     C89128   5.570   7.536   8.479 -0.2516  0.0758 -0.3311
  661MOL0     C89129   5.393   7.660   8.335 -0.3969  0.1014  0.2951
  661MOL0     C89130   5.457   7.791   8.335 -0.8161 -0.8760  0.3527
  661MOL0     O89131   5.411   7.875   8.235 -0.5254 -0.1835  1.0345
  661MOL0     C89132   5.493   7.971   8.170 -0.3294  0.6075  0.8884
  661MOL0     C89133   5.621   8.012   8.202 -0.6036 -0.0566  0.3553
  661MOL0     C89134   5.686   8.115   8.122  0.2344 -0.2336  0.2889
  661MOL0     C89135   5.622   8.175   8.010  0.6500  0.0071  1.0064
  661MOL0     O89136   5.697   8.255   7.922 -0.8534  0.6638 -0.1379
  661MOL0     C89137   5.633   8.335   7.824  0.0572  0.3196  0.1864
  661MOL0     C89138   5.738   8.428   7.755  1.1782 -0.0096  0.5737
  661MOL0     C89139   5.811   8.524   7.846  0.8508  0.7262  0.1441
  661MOL0     C89140   5.897   8.620   7.774  0.1184 -0.4788  0.5202
  661MOL0     C89141   6.005   8.692   7.865 -0.1674 -0.1584 -0.1871
  661MOL0     C89142   6.122   8.726   7.785  1.1037  0.5641  0.0373
  661MOL0     C89143   6.232   8.791   7.858 -0.1493 -0.0370  0.6986
  661MOL0     C89144   6.195   8.936   7.884 -0.4199  0.1555  0.5739
  661MOL0    Cl89145   6.334   9.034   7.892  0.1751 -0.3129  0.1533
  661MOL0     C89146   5.493   8.124   7.973 -0.7389 -1.1578  0.3512
  661MOL0     C89147   5.433   8.028   8.054 -0.0029 -0.9607  1.2941
  661MOL0     O89148   5.559   7.812   8.394 -0.9006 -0.0596  0.1008
  661MOL0     C89149   5.270   7.643   8.261  0.0840  0.5155 -0.6878
  661MOL0     C89150   5.201   7.523   8.264  0.3644  0.4173 -0.2873
  661MOL0     N89151   4.837   6.854   8.420  0.2520 -0.6167  0.0644
  661MOL0     N89152   4.888   6.757   8.480  0.1370 -0.0475  0.4869
  661MOL0     C89153   5.409   6.497   7.751  0.0134  0.0088  0.0125
  661MOL0     C89154   5.422   6.371   7.683 -0.4706 -0.0965 -0.3776
  661MOL0     C89155   5.515   6.038   7.405  0.2285 -1.0323  0.0694
  661MOL0     C89156   5.617   5.953   7.363  0.3482 -0.7855  0.8253
  661MOL0     C89157   5.593   5.843   7.281  0.0530  0.4065  0.0868
  661MOL0     C89158   5.460   5.808   7.254  0.2120  0.0390  0.7850
  661MOL0     O89159   5.420   5.708   7.160  0.4333 -0.0305  0.1455
  661MOL0     C89160   5.511   5.601   7.125 -0.1862 -0.3174 -0.2305
  661MOL0     C89161   5.442   5.467   7.139 -0.3001 -0.3262 -0.0980
  661MOL0     C89162   5.407   5.441   7.282  0.1939 -0.4296 -0.2296
  661MOL0     C89163   5.347   5.302   7.306  0.7212  0.2578 -0.1725
  661MOL0     C89164   5.438   5.194   7.265 -0.3348  0.0479 -0.8180
  661MOL0     C89165   5.513   5.104   7.217  0.0114 -0.4983  0.2098
  661MOL0     C89166   5.350   5.890   7.296  0.1895  0.9233 -0.9012
  661MOL0     C89167   5.381   6.000   7.380  0.1844  0.4335 -0.6131
  661MOL0     H89168   5.491   6.480   7.376  1.5882  1.1558 -0.7095
  661MOL0     H89169   5.468   6.708   7.503 -3.4505  1.0119  1.5544
  661MOL0     H89170   5.605   6.806   7.760 -0.3923  0.9654 -1.2222
  661MOL0     H89171   5.498   6.904   7.851  1.5116 -0.0445 -0.0159
  661MOL0     H89172   5.583   6.628   7.932  1.0304 -0.0524  2.1268
  661MOL0     H89173   5.618   6.779   8.009 -3.3825  3.4968  1.6821
  661MOL0     H89174   5.375   6.824   8.052 -3.0849 -1.6626  0.0397
  661MOL0     H89175   5.333   6.674   7.982  0.2183 -1.1015 -0.2189
  661MOL0     H89176   5.442   6.550   8.141  0.2666  0.1526 -1.3103
  661MOL0     H89177   5.505   6.706   8.221 -0.6732  0.4065  0.3968
  661MOL0     H89178   5.273   6.772   8.240  1.0595 -0.8124 -1.5372
  661MOL0     H89179   5.222   6.618   8.179  1.6856 -0.9682 -0.7611
  661MOL0     H89180   5.332   6.497   8.377  2.1982  1.1197  0.1190
  661MOL0     H89181   5.397   6.654   8.430  1.9442 -3.5211  0.1163
  661MOL0     H89182   5.211   6.620   8.571  1.8419  1.4836  0.9775
  661MOL0     H89183   5.175   6.750   8.451  1.0085 -0.5120  0.9355
  661MOL0     H89184   5.006   6.517   8.495 -0.2626 -0.2294 -1.2750
  661MOL0     H89185   5.075   6.513   8.338  0.0539  1.5564 -1.1002
  661MOL0     H89186   4.979   6.710   8.164 -1.0475  4.8332 -2.2593
  661MOL0     H89187   4.887   6.925   8.084  1.8603  0.7565  0.5247
  661MOL0     H89188   4.720   6.936   8.158  0.1838 -0.0448  0.8241
  661MOL0     H89189   4.792   7.128   8.301 -2.0594  0.7679 -0.9255
  661MOL0     H89190   4.835   7.173   8.133 -0.6394 -1.9197 -1.1315
  661MOL0     H89191   5.064   7.068   8.187 -1.1788 -0.8688  0.3075
  661MOL0     H89192   5.025   7.066   8.350  1.9963  1.1575 -0.2118
  661MOL0     H89193   4.981   7.319   8.337 -1.0793  0.8334 -1.5459
  661MOL0     H89194   5.051   7.312   8.170  1.3134 -2.4938 -1.6676
  661MOL0     H89195   5.425   7.330   8.429 -4.0784 -0.9204  3.5373
  661MOL0     H89196   5.649   7.574   8.413 -2.3708  2.8568 -1.4652
  661MOL0     H89197   5.560   7.600   8.567 -1.8416  0.3864 -0.7118
  661MOL0     H89198   5.588   7.434   8.515  0.6031 -0.6306 -2.5505
  661MOL0     H89199   5.676   7.965   8.283  1.4639 -2.0350 -2.0524
  661MOL0     H89200   5.780   8.150   8.162  0.4494 -0.1965 -0.2455
  661MOL0     H89201   5.590   8.269   7.748  0.9887  3.0930 -3.0099
  661MOL0     H89202   5.556   8.398   7.868 -0.5638  1.7963 -2.7329
  661MOL0     H89203   5.814   8.372   7.702  0.7632  1.7439 -2.0489
  661MOL0     H89204   5.680   8.479   7.678  2.3036  0.0745 -0.2429
  661MOL0     H89205   5.873   8.461   7.910 -1.2223  1.2232  2.8850
  661MOL0     H89206   5.741   8.590   7.899  2.7486  2.8847  0.1305
  661MOL0     H89207   5.945   8.577   7.686 -3.4730  0.5864 -2.2058
  661MOL0     H89208   5.826   8.692   7.731  0.0877 -0.7886  0.0533
  661MOL0     H89209   6.033   8.611   7.933 -0.9738  0.0778  0.4557
  661MOL0     H89210   5.963   8.775   7.923 -2.5190 -0.7463 -0.9528
  661MOL0     H89211   6.159   8.640   7.728 -1.1019 -0.1505 -0.4148
  661MOL0     H89212   6.073   8.790   7.712  0.5175 -1.3399 -1.3223
  661MOL0     H89213   6.314   8.790   7.785 -2.0907 -1.9219 -1.6000
  661MOL0     H89214   6.260   8.736   7.948  1.0831 -3.6971 -1.6644
  661MOL0     H89215   6.133   8.940   7.974 -2.6290  1.8877 -0.8923
  661MOL0     H89216   6.137   8.974   7.800 -1.6604 -0.1223  1.2849
  661MOL0     H89217   5.439   8.181   7.897  4.3024  1.8732 -1.4753
  661MOL0     H89218   5.333   7.989   8.037 -0.4944  1.0080 -0.8067
  661MOL0     H89219   5.228   7.720   8.197 -2.0973  0.6160  0.7686
  661MOL0     H89220   5.101   7.534   8.223 -0.1976 -0.2295  0.8627
  661MOL0     H89221   5.385   6.499   7.857  1.7210  1.3588  0.4363
  661MOL0     H89222   5.394   6.277   7.728 -1.9515  1.3883  2.0136
  661MOL0     H89223   5.720   5.970   7.392  1.3172 -3.0572 -1.0094
  661MOL0     H89224   5.678   5.789   7.240 -1.7019 -1.0025 -1.9334
  661MOL0     H89225   5.540   5.610   7.019 -0.1131  1.7129 -0.0680
  661MOL0     H89226   5.602   5.600   7.185 -1.2445  0.4595  1.4525
  661MOL0     H89227   5.516   5.393   7.107 -0.0907 -0.5411  0.8681
  661MOL0     H89228   5.351   5.485   7.080  0.4567 -3.1697 -2.3630
  661MOL0     H89229   5.332   5.516   7.310 -1.4490 -1.3235 -1.9752
  661MOL0     H89230   5.496   5.460   7.341  0.8676 -0.8083 -1.1061
  661MOL0     H89231   5.255   5.280   7.252  0.8368 -0.4470 -0.0970
  661MOL0     H89232   5.336   5.297   7.415  0.8806 -1.1322 -0.2013
  661MOL0     H89233   5.573   5.025   7.178  1.3512  0.8427 -0.5300
  661MOL0     H89234   5.250   5.878   7.255 -0.8522  0.4734  1.6117
  661MOL0     H89235   5.300   6.068   7.407 -1.3614 -0.6959 -2.2153
  662MOL0     O89236   8.328   2.957  10.103 -0.7393 -0.2649  0.9110
  662MOL0     C89237   8.410   3.023  10.173  0.0327  0.0645 -0.5411
  662MOL0     O89238   8.527   3.079  10.134  0.3336 -0.4469 -0.4961
  662MOL0     C89239   8.583   3.050  10.020 -0.6319  1.1746 -0.3666
  662MOL0     C89240   8.697   2.960  10.024  0.1581  0.0369  0.5738
  662MOL0     C89241   8.756   2.917   9.901  0.6324 -0.1816 -0.3016
  662MOL0     C89242   8.692   2.952   9.782 -0.8853 -0.1603  0.1940
  662MOL0     O89243   8.740   2.910   9.659 -0.5477  0.6671  0.4227
  662MOL0     C89244   8.859   2.830   9.641 -0.3490 -1.3901 -0.5928
  662MOL0     C89245   8.870   2.769   9.502 -0.2142  0.9832  0.0707
  662MOL0     C89246   8.878   2.875   9.397 -0.5730 -0.2642  0.4002
  662MOL0     C89247   8.743   2.872   9.333 -0.1063  0.1840  0.3623
  662MOL0     C89248   8.741   2.968   9.212 -0.6385 -0.4932 -0.6282
  662MOL0     C89249   8.762   3.120   9.243  0.3776 -0.3846  0.1767
  662MOL0     C89250   8.686   3.168   9.365 -0.3301  0.7969 -0.1950
  662MOL0     C89251   8.682   3.311   9.368  0.0062 -0.2845  0.5601
  662MOL0     N89252   8.600   3.367   9.479 -0.0627 -0.1250  0.0790
  662MOL0     C89253   8.637   3.479   9.566  0.5371 -0.0645  0.2880
  662MOL0     C89254   8.551   3.462   9.672  0.2008 -0.3287  0.8220
  662MOL0     C89255   8.541   3.548   9.793  0.5896  0.0516  0.2540
  662MOL0     C89256   8.414   3.633   9.785  0.8738  0.0325 -0.3243
  662MOL0     C89257   8.385   3.716   9.916 -0.0200  0.6665 -0.6829
  662MOL0     C89258   8.502   3.799   9.963 -0.1012  0.8792 -0.2127
  662MOL0     O89259   8.498   3.914   9.889 -1.1969 -0.0812  0.5415
  662MOL0     C89260   8.590   4.017   9.916 -0.3737  0.3817 -0.4354
  662MOL0     C89261   8.707   4.013   9.999 -0.5547  0.1125 -0.3426
  662MOL0     C89262   8.781   4.135  10.021  0.6986  0.7537  0.4132
  662MOL0     C89263   8.901   4.115  10.114  0.0407  0.9283 -0.1341
  662MOL0     C89264   8.744   4.256   9.948 -0.7202  0.5066 -0.3502
  662MOL0     C89265   8.816   4.382   9.965 -0.2902 -0.5651  0.1158
  662MOL0     O89266   8.947   4.376   9.967 -0.1459  0.0533  0.1563
  662MOL0     C89267   9.008   4.496   9.981  0.5583  0.5168 -0.0847
  662MOL0     C89268   9.011   4.563  10.106  0.6765 -0.6716  0.6349
  662MOL0     C89269   9.072   4.684  10.112  1.8157  0.1951 -0.0217
  662MOL0     C89270   9.120   4.746   9.999  0.0411  0.4895 -0.2846
  662MOL0     O89271   9.164   4.874   9.990  0.0681  0.0680 -0.2656
  662MOL0     C89272   9.268   4.912  10.069 -0.7696 -0.6854 -0.3547
  662MOL0     C89273   9.289   5.064  10.040  0.0744 -0.0776  0.1388
  662MOL0     C89274   9.185   5.162  10.103  0.0039  0.5340  0.5868
  662MOL0     C89275   9.232   5.230  10.227  0.6674 -0.8840  1.0016
  662MOL0     C89276   9.159   5.372  10.237  0.7236 -0.4771 -1.6477
  662MOL0     C89277   9.006   5.357  10.249  0.2773  0.1371  0.0011
  662MOL0     C89278   8.932   5.378  10.126  0.1293  0.2503  0.1292
  662MOL0     C89279   8.892   5.525  10.097 -0.6230  1.3462  0.3237
  662MOL0    Cl89280   8.755   5.535   9.984 -0.6721 -0.2420 -0.4166
  662MOL0     C89281   9.131   4.669   9.879 -0.3334 -0.3768  1.0816
  662MOL0     C89282   9.072   4.546   9.867 -0.8362 -0.4304 -0.1692
  662MOL0     O89283   8.749   4.482   9.994  1.1446  1.0828 -0.4963
  662MOL0     C89284   8.635   4.247   9.862 -0.2921  0.6168  0.0581
  662MOL0     C89285   8.561   4.135   9.846  0.1097  0.1016 -0.5221
  662MOL0     N89286   8.471   3.350   9.650 -0.1039 -0.2485 -0.1500
  662MOL0     N89287   8.491   3.301   9.526  1.2619 -0.3044 -1.3647
  662MOL0     C89288   8.591   3.046   9.778 -0.4102 -0.1495  0.6735
  662MOL0     C89289   8.537   3.098   9.895  0.2647 -0.5157 -0.3652
  662MOL0     C89290   8.365   3.047  10.314 -0.0190  0.1567 -0.5842
  662MOL0     C89291   8.440   3.116  10.402 -0.2750 -0.0059  0.2785
  662MOL0     C89292   8.399   3.133  10.535 -0.1717  0.4596  0.0625
  662MOL0     C89293   8.305   3.060  10.596  1.3238  0.8635  0.6746
  662MOL0     O89294   8.265   3.071  10.721 -0.1137  0.2675  0.2207
  662MOL0     C89295   8.268   2.943  10.788 -0.9643 -0.6529  0.6453
  662MOL0     C89296   8.284   2.967  10.940  0.0198  0.2537 -0.2406
  662MOL0     C89297   8.181   3.058  10.994 -0.1507 -0.6755  0.5419
  662MOL0     C89298   8.242   3.193  11.040 -0.1653 -0.5112 -0.6837
  662MOL0     C89299   8.141   3.257  11.124  0.5741 -0.1920 -0.0882
  662MOL0     C89300   8.049   3.319  11.182 -0.8410  0.1642 -0.4993
  662MOL0     C89301   8.223   2.978  10.507  0.2614  0.6150  0.1238
  662MOL0     C89302   8.261   2.970  10.368  0.2893  0.1006 -0.1637
  662MOL0     H89303   8.719   2.924  10.124  0.6754 -0.4363  0.2936
  662MOL0     H89304   8.848   2.859   9.910  1.3074  0.6112 -1.7985
  662MOL0     H89305   8.948   2.891   9.662 -2.0163  0.6650  0.9591
  662MOL0     H89306   8.849   2.744   9.708 -1.1609  0.5054  1.9148
  662MOL0     H89307   8.961   2.707   9.504 -0.4848  0.5914  0.4508
  662MOL0     H89308   8.792   2.693   9.492 -0.8692  0.9761  3.8047
  662MOL0     H89309   8.898   2.977   9.433 -1.1510  0.2421 -0.6799
  662MOL0     H89310   8.947   2.853   9.314 -1.3316 -0.7461 -0.1095
  662MOL0     H89311   8.716   2.773   9.295  0.3840 -0.4651  1.6422
  662MOL0     H89312   8.662   2.899   9.401  0.9701  1.5496  1.1465
  662MOL0     H89313   8.806   2.922   9.136 -1.2662 -1.0704 -0.8215
  662MOL0     H89314   8.645   2.957   9.162 -1.0326 -0.6318  0.1489
  662MOL0     H89315   8.862   3.161   9.263 -0.9482  2.6623  1.1981
  662MOL0     H89316   8.730   3.177   9.156  2.3542  1.1653  0.3861
  662MOL0     H89317   8.594   3.111   9.380  0.7447 -0.3912  2.6621
  662MOL0     H89318   8.740   3.148   9.458  1.2182  2.9698 -0.5452
  662MOL0     H89319   8.648   3.356   9.274  0.0689  0.4763  0.8992
  662MOL0     H89320   8.780   3.357   9.380  0.2761 -0.2525 -1.3292
  662MOL0     H89321   8.701   3.561   9.535 -0.3944  0.9744  1.0442
  662MOL0     H89322   8.544   3.486   9.884  0.2651 -0.9593 -0.4053
  662MOL0     H89323   8.631   3.610   9.783 -0.5950  1.6893 -0.5440
  662MOL0     H89324   8.330   3.564   9.777 -0.1014  1.2338 -0.7740
  662MOL0     H89325   8.411   3.689   9.691 -1.3035 -0.9477 -0.9072
  662MOL0     H89326   8.362   3.640   9.991 -2.3805 -0.9708 -2.9201
  662MOL0     H89327   8.296   3.777   9.901  0.0725  1.8304  2.5960
  662MOL0     H89328   8.597   3.745   9.957  0.5444  1.4372  3.0524
  662MOL0     H89329   8.490   3.826  10.068  1.4149 -1.8804  0.7667
  662MOL0     H89330   8.738   3.924  10.054 -2.5752 -1.0871 -1.0059
  662MOL0     H89331   8.882   4.030  10.180  1.4973  0.2550 -0.5513
  662MOL0     H89332   8.995   4.090  10.065  1.0822  1.1923  1.6631
  662MOL0     H89333   8.915   4.202  10.179 -1.8375  1.8336 -0.8648
  662MOL0     H89334   8.976   4.505  10.192 -0.0853 -1.2828 -0.0693
  662MOL0     H89335   9.071   4.734  10.208 -2.3748  2.8576 -1.2118
  662MOL0     H89336   9.248   4.909  10.177  0.7104 -2.2693 -0.0876
  662MOL0     H89337   9.353   4.844  10.058  1.5843  2.0586 -0.4187
  662MOL0     H89338   9.390   5.093  10.071 -1.0362  0.1177  4.0523
  662MOL0     H89339   9.291   5.059   9.930  3.7663  3.5869 -0.2114
  662MOL0     H89340   9.092   5.106  10.119  0.5763 -0.6284 -0.0129
  662MOL0     H89341   9.157   5.235  10.027  0.6271  0.2053  0.0383
  662MOL0     H89342   9.211   5.167  10.314  4.1395 -3.0369  0.4801
  662MOL0     H89343   9.339   5.251  10.216  0.2014  0.8342 -0.9672
  662MOL0     H89344   9.191   5.438  10.156 -1.7095  2.0039 -0.7314
  662MOL0     H89345   9.194   5.428  10.324  1.8621 -1.7490 -1.2469
  662MOL0     H89346   8.990   5.258  10.293 -2.4767  0.0593 -1.0198
  662MOL0     H89347   8.974   5.426  10.327  1.3384  3.1056 -2.0178
  662MOL0     H89348   8.838   5.324  10.139 -0.1148  0.6840  0.2100
  662MOL0     H89349   8.981   5.340  10.036  1.1948  3.6736 -0.9169
  662MOL0     H89350   8.972   5.578  10.045 -2.3038  0.9065 -2.9528
  662MOL0     H89351   8.864   5.573  10.192  0.8083  0.2228  1.3617
  662MOL0     H89352   9.163   4.722   9.790 -2.2581  0.7778  1.0171
  662MOL0     H89353   9.075   4.490   9.774 -2.8038 -2.2652  0.7679
  662MOL0     H89354   8.601   4.337   9.811  4.2820  2.4940 -0.2034
  662MOL0     H89355   8.477   4.148   9.779 -2.3370  2.2313  2.6565
  662MOL0     H89356   8.549   3.071   9.681  0.2335 -1.1467  0.1216
  662MOL0     H89357   8.464   3.178   9.887  2.4456  1.6674  0.2164
  662MOL0     H89358   8.533   3.162  10.371  1.0097 -1.4968  1.7717
  662MOL0     H89359   8.441   3.216  10.592 -2.4409  0.5977  1.6372
  662MOL0     H89360   8.173   2.891  10.775 -0.7909 -0.6429 -0.8246
  662MOL0     H89361   8.357   2.891  10.750 -0.3608  0.7789  0.0073
  662MOL0     H89362   8.385   3.001  10.964 -0.2110  1.1771 -0.5431
  662MOL0     H89363   8.277   2.873  10.997 -0.2109  1.1559  1.2744
  662MOL0     H89364   8.154   3.002  11.084 -1.7667 -2.9817 -1.2788
  662MOL0     H89365   8.098   3.068  10.924  2.8820 -0.5054 -3.3357
  662MOL0     H89366   8.279   3.252  10.956 -0.2496  0.1677 -0.2491
  662MOL0     H89367   8.329   3.188  11.106 -0.0267 -1.8548 -0.9424
  662MOL0     H89368   7.962   3.367  11.223 -0.3449  0.6092  0.0666
  662MOL0     H89369   8.139   2.922  10.546  0.9485  0.6507  1.7388
  662MOL0     H89370   8.196   2.903  10.312  0.3767 -0.7062  0.6746
  663MOL0     O89371   2.630   9.723  10.582  0.4442 -0.0326  0.3791
  663MOL0     C89372   2.651   9.847  10.571 -0.7372 -0.3934  1.1785
  663MOL0     O89373   2.750   9.895  10.487  0.0966  0.4274  0.3941
  663MOL0     C89374   2.850   9.805  10.481 -0.7200 -0.8483 -0.0988
  663MOL0     C89375   2.951   9.795  10.581  0.6072 -0.0596 -0.1858
  663MOL0     C89376   3.056   9.695  10.576  0.2261 -0.2276 -0.6806
  663MOL0     C89377   3.062   9.617  10.457  0.1240  0.2695  0.1551
  663MOL0     O89378   3.158   9.521  10.440 -0.2861  0.2644 -0.4899
  663MOL0     C89379   3.281   9.521  10.518  0.5265  0.1823  0.3047
  663MOL0     C89380   3.382   9.445  10.429  0.5507 -0.2224 -0.5288
  663MOL0     C89381   3.478   9.538  10.355 -0.6399 -0.1167  0.7799
  663MOL0     C89382   3.599   9.484  10.268  0.6922  0.4106  0.6440
  663MOL0     C89383   3.698   9.591  10.243  0.1763  0.0581  0.5487
  663MOL0     C89384   3.823   9.558  10.163 -0.0562 -0.3472 -0.5103
  663MOL0     C89385   3.874   9.657  10.054 -0.5577 -0.5046  0.2449
  663MOL0     C89386   3.955   9.587   9.944  0.5775 -0.1806  0.2203
  663MOL0     N89387   4.038   9.681   9.867 -0.2412  0.1956 -0.3968
  663MOL0     C89388   3.999   9.790   9.798 -0.1777 -0.6320 -0.1037
  663MOL0     C89389   4.099   9.826   9.718  0.1198  0.4952  0.2765
  663MOL0     C89390   4.105   9.933   9.620 -1.1942  1.5778 -0.7301
  663MOL0     C89391   3.987   9.925   9.516 -0.1655 -0.7995 -0.4365
  663MOL0     C89392   4.001  10.037   9.406 -0.1374 -0.1401 -0.7353
  663MOL0     C89393   4.105  10.005   9.288  0.1647  0.7845  0.6680
  663MOL0     O89394   4.193  10.117   9.258  1.0219  0.4397 -0.0421
  663MOL0     C89395   4.155  10.212   9.169  0.8426  0.6611 -0.5383
  663MOL0     C89396   4.029  10.236   9.114  0.0151  0.7373  1.3096
  663MOL0     C89397   4.006  10.352   9.036  0.3288 -0.1534 -0.1868
  663MOL0     C89398   3.858  10.382   8.988 -0.2810  0.0726  0.2775
  663MOL0     C89399   4.114  10.439   9.014 -1.6271 -0.4189  0.1426
  663MOL0     C89400   4.100  10.563   8.938 -0.5280 -0.4308  0.1265
  663MOL0     O89401   4.204  10.596   8.855  0.0535  0.5297 -0.4990
  663MOL0     C89402   4.200  10.696   8.758 -0.5893 -0.1346 -0.3528
  663MOL0     C89403   4.085  10.715   8.673 -0.4186  0.0699  0.0037
  663MOL0     C89404   4.070  10.803   8.567  0.4921  0.2812 -0.2917
  663MOL0     C89405   4.180  10.885   8.528  0.6086  0.3326 -0.5772
  663MOL0     O89406   4.184  10.988   8.435  0.3560  0.6345 -0.1618
  663MOL0     C89407   4.067  11.017   8.362 -0.2928  0.4973 -0.2336
  663MOL0     C89408   4.069  11.153   8.282 -0.6156  0.4855 -0.6882
  663MOL0     C89409   3.926  11.209   8.256  0.0503 -0.3111  0.3266
  663MOL0     C89410   3.948  11.351   8.188  0.1015  0.3115 -0.8250
  663MOL0     C89411   3.819  11.401   8.126  1.0469  0.0585  0.1087
  663MOL0     C89412   3.824  11.548   8.081 -0.0441 -0.4817  0.9676
  663MOL0     C89413   3.915  11.577   7.962 -0.2089 -0.0314  0.2541
  663MOL0     C89414   3.931  11.720   7.919  0.0638  0.6194 -0.1787
  663MOL0    Cl89415   4.047  11.729   7.772 -0.0520  0.1472 -0.1024
  663MOL0     C89416   4.294  10.865   8.605 -0.0655  0.4003 -0.2529
  663MOL0     C89417   4.311  10.774   8.715 -0.9500 -0.0072  0.0016
  663MOL0     O89418   4.001  10.634   8.950 -0.4826 -0.4324  1.0695
  663MOL0     C89419   4.245  10.402   9.056 -0.1379  0.3925 -0.5958
  663MOL0     C89420   4.264  10.298   9.136  0.0928  0.0100 -0.8709
  663MOL0     N89421   4.206   9.731   9.747  0.2525 -0.7736 -0.7002
  663MOL0     N89422   4.166   9.647   9.842 -1.2847 -1.1762  0.4702
  663MOL0     C89423   2.964   9.635  10.363 -0.0814  0.5992  0.2309
  663MOL0     C89424   2.857   9.718  10.376  0.5340 -1.2152 -0.6875
  663MOL0     C89425   2.563   9.957  10.618  0.6773 -0.1257 -0.5931
  663MOL0     C89426   2.456   9.941  10.711  0.6313  0.2366  0.2418
  663MOL0     C89427   2.383  10.048  10.760  0.1322 -0.2335 -0.0659
  663MOL0     C89428   2.407  10.185  10.722 -0.8168  0.4369  0.0262
  663MOL0     O89429   2.349  10.293  10.775 -0.7112 -0.6895  0.2419
  663MOL0     C89430   2.338  10.315  10.912 -0.6624 -0.3295 -1.0087
  663MOL0     C89431   2.199  10.351  10.958  0.0158  0.1710 -0.2957
  663MOL0     C89432   2.094  10.238  10.922  0.1058 -0.3341  0.0375
  663MOL0     C89433   1.988  10.224  11.031 -0.2127 -0.7821  0.5276
  663MOL0     C89434   2.047  10.136  11.135  0.5267 -0.2044  0.2239
  663MOL0     C89435   2.107  10.055  11.197  0.8360 -0.8227  0.0883
  663MOL0     C89436   2.506  10.198  10.627  0.4788  0.3338  0.3852
  663MOL0     C89437   2.583  10.087  10.575 -0.5081 -0.9507  1.0248
  663MOL0     H89438   2.948   9.857  10.669  3.2318  2.6181 -1.7847
  663MOL0     H89439   3.131   9.685  10.653  1.8618 -0.5700 -2.2641
  663MOL0     H89440   3.308   9.624  10.544 -2.0871  0.5525  1.9785
  663MOL0     H89441   3.262   9.467  10.611 -2.9994  0.0853 -0.3203
  663MOL0     H89442   3.453   9.397  10.497  0.2041  0.3858  0.2708
  663MOL0     H89443   3.326   9.380  10.361 -0.3056 -0.2705  0.2001
  663MOL0     H89444   3.420   9.593  10.281  1.4056 -0.8290 -1.4706
  663MOL0     H89445   3.518   9.609  10.428 -0.0940  1.5086 -1.0276
  663MOL0     H89446   3.646   9.402  10.323 -1.7988  1.0998  4.1451
  663MOL0     H89447   3.557   9.447  10.174 -2.0933  1.1471  1.4997
  663MOL0     H89448   3.647   9.681  10.207 -2.2840 -1.3674  0.2305
  663MOL0     H89449   3.749   9.607  10.339  2.6789 -2.5898 -0.2183
  663MOL0     H89450   3.902   9.533  10.235  0.6309  2.0727 -0.3372
  663MOL0     H89451   3.796   9.464  10.114 -0.5051 -0.6602  0.3317
  663MOL0     H89452   3.790   9.711  10.009  1.4893  1.9294 -0.9080
  663MOL0     H89453   3.945   9.728  10.095  3.0499 -2.2552 -2.3648
  663MOL0     H89454   3.880   9.537   9.882  0.9881 -1.9542  1.1153
  663MOL0     H89455   4.017   9.512   9.993 -3.4522 -1.6253  3.7457
  663MOL0     H89456   3.907   9.847   9.789  1.5418  2.0661 -2.7738
  663MOL0     H89457   4.105  10.034   9.661 -0.0655  0.3874  2.5245
  663MOL0     H89458   4.203   9.912   9.577 -0.7096 -0.4107  1.1815
  663MOL0     H89459   3.890   9.928   9.567 -0.3175 -0.1636 -0.7489
  663MOL0     H89460   3.991   9.826   9.470 -2.7365 -0.4083 -1.6694
  663MOL0     H89461   4.038  10.129   9.452 -0.1902  0.1593 -1.2873
  663MOL0     H89462   3.902  10.061   9.368 -1.1735  1.8457  2.7919
  663MOL0     H89463   4.047   9.967   9.203  0.4752 -0.0319  0.8055
  663MOL0     H89464   4.164   9.915   9.309 -0.4474 -0.4185 -2.1992
  663MOL0     H89465   3.955  10.160   9.138  0.9876 -1.0802 -1.0262
  663MOL0     H89466   3.810  10.452   9.056  3.0874  2.6423  0.3207
  663MOL0     H89467   3.852  10.420   8.885  1.2146 -0.5166 -0.0557
  663MOL0     H89468   3.800  10.290   8.991 -2.7714  1.5548  0.1437
  663MOL0     H89469   4.012  10.640   8.702  0.7200 -0.4228  1.7502
  663MOL0     H89470   3.973  10.820   8.521  0.9367  0.5703 -1.1535
  663MOL0     H89471   4.049  10.935   8.293 -2.9203 -0.1192  1.0952
  663MOL0     H89472   3.990  11.019   8.440 -0.2501 -0.4451 -0.1609
  663MOL0     H89473   4.114  11.235   8.340 -1.4249  1.1716 -1.0068
  663MOL0     H89474   4.132  11.140   8.194 -0.1945 -3.9000  0.0649
  663MOL0     H89475   3.862  11.205   8.344 -0.7697  1.4463 -0.1325
  663MOL0     H89476   3.885  11.143   8.179  0.9408 -1.1381  0.5441
  663MOL0     H89477   3.982  11.424   8.262  2.4241  2.9007 -4.1397
  663MOL0     H89478   4.025  11.347   8.111  2.6241  2.0194  1.4013
  663MOL0     H89479   3.733  11.384   8.192 -1.3658 -0.2624 -2.9122
  663MOL0     H89480   3.789  11.336   8.044 -5.7907 -1.7021  3.2775
  663MOL0     H89481   3.723  11.568   8.044 -0.0550 -2.7292 -0.4648
  663MOL0     H89482   3.858  11.616   8.160  1.9589  1.8653 -1.7163
  663MOL0     H89483   3.876  11.516   7.879 -1.8173 -0.2334  1.1250
  663MOL0     H89484   4.010  11.542   8.004 -0.7016 -0.8966  0.6871
  663MOL0     H89485   3.962  11.777   8.007 -0.6584 -0.2074  0.6375
  663MOL0     H89486   3.833  11.754   7.886 -0.2013  1.9101  1.7520
  663MOL0     H89487   4.377  10.927   8.575  0.3638  0.0014  0.0923
  663MOL0     H89488   4.409  10.765   8.762  0.4099  3.9323 -1.6370
  663MOL0     H89489   4.327  10.470   9.041  1.4420 -1.4621 -0.7653
  663MOL0     H89490   4.364  10.294   9.178  0.3883  1.8069 -1.3404
  663MOL0     H89491   2.960   9.567  10.279  0.0775 -0.6887  1.2281
  663MOL0     H89492   2.788   9.731  10.293 -2.1334 -1.8421  1.3153
  663MOL0     H89493   2.439   9.838  10.741  1.7517  0.0661  0.3537
  663MOL0     H89494   2.307  10.033  10.836  2.2887  1.5897  2.6435
  663MOL0     H89495   2.379  10.240  10.981 -0.5128  2.5807  2.4257
  663MOL0     H89496   2.411  10.394  10.934  2.7005 -3.9457  2.7486
  663MOL0     H89497   2.159  10.443  10.916 -0.7393  0.0545  0.1496
  663MOL0     H89498   2.201  10.364  11.067 -0.4454 -0.9955 -0.1336
  663MOL0     H89499   2.136  10.140  10.901  1.3915  0.7966 -3.2050
  663MOL0     H89500   2.044  10.268  10.830  4.1336  1.2340 -1.8930
  663MOL0     H89501   1.892  10.196  10.988 -1.8231  2.3009  1.7461
  663MOL0     H89502   1.963  10.317  11.083  1.0356 -0.9210  1.4299
  663MOL0     H89503   2.136   9.974  11.261 -0.4899 -2.9047 -1.7819
  663MOL0     H89504   2.534  10.294  10.584  0.9704  1.2692  2.6182
  663MOL0     H89505   2.660  10.107  10.500 -2.4426  2.1258 -0.3170
  664MOL0     O89506   2.111   2.705   1.947  0.3345  0.2788 -0.2652
  664MOL0     C89507   2.115   2.814   2.012 -0.1012  0.3375  0.0431
  664MOL0     O89508   2.188   2.839   2.122  0.6718  0.2417 -0.7082
  664MOL0     C89509   2.260   2.752   2.198  0.7250 -0.0367  0.4445
  664MOL0     C89510   2.333   2.655   2.144 -0.1156 -1.0508 -0.3525
  664MOL0     C89511   2.416   2.575   2.231 -0.4444 -0.5490 -0.1687
  664MOL0     C89512   2.406   2.593   2.370  0.2201 -0.6787 -0.3204
  664MOL0     O89513   2.493   2.519   2.443 -0.4414 -0.3968  0.1388
  664MOL0     C89514   2.431   2.431   2.543 -0.4149  0.1304 -1.1469
  664MOL0     C89515   2.562   2.411   2.630 -0.5476  0.4026 -0.9840
  664MOL0     C89516   2.545   2.285   2.711 -0.1436 -0.5788  0.0797
  664MOL0     C89517   2.664   2.239   2.798  0.7314 -0.4541 -1.5047
  664MOL0     C89518   2.721   2.101   2.752 -0.0814 -0.2656  0.6312
  664MOL0     C89519   2.826   2.070   2.863 -0.3344  0.4435  0.8627
  664MOL0     C89520   2.928   1.968   2.801  0.0849  0.5092  0.1500
  664MOL0     C89521   3.037   1.922   2.897 -0.3157  0.2858  0.3096
  664MOL0     N89522   3.089   2.022   2.990 -0.3513  0.6903 -0.6454
  664MOL0     C89523   3.219   2.035   3.014 -0.3095 -0.1757 -0.3285
  664MOL0     C89524   3.236   2.093   3.131  0.7342 -0.9011 -0.0886
  664MOL0     C89525   3.364   2.114   3.211  1.4379  0.2422  0.6403
  664MOL0     C89526   3.477   2.025   3.171  0.0141 -0.4515  0.0476
  664MOL0     C89527   3.458   1.872   3.211 -0.3115  0.1023  0.3969
  664MOL0     C89528   3.577   1.800   3.151 -0.3324  0.5694 -0.0089
  664MOL0     O89529   3.693   1.834   3.222  0.2214  0.1889  1.0337
  664MOL0     C89530   3.810   1.805   3.158  0.3478 -0.6812 -0.2829
  664MOL0     C89531   3.931   1.873   3.206 -0.3977  0.1159 -0.1369
  664MOL0     C89532   4.053   1.848   3.151  0.1436  0.2410 -0.1143
  664MOL0     C89533   4.173   1.925   3.201 -0.1436 -0.2582  0.2169
  664MOL0     C89534   4.068   1.758   3.042  0.2760  0.1507 -1.0610
  664MOL0     C89535   4.198   1.726   2.975 -0.9716  0.4160  0.5064
  664MOL0     O89536   4.265   1.617   3.015 -0.4831 -0.5977 -0.0964
  664MOL0     C89537   4.390   1.586   2.959  0.3038  0.3687 -0.4740
  664MOL0     C89538   4.505   1.649   3.012 -0.8288  0.3138  1.0072
  664MOL0     C89539   4.624   1.620   2.951 -0.1580 -1.0221 -0.2697
  664MOL0     C89540   4.648   1.531   2.849  0.2904  0.7861 -0.0548
  664MOL0     O89541   4.774   1.496   2.819 -0.6621 -0.2543  0.1208
  664MOL0     C89542   4.796   1.372   2.752  0.6380 -0.7489 -0.0123
  664MOL0     C89543   4.947   1.335   2.725  0.0263 -0.8626 -0.5787
  664MOL0     C89544   5.006   1.455   2.638  0.5738 -0.0093  0.2243
  664MOL0     C89545   5.157   1.492   2.664  0.2442 -0.0522  0.6677
  664MOL0     C89546   5.263   1.380   2.638 -0.2345  0.3074  1.0379
  664MOL0     C89547   5.393   1.434   2.581 -0.8259  0.4999  0.3926
  664MOL0     C89548   5.466   1.494   2.704  0.3290 -0.7676 -0.0833
  664MOL0     C89549   5.594   1.537   2.643 -0.4098  0.1340 -0.1110
  664MOL0    Cl89550   5.708   1.599   2.765  0.1547 -0.3085 -0.2698
  664MOL0     C89551   4.523   1.471   2.801  0.6722 -0.1628 -0.6298
  664MOL0     C89552   4.402   1.503   2.850 -0.3041  0.7175 -0.6908
  664MOL0     O89553   4.229   1.797   2.882 -0.5025 -0.0686 -0.0223
  664MOL0     C89554   3.956   1.698   2.995  0.7606  0.0435 -0.7804
  664MOL0     C89555   3.827   1.721   3.052 -0.6544  0.9028  0.7279
  664MOL0     N89556   3.108   2.129   3.169  0.7847 -0.0024 -0.6570
  664MOL0     N89557   3.029   2.073   3.096 -0.0383 -1.0521  0.1063
  664MOL0     C89558   2.330   2.688   2.429 -0.8272 -0.3731  0.8603
  664MOL0     C89559   2.262   2.774   2.339  0.7449 -0.1130  1.1634
  664MOL0     C89560   2.046   2.931   1.963  0.2952 -0.1169 -0.3573
  664MOL0     C89561   2.040   3.056   2.032 -0.4590  0.0575  0.2199
  664MOL0     C89562   1.999   3.170   1.957  0.1915  0.0180  0.6984
  664MOL0     C89563   1.955   3.172   1.822 -0.9843  0.2980 -0.6403
  664MOL0     O89564   1.915   3.287   1.759 -0.4110  0.1464  0.2992
  664MOL0     C89565   1.978   3.317   1.629  0.6219 -0.2474 -0.0050
  664MOL0     C89566   2.062   3.445   1.636  0.3770 -0.8064 -0.5792
  664MOL0     C89567   2.139   3.467   1.513  0.2604 -0.8200  0.7204
  664MOL0     C89568   2.209   3.615   1.512  0.2862 -0.1159  0.3668
  664MOL0     C89569   2.166   3.708   1.613 -0.2512 -0.2792 -0.6688
  664MOL0     C89570   2.150   3.792   1.705 -0.3589 -0.3892 -0.0416
  664MOL0     C89571   1.945   3.049   1.761  0.2385  1.2332 -0.0832
  664MOL0     C89572   1.986   2.936   1.829  0.1328  0.9178  0.1498
  664MOL0     H89573   2.336   2.637   2.038  0.6108 -0.2413 -0.4837
  664MOL0     H89574   2.491   2.516   2.180 -1.7143 -0.6004 -2.0588
  664MOL0     H89575   2.358   2.479   2.608  0.7975  0.5897 -0.1029
  664MOL0     H89576   2.390   2.351   2.480 -1.2801 -0.0158 -0.4129
  664MOL0     H89577   2.646   2.393   2.563  1.7012  1.2042  1.4351
  664MOL0     H89578   2.587   2.484   2.707 -0.4761 -0.4670 -0.1623
  664MOL0     H89579   2.465   2.308   2.782  1.1949 -2.4820  2.3767
  664MOL0     H89580   2.510   2.206   2.645 -1.4933  0.2318 -0.1951
  664MOL0     H89581   2.738   2.318   2.806 -0.9284  0.9841  1.4465
  664MOL0     H89582   2.618   2.230   2.897  0.4838 -0.5339 -1.6264
  664MOL0     H89583   2.650   2.019   2.743 -0.7061  0.2763  0.4802
  664MOL0     H89584   2.762   2.095   2.650 -0.7402 -2.5558  0.4571
  664MOL0     H89585   2.880   2.164   2.862  0.3230  0.0932 -1.3739
  664MOL0     H89586   2.784   2.060   2.964 -4.0997  0.1469 -0.5568
  664MOL0     H89587   2.879   1.873   2.776 -0.1248  0.5680  0.3342
  664MOL0     H89588   2.959   2.002   2.702 -1.9844 -0.0814 -0.7626
  664MOL0     H89589   3.117   1.891   2.829 -1.2232  0.5869 -0.9257
  664MOL0     H89590   3.012   1.826   2.943  1.8015 -1.3021 -1.6511
  664MOL0     H89591   3.299   1.989   2.957  0.1421  0.6633 -0.3929
  664MOL0     H89592   3.408   2.212   3.191  0.2719  0.6415 -0.0459
  664MOL0     H89593   3.342   2.114   3.318 -1.4927 -0.9234  0.1342
  664MOL0     H89594   3.567   2.048   3.230  0.1689 -5.7156  2.3749
  664MOL0     H89595   3.491   2.037   3.063 -1.7647 -0.7922 -0.2537
  664MOL0     H89596   3.365   1.835   3.167  1.2945 -0.6301 -2.6754
  664MOL0     H89597   3.446   1.856   3.318 -2.5626 -4.4213 -0.3082
  664MOL0     H89598   3.579   1.813   3.042  0.9395 -3.9853 -0.7628
  664MOL0     H89599   3.569   1.694   3.178  1.8483  0.8004  1.8376
  664MOL0     H89600   3.918   1.935   3.294 -0.6245  0.0142 -0.0983
  664MOL0     H89601   4.246   1.853   3.237  0.4187  0.5656  0.7414
  664MOL0     H89602   4.213   1.977   3.114  1.3603 -0.5024  0.7469
  664MOL0     H89603   4.149   1.995   3.282  1.3941 -0.3529  0.7827
  664MOL0     H89604   4.512   1.718   3.096  1.2328 -0.1289  1.2507
  664MOL0     H89605   4.704   1.688   2.981 -2.0286  2.5315 -2.5450
  664MOL0     H89606   4.745   1.292   2.806 -3.4167  1.1817 -0.6171
  664MOL0     H89607   4.742   1.376   2.656 -4.0001 -2.0661  2.2449
  664MOL0     H89608   5.006   1.331   2.818 -0.7220 -0.4374 -0.0765
  664MOL0     H89609   4.953   1.240   2.671  0.7234 -0.8672 -0.5079
  664MOL0     H89610   4.944   1.542   2.658 -1.4311 -1.5840  1.2733
  664MOL0     H89611   5.002   1.437   2.530 -0.8975  0.2827  0.2206
  664MOL0     H89612   5.188   1.584   2.613 -0.1121 -0.2494  0.0794
  664MOL0     H89613   5.155   1.510   2.772 -0.3180  3.3036  0.2055
  664MOL0     H89614   5.231   1.318   2.554 -2.7164  2.0234  0.6321
  664MOL0     H89615   5.288   1.305   2.713  1.2154 -0.8020 -0.4680
  664MOL0     H89616   5.444   1.352   2.530 -3.2505 -0.4652 -0.6354
  664MOL0     H89617   5.386   1.514   2.506 -1.0368  0.4568  0.3648
  664MOL0     H89618   5.483   1.406   2.767 -0.4174 -2.0242 -1.5687
  664MOL0     H89619   5.408   1.566   2.763 -0.8835 -1.4563 -0.4049
  664MOL0     H89620   5.575   1.602   2.557 -0.5692 -3.8088 -3.3849
  664MOL0     H89621   5.635   1.438   2.618 -0.0169 -0.0136  1.0717
  664MOL0     H89622   4.539   1.399   2.722 -2.8045 -2.6950  0.7299
  664MOL0     H89623   4.309   1.462   2.812 -0.0889 -3.0651  2.2340
  664MOL0     H89624   3.964   1.637   2.906 -2.0012 -3.2373  1.0036
  664MOL0     H89625   3.746   1.674   2.997  1.5907 -1.4111 -0.8734
  664MOL0     H89626   2.344   2.712   2.534  3.4058 -0.5134  0.5206
  664MOL0     H89627   2.209   2.858   2.382 -2.2656 -0.9783 -0.5515
  664MOL0     H89628   2.085   3.074   2.130 -1.6469 -0.0780  0.8029
  664MOL0     H89629   2.010   3.267   2.006  0.4133  0.4205 -0.1321
  664MOL0     H89630   2.052   3.239   1.610  1.5808  0.3913  1.0338
  664MOL0     H89631   1.909   3.328   1.545  0.7715  0.4491 -0.0377
  664MOL0     H89632   2.142   3.421   1.707 -0.0968 -2.0542 -0.4343
  664MOL0     H89633   2.008   3.537   1.660  0.9456 -0.4211 -0.7541
  664MOL0     H89634   2.065   3.474   1.432 -0.5892  1.4197  1.5944
  664MOL0     H89635   2.214   3.393   1.485 -1.6803 -1.7658 -2.5846
  664MOL0     H89636   2.186   3.660   1.415 -1.1602  0.4880  0.9598
  664MOL0     H89637   2.317   3.602   1.523  0.8612  3.7487  0.9657
  664MOL0     H89638   2.139   3.862   1.786  0.9927  1.3443 -1.2692
  664MOL0     H89639   1.900   3.039   1.663 -1.7547 -0.4352  0.9054
  664MOL0     H89640   1.979   2.835   1.791  1.9922 -1.0025  4.3040
  665MOL0     O89641  10.866   8.717   8.884 -0.9606  0.3547  0.7637
  665MOL0     C89642  10.822   8.762   8.774  0.6548 -0.1645 -0.2684
  665MOL0     O89643  10.876   8.746   8.662  0.5008 -0.5131 -0.5017
  665MOL0     C89644  10.994   8.675   8.654  0.3052  0.4241 -0.2551
  665MOL0     C89645  11.116   8.723   8.697  0.5688  0.1094  0.0773
  665MOL0     C89646  11.220   8.632   8.724  0.1174  0.4976 -0.9065
  665MOL0     C89647  11.212   8.496   8.704  0.1737  0.4825  0.3355
  665MOL0     O89648  11.300   8.387   8.727  0.2179 -0.1915  0.8623
  665MOL0     C89649  11.438   8.433   8.720  0.2877  0.2043 -0.0650
  665MOL0     C89650  11.476   8.463   8.569 -0.0846  0.3246 -0.4223
  665MOL0     C89651  11.511   8.333   8.497 -0.2260 -1.1932  0.9395
  665MOL0     C89652  11.564   8.349   8.352  0.3930 -0.5809 -0.8571
  665MOL0     C89653  11.656   8.245   8.302  0.1147  0.7689  0.1335
  665MOL0     C89654  11.578   8.113   8.290 -0.4814  0.6108  0.1695
  665MOL0     C89655  11.680   8.001   8.267 -0.7818  0.6995 -1.0889
  665MOL0     C89656  11.792   8.020   8.153 -0.0082 -0.6451  0.1302
  665MOL0     N89657  11.852   7.886   8.113  0.0999  0.3569 -1.1186
  665MOL0     C89658  11.809   7.794   8.021  0.9912  0.4741  0.1401
  665MOL0     C89659  11.893   7.690   8.029  0.3432  0.5175  0.2804
  665MOL0     C89660  11.893   7.566   7.943  0.5339  1.0741  0.0140
  665MOL0     C89661  11.780   7.485   7.994  0.5254  0.0896 -1.2296
  665MOL0     C89662  11.766   7.361   7.908 -0.1806  1.1468 -0.0543
  665MOL0     C89663  11.808   7.255   8.004 -0.2966  0.3819 -0.0234
  665MOL0     O89664  11.849   7.146   7.920 -0.4898  1.2125  0.0562
  665MOL0     C89665  11.884   7.022   7.972 -0.1547 -0.3554 -0.2293
  665MOL0     C89666  11.883   6.988   8.101  1.2320 -1.2504 -0.2360
  665MOL0     C89667  11.905   6.864   8.159 -0.0629 -0.1257 -0.5962
  665MOL0     C89668  11.867   6.839   8.310  0.2927  0.2539 -0.4641
  665MOL0     C89669  11.971   6.771   8.071  0.1743  0.0302 -0.1212
  665MOL0     C89670  12.030   6.637   8.116  0.1038  0.7162  0.4865
  665MOL0     O89671  12.132   6.600   8.050 -1.6052  0.5126 -0.5469
  665MOL0     C89672  12.161   6.470   8.015  0.7919 -0.2626 -0.8166
  665MOL0     C89673  12.215   6.434   7.885 -0.3790 -0.0764 -0.0507
  665MOL0     C89674  12.258   6.312   7.844 -1.1155  0.6733 -0.5462
  665MOL0     C89675  12.248   6.208   7.936  0.6372 -0.2477  0.0614
  665MOL0     O89676  12.293   6.086   7.902  0.1590 -0.2899 -0.0839
  665MOL0     C89677  12.213   6.007   7.806  0.5744  0.3555  0.3804
  665MOL0     C89678  12.061   6.005   7.819 -0.9364  0.4710  0.5158
  665MOL0     C89679  12.007   5.940   7.950  0.4758 -0.3268  0.4328
  665MOL0     C89680  11.854   5.945   7.961  0.8179  1.0510 -0.3629
  665MOL0     C89681  11.781   5.827   7.899 -0.2706  0.7834  0.2621
  665MOL0     C89682  11.750   5.861   7.750 -0.4469  0.4502 -0.0606
  665MOL0     C89683  11.676   5.742   7.681  0.0022 -0.8382  0.0778
  665MOL0     C89684  11.608   5.767   7.546  0.2674  0.0553  0.0120
  665MOL0    Cl89685  11.487   5.647   7.543  0.1975  0.2747  0.6736
  665MOL0     C89686  12.192   6.231   8.064 -0.2670 -0.0312  1.0919
  665MOL0     C89687  12.152   6.356   8.099  0.5257 -1.1131  0.0239
  665MOL0     O89688  11.982   6.588   8.218  0.0338 -0.0363 -0.3106
  665MOL0     C89689  11.976   6.808   7.935  0.4471  0.3061 -0.6016
  665MOL0     C89690  11.934   6.930   7.889  0.5004  0.1881  0.1703
  665MOL0     N89691  11.979   7.719   8.130  0.2332 -0.1123  0.6676
  665MOL0     N89692  11.964   7.836   8.173  1.0527 -0.7568  0.0671
  665MOL0     C89693  11.090   8.450   8.673 -0.2938  0.3785 -0.6991
  665MOL0     C89694  10.983   8.535   8.643  0.0659 -0.3719  0.0342
  665MOL0     C89695  10.704   8.850   8.790  0.4604  0.2037 -0.2215
  665MOL0     C89696  10.643   8.868   8.916  0.2003  0.4239 -0.2304
  665MOL0     C89697  10.518   8.947   8.913  0.3636  0.8893 -0.5459
  665MOL0     C89698  10.470   9.001   8.796  0.1308  0.9005 -0.1022
  665MOL0     O89699  10.367   9.096   8.792 -0.0986  0.8082  1.5574
  665MOL0     C89700  10.253   9.064   8.874  0.1361  0.0825 -0.3443
  665MOL0     C89701  10.224   9.170   8.973  0.4215  0.2136 -0.0111
  665MOL0     C89702  10.234   9.310   8.915 -0.5384  0.1663 -0.6686
  665MOL0     C89703  10.229   9.413   9.032  0.0690  0.3486  0.4168
  665MOL0     C89704  10.234   9.552   8.995  0.1735  0.1508 -0.3987
  665MOL0     C89705  10.218   9.658   8.948 -0.5148 -0.4134 -0.7254
  665MOL0     C89706  10.529   8.977   8.668  0.1501 -0.1200  0.5072
  665MOL0     C89707  10.636   8.881   8.672  0.2569 -0.3870  0.9679
  665MOL0     H89708  11.119   8.826   8.729 -0.5409 -0.0385  0.7244
  665MOL0     H89709  11.317   8.667   8.757  0.1005 -1.1011  0.9709
  665MOL0     H89710  11.454   8.516   8.789 -0.4319 -1.1680  1.8646
  665MOL0     H89711  11.500   8.355   8.766  1.6314  2.5498  2.3392
  665MOL0     H89712  11.394   8.507   8.512 -2.7100 -3.0005  0.4914
  665MOL0     H89713  11.556   8.538   8.564 -0.6601  0.9771 -0.0400
  665MOL0     H89714  11.598   8.289   8.548  1.4985 -0.2664 -1.0692
  665MOL0     H89715  11.431   8.259   8.496 -3.3272  1.9003 -1.5680
  665MOL0     H89716  11.478   8.379   8.292  0.2783 -1.6657 -1.2580
  665MOL0     H89717  11.629   8.436   8.365  0.7551 -0.4578 -3.1056
  665MOL0     H89718  11.702   8.274   8.207 -0.5316  3.9555  0.6914
  665MOL0     H89719  11.729   8.221   8.380 -2.9724 -4.6450  1.8577
  665MOL0     H89720  11.528   8.076   8.380 -1.2113 -1.8476 -1.1560
  665MOL0     H89721  11.515   8.128   8.202  2.4985  0.0782 -2.2340
  665MOL0     H89722  11.727   7.973   8.361 -0.7557  2.7373 -0.4521
  665MOL0     H89723  11.631   7.910   8.231 -1.5328  1.1088 -1.1285
  665MOL0     H89724  11.870   8.094   8.173  1.7887 -2.0655 -1.3725
  665MOL0     H89725  11.739   8.053   8.062  0.5270 -0.2434 -0.0380
  665MOL0     H89726  11.715   7.811   7.970 -0.0363  1.9943  2.3571
  665MOL0     H89727  11.891   7.587   7.835 -0.8458  0.9788  0.0004
  665MOL0     H89728  11.978   7.501   7.964 -2.2994 -3.1004 -0.1606
  665MOL0     H89729  11.685   7.538   8.005 -0.1004 -1.4862  4.3273
  665MOL0     H89730  11.796   7.465   8.101 -2.2449 -1.0830 -0.9567
  665MOL0     H89731  11.828   7.363   7.818 -0.0053  3.9801  0.0363
  665MOL0     H89732  11.668   7.339   7.866  0.1639  0.5648 -0.5816
  665MOL0     H89733  11.723   7.232   8.069 -1.4743  0.4924 -1.4707
  665MOL0     H89734  11.896   7.284   8.062 -1.1175  0.5350  1.1821
  665MOL0     H89735  11.841   7.060   8.171  4.7808  0.6080  0.2303
  665MOL0     H89736  11.839   6.929   8.365 -2.3427 -0.4899 -0.4925
  665MOL0     H89737  11.796   6.757   8.316  1.9686 -1.2477 -0.0580
  665MOL0     H89738  11.954   6.797   8.361  0.3013 -1.2611 -1.6773
  665MOL0     H89739  12.215   6.507   7.805  0.6113  1.3190  1.1633
  665MOL0     H89740  12.294   6.300   7.743 -0.4093 -1.9649 -0.0621
  665MOL0     H89741  12.225   6.044   7.703  1.9207 -1.2612 -0.0863
  665MOL0     H89742  12.250   5.904   7.811  2.0963  0.9401  3.2285
  665MOL0     H89743  12.022   6.107   7.806  0.0187  0.4762 -3.7178
  665MOL0     H89744  12.025   5.954   7.730 -2.3064 -1.1476  1.9155
  665MOL0     H89745  12.048   5.992   8.037 -0.2009 -1.7438  1.6371
  665MOL0     H89746  12.043   5.839   7.970  1.9254  0.4689  2.1272
  665MOL0     H89747  11.827   5.944   8.067 -3.0504 -0.1183 -1.2060
  665MOL0     H89748  11.811   6.031   7.909  1.8136  0.7410 -1.7897
  665MOL0     H89749  11.697   5.810   7.968  3.6844 -2.0177  5.0160
  665MOL0     H89750  11.844   5.740   7.919  1.2672  1.5327 -1.0680
  665MOL0     H89751  11.683   5.949   7.751 -2.5858 -1.0957  0.3468
  665MOL0     H89752  11.834   5.880   7.683 -0.7361  2.6945  0.1175
  665MOL0     H89753  11.603   5.702   7.752 -0.3936  0.1746  0.2591
  665MOL0     H89754  11.749   5.665   7.656 -1.4543 -0.9171 -5.1938
  665MOL0     H89755  11.670   5.764   7.456 -2.0529 -2.7032 -1.6679
  665MOL0     H89756  11.557   5.863   7.550 -0.1932 -0.0460 -2.0874
  665MOL0     H89757  12.169   6.142   8.122 -0.1225 -0.7193  0.1071
  665MOL0     H89758  12.112   6.340   8.199  3.2780 -3.2611  0.9172
  665MOL0     H89759  12.010   6.734   7.864 -0.1156 -1.1969  0.6250
  665MOL0     H89760  11.938   6.962   7.785 -0.9440 -3.2956 -1.1131
  665MOL0     H89761  11.073   8.344   8.663  1.3446  0.1173 -1.1248
  665MOL0     H89762  10.891   8.492   8.604  0.3968 -1.3146  0.2730
  665MOL0     H89763  10.692   8.831   9.005 -0.7973  1.4451  0.7916
  665MOL0     H89764  10.477   8.965   9.011  1.6737  0.1286  0.1678
  665MOL0     H89765  10.169   9.049   8.805  0.7202 -3.0486 -0.5449
  665MOL0     H89766  10.262   8.970   8.930  2.0333  0.6455  0.3876
  665MOL0     H89767  10.306   9.157   9.045  0.4792 -3.1106 -0.5183
  665MOL0     H89768  10.132   9.161   9.031  0.7089 -2.7043  0.1483
  665MOL0     H89769  10.147   9.329   8.851 -1.7531  2.4804  1.4619
  665MOL0     H89770  10.326   9.321   8.857 -0.1496 -4.2868 -1.2121
  665MOL0     H89771  10.319   9.395   9.091 -0.3902 -4.7338  0.0149
  665MOL0     H89772  10.153   9.385   9.105  1.0793 -0.0163  1.3548
  665MOL0     H89773  10.196   9.746   8.891  1.6986  0.8791  0.2752
  665MOL0     H89774  10.502   9.027   8.576  2.1511 -1.3863 -0.8540
  665MOL0     H89775  10.681   8.851   8.578 -0.8567  0.0211  0.2929
  666MOL0     O89776  10.165   2.745   5.382  0.4648  0.7624 -0.0541
  666MOL0     C89777  10.082   2.682   5.446 -0.8031  0.1659 -0.1100
  666MOL0     O89778  10.118   2.581   5.529  0.1557 -0.2704  0.1846
  666MOL0     C89779  10.203   2.487   5.495 -0.5803  0.0158  0.1803
  666MOL0     C89780  10.244   2.469   5.368 -0.3710  0.1176  0.8805
  666MOL0     C89781  10.329   2.363   5.334 -0.1239 -0.7672 -0.5307
  666MOL0     C89782  10.380   2.274   5.431  0.9473 -0.5828 -0.2093
  666MOL0     O89783  10.454   2.167   5.398 -0.1139  0.0957  0.2400
  666MOL0     C89784  10.467   2.046   5.477  0.1434 -0.8339 -0.1009
  666MOL0     C89785  10.324   1.975   5.490  0.1863  0.1819  0.2844
  666MOL0     C89786  10.318   1.889   5.609 -0.0384  0.1047 -0.2372
  666MOL0     C89787  10.183   1.869   5.676  0.5852 -0.2163 -1.0107
  666MOL0     C89788  10.185   1.769   5.795  1.3058  0.5140  0.9337
  666MOL0     C89789  10.089   1.803   5.901 -0.0632 -0.8667 -0.6786
  666MOL0     C89790  10.055   1.677   5.999  0.2888  0.3897  0.2611
  666MOL0     C89791   9.944   1.703   6.101 -0.0555 -0.4059 -0.8106
  666MOL0     N89792   9.919   1.577   6.170  0.0884 -0.5422  0.7954
  666MOL0     C89793   9.919   1.575   6.307  0.1608  0.2841  0.1301
  666MOL0     C89794   9.900   1.446   6.334 -1.4407 -1.1439 -0.7114
  666MOL0     C89795   9.891   1.386   6.472 -0.1460  0.5066  0.7569
  666MOL0     C89796   9.756   1.380   6.541 -0.6831  0.4575 -0.8819
  666MOL0     C89797   9.762   1.324   6.694  0.0328 -0.1462 -0.0501
  666MOL0     C89798   9.818   1.418   6.798 -0.6905  0.7242  0.2487
  666MOL0     O89799   9.960   1.410   6.795 -0.3511 -0.0766  0.1124
  666MOL0     C89800  10.019   1.310   6.862  0.5053 -0.5507 -0.1021
  666MOL0     C89801   9.968   1.209   6.944  0.3093  0.6744  0.5374
  666MOL0     C89802  10.045   1.113   7.002 -0.6621 -0.5994 -0.4688
  666MOL0     C89803   9.967   1.008   7.073 -0.3784  1.1595  0.5564
  666MOL0     C89804  10.188   1.112   7.002  0.8410  0.0825 -0.8884
  666MOL0     C89805  10.264   1.008   7.068  0.5747 -0.1157  0.0100
  666MOL0     O89806  10.398   1.044   7.070  0.3749  0.2168 -0.1023
  666MOL0     C89807  10.487   0.963   7.134  1.1373 -0.6793 -0.7511
  666MOL0     C89808  10.470   0.919   7.268 -0.5205 -1.0789 -0.3162
  666MOL0     C89809  10.562   0.836   7.328 -0.4231 -0.0050  0.1353
  666MOL0     C89810  10.672   0.788   7.261  0.0553 -0.2829  0.1579
  666MOL0     O89811  10.765   0.699   7.305 -0.4390  0.3948  0.0430
  666MOL0     C89812  10.727   0.597   7.398 -0.0753 -0.3900  0.0001
  666MOL0     C89813  10.805   0.470   7.373  0.1821 -0.2614  0.2691
  666MOL0     C89814  10.794   0.427   7.227 -0.1266  0.0179 -0.6002
  666MOL0     C89815  10.876   0.298   7.199  1.2750 -0.4088 -0.0992
  666MOL0     C89816  10.880   0.276   7.052 -0.9515 -0.6089 -1.1556
  666MOL0     C89817  11.011   0.215   7.003 -0.0582  0.3995  0.1152
  666MOL0     C89818  11.037   0.082   7.063 -0.2813 -0.2078 -1.6440
  666MOL0     C89819  11.178   0.024   7.023  0.4189 -0.6619  0.5826
  666MOL0    Cl89820  11.175   0.017   6.847  0.2710  0.1336 -0.5760
  666MOL0     C89821  10.699   0.844   7.136  1.3237  1.1674  0.4695
  666MOL0     C89822  10.599   0.917   7.071 -0.0862 -1.5534 -1.0701
  666MOL0     O89823  10.220   0.910   7.120  0.5456  0.0681 -0.3694
  666MOL0     C89824  10.234   1.217   6.927 -0.3761 -1.0138 -0.1044
  666MOL0     C89825  10.156   1.306   6.849 -0.0414  0.2052  0.4425
  666MOL0     N89826   9.871   1.378   6.221 -0.4803 -0.3391 -0.4920
  666MOL0     N89827   9.888   1.452   6.122 -1.3892  0.5620 -0.2649
  666MOL0     C89828  10.346   2.308   5.566 -0.9441  0.3792 -0.0176
  666MOL0     C89829  10.271   2.413   5.594 -0.5714 -0.5543  0.8711
  666MOL0     C89830   9.948   2.731   5.452  0.0726 -0.1557  0.0306
  666MOL0     C89831   9.855   2.659   5.523 -0.5887  0.7950 -0.7925
  666MOL0     C89832   9.719   2.689   5.527  0.2561 -0.7240 -0.7684
  666MOL0     C89833   9.670   2.801   5.460 -0.8318 -0.5572  1.3077
  666MOL0     O89834   9.536   2.848   5.484 -0.1478  0.7469 -0.2275
  666MOL0     C89835   9.488   2.966   5.421  0.3111  0.0620 -0.1253
  666MOL0     C89836   9.334   2.963   5.432  0.0578  0.1388 -0.2062
  666MOL0     C89837   9.261   2.830   5.391 -1.4875  0.0059 -0.1122
  666MOL0     C89838   9.117   2.854   5.376 -0.0776 -0.1105 -0.0577
  666MOL0     C89839   9.068   2.862   5.514  0.4760  0.1877 -0.4467
  666MOL0     C89840   9.001   2.868   5.620  0.0893 -0.3020 -0.4096
  666MOL0     C89841   9.762   2.875   5.374 -0.4449 -0.7752  0.8953
  666MOL0     C89842   9.897   2.836   5.366  0.1295 -0.0523  0.9845
  666MOL0     H89843  10.193   2.521   5.287  2.8816  2.4743  0.1301
  666MOL0     H89844  10.341   2.339   5.229 -0.1239 -1.8501 -0.2966
  666MOL0     H89845  10.539   1.978   5.431 -0.5418 -1.5130 -0.1994
  666MOL0     H89846  10.507   2.077   5.574  2.7948 -4.7679  0.2796
  666MOL0     H89847  10.243   2.048   5.487  0.5008  0.4875 -1.5772
  666MOL0     H89848  10.318   1.911   5.402  1.9080  1.1716 -0.6068
  666MOL0     H89849  10.350   1.787   5.588 -0.3489 -0.3558  1.4468
  666MOL0     H89850  10.393   1.928   5.679  1.4430 -1.0779 -1.1067
  666MOL0     H89851  10.153   1.967   5.716 -2.4369 -1.5560  0.3728
  666MOL0     H89852  10.100   1.842   5.609 -0.8418 -1.3038  1.0927
  666MOL0     H89853  10.161   1.669   5.759  3.6065  0.5642 -0.9853
  666MOL0     H89854  10.286   1.773   5.839  2.2206 -2.1759 -0.7057
  666MOL0     H89855  10.120   1.886   5.965 -0.7160 -0.2326 -1.1630
  666MOL0     H89856  10.004   1.850   5.850  0.6072  0.5069 -0.5772
  666MOL0     H89857  10.020   1.596   5.935 -2.8113  1.4583  0.3980
  666MOL0     H89858  10.149   1.654   6.050  1.9051 -0.2237 -2.7640
  666MOL0     H89859   9.861   1.745   6.043 -0.7806 -3.5414 -2.2335
  666MOL0     H89860   9.984   1.775   6.173 -0.3803 -0.1172 -0.9126
  666MOL0     H89861   9.929   1.657   6.378  0.2558  1.0864 -0.7753
  666MOL0     H89862   9.923   1.282   6.469 -0.1026  0.3648  3.3453
  666MOL0     H89863   9.963   1.434   6.540 -1.2074  1.6976  1.0988
  666MOL0     H89864   9.712   1.298   6.485  1.8437 -1.6297 -0.0008
  666MOL0     H89865   9.699   1.473   6.534 -0.0644  0.9190 -0.0719
  666MOL0     H89866   9.807   1.225   6.691 -1.6358 -0.9481 -3.0250
  666MOL0     H89867   9.659   1.291   6.711 -1.0789  1.6115 -2.6934
  666MOL0     H89868   9.773   1.408   6.897 -2.7131 -3.9605 -0.8870
  666MOL0     H89869   9.801   1.522   6.766  3.5684  0.9037 -2.2014
  666MOL0     H89870   9.860   1.195   6.944  0.3087  0.0810 -2.3674
  666MOL0     H89871   9.858   1.011   7.069 -0.4213  2.1498 -4.8511
  666MOL0     H89872   9.999   0.907   7.044 -0.9726  0.2402  2.8745
  666MOL0     H89873   9.982   1.021   7.181 -0.8175  2.0232  0.5136
  666MOL0     H89874  10.381   0.949   7.323 -0.0186 -0.6076  0.2714
  666MOL0     H89875  10.545   0.805   7.431  1.1300 -3.2575 -0.4563
  666MOL0     H89876  10.742   0.645   7.495 -0.3509  1.2331 -0.7289
  666MOL0     H89877  10.620   0.576   7.394  0.0661 -0.9842 -1.6427
  666MOL0     H89878  10.910   0.483   7.403 -0.0123  5.3226 -0.5257
  666MOL0     H89879  10.772   0.382   7.430  2.4203 -4.5001 -4.2279
  666MOL0     H89880  10.840   0.510   7.172 -0.3849  1.0514  0.6954
  666MOL0     H89881  10.693   0.413   7.188  0.4004 -0.7666 -1.7407
  666MOL0     H89882  10.974   0.324   7.240  0.7025  0.3574  0.8423
  666MOL0     H89883  10.838   0.209   7.251  0.5923  0.2566  0.5660
  666MOL0     H89884  10.869   0.371   6.997  1.8801 -0.3101 -1.3415
  666MOL0     H89885  10.790   0.216   7.036 -0.5482 -1.1900 -1.2836
  666MOL0     H89886  11.008   0.202   6.894 -1.4861  0.6841  0.1078
  666MOL0     H89887  11.094   0.283   7.024 -0.6245  0.5970  1.8863
  666MOL0     H89888  10.951   0.016   7.043 -0.9991  0.3212 -0.4167
  666MOL0     H89889  11.036   0.094   7.172 -0.0283  2.2761 -1.8616
  666MOL0     H89890  11.191  -0.079   7.059  1.9938 -0.0798  1.7539
  666MOL0     H89891  11.258   0.089   7.059  1.2809  0.7658 -3.3788
  666MOL0     H89892  10.787   0.819   7.077 -0.9695 -2.4383 -1.8076
  666MOL0     H89893  10.617   0.960   6.973  0.4210  1.8752  0.3810
  666MOL0     H89894  10.340   1.236   6.933 -0.8649  1.6839  1.4315
  666MOL0     H89895  10.213   1.371   6.785 -0.9152  0.6782  0.1240
  666MOL0     H89896  10.406   2.266   5.647 -3.4529 -1.0250  1.2523
  666MOL0     H89897  10.242   2.445   5.694 -2.0783  0.3934  0.1448
  666MOL0     H89898   9.885   2.578   5.589 -2.8324  0.0971 -0.5438
  666MOL0     H89899   9.654   2.643   5.602 -1.1640  2.7173  0.3252
  666MOL0     H89900   9.548   3.044   5.469  3.5713 -1.2089 -1.8580
  666MOL0     H89901   9.528   2.973   5.320  1.7841 -0.1348  0.4134
  666MOL0     H89902   9.303   3.045   5.368  1.5050 -0.3208 -1.5524
  666MOL0     H89903   9.314   2.988   5.537 -1.2237  1.8067 -0.8005
  666MOL0     H89904   9.275   2.744   5.458 -2.4300 -0.4827 -0.5282
  666MOL0     H89905   9.303   2.799   5.295  1.8074  2.0622  0.4847
  666MOL0     H89906   9.073   2.772   5.318  1.8584 -2.6870  1.8500
  666MOL0     H89907   9.096   2.949   5.326 -0.6577 -0.4390 -0.4413
  666MOL0     H89908   8.951   2.878   5.715  3.1905  1.1603  1.2284
  666MOL0     H89909   9.734   2.960   5.313  1.7435 -1.1507 -0.7532
  666MOL0     H89910   9.949   2.883   5.283 -3.0395  0.7800 -0.7178
  667MOL0     O89911  10.803   8.659   0.116 -0.4328  0.3712 -0.5127
  667MOL0     C89912  10.865   8.733   0.190  0.1743  0.6999 -0.7189
  667MOL0     O89913  10.937   8.692   0.295  0.0370 -0.2904 -0.1331
  667MOL0     C89914  10.916   8.561   0.340 -0.4480 -0.3654  0.1844
  667MOL0     C89915  10.857   8.535   0.467 -0.8016 -0.2233  0.3940
  667MOL0     C89916  10.848   8.410   0.522  0.6541  0.2119  0.1820
  667MOL0     C89917  10.902   8.300   0.456 -0.0177 -0.5307  0.1771
  667MOL0     O89918  10.917   8.171   0.507 -0.2745 -0.5477 -0.3661
  667MOL0     C89919  10.856   8.143   0.633 -0.1078 -0.6470 -0.0012
  667MOL0     C89920  10.879   7.990   0.656 -0.0705  0.6009  0.5864
  667MOL0     C89921  10.863   7.961   0.807 -0.5492  0.5360  0.4258
  667MOL0     C89922  10.902   7.818   0.855 -0.0250 -0.1020 -0.1386
  667MOL0     C89923  10.850   7.768   0.994  0.3276 -1.0104 -0.1832
  667MOL0     C89924  10.880   7.852   1.124  0.3446  0.6600 -0.9107
  667MOL0     C89925  11.029   7.902   1.151  1.0606 -0.4658 -0.2821
  667MOL0     C89926  11.026   7.984   1.288  0.0999 -1.1314 -0.4092
  667MOL0     N89927  11.160   8.044   1.298  0.0491 -0.2087  0.1284
  667MOL0     C89928  11.276   7.992   1.335 -0.6691  0.7399  0.0458
  667MOL0     C89929  11.374   8.084   1.322  0.4981  0.3940 -0.5976
  667MOL0     C89930  11.518   8.059   1.361  0.7447  0.0944 -0.1836
  667MOL0     C89931  11.606   8.111   1.255 -0.5024 -0.1248 -0.5119
  667MOL0     C89932  11.628   8.257   1.284  0.7133 -0.4315  0.1690
  667MOL0     C89933  11.727   8.320   1.184 -0.3942 -0.6787  0.4472
  667MOL0     O89934  11.712   8.464   1.184  0.4817  0.8284 -0.5304
  667MOL0     C89935  11.789   8.537   1.272  0.5289 -0.5519 -0.2058
  667MOL0     C89936  11.727   8.630   1.358  0.2732  0.1556 -0.5294
  667MOL0     C89937  11.803   8.719   1.436  0.0629  0.7588 -0.5946
  667MOL0     C89938  11.724   8.817   1.518  0.2017 -0.5520  0.3872
  667MOL0     C89939  11.940   8.723   1.412  1.0737  0.0965 -0.7367
  667MOL0     C89940  12.042   8.821   1.476  0.5308  0.3545  0.0148
  667MOL0     O89941  12.154   8.838   1.401 -0.1431  0.9875 -0.4101
  667MOL0     C89942  12.200   8.962   1.390  0.5284  0.0152  0.8778
  667MOL0     C89943  12.341   8.978   1.369  0.0744 -0.2152  0.5938
  667MOL0     C89944  12.402   9.110   1.360 -0.4919 -0.0197  0.2606
  667MOL0     C89945  12.317   9.217   1.372 -0.6427  0.3554  0.7096
  667MOL0     O89946  12.362   9.345   1.367  0.6004 -0.5752  0.2261
  667MOL0     C89947  12.485   9.374   1.299  0.1083 -1.2780 -0.6292
  667MOL0     C89948  12.481   9.528   1.310  0.1353 -0.2604  0.0806
  667MOL0     C89949  12.475   9.584   1.452  0.2618 -0.7072 -0.2256
  667MOL0     C89950  12.518   9.514   1.579  1.3227 -0.1157  0.6426
  667MOL0     C89951  12.536   9.623   1.692 -0.2158 -0.1516 -0.3223
  667MOL0     C89952  12.412   9.704   1.726  0.6076 -0.3677  0.0664
  667MOL0     C89953  12.425   9.787   1.864  0.5756  0.0129  0.3491
  667MOL0     C89954  12.540   9.876   1.864  0.1181  0.6190  0.4957
  667MOL0    Cl89955  12.682   9.795   1.960 -0.0012 -0.1248  0.1545
  667MOL0     C89956  12.180   9.206   1.388 -0.4101  0.1956 -0.0034
  667MOL0     C89957  12.123   9.078   1.399  0.3328  0.7557 -0.2303
  667MOL0     O89958  12.016   8.874   1.583 -0.5110  0.4900 -0.4988
  667MOL0     C89959  12.000   8.623   1.335 -1.0198 -0.4927 -0.5616
  667MOL0     C89960  11.925   8.530   1.261  0.6959  0.0136 -0.5409
  667MOL0     N89961  11.311   8.198   1.282  0.2291  0.5958 -0.1624
  667MOL0     N89962  11.186   8.179   1.275  0.6338 -0.4282  0.4119
  667MOL0     C89963  10.952   8.319   0.325  0.0163 -0.7815  0.4989
  667MOL0     C89964  10.968   8.450   0.271  0.1021 -0.8657  0.2281
  667MOL0     C89965  10.851   8.878   0.179  0.3695 -0.0390  0.6483
  667MOL0     C89966  10.754   8.928   0.095  0.0489 -0.9802 -0.2286
  667MOL0     C89967  10.738   9.067   0.083 -0.2903 -0.5522  0.6414
  667MOL0     C89968  10.816   9.152   0.155  0.1204 -0.2059  0.2744
  667MOL0     O89969  10.803   9.282   0.120  0.1852 -0.9573  0.6792
  667MOL0     C89970  10.920   9.365   0.132  0.0611 -0.0046 -0.4384
  667MOL0     C89971  10.908   9.443   0.257 -1.2646 -0.2570 -0.2817
  667MOL0     C89972  11.042   9.517   0.292 -0.1398  0.1843  0.4184
  667MOL0     C89973  11.029   9.660   0.350  0.0338  0.1279 -0.7433
  667MOL0     C89974  11.164   9.719   0.388  0.6171  0.4444 -0.6280
  667MOL0     C89975  11.275   9.752   0.403 -0.7108  0.0922 -0.4392
  667MOL0     C89976  10.910   9.098   0.246  0.0947 -0.0649 -0.4043
  667MOL0     C89977  10.933   8.963   0.253 -0.5028 -0.6531  0.4269
  667MOL0     H89978  10.818   8.610   0.535 -2.4948  0.2977 -1.0905
  667MOL0     H89979  10.797   8.401   0.617 -0.7786  0.8318 -0.4985
  667MOL0     H89980  10.904   8.209   0.706 -1.4701  0.4630 -0.0663
  667MOL0     H89981  10.749   8.164   0.634  0.3454  2.1911 -0.9186
  667MOL0     H89982  10.806   7.936   0.595  1.1370  0.6694 -0.9651
  667MOL0     H89983  10.981   7.960   0.632  0.1291  0.8032  1.1606
  667MOL0     H89984  10.926   8.027   0.867  1.5925 -3.7149  3.4234
  667MOL0     H89985  10.763   7.986   0.844 -0.0421  2.1614  0.7713
  667MOL0     H89986  10.855   7.747   0.788 -1.6062  1.5198 -0.8261
  667MOL0     H89987  11.012   7.816   0.856 -0.0202 -0.7433  1.4616
  667MOL0     H89988  10.743   7.750   0.978  0.0386 -0.4997  1.0961
  667MOL0     H89989  10.894   7.670   1.016  1.1022 -0.4811  0.6779
  667MOL0     H89990  10.812   7.937   1.121  1.2533  1.4008 -1.0135
  667MOL0     H89991  10.845   7.788   1.205 -3.2068  0.2412 -2.5633
  667MOL0     H89992  11.107   7.826   1.153  2.9051  1.2620  2.7369
  667MOL0     H89993  11.054   7.974   1.073 -1.3665 -1.6924 -2.3514
  667MOL0     H89994  11.014   7.923   1.378 -0.5321 -1.9212 -1.0154
  667MOL0     H89995  10.943   8.056   1.285  3.0338  2.5592 -3.1123
  667MOL0     H89996  11.296   7.889   1.363  0.6020  0.6119 -1.2218
  667MOL0     H89997  11.536   8.106   1.459 -3.8869  0.7496  0.5957
  667MOL0     H89998  11.541   7.955   1.381  0.3392  0.0549  0.1067
  667MOL0     H89999  11.547   8.099   1.163  0.2954 -0.3079 -1.0048
  667MOL0     H90000  11.697   8.056   1.231  0.5229  2.0432 -1.8309
  667MOL0     H90001  11.663   8.273   1.386 -1.7756 -0.7437  1.1276
  667MOL0     H90002  11.535   8.312   1.302  2.6420  2.8863  1.0155
  667MOL0     H90003  11.702   8.284   1.084 -0.9453  0.2285  0.2540
  667MOL0     H90004  11.824   8.280   1.215 -1.7855 -1.4862  4.3700
  667MOL0     H90005  11.618   8.623   1.355  0.2049  1.0333 -3.7790
  667MOL0     H90006  11.616   8.798   1.516  0.1654 -0.2867 -0.2858
  667MOL0     H90007  11.745   8.787   1.621  0.6840 -1.2102  0.1071
  667MOL0     H90008  11.745   8.921   1.494  1.2564 -0.7750  0.2987
  667MOL0     H90009  12.401   8.889   1.354  1.7185  0.5269  2.3863
  667MOL0     H90010  12.511   9.116   1.353 -0.2583 -1.3862  1.9816
  667MOL0     H90011  12.570   9.338   1.358 -0.8432 -3.4580 -0.4976
  667MOL0     H90012  12.482   9.341   1.195 -1.7653 -3.0922 -0.0863
  667MOL0     H90013  12.576   9.559   1.266 -0.2401  0.3046 -0.3417
  667MOL0     H90014  12.399   9.568   1.250 -0.4755 -3.8905 -1.7808
  667MOL0     H90015  12.368   9.600   1.466  0.3911  1.5285 -1.3397
  667MOL0     H90016  12.528   9.680   1.449 -0.8497 -0.0512  0.5567
  667MOL0     H90017  12.442   9.441   1.605 -0.8166  1.1431 -1.6556
  667MOL0     H90018  12.612   9.461   1.564 -0.4132 -3.1927 -0.0707
  667MOL0     H90019  12.617   9.686   1.655  2.3204 -2.6419  0.6342
  667MOL0     H90020  12.563   9.565   1.780 -3.5137  1.0845  1.7223
  667MOL0     H90021  12.391   9.766   1.638 -0.6022 -1.2814 -0.3044
  667MOL0     H90022  12.330   9.634   1.738  1.1990 -0.8982  1.2146
  667MOL0     H90023  12.436   9.718   1.948 -3.3393  0.0987  1.1129
  667MOL0     H90024  12.335   9.849   1.869  1.4120  2.0563 -4.2559
  667MOL0     H90025  12.513   9.969   1.914  0.2276 -0.5300  2.8388
  667MOL0     H90026  12.562   9.909   1.762 -3.0475  3.2061  0.4949
  667MOL0     H90027  12.120   9.295   1.398 -1.9029 -0.6596 -0.8839
  667MOL0     H90028  12.015   9.074   1.408  0.5418 -2.7774  3.3604
  667MOL0     H90029  12.108   8.631   1.333 -1.0834  0.7597 -0.1811
  667MOL0     H90030  11.987   8.466   1.199 -0.8712 -0.8270 -1.3064
  667MOL0     H90031  10.973   8.235   0.260  0.0849 -0.6694  0.3767
  667MOL0     H90032  11.016   8.461   0.175 -1.5896  1.3794 -0.4441
  667MOL0     H90033  10.697   8.864   0.029 -2.2138 -0.3464  0.9800
  667MOL0     H90034  10.662   9.101   0.013  0.8618 -0.4581 -0.6067
  667MOL0     H90035  11.007   9.300   0.120 -1.9748 -2.7652 -1.3692
  667MOL0     H90036  10.912   9.436   0.049  2.3328  1.3860  0.4347
  667MOL0     H90037  10.880   9.382   0.342 -2.3895 -1.3697 -1.4158
  667MOL0     H90038  10.835   9.524   0.249  0.2723  1.8157  3.6888
  667MOL0     H90039  11.083   9.540   0.194 -1.8136 -0.5394 -0.4876
  667MOL0     H90040  11.102   9.450   0.354  0.1238  0.4930  0.4941
  667MOL0     H90041  10.961   9.655   0.436  4.0044 -2.3027  2.6162
  667MOL0     H90042  10.990   9.725   0.271 -1.5263 -2.1068 -1.9248
  667MOL0     H90043  11.374   9.792   0.410  0.4128 -2.5775  0.1996
  667MOL0     H90044  10.963   9.172   0.305  0.8123 -0.1088 -0.9799
  667MOL0     H90045  11.006   8.914   0.316 -2.5889 -1.9139  2.0166
  668MOL0     O90046   6.508   8.668   0.259 -0.7834 -0.9244 -0.2316
  668MOL0     C90047   6.573   8.769   0.294 -0.1043 -0.3063 -0.1991
  668MOL0     O90048   6.527   8.845   0.403  0.0729  0.0881  0.1298
  668MOL0     C90049   6.404   8.806   0.458 -0.5220  0.3867 -0.0823
  668MOL0     C90050   6.287   8.839   0.395  0.2012  0.9122 -0.5087
  668MOL0     C90051   6.162   8.811   0.450  0.3634  0.4546  0.9363
  668MOL0     C90052   6.159   8.751   0.574 -0.0849 -0.1772 -0.1719
  668MOL0     O90053   6.038   8.747   0.644  0.5768  0.0482 -0.0944
  668MOL0     C90054   5.928   8.836   0.612 -1.5318  1.0720 -0.6133
  668MOL0     C90055   5.823   8.836   0.716 -1.4187 -0.7873 -0.2295
  668MOL0     C90056   5.890   8.846   0.859 -0.5243  0.0799 -0.2324
  668MOL0     C90057   5.791   8.843   0.981 -0.0438 -0.4909  0.0156
  668MOL0     C90058   5.863   8.847   1.118  1.0824 -0.1593 -1.5085
  668MOL0     C90059   5.794   8.747   1.218  0.0645  0.2582  0.3253
  668MOL0     C90060   5.869   8.722   1.349 -0.2950 -0.4420 -0.3232
  668MOL0     C90061   5.872   8.854   1.447 -0.8853  1.0281 -0.0570
  668MOL0     N90062   5.753   8.869   1.529 -0.5309  0.6025 -0.0307
  668MOL0     C90063   5.722   8.764   1.615 -0.7158 -0.0146  0.3636
  668MOL0     C90064   5.609   8.807   1.684 -1.4301 -1.2016  0.4038
  668MOL0     C90065   5.546   8.717   1.782 -0.0043 -0.0119  1.0859
  668MOL0     C90066   5.580   8.774   1.921  0.2156  0.3751  0.6789
  668MOL0     C90067   5.723   8.812   1.953 -0.3837  0.3925 -0.7216
  668MOL0     C90068   5.745   8.888   2.084  0.2159  0.5064  0.0716
  668MOL0     O90069   5.873   8.945   2.084  0.2243 -1.3430  0.3176
  668MOL0     C90070   5.887   9.075   2.050 -0.6493 -0.0112  1.3419
  668MOL0     C90071   6.001   9.149   2.075  0.3838  0.2079 -0.0203
  668MOL0     C90072   6.015   9.283   2.054 -0.3721  0.0168 -0.7919
  668MOL0     C90073   6.150   9.352   2.081  0.5801  0.8787 -0.1507
  668MOL0     C90074   5.904   9.346   1.994  0.4059 -1.1598  0.1637
  668MOL0     C90075   5.893   9.497   1.957  0.9400  0.3609 -1.2659
  668MOL0     O90076   5.774   9.546   1.902 -0.3666  0.5582 -0.2752
  668MOL0     C90077   5.754   9.671   1.838 -1.1171 -0.0758  0.7044
  668MOL0     C90078   5.631   9.733   1.837 -1.0063  0.3135 -0.5944
  668MOL0     C90079   5.619   9.853   1.767 -0.4582  0.4991  0.7249
  668MOL0     C90080   5.721   9.915   1.709  0.0235 -0.4692  0.3139
  668MOL0     O90081   5.689  10.030   1.636 -0.2914 -1.4593  0.1014
  668MOL0     C90082   5.796  10.092   1.550  0.4576  0.2044  0.7197
  668MOL0     C90083   5.778  10.235   1.509 -0.0310 -0.1995 -0.4069
  668MOL0     C90084   5.644  10.263   1.419 -0.4257 -0.6350  0.1636
  668MOL0     C90085   5.678  10.336   1.294  0.5640 -0.6674 -0.3472
  668MOL0     C90086   5.579  10.295   1.181  0.1227 -0.9373  0.8613
  668MOL0     C90087   5.572  10.387   1.053  1.0945 -0.2034 -0.0593
  668MOL0     C90088   5.687  10.377   0.953 -0.7553  0.7808  0.3110
  668MOL0     C90089   5.646  10.386   0.808  0.1016  0.0038  0.1736
  668MOL0    Cl90090   5.591  10.539   0.739  0.1713  0.1401 -0.2081
  668MOL0     C90091   5.842   9.861   1.716  0.1591  0.3645  1.4770
  668MOL0     C90092   5.864   9.733   1.773  0.1245 -0.0391 -0.2423
  668MOL0     O90093   5.989   9.562   1.983  0.5927 -0.2693  0.4895
  668MOL0     C90094   5.791   9.275   1.968 -0.6913  0.6431  0.2416
  668MOL0     C90095   5.784   9.140   1.986  0.2092 -0.3655 -0.3538
  668MOL0     N90096   5.564   8.931   1.634  0.2397 -0.6544 -0.4007
  668MOL0     N90097   5.658   8.967   1.547  0.4375  1.0037  0.3494
  668MOL0     C90098   6.277   8.691   0.622  0.9614  0.1306  0.1282
  668MOL0     C90099   6.404   8.721   0.573  0.3311 -0.1250  0.2230
  668MOL0     C90100   6.688   8.820   0.220  0.5298  0.8789  0.3296
  668MOL0     C90101   6.768   8.922   0.266 -0.1296  0.9307 -0.8824
  668MOL0     C90102   6.885   8.952   0.188 -0.0254 -0.4694  0.3213
  668MOL0     C90103   6.912   8.887   0.067  0.4195  1.2620 -0.6551
  668MOL0     O90104   7.027   8.909   0.004  0.6411 -0.5646  0.2256
  668MOL0     C90105   7.025   8.907  -0.143  0.3012  0.4126  0.9555
  668MOL0     C90106   7.153   8.966  -0.202  0.2575  1.7287 -0.1537
  668MOL0     C90107   7.153   8.961  -0.354  0.5700 -0.0509  0.5774
  668MOL0     C90108   7.279   9.014  -0.418  0.4398  0.2669  0.0512
  668MOL0     C90109   7.279   8.996  -0.563 -0.2293 -0.4310  0.2220
  668MOL0     C90110   7.297   8.970  -0.682 -0.7954 -0.1278  0.3364
  668MOL0     C90111   6.826   8.777   0.026 -0.3468  0.8685  0.0431
  668MOL0     C90112   6.715   8.761   0.097  0.2171 -0.6863 -1.4899
  668MOL0     H90113   6.279   8.907   0.310  1.4148 -0.6381 -1.9461
  668MOL0     H90114   6.068   8.829   0.399 -0.3184 -1.1012  1.5817
  668MOL0     H90115   5.968   8.935   0.586 -1.2899  0.7559 -1.4875
  668MOL0     H90116   5.895   8.777   0.526 -1.4587 -1.3072  0.8875
  668MOL0     H90117   5.761   8.924   0.697  1.0995  0.4687 -3.5867
  668MOL0     H90118   5.773   8.741   0.698 -1.2860 -0.9014 -0.0017
  668MOL0     H90119   5.964   8.765   0.869 -1.6470 -1.0170 -0.4993
  668MOL0     H90120   5.952   8.935   0.872  3.1387 -2.3918  1.2671
  668MOL0     H90121   5.718   8.924   0.983  0.0938 -0.2786 -1.6651
  668MOL0     H90122   5.744   8.745   0.970  0.9589 -0.8985 -0.8777
  668MOL0     H90123   5.968   8.814   1.117  1.2695  0.1153  1.1847
  668MOL0     H90124   5.858   8.950   1.154  3.8884 -1.2809  3.0569
  668MOL0     H90125   5.704   8.797   1.253  0.5516  0.6965  0.9797
  668MOL0     H90126   5.780   8.646   1.177  2.4137 -0.3832  0.9375
  668MOL0     H90127   5.826   8.633   1.396 -1.9630  0.0064 -0.9099
  668MOL0     H90128   5.971   8.698   1.319 -0.4013  0.3840 -1.3758
  668MOL0     H90129   5.885   8.945   1.387  1.3676 -0.0897 -1.3767
  668MOL0     H90130   5.964   8.842   1.504  0.1659  1.4313 -1.6084
  668MOL0     H90131   5.769   8.668   1.634 -2.6406 -1.4599 -1.6516
  668MOL0     H90132   5.442   8.695   1.757  0.7711 -1.8055 -0.8742
  668MOL0     H90133   5.607   8.626   1.785  1.2061  0.8063  2.5025
  668MOL0     H90134   5.562   8.696   1.996  0.4205 -0.9732 -0.6374
  668MOL0     H90135   5.513   8.857   1.947 -1.5670 -1.3770  2.0433
  668MOL0     H90136   5.760   8.879   1.875  1.0184 -0.1606 -0.5586
  668MOL0     H90137   5.787   8.724   1.953 -0.1884  0.5314 -0.1289
  668MOL0     H90138   5.733   8.819   2.168  0.9335  3.9827  3.2847
  668MOL0     H90139   5.667   8.959   2.112  0.1449 -0.2239  1.8888
  668MOL0     H90140   6.082   9.081   2.098  1.5343  0.1637 -3.5003
  668MOL0     H90141   6.187   9.405   1.993  2.4287  0.5384  0.3824
  668MOL0     H90142   6.146   9.417   2.169 -0.4633  2.2557 -1.1791
  668MOL0     H90143   6.224   9.275   2.103 -0.4887 -0.4068 -0.8918
  668MOL0     H90144   5.548   9.683   1.886 -1.0214  4.3770  4.2741
  668MOL0     H90145   5.517   9.887   1.754 -1.9064 -3.5500  0.0426
  668MOL0     H90146   5.894  10.089   1.599  0.2426 -0.1785  1.1378
  668MOL0     H90147   5.816  10.029   1.463 -0.4784 -0.6687  1.1132
  668MOL0     H90148   5.788  10.300   1.596  0.3757 -1.4245  0.4847
  668MOL0     H90149   5.863  10.257   1.444  1.8859  0.9217  2.3300
  668MOL0     H90150   5.575  10.333   1.467 -0.7075  0.3572 -1.6223
  668MOL0     H90151   5.588  10.170   1.410 -1.5943  0.2180 -2.1921
  668MOL0     H90152   5.673  10.445   1.303  1.0244 -0.6031 -0.8012
  668MOL0     H90153   5.774  10.306   1.249 -0.5498 -0.8345 -2.7464
  668MOL0     H90154   5.477  10.278   1.216  0.5708  0.9458  3.3588
  668MOL0     H90155   5.614  10.199   1.143 -1.4340 -1.7103  1.2737
  668MOL0     H90156   5.481  10.359   0.999  1.2298 -0.7907  0.0146
  668MOL0     H90157   5.564  10.492   1.082  1.7836 -0.6388  1.8672
  668MOL0     H90158   5.745  10.286   0.970 -2.6186 -0.1249  2.3661
  668MOL0     H90159   5.753  10.464   0.965 -0.4749  0.6194 -0.0173
  668MOL0     H90160   5.567  10.311   0.798  0.6784 -0.7959  1.3704
  668MOL0     H90161   5.723  10.353   0.739 -2.0168 -1.0234 -1.8375
  668MOL0     H90162   5.921   9.913   1.663 -0.2137 -0.5700 -0.0541
  668MOL0     H90163   5.957   9.678   1.761 -0.7367 -1.8743  0.8975
  668MOL0     H90164   5.708   9.326   1.921  0.7087  1.3382 -1.6268
  668MOL0     H90165   5.687   9.101   1.954 -0.7611  0.4484  1.4485
  668MOL0     H90166   6.251   8.644   0.716  2.2557  1.8790  1.4325
  668MOL0     H90167   6.495   8.696   0.626  0.7035 -1.6770 -1.0643
  668MOL0     H90168   6.750   8.975   0.359  1.5477  3.9928 -2.1419
  668MOL0     H90169   6.955   9.028   0.220 -1.8549  1.3788  0.1948
  668MOL0     H90170   7.012   8.802  -0.171 -0.7731  0.9825 -0.8500
  668MOL0     H90171   6.940   8.957  -0.190 -1.5795 -1.1581  2.4952
  668MOL0     H90172   7.238   8.907  -0.167 -0.3440  0.4317 -0.8083
  668MOL0     H90173   7.178   9.066  -0.167  0.7013  1.9858 -1.1549
  668MOL0     H90174   7.070   9.026  -0.384  1.5081  2.0100  2.2132
  668MOL0     H90175   7.132   8.861  -0.394  1.2699 -1.1033  2.7080
  668MOL0     H90176   7.359   8.946  -0.387 -1.0439 -1.6860 -0.2256
  668MOL0     H90177   7.314   9.112  -0.384  3.9991 -0.5871 -0.7004
  668MOL0     H90178   7.312   8.940  -0.784  0.3132  3.5001 -0.7271
  668MOL0     H90179   6.850   8.725  -0.065  0.2628 -0.0999  0.7411
  668MOL0     H90180   6.650   8.680   0.065 -4.4398  2.8109 -1.8055
  669MOL0     O90181   6.846  10.263   7.255 -0.3891 -0.8227  1.3546
  669MOL0     C90182   6.734  10.221   7.210 -0.3113  0.1507 -0.8194
  669MOL0     O90183   6.716  10.119   7.120  0.2440  0.1572 -0.0681
  669MOL0     C90184   6.827  10.061   7.050 -0.6492 -0.5524  0.6284
  669MOL0     C90185   6.950  10.120   7.019  0.3159 -0.2920  0.1782
  669MOL0     C90186   7.044  10.043   6.946 -0.7010 -1.1020 -0.1164
  669MOL0     C90187   7.027   9.914   6.916 -0.2479  0.0403 -0.0124
  669MOL0     O90188   7.112   9.833   6.849 -0.2578  0.2120 -0.7806
  669MOL0     C90189   7.257   9.874   6.858  0.1149 -0.6840 -0.0537
  669MOL0     C90190   7.322   9.839   6.999 -0.0364  0.4097  0.7702
  669MOL0     C90191   7.360   9.955   7.096  0.3259  0.1397 -0.7508
  669MOL0     C90192   7.471  10.054   7.057 -0.0015 -0.0316  0.3717
  669MOL0     C90193   7.480  10.153   7.170  0.0727 -0.0971  0.0400
  669MOL0     C90194   7.560  10.275   7.123 -0.5868 -0.3601  0.7524
  669MOL0     C90195   7.700  10.225   7.077 -0.0065 -0.9796 -0.6772
  669MOL0     C90196   7.805  10.328   7.076 -0.4672 -0.1893 -0.4537
  669MOL0     N90197   7.866  10.349   7.208 -0.0345 -0.0467  0.2894
  669MOL0     C90198   7.817  10.437   7.294  0.7279 -0.5117  0.1836
  669MOL0     C90199   7.912  10.445   7.394  0.3604  0.2147  0.6397
  669MOL0     C90200   7.891  10.539   7.518 -0.2578 -0.2221 -0.5634
  669MOL0     C90201   7.999  10.645   7.523  0.5429 -0.0259  0.5916
  669MOL0     C90202   8.007  10.734   7.400 -0.9166 -0.3133 -0.2827
  669MOL0     C90203   8.041  10.881   7.420  0.0926  0.6706  0.9233
  669MOL0     O90204   7.917  10.926   7.468  0.3614 -0.3100 -0.3479
  669MOL0     C90205   7.900  11.059   7.497 -0.4432 -0.1625 -0.0325
  669MOL0     C90206   7.994  11.165   7.457  0.4229 -0.4378 -0.6480
  669MOL0     C90207   7.959  11.301   7.487  0.2922  1.2907  0.6545
  669MOL0     C90208   8.055  11.405   7.453 -0.1022 -0.2019  0.2966
  669MOL0     C90209   7.828  11.327   7.524 -0.6342  0.0335  0.2595
  669MOL0     C90210   7.767  11.465   7.529 -0.2979  0.2664  0.6256
  669MOL0     O90211   7.681  11.487   7.632 -0.2829  0.9599  0.0803
  669MOL0     C90212   7.601  11.588   7.641 -0.1060  0.3760  0.7410
  669MOL0     C90213   7.469  11.556   7.665  0.4077 -0.3758 -0.4617
  669MOL0     C90214   7.384  11.662   7.705 -0.5489  0.9372  0.3048
  669MOL0     C90215   7.425  11.795   7.717 -0.0166 -0.6576  0.6056
  669MOL0     O90216   7.347  11.910   7.737  0.0738  0.0198 -0.1922
  669MOL0     C90217   7.210  11.884   7.747  0.2000 -0.3747 -0.0047
  669MOL0     C90218   7.144  12.014   7.814 -0.1625  0.3325 -0.1967
  669MOL0     C90219   7.174  12.032   7.969 -0.4119  0.1311 -0.2553
  669MOL0     C90220   7.139  12.175   8.036 -0.0038  0.5491 -0.3807
  669MOL0     C90221   7.190  12.180   8.184 -0.6144  0.5338  0.1734
  669MOL0     C90222   7.106  12.098   8.287  0.0112  0.3104  0.0539
  669MOL0     C90223   7.175  12.111   8.422 -0.1993  0.0190 -0.0971
  669MOL0     C90224   7.098  12.009   8.513  0.6336  0.0131 -0.2266
  669MOL0    Cl90225   6.921  12.037   8.522 -0.0692 -0.6325 -0.0966
  669MOL0     C90226   7.557  11.826   7.684  0.2980  0.0220  0.2260
  669MOL0     C90227   7.650  11.719   7.663 -0.4316  0.3098  0.4503
  669MOL0     O90228   7.795  11.547   7.440  0.0866  0.0985 -0.7539
  669MOL0     C90229   7.729  11.225   7.552 -0.6810 -0.2688  0.9023
  669MOL0     C90230   7.773  11.090   7.546 -0.0525 -0.7165  0.1755
  669MOL0     N90231   8.006  10.347   7.373  0.4097 -0.0712  0.2973
  669MOL0     N90232   7.975  10.293   7.258 -0.2624  0.2936  0.9077
  669MOL0     C90233   6.907   9.856   6.958 -0.2447  0.5557  0.4836
  669MOL0     C90234   6.810   9.930   7.024 -0.2825 -0.0628  0.1639
  669MOL0     C90235   6.614  10.287   7.268  0.3293 -0.4478  0.5540
  669MOL0     C90236   6.491  10.260   7.220  0.5614  0.0629  0.1424
  669MOL0     C90237   6.382  10.336   7.257  0.3820 -0.0367 -0.4008
  669MOL0     C90238   6.392  10.441   7.361  0.5405  0.0866  0.1465
  669MOL0     O90239   6.289  10.515   7.408  1.1052  0.6644 -0.1374
  669MOL0     C90240   6.152  10.468   7.392  0.4755  0.2769  1.1143
  669MOL0     C90241   6.050  10.582   7.429  0.5332  0.5905  0.5123
  669MOL0     C90242   6.023  10.691   7.327 -1.0328  0.6419 -0.6421
  669MOL0     C90243   5.897  10.671   7.250  0.2635 -0.0091 -0.3243
  669MOL0     C90244   5.901  10.765   7.142  0.0828  0.2441  0.2036
  669MOL0     C90245   5.915  10.839   7.050 -0.0259 -0.4913  0.0334
  669MOL0     C90246   6.513  10.461   7.417 -0.4461  0.5638  0.1833
  669MOL0     C90247   6.627  10.390   7.364  0.1362 -0.7261 -0.9632
  669MOL0     H90248   6.957  10.225   7.045 -0.4745 -0.2533  0.2513
  669MOL0     H90249   7.127  10.103   6.910 -1.7392  0.0176 -0.7253
  669MOL0     H90250   7.316   9.818   6.784  0.6028 -0.6617  0.3145
  669MOL0     H90251   7.278   9.977   6.828  3.0149 -0.7501  1.4623
  669MOL0     H90252   7.247   9.778   7.051 -1.3764 -0.4176 -1.9439
  669MOL0     H90253   7.404   9.768   6.981  0.3273  0.9004  0.4754
  669MOL0     H90254   7.263  10.003   7.111 -1.0456 -2.6290 -0.2018
  669MOL0     H90255   7.375   9.911   7.195  2.1838 -1.3201 -1.6129
  669MOL0     H90256   7.566   9.999   7.062 -1.0641 -2.2054 -1.5960
  669MOL0     H90257   7.450  10.104   6.962  2.5478  0.1823 -0.1551
  669MOL0     H90258   7.380  10.187   7.199  0.8320  1.4558  0.9274
  669MOL0     H90259   7.517  10.095   7.255 -0.1244 -0.7969 -0.3493
  669MOL0     H90260   7.522  10.326   7.034 -1.1807 -1.3772  0.4011
  669MOL0     H90261   7.574  10.346   7.205 -1.5068  2.5340 -1.4336
  669MOL0     H90262   7.745  10.148   7.140  4.8245  1.2048 -1.0082
  669MOL0     H90263   7.684  10.197   6.972  0.3388  0.7142 -1.2054
  669MOL0     H90264   7.755  10.419   7.041 -1.5095 -0.1158  1.1511
  669MOL0     H90265   7.889  10.308   7.009 -0.2749 -0.2900 -0.1834
  669MOL0     H90266   7.716  10.474   7.284  0.1635 -2.3899 -1.9586
  669MOL0     H90267   7.787  10.572   7.532  0.0219 -0.0306  1.2435
  669MOL0     H90268   7.922  10.479   7.604  2.0741 -0.5075 -1.5335
  669MOL0     H90269   8.094  10.591   7.530  0.0188 -0.8392  1.6993
  669MOL0     H90270   7.969  10.698   7.614  0.1657 -0.6280  0.8216
  669MOL0     H90271   7.907  10.732   7.354 -2.3315 -3.4350  2.4925
  669MOL0     H90272   8.077  10.689   7.329 -2.7042 -0.6258 -1.9612
  669MOL0     H90273   8.061  10.931   7.325 -2.8402  0.9118  0.3515
  669MOL0     H90274   8.128  10.875   7.486  0.6662  1.4500  0.2720
  669MOL0     H90275   8.087  11.150   7.403 -0.4964 -1.3707 -2.0443
  669MOL0     H90276   8.073  11.477   7.533 -1.3411  5.5571 -3.8733
  669MOL0     H90277   8.151  11.371   7.412 -1.9237 -3.6602 -1.6168
  669MOL0     H90278   8.011  11.465   7.372 -0.6725  1.3620  1.7237
  669MOL0     H90279   7.428  11.456   7.655 -1.4410  0.3107 -0.1650
  669MOL0     H90280   7.281  11.636   7.729  0.2957 -1.4765  1.6084
  669MOL0     H90281   7.164  11.872   7.649  1.1767 -1.3613 -0.3622
  669MOL0     H90282   7.181  11.797   7.807  0.8808 -0.3581  0.3636
  669MOL0     H90283   7.174  12.107   7.766 -0.7619  1.2640  1.1415
  669MOL0     H90284   7.042  11.987   7.786  0.2257  0.0923 -1.4395
  669MOL0     H90285   7.284  12.036   7.974 -0.2596  1.5359 -2.9628
  669MOL0     H90286   7.135  11.956   8.036 -2.6482  2.3403  1.0934
  669MOL0     H90287   7.180  12.260   7.980 -1.7030  1.5350 -0.2060
  669MOL0     H90288   7.030  12.180   8.031 -0.3347 -0.0047  3.6382
  669MOL0     H90289   7.176  12.286   8.210  1.2569  0.4118  1.8177
  669MOL0     H90290   7.295  12.155   8.194 -1.0993 -1.5622  0.3671
  669MOL0     H90291   7.001  12.130   8.283 -0.5566 -1.2564 -4.9729
  669MOL0     H90292   7.101  11.995   8.253  0.9359  0.3546 -0.2478
  669MOL0     H90293   7.160  12.216   8.445 -2.7784 -0.5540  1.1561
  669MOL0     H90294   7.283  12.092   8.413 -0.0955  0.4900  0.0889
  669MOL0     H90295   7.150  12.005   8.609  0.2381  3.0212  0.2007
  669MOL0     H90296   7.104  11.905   8.479  2.6097 -0.0043  0.0882
  669MOL0     H90297   7.602  11.923   7.667  1.2688 -0.0927  1.9377
  669MOL0     H90298   7.753  11.751   7.650 -0.5110  1.4287  2.2846
  669MOL0     H90299   7.621  11.233   7.554 -0.8186 -1.8870  1.4006
  669MOL0     H90300   7.714  10.999   7.551  1.6634 -1.8845  0.1484
  669MOL0     H90301   6.874   9.756   6.931  0.7941  0.4135 -0.3118
  669MOL0     H90302   6.723   9.874   7.056 -0.5784 -0.6880 -1.5782
  669MOL0     H90303   6.476  10.176   7.153  0.4713  0.2103 -0.0223
  669MOL0     H90304   6.287  10.318   7.207  0.4683  3.0626 -1.9445
  669MOL0     H90305   6.135  10.446   7.286  0.5090  0.1365  1.1371
  669MOL0     H90306   6.147  10.383   7.461  2.5389  0.5109  1.6097
  669MOL0     H90307   6.093  10.631   7.517 -1.8767  4.4742 -0.2443
  669MOL0     H90308   5.955  10.533   7.452  1.0829 -1.5440 -1.3666
  669MOL0     H90309   6.112  10.710   7.266 -0.9573  2.5061 -0.0073
  669MOL0     H90310   6.006  10.778   7.390 -1.6119 -0.8504  1.3595
  669MOL0     H90311   5.817  10.712   7.314  1.4955 -1.0499  1.9905
  669MOL0     H90312   5.887  10.569   7.212 -1.8679 -1.5154  3.7274
  669MOL0     H90313   5.940  10.891   6.959 -0.5473  0.8310  0.6295
  669MOL0     H90314   6.531  10.527   7.502 -3.7486 -0.5618  1.9351
  669MOL0     H90315   6.719  10.412   7.416 -1.1835 -0.4414  1.3695
  670MOL0     O90316   7.619   5.497  11.443 -0.0207 -0.1735 -0.6137
  670MOL0     C90317   7.642   5.583  11.527  0.4336  1.2104 -0.6519
  670MOL0     O90318   7.622   5.719  11.517 -0.5293 -0.0802  0.1188
  670MOL0     C90319   7.564   5.767  11.396 -0.6611  0.6772  0.6644
  670MOL0     C90320   7.449   5.847  11.410 -0.2715  0.4220 -0.1189
  670MOL0     C90321   7.380   5.885  11.299  0.0873 -0.4929 -0.7446
  670MOL0     C90322   7.415   5.850  11.165 -0.8146  0.1670 -1.3431
  670MOL0     O90323   7.357   5.870  11.041  0.0053 -0.2645 -0.5609
  670MOL0     C90324   7.217   5.908  11.064 -0.1929  0.0125  0.7155
  670MOL0     C90325   7.143   5.896  10.929 -0.3656  0.8319  0.0049
  670MOL0     C90326   7.149   6.020  10.851 -0.0626  0.3836 -0.8512
  670MOL0     C90327   7.087   5.990  10.715 -0.1698  1.0220 -0.7188
  670MOL0     C90328   7.061   6.125  10.645 -0.4548 -0.8625 -0.0759
  670MOL0     C90329   6.938   6.115  10.554 -0.9125  0.8744  0.3529
  670MOL0     C90330   6.896   6.243  10.481  0.2188  0.9426  0.0332
  670MOL0     C90331   6.796   6.218  10.363  0.2601 -0.7552 -0.0021
  670MOL0     N90332   6.750   6.345  10.321 -0.0692  0.1399 -0.7955
  670MOL0     C90333   6.777   6.417  10.211  0.2979 -0.3392  0.8414
  670MOL0     C90334   6.691   6.518  10.196  0.9541 -0.0708  0.3093
  670MOL0     C90335   6.691   6.642  10.108  0.1084  0.0037 -0.9466
  670MOL0     C90336   6.718   6.622   9.962  0.2091 -0.2881 -0.1468
  670MOL0     C90337   6.722   6.758   9.894 -0.1903 -0.2797  0.0724
  670MOL0     C90338   6.774   6.733   9.752  0.2002 -0.2073  0.4113
  670MOL0     O90339   6.749   6.854   9.674  0.4777 -0.5504  0.8211
  670MOL0     C90340   6.755   6.854   9.535 -0.6395 -0.8695 -0.1922
  670MOL0     C90341   6.696   6.961   9.454 -0.6348  0.1456 -0.0020
  670MOL0     C90342   6.715   6.969   9.316  0.4783 -0.7320  0.7502
  670MOL0     C90343   6.668   7.090   9.242  0.6753 -0.5835  0.0949
  670MOL0     C90344   6.773   6.860   9.250  0.2101 -0.3304  0.7546
  670MOL0     C90345   6.788   6.853   9.105  0.2765  0.0463 -1.0665
  670MOL0     O90346   6.699   6.913   9.016 -0.1810  0.6453 -0.3343
  670MOL0     C90347   6.724   6.881   8.879 -0.6248 -0.2013 -0.2585
  670MOL0     C90348   6.643   6.796   8.799  0.2499  0.6011  0.2215
  670MOL0     C90349   6.653   6.774   8.661 -0.5763  0.2743  0.5056
  670MOL0     C90350   6.753   6.850   8.596  0.4910 -0.0854  0.0421
  670MOL0     O90351   6.763   6.838   8.457  0.2754  0.4321  0.1929
  670MOL0     C90352   6.891   6.795   8.416 -0.9264 -0.0295  0.1005
  670MOL0     C90353   6.922   6.862   8.280 -0.6634 -0.3721 -0.2723
  670MOL0     C90354   7.041   6.808   8.211 -0.1663  0.2811 -0.2588
  670MOL0     C90355   7.172   6.773   8.286  1.0903  1.6010 -0.2625
  670MOL0     C90356   7.297   6.743   8.209  1.0634 -0.6214 -0.2531
  670MOL0     C90357   7.277   6.633   8.107 -0.0230  0.5203  0.3785
  670MOL0     C90358   7.261   6.486   8.172 -0.3967  0.4421  0.0855
  670MOL0     C90359   7.193   6.384   8.073  0.5576 -0.0912  0.2610
  670MOL0    Cl90360   7.301   6.360   7.926  0.0481 -0.0229 -0.4591
  670MOL0     C90361   6.837   6.930   8.673 -0.0190 -0.2292  0.3386
  670MOL0     C90362   6.826   6.950   8.814 -1.0806 -0.7035 -0.0142
  670MOL0     O90363   6.884   6.782   9.065  0.2234 -0.8476  0.7078
  670MOL0     C90364   6.822   6.752   9.331  0.3333  0.0344 -1.1328
  670MOL0     C90365   6.815   6.743   9.471 -0.6424  0.2268  0.0122
  670MOL0     N90366   6.599   6.510  10.297 -0.1426 -0.2087 -0.5427
  670MOL0     N90367   6.637   6.405  10.370  0.5639 -0.4152 -0.2954
  670MOL0     C90368   7.531   5.789  11.155 -0.6472  0.4418  1.4473
  670MOL0     C90369   7.600   5.743  11.263 -0.3058  0.4382 -0.5480
  670MOL0     C90370   7.687   5.539  11.661 -1.1536  0.3754  0.3505
  670MOL0     C90371   7.727   5.404  11.675  0.7741  0.2520 -0.0220
  670MOL0     C90372   7.776   5.351  11.788 -1.0018 -0.3889 -2.0747
  670MOL0     C90373   7.790   5.427  11.897  0.6314  1.1530 -0.6951
  670MOL0     O90374   7.851   5.368  12.006  0.4600  0.3826 -0.4097
  670MOL0     C90375   7.847   5.444  12.137 -0.3303  0.0325  1.2662
  670MOL0     C90376   7.914   5.368  12.244  0.3357  0.5996  1.7714
  670MOL0     C90377   8.062   5.382  12.218 -0.4523 -0.2667  0.4002
  670MOL0     C90378   8.135   5.271  12.292  0.1393  1.2929 -0.1980
  670MOL0     C90379   8.277   5.274  12.297  0.0349 -0.7948  0.4304
  670MOL0     C90380   8.393   5.289  12.315  0.0682 -0.1975  0.6801
  670MOL0     C90381   7.740   5.557  11.886 -1.1609  0.0029 -1.2626
  670MOL0     C90382   7.711   5.622  11.772 -1.0815 -0.6917  0.8061
  670MOL0     H90383   7.402   5.858  11.508  0.3290 -3.0262  0.7124
  670MOL0     H90384   7.278   5.921  11.315 -0.2536 -0.8620 -1.9920
  670MOL0     H90385   7.157   5.840  11.125 -0.5107 -2.5468 -2.2489
  670MOL0     H90386   7.217   6.009  11.108  0.6919 -0.3766  1.6422
  670MOL0     H90387   7.176   5.812  10.868  1.1947  0.8200  0.7994
  670MOL0     H90388   7.037   5.887  10.952  0.0966 -0.8721  1.6540
  670MOL0     H90389   7.103   6.102  10.906 -0.9221  0.0896 -1.1093
  670MOL0     H90390   7.252   6.053  10.837  0.3542 -1.2912 -2.1673
  670MOL0     H90391   7.144   5.914  10.662 -0.2152 -0.5031  1.3042
  670MOL0     H90392   6.991   5.945  10.744  1.4422 -1.4567  1.2185
  670MOL0     H90393   7.029   6.208  10.709 -0.8916 -0.7300 -0.4626
  670MOL0     H90394   7.152   6.147  10.589 -1.0196  0.2062 -0.6110
  670MOL0     H90395   6.952   6.037  10.479 -1.0585  1.3205 -0.1444
  670MOL0     H90396   6.852   6.077  10.610 -1.5083  0.7971 -0.5964
  670MOL0     H90397   6.848   6.306  10.557  1.8512  1.7353  0.4551
  670MOL0     H90398   6.989   6.289  10.446 -0.2302  2.8685  1.2301
  670MOL0     H90399   6.715   6.150  10.393  1.9570 -1.5729  3.0947
  670MOL0     H90400   6.858   6.191  10.277  2.5975  3.2313  0.1556
  670MOL0     H90401   6.859   6.399  10.142  1.0457  1.6066  1.1710
  670MOL0     H90402   6.594   6.692  10.118  1.0434  1.7410 -0.2184
  670MOL0     H90403   6.762   6.711  10.154 -1.0730 -0.6228  2.1226
  670MOL0     H90404   6.647   6.553   9.916  0.0056  1.3834 -2.4707
  670MOL0     H90405   6.808   6.560   9.961 -0.3446 -1.1785  1.4412
  670MOL0     H90406   6.790   6.828   9.944  1.0243 -1.7375  0.5458
  670MOL0     H90407   6.626   6.810   9.896  0.6576  1.4898 -1.8619
  670MOL0     H90408   6.716   6.656   9.700  1.4941 -0.2793 -1.0016
  670MOL0     H90409   6.879   6.704   9.763  0.4330  1.5566  5.1301
  670MOL0     H90410   6.640   7.036   9.510 -0.7301 -0.8301  1.2709
  670MOL0     H90411   6.739   7.113   9.162  0.8297  1.6577  0.8015
  670MOL0     H90412   6.577   7.055   9.193 -0.5043  1.4985  0.6822
  670MOL0     H90413   6.656   7.181   9.301  1.9748  0.4389 -1.1366
  670MOL0     H90414   6.561   6.743   8.846  0.5380  0.0685  0.1343
  670MOL0     H90415   6.582   6.716   8.602 -1.5510  3.8175 -2.1688
  670MOL0     H90416   6.972   6.827   8.483 -1.6038 -2.7393  2.4201
  670MOL0     H90417   6.887   6.689   8.392 -2.2248  0.0066  0.0804
  670MOL0     H90418   6.836   6.854   8.213 -2.4631  0.6471  1.8000
  670MOL0     H90419   6.936   6.969   8.297 -0.4126 -0.7577  2.3748
  670MOL0     H90420   7.069   6.879   8.132 -0.5966 -0.3531 -1.0047
  670MOL0     H90421   7.004   6.720   8.157 -1.1283 -0.9101  2.2012
  670MOL0     H90422   7.192   6.857   8.354 -0.3236  0.8859  1.0965
  670MOL0     H90423   7.153   6.683   8.344 -2.2358  1.1989 -1.7299
  670MOL0     H90424   7.385   6.729   8.273  1.6493 -4.6506 -1.6598
  670MOL0     H90425   7.322   6.829   8.147 -1.3074 -0.1357 -0.6295
  670MOL0     H90426   7.194   6.654   8.040 -0.1332  1.1626  0.7106
  670MOL0     H90427   7.364   6.626   8.041 -1.9044 -2.5487 -2.0803
  670MOL0     H90428   7.197   6.492   8.261  0.7927  1.6799  0.9001
  670MOL0     H90429   7.354   6.441   8.209 -1.2510 -0.5869  1.0502
  670MOL0     H90430   7.112   6.450   8.042  1.2667 -0.1913 -2.0024
  670MOL0     H90431   7.161   6.286   8.111 -3.1482  0.0588 -2.0792
  670MOL0     H90432   6.924   6.975   8.626  1.3118 -2.0405  0.9028
  670MOL0     H90433   6.890   7.020   8.867 -0.2733 -2.4385  1.4099
  670MOL0     H90434   6.873   6.671   9.281 -1.2467 -1.0102 -1.1030
  670MOL0     H90435   6.871   6.660   9.513 -0.4555  0.8828  1.0998
  670MOL0     H90436   7.577   5.775  11.058  1.9180  1.1316  2.4885
  670MOL0     H90437   7.690   5.688  11.235  0.6845  2.3010 -1.2577
  670MOL0     H90438   7.705   5.331  11.598 -3.4703  0.1137  1.0886
  670MOL0     H90439   7.808   5.249  11.809 -0.8911 -0.1978 -1.2731
  670MOL0     H90440   7.894   5.540  12.114 -2.2409  0.3835 -1.8228
  670MOL0     H90441   7.747   5.478  12.168 -0.6065 -0.0269  0.4615
  670MOL0     H90442   7.887   5.262  12.239 -1.6203  1.0954  0.8295
  670MOL0     H90443   7.881   5.393  12.345  1.6903  1.2879  2.0689
  670MOL0     H90444   8.090   5.478  12.263 -2.4447  0.2450  0.6538
  670MOL0     H90445   8.091   5.373  12.113 -0.1974  1.0678  0.3413
  670MOL0     H90446   8.112   5.175  12.244 -1.5881  2.2420 -1.4149
  670MOL0     H90447   8.103   5.270  12.397  0.3588  0.2156 -0.1303
  670MOL0     H90448   8.500   5.299  12.321  0.1139 -1.3541  3.4801
  670MOL0     H90449   7.757   5.625  11.969  2.4610 -1.4203 -0.6721
  670MOL0     H90450   7.700   5.730  11.765  2.1109 -0.3558 -3.2716
  671MOL0     O90451   3.790   9.934   4.953 -0.4133  0.2067 -0.1321
  671MOL0     C90452   3.863   9.957   5.051  0.9782  1.3400  0.6409
  671MOL0     O90453   3.999   9.979   5.044  0.2867 -0.5305  0.0268
  671MOL0     C90454   4.053  10.001   4.922 -0.3050 -0.3422 -0.6382
  671MOL0     C90455   4.137   9.900   4.871  1.0773  0.4330 -1.0339
  671MOL0     C90456   4.211   9.914   4.753 -0.3776  0.0726 -1.1822
  671MOL0     C90457   4.198  10.030   4.686 -0.0196  0.5000  0.8677
  671MOL0     O90458   4.259  10.054   4.567  0.4361 -0.3065  0.3612
  671MOL0     C90459   4.192  10.013   4.448 -0.3047  0.8287 -0.8880
  671MOL0     C90460   4.234  10.094   4.329  0.3630 -0.9729 -0.2093
  671MOL0     C90461   4.181  10.241   4.333 -0.9115  0.1435 -0.2042
  671MOL0     C90462   4.202  10.322   4.202  0.6581 -0.3451 -0.0188
  671MOL0     C90463   4.174  10.471   4.222 -0.6302 -0.8095 -0.0032
  671MOL0     C90464   4.027  10.497   4.233  0.4385 -0.8871 -0.9258
  671MOL0     C90465   3.991  10.637   4.182 -0.4101 -0.1079 -0.4825
  671MOL0     C90466   4.016  10.734   4.306  0.0468 -0.1623 -0.1090
  671MOL0     N90467   4.036  10.876   4.258  0.2212  1.0345  0.0439
  671MOL0     C90468   3.946  10.959   4.201  0.7116 -0.2834  0.3290
  671MOL0     C90469   4.013  11.079   4.175 -0.2043  0.2947  0.9621
  671MOL0     C90470   3.943  11.205   4.109 -0.3317  0.3154  0.1490
  671MOL0     C90471   3.979  11.208   3.960 -0.0359  0.5793 -0.6020
  671MOL0     C90472   3.962  11.347   3.893 -0.5438  0.0422 -0.0727
  671MOL0     C90473   3.996  11.310   3.743 -0.4903 -0.3368  0.4990
  671MOL0     O90474   3.898  11.219   3.687  0.3383 -0.1828 -0.0590
  671MOL0     C90475   3.779  11.270   3.636  0.4212  0.1893 -0.7922
  671MOL0     C90476   3.700  11.186   3.551  0.6750 -0.8952 -0.1980
  671MOL0     C90477   3.575  11.235   3.509  0.3967 -0.4629 -0.1494
  671MOL0     C90478   3.476  11.135   3.441 -0.0706  0.4498  0.3374
  671MOL0     C90479   3.542  11.372   3.526 -0.6272 -0.3526  0.4251
  671MOL0     C90480   3.415  11.428   3.475 -0.8707  0.1759  0.8737
  671MOL0     O90481   3.379  11.406   3.337  0.8824 -0.1169 -0.1952
  671MOL0     C90482   3.282  11.489   3.292 -0.3719  0.2976 -0.5903
  671MOL0     C90483   3.174  11.428   3.236  0.3992  0.3842  0.4166
  671MOL0     C90484   3.058  11.502   3.187 -0.3267 -0.1097 -0.6184
  671MOL0     C90485   3.075  11.641   3.171  0.5992 -0.2161  0.4644
  671MOL0     O90486   2.978  11.713   3.114  0.2540  0.1663 -0.7622
  671MOL0     C90487   2.883  11.650   3.019  0.0683 -0.5253  0.6708
  671MOL0     C90488   2.794  11.762   2.961 -0.5371 -0.1267  0.3539
  671MOL0     C90489   2.694  11.701   2.859 -0.9291 -0.2907 -0.9291
  671MOL0     C90490   2.653  11.824   2.781 -0.0104 -0.1191 -0.1899
  671MOL0     C90491   2.522  11.781   2.693 -0.1340  0.4469 -0.3283
  671MOL0     C90492   2.449  11.900   2.652 -0.3320 -1.2587  0.1270
  671MOL0     C90493   2.327  11.927   2.743  0.0188  0.3525 -0.1262
  671MOL0     C90494   2.224  12.018   2.673  0.1466 -0.9015 -0.6472
  671MOL0    Cl90495   2.114  12.123   2.772 -0.0923 -0.2177  0.0873
  671MOL0     C90496   3.187  11.709   3.219 -0.1451  0.0905 -0.7409
  671MOL0     C90497   3.288  11.627   3.279 -0.3696  0.1800 -0.4017
  671MOL0     O90498   3.348  11.488   3.554  0.2255 -0.3754  0.4704
  671MOL0     C90499   3.613  11.452   3.615  0.3751 -0.1334 -0.4582
  671MOL0     C90500   3.734  11.400   3.664 -0.7412  0.7646 -0.0804
  671MOL0     N90501   4.138  11.068   4.223  0.2775  0.4807  0.1254
  671MOL0     N90502   4.153  10.947   4.276 -0.3836  0.1029 -0.0138
  671MOL0     C90503   4.112  10.133   4.738  0.5832 -0.2310 -0.0604
  671MOL0     C90504   4.032  10.119   4.852  0.1959  0.0892 -1.0609
  671MOL0     C90505   3.800   9.956   5.184 -0.5238 -0.1022 -0.5455
  671MOL0     C90506   3.665   9.930   5.193  1.2221 -0.2198 -0.1520
  671MOL0     C90507   3.607   9.943   5.322  0.1420  0.8956  0.5449
  671MOL0     C90508   3.679   9.991   5.437 -0.0318  0.1823  0.4298
  671MOL0     O90509   3.624  10.008   5.554 -0.6751 -1.6617 -0.3575
  671MOL0     C90510   3.614   9.901   5.641 -0.1515  0.0128  0.3646
  671MOL0     C90511   3.658   9.942   5.776  0.1494 -0.1762 -0.2072
  671MOL0     C90512   3.700   9.826   5.875 -0.2130 -0.3643  0.1744
  671MOL0     C90513   3.709   9.876   6.022  0.4172 -1.0810 -0.0726
  671MOL0     C90514   3.569   9.896   6.081 -0.4832  0.0384  1.1179
  671MOL0     C90515   3.460   9.919   6.134  0.6943  0.1876  0.7408
  671MOL0     C90516   3.817   9.999   5.421 -0.2891 -0.0430  0.0106
  671MOL0     C90517   3.879   9.994   5.295 -0.3370  0.5276  1.0477
  671MOL0     H90518   4.166   9.818   4.935 -0.9356  1.2343  1.0488
  671MOL0     H90519   4.286   9.842   4.721  0.5520  0.0402  0.9204
  671MOL0     H90520   4.194   9.906   4.428 -1.2851  0.8284 -1.0313
  671MOL0     H90521   4.085  10.026   4.470 -0.2848 -0.8430  0.4122
  671MOL0     H90522   4.343  10.098   4.315  0.1675  0.0070 -1.7872
  671MOL0     H90523   4.209  10.041   4.236  4.6500 -2.1402 -0.9337
  671MOL0     H90524   4.075  10.247   4.359 -0.4306 -1.2724  2.4519
  671MOL0     H90525   4.237  10.288   4.414 -0.2600  0.6706 -0.9366
  671MOL0     H90526   4.303  10.309   4.160  0.1310  1.2462 -1.9520
  671MOL0     H90527   4.143  10.287   4.116 -1.6837 -0.5523  1.5908
  671MOL0     H90528   4.232  10.502   4.310 -0.1019 -0.2456 -0.5429
  671MOL0     H90529   4.206  10.527   4.134  0.6413 -2.7490 -0.8492
  671MOL0     H90530   3.980  10.418   4.173 -0.1095 -1.6843  0.4996
  671MOL0     H90531   3.991  10.484   4.335  0.3208  1.8228 -0.5744
  671MOL0     H90532   4.046  10.672   4.094 -1.6354  0.8261 -0.9053
  671MOL0     H90533   3.884  10.642   4.158 -0.3084  1.3125 -0.6712
  671MOL0     H90534   4.096  10.690   4.366 -0.8779 -0.6441  0.8143
  671MOL0     H90535   3.927  10.745   4.369 -0.6755  0.7862 -1.2365
  671MOL0     H90536   3.842  10.934   4.182  1.1711 -0.9706 -1.4467
  671MOL0     H90537   3.834  11.208   4.121 -0.5368  1.9766 -1.6137
  671MOL0     H90538   3.979  11.299   4.152 -1.8108  0.9711  0.0338
  671MOL0     H90539   3.921  11.129   3.911 -1.3572  1.5063 -0.5904
  671MOL0     H90540   4.081  11.177   3.934 -0.9652  0.4227 -4.7806
  671MOL0     H90541   4.026  11.426   3.932 -1.0619 -0.0512  0.9905
  671MOL0     H90542   3.858  11.377   3.911 -0.5234 -0.8040  1.5730
  671MOL0     H90543   4.088  11.252   3.736 -2.2154 -3.1714 -0.6672
  671MOL0     H90544   3.998  11.405   3.689  2.0504 -0.3839  0.4257
  671MOL0     H90545   3.732  11.087   3.522  2.9493  0.4050 -2.6113
  671MOL0     H90546   3.508  11.031   3.430  0.9115  0.8757 -1.1184
  671MOL0     H90547   3.378  11.131   3.490  0.1906 -0.9050  0.7863
  671MOL0     H90548   3.457  11.167   3.338 -3.8007 -0.0628  0.7293
  671MOL0     H90549   3.179  11.320   3.229  1.8730  0.3447  1.6810
  671MOL0     H90550   2.969  11.447   3.157 -1.6449  1.7962 -0.4367
  671MOL0     H90551   2.940  11.610   2.935 -0.8453 -3.6497  1.4211
  671MOL0     H90552   2.826  11.563   3.052  0.5766 -1.6372 -1.2379
  671MOL0     H90553   2.749  11.814   3.046  0.9419 -0.1511  1.1873
  671MOL0     H90554   2.856  11.831   2.902 -1.7932  1.2883  0.6200
  671MOL0     H90555   2.616  11.649   2.914 -1.8911 -1.1550 -3.0010
  671MOL0     H90556   2.752  11.628   2.803 -1.3680 -1.2031 -0.2085
  671MOL0     H90557   2.635  11.908   2.848  2.1239 -1.2566  1.9547
  671MOL0     H90558   2.729  11.856   2.709  0.0595 -2.0786 -1.0709
  671MOL0     H90559   2.462  11.710   2.751  2.1500 -0.9709  0.4242
  671MOL0     H90560   2.557  11.718   2.611 -0.0714 -0.0925  0.0971
  671MOL0     H90561   2.515  11.986   2.659 -1.7813 -0.0301 -0.5676
  671MOL0     H90562   2.423  11.894   2.546  0.2727  0.4390 -0.1397
  671MOL0     H90563   2.350  11.975   2.838 -1.1433 -1.5761  1.1840
  671MOL0     H90564   2.277  11.840   2.784  1.4093 -1.1659 -1.4861
  671MOL0     H90565   2.163  11.968   2.598 -1.5134 -0.3551  0.2909
  671MOL0     H90566   2.273  12.093   2.611  0.3728  2.2620  2.9556
  671MOL0     H90567   3.206  11.814   3.201 -2.7673  0.4947 -1.5348
  671MOL0     H90568   3.384  11.661   3.317 -1.1613 -0.7830  2.7814
  671MOL0     H90569   3.583  11.555   3.631 -0.6340 -0.7728  2.4320
  671MOL0     H90570   3.793  11.476   3.715  0.4675 -1.3492  1.9074
  671MOL0     H90571   4.108  10.229   4.686 -2.6873  1.3049  2.6266
  671MOL0     H90572   3.957  10.186   4.893 -0.4816 -1.2205 -0.0701
  671MOL0     H90573   3.619   9.892   5.103  0.1133  0.1863  0.2268
  671MOL0     H90574   3.499   9.936   5.331  0.0921 -0.6940 -0.8266
  671MOL0     H90575   3.510   9.867   5.634 -0.1853 -0.3768  2.3570
  671MOL0     H90576   3.669   9.816   5.599  0.6996  1.3777 -1.4033
  671MOL0     H90577   3.577   9.995   5.827  1.7991  1.3129  1.0079
  671MOL0     H90578   3.744  10.009   5.771  0.6861 -0.9592 -2.3862
  671MOL0     H90579   3.799   9.788   5.847  0.4856  0.4306  1.4732
  671MOL0     H90580   3.626   9.749   5.856  0.2664 -0.9947  0.8263
  671MOL0     H90581   3.765   9.970   6.016  2.1423 -1.8436  2.4736
  671MOL0     H90582   3.765   9.807   6.086  3.0730 -2.0917 -3.2044
  671MOL0     H90583   3.373   9.950   6.189  0.6528  0.7946  0.3485
  671MOL0     H90584   3.884  10.015   5.505  0.8690  0.0719 -0.8996
  671MOL0     H90585   3.987  10.006   5.296 -0.4900  4.0758 -1.9035
  672MOL0     O90586  10.618  10.636   2.172  0.7763  0.2722  0.5830
  672MOL0     C90587  10.634  10.671   2.291  0.7894 -0.3369  1.1765
  672MOL0     O90588  10.536  10.672   2.387  0.7919 -0.8515  0.3409
  672MOL0     C90589  10.408  10.634   2.373 -0.1273 -1.1438  0.2766
  672MOL0     C90590  10.327  10.665   2.268  0.2338 -0.5567  0.1944
  672MOL0     C90591  10.191  10.635   2.282  0.8436  0.0178 -0.8476
  672MOL0     C90592  10.136  10.573   2.393 -0.1637 -0.3602 -0.4464
  672MOL0     O90593  10.004  10.546   2.387 -0.4693 -0.4020 -0.4410
  672MOL0     C90594   9.964  10.416   2.427 -0.6788  0.7775  0.9519
  672MOL0     C90595   9.825  10.408   2.473 -0.2203  0.5480 -1.0323
  672MOL0     C90596   9.722  10.452   2.378  0.3883  0.1282  0.0283
  672MOL0     C90597   9.586  10.400   2.426  0.1197  0.0216  0.1818
  672MOL0     C90598   9.461  10.410   2.340  0.6047  0.6583 -0.4502
  672MOL0     C90599   9.326  10.409   2.424 -0.5583  0.4490 -0.0981
  672MOL0     C90600   9.307  10.530   2.511  0.3610 -0.6743  0.6234
  672MOL0     C90601   9.152  10.533   2.550 -0.5911  0.3080 -0.5445
  672MOL0     N90602   9.124  10.629   2.658  0.1269  0.2516  0.1971
  672MOL0     C90603   9.065  10.751   2.645  0.2391  0.0855  0.2035
  672MOL0     C90604   9.061  10.802   2.767 -0.5321 -0.8088 -0.0816
  672MOL0     C90605   9.004  10.938   2.790  0.3628  0.5630  0.4253
  672MOL0     C90606   8.955  10.945   2.937 -0.2181 -0.2453  0.4826
  672MOL0     C90607   8.929  11.094   2.976  0.1939  0.9774  0.4970
  672MOL0     C90608   8.841  11.099   3.101  0.0705  0.0849 -1.2197
  672MOL0     O90609   8.923  11.074   3.224  0.0018 -0.4698  0.1083
  672MOL0     C90610   8.879  11.136   3.336  0.3324  0.0384 -0.5010
  672MOL0     C90611   8.962  11.232   3.402  0.3116 -0.2528  0.3674
  672MOL0     C90612   8.932  11.289   3.532  0.4587  1.2226  1.1397
  672MOL0     C90613   9.019  11.411   3.574  0.3374  0.7351  0.0457
  672MOL0     C90614   8.805  11.243   3.590  0.6960 -0.7927  0.0204
  672MOL0     C90615   8.761  11.294   3.724  0.1330 -0.4360 -0.6597
  672MOL0     O90616   8.628  11.275   3.753  0.2086 -1.1205  0.2539
  672MOL0     C90617   8.602  11.269   3.887  1.0821  0.2613  0.1821
  672MOL0     C90618   8.633  11.156   3.965 -0.8049  1.1247  0.5326
  672MOL0     C90619   8.606  11.156   4.102  0.0290  0.2982  1.3215
  672MOL0     C90620   8.545  11.258   4.164  0.5979 -0.2678  0.1263
  672MOL0     O90621   8.515  11.236   4.292 -1.2312 -0.1448 -0.6879
  672MOL0     C90622   8.439  11.344   4.371 -0.7289  0.9507 -0.4997
  672MOL0     C90623   8.429  11.306   4.522 -1.2401 -0.1260 -0.5271
  672MOL0     C90624   8.502  11.391   4.613 -0.5306 -0.0949 -0.8406
  672MOL0     C90625   8.491  11.344   4.757 -0.3606  0.3192 -0.4777
  672MOL0     C90626   8.556  11.433   4.851 -0.8394  0.6575 -0.1623
  672MOL0     C90627   8.538  11.388   4.997 -0.4127 -0.8655  0.5294
  672MOL0     C90628   8.397  11.407   5.049  0.3649  0.1052  0.6046
  672MOL0     C90629   8.362  11.383   5.200 -0.0165  0.5808 -0.0704
  672MOL0    Cl90630   8.464  11.480   5.306  0.1259 -0.2743 -0.0849
  672MOL0     C90631   8.501  11.363   4.088  0.2217  0.0249  1.1483
  672MOL0     C90632   8.537  11.375   3.947 -1.0410  0.7860  1.0496
  672MOL0     O90633   8.830  11.368   3.792  0.3607  0.0038  0.0934
  672MOL0     C90634   8.728  11.147   3.518  1.0059 -0.1470  0.2734
  672MOL0     C90635   8.759  11.104   3.394  0.1455 -0.3201 -0.2315
  672MOL0     N90636   9.101  10.706   2.847  0.0529  0.2296 -0.4557
  672MOL0     N90637   9.145  10.605   2.787  0.1508  0.6410 -0.4937
  672MOL0     C90638  10.230  10.537   2.491 -0.1210  0.1819  1.4545
  672MOL0     C90639  10.360  10.577   2.487 -1.2543  0.6514 -1.2643
  672MOL0     C90640  10.775  10.695   2.330  0.4115  0.4362  0.5906
  672MOL0     C90641  10.821  10.643   2.448 -0.8948  0.7927 -0.0027
  672MOL0     C90642  10.954  10.670   2.489 -0.1754 -0.2073  0.1727
  672MOL0     C90643  11.037  10.731   2.408 -0.9125  0.1798  0.9679
  672MOL0     O90644  11.164  10.779   2.442 -0.0307 -0.5604 -0.2408
  672MOL0     C90645  11.211  10.759   2.572  0.6322  0.0523  0.1214
  672MOL0     C90646  11.265  10.617   2.588  0.8263  0.7130  0.2322
  672MOL0     C90647  11.335  10.589   2.727  1.0158 -0.3673 -0.1976
  672MOL0     C90648  11.237  10.589   2.854 -0.6755 -0.2096  0.2395
  672MOL0     C90649  11.134  10.488   2.845 -0.3988  0.9590 -0.9101
  672MOL0     C90650  11.050  10.403   2.866  0.4749 -0.0818  0.5650
  672MOL0     C90651  10.987  10.772   2.282  0.0234 -0.5788 -0.1357
  672MOL0     C90652  10.861  10.756   2.242  0.5613 -0.1871 -0.3524
  672MOL0     H90653  10.368  10.702   2.175  0.4563  0.5292  0.7072
  672MOL0     H90654  10.125  10.658   2.199 -0.2411 -0.1710 -0.0642
  672MOL0     H90655   9.980  10.352   2.340  1.3755  0.4329  1.5209
  672MOL0     H90656  10.028  10.373   2.505 -0.5287 -0.7992 -0.0051
  672MOL0     H90657   9.820  10.303   2.502 -0.9160  1.1923  1.4616
  672MOL0     H90658   9.811  10.466   2.565 -0.7939 -1.7537  0.4318
  672MOL0     H90659   9.725  10.561   2.387  0.8454 -0.0497  3.2942
  672MOL0     H90660   9.737  10.420   2.275  3.3275 -1.4696  0.8331
  672MOL0     H90661   9.589  10.292   2.444  0.2559  0.1321  0.8484
  672MOL0     H90662   9.568  10.461   2.515 -3.5935  2.2865 -1.8848
  672MOL0     H90663   9.462  10.503   2.283 -0.4913  0.9572 -0.0126
  672MOL0     H90664   9.453  10.320   2.278 -0.4521 -1.0870  2.0321
  672MOL0     H90665   9.245  10.411   2.350  1.1209  1.3233 -2.0082
  672MOL0     H90666   9.324  10.322   2.491 -0.3828 -0.2258 -0.9444
  672MOL0     H90667   9.374  10.527   2.597  1.0665  0.0950  0.1197
  672MOL0     H90668   9.345  10.614   2.452 -0.5429 -0.0362  0.9370
  672MOL0     H90669   9.132  10.429   2.576 -1.7655  0.8252  0.7059
  672MOL0     H90670   9.098  10.555   2.457 -0.0721  1.6921 -0.5534
  672MOL0     H90671   9.046  10.785   2.544 -2.7817 -0.9395  0.3231
  672MOL0     H90672   9.070  11.017   2.753 -2.1529  3.1632  1.0900
  672MOL0     H90673   8.912  10.953   2.732  0.3716  1.3100  0.6018
  672MOL0     H90674   9.021  10.901   3.013 -0.8792 -3.1488 -0.4976
  672MOL0     H90675   8.855  10.904   2.950  0.0287 -0.3876  2.2689
  672MOL0     H90676   8.875  11.145   2.896 -1.6574 -0.7640  0.5603
  672MOL0     H90677   9.018  11.157   2.973  0.1411  1.0167 -1.9643
  672MOL0     H90678   8.765  11.021   3.103  0.5164 -0.7124 -5.4019
  672MOL0     H90679   8.790  11.196   3.110 -1.0985 -0.7011  2.9582
  672MOL0     H90680   9.046  11.267   3.343  0.4461 -1.9769 -0.5136
  672MOL0     H90681   9.061  11.463   3.487  2.1059 -2.3824 -1.1697
  672MOL0     H90682   8.955  11.478   3.632  0.0631  1.8068 -1.4405
  672MOL0     H90683   9.108  11.363   3.616  0.7850  3.0738  1.9277
  672MOL0     H90684   8.675  11.071   3.911 -1.7300  0.1876  1.2499
  672MOL0     H90685   8.646  11.071   4.157 -0.9569 -0.2903  1.1547
  672MOL0     H90686   8.488  11.442   4.370  1.1110  0.1762  2.1069
  672MOL0     H90687   8.337  11.356   4.331 -0.9923  0.5937  0.0543
  672MOL0     H90688   8.323  11.318   4.548 -0.5454  0.8547  2.2635
  672MOL0     H90689   8.459  11.201   4.531  0.7321  0.4419 -0.0501
  672MOL0     H90690   8.470  11.495   4.604 -0.2416  0.2600  1.5353
  672MOL0     H90691   8.603  11.390   4.571 -1.6106 -0.1780 -3.6746
  672MOL0     H90692   8.385  11.352   4.783  0.0507  0.3755  1.3003
  672MOL0     H90693   8.513  11.237   4.766 -3.7473 -0.6195 -1.6129
  672MOL0     H90694   8.515  11.535   4.848  2.6153  2.1522 -2.3090
  672MOL0     H90695   8.656  11.437   4.808 -1.1485 -2.6097 -1.3925
  672MOL0     H90696   8.570  11.284   5.007  3.6037  0.2566  1.0053
  672MOL0     H90697   8.604  11.451   5.057 -1.7512  0.9360  0.1802
  672MOL0     H90698   8.319  11.358   4.989  0.8489  1.1879 -0.9770
  672MOL0     H90699   8.368  11.513   5.043  1.1130  0.3994  1.9010
  672MOL0     H90700   8.378  11.275   5.216 -1.2870 -0.2658 -3.5763
  672MOL0     H90701   8.254  11.392   5.210  0.2222  1.0442  3.1194
  672MOL0     H90702   8.445  11.449   4.124 -0.1199  1.0532 -1.6008
  672MOL0     H90703   8.497  11.452   3.881 -0.1399  0.7802  0.4788
  672MOL0     H90704   8.639  11.116   3.572  0.4910 -0.0115 -0.4839
  672MOL0     H90705   8.702  11.031   3.336 -0.1411  0.0515 -0.4251
  672MOL0     H90706  10.201  10.483   2.581  2.0718  1.0382  2.7562
  672MOL0     H90707  10.415  10.558   2.578 -0.3616 -1.4239 -2.1672
  672MOL0     H90708  10.753  10.597   2.519  0.6625  1.5168  2.0368
  672MOL0     H90709  10.991  10.641   2.587 -0.5639 -1.0006  0.0907
  672MOL0     H90710  11.300  10.822   2.582  0.3883  0.5126 -0.5560
  672MOL0     H90711  11.140  10.791   2.649  1.3126 -1.0267  1.2551
  672MOL0     H90712  11.333  10.584   2.510  2.4843 -2.5149  2.7712
  672MOL0     H90713  11.187  10.540   2.578  1.6160 -0.4908  2.5477
  672MOL0     H90714  11.417  10.659   2.744 -0.1047  1.9517 -3.2952
  672MOL0     H90715  11.384  10.493   2.710  2.4130  0.4640 -1.1114
  672MOL0     H90716  11.191  10.687   2.873  1.0200  0.1205  3.3427
  672MOL0     H90717  11.298  10.568   2.942  1.0119  1.1663 -0.5400
  672MOL0     H90718  10.989  10.315   2.871  2.9197 -1.8096  2.2313
  672MOL0     H90719  11.049  10.831   2.215 -3.9634  0.6040 -3.1650
  672MOL0     H90720  10.828  10.771   2.140  0.3094  0.6960 -0.1447
  673MOL0     O90721   2.472   3.360   2.362 -0.8730 -0.1278  0.3847
  673MOL0     C90722   2.464   3.315   2.477 -0.6216 -0.0521 -0.2890
  673MOL0     O90723   2.531   3.208   2.531 -0.1729  0.4995 -0.7097
  673MOL0     C90724   2.603   3.129   2.444  0.7006 -0.9821  1.1699
  673MOL0     C90725   2.737   3.152   2.418 -0.3673  0.8671  0.7220
  673MOL0     C90726   2.812   3.050   2.360  0.3897 -0.2072 -0.1824
  673MOL0     C90727   2.755   2.941   2.292  0.2036 -0.6735 -0.4903
  673MOL0     O90728   2.830   2.840   2.245 -0.6728 -0.8289 -0.4160
  673MOL0     C90729   2.904   2.781   2.345  0.2471  0.9504 -0.1632
  673MOL0     C90730   2.938   2.642   2.314 -0.0612 -0.1064  0.1174
  673MOL0     C90731   2.815   2.543   2.316  0.2051 -0.1472  0.3002
  673MOL0     C90732   2.850   2.421   2.235  0.3721 -0.2453  0.5863
  673MOL0     C90733   2.875   2.438   2.083  0.5794  0.9158 -0.7110
  673MOL0     C90734   2.992   2.346   2.039  0.0315  0.9166  0.1768
  673MOL0     C90735   2.989   2.358   1.886  0.0514 -0.2477 -0.6184
  673MOL0     C90736   3.087   2.251   1.813  0.1343  0.8405 -0.2494
  673MOL0     N90737   3.125   2.286   1.675 -0.1611 -0.3673  0.5075
  673MOL0     C90738   3.180   2.410   1.645  0.7528  0.5041  0.1391
  673MOL0     C90739   3.207   2.400   1.518  0.7426 -0.6475  0.4127
  673MOL0     C90740   3.271   2.502   1.425 -1.0091 -0.0623 -0.0633
  673MOL0     C90741   3.161   2.604   1.370 -0.5009  0.0933 -0.0624
  673MOL0     C90742   3.146   2.608   1.212 -0.5098 -0.5854 -0.1404
  673MOL0     C90743   3.086   2.474   1.156 -0.5436  0.2130 -0.1976
  673MOL0     O90744   3.054   2.519   1.023  0.5479 -0.1940  0.1551
  673MOL0     C90745   3.004   2.431   0.933 -0.0201  0.7017  0.0982
  673MOL0     C90746   2.996   2.479   0.801  0.1760  0.6893 -0.7125
  673MOL0     C90747   2.976   2.397   0.691 -1.1448 -0.0101 -0.2097
  673MOL0     C90748   2.963   2.469   0.557  0.8588  0.2559 -0.0935
  673MOL0     C90749   2.929   2.260   0.717  0.3450 -0.1795  0.2675
  673MOL0     C90750   2.887   2.160   0.606  0.4183  0.7193 -0.1976
  673MOL0     O90751   2.907   2.025   0.635 -0.9806  0.4323  0.8001
  673MOL0     C90752   2.854   1.921   0.558  0.5975 -0.6223 -1.4181
  673MOL0     C90753   2.941   1.862   0.464 -0.1842  1.2082  0.5244
  673MOL0     C90754   2.887   1.758   0.385 -0.2313 -0.6067  0.1394
  673MOL0     C90755   2.762   1.701   0.403  1.0988  0.4097  0.3873
  673MOL0     O90756   2.720   1.588   0.334  0.3334 -0.3050  0.2268
  673MOL0     C90757   2.809   1.531   0.227  0.2879  0.5813  0.1310
  673MOL0     C90758   2.723   1.442   0.134  0.5401  1.2105  0.3623
  673MOL0     C90759   2.784   1.399   0.000 -0.9190 -0.7414  0.5049
  673MOL0     C90760   2.886   1.288   0.004 -0.1517  0.9864 -0.0388
  673MOL0     C90761   2.917   1.261  -0.142 -0.0840  0.4214 -0.0355
  673MOL0     C90762   3.002   1.126  -0.163  0.7424 -0.6152 -0.8435
  673MOL0     C90763   3.007   1.097  -0.312 -0.5666  0.3047  0.4382
  673MOL0     C90764   3.128   1.158  -0.372  0.4443 -0.0896 -0.5157
  673MOL0    Cl90765   3.096   1.333  -0.393 -0.1330 -0.3182 -0.1285
  673MOL0     C90766   2.680   1.754   0.504  0.3606  0.3505  0.2103
  673MOL0     C90767   2.724   1.867   0.580  0.0857 -0.3772 -0.8211
  673MOL0     O90768   2.835   2.202   0.501 -0.9886 -0.1664 -0.7852
  673MOL0     C90769   2.914   2.225   0.850  1.0594 -0.1530  0.0067
  673MOL0     C90770   2.945   2.307   0.959 -0.6938  0.0768 -0.3030
  673MOL0     N90771   3.162   2.281   1.462 -0.3607 -0.3369  0.7151
  673MOL0     N90772   3.111   2.210   1.555  0.3807  0.8316 -0.8471
  673MOL0     C90773   2.619   2.922   2.300 -0.6975  0.7741  0.2584
  673MOL0     C90774   2.543   3.018   2.374 -0.8030 -0.0302  0.0205
  673MOL0     C90775   2.346   3.355   2.551 -0.6581  0.4393  0.9343
  673MOL0     C90776   2.333   3.330   2.686 -0.1398  0.0695  0.1630
  673MOL0     C90777   2.226   3.372   2.770  0.7615 -0.1363 -0.1745
  673MOL0     C90778   2.117   3.444   2.711 -1.3497 -0.8797  0.2159
  673MOL0     O90779   2.006   3.496   2.767 -0.1355 -0.5378 -0.3099
  673MOL0     C90780   2.025   3.549   2.895 -0.0349  0.2580 -0.1404
  673MOL0     C90781   1.974   3.430   2.989  0.1336 -0.6651  0.3193
  673MOL0     C90782   1.996   3.475   3.130 -0.4437  1.6692  0.1836
  673MOL0     C90783   2.047   3.370   3.228  0.6133  0.2429  0.3497
  673MOL0     C90784   2.149   3.279   3.181  0.3983  0.7786  0.3237
  673MOL0     C90785   2.229   3.207   3.134 -0.2308 -0.0444  0.4275
  673MOL0     C90786   2.130   3.471   2.571  0.7221  0.9210  0.5703
  673MOL0     C90787   2.238   3.433   2.492  1.1414 -0.2906  0.0449
  673MOL0     H90788   2.784   3.235   2.471  0.0353  1.7385 -0.9337
  673MOL0     H90789   2.920   3.058   2.364  0.2793  1.1677  2.3184
  673MOL0     H90790   2.996   2.832   2.373 -1.4625  3.0808  2.0650
  673MOL0     H90791   2.845   2.766   2.436  0.4711 -0.9999 -0.3114
  673MOL0     H90792   2.993   2.636   2.220  1.5372 -3.4121  1.0994
  673MOL0     H90793   3.008   2.603   2.388  0.0480 -2.3236 -1.0598
  673MOL0     H90794   2.791   2.515   2.419  0.6926  0.3852  0.5625
  673MOL0     H90795   2.730   2.593   2.269 -0.9580 -2.5032 -0.2707
  673MOL0     H90796   2.937   2.377   2.283 -0.2869 -0.2165  1.8355
  673MOL0     H90797   2.770   2.347   2.244 -1.4145  1.6180  0.6825
  673MOL0     H90798   2.785   2.412   2.027  2.0177 -1.1081 -2.2289
  673MOL0     H90799   2.883   2.546   2.070 -1.9619  1.2263 -0.1899
  673MOL0     H90800   3.080   2.378   2.095  0.7563 -0.9834  0.1887
  673MOL0     H90801   2.984   2.240   2.066 -1.1411  1.1684  0.8581
  673MOL0     H90802   2.886   2.357   1.850 -0.7593  0.4347  1.5118
  673MOL0     H90803   3.020   2.461   1.866 -3.1743  1.2601  1.2309
  673MOL0     H90804   3.024   2.162   1.801  0.8768  0.5794 -2.8329
  673MOL0     H90805   3.176   2.228   1.872 -1.1382 -2.5709  0.5980
  673MOL0     H90806   3.196   2.499   1.705  0.9084 -1.2308  2.9087
  673MOL0     H90807   3.343   2.551   1.491 -1.9799 -3.9735  4.4748
  673MOL0     H90808   3.320   2.454   1.340  1.1999 -1.1613  1.7297
  673MOL0     H90809   3.183   2.703   1.411  0.3050 -0.1080  0.0121
  673MOL0     H90810   3.068   2.596   1.427 -0.5460  1.7772  0.1514
  673MOL0     H90811   3.241   2.634   1.163 -1.5244 -0.7776 -2.3282
  673MOL0     H90812   3.076   2.689   1.188  0.2362  1.3167  3.3808
  673MOL0     H90813   2.991   2.455   1.207 -1.7723  0.0858 -2.4236
  673MOL0     H90814   3.158   2.392   1.161 -1.0467 -0.1893  0.8725
  673MOL0     H90815   3.020   2.584   0.791  1.7626  0.4988  0.7396
  673MOL0     H90816   3.027   2.416   0.485 -0.7496 -2.6232  0.4601
  673MOL0     H90817   2.861   2.451   0.524  0.9784  1.3952 -1.1734
  673MOL0     H90818   2.991   2.575   0.566  3.4217 -0.4000  0.5210
  673MOL0     H90819   3.038   1.901   0.433 -0.9782  2.3410 -0.6523
  673MOL0     H90820   2.961   1.715   0.317 -0.4688  2.0761 -1.9872
  673MOL0     H90821   2.852   1.608   0.162 -0.2451  0.2052 -0.6885
  673MOL0     H90822   2.887   1.463   0.260 -0.6276 -1.4404 -1.6366
  673MOL0     H90823   2.698   1.353   0.192 -4.3539 -0.9522 -4.2586
  673MOL0     H90824   2.634   1.499   0.106  0.2907  0.9370  0.6007
  673MOL0     H90825   2.839   1.487  -0.037 -1.5456  0.3734  2.0973
  673MOL0     H90826   2.697   1.366  -0.057 -1.2317 -0.5102  0.8418
  673MOL0     H90827   2.972   1.305   0.070 -1.0251 -0.9435  1.7133
  673MOL0     H90828   2.846   1.194   0.045  1.7249  1.1399  2.3961
  673MOL0     H90829   2.967   1.350  -0.182  0.5557  0.5861  1.1017
  673MOL0     H90830   2.828   1.229  -0.197  0.9173 -0.8589 -0.9797
  673MOL0     H90831   3.101   1.145  -0.121  0.9457  0.9374 -1.9594
  673MOL0     H90832   2.951   1.044  -0.111  2.5412 -1.3647 -0.1787
  673MOL0     H90833   2.920   1.122  -0.373  0.7575 -2.9879 -3.2727
  673MOL0     H90834   3.001   0.987  -0.313 -4.3096  0.3395 -1.9266
  673MOL0     H90835   3.132   1.095  -0.462 -1.6240 -0.7573 -0.1860
  673MOL0     H90836   3.214   1.155  -0.304 -0.9015  3.6549  1.6243
  673MOL0     H90837   2.579   1.714   0.504  0.6654 -0.4450 -0.4474
  673MOL0     H90838   2.672   1.922   0.658  1.5905 -2.0168  1.4535
  673MOL0     H90839   2.875   2.128   0.878  0.8196  0.9415  4.2199
  673MOL0     H90840   2.934   2.269   1.060  2.8956  0.3632  0.3175
  673MOL0     H90841   2.577   2.836   2.248  1.6892 -0.4845  0.2702
  673MOL0     H90842   2.438   2.995   2.391 -1.3333  1.5980 -0.7886
  673MOL0     H90843   2.418   3.283   2.735  0.4736  1.8823  0.9230
  673MOL0     H90844   2.227   3.365   2.879 -1.6008 -2.0570 -0.2140
  673MOL0     H90845   2.131   3.570   2.915  0.8391 -3.5023 -0.0451
  673MOL0     H90846   1.967   3.640   2.910  0.1806 -0.0920  3.7358
  673MOL0     H90847   2.031   3.339   2.969  1.9332  0.2123  1.3066
  673MOL0     H90848   1.866   3.413   2.982  0.4597 -2.3449 -2.0782
  673MOL0     H90849   1.895   3.506   3.160 -1.6518 -2.6933  1.3093
  673MOL0     H90850   2.072   3.553   3.127  1.5075 -0.1450  0.0959
  673MOL0     H90851   1.964   3.309   3.263  1.2296 -0.6831  0.2380
  673MOL0     H90852   2.079   3.426   3.317 -2.4625 -1.1919  2.5482
  673MOL0     H90853   2.304   3.142   3.094  0.9955  1.9129 -0.6329
  673MOL0     H90854   2.047   3.500   2.507  0.8334 -0.7789 -0.4182
  673MOL0     H90855   2.239   3.448   2.384 -0.2222 -1.1847 -0.1085
  674MOL0     O90856   9.146   7.493  10.608  0.1107  0.6278  0.0458
  674MOL0     C90857   9.103   7.451  10.710  0.5521  0.4136  0.3698
  674MOL0     O90858   9.072   7.521  10.824  0.0027 -0.1254  0.1362
  674MOL0     C90859   9.094   7.654  10.847  0.8863  0.5757  0.4156
  674MOL0     C90860   9.073   7.749  10.744  0.1568 -0.9127 -0.4106
  674MOL0     C90861   9.083   7.888  10.779 -0.0730  0.1848  0.2274
  674MOL0     C90862   9.125   7.927  10.901 -1.1310  0.4366  1.1120
  674MOL0     O90863   9.154   8.064  10.926  0.9873  0.5152 -0.0936
  674MOL0     C90864   9.031   8.142  10.921  0.4808 -0.5316  0.0576
  674MOL0     C90865   9.033   8.276  10.998  0.0637  0.9214 -0.0324
  674MOL0     C90866   9.164   8.289  11.087 -0.3727 -0.1603 -0.0650
  674MOL0     C90867   9.141   8.421  11.173 -0.6211  0.2993 -0.0485
  674MOL0     C90868   9.264   8.471  11.244  0.1880  0.0243  0.3146
  674MOL0     C90869   9.248   8.572  11.360 -0.0954  1.0323 -0.3851
  674MOL0     C90870   9.386   8.631  11.397 -0.5144 -0.2483  0.2133
  674MOL0     C90871   9.363   8.708  11.526 -0.1335 -0.9290 -1.0645
  674MOL0     N90872   9.468   8.809  11.550 -0.2257 -0.1126  0.4390
  674MOL0     C90873   9.597   8.782  11.566  0.6916 -0.1124 -0.3961
  674MOL0     C90874   9.648   8.903  11.592  0.1675  0.8352  0.0905
  674MOL0     C90875   9.788   8.931  11.614 -0.7715  0.7662  0.2178
  674MOL0     C90876   9.822   8.956  11.758  0.5684 -0.3863  0.1751
  674MOL0     C90877   9.962   8.933  11.790 -0.4515 -0.7749 -0.2068
  674MOL0     C90878  10.005   8.974  11.936  0.4550 -0.5534  0.0258
  674MOL0     O90879  10.127   8.904  11.950 -0.0681  0.8053  0.3356
  674MOL0     C90880  10.144   8.834  12.061  0.2079 -0.1573  0.2421
  674MOL0     C90881  10.161   8.901  12.178 -0.1165 -0.7593 -0.4367
  674MOL0     C90882  10.164   8.827  12.300  0.0964 -0.1091 -0.6628
  674MOL0     C90883  10.171   8.898  12.424 -0.4079  0.1660  0.2779
  674MOL0     C90884  10.158   8.685  12.305 -0.4153 -0.7455  0.1045
  674MOL0     C90885  10.152   8.612  12.433  0.1677 -0.4119 -0.9277
  674MOL0     O90886  10.234   8.651  12.533 -0.9367  0.2112 -0.4063
  674MOL0     C90887  10.233   8.583  12.651 -0.4842 -0.2120 -0.1866
  674MOL0     C90888  10.316   8.469  12.651 -0.8150  0.8112  0.0269
  674MOL0     C90889  10.352   8.407  12.774  0.4341 -0.2820  0.0163
  674MOL0     C90890  10.301   8.441  12.892  0.1431 -0.6443  0.4049
  674MOL0     O90891  10.333   8.359  12.997 -0.1689  0.5284  0.2832
  674MOL0     C90892  10.293   8.390  13.135 -0.2711  1.2942 -1.2573
  674MOL0     C90893  10.343   8.276  13.222  0.4845  0.9713 -0.0649
  674MOL0     C90894  10.333   8.311  13.373 -0.3767  0.0260  0.6720
  674MOL0     C90895  10.469   8.344  13.436 -0.7796 -0.4899  0.9868
  674MOL0     C90896  10.470   8.390  13.588 -0.4188 -1.5095  0.5548
  674MOL0     C90897  10.390   8.302  13.686  0.5673  0.0461  0.1008
  674MOL0     C90898  10.383   8.361  13.829 -0.3412  0.1643 -0.7660
  674MOL0     C90899  10.338   8.510  13.840  1.2777  0.3285 -0.8343
  674MOL0    Cl90900  10.466   8.639  13.841  0.0552  0.1074 -0.2820
  674MOL0     C90901  10.210   8.557  12.895  0.4276  0.6499  0.9125
  674MOL0     C90902  10.179   8.625  12.775  0.1417 -0.2960 -0.3268
  674MOL0     O90903  10.095   8.505  12.425 -0.2232  0.1651  0.8425
  674MOL0     C90904  10.149   8.621  12.178  0.6322  0.1463  0.1061
  674MOL0     C90905  10.142   8.693  12.059  0.0887  0.0042  0.0768
  674MOL0     N90906   9.549   9.002  11.573  0.6754 -0.9435 -1.0630
  674MOL0     N90907   9.447   8.945  11.552  0.0469  0.4032  0.3872
  674MOL0     C90908   9.170   7.829  10.992 -0.1047  0.6890 -0.0646
  674MOL0     C90909   9.160   7.696  10.952 -0.3261 -0.2973  0.3707
  674MOL0     C90910   9.070   7.304  10.715 -0.4391  1.0362  0.6759
  674MOL0     C90911   9.080   7.226  10.594  0.1252  1.6991 -0.5540
  674MOL0     C90912   9.056   7.088  10.596  0.6594 -0.6772  1.3748
  674MOL0     C90913   9.023   7.025  10.714 -0.9068 -0.0921 -0.8914
  674MOL0     O90914   8.976   6.901  10.718 -0.0541  0.4732 -0.3504
  674MOL0     C90915   8.971   6.815  10.599 -0.5426  0.0359 -1.4142
  674MOL0     C90916   8.903   6.684  10.645  0.0619 -0.0930  0.7199
  674MOL0     C90917   8.993   6.584  10.719 -0.0714  1.1590  0.4913
  674MOL0     C90918   8.966   6.561  10.871  0.4249  0.7550  0.1995
  674MOL0     C90919   9.029   6.435  10.897  0.3622 -0.0973 -0.1239
  674MOL0     C90920   9.060   6.323  10.933  0.3663 -0.1584 -0.0066
  674MOL0     C90921   9.019   7.101  10.823  0.6765 -0.0778 -1.1628
  674MOL0     C90922   9.037   7.240  10.831  0.4116  0.1067 -0.1688
  674MOL0     H90923   9.022   7.732  10.650  1.8920 -2.9993 -1.0689
  674MOL0     H90924   9.060   7.962  10.703 -0.8623  1.5508  1.7210
  674MOL0     H90925   9.003   8.170  10.820  0.2202  2.7082  0.9072
  674MOL0     H90926   8.953   8.078  10.963 -1.5754  1.9255  0.1817
  674MOL0     H90927   9.007   8.364  10.938  0.3623  0.8339 -0.2877
  674MOL0     H90928   8.952   8.265  11.072  1.2547 -0.1264  1.1618
  674MOL0     H90929   9.173   8.213  11.164 -0.5984 -2.1662 -1.9287
  674MOL0     H90930   9.243   8.312  11.015 -3.5970  5.6401 -2.5228
  674MOL0     H90931   9.113   8.504  11.107  1.7213  0.3952 -1.0028
  674MOL0     H90932   9.064   8.398  11.247  0.8307 -2.2949  0.7789
  674MOL0     H90933   9.295   8.378  11.293 -1.5482 -0.5106  0.4309
  674MOL0     H90934   9.341   8.499  11.171  2.5992 -1.7274  1.9856
  674MOL0     H90935   9.188   8.652  11.317 -1.2725  1.8151  2.4487
  674MOL0     H90936   9.192   8.522  11.440 -0.8425  2.8975  0.3232
  674MOL0     H90937   9.452   8.544  11.412 -1.3535 -0.7421  1.1636
  674MOL0     H90938   9.411   8.694  11.312 -2.9498 -2.3258 -2.2188
  674MOL0     H90939   9.374   8.641  11.612  5.3634  1.0967  0.1727
  674MOL0     H90940   9.260   8.746  11.528  0.0793 -0.2763  1.0808
  674MOL0     H90941   9.650   8.689  11.580  0.7926  0.1885  1.5301
  674MOL0     H90942   9.854   8.848  11.585 -3.8293 -1.8042 -0.0155
  674MOL0     H90943   9.817   9.020  11.558 -0.5775  0.4142 -0.2477
  674MOL0     H90944   9.768   8.895  11.830 -1.3056  1.9488  0.9099
  674MOL0     H90945   9.796   9.060  11.783  2.3273  0.0846  0.1506
  674MOL0     H90946  10.025   8.995  11.726 -1.6631 -1.4974 -2.1967
  674MOL0     H90947   9.987   8.828  11.769 -2.0044 -0.7444 -2.5974
  674MOL0     H90948   9.938   8.927  12.009  0.5040 -2.5074 -1.0978
  674MOL0     H90949  10.010   9.083  11.942 -1.6667 -0.4963  2.3432
  674MOL0     H90950  10.178   9.008  12.189 -2.0388 -0.6407  2.6128
  674MOL0     H90951  10.115   8.854  12.507  0.0670  2.7367  2.0873
  674MOL0     H90952  10.277   8.893  12.451  0.8437 -0.1105 -3.9819
  674MOL0     H90953  10.152   9.005  12.419 -0.9579  0.1842  2.1707
  674MOL0     H90954  10.382   8.431  12.574  0.6173  1.5613  0.8478
  674MOL0     H90955  10.390   8.307  12.758 -1.6505 -0.8129 -2.3816
  674MOL0     H90956  10.319   8.489  13.175 -2.3697  0.5346  2.4865
  674MOL0     H90957  10.186   8.379  13.151  0.3325 -0.8354  2.3692
  674MOL0     H90958  10.285   8.184  13.211  0.6147  0.6921  1.3532
  674MOL0     H90959  10.441   8.249  13.181 -0.5583  2.4034 -3.9651
  674MOL0     H90960  10.288   8.223  13.419 -0.1420 -1.7382 -2.2305
  674MOL0     H90961  10.267   8.397  13.393 -2.0631 -1.1190  0.2975
  674MOL0     H90962  10.537   8.258  13.436 -0.8830 -0.5979 -0.2034
  674MOL0     H90963  10.506   8.427  13.376 -0.9803  1.6246  3.6146
  674MOL0     H90964  10.422   8.488  13.583 -0.6293 -1.5598  1.4150
  674MOL0     H90965  10.575   8.405  13.616 -0.1480 -2.1075 -0.1026
  674MOL0     H90966  10.287   8.300  13.650  0.7319 -0.8143 -0.3634
  674MOL0     H90967  10.425   8.198  13.690 -1.5458 -0.8141 -1.5019
  674MOL0     H90968  10.477   8.346  13.882 -1.9081 -4.4497  1.2017
  674MOL0     H90969  10.311   8.306  13.890  0.8424  0.6298  1.1365
  674MOL0     H90970  10.277   8.525  13.929  1.9653 -2.5446  0.2090
  674MOL0     H90971  10.273   8.525  13.753  2.1969 -3.2821 -2.2933
  674MOL0     H90972  10.156   8.588  12.983 -2.2183 -2.7071  0.6710
  674MOL0     H90973  10.134   8.723  12.777  0.4504 -0.1503 -0.5182
  674MOL0     H90974  10.152   8.513  12.172 -1.6238  0.0538 -0.3025
  674MOL0     H90975  10.116   8.639  11.968  2.0888 -0.8440 -0.0338
  674MOL0     H90976   9.215   7.851  11.088 -0.5095  1.0734  0.0411
  674MOL0     H90977   9.198   7.620  11.019 -0.8270 -2.0745 -1.2697
  674MOL0     H90978   9.108   7.280  10.505  2.2254  0.1623 -0.8961
  674MOL0     H90979   9.035   7.048  10.498 -1.6194  1.9240  0.6758
  674MOL0     H90980   8.905   6.872  10.533  0.8699  0.6412 -2.3642
  674MOL0     H90981   9.065   6.808  10.544  1.1454  0.5995  1.2050
  674MOL0     H90982   8.859   6.632  10.560  1.8871  1.6554 -1.4372
  674MOL0     H90983   8.818   6.712  10.708 -0.0517 -1.9103  1.4236
  674MOL0     H90984   9.099   6.609  10.709  0.5374 -1.3308  0.1116
  674MOL0     H90985   8.982   6.492  10.662  3.2990  0.9108  0.0489
  674MOL0     H90986   8.857   6.545  10.875  0.3747  0.9144 -0.3986
  674MOL0     H90987   8.986   6.634  10.950 -1.8103  0.7622  0.8333
  674MOL0     H90988   9.093   6.222  10.949 -1.0354 -0.4907  0.9106
  674MOL0     H90989   8.981   7.056  10.914 -1.4768  0.2969 -1.8203
  674MOL0     H90990   9.028   7.305  10.918  2.3844 -0.8753  0.8329
  675MOL0     O90991   7.011   2.968   0.528 -0.4966 -0.2619  0.3716
  675MOL0     C90992   6.977   2.916   0.419  0.1950  0.4436 -0.1067
  675MOL0     O90993   7.001   2.966   0.292  0.7484 -0.5315 -0.6409
  675MOL0     C90994   7.103   3.063   0.283  0.6535 -0.4567  0.4613
  675MOL0     C90995   7.096   3.154   0.174 -0.8576  0.5146  0.0799
  675MOL0     C90996   7.203   3.240   0.142  0.2332 -0.1884 -0.0522
  675MOL0     C90997   7.332   3.220   0.193  0.6393  0.5148  0.1665
  675MOL0     O90998   7.441   3.288   0.143  0.2368  0.1313 -0.5510
  675MOL0     C90999   7.423   3.419   0.098  0.6323 -0.6618 -0.4534
  675MOL0     C91000   7.485   3.437  -0.045 -0.0947 -0.5439  0.7100
  675MOL0     C91001   7.436   3.565  -0.113  0.2702 -0.1312  0.1122
  675MOL0     C91002   7.488   3.572  -0.257  0.2860 -0.4742  1.2266
  675MOL0     C91003   7.423   3.692  -0.324  0.4417  0.9430  0.5636
  675MOL0     C91004   7.505   3.813  -0.293 -0.0314 -0.8643  0.7585
  675MOL0     C91005   7.417   3.942  -0.330 -1.2300 -0.0575 -0.4385
  675MOL0     C91006   7.480   4.082  -0.307 -0.2994 -0.6442  0.7165
  675MOL0     N91007   7.511   4.088  -0.159 -0.0055 -0.3709  0.3403
  675MOL0     C91008   7.405   4.058  -0.080  0.4380  0.0584 -0.1197
  675MOL0     C91009   7.448   3.998   0.030 -0.6156  0.6430 -0.8614
  675MOL0     C91010   7.375   3.933   0.141  0.2729 -0.1276 -0.1849
  675MOL0     C91011   7.276   3.842   0.075  0.8692 -1.0822 -0.5710
  675MOL0     C91012   7.226   3.732   0.173 -0.3106 -0.4887 -0.3365
  675MOL0     C91013   7.090   3.690   0.133 -0.4028 -0.5411  0.8555
  675MOL0     O91014   7.061   3.649  -0.002 -0.0340  0.8000 -0.3146
  675MOL0     C91015   7.000   3.535  -0.026 -0.6635  0.7623 -0.2139
  675MOL0     C91016   7.054   3.443  -0.122 -0.7619 -0.5357 -0.7576
  675MOL0     C91017   6.996   3.314  -0.147  0.0138 -0.0912 -0.4404
  675MOL0     C91018   7.066   3.222  -0.251  0.2378  0.0119 -0.3573
  675MOL0     C91019   6.873   3.272  -0.073  0.2550 -0.1642 -0.2051
  675MOL0     C91020   6.803   3.137  -0.092 -0.1623 -1.2939  0.1237
  675MOL0     O91021   6.675   3.130  -0.041 -0.0229 -0.0478 -0.0194
  675MOL0     C91022   6.622   3.002  -0.021 -0.2397 -0.4294 -0.6036
  675MOL0     C91023   6.557   2.941  -0.132  0.7240 -0.3461 -0.2719
  675MOL0     C91024   6.517   2.804  -0.110 -0.8492 -1.2441 -0.4075
  675MOL0     C91025   6.514   2.747   0.014  0.5100 -0.0920  0.6460
  675MOL0     O91026   6.444   2.630   0.035 -0.3840 -0.2326 -0.3518
  675MOL0     C91027   6.364   2.608   0.152 -0.6354  0.0705  0.6468
  675MOL0     C91028   6.309   2.465   0.160  0.6833 -0.2781 -0.0778
  675MOL0     C91029   6.375   2.362   0.070  0.3498  1.2377  0.2628
  675MOL0     C91030   6.358   2.216   0.116 -0.5778 -0.6046 -0.9303
  675MOL0     C91031   6.433   2.111   0.032  0.7835  0.6263 -0.0352
  675MOL0     C91032   6.374   2.092  -0.119  0.2605 -0.3001  0.9038
  675MOL0     C91033   6.430   1.966  -0.188 -0.5258 -0.6837 -0.3718
  675MOL0     C91034   6.349   1.937  -0.314  0.9671 -0.8531  0.0339
  675MOL0    Cl91035   6.373   2.081  -0.421  1.0753 -0.1839 -0.7196
  675MOL0     C91036   6.588   2.797   0.119  0.1924  0.4372  0.3077
  675MOL0     C91037   6.644   2.927   0.097  0.8840  0.3621 -0.1565
  675MOL0     O91038   6.859   3.054  -0.163  0.2936 -0.0611 -0.3911
  675MOL0     C91039   6.816   3.365   0.010 -0.1119 -0.4945  0.7638
  675MOL0     C91040   6.881   3.489   0.025 -0.5611  0.5781 -1.2201
  675MOL0     N91041   7.587   3.992   0.016  0.4636  0.2527  0.9304
  675MOL0     N91042   7.622   4.044  -0.094  0.1131  1.6173 -0.6537
  675MOL0     C91043   7.350   3.123   0.286 -0.0007  0.1965  0.2570
  675MOL0     C91044   7.233   3.049   0.335 -0.3449  0.7793 -1.2640
  675MOL0     C91045   6.908   2.780   0.427  0.3467  0.6668 -0.1036
  675MOL0     C91046   6.892   2.708   0.309 -0.6142 -0.1843  0.2780
  675MOL0     C91047   6.831   2.586   0.313 -0.5860  0.1949 -0.5159
  675MOL0     C91048   6.795   2.520   0.429 -0.4094  0.4734 -1.3336
  675MOL0     O91049   6.745   2.383   0.445  0.4953 -0.4545 -0.2743
  675MOL0     C91050   6.767   2.302   0.334  0.9913  0.0883 -0.4517
  675MOL0     C91051   6.763   2.160   0.389 -0.4967  1.0215 -0.1334
  675MOL0     C91052   6.654   2.070   0.317 -0.0020 -0.4774 -1.4396
  675MOL0     C91053   6.643   1.939   0.391  0.0908  0.7639  0.3010
  675MOL0     C91054   6.760   1.853   0.415 -0.0098 -0.6916 -0.3594
  675MOL0     C91055   6.841   1.777   0.462  0.2176  0.2331  0.4213
  675MOL0     C91056   6.816   2.587   0.554 -0.6509  0.6371 -0.2823
  675MOL0     C91057   6.872   2.719   0.543 -0.1389  0.4742 -0.3122
  675MOL0     H91058   7.004   3.173   0.119 -1.7135  2.6406  2.0728
  675MOL0     H91059   7.183   3.312   0.063 -0.7045 -2.2003 -1.7338
  675MOL0     H91060   7.319   3.453   0.099  0.9380  0.2954  0.9346
  675MOL0     H91061   7.480   3.485   0.164 -0.0388  0.4998 -1.0069
  675MOL0     H91062   7.592   3.453  -0.028  0.5107 -3.9863  0.7136
  675MOL0     H91063   7.465   3.349  -0.106  2.2175 -1.1917  0.7954
  675MOL0     H91064   7.327   3.574  -0.112  0.3082  2.7302 -2.4959
  675MOL0     H91065   7.471   3.655  -0.061  0.5537  1.3009 -2.3996
  675MOL0     H91066   7.597   3.578  -0.268 -0.0041  1.1568 -1.7622
  675MOL0     H91067   7.462   3.479  -0.307  2.9649 -0.0154 -1.2935
  675MOL0     H91068   7.425   3.672  -0.432  0.3137  3.3942  0.0596
  675MOL0     H91069   7.320   3.707  -0.290  0.7119  4.2641  0.2662
  675MOL0     H91070   7.543   3.815  -0.190  0.2940 -2.9613  0.7254
  675MOL0     H91071   7.599   3.805  -0.347  0.3495 -1.8424  1.5362
  675MOL0     H91072   7.420   3.944  -0.439 -0.2749 -0.2290 -0.4174
  675MOL0     H91073   7.310   3.939  -0.305 -1.2267  1.0377 -0.2469
  675MOL0     H91074   7.401   4.155  -0.326 -0.1190  0.4684  3.6763
  675MOL0     H91075   7.571   4.109  -0.362 -1.1099 -0.0209 -0.3669
  675MOL0     H91076   7.301   4.070  -0.108  0.2129 -2.0430 -0.3357
  675MOL0     H91077   7.440   3.887   0.215 -1.0314 -0.1348  1.0057
  675MOL0     H91078   7.333   4.007   0.210  0.2018 -1.2203  0.9801
  675MOL0     H91079   7.331   3.794  -0.006  1.3303  0.7905 -1.4288
  675MOL0     H91080   7.185   3.889   0.034  0.0827 -2.1504 -0.1013
  675MOL0     H91081   7.234   3.776   0.273  0.1310  0.5060 -0.7929
  675MOL0     H91082   7.295   3.647   0.170 -0.0877 -0.3080 -0.3287
  675MOL0     H91083   7.023   3.773   0.158 -1.1630 -0.1704 -2.0596
  675MOL0     H91084   7.052   3.617   0.205 -3.7155  3.8678  4.1712
  675MOL0     H91085   7.142   3.478  -0.174 -1.3097  0.9437 -0.7316
  675MOL0     H91086   7.060   3.113  -0.239 -2.2108  0.0935 -0.2761
  675MOL0     H91087   7.023   3.233  -0.351  1.3419 -3.0826 -1.2832
  675MOL0     H91088   7.171   3.252  -0.262 -0.3883  2.8442  0.5364
  675MOL0     H91089   6.545   2.994  -0.226 -0.9467 -1.9754 -1.0320
  675MOL0     H91090   6.478   2.752  -0.197 -0.2886  0.3078 -1.6552
  675MOL0     H91091   6.429   2.611   0.240  0.1387 -0.4133  0.1017
  675MOL0     H91092   6.286   2.684   0.161 -0.9056 -0.2636  1.1640
  675MOL0     H91093   6.295   2.426   0.261 -1.6356 -1.6010 -0.8622
  675MOL0     H91094   6.205   2.483   0.133  0.6078 -2.8992 -1.8693
  675MOL0     H91095   6.481   2.389   0.061  0.3780  2.3287  2.8719
  675MOL0     H91096   6.340   2.359  -0.033  2.1057 -2.2618 -0.3777
  675MOL0     H91097   6.396   2.216   0.218 -1.8648 -0.0800 -0.4266
  675MOL0     H91098   6.249   2.217   0.127 -0.3852  1.9417  2.2710
  675MOL0     H91099   6.446   2.019   0.090  2.2693  1.7321  1.4935
  675MOL0     H91100   6.535   2.141   0.007  0.9773  1.4026  1.5311
  675MOL0     H91101   6.265   2.089  -0.114  0.1570  0.8015 -0.2529
  675MOL0     H91102   6.388   2.184  -0.176  1.3497 -1.7638 -1.3012
  675MOL0     H91103   6.435   1.877  -0.125  1.1453  1.5376  2.8683
  675MOL0     H91104   6.528   1.994  -0.230 -0.7213  2.9473  1.2431
  675MOL0     H91105   6.244   1.930  -0.284  1.2550  0.1735  1.3341
  675MOL0     H91106   6.378   1.848  -0.372  0.3696 -0.1090 -1.4736
  675MOL0     H91107   6.621   2.748   0.210 -1.2929 -0.8467  0.2112
  675MOL0     H91108   6.716   2.962   0.170 -1.0110 -0.2775  2.1498
  675MOL0     H91109   6.725   3.340   0.063 -0.6630 -1.4288 -0.5807
  675MOL0     H91110   6.829   3.561   0.089  1.2282 -1.4842  2.8876
  675MOL0     H91111   7.447   3.095   0.325 -0.4071  0.3721  1.4523
  675MOL0     H91112   7.243   2.967   0.405  1.1311 -0.3014 -2.6798
  675MOL0     H91113   6.922   2.741   0.210 -0.8608 -0.3102  0.1579
  675MOL0     H91114   6.826   2.561   0.207 -1.5694  2.7360 -1.1584
  675MOL0     H91115   6.691   2.321   0.259 -1.2411 -1.4685  1.2750
  675MOL0     H91116   6.866   2.313   0.288  1.5310 -0.0432  0.6422
  675MOL0     H91117   6.750   2.152   0.497 -2.0627 -1.0217 -0.4078
  675MOL0     H91118   6.867   2.128   0.376  0.1184  2.0681  1.7788
  675MOL0     H91119   6.685   2.056   0.213 -0.6813 -0.8084 -1.6011
  675MOL0     H91120   6.554   2.114   0.314  0.1210  0.0163  0.2861
  675MOL0     H91121   6.570   1.877   0.338  0.5824 -0.2718  0.7988
  675MOL0     H91122   6.590   1.956   0.485  2.2530  0.0987  1.7114
  675MOL0     H91123   6.891   1.697   0.514 -0.9056 -1.0663 -0.4100
  675MOL0     H91124   6.799   2.552   0.655  2.1222  1.2131  0.4830
  675MOL0     H91125   6.905   2.763   0.637 -0.2606 -1.1816  0.5413
  676MOL0     O91126   9.724   6.159   3.677 -0.2718 -0.3558  0.3657
  676MOL0     C91127   9.684   6.237   3.763 -0.5482  1.1145  0.0756
  676MOL0     O91128   9.630   6.358   3.738 -0.1231  0.2341  0.2239
  676MOL0     C91129   9.595   6.414   3.616  0.5473  0.4426  0.4845
  676MOL0     C91130   9.653   6.367   3.486 -0.4926 -0.4844  0.1267
  676MOL0     C91131   9.613   6.431   3.370  0.3799  0.3140 -0.2462
  676MOL0     C91132   9.530   6.545   3.366 -0.6617  0.5231  0.2387
  676MOL0     O91133   9.494   6.613   3.254 -0.5712  0.1951 -0.1782
  676MOL0     C91134   9.568   6.568   3.134 -0.0350  0.1559 -0.2699
  676MOL0     C91135   9.531   6.657   3.016 -0.0318 -0.1508  0.7805
  676MOL0     C91136   9.609   6.788   3.026 -0.1729 -0.7499  0.4663
  676MOL0     C91137   9.518   6.900   3.090 -0.6259  1.1472 -0.3229
  676MOL0     C91138   9.587   7.038   3.073  0.9436 -0.0971  0.0441
  676MOL0     C91139   9.530   7.163   3.144  0.2387 -0.1062 -0.6654
  676MOL0     C91140   9.605   7.287   3.132 -0.6058 -0.9030  0.2585
  676MOL0     C91141   9.740   7.286   3.218 -1.0872  0.1648  0.5508
  676MOL0     N91142   9.831   7.399   3.185 -1.1579 -0.2773 -0.8828
  676MOL0     C91143   9.786   7.531   3.163 -0.3802  0.8185 -0.1101
  676MOL0     C91144   9.903   7.594   3.141  0.4107  0.0230 -0.2158
  676MOL0     C91145   9.921   7.735   3.084 -0.4788  0.5296  0.5308
  676MOL0     C91146  10.025   7.814   3.162 -0.0228 -0.4328  1.0775
  676MOL0     C91147  10.032   7.967   3.129 -0.1200  0.4544  0.2676
  676MOL0     C91148  10.092   8.036   3.253  0.2319 -0.9169 -0.2187
  676MOL0     O91149  10.128   8.179   3.219  0.6519  1.0361 -0.0528
  676MOL0     C91150  10.256   8.203   3.176 -0.0584 -0.6438  0.2178
  676MOL0     C91151  10.360   8.107   3.155  0.1200  0.6352  0.8204
  676MOL0     C91152  10.489   8.158   3.121  0.9397  0.2060  0.6921
  676MOL0     C91153  10.594   8.048   3.107 -0.3397  0.0791 -0.1023
  676MOL0     C91154  10.531   8.300   3.125  0.3294 -0.1661 -0.7550
  676MOL0     C91155  10.675   8.353   3.123  0.7491 -0.5548  0.9786
  676MOL0     O91156  10.687   8.487   3.127 -0.1505  0.0968 -0.2238
  676MOL0     C91157  10.804   8.540   3.176 -0.1763  0.5128  0.1515
  676MOL0     C91158  10.825   8.558   3.310 -0.6229  0.2781  0.0276
  676MOL0     C91159  10.943   8.620   3.356 -0.3797 -0.2561  0.4265
  676MOL0     C91160  11.049   8.655   3.280 -0.4744  0.1455  0.5091
  676MOL0     O91161  11.170   8.699   3.332  0.5153  0.5646  1.1728
  676MOL0     C91162  11.286   8.657   3.267  0.0213  0.8376  0.2377
  676MOL0     C91163  11.403   8.650   3.358 -0.0477 -0.8601 -0.1728
  676MOL0     C91164  11.540   8.663   3.289 -0.3498 -0.0725 -0.1262
  676MOL0     C91165  11.577   8.795   3.226 -0.5784 -0.0715 -0.3508
  676MOL0     C91166  11.737   8.799   3.212 -0.7573  0.0596 -0.0608
  676MOL0     C91167  11.788   8.897   3.099 -0.2913 -0.0324  0.6272
  676MOL0     C91168  11.804   9.039   3.144  0.2742  0.5663 -0.9858
  676MOL0     C91169  11.935   9.048   3.237  0.0116 -0.2551 -0.6790
  676MOL0    Cl91170  11.881   9.047   3.415 -0.1745  0.0184  0.1506
  676MOL0     C91171  11.020   8.649   3.141  1.0225 -0.5169  0.2217
  676MOL0     C91172  10.900   8.588   3.090  0.0293  0.3248 -0.6844
  676MOL0     O91173  10.768   8.271   3.126 -0.2157  1.0484  0.2544
  676MOL0     C91174  10.424   8.391   3.166 -1.0150  0.3136  0.3651
  676MOL0     C91175  10.290   8.339   3.183 -0.5436 -0.0859 -0.6234
  676MOL0     N91176  10.015   7.507   3.163  0.9551  0.5029  0.6040
  676MOL0     N91177   9.971   7.393   3.186  0.4712  0.9185  0.1535
  676MOL0     C91178   9.495   6.599   3.487  0.2567 -0.4251 -0.4932
  676MOL0     C91179   9.520   6.530   3.605  0.0667 -0.6835  0.1053
  676MOL0     C91180   9.682   6.201   3.903  0.1824 -0.2774 -0.2127
  676MOL0     C91181   9.770   6.106   3.952 -1.6810 -0.5434  0.1586
  676MOL0     C91182   9.778   6.069   4.091  0.6851  0.4153  0.7809
  676MOL0     C91183   9.674   6.116   4.173  0.2540  0.1040 -0.2718
  676MOL0     O91184   9.649   6.080   4.299 -0.0733 -0.3795 -0.2960
  676MOL0     C91185   9.753   6.095   4.390  0.0621  0.4268 -0.1673
  676MOL0     C91186   9.717   6.047   4.533 -0.4260 -0.6763  0.3039
  676MOL0     C91187   9.732   5.894   4.538  0.1120  0.5946 -1.2208
  676MOL0     C91188   9.738   5.853   4.691  0.3093 -0.7247 -0.1569
  676MOL0     C91189   9.779   5.708   4.706  0.4797 -0.8263  0.3181
  676MOL0     C91190   9.819   5.596   4.720  0.6432  0.7113 -0.1343
  676MOL0     C91191   9.576   6.202   4.126  0.1491 -0.5554 -0.0654
  676MOL0     C91192   9.587   6.249   3.993 -0.7317  0.2305 -0.6060
  676MOL0     H91193   9.722   6.283   3.484  0.0169 -0.1022  1.2840
  676MOL0     H91194   9.649   6.384   3.279 -1.2760 -4.1335  1.0981
  676MOL0     H91195   9.676   6.576   3.148 -0.5093  2.1549  3.7516
  676MOL0     H91196   9.533   6.470   3.100  3.9052 -1.2532 -0.7480
  676MOL0     H91197   9.552   6.609   2.920  4.8117 -2.5118  2.7272
  676MOL0     H91198   9.422   6.668   3.023  0.0093  2.0102 -0.7637
  676MOL0     H91199   9.699   6.771   3.085 -1.1641 -2.5944  1.5746
  676MOL0     H91200   9.640   6.829   2.930 -2.5595 -0.9796 -0.4643
  676MOL0     H91201   9.417   6.913   3.050 -2.4140  0.4271  3.5262
  676MOL0     H91202   9.501   6.872   3.194 -2.3494  0.5027 -0.7495
  676MOL0     H91203   9.686   7.022   3.117  0.5407  0.4623  1.2061
  676MOL0     H91204   9.588   7.064   2.967 -0.0255  0.2950  0.1261
  676MOL0     H91205   9.428   7.195   3.122  0.8249  2.9873  0.5677
  676MOL0     H91206   9.511   7.136   3.248 -0.0360  1.5584 -0.2693
  676MOL0     H91207   9.632   7.296   3.027 -1.0578  0.4616  0.2423
  676MOL0     H91208   9.544   7.372   3.162  0.9469  0.1267  0.6463
  676MOL0     H91209   9.795   7.196   3.188 -1.1886  0.7244 -1.4153
  676MOL0     H91210   9.710   7.276   3.323 -0.9356 -1.2356  0.4789
  676MOL0     H91211   9.687   7.574   3.159 -0.1862  1.3966  0.9209
  676MOL0     H91212   9.949   7.712   2.980 -1.7410 -0.8418  0.4708
  676MOL0     H91213   9.826   7.788   3.082 -0.5334  0.4673  1.2968
  676MOL0     H91214  10.121   7.772   3.132 -0.7110  0.2758 -2.5288
  676MOL0     H91215   9.987   7.802   3.264  2.2088 -0.0605  2.0137
  676MOL0     H91216   9.929   7.999   3.112 -0.3500  0.3502  1.3748
  676MOL0     H91217  10.084   7.996   3.037  1.5588 -3.6600 -0.3157
  676MOL0     H91218  10.183   7.992   3.293 -0.9640 -0.7443  2.9923
  676MOL0     H91219  10.024   8.040   3.339  1.0846 -2.0082  0.5269
  676MOL0     H91220  10.356   7.999   3.146  2.2924  0.7135 -4.0327
  676MOL0     H91221  10.654   8.024   3.195  0.5241 -6.2794 -1.8769
  676MOL0     H91222  10.548   7.949   3.096  1.5225 -1.0137  1.3789
  676MOL0     H91223  10.661   8.076   3.024 -2.6613  1.8017 -1.5213
  676MOL0     H91224  10.747   8.531   3.381 -0.7766 -1.3954 -0.7367
  676MOL0     H91225  10.940   8.632   3.464 -3.8464  2.7423  0.1886
  676MOL0     H91226  11.272   8.559   3.221 -1.2305  0.9682  0.2874
  676MOL0     H91227  11.313   8.725   3.186  0.3736  0.4737  0.0494
  676MOL0     H91228  11.394   8.719   3.442  0.7680  0.1090 -0.8501
  676MOL0     H91229  11.414   8.553   3.407  0.0774 -0.3254  0.8714
  676MOL0     H91230  11.554   8.594   3.205  0.1010  1.8369 -1.6736
  676MOL0     H91231  11.606   8.642   3.374  1.5056  4.5470 -0.1521
  676MOL0     H91232  11.521   8.796   3.131  0.8107  0.3543 -1.1848
  676MOL0     H91233  11.551   8.876   3.294  1.8423 -0.1754  0.7901
  676MOL0     H91234  11.759   8.694   3.188 -1.8027 -0.2534  0.2977
  676MOL0     H91235  11.786   8.817   3.308  1.0177 -1.9594 -0.5109
  676MOL0     H91236  11.885   8.869   3.057 -0.4792  1.2774 -0.7598
  676MOL0     H91237  11.714   8.891   3.019 -0.3167  4.8030 -0.0006
  676MOL0     H91238  11.720   9.079   3.201  0.2606 -1.0684  0.2140
  676MOL0     H91239  11.805   9.099   3.052 -2.2024  1.8547 -0.2469
  676MOL0     H91240  11.979   9.148   3.239  0.9458 -0.5441  3.3393
  676MOL0     H91241  12.010   8.970   3.217  1.6250  1.0829 -0.1407
  676MOL0     H91242  11.092   8.674   3.064  0.4749 -2.0923 -0.8741
  676MOL0     H91243  10.877   8.567   2.986 -2.0433  0.1158 -0.2297
  676MOL0     H91244  10.453   8.492   3.192  2.4975 -0.6684  0.8129
  676MOL0     H91245  10.215   8.413   3.208  0.2290  0.7780 -0.8446
  676MOL0     H91246   9.429   6.685   3.483 -1.0829 -1.4215 -0.5713
  676MOL0     H91247   9.479   6.576   3.694  3.1789  0.8335  0.8934
  676MOL0     H91248   9.849   6.075   3.884  1.2954  1.8641  2.2555
  676MOL0     H91249   9.864   6.013   4.126 -0.3781  0.0352  2.9815
  676MOL0     H91250   9.845   6.047   4.356 -0.7015 -0.7947 -0.5401
  676MOL0     H91251   9.774   6.203   4.396 -3.9933  1.4283 -0.9377
  676MOL0     H91252   9.629   6.090   4.582 -0.6814  0.6916 -1.2479
  676MOL0     H91253   9.799   6.090   4.592  1.2424 -0.9004 -1.7528
  676MOL0     H91254   9.823   5.863   4.487  1.6671  0.3619  1.5145
  676MOL0     H91255   9.640   5.848   4.502  0.1390  0.2699 -0.8811
  676MOL0     H91256   9.640   5.877   4.735 -0.5131 -1.3264 -1.6008
  676MOL0     H91257   9.815   5.914   4.740  0.9828 -0.2773 -1.7016
  676MOL0     H91258   9.861   5.501   4.745 -0.3478  0.1446 -0.5960
  676MOL0     H91259   9.495   6.233   4.191 -0.2260 -1.7076  0.0451
  676MOL0     H91260   9.512   6.318   3.957 -0.1498  0.6552 -1.0171
  677MOL0     O91261   2.946   5.505   3.234  0.2208 -0.2722  0.3732
  677MOL0     C91262   2.851   5.577   3.268 -0.6420 -0.2685  0.3343
  677MOL0     O91263   2.728   5.578   3.210  0.3050  0.5977  0.4190
  677MOL0     C91264   2.707   5.515   3.079 -0.6818  0.8745 -0.9105
  677MOL0     C91265   2.713   5.585   2.960  0.0241 -0.6027  0.4642
  677MOL0     C91266   2.683   5.525   2.831  0.4986  0.9046  0.3868
  677MOL0     C91267   2.644   5.396   2.830  0.2108  0.0976 -0.6589
  677MOL0     O91268   2.611   5.339   2.709 -0.0477 -0.0436 -0.4947
  677MOL0     C91269   2.689   5.365   2.598 -0.2774  0.9662  0.3557
  677MOL0     C91270   2.653   5.260   2.477 -0.3434  0.4296 -0.4696
  677MOL0     C91271   2.514   5.316   2.421 -0.1481  0.4724 -0.4214
  677MOL0     C91272   2.495   5.256   2.277  0.3472 -0.1731 -0.7346
  677MOL0     C91273   2.364   5.305   2.212  0.0097  0.0567 -0.1195
  677MOL0     C91274   2.371   5.350   2.065 -0.1565 -0.3814  0.3780
  677MOL0     C91275   2.325   5.225   1.981 -0.1145 -0.3279 -1.0598
  677MOL0     C91276   2.173   5.210   1.985  0.1092  0.8004 -0.1174
  677MOL0     N91277   2.133   5.102   1.891 -0.2789  0.1303  0.5274
  677MOL0     C91278   2.079   5.116   1.772 -1.0227  0.7602  1.6099
  677MOL0     C91279   2.064   4.992   1.725 -0.8304  1.1336 -0.3234
  677MOL0     C91280   2.003   4.975   1.595  0.6546 -0.5397 -0.2483
  677MOL0     C91281   1.859   5.012   1.585  0.8484 -0.0944  0.0710
  677MOL0     C91282   1.814   5.019   1.442  0.0981  0.0259  0.0013
  677MOL0     C91283   1.695   5.094   1.411  0.5087 -0.7527  0.2501
  677MOL0     O91284   1.716   5.149   1.281  0.5494 -0.4570  0.1209
  677MOL0     C91285   1.702   5.081   1.169  0.1909 -0.5178  0.8837
  677MOL0     C91286   1.734   5.153   1.057 -0.3780  0.3522  0.2079
  677MOL0     C91287   1.711   5.111   0.921 -1.1343 -0.2914 -0.9006
  677MOL0     C91288   1.762   5.199   0.808  0.9261 -0.3483 -0.2125
  677MOL0     C91289   1.646   4.981   0.914 -0.2972  0.0942 -0.7382
  677MOL0     C91290   1.597   4.925   0.779  0.8314 -0.2053 -0.8674
  677MOL0     O91291   1.525   4.814   0.783  0.1322  0.5771 -0.1225
  677MOL0     C91292   1.480   4.754   0.670 -0.7307  0.1694  0.1512
  677MOL0     C91293   1.559   4.649   0.619  0.3608  0.2951 -0.6386
  677MOL0     C91294   1.538   4.582   0.500  0.5533 -0.4257  0.1961
  677MOL0     C91295   1.421   4.613   0.424 -0.1780 -0.2177  0.1371
  677MOL0     O91296   1.416   4.530   0.311 -0.1744 -0.4545 -0.2081
  677MOL0     C91297   1.296   4.487   0.258  0.6295 -0.8405  0.1884
  677MOL0     C91298   1.290   4.334   0.256  0.0028 -0.0754 -0.5879
  677MOL0     C91299   1.265   4.270   0.389 -0.4030  0.2027 -0.4368
  677MOL0     C91300   1.152   4.299   0.474 -0.0441 -0.5988  0.5291
  677MOL0     C91301   1.025   4.294   0.396 -0.6476 -0.0106 -0.1361
  677MOL0     C91302   0.916   4.308   0.498  0.7309 -0.7063 -0.2701
  677MOL0     C91303   0.784   4.362   0.440 -0.3172  0.4600  0.0993
  677MOL0     C91304   0.721   4.252   0.346 -0.2691  0.6607  0.9120
  677MOL0    Cl91305   0.651   4.101   0.420 -0.3005 -0.0918  0.3202
  677MOL0     C91306   1.323   4.714   0.470 -0.4119 -0.9818 -0.2376
  677MOL0     C91307   1.365   4.784   0.590  0.0479  0.2842  0.1825
  677MOL0     O91308   1.633   4.982   0.675  0.2992 -0.5707  0.2193
  677MOL0     C91309   1.617   4.901   1.033 -0.0515 -0.2000  0.0876
  677MOL0     C91310   1.651   4.953   1.155 -0.0150  0.4127  0.4243
  677MOL0     N91311   2.100   4.904   1.819 -0.0420  0.1723 -0.0812
  677MOL0     N91312   2.133   4.970   1.922 -1.0172 -0.1450  0.0923
  677MOL0     C91313   2.639   5.319   2.955 -0.1748 -0.5753 -0.7191
  677MOL0     C91314   2.669   5.381   3.079 -0.1539 -0.0432  0.6193
  677MOL0     C91315   2.862   5.671   3.384  1.3381 -0.6384 -0.8149
  677MOL0     C91316   2.762   5.768   3.420 -0.0219 -0.0404 -0.7265
  677MOL0     C91317   2.800   5.865   3.512  0.6677  0.0704  0.6709
  677MOL0     C91318   2.926   5.860   3.574 -0.6143 -0.3142  0.2006
  677MOL0     O91319   2.967   5.961   3.658  0.0402  0.2602 -0.3484
  677MOL0     C91320   3.083   5.962   3.743  0.8612 -0.4201 -0.1462
  677MOL0     C91321   3.111   6.095   3.800  0.2527  0.4031 -0.3502
  677MOL0     C91322   2.982   6.182   3.810 -0.1578  0.2087  0.4732
  677MOL0     C91323   2.973   6.300   3.918 -0.7447 -0.2054 -1.0474
  677MOL0     C91324   3.049   6.420   3.869 -0.4891  1.2280 -0.2467
  677MOL0     C91325   3.089   6.533   3.833  0.3345  0.3467  0.2458
  677MOL0     C91326   3.018   5.760   3.546  0.3865 -0.3565 -0.7069
  677MOL0     C91327   2.985   5.663   3.453  0.1449  0.0439  0.2484
  677MOL0     H91328   2.740   5.689   2.950  0.0184 -0.2367  3.4057
  677MOL0     H91329   2.694   5.576   2.736  0.5330  0.1739 -0.0087
  677MOL0     H91330   2.675   5.464   2.553  1.7017  0.9138 -0.4762
  677MOL0     H91331   2.794   5.361   2.628  0.2885  0.5217 -1.5483
  677MOL0     H91332   2.724   5.249   2.394 -1.2727 -1.9481 -1.0293
  677MOL0     H91333   2.642   5.161   2.523 -1.3709 -0.4069 -2.3803
  677MOL0     H91334   2.431   5.287   2.485  1.0002 -0.3085  0.7734
  677MOL0     H91335   2.511   5.425   2.410  0.1477  0.8615  2.5254
  677MOL0     H91336   2.576   5.278   2.207 -0.8784 -0.4520 -2.3196
  677MOL0     H91337   2.485   5.148   2.288  0.6800 -0.3728 -2.1499
  677MOL0     H91338   2.285   5.235   2.240 -0.6694  1.1151  0.7258
  677MOL0     H91339   2.350   5.396   2.272  3.0264 -1.3414  3.1200
  677MOL0     H91340   2.306   5.434   2.040  1.2253  0.5292 -0.2940
  677MOL0     H91341   2.474   5.374   2.038  0.3632 -2.5934  0.1399
  677MOL0     H91342   2.353   5.245   1.877  0.3032 -1.1269 -1.1083
  677MOL0     H91343   2.376   5.138   2.023  0.9404  1.1430  0.8989
  677MOL0     H91344   2.122   5.304   1.961 -0.1192  1.1025  1.4593
  677MOL0     H91345   2.145   5.179   2.086  1.0372  0.0404 -0.0794
  677MOL0     H91346   2.074   5.212   1.722  4.3044 -1.4679 -4.4142
  677MOL0     H91347   2.066   5.026   1.522 -0.5172  0.7139 -0.4169
  677MOL0     H91348   2.014   4.868   1.575 -1.1096 -0.6454 -0.8419
  677MOL0     H91349   1.856   5.117   1.613  3.5043  0.5646 -1.7563
  677MOL0     H91350   1.792   4.951   1.646 -1.4875  3.0714  0.8931
  677MOL0     H91351   1.800   4.917   1.407  1.0658  0.7693 -2.7530
  677MOL0     H91352   1.896   5.061   1.383  0.2535 -0.1495  0.0918
  677MOL0     H91353   1.683   5.169   1.489  2.2958 -1.4816  1.2961
  677MOL0     H91354   1.602   5.037   1.424  0.4476 -0.5469  0.7062
  677MOL0     H91355   1.776   5.253   1.057 -3.7217  2.0101 -2.8064
  677MOL0     H91356   1.807   5.296   0.830  2.2968 -0.4649 -2.2562
  677MOL0     H91357   1.830   5.131   0.756 -0.9950 -3.6613  1.3185
  677MOL0     H91358   1.675   5.220   0.745  1.3865  0.6233 -0.5480
  677MOL0     H91359   1.656   4.639   0.668 -1.0835  0.7384  2.5259
  677MOL0     H91360   1.601   4.508   0.451  1.3645  1.2290 -1.3697
  677MOL0     H91361   1.213   4.531   0.313  1.0645  1.1038 -0.6130
  677MOL0     H91362   1.308   4.523   0.155  2.1100  1.4185  1.0684
  677MOL0     H91363   1.217   4.309   0.177 -1.6058 -1.3655  1.2086
  677MOL0     H91364   1.388   4.303   0.218  0.5862  0.6173  0.3445
  677MOL0     H91365   1.353   4.299   0.446  0.4578  0.4914 -1.8674
  677MOL0     H91366   1.279   4.162   0.383  0.6603  0.3704 -1.2745
  677MOL0     H91367   1.161   4.238   0.565 -0.2592 -1.5783 -0.0863
  677MOL0     H91368   1.157   4.403   0.507 -2.5727  0.2655 -1.4818
  677MOL0     H91369   1.015   4.199   0.342 -4.7382  1.0486 -1.6383
  677MOL0     H91370   1.017   4.373   0.321  0.3572  1.9070  1.6852
  677MOL0     H91371   0.894   4.207   0.533  0.6279 -0.6847 -0.2737
  677MOL0     H91372   0.950   4.382   0.571  3.6949  0.0211 -2.1965
  677MOL0     H91373   0.801   4.450   0.377 -3.7554  1.9997  1.0775
  677MOL0     H91374   0.717   4.394   0.520 -1.5313 -0.3432 -0.5606
  677MOL0     H91375   0.802   4.214   0.282 -0.6758  0.8370  0.2834
  677MOL0     H91376   0.647   4.287   0.274  0.0142 -2.3424 -1.0282
  677MOL0     H91377   1.241   4.743   0.406 -1.0737 -1.4327  0.3837
  677MOL0     H91378   1.318   4.870   0.637  0.1203  0.5807 -0.2750
  677MOL0     H91379   1.563   4.807   1.033  0.7323 -0.6591 -0.0276
  677MOL0     H91380   1.611   4.911   1.247  0.2598  2.8421  1.7630
  677MOL0     H91381   2.590   5.222   2.953  0.1754 -0.8747  1.8609
  677MOL0     H91382   2.647   5.334   3.174 -1.6668  0.0654  0.3485
  677MOL0     H91383   2.669   5.783   3.366 -1.3798  3.2314  2.1542
  677MOL0     H91384   2.723   5.933   3.547 -0.7567 -1.1191 -0.0619
  677MOL0     H91385   3.042   5.891   3.815  0.4795  0.3192  0.3841
  677MOL0     H91386   3.175   5.926   3.696  1.4556  1.7204 -0.7475
  677MOL0     H91387   3.181   6.142   3.730 -1.3818  3.6876  0.0474
  677MOL0     H91388   3.153   6.098   3.901 -0.7100 -2.1336  0.2040
  677MOL0     H91389   2.904   6.108   3.829  1.6491 -2.2941 -1.1420
  677MOL0     H91390   2.959   6.221   3.711 -0.9335 -0.7105  0.2846
  677MOL0     H91391   3.018   6.280   4.015 -1.3151  2.3944 -0.1778
  677MOL0     H91392   2.868   6.327   3.930 -0.5140 -0.5958  3.1174
  677MOL0     H91393   3.113   6.631   3.795  1.3780  1.2344  2.9651
  677MOL0     H91394   3.114   5.766   3.596  1.8041  4.2242 -3.3427
  677MOL0     H91395   3.055   5.584   3.428 -2.1027 -1.6437 -1.1816
  678MOL0     O91396   4.043   9.425   4.204  0.0117 -0.1307 -0.0016
  678MOL0     C91397   3.985   9.314   4.192  0.1066 -0.6559 -0.1106
  678MOL0     O91398   3.936   9.268   4.073  0.4371  0.7461  0.5111
  678MOL0     C91399   4.001   9.288   3.948  0.2731  0.6626  0.1083
  678MOL0     C91400   3.935   9.243   3.832 -0.2025  0.0373 -0.5563
  678MOL0     C91401   3.995   9.244   3.703 -0.2570 -0.6322  0.2303
  678MOL0     C91402   4.129   9.290   3.692  0.0208  0.0589  1.1583
  678MOL0     O91403   4.195   9.273   3.579  0.2471  0.1091  0.0046
  678MOL0     C91404   4.249   9.385   3.516  0.3211  0.2731  0.4658
  678MOL0     C91405   4.171   9.404   3.379 -0.1521 -0.2159  0.2789
  678MOL0     C91406   4.222   9.521   3.297  0.6395 -0.2242  0.3003
  678MOL0     C91407   4.142   9.547   3.166 -0.3592  0.2398  1.2660
  678MOL0     C91408   4.188   9.668   3.093  0.7878  0.8254 -0.4817
  678MOL0     C91409   4.081   9.706   2.996  0.3387  0.0009 -0.9430
  678MOL0     C91410   4.121   9.838   2.937  0.3124  0.1987  0.0409
  678MOL0     C91411   4.091   9.952   3.034 -0.7629  0.4080 -0.3527
  678MOL0     N91412   4.099  10.088   2.975  0.1256 -0.0506  0.7173
  678MOL0     C91413   4.142  10.202   3.043 -0.4584 -0.5437  0.0966
  678MOL0     C91414   4.128  10.303   2.960  0.0182 -1.1287  0.5543
  678MOL0     C91415   4.177  10.442   2.971  0.3906  0.0707 -0.2776
  678MOL0     C91416   4.156  10.507   3.100  0.6641 -0.4536 -0.9472
  678MOL0     C91417   4.010  10.502   3.147  0.1293  0.8554  0.2523
  678MOL0     C91418   3.909  10.577   3.066  0.2234  0.7542  1.6130
  678MOL0     O91419   3.934  10.709   3.089 -0.4245 -0.5074  0.0185
  678MOL0     C91420   3.826  10.790   3.067  0.2734 -0.3271 -1.1546
  678MOL0     C91421   3.735  10.778   2.965 -0.2258  0.2407 -0.2509
  678MOL0     C91422   3.648  10.885   2.924 -1.0902  0.5504 -0.2970
  678MOL0     C91423   3.530  10.840   2.829 -0.2080  0.0569  0.4291
  678MOL0     C91424   3.666  11.011   2.986  0.7287  0.2647 -0.1284
  678MOL0     C91425   3.588  11.132   2.947  0.1463  0.7671 -0.4524
  678MOL0     O91426   3.591  11.230   3.036  0.1192  0.1483 -0.1397
  678MOL0     C91427   3.535  11.345   2.999 -0.3882  0.2917  0.0244
  678MOL0     C91428   3.616  11.457   3.020 -0.2102 -0.1777  0.3717
  678MOL0     C91429   3.568  11.580   2.983 -0.4168 -0.3330  0.4777
  678MOL0     C91430   3.443  11.602   2.939 -0.8496 -1.8315 -0.6441
  678MOL0     O91431   3.426  11.732   2.909 -0.0575 -0.4661 -0.2130
  678MOL0     C91432   3.302  11.765   2.849 -0.5742 -0.5268  0.0838
  678MOL0     C91433   3.286  11.913   2.822 -0.0911  0.5844 -0.0763
  678MOL0     C91434   3.145  11.945   2.780  0.9204  0.0768  0.7335
  678MOL0     C91435   3.102  12.087   2.813 -0.8300 -1.1232 -0.2557
  678MOL0     C91436   2.958  12.099   2.798 -0.1512 -0.0403  0.3721
  678MOL0     C91437   2.911  12.239   2.818 -0.7735 -0.3155 -0.4008
  678MOL0     C91438   2.763  12.240   2.785 -0.4861 -0.0631 -0.0975
  678MOL0     C91439   2.718  12.388   2.793 -1.1343 -0.2839  0.0847
  678MOL0    Cl91440   2.551  12.417   2.724  0.1317 -0.0391  0.2129
  678MOL0     C91441   3.357  11.492   2.922  0.3936  0.7746 -1.1746
  678MOL0     C91442   3.400  11.365   2.959  0.0530  0.1862  0.8097
  678MOL0     O91443   3.546  11.139   2.828 -0.0162  0.5797 -0.2612
  678MOL0     C91444   3.760  11.023   3.092  0.8356 -0.3841  0.4249
  678MOL0     C91445   3.838  10.919   3.131  0.2846  0.5358 -0.4700
  678MOL0     N91446   4.067  10.260   2.841 -0.3950  0.3416 -0.6367
  678MOL0     N91447   4.048  10.129   2.857 -0.5092  0.5633 -0.3331
  678MOL0     C91448   4.200   9.325   3.809  0.2294 -0.1084 -0.5383
  678MOL0     C91449   4.135   9.316   3.935 -0.0294  0.2861 -1.1837
  678MOL0     C91450   3.944   9.244   4.319 -0.6167 -0.6989  0.7832
  678MOL0     C91451   4.042   9.241   4.426 -0.2333 -0.4285 -0.4179
  678MOL0     C91452   4.015   9.171   4.543  1.0349  0.2381  1.3303
  678MOL0     C91453   3.899   9.086   4.544 -0.0374 -0.0544 -0.7482
  678MOL0     O91454   3.860   9.014   4.660 -0.0905  0.3715 -0.0701
  678MOL0     C91455   3.895   9.066   4.787 -1.9806  0.0585  0.8006
  678MOL0     C91456   3.776   9.055   4.880 -0.3829 -0.8411  0.5036
  678MOL0     C91457   3.648   9.129   4.840 -0.0197 -0.4046 -0.5692
  678MOL0     C91458   3.553   9.146   4.961 -0.0309  1.2018 -0.6175
  678MOL0     C91459   3.448   9.243   4.915  0.1305 -1.1863 -0.6353
  678MOL0     C91460   3.371   9.332   4.872 -0.0019  0.5961 -0.1738
  678MOL0     C91461   3.817   9.072   4.430  0.0226 -0.0214 -0.3464
  678MOL0     C91462   3.837   9.157   4.321 -0.0671 -0.3112  0.4952
  678MOL0     H91463   3.828   9.227   3.844 -0.5410  2.7279  0.7873
  678MOL0     H91464   3.931   9.224   3.617 -1.2177 -1.4199  1.1100
  678MOL0     H91465   4.232   9.475   3.576 -0.2380  0.1428  0.5092
  678MOL0     H91466   4.352   9.359   3.488 -0.5224 -2.1200 -0.7220
  678MOL0     H91467   4.195   9.316   3.318  1.5316  1.8400 -2.2606
  678MOL0     H91468   4.063   9.404   3.391 -0.3614 -3.1605 -0.6444
  678MOL0     H91469   4.222   9.605   3.368 -5.8681  2.6212 -2.2297
  678MOL0     H91470   4.324   9.499   3.268 -0.2989 -1.7439 -2.1534
  678MOL0     H91471   4.148   9.467   3.092 -0.7750  1.0493  0.3460
  678MOL0     H91472   4.036   9.554   3.195 -0.6258  0.5242  0.2501
  678MOL0     H91473   4.208   9.739   3.174  2.4623 -0.4672  0.2928
  678MOL0     H91474   4.283   9.640   3.045  1.2209  1.4429 -0.0077
  678MOL0     H91475   4.091   9.632   2.916  3.4264  1.8064 -2.4271
  678MOL0     H91476   3.977   9.695   3.028  0.0641 -0.5294 -1.9651
  678MOL0     H91477   4.228   9.830   2.917  0.0137 -0.8082 -1.3012
  678MOL0     H91478   4.071   9.847   2.840  2.2094 -1.9495 -1.2361
  678MOL0     H91479   4.173   9.960   3.105 -2.2297  2.5923  1.2109
  678MOL0     H91480   4.004   9.942   3.099  0.9731 -0.6512  1.9525
  678MOL0     H91481   4.173  10.214   3.146 -0.5871 -0.2670  0.1031
  678MOL0     H91482   4.285  10.438   2.955  0.5375 -2.1362  0.8564
  678MOL0     H91483   4.139  10.496   2.884  1.1966 -1.4436 -1.6284
  678MOL0     H91484   4.188  10.610   3.082 -1.8231  0.7041  0.6873
  678MOL0     H91485   4.215  10.480   3.188  1.2575  1.9061 -0.5403
  678MOL0     H91486   4.007  10.541   3.250 -0.4406  0.8285  0.2491
  678MOL0     H91487   3.980  10.397   3.155 -0.2962  1.0011  0.6260
  678MOL0     H91488   3.808  10.543   3.091  0.6622 -1.5304  0.5693
  678MOL0     H91489   3.934  10.558   2.961  1.8295  1.0824  1.9126
  678MOL0     H91490   3.715  10.687   2.910 -0.9239  0.5875 -0.5883
  678MOL0     H91491   3.445  10.909   2.825  0.4982  0.9600  0.5909
  678MOL0     H91492   3.581  10.833   2.733 -3.6535 -1.1634 -1.4626
  678MOL0     H91493   3.501  10.738   2.855 -0.8463 -0.5745 -2.4913
  678MOL0     H91494   3.718  11.447   3.056 -0.1008  1.3323  0.5677
  678MOL0     H91495   3.638  11.663   2.974 -3.4138  2.3749  0.0275
  678MOL0     H91496   3.289  11.705   2.758 -0.1586 -0.3242 -0.1112
  678MOL0     H91497   3.224  11.730   2.917 -1.0562  0.8640  0.2596
  678MOL0     H91498   3.327  11.965   2.909  1.7860 -0.6784 -0.1489
  678MOL0     H91499   3.350  11.939   2.737 -0.7223 -0.0626 -0.7566
  678MOL0     H91500   3.075  11.879   2.832  1.8977 -0.5266  1.3072
  678MOL0     H91501   3.136  11.917   2.674 -1.4006  2.7537  0.0998
  678MOL0     H91502   3.126  12.114   2.916 -0.0355  0.6103 -0.8717
  678MOL0     H91503   3.160  12.159   2.754  3.6528 -1.6497  3.0020
  678MOL0     H91504   2.904  12.035   2.869  1.9103 -2.1881  0.1263
  678MOL0     H91505   2.936  12.068   2.696 -3.4193  1.8700  0.3607
  678MOL0     H91506   2.932  12.264   2.923  2.8360  0.1769 -1.1308
  678MOL0     H91507   2.970  12.312   2.762 -0.9246  0.0136 -0.1363
  678MOL0     H91508   2.700  12.183   2.854  1.5084 -0.0715  1.8567
  678MOL0     H91509   2.754  12.205   2.682 -3.9522 -0.7673  0.3309
  678MOL0     H91510   2.784  12.448   2.729 -1.6451 -0.9805 -1.1218
  678MOL0     H91511   2.739  12.421   2.895 -0.0666 -0.4603 -0.0659
  678MOL0     H91512   3.251  11.503   2.905  0.3288 -1.3197 -2.3612
  678MOL0     H91513   3.330  11.282   2.960 -2.5593  2.2523  0.6542
  678MOL0     H91514   3.763  11.112   3.154  2.5378 -1.9464  2.7649
  678MOL0     H91515   3.907  10.938   3.213 -0.9455  2.5047  0.1920
  678MOL0     H91516   4.304   9.356   3.804 -0.2191  2.0475  1.6266
  678MOL0     H91517   4.183   9.331   4.031 -1.7777 -2.3562  0.2121
  678MOL0     H91518   4.134   9.298   4.423 -1.7175  2.1422 -0.5522
  678MOL0     H91519   4.077   9.181   4.632  1.9307 -0.4959  0.8059
  678MOL0     H91520   3.982   9.013   4.827 -0.6097 -0.4472 -2.5025
  678MOL0     H91521   3.925   9.167   4.760 -2.3115 -0.5970 -2.4326
  678MOL0     H91522   3.807   9.100   4.974 -1.9585  0.4478  0.4382
  678MOL0     H91523   3.765   8.947   4.897 -0.1228 -0.7439  1.3339
  678MOL0     H91524   3.600   9.094   4.748 -1.5101  0.6589 -0.2357
  678MOL0     H91525   3.691   9.228   4.827  2.4565 -1.6043 -2.2835
  678MOL0     H91526   3.609   9.201   5.037  0.4776 -2.2240  1.7222
  678MOL0     H91527   3.534   9.047   5.004  3.5642  1.0307  0.9782
  678MOL0     H91528   3.321   9.421   4.841 -0.2838 -0.2844 -2.3553
  678MOL0     H91529   3.733   9.002   4.432  1.2021 -1.5613  2.6348
  678MOL0     H91530   3.760   9.144   4.246  0.9261 -0.5411 -0.5071
  679MOL0     O91531   4.484   4.834   0.574 -0.3381 -0.2365  0.0417
  679MOL0     C91532   4.378   4.846   0.642  0.2526 -0.3393  0.3419
  679MOL0     O91533   4.363   4.910   0.761 -0.9659 -0.1245  0.6145
  679MOL0     C91534   4.467   4.986   0.804 -1.1067 -0.0214  0.5701
  679MOL0     C91535   4.476   5.127   0.793 -0.3165 -0.5956 -0.7944
  679MOL0     C91536   4.593   5.195   0.836 -0.2841 -0.8787 -0.5354
  679MOL0     C91537   4.694   5.123   0.899  0.2237  0.1275 -0.4618
  679MOL0     O91538   4.793   5.199   0.960  0.2687  0.0909 -0.0351
  679MOL0     C91539   4.864   5.146   1.072 -0.5640 -0.1978 -0.4885
  679MOL0     C91540   4.779   5.180   1.203  0.2214  0.9763 -0.6061
  679MOL0     C91541   4.862   5.176   1.338 -0.1222 -0.8016 -0.3650
  679MOL0     C91542   4.896   5.040   1.389  0.3825 -0.1348 -0.9893
  679MOL0     C91543   4.995   5.037   1.510  0.3137 -0.5211  0.8696
  679MOL0     C91544   5.041   4.892   1.545  0.1207  0.5641  0.7864
  679MOL0     C91545   5.148   4.899   1.655  0.0956  0.3121  0.4109
  679MOL0     C91546   5.208   4.766   1.693  0.4547 -0.1555 -0.9207
  679MOL0     N91547   5.101   4.661   1.718 -1.0520 -0.0619  0.3618
  679MOL0     C91548   5.005   4.659   1.817  0.1145 -0.2529 -0.2414
  679MOL0     C91549   4.926   4.550   1.794  0.9084  1.0169  0.0946
  679MOL0     C91550   4.798   4.510   1.861 -0.1172  0.5585  0.4783
  679MOL0     C91551   4.668   4.535   1.782  0.2067  0.3227 -1.0294
  679MOL0     C91552   4.647   4.675   1.728 -0.0096 -0.0602  0.5259
  679MOL0     C91553   4.627   4.778   1.839 -0.2731  0.3864  0.2612
  679MOL0     O91554   4.502   4.760   1.896  0.8374 -0.3288 -0.4235
  679MOL0     C91555   4.394   4.846   1.903 -0.4770  0.4249  0.6044
  679MOL0     C91556   4.375   4.966   1.830  0.9727 -0.4985 -0.1948
  679MOL0     C91557   4.272   5.054   1.852 -0.3490  0.0985 -0.0137
  679MOL0     C91558   4.293   5.192   1.791 -0.5009  0.2835  0.0474
  679MOL0     C91559   4.161   5.015   1.934 -0.3380 -0.6784  0.2231
  679MOL0     C91560   4.049   5.098   1.956  0.6388 -0.2789  0.2338
  679MOL0     O91561   3.993   5.160   1.849 -0.1025 -0.5507 -0.0949
  679MOL0     C91562   3.923   5.284   1.859 -0.3048  0.8288  0.2490
  679MOL0     C91563   3.821   5.298   1.948  0.4283  0.1996 -1.2060
  679MOL0     C91564   3.741   5.411   1.938  1.0685  0.3547  0.2910
  679MOL0     C91565   3.764   5.514   1.845  0.0331  0.2603  0.5577
  679MOL0     O91566   3.681   5.625   1.837  0.6323  0.6420 -0.8388
  679MOL0     C91567   3.742   5.736   1.907 -0.7358  0.4081  0.0517
  679MOL0     C91568   3.770   5.718   2.062 -0.5193 -0.5937 -0.1095
  679MOL0     C91569   3.641   5.704   2.135  0.9848 -0.1947 -0.2848
  679MOL0     C91570   3.666   5.678   2.292 -0.5890 -1.0081  0.3688
  679MOL0     C91571   3.571   5.562   2.339 -0.6699 -0.0420 -0.3000
  679MOL0     C91572   3.610   5.514   2.477  0.3624  0.4161 -0.7825
  679MOL0     C91573   3.532   5.386   2.528  0.5734 -0.3081 -0.5185
  679MOL0     C91574   3.591   5.339   2.662  0.1349 -0.2368  0.3516
  679MOL0    Cl91575   3.765   5.392   2.696  0.1154  0.0161  0.0874
  679MOL0     C91576   3.869   5.498   1.758  0.6002 -0.4949 -1.0963
  679MOL0     C91577   3.947   5.381   1.763  0.1999 -0.4056  1.2462
  679MOL0     O91578   4.013   5.124   2.076 -0.8136 -0.3005 -0.6836
  679MOL0     C91579   4.177   4.894   2.003  0.2887  0.1111 -0.0653
  679MOL0     C91580   4.292   4.812   1.989  0.0195 -0.3451 -0.0719
  679MOL0     N91581   4.962   4.489   1.672  0.0637 -0.4332 -1.1180
  679MOL0     N91582   5.061   4.555   1.636  0.4772  0.5411  0.5908
  679MOL0     C91583   4.699   4.989   0.904 -0.0333  0.5689 -0.3526
  679MOL0     C91584   4.585   4.925   0.857 -0.0033 -0.4615 -0.2131
  679MOL0     C91585   4.262   4.771   0.577  0.3341 -0.2806 -0.3126
  679MOL0     C91586   4.275   4.655   0.498 -0.0713 -0.6122  0.0128
  679MOL0     C91587   4.168   4.580   0.458 -0.7077  1.3451 -0.1513
  679MOL0     C91588   4.039   4.635   0.471  0.4010  0.9692  0.0482
  679MOL0     O91589   3.929   4.585   0.407 -0.4159  0.3878 -0.2199
  679MOL0     C91590   3.955   4.469   0.322  0.1498  0.4448  0.3083
  679MOL0     C91591   3.826   4.419   0.261 -0.4394 -0.2046  0.0643
  679MOL0     C91592   3.829   4.323   0.146 -0.1849 -0.0303  0.4835
  679MOL0     C91593   3.687   4.278   0.090  1.0915 -0.2218  0.5236
  679MOL0     C91594   3.620   4.175   0.176 -0.1565 -0.1054 -0.5182
  679MOL0     C91595   3.589   4.084   0.260 -0.1862  0.4441  0.2310
  679MOL0     C91596   4.021   4.749   0.555 -0.1665  0.0341  0.0677
  679MOL0     C91597   4.135   4.806   0.622  0.1035  0.2953  0.3697
  679MOL0     H91598   4.396   5.182   0.743  0.3578 -0.4205 -1.7120
  679MOL0     H91599   4.588   5.303   0.831 -3.6710 -0.7269  1.8351
  679MOL0     H91600   4.893   5.040   1.074  0.7271  0.0684 -2.2315
  679MOL0     H91601   4.955   5.207   1.081  0.9552 -2.2701 -0.9493
  679MOL0     H91602   4.734   5.279   1.185 -0.6204  0.6109 -0.5727
  679MOL0     H91603   4.692   5.115   1.214  3.3744 -3.5816 -0.1794
  679MOL0     H91604   4.949   5.241   1.326  0.5046 -1.6485 -0.4318
  679MOL0     H91605   4.803   5.221   1.419 -0.0925 -1.0004 -0.2329
  679MOL0     H91606   4.811   4.986   1.433  1.9806  0.4780  3.3175
  679MOL0     H91607   4.938   4.974   1.313  0.7063  0.8727 -1.7100
  679MOL0     H91608   5.081   5.103   1.495 -1.3968  1.7460  0.5470
  679MOL0     H91609   4.951   5.082   1.600  0.3505 -1.1082  1.1842
  679MOL0     H91610   4.953   4.831   1.569  2.4211 -1.7144  4.3565
  679MOL0     H91611   5.082   4.856   1.451 -1.1753  0.1920  0.3337
  679MOL0     H91612   5.234   4.961   1.630  0.6166  0.3160  2.0906
  679MOL0     H91613   5.109   4.946   1.746  0.0497  3.3377 -1.0540
  679MOL0     H91614   5.275   4.761   1.779  1.0748 -6.2658 -1.3553
  679MOL0     H91615   5.279   4.735   1.616  1.8941  0.3205  0.1842
  679MOL0     H91616   4.983   4.736   1.890  0.0522  0.3617 -0.8999
  679MOL0     H91617   4.811   4.403   1.880  2.8290  1.0678  1.8604
  679MOL0     H91618   4.798   4.565   1.956 -0.3630 -1.9240  1.9887
  679MOL0     H91619   4.595   4.527   1.863  2.6117 -1.4553  1.1233
  679MOL0     H91620   4.660   4.458   1.705 -0.3444 -0.0981 -0.5570
  679MOL0     H91621   4.557   4.673   1.665  0.3040  1.4830 -0.0342
  679MOL0     H91622   4.732   4.696   1.662 -0.1347 -4.1319 -1.2056
  679MOL0     H91623   4.625   4.876   1.790  0.5238 -0.1004 -0.7925
  679MOL0     H91624   4.708   4.768   1.912  0.8370 -2.8333 -1.2275
  679MOL0     H91625   4.450   5.009   1.765 -0.0395  0.9191 -0.4731
  679MOL0     H91626   4.272   5.262   1.872 -4.2154  0.0497 -0.5044
  679MOL0     H91627   4.384   5.216   1.736 -3.2268  3.8824 -3.5700
  679MOL0     H91628   4.208   5.204   1.722  1.0452 -0.3748 -2.0981
  679MOL0     H91629   3.778   5.241   2.030  2.4195  1.4062  0.8068
  679MOL0     H91630   3.651   5.416   2.000  0.4312 -0.0107 -0.5804
  679MOL0     H91631   3.842   5.756   1.867 -1.3572  1.8228 -0.8784
  679MOL0     H91632   3.681   5.825   1.891 -1.9484 -0.4233 -0.0995
  679MOL0     H91633   3.836   5.633   2.078  3.4282  2.6759  3.3710
  679MOL0     H91634   3.821   5.809   2.096 -1.7709 -0.0668  0.4458
  679MOL0     H91635   3.581   5.627   2.086  0.2222  0.2348 -0.0570
  679MOL0     H91636   3.569   5.786   2.127 -0.9507 -1.9758 -2.3728
  679MOL0     H91637   3.769   5.648   2.316 -0.4605 -1.5079 -0.7531
  679MOL0     H91638   3.647   5.758   2.364 -0.6325 -0.2074 -0.5297
  679MOL0     H91639   3.580   5.472   2.278  0.1522 -2.4800  3.1550
  679MOL0     H91640   3.467   5.597   2.329 -1.5735 -2.3372  0.4552
  679MOL0     H91641   3.717   5.491   2.474  0.0293 -1.8163  1.3434
  679MOL0     H91642   3.609   5.592   2.554 -1.2777 -0.8760  0.5723
  679MOL0     H91643   3.536   5.304   2.456  2.3896 -2.4121  1.7962
  679MOL0     H91644   3.426   5.401   2.551  0.9898 -0.0918  1.4537
  679MOL0     H91645   3.578   5.230   2.668 -3.0030  0.1053  3.7694
  679MOL0     H91646   3.525   5.386   2.735  0.0710  0.2069  0.0075
  679MOL0     H91647   3.891   5.582   1.693 -1.4072  1.9947  1.2469
  679MOL0     H91648   4.029   5.371   1.693 -1.2877 -0.9992 -0.5075
  679MOL0     H91649   4.100   4.873   2.077 -0.6017  2.7452 -0.1227
  679MOL0     H91650   4.300   4.714   2.034 -1.0191 -0.0754  0.7366
  679MOL0     H91651   4.791   4.938   0.932  0.6860  2.2573  0.4964
  679MOL0     H91652   4.585   4.816   0.852  0.8568 -0.4845  0.0954
  679MOL0     H91653   4.376   4.628   0.469  0.8163 -0.3598  2.6249
  679MOL0     H91654   4.191   4.489   0.404  3.0670  1.3833  1.1270
  679MOL0     H91655   4.034   4.474   0.246  1.3253 -3.4224  1.0518
  679MOL0     H91656   3.978   4.388   0.391 -2.3916 -0.1005  0.6034
  679MOL0     H91657   3.767   4.504   0.226  0.5886  0.9130  0.9853
  679MOL0     H91658   3.774   4.372   0.345  2.6526 -0.5314  1.9461
  679MOL0     H91659   3.885   4.239   0.187  2.1043 -0.3526 -2.8271
  679MOL0     H91660   3.880   4.379   0.067  1.7747 -0.9949  1.0151
  679MOL0     H91661   3.705   4.244  -0.012 -1.8508 -0.1168 -0.1358
  679MOL0     H91662   3.629   4.369   0.071 -0.6041 -0.9898  1.7715
  679MOL0     H91663   3.576   4.010   0.336  0.8111 -0.3467 -0.3465
  679MOL0     H91664   3.923   4.790   0.577 -0.2444 -0.7427  1.3118
  679MOL0     H91665   4.114   4.884   0.695  0.2265  0.6218  0.0613
  680MOL0     O91666   4.118   0.096   5.767 -0.9322  0.0733 -0.0394
  680MOL0     C91667   4.243   0.099   5.779  0.6583 -0.4564 -0.1629
  680MOL0     O91668   4.332  -0.001   5.742 -0.4544  0.4977  0.1527
  680MOL0     C91669   4.277  -0.119   5.711  0.0985  0.6758  0.0063
  680MOL0     C91670   4.195  -0.131   5.604 -1.1453 -0.1333  0.3318
  680MOL0     C91671   4.132  -0.254   5.581 -0.4809 -0.5002  1.1592
  680MOL0     C91672   4.148  -0.364   5.671 -0.5227 -0.4466 -0.4080
  680MOL0     O91673   4.083  -0.478   5.643  0.6781  0.4953 -0.7071
  680MOL0     C91674   4.095  -0.595   5.726  0.8095  0.0139  0.8907
  680MOL0     C91675   4.039  -0.707   5.644 -0.5455 -0.7776  0.2899
  680MOL0     C91676   3.880  -0.708   5.629 -0.8620  0.6917  0.8884
  680MOL0     C91677   3.829  -0.821   5.542  0.1802 -0.1608 -0.1541
  680MOL0     C91678   3.689  -0.800   5.508 -0.4144  1.0931 -0.1100
  680MOL0     C91679   3.610  -0.823   5.643  0.5125  0.1833 -0.3633
  680MOL0     C91680   3.467  -0.864   5.623 -0.7838 -0.0616  0.0955
  680MOL0     C91681   3.423  -0.956   5.732  0.6226  0.4832 -0.0295
  680MOL0     N91682   3.372  -0.883   5.847  0.1250 -0.8831 -0.0411
  680MOL0     C91683   3.238  -0.866   5.872 -0.3419 -0.0059  0.2143
  680MOL0     C91684   3.232  -0.787   5.979 -0.7786 -1.1862 -0.3669
  680MOL0     C91685   3.095  -0.767   6.046 -0.3042 -0.3893  0.8051
  680MOL0     C91686   3.091  -0.633   6.115 -0.8987  0.2609  0.6685
  680MOL0     C91687   2.972  -0.630   6.213 -0.3867 -0.5168  1.3892
  680MOL0     C91688   2.995  -0.712   6.342  0.5296 -0.5166 -0.0511
  680MOL0     O91689   2.869  -0.769   6.390 -0.2338 -0.4719 -0.3833
  680MOL0     C91690   2.876  -0.837   6.509  0.6324 -0.0676  0.0664
  680MOL0     C91691   2.757  -0.836   6.591  0.1854  0.0873 -0.4771
  680MOL0     C91692   2.751  -0.894   6.717 -0.3867  0.7780 -0.1890
  680MOL0     C91693   2.609  -0.882   6.783  0.4834 -0.3153  0.1726
  680MOL0     C91694   2.869  -0.952   6.769 -0.5505  0.7308  0.8610
  680MOL0     C91695   2.875  -1.001   6.906  0.5859  0.4612  0.0311
  680MOL0     O91696   2.971  -1.087   6.940  0.6527  0.2001  0.2692
  680MOL0     C91697   2.983  -1.119   7.076  0.1370 -0.1345  0.0927
  680MOL0     C91698   3.041  -1.031   7.181 -0.3042 -0.0087  0.5081
  680MOL0     C91699   3.048  -1.067   7.313  0.0251 -0.4085 -0.5121
  680MOL0     C91700   3.009  -1.199   7.344 -0.3906 -0.1692 -0.8052
  680MOL0     O91701   3.016  -1.233   7.477 -0.7396 -0.0503 -0.7281
  680MOL0     C91702   3.132  -1.222   7.562  0.0231  0.3618  0.2175
  680MOL0     C91703   3.135  -1.362   7.627 -0.4806  0.4459  0.7186
  680MOL0     C91704   2.987  -1.382   7.687 -0.3213 -0.2188  0.4670
  680MOL0     C91705   2.973  -1.477   7.800  0.6123  0.6079 -0.0088
  680MOL0     C91706   3.084  -1.471   7.918  0.3393 -0.5592 -1.1870
  680MOL0     C91707   3.033  -1.565   8.023 -0.1810  0.4522  0.2272
  680MOL0     C91708   3.121  -1.555   8.152 -0.1948 -0.3214 -0.1419
  680MOL0     C91709   3.151  -1.689   8.213 -0.0594 -0.0250 -0.6867
  680MOL0    Cl91710   3.255  -1.793   8.107  0.2092  0.6472  0.4635
  680MOL0     C91711   2.958  -1.283   7.253  0.4214 -0.2977 -0.4901
  680MOL0     C91712   2.943  -1.246   7.119 -0.1794  1.3272 -0.3236
  680MOL0     O91713   2.796  -0.957   6.984  0.9449 -0.2982 -0.0685
  680MOL0     C91714   2.983  -0.955   6.686 -0.3120  0.2417  0.1860
  680MOL0     C91715   2.984  -0.905   6.555 -0.6566  0.3143 -0.0255
  680MOL0     N91716   3.363  -0.763   6.026  0.3989 -0.0709  0.3568
  680MOL0     N91717   3.441  -0.823   5.944  0.3991  0.0556  0.8555
  680MOL0     C91718   4.218  -0.345   5.794 -0.0479  0.8336 -0.0397
  680MOL0     C91719   4.278  -0.220   5.811 -0.7897  0.0929  0.1167
  680MOL0     C91720   4.300   0.215   5.825 -0.2810 -1.2206  0.7643
  680MOL0     C91721   4.397   0.275   5.752  0.4171  0.0281  0.1485
  680MOL0     C91722   4.445   0.404   5.794  0.8661 -0.5330 -0.1647
  680MOL0     C91723   4.397   0.468   5.913 -0.4370  0.4364 -0.0344
  680MOL0     O91724   4.440   0.587   5.972  0.0240 -0.6704  0.6468
  680MOL0     C91725   4.526   0.671   5.896 -0.9065  0.2013  0.2676
  680MOL0     C91726   4.663   0.668   5.965  0.7160 -0.2937  0.4933
  680MOL0     C91727   4.677   0.749   6.095  0.6767  0.2087  0.4390
  680MOL0     C91728   4.616   0.679   6.217 -1.1244  0.2584 -0.3196
  680MOL0     C91729   4.667   0.733   6.345  0.1671  0.3323 -0.3041
  680MOL0     C91730   4.714   0.772   6.451 -0.0880  0.3493 -0.2794
  680MOL0     C91731   4.287   0.413   5.972 -0.2872  0.0179  0.3533
  680MOL0     C91732   4.230   0.289   5.922  0.3379 -0.2803  0.5908
  680MOL0     H91733   4.162  -0.048   5.541  1.1178 -0.5664 -1.5797
  680MOL0     H91734   4.054  -0.272   5.508  1.0180 -2.6718  0.0013
  680MOL0     H91735   4.198  -0.622   5.749  0.4507 -3.8477 -1.2862
  680MOL0     H91736   4.045  -0.596   5.823  0.0878 -2.4340  0.5691
  680MOL0     H91737   4.068  -0.694   5.539  0.6462  0.6571  0.7578
  680MOL0     H91738   4.073  -0.807   5.673 -0.3257 -0.3367  1.6051
  680MOL0     H91739   3.833  -0.710   5.728 -0.6824 -1.8481  1.0083
  680MOL0     H91740   3.845  -0.618   5.579 -2.4884 -1.8300 -3.0340
  680MOL0     H91741   3.886  -0.807   5.450  0.0349  4.1255  0.1921
  680MOL0     H91742   3.850  -0.923   5.576 -0.4862 -0.7954 -1.5472
  680MOL0     H91743   3.692  -0.701   5.463  2.7377  1.3544  0.4567
  680MOL0     H91744   3.648  -0.865   5.430  1.1902 -0.9348  0.6392
  680MOL0     H91745   3.652  -0.910   5.694  1.5062  1.0028  0.2614
  680MOL0     H91746   3.626  -0.735   5.705  0.9003  2.9517 -4.0094
  680MOL0     H91747   3.400  -0.781   5.598 -0.3695 -0.4185 -2.4296
  680MOL0     H91748   3.479  -0.924   5.532 -0.4714 -0.7656  0.5876
  680MOL0     H91749   3.506  -1.017   5.767  1.5417  2.1394  0.8040
  680MOL0     H91750   3.342  -1.019   5.694  2.3138 -1.9860  0.1937
  680MOL0     H91751   3.156  -0.898   5.809  1.2681  0.8336 -2.4983
  680MOL0     H91752   3.018  -0.774   5.969  0.0854 -1.2405  0.4730
  680MOL0     H91753   3.074  -0.845   6.121 -0.1208 -0.2689  0.9827
  680MOL0     H91754   3.072  -0.561   6.035 -2.5268  0.2883  1.0311
  680MOL0     H91755   3.179  -0.611   6.175  0.8184  1.1861 -2.0358
  680MOL0     H91756   2.881  -0.673   6.171 -0.0864 -1.2174  1.4400
  680MOL0     H91757   2.963  -0.528   6.250 -0.1549  0.6419 -1.4799
  680MOL0     H91758   3.043  -0.654   6.422 -3.6751  2.6466  0.5367
  680MOL0     H91759   3.052  -0.802   6.317 -2.8708 -3.1496  0.8251
  680MOL0     H91760   2.676  -0.786   6.539  0.4908 -1.0058 -2.0910
  680MOL0     H91761   2.530  -0.848   6.714  0.2342  0.9581  1.0542
  680MOL0     H91762   2.574  -0.981   6.813  2.7435 -1.2389 -0.0791
  680MOL0     H91763   2.612  -0.807   6.862 -0.6370 -1.3066  1.1913
  680MOL0     H91764   3.063  -0.927   7.159 -4.1546  1.6828  3.2634
  680MOL0     H91765   3.074  -0.990   7.384 -1.4798  1.0456 -1.4580
  680MOL0     H91766   3.225  -1.195   7.510  0.2399 -1.5100 -0.4352
  680MOL0     H91767   3.096  -1.150   7.636 -2.5923 -0.8510  0.2110
  680MOL0     H91768   3.150  -1.434   7.545  1.0421  1.7856 -0.2308
  680MOL0     H91769   3.220  -1.381   7.693  2.5854 -1.4858 -3.3422
  680MOL0     H91770   2.919  -1.424   7.612 -0.0591 -1.6777  1.0002
  680MOL0     H91771   2.941  -1.287   7.716 -2.8326 -1.4411  0.7486
  680MOL0     H91772   2.870  -1.465   7.836  2.0109 -1.5415  5.9111
  680MOL0     H91773   2.981  -1.581   7.768  2.5432  1.2174 -1.6788
  680MOL0     H91774   3.084  -1.371   7.961  0.6022 -1.0913  0.0858
  680MOL0     H91775   3.188  -1.490   7.891  0.5211 -1.2308 -0.0918
  680MOL0     H91776   2.931  -1.532   8.044  0.6619  4.0397 -0.6294
  680MOL0     H91777   3.033  -1.668   7.985  1.3314  0.9448 -1.2317
  680MOL0     H91778   3.061  -1.494   8.219  0.7467 -2.0058  2.3704
  680MOL0     H91779   3.211  -1.494   8.150 -0.1083 -0.4343  0.2693
  680MOL0     H91780   3.050  -1.726   8.235 -0.7088  4.0112  5.9896
  680MOL0     H91781   3.198  -1.664   8.309 -1.0225  0.8838 -0.4285
  680MOL0     H91782   2.919  -1.382   7.274 -5.6721  2.3321  3.0182
  680MOL0     H91783   2.896  -1.307   7.042 -2.0007 -1.8783  2.9999
  680MOL0     H91784   3.079  -0.984   6.728 -1.9560 -0.8297  3.5000
  680MOL0     H91785   3.081  -0.908   6.507 -0.9027  0.4617 -0.5405
  680MOL0     H91786   4.224  -0.421   5.870  2.9954 -0.6205 -1.5456
  680MOL0     H91787   4.346  -0.197   5.892 -0.7123 -1.4497  0.5231
  680MOL0     H91788   4.442   0.229   5.665 -1.6833 -2.0539  0.0657
  680MOL0     H91789   4.526   0.442   5.733 -0.5337 -1.0249 -2.4653
  680MOL0     H91790   4.531   0.649   5.789 -0.6154 -1.9838  0.6651
  680MOL0     H91791   4.482   0.770   5.888 -0.0328  0.5416 -0.4294
  680MOL0     H91792   4.743   0.699   5.896  1.5710 -2.5531  0.3636
  680MOL0     H91793   4.683   0.563   5.989  0.7938  0.1676  2.6349
  680MOL0     H91794   4.617   0.839   6.079 -0.0439 -0.0381  1.6271
  680MOL0     H91795   4.782   0.769   6.118  0.7296  0.0601  0.3366
  680MOL0     H91796   4.641   0.573   6.217 -0.7687  0.3004  1.8223
  680MOL0     H91797   4.510   0.703   6.227 -2.0086 -3.3894  0.5282
  680MOL0     H91798   4.759   0.807   6.541  1.8051 -0.2768 -0.9422
  680MOL0     H91799   4.227   0.467   6.045  1.3588  0.0489  1.7669
  680MOL0     H91800   4.147   0.252   5.981 -0.7138  3.1578  1.4695
  681MOL0     O91801   2.358   3.831   2.911  0.0700  0.0534  0.2045
  681MOL0     C91802   2.422   3.908   2.982 -0.7021 -0.4218  0.6753
  681MOL0     O91803   2.560   3.918   2.991  1.0026  1.0399  0.9412
  681MOL0     C91804   2.636   3.822   2.935 -1.4183  0.7609  1.1352
  681MOL0     C91805   2.613   3.717   2.838 -1.1932 -0.4146 -0.1436
  681MOL0     C91806   2.713   3.640   2.793  0.1131  0.2705 -0.3004
  681MOL0     C91807   2.851   3.675   2.820 -0.7241  0.4407  0.6533
  681MOL0     O91808   2.962   3.627   2.763  0.0493  0.5600  0.2134
  681MOL0     C91809   2.986   3.488   2.780 -0.5857  0.1597 -1.0932
  681MOL0     C91810   3.109   3.441   2.701 -0.8204 -0.7686 -0.3316
  681MOL0     C91811   3.241   3.499   2.746 -0.5097 -0.0934 -0.5445
  681MOL0     C91812   3.278   3.642   2.698 -0.2018 -0.1512  0.8587
  681MOL0     C91813   3.262   3.682   2.549  0.0626 -0.6909  0.8150
  681MOL0     C91814   3.358   3.628   2.446  0.3666 -0.2938  0.9723
  681MOL0     C91815   3.330   3.681   2.301  0.2760  0.1794  0.2008
  681MOL0     C91816   3.287   3.557   2.218  0.0628 -1.3737  0.5520
  681MOL0     N91817   3.393   3.450   2.201 -0.1485  0.3484 -0.5382
  681MOL0     C91818   3.374   3.317   2.238  0.9720 -0.4822  0.4139
  681MOL0     C91819   3.497   3.269   2.198 -0.4769 -0.9011  0.7801
  681MOL0     C91820   3.542   3.135   2.206  0.7838  0.5368  0.0776
  681MOL0     C91821   3.599   3.074   2.075 -0.1632 -0.6150  0.3383
  681MOL0     C91822   3.651   2.936   2.101  0.2754 -0.9432 -0.9945
  681MOL0     C91823   3.698   2.883   1.966  1.1770  0.2261 -0.6797
  681MOL0     O91824   3.755   2.752   1.995 -0.2668 -0.0888 -0.7746
  681MOL0     C91825   3.810   2.692   1.885 -0.6351  0.1825  0.2139
  681MOL0     C91826   3.809   2.751   1.749 -0.3163  0.3576 -0.3104
  681MOL0     C91827   3.889   2.698   1.649  0.4129 -0.4645 -0.7903
  681MOL0     C91828   3.885   2.779   1.525 -0.0708  0.1983  0.5894
  681MOL0     C91829   3.966   2.578   1.671  0.6300  0.4415  0.9544
  681MOL0     C91830   4.051   2.513   1.570 -0.0924  0.2665 -0.2535
  681MOL0     O91831   4.130   2.411   1.610 -0.9204 -0.2702  0.4126
  681MOL0     C91832   4.234   2.377   1.525  0.9993  0.0794 -0.1603
  681MOL0     C91833   4.361   2.434   1.543 -0.8504  0.3422  0.0975
  681MOL0     C91834   4.482   2.386   1.475 -0.4817  0.1445  0.0662
  681MOL0     C91835   4.460   2.291   1.370 -0.5258 -0.4624 -0.4999
  681MOL0     O91836   4.553   2.254   1.275  0.7438  0.9107 -0.7261
  681MOL0     C91837   4.691   2.291   1.293 -0.2783 -0.3076 -0.0408
  681MOL0     C91838   4.782   2.239   1.186  0.4865 -0.1784 -0.0333
  681MOL0     C91839   4.934   2.261   1.234 -0.1148  0.5993 -0.3747
  681MOL0     C91840   5.024   2.279   1.118  0.6236  0.0984  0.0391
  681MOL0     C91841   5.044   2.150   1.038 -0.9099  0.3322  0.9490
  681MOL0     C91842   5.142   2.182   0.928 -0.7313 -0.7487 -0.2816
  681MOL0     C91843   5.194   2.056   0.857  0.1455  0.4447  0.8465
  681MOL0     C91844   5.328   2.093   0.782  0.0081  0.0822 -0.6465
  681MOL0    Cl91845   5.301   2.217   0.661 -0.3002  0.5187 -0.6343
  681MOL0     C91846   4.330   2.242   1.353 -0.4563  0.9177  1.4295
  681MOL0     C91847   4.222   2.280   1.428  0.5087  0.0073  0.8745
  681MOL0     O91848   4.037   2.539   1.455 -0.3682  0.0777  0.3238
  681MOL0     C91849   3.957   2.518   1.800  0.4945  0.7929  0.2466
  681MOL0     C91850   3.882   2.569   1.905 -0.0733 -0.2401  0.2711
  681MOL0     N91851   3.576   3.367   2.147  0.2174  0.4412 -0.0394
  681MOL0     N91852   3.512   3.477   2.139 -0.7517 -0.3539  0.2158
  681MOL0     C91853   2.873   3.779   2.903 -0.2007  0.6600 -0.3216
  681MOL0     C91854   2.769   3.849   2.966 -0.1822 -0.3182 -0.2200
  681MOL0     C91855   2.346   4.008   3.059  0.1010  0.3275 -1.3324
  681MOL0     C91856   2.397   4.127   3.112  0.0221  0.3215  0.1588
  681MOL0     C91857   2.323   4.205   3.193  0.4950  0.1257  0.3226
  681MOL0     C91858   2.188   4.173   3.224  0.7201 -0.3104  0.7740
  681MOL0     O91859   2.113   4.258   3.303 -1.1788 -0.1145 -0.4913
  681MOL0     C91860   1.971   4.235   3.330 -0.5141  0.0493 -0.2434
  681MOL0     C91861   1.892   4.281   3.207 -0.5515  0.4811  0.6139
  681MOL0     C91862   1.746   4.220   3.202  0.3438  0.6945 -1.2059
  681MOL0     C91863   1.650   4.257   3.315  0.8681  0.2145  0.0610
  681MOL0     C91864   1.693   4.231   3.454 -0.3205 -1.0948 -0.1306
  681MOL0     C91865   1.728   4.212   3.567  0.6800 -0.5550 -0.1228
  681MOL0     C91866   2.134   4.058   3.170  0.4111  0.3143  0.0616
  681MOL0     C91867   2.204   3.977   3.093 -0.6294  0.3434  0.6286
  681MOL0     H91868   2.525   3.677   2.788  0.8612 -2.7342 -2.1168
  681MOL0     H91869   2.688   3.561   2.724 -0.8281 -0.5489  0.9376
  681MOL0     H91870   2.995   3.455   2.884  1.5338  2.0727 -0.5943
  681MOL0     H91871   2.903   3.428   2.741 -3.9577  3.6958 -0.0150
  681MOL0     H91872   3.103   3.333   2.713  1.8661 -0.8654  0.7293
  681MOL0     H91873   3.101   3.461   2.594  0.2957  0.9589 -0.1361
  681MOL0     H91874   3.264   3.501   2.853  1.7646  0.6668 -0.9886
  681MOL0     H91875   3.325   3.444   2.701  0.8322  0.0952  1.5802
  681MOL0     H91876   3.215   3.706   2.761  1.0646 -1.2264  3.3533
  681MOL0     H91877   3.382   3.663   2.722  0.7889  0.9951 -3.4897
  681MOL0     H91878   3.167   3.656   2.501  1.3823 -2.1568 -1.1387
  681MOL0     H91879   3.260   3.792   2.543 -3.0603 -0.4764  3.1985
  681MOL0     H91880   3.460   3.655   2.472 -0.1451  0.7012  2.0784
  681MOL0     H91881   3.356   3.519   2.455 -3.8170 -0.7416 -2.0854
  681MOL0     H91882   3.247   3.751   2.288  0.3251 -0.1642 -2.6605
  681MOL0     H91883   3.423   3.727   2.266  0.8092 -2.0919 -1.5991
  681MOL0     H91884   3.284   3.604   2.119  0.3883  0.4070  1.3413
  681MOL0     H91885   3.190   3.523   2.257  0.7503 -3.5411  0.5057
  681MOL0     H91886   3.290   3.263   2.281 -0.0969  0.2308 -0.7107
  681MOL0     H91887   3.617   3.124   2.285  0.7301 -4.1447 -0.2654
  681MOL0     H91888   3.458   3.076   2.244  0.0469  1.9553  0.7039
  681MOL0     H91889   3.669   3.143   2.026 -0.9828  0.8850  1.1973
  681MOL0     H91890   3.518   3.065   2.001 -1.6150 -2.4595  2.0351
  681MOL0     H91891   3.571   2.877   2.146  2.6370 -2.7160  1.2244
  681MOL0     H91892   3.729   2.943   2.178  1.3740  2.2586 -2.2244
  681MOL0     H91893   3.774   2.948   1.922  3.5021 -0.1548  2.3633
  681MOL0     H91894   3.617   2.875   1.893  2.2883  3.1432 -2.3812
  681MOL0     H91895   3.741   2.834   1.731  0.7572  1.7213  1.5732
  681MOL0     H91896   3.986   2.808   1.493 -0.2954  0.0519 -0.2734
  681MOL0     H91897   3.843   2.717   1.445  0.4842  1.8477 -1.0501
  681MOL0     H91898   3.813   2.860   1.540  1.0323  1.6333 -1.2788
  681MOL0     H91899   4.373   2.506   1.622 -1.6227 -1.1929  1.6873
  681MOL0     H91900   4.570   2.445   1.499 -1.0849  1.7615 -1.4869
  681MOL0     H91901   4.703   2.399   1.305 -1.0511 -0.1139 -0.9213
  681MOL0     H91902   4.730   2.244   1.384 -0.8257  1.9856  1.4563
  681MOL0     H91903   4.768   2.130   1.180 -0.6101 -0.0582  0.0513
  681MOL0     H91904   4.757   2.288   1.092 -1.4554 -2.3779 -0.7688
  681MOL0     H91905   4.964   2.172   1.291 -1.3142  1.6782  2.0946
  681MOL0     H91906   4.941   2.336   1.314 -1.0044  0.2171  0.0749
  681MOL0     H91907   4.988   2.359   1.053  0.5147 -0.4151 -0.5496
  681MOL0     H91908   5.123   2.302   1.159  1.4323  0.2053 -1.8781
  681MOL0     H91909   4.956   2.108   0.988  0.1684 -0.2241 -0.5689
  681MOL0     H91910   5.087   2.070   1.099 -3.0034 -0.4955  1.4227
  681MOL0     H91911   5.105   2.244   0.846 -1.1044 -2.4694 -1.4734
  681MOL0     H91912   5.229   2.238   0.963 -2.4374  2.6919 -1.0816
  681MOL0     H91913   5.127   2.022   0.777  3.9937 -0.6055 -2.2838
  681MOL0     H91914   5.212   1.973   0.927 -0.4916  0.1897  0.7181
  681MOL0     H91915   5.368   2.003   0.735  0.8981 -0.2569  0.7164
  681MOL0     H91916   5.398   2.140   0.852 -2.4188  0.7117  1.5543
  681MOL0     H91917   4.308   2.178   1.268 -1.2441  3.1004 -0.1205
  681MOL0     H91918   4.122   2.239   1.414  0.2367  1.2890 -1.3242
  681MOL0     H91919   4.017   2.428   1.810 -0.5030 -0.1236 -1.5410
  681MOL0     H91920   3.912   2.534   2.004  1.4311 -0.2052 -0.1425
  681MOL0     H91921   2.978   3.804   2.914  0.8534 -2.6305 -1.6849
  681MOL0     H91922   2.800   3.923   3.038  1.7094 -1.0371 -0.2154
  681MOL0     H91923   2.504   4.147   3.110  0.2181  0.1030  3.3041
  681MOL0     H91924   2.369   4.291   3.242 -1.1362  1.3697 -0.2488
  681MOL0     H91925   1.953   4.133   3.363 -2.3400  0.4025 -0.0684
  681MOL0     H91926   1.949   4.295   3.418 -0.0951 -0.6436  0.3463
  681MOL0     H91927   1.947   4.229   3.128 -1.0441 -3.5855  2.6762
  681MOL0     H91928   1.885   4.390   3.206 -3.4299  0.4543 -2.4984
  681MOL0     H91929   1.764   4.114   3.216  1.6345  0.8603 -1.5421
  681MOL0     H91930   1.700   4.227   3.103  1.0186  1.2394 -1.4928
  681MOL0     H91931   1.559   4.197   3.306  1.4871 -0.5684 -1.1852
  681MOL0     H91932   1.626   4.361   3.293  2.5682  0.9252  1.3478
  681MOL0     H91933   1.754   4.196   3.670  0.9959  1.7008  0.1949
  681MOL0     H91934   2.030   4.038   3.196 -0.1824  1.9009 -0.9056
  681MOL0     H91935   2.158   3.885   3.058  3.2231 -1.6232  0.2242
  682MOL0     O91936   2.689   1.381   2.572 -0.0043 -0.1299 -0.6317
  682MOL0     C91937   2.637   1.489   2.581  0.0981  0.3787  0.0055
  682MOL0     O91938   2.690   1.600   2.523  0.3317 -0.4404 -0.6418
  682MOL0     C91939   2.811   1.586   2.460 -1.0319  0.0776  0.6033
  682MOL0     C91940   2.839   1.482   2.370  0.2123  0.1055 -0.1163
  682MOL0     C91941   2.944   1.484   2.286  0.4460 -0.8435  0.7598
  682MOL0     C91942   3.044   1.587   2.302  0.1146 -0.5402  0.7048
  682MOL0     O91943   3.161   1.605   2.224 -0.0381 -0.4692 -0.4884
  682MOL0     C91944   3.205   1.483   2.169 -0.0650  0.1611 -0.0959
  682MOL0     C91945   3.350   1.510   2.125 -0.6355  0.0629 -0.0155
  682MOL0     C91946   3.365   1.611   2.010 -0.9542 -0.4423 -1.2723
  682MOL0     C91947   3.516   1.629   1.987 -0.5319 -0.5144 -0.2621
  682MOL0     C91948   3.543   1.724   1.864  0.7764 -0.7651 -0.1109
  682MOL0     C91949   3.511   1.667   1.721  0.4362  0.3116 -0.5071
  682MOL0     C91950   3.608   1.728   1.615  0.4990  0.8736 -0.1330
  682MOL0     C91951   3.562   1.679   1.477  0.5398  0.2261  0.6082
  682MOL0     N91952   3.421   1.708   1.446 -0.5359 -0.0046  0.2439
  682MOL0     C91953   3.379   1.835   1.401 -0.7115 -0.0671  0.6217
  682MOL0     C91954   3.247   1.825   1.380 -0.9544  1.4944  0.6610
  682MOL0     C91955   3.152   1.922   1.310 -0.0447 -0.4010 -0.3934
  682MOL0     C91956   3.235   2.042   1.240  0.8815  0.8398  0.6324
  682MOL0     C91957   3.310   1.978   1.113  0.1984  0.4846 -0.6754
  682MOL0     C91958   3.446   2.041   1.083  0.7190 -0.0215  0.8833
  682MOL0     O91959   3.404   2.165   1.026 -0.2486 -0.7040 -0.2814
  682MOL0     C91960   3.448   2.288   1.072  0.6223 -0.1148  0.9888
  682MOL0     C91961   3.544   2.318   1.165 -0.0225  0.3711  0.0700
  682MOL0     C91962   3.583   2.445   1.191 -0.1137 -0.2286 -0.5745
  682MOL0     C91963   3.711   2.463   1.290  0.4366  0.0202 -0.8134
  682MOL0     C91964   3.525   2.557   1.116 -0.7083  0.4527 -0.9458
  682MOL0     C91965   3.568   2.695   1.150  0.1643  0.4428 -0.2206
  682MOL0     O91966   3.575   2.734   1.287  0.4226 -0.0387  0.6896
  682MOL0     C91967   3.587   2.861   1.331 -0.3703 -0.8209 -0.0494
  682MOL0     C91968   3.495   2.903   1.430 -0.3998  0.1141 -0.0542
  682MOL0     C91969   3.496   3.031   1.469 -0.1312 -0.5798 -0.4015
  682MOL0     C91970   3.597   3.123   1.438  0.3473  0.0058  0.3491
  682MOL0     O91971   3.598   3.246   1.499  0.7322 -0.2098 -1.1733
  682MOL0     C91972   3.684   3.351   1.457  0.0169 -0.2072 -0.5359
  682MOL0     C91973   3.619   3.490   1.495  0.7087  0.1196 -0.0458
  682MOL0     C91974   3.474   3.510   1.436 -0.8273 -0.4224  0.1065
  682MOL0     C91975   3.450   3.659   1.398 -0.2665  0.3488 -0.7684
  682MOL0     C91976   3.307   3.682   1.357 -0.4569  0.5325  0.2285
  682MOL0     C91977   3.279   3.827   1.331 -0.0814  0.1010  0.4188
  682MOL0     C91978   3.251   3.916   1.457  0.9608 -0.4443  0.3979
  682MOL0     C91979   3.211   3.857   1.586 -0.6963 -0.1281 -0.1016
  682MOL0    Cl91980   3.043   3.800   1.577 -0.4696 -0.3776 -0.3367
  682MOL0     C91981   3.693   3.078   1.342 -0.0407 -0.1556  0.3478
  682MOL0     C91982   3.687   2.946   1.290  0.3654  0.1074 -0.2130
  682MOL0     O91983   3.598   2.765   1.056  0.1593  0.5062  0.0727
  682MOL0     C91984   3.431   2.523   1.022  0.0234 -0.5561 -0.7564
  682MOL0     C91985   3.380   2.396   1.009 -0.8700  0.4022 -0.5437
  682MOL0     N91986   3.215   1.698   1.403  1.0015  0.4504  0.0116
  682MOL0     N91987   3.316   1.635   1.445 -0.2374  0.2143  0.2229
  682MOL0     C91988   3.031   1.672   2.412  0.0294 -0.5561  0.3652
  682MOL0     C91989   2.916   1.676   2.490  0.8836  0.2810  0.3012
  682MOL0     C91990   2.502   1.502   2.639 -0.6270  0.5258 -0.1187
  682MOL0     C91991   2.450   1.632   2.661 -0.2246 -0.4053 -0.2835
  682MOL0     C91992   2.314   1.654   2.696 -0.2459  0.3233 -0.1450
  682MOL0     C91993   2.228   1.546   2.701 -0.4103  0.5502  0.6293
  682MOL0     O91994   2.103   1.548   2.755 -0.0987  0.2449 -0.4555
  682MOL0     C91995   2.056   1.679   2.803  0.3091  1.2613  0.5868
  682MOL0     C91996   1.925   1.654   2.870  0.2692 -0.7612 -0.2749
  682MOL0     C91997   1.928   1.549   2.980 -0.6547 -0.1674 -1.3767
  682MOL0     C91998   2.013   1.586   3.094  0.3725 -0.0311 -0.8315
  682MOL0     C91999   2.146   1.517   3.089 -0.3630  0.0089  0.2572
  682MOL0     C92000   2.255   1.459   3.088  0.5037 -0.6799  0.2066
  682MOL0     C92001   2.274   1.420   2.670 -1.0997  0.2620  0.2355
  682MOL0     C92002   2.411   1.399   2.633  0.0538  0.6238  1.1368
  682MOL0     H92003   2.768   1.400   2.362  1.6530 -1.4527  2.1193
  682MOL0     H92004   2.946   1.427   2.194 -1.8733  1.1570 -0.6288
  682MOL0     H92005   3.204   1.400   2.240  2.4963  0.3048  0.1954
  682MOL0     H92006   3.148   1.445   2.083 -0.0006 -1.0323  0.3712
  682MOL0     H92007   3.414   1.548   2.205  0.4249  0.0510 -0.8286
  682MOL0     H92008   3.390   1.415   2.087  0.3213  0.8955 -1.1611
  682MOL0     H92009   3.322   1.568   1.919 -0.4889 -0.7736 -1.3389
  682MOL0     H92010   3.312   1.703   2.038  3.8942  1.8825  1.4540
  682MOL0     H92011   3.567   1.671   2.075 -1.4940 -3.5687  1.9310
  682MOL0     H92012   3.569   1.534   1.981  2.3518  1.0383 -1.5395
  682MOL0     H92013   3.492   1.821   1.871  1.0252 -0.4060 -2.3468
  682MOL0     H92014   3.648   1.754   1.867  0.8751 -1.0044 -0.8953
  682MOL0     H92015   3.512   1.558   1.728  1.9027  0.4034  1.6384
  682MOL0     H92016   3.406   1.691   1.701  0.1514 -1.1503 -0.9026
  682MOL0     H92017   3.599   1.837   1.619 -0.8887  0.9083 -2.3144
  682MOL0     H92018   3.711   1.693   1.625 -0.9298 -3.4839  1.5784
  682MOL0     H92019   3.567   1.570   1.472 -5.5964 -0.3808 -0.4511
  682MOL0     H92020   3.625   1.709   1.393 -0.6320 -0.1283 -0.4271
  682MOL0     H92021   3.446   1.918   1.380 -1.8136  1.3123  2.3611
  682MOL0     H92022   3.082   1.866   1.247 -0.3399  0.1272 -0.5417
  682MOL0     H92023   3.105   1.962   1.400  1.0304 -1.3824  0.6359
  682MOL0     H92024   3.310   2.092   1.301  0.9085  0.2168  1.1296
  682MOL0     H92025   3.160   2.114   1.207  1.0469  1.1044  0.8281
  682MOL0     H92026   3.247   2.000   1.026  0.8239  1.8072 -0.8177
  682MOL0     H92027   3.325   1.872   1.133  0.1447  1.1098  3.3180
  682MOL0     H92028   3.489   1.976   1.007 -0.5951  2.2260 -1.9601
  682MOL0     H92029   3.515   2.037   1.168  0.2988 -0.5669  1.2048
  682MOL0     H92030   3.591   2.238   1.221  1.4965 -2.2641 -4.3771
  682MOL0     H92031   3.759   2.366   1.306 -2.5271 -1.2631  1.2935
  682MOL0     H92032   3.791   2.527   1.252  0.5810 -1.1074 -2.5301
  682MOL0     H92033   3.676   2.498   1.388 -1.7230 -1.6126 -0.9277
  682MOL0     H92034   3.425   2.830   1.469  0.6590  0.1007  1.9500
  682MOL0     H92035   3.414   3.074   1.526 -1.1810 -0.4495 -1.9160
  682MOL0     H92036   3.789   3.340   1.484  1.0118 -0.3148 -3.9895
  682MOL0     H92037   3.689   3.346   1.348 -1.3351  0.7596 -0.6685
  682MOL0     H92038   3.612   3.501   1.603  5.3307 -0.5485  0.5023
  682MOL0     H92039   3.683   3.571   1.459 -2.5369  1.6578 -2.9866
  682MOL0     H92040   3.414   3.481   1.523 -0.6689  0.4294  0.5050
  682MOL0     H92041   3.450   3.441   1.355 -1.3801 -0.7372  0.5306
  682MOL0     H92042   3.462   3.725   1.484 -1.4459  1.2872 -1.2987
  682MOL0     H92043   3.519   3.700   1.323 -1.0670 -0.8111 -2.1870
  682MOL0     H92044   3.235   3.641   1.429 -1.5700  3.0293  0.6392
  682MOL0     H92045   3.291   3.625   1.264 -0.2107  4.1654 -2.2190
  682MOL0     H92046   3.353   3.882   1.273  2.2242 -2.8441  0.3053
  682MOL0     H92047   3.178   3.838   1.289  0.6818  1.9927 -1.0211
  682MOL0     H92048   3.176   3.990   1.425  0.6134 -1.0727 -0.2804
  682MOL0     H92049   3.340   3.978   1.473  0.4292 -0.4030  3.7868
  682MOL0     H92050   3.217   3.927   1.670 -0.7444  0.5556 -0.6632
  682MOL0     H92051   3.280   3.777   1.612 -3.3018 -2.4240  0.2249
  682MOL0     H92052   3.768   3.149   1.308  0.1056 -0.8587 -0.8337
  682MOL0     H92053   3.759   2.914   1.216  1.3589  0.5900  0.5195
  682MOL0     H92054   3.385   2.605   0.969 -0.2579 -0.4467 -0.3464
  682MOL0     H92055   3.300   2.382   0.937 -0.3907  2.0816 -1.4516
  682MOL0     H92056   3.101   1.753   2.431 -1.8075  0.4695  3.6377
  682MOL0     H92057   2.907   1.740   2.577 -3.3135  1.3158 -0.6695
  682MOL0     H92058   2.520   1.713   2.676  0.1960 -0.6341 -0.9327
  682MOL0     H92059   2.290   1.756   2.725  1.3463  1.1218 -1.4693
  682MOL0     H92060   2.125   1.724   2.876  2.0807 -0.4832  0.0715
  682MOL0     H92061   2.045   1.745   2.716  3.5149  3.3789  1.5857
  682MOL0     H92062   1.847   1.623   2.800 -2.7560  1.5449  1.7599
  682MOL0     H92063   1.899   1.753   2.910 -1.3645  0.8184 -4.6706
  682MOL0     H92064   1.950   1.455   2.928  0.0711 -1.4913  1.1558
  682MOL0     H92065   1.828   1.525   3.016 -0.6354  1.7826  0.1660
  682MOL0     H92066   1.968   1.552   3.188  1.6325 -0.5824 -0.3984
  682MOL0     H92067   2.028   1.694   3.101 -2.1469  0.3197  0.3405
  682MOL0     H92068   2.353   1.421   3.109 -0.5770 -4.2765 -0.5454
  682MOL0     H92069   2.198   1.343   2.659 -0.6959  0.0409 -1.3923
  682MOL0     H92070   2.451   1.299   2.617 -0.8915  0.5046 -0.8069
  683MOL0     O92071  11.222   1.300   3.620  0.3471 -0.4333 -0.2030
  683MOL0     C92072  11.127   1.363   3.563 -0.8409 -0.5575 -0.6037
  683MOL0     O92073  11.002   1.380   3.603  0.1457  0.2636  0.8193
  683MOL0     C92074  10.975   1.353   3.738 -0.0949 -0.8034  0.9137
  683MOL0     C92075  10.944   1.455   3.828  0.5189 -0.6712  0.8596
  683MOL0     C92076  10.891   1.433   3.960 -0.1715  1.2626  0.2836
  683MOL0     C92077  10.850   1.298   3.988 -0.1284 -0.1638 -0.8135
  683MOL0     O92078  10.779   1.274   4.111 -0.3483  0.4495  0.6179
  683MOL0     C92079  10.672   1.365   4.135  0.0336  0.5166 -0.5495
  683MOL0     C92080  10.588   1.268   4.219  0.2574 -0.3963 -0.6472
  683MOL0     C92081  10.578   1.115   4.162  0.0133  0.4784  0.2840
  683MOL0     C92082  10.439   1.055   4.179 -0.4715 -0.3748 -0.1105
  683MOL0     C92083  10.452   0.914   4.139 -0.1330  0.2874 -0.2120
  683MOL0     C92084  10.313   0.835   4.133  0.7397 -0.0005  0.2479
  683MOL0     C92085  10.348   0.681   4.114  0.5830 -1.1554 -0.5521
  683MOL0     C92086  10.386   0.589   4.240  0.5668 -0.2356  0.2344
  683MOL0     N92087  10.267   0.570   4.341  0.6520  0.1155  0.2210
  683MOL0     C92088  10.268   0.487   4.452  0.8380 -0.4788  0.0591
  683MOL0     C92089  10.135   0.474   4.483  0.1936  0.1981 -0.0505
  683MOL0     C92090  10.081   0.420   4.610 -1.2562 -0.3104 -0.8888
  683MOL0     C92091  10.164   0.474   4.729  0.2268  0.6154 -0.2104
  683MOL0     C92092  10.185   0.624   4.742 -0.4257 -0.8693  0.0149
  683MOL0     C92093  10.063   0.721   4.712 -0.1032 -0.3864  0.0915
  683MOL0     O92094   9.933   0.655   4.741 -0.4950 -1.0373 -0.1159
  683MOL0     C92095   9.901   0.639   4.874  1.0776  0.2963  0.1321
  683MOL0     C92096   9.961   0.693   4.980  0.4282 -0.3195 -0.6042
  683MOL0     C92097   9.909   0.673   5.111  0.5266  0.7412 -0.0743
  683MOL0     C92098   9.987   0.746   5.222  0.2039 -0.4409  0.0493
  683MOL0     C92099   9.789   0.589   5.131 -0.6814  0.1596 -1.0298
  683MOL0     C92100   9.737   0.563   5.263  0.0406  0.1224  0.6082
  683MOL0     O92101   9.796   0.605   5.377 -0.0878  0.3830  0.5235
  683MOL0     C92102   9.724   0.593   5.488  1.0000  0.2054  0.4196
  683MOL0     C92103   9.621   0.687   5.505 -0.1468 -0.7123 -0.0520
  683MOL0     C92104   9.544   0.675   5.618  0.4230  0.4211  0.3716
  683MOL0     C92105   9.582   0.591   5.723  0.1590 -0.3779 -0.0408
  683MOL0     O92106   9.523   0.590   5.855 -0.4209  0.7612  0.6241
  683MOL0     C92107   9.467   0.711   5.902  0.1417  0.1135 -0.9977
  683MOL0     C92108   9.324   0.679   5.943 -0.5498 -0.3109 -0.6181
  683MOL0     C92109   9.273   0.743   6.069  0.4900  0.9985  0.1951
  683MOL0     C92110   9.159   0.664   6.141  0.0888  0.2737 -0.6267
  683MOL0     C92111   9.142   0.710   6.285  0.9028  0.6739  0.2326
  683MOL0     C92112   9.020   0.639   6.348  0.2817 -0.0377 -0.5410
  683MOL0     C92113   9.001   0.650   6.497 -0.8706  0.2830  0.2125
  683MOL0     C92114   8.858   0.617   6.541  1.1794 -0.3138 -0.1198
  683MOL0    Cl92115   8.835   0.432   6.506  0.3595 -0.2703  0.0643
  683MOL0     C92116   9.675   0.485   5.709 -0.1323  0.1824  0.2601
  683MOL0     C92117   9.744   0.490   5.584  0.0763 -0.3512 -0.5154
  683MOL0     O92118   9.641   0.484   5.259  0.2967  1.0263 -0.3197
  683MOL0     C92119   9.737   0.532   5.012 -0.4125 -0.9343  0.1158
  683MOL0     C92120   9.793   0.558   4.887 -0.0672  0.2593 -0.3186
  683MOL0     N92121  10.057   0.549   4.391 -0.6840  0.7508 -0.1871
  683MOL0     N92122  10.135   0.605   4.313 -0.4457 -0.0990  0.2961
  683MOL0     C92123  10.874   1.197   3.895  0.4556  0.7628  0.6718
  683MOL0     C92124  10.941   1.223   3.770  0.7858  0.3822  0.1774
  683MOL0     C92125  11.150   1.426   3.427  0.5655 -0.1455 -0.1947
  683MOL0     C92126  11.258   1.511   3.404  0.5434 -0.1704  0.7492
  683MOL0     C92127  11.274   1.573   3.280  0.3590  0.4285  0.5802
  683MOL0     C92128  11.197   1.524   3.171 -0.7679  0.3257  0.2153
  683MOL0     O92129  11.219   1.584   3.050  0.7930 -0.6699  0.8592
  683MOL0     C92130  11.185   1.504   2.926 -0.0678 -0.0553 -0.2429
  683MOL0     C92131  11.227   1.560   2.790  0.2306  0.3425 -0.6012
  683MOL0     C92132  11.375   1.556   2.786 -0.1538 -1.6508 -0.3498
  683MOL0     C92133  11.439   1.629   2.665  0.2740 -0.4462  0.7513
  683MOL0     C92134  11.393   1.563   2.537  0.8474 -0.1525 -0.3114
  683MOL0     C92135  11.353   1.504   2.435  1.2945  0.1329 -0.2614
  683MOL0     C92136  11.090   1.434   3.187  0.5046  0.2171 -0.9225
  683MOL0     C92137  11.062   1.393   3.317 -0.2686 -0.3641  0.9062
  683MOL0     H92138  10.956   1.562   3.809  0.7014 -0.3244  2.7116
  683MOL0     H92139  10.889   1.516   4.030  3.4904  1.8683 -0.1069
  683MOL0     H92140  10.715   1.447   4.194  1.9398 -1.9054  1.7000
  683MOL0     H92141  10.616   1.390   4.045  2.7827  1.8009 -2.0405
  683MOL0     H92142  10.630   1.253   4.318 -0.3900  1.3758 -0.0676
  683MOL0     H92143  10.486   1.307   4.223 -0.6536 -2.6267 -0.5005
  683MOL0     H92144  10.605   1.099   4.058 -1.0721 -2.5712  0.3837
  683MOL0     H92145  10.645   1.062   4.230 -1.7350  0.3553  2.0023
  683MOL0     H92146  10.403   1.076   4.280  1.1781 -1.0435  0.6610
  683MOL0     H92147  10.372   1.112   4.114  0.9341  0.4911 -0.8563
  683MOL0     H92148  10.509   0.906   4.046  2.7455  0.2734  1.4414
  683MOL0     H92149  10.509   0.861   4.216 -0.5529 -1.8843 -1.2989
  683MOL0     H92150  10.261   0.867   4.223 -1.9893  1.9528 -1.8509
  683MOL0     H92151  10.247   0.869   4.052  1.4428 -2.4342 -1.4845
  683MOL0     H92152  10.260   0.643   4.061 -0.5515  1.6653 -0.8169
  683MOL0     H92153  10.427   0.672   4.038 -0.2166 -1.6957 -1.3344
  683MOL0     H92154  10.463   0.645   4.294 -0.6215  2.9071 -1.0404
  683MOL0     H92155  10.407   0.488   4.205  0.0076 -1.0548  2.1592
  683MOL0     H92156  10.357   0.435   4.487  0.4292 -2.7522 -1.9933
  683MOL0     H92157   9.979   0.456   4.625 -0.2883  2.0009  0.6575
  683MOL0     H92158  10.081   0.310   4.612  0.9847 -0.3460 -0.3997
  683MOL0     H92159  10.261   0.424   4.734  1.2591  2.4179 -1.3784
  683MOL0     H92160  10.120   0.450   4.826  3.3473  1.7521  1.5942
  683MOL0     H92161  10.258   0.663   4.671 -2.2408  4.6314  0.7044
  683MOL0     H92162  10.224   0.635   4.844  1.4349  1.9813 -0.8826
  683MOL0     H92163  10.057   0.737   4.604  2.4235  0.1019 -0.0371
  683MOL0     H92164  10.080   0.822   4.751 -3.9712  0.0576  1.0416
  683MOL0     H92165  10.041   0.764   4.966  0.6187 -0.3985  0.0470
  683MOL0     H92166  10.079   0.791   5.186  2.6577 -3.4492  1.9979
  683MOL0     H92167   9.923   0.822   5.268 -0.3775 -0.0934 -1.2742
  683MOL0     H92168  10.025   0.677   5.298 -1.8073 -1.0158  0.6181
  683MOL0     H92169   9.608   0.760   5.425  0.1575  0.5794  1.0583
  683MOL0     H92170   9.475   0.758   5.629 -0.7585 -0.5784  0.7096
  683MOL0     H92171   9.517   0.730   5.998  1.7611 -2.7332 -1.1757
  683MOL0     H92172   9.480   0.789   5.827  4.3787 -1.8563 -2.6027
  683MOL0     H92173   9.262   0.699   5.855 -1.6330  1.1569  0.4458
  683MOL0     H92174   9.322   0.570   5.956 -1.5720 -0.1475  0.7875
  683MOL0     H92175   9.235   0.834   6.021 -0.6949 -0.4428 -1.7767
  683MOL0     H92176   9.355   0.750   6.141  0.8007 -2.3173  0.3195
  683MOL0     H92177   9.075   0.687   6.075 -0.2989  2.4792  0.5528
  683MOL0     H92178   9.174   0.557   6.157 -0.4184  0.5928  2.5982
  683MOL0     H92179   9.125   0.817   6.299  2.1921  0.6830  2.0543
  683MOL0     H92180   9.232   0.683   6.341  1.8270  1.3887 -0.8615
  683MOL0     H92181   8.927   0.672   6.301 -1.5197  0.0137  2.7396
  683MOL0     H92182   9.030   0.531   6.330 -1.0852 -0.2841  0.0781
  683MOL0     H92183   9.014   0.753   6.528 -2.1506  0.4718  0.2002
  683MOL0     H92184   9.068   0.590   6.558 -1.5831 -1.4045 -0.5670
  683MOL0     H92185   8.774   0.669   6.492 -1.9251 -2.7779  2.1553
  683MOL0     H92186   8.855   0.621   6.650  0.3019 -2.1902 -0.0434
  683MOL0     H92187   9.687   0.403   5.779  0.1866 -0.7584 -0.8616
  683MOL0     H92188   9.815   0.418   5.544  1.5518  0.9392 -0.3266
  683MOL0     H92189   9.648   0.473   5.032 -2.0816  2.0249  2.2107
  683MOL0     H92190   9.749   0.505   4.803 -2.2009 -0.2831  1.0657
  683MOL0     H92191  10.834   1.103   3.931  0.8208 -0.2923 -1.4921
  683MOL0     H92192  10.956   1.139   3.703  0.1401  1.2000 -1.0359
  683MOL0     H92193  11.325   1.543   3.484 -0.1196 -0.4864  1.4413
  683MOL0     H92194  11.361   1.635   3.263  1.0668 -0.7774 -0.4569
  683MOL0     H92195  11.217   1.400   2.938 -2.5420 -0.9327 -0.6851
  683MOL0     H92196  11.076   1.493   2.933 -0.1071  0.2828 -0.3035
  683MOL0     H92197  11.191   1.662   2.781 -3.7469 -0.5363  2.3666
  683MOL0     H92198  11.189   1.492   2.713  2.5975 -0.2640 -1.3242
  683MOL0     H92199  11.425   1.460   2.770  2.9929 -0.2887  0.3486
  683MOL0     H92200  11.409   1.610   2.875 -0.0493  1.0051 -1.8636
  683MOL0     H92201  11.547   1.613   2.675  0.4419  0.9790  1.4516
  683MOL0     H92202  11.414   1.735   2.662  0.0105 -0.5307 -0.6213
  683MOL0     H92203  11.304   1.459   2.351 -1.9588  2.0842  0.4192
  683MOL0     H92204  11.008   1.411   3.121 -0.6401  1.2824  0.0712
  683MOL0     H92205  10.977   1.327   3.334 -0.3685 -1.2266 -2.3506
  684MOL0     O92206   4.181   4.458   5.726 -0.5461  0.3876  0.6649
  684MOL0     C92207   4.137   4.344   5.705  0.3744  0.1673 -0.5511
  684MOL0     O92208   4.053   4.269   5.792 -0.3923 -0.1301  0.3430
  684MOL0     C92209   4.039   4.318   5.922  0.4843 -1.3543 -0.4210
  684MOL0     C92210   3.924   4.280   5.988  1.4382  0.2718 -1.5022
  684MOL0     C92211   3.888   4.324   6.114 -0.7306 -0.6867 -0.5387
  684MOL0     C92212   3.962   4.433   6.169 -0.4640  0.2655 -0.3475
  684MOL0     O92213   3.951   4.477   6.302  0.0981 -0.1904  0.6214
  684MOL0     C92214   3.853   4.445   6.390  0.3870 -0.7517 -0.0578
  684MOL0     C92215   3.858   4.554   6.500  0.3191  0.2187 -0.4361
  684MOL0     C92216   3.829   4.692   6.448  0.8824 -0.1402  0.3314
  684MOL0     C92217   3.887   4.810   6.527 -0.5853 -0.5144  0.4638
  684MOL0     C92218   3.852   4.955   6.486  0.5666  0.7140  0.3892
  684MOL0     C92219   3.912   5.053   6.594 -0.8288  0.4004 -0.1046
  684MOL0     C92220   3.960   5.192   6.530 -0.1857  0.4786 -0.2810
  684MOL0     C92221   3.990   5.307   6.627  0.2214  0.1542  0.3967
  684MOL0     N92222   4.077   5.424   6.572  0.0039  0.0104 -0.6514
  684MOL0     C92223   4.034   5.517   6.483  0.8980 -0.2664  0.0806
  684MOL0     C92224   4.129   5.607   6.477 -0.8820  0.1388  0.1705
  684MOL0     C92225   4.118   5.735   6.394 -0.1834 -0.7845 -0.1312
  684MOL0     C92226   4.194   5.713   6.257  0.6398 -0.7774 -0.8698
  684MOL0     C92227   4.147   5.816   6.152 -0.1048 -0.1143 -0.6482
  684MOL0     C92228   4.184   5.965   6.169 -0.0393  0.8423 -0.6300
  684MOL0     O92229   4.123   6.019   6.285 -0.0904 -0.1889 -0.1563
  684MOL0     C92230   4.074   6.149   6.279 -0.3374 -0.5215 -0.4376
  684MOL0     C92231   3.951   6.176   6.335  0.3780  0.3518  0.4754
  684MOL0     C92232   3.888   6.310   6.334 -0.1273 -0.0350 -0.7252
  684MOL0     C92233   3.751   6.316   6.417 -1.4707 -0.3808 -0.2830
  684MOL0     C92234   3.951   6.415   6.271  0.1586  0.7246  0.0625
  684MOL0     C92235   3.896   6.554   6.275 -0.8083  0.9648 -0.0628
  684MOL0     O92236   3.976   6.660   6.238 -0.7913 -0.7443 -0.2511
  684MOL0     C92237   3.933   6.788   6.255 -0.4482  0.1911  0.5589
  684MOL0     C92238   3.850   6.845   6.145 -0.0030 -0.0143  1.6268
  684MOL0     C92239   3.809   6.979   6.153 -1.0083 -0.8915  0.4013
  684MOL0     C92240   3.858   7.055   6.262  0.1855  0.9393  0.6822
  684MOL0     O92241   3.803   7.182   6.283  0.0060 -0.5996 -0.3470
  684MOL0     C92242   3.860   7.290   6.206 -0.3179  0.4025 -1.1303
  684MOL0     C92243   4.007   7.313   6.260 -0.0729  0.0438  0.0565
  684MOL0     C92244   4.066   7.438   6.186 -0.4813 -0.3281  0.5324
  684MOL0     C92245   4.218   7.428   6.172  0.0750 -0.1060  0.9736
  684MOL0     C92246   4.271   7.518   6.059 -0.4001  0.3172 -0.3599
  684MOL0     C92247   4.424   7.542   6.078 -0.0875  0.4174 -0.5874
  684MOL0     C92248   4.505   7.418   6.032 -0.5255 -0.2520 -0.5291
  684MOL0     C92249   4.655   7.430   6.067  1.3784 -0.7513  0.9984
  684MOL0    Cl92250   4.704   7.600   6.026 -0.7124 -0.1403  0.5043
  684MOL0     C92251   3.937   6.998   6.367 -0.2689  0.3840  0.8457
  684MOL0     C92252   3.973   6.862   6.368 -0.0575  0.5448  0.3190
  684MOL0     O92253   3.772   6.564   6.292 -0.8057  0.4065  0.8000
  684MOL0     C92254   4.074   6.385   6.216  0.5921  0.4141  1.8835
  684MOL0     C92255   4.133   6.260   6.220 -0.0978 -0.0783 -0.2451
  684MOL0     N92256   4.235   5.555   6.544 -0.4660 -0.4338 -0.0764
  684MOL0     N92257   4.204   5.445   6.607 -0.6504  0.4830 -0.1704
  684MOL0     C92258   4.075   4.483   6.104  0.3842  0.2254 -0.0795
  684MOL0     C92259   4.122   4.417   5.984  0.5976 -0.2610 -0.8180
  684MOL0     C92260   4.163   4.291   5.576  0.1930  1.2453 -0.3774
  684MOL0     C92261   4.288   4.310   5.500  0.3606  0.0785 -0.9537
  684MOL0     C92262   4.303   4.261   5.372  0.0538 -0.5136  0.2547
  684MOL0     C92263   4.198   4.198   5.301 -0.4461 -0.0953 -1.1267
  684MOL0     O92264   4.203   4.147   5.180 -0.2625  0.9438 -0.1892
  684MOL0     C92265   4.320   4.189   5.100  0.4377 -0.0725  0.4449
  684MOL0     C92266   4.278   4.166   4.952  0.7817 -0.0570 -0.7661
  684MOL0     C92267   4.179   4.264   4.884  0.6902 -0.0984  0.7454
  684MOL0     C92268   4.248   4.404   4.847 -0.3280 -0.2185 -0.1743
  684MOL0     C92269   4.330   4.409   4.731 -0.0161 -0.2127  0.5942
  684MOL0     C92270   4.417   4.416   4.646  1.0238  0.2607 -0.2897
  684MOL0     C92271   4.075   4.184   5.371 -0.5086 -0.5731 -0.1966
  684MOL0     C92272   4.060   4.223   5.505 -0.3985  1.3705  0.0619
  684MOL0     H92273   3.856   4.201   5.957  1.8135 -1.4029  1.6177
  684MOL0     H92274   3.800   4.282   6.162  0.0669 -4.9648 -2.3704
  684MOL0     H92275   3.766   4.447   6.324  0.7643 -2.7110 -0.6830
  684MOL0     H92276   3.875   4.352   6.443  0.9653  0.3443  1.7204
  684MOL0     H92277   3.782   4.537   6.577 -0.4202 -2.1786 -1.5770
  684MOL0     H92278   3.959   4.547   6.539  0.6395  0.8470 -1.1285
  684MOL0     H92279   3.866   4.696   6.345 -0.3237  1.0111 -0.0885
  684MOL0     H92280   3.722   4.707   6.429  0.9509  1.0231  0.7696
  684MOL0     H92281   3.863   4.791   6.632  1.4338  0.8394  1.2525
  684MOL0     H92282   3.996   4.799   6.521 -0.6837 -0.7771 -1.6361
  684MOL0     H92283   3.896   4.968   6.387  1.2580 -0.2859  0.5546
  684MOL0     H92284   3.743   4.962   6.481  0.5555 -0.2471 -1.4763
  684MOL0     H92285   3.839   5.074   6.672  0.5772 -1.3598  1.7672
  684MOL0     H92286   3.995   4.998   6.640  0.6072  0.9842 -1.8738
  684MOL0     H92287   4.056   5.173   6.481  0.2849  1.0846  0.3811
  684MOL0     H92288   3.885   5.211   6.453 -0.5005  0.0203 -0.0894
  684MOL0     H92289   4.044   5.276   6.717  1.7637 -0.5556 -0.7312
  684MOL0     H92290   3.892   5.347   6.655  0.5035  0.0290  1.6071
  684MOL0     H92291   3.935   5.534   6.442  1.6513  3.6421 -0.4685
  684MOL0     H92292   4.010   5.752   6.387 -0.4031 -0.2303  2.9506
  684MOL0     H92293   4.157   5.822   6.448 -4.9854  0.9100  1.1385
  684MOL0     H92294   4.166   5.613   6.224 -1.2877 -0.9878  1.1661
  684MOL0     H92295   4.303   5.719   6.264  0.5119 -0.4772  2.2857
  684MOL0     H92296   4.042   5.800   6.128 -0.0635 -2.7353  0.5203
  684MOL0     H92297   4.207   5.795   6.062  1.0970  0.0583  0.0862
  684MOL0     H92298   4.141   6.013   6.081 -2.1358  0.2098 -0.0033
  684MOL0     H92299   4.292   5.967   6.184  0.0646 -0.9005 -0.8922
  684MOL0     H92300   3.898   6.100   6.392  1.9910 -1.8725 -0.8100
  684MOL0     H92301   3.744   6.408   6.477  0.2414 -0.0305 -0.5694
  684MOL0     H92302   3.667   6.305   6.348 -0.0674  2.5384 -2.7193
  684MOL0     H92303   3.752   6.242   6.497  1.7977 -0.0227  0.1467
  684MOL0     H92304   3.816   6.791   6.058  0.6736 -1.6567  2.3552
  684MOL0     H92305   3.747   7.031   6.080 -0.1285 -0.2957  0.0628
  684MOL0     H92306   3.854   7.275   6.097 -1.0516  3.7767 -1.6558
  684MOL0     H92307   3.813   7.385   6.231  1.8783  0.7704  2.2178
  684MOL0     H92308   3.997   7.344   6.364 -0.9547  1.7231 -0.5004
  684MOL0     H92309   4.067   7.223   6.241 -0.6534 -0.2133 -0.6117
  684MOL0     H92310   4.034   7.533   6.229  2.2977  0.7988  0.2996
  684MOL0     H92311   4.019   7.438   6.088 -1.3858 -1.0207  0.9531
  684MOL0     H92312   4.261   7.465   6.265 -1.8857  1.7493  1.2197
  684MOL0     H92313   4.254   7.327   6.149  0.0363  0.2078 -0.5915
  684MOL0     H92314   4.224   7.616   6.074  5.2802  3.2092  1.4297
  684MOL0     H92315   4.251   7.480   5.959  0.4086 -3.1484  0.6383
  684MOL0     H92316   4.451   7.629   6.018  1.8013 -1.9435 -3.4674
  684MOL0     H92317   4.430   7.562   6.185  2.0615 -2.7066  0.0222
  684MOL0     H92318   4.500   7.407   5.924  2.3331  1.1684 -0.9102
  684MOL0     H92319   4.471   7.330   6.088  0.1192 -0.4399 -0.4151
  684MOL0     H92320   4.708   7.355   6.008  2.4837  1.3024 -0.8044
  684MOL0     H92321   4.672   7.402   6.172  0.7857  2.2065  1.9984
  684MOL0     H92322   3.973   7.071   6.439 -1.3165  2.5178 -0.6801
  684MOL0     H92323   4.034   6.825   6.449 -0.2821  2.1024  1.2376
  684MOL0     H92324   4.128   6.455   6.154  0.9011 -1.2382  0.2215
  684MOL0     H92325   4.230   6.241   6.175  1.7834  2.4763  2.3242
  684MOL0     H92326   4.124   4.552   6.172 -1.2451  0.2784  1.1038
  684MOL0     H92327   4.222   4.451   5.956  1.0729 -2.1715 -1.5911
  684MOL0     H92328   4.354   4.377   5.555 -0.3874 -0.2319  0.3511
  684MOL0     H92329   4.402   4.274   5.330 -1.1905  2.9620 -2.1545
  684MOL0     H92330   4.324   4.296   5.125 -2.8398  0.2387  0.0252
  684MOL0     H92331   4.409   4.131   5.125 -0.1229 -1.0533  0.2097
  684MOL0     H92332   4.224   4.071   4.954 -0.7326  0.7974  0.1313
  684MOL0     H92333   4.362   4.148   4.884  0.2497  0.5716 -1.6225
  684MOL0     H92334   4.111   4.278   4.968  1.1503  2.4704  0.7519
  684MOL0     H92335   4.117   4.221   4.805  1.7764 -0.9489  0.3194
  684MOL0     H92336   4.318   4.431   4.927  0.1703  1.6292 -1.1701
  684MOL0     H92337   4.175   4.486   4.851  1.7185  1.6607  1.1478
  684MOL0     H92338   4.484   4.427   4.563 -0.2039  1.5309 -1.1594
  684MOL0     H92339   3.988   4.130   5.335 -1.0033 -0.9335  1.4346
  684MOL0     H92340   3.965   4.203   5.554  0.2345 -0.6477  0.5606
  685MOL0     O92341   8.774  10.272   1.225  0.3989  0.4442  0.3046
  685MOL0     C92342   8.688  10.252   1.141  0.4770  0.5801 -0.6281
  685MOL0     O92343   8.645  10.131   1.108  0.0532 -0.1086 -0.0486
  685MOL0     C92344   8.706  10.035   1.177  0.7388  0.2175 -0.2921
  685MOL0     C92345   8.667  10.004   1.312 -0.7507  0.4781 -0.0311
  685MOL0     C92346   8.743   9.925   1.394 -0.3149 -0.7440 -0.3531
  685MOL0     C92347   8.875   9.873   1.363 -0.7164 -0.5148  0.5202
  685MOL0     O92348   8.962   9.817   1.454 -0.5917  0.5787  0.4568
  685MOL0     C92349   9.098   9.796   1.406 -0.0481  1.0113  0.0917
  685MOL0     C92350   9.170   9.941   1.400  1.0185  0.9963 -0.0563
  685MOL0     C92351   9.310   9.940   1.351  0.1949  0.5484 -0.4357
  685MOL0     C92352   9.393  10.068   1.357  1.5574  0.3785 -0.0258
  685MOL0     C92353   9.540  10.030   1.325 -0.6143  0.1332  0.6481
  685MOL0     C92354   9.612  10.174   1.326 -0.1888  0.8198  0.3303
  685MOL0     C92355   9.637  10.223   1.184 -0.9155 -0.1119  0.8746
  685MOL0     C92356   9.748  10.133   1.123 -1.3692 -1.0736 -0.3150
  685MOL0     N92357   9.768  10.144   0.984 -0.0258 -0.1244  1.3480
  685MOL0     C92358   9.884  10.111   0.917 -0.5206 -0.4195  0.6208
  685MOL0     C92359   9.857  10.098   0.788 -0.4307 -0.2218 -0.3125
  685MOL0     C92360   9.962  10.064   0.677 -0.6584  0.8343  0.5287
  685MOL0     C92361  10.024  10.204   0.620  0.8649  0.7290 -0.7243
  685MOL0     C92362  10.160  10.246   0.670  0.5389  0.4148  1.0852
  685MOL0     C92363  10.219  10.368   0.598  0.0900  0.4775  0.2265
  685MOL0     O92364  10.209  10.363   0.449 -0.9154  0.0320  0.2881
  685MOL0     C92365  10.314  10.300   0.367  1.1354 -0.4675 -0.0021
  685MOL0     C92366  10.317  10.323   0.225  0.1968  0.9289 -0.0413
  685MOL0     C92367  10.405  10.256   0.143 -0.4187 -1.0164  0.3533
  685MOL0     C92368  10.405  10.297  -0.006  0.1760 -0.2537 -0.0065
  685MOL0     C92369  10.496  10.164   0.197 -0.3879  0.1277  1.0921
  685MOL0     C92370  10.595  10.097   0.108 -0.3291  0.4260 -0.0166
  685MOL0     O92371  10.614   9.962   0.143  0.6456 -0.2164  0.3975
  685MOL0     C92372  10.660   9.865   0.052  0.1924  0.4075 -0.9376
  685MOL0     C92373  10.797   9.828   0.047 -0.6816 -0.2468 -0.4772
  685MOL0     C92374  10.836   9.715  -0.034  0.7645  0.5380 -0.2765
  685MOL0     C92375  10.736   9.655  -0.117 -0.4023 -0.4609 -0.3685
  685MOL0     O92376  10.775   9.549  -0.195  0.4183 -0.3505 -0.1092
  685MOL0     C92377  10.686   9.490  -0.290  0.7175  0.4720  0.2731
  685MOL0     C92378  10.707   9.346  -0.320  0.3794  0.1414  0.3268
  685MOL0     C92379  10.852   9.302  -0.353  0.1174 -0.5585  0.0162
  685MOL0     C92380  10.914   9.365  -0.492  0.5379 -0.0054 -0.8358
  685MOL0     C92381  11.058   9.314  -0.509 -1.0484  0.7953 -0.5661
  685MOL0     C92382  11.140   9.412  -0.594  0.4318  0.8485  0.7367
  685MOL0     C92383  11.181   9.340  -0.718 -0.8391 -0.0517 -1.2064
  685MOL0     C92384  11.076   9.358  -0.826 -0.5124  0.0360 -0.0612
  685MOL0    Cl92385  11.140   9.320  -0.995 -0.1913  0.1465 -0.4770
  685MOL0     C92386  10.607   9.709  -0.127  0.7488  0.4734 -0.6380
  685MOL0     C92387  10.568   9.801  -0.036 -0.0381 -0.2576  0.2779
  685MOL0     O92388  10.639  10.145   0.007  0.6153 -0.8430 -0.4811
  685MOL0     C92389  10.480  10.134   0.328  0.3233  0.9189 -0.2340
  685MOL0     C92390  10.394  10.202   0.418  0.4879 -0.7685  0.8246
  685MOL0     N92391   9.727  10.126   0.776  1.0529  0.0872 -0.2941
  685MOL0     N92392   9.668  10.144   0.890  1.0934  0.1479  0.0237
  685MOL0     C92393   8.893   9.883   1.224  0.2004  0.0539  0.8536
  685MOL0     C92394   8.819   9.958   1.127  0.2736  0.0557  0.1266
  685MOL0     C92395   8.637  10.367   1.064  0.4779 -0.0953 -0.8903
  685MOL0     C92396   8.528  10.352   0.985  0.7676 -0.2421 -0.0162
  685MOL0     C92397   8.462  10.466   0.926  0.2979  0.6469  0.7422
  685MOL0     C92398   8.525  10.590   0.930  0.4431  0.8255  0.4298
  685MOL0     O92399   8.459  10.680   0.853 -0.3791 -0.5279  0.0351
  685MOL0     C92400   8.511  10.819   0.867 -0.2608 -0.2844  0.2544
  685MOL0     C92401   8.453  10.885   0.987 -0.3892 -0.5863 -0.8825
  685MOL0     C92402   8.508  11.028   0.996  0.3275 -0.3385  0.8361
  685MOL0     C92403   8.670  11.028   1.027  0.2790 -1.3679 -0.3451
  685MOL0     C92404   8.716  10.943   1.138 -0.0462  0.3231  0.7332
  685MOL0     C92405   8.749  10.876   1.233 -0.6612 -0.5128 -0.1896
  685MOL0     C92406   8.641  10.606   1.012 -0.4028  0.0590  0.3961
  685MOL0     C92407   8.681  10.500   1.084 -0.0922 -0.0216 -0.1393
  685MOL0     H92408   8.573  10.045   1.347  0.0280  2.1415  0.2219
  685MOL0     H92409   8.720   9.903   1.498 -0.1477  1.0227  0.0858
  685MOL0     H92410   9.139   9.735   1.487 -0.0677  0.1726 -0.5203
  685MOL0     H92411   9.109   9.742   1.311  3.1436  0.8415  0.4490
  685MOL0     H92412   9.119  10.000   1.323  0.6189 -3.7820 -3.9689
  685MOL0     H92413   9.150   9.990   1.496 -0.4387 -1.3902  0.9290
  685MOL0     H92414   9.358   9.871   1.421 -1.6615 -1.2297 -0.8401
  685MOL0     H92415   9.309   9.894   1.252  0.7938  1.7484 -1.0178
  685MOL0     H92416   9.360  10.129   1.271  0.4228 -3.5620 -2.6769
  685MOL0     H92417   9.379  10.125   1.449  2.0184 -3.5542  2.7132
  685MOL0     H92418   9.581   9.959   1.397  2.1730  1.6004  0.6475
  685MOL0     H92419   9.548   9.978   1.228  3.4855  0.7285  0.4796
  685MOL0     H92420   9.551  10.251   1.374  1.4781  2.6046 -0.3094
  685MOL0     H92421   9.708  10.170   1.379  1.5744  0.0141 -2.6775
  685MOL0     H92422   9.550  10.207   1.118  0.3965 -0.5545 -0.8215
  685MOL0     H92423   9.662  10.329   1.189 -1.4577  0.1705 -1.3921
  685MOL0     H92424   9.724  10.030   1.150 -0.0586 -0.9036  1.6355
  685MOL0     H92425   9.842  10.135   1.180 -0.9446  2.7051 -0.8526
  685MOL0     H92426   9.971  10.076   0.972 -1.1444 -1.4013  1.0196
  685MOL0     H92427  10.038   9.997   0.717  0.5427  2.9028  1.8843
  685MOL0     H92428   9.915  10.004   0.598  1.6847 -2.4625  1.4201
  685MOL0     H92429   9.949  10.278   0.650 -0.1917 -1.0537  1.3001
  685MOL0     H92430  10.027  10.194   0.511 -1.8789  1.6772 -0.9598
  685MOL0     H92431  10.229  10.161   0.664 -0.6531 -0.5213  0.1999
  685MOL0     H92432  10.151  10.286   0.771 -0.1910  3.2726 -0.0315
  685MOL0     H92433  10.326  10.379   0.619  0.9540  2.2049 -3.9362
  685MOL0     H92434  10.163  10.457   0.625  0.7553  0.5654  1.3420
  685MOL0     H92435  10.263  10.410   0.191  0.0597  0.1319 -1.9651
  685MOL0     H92436  10.397  10.204  -0.063 -0.7338  0.0360 -0.3760
  685MOL0     H92437  10.315  10.355  -0.028  0.6613  0.2728 -0.6515
  685MOL0     H92438  10.485  10.357  -0.050 -0.3067  0.8704  0.6159
  685MOL0     H92439  10.873   9.862   0.117 -0.5331 -0.0150 -0.7472
  685MOL0     H92440  10.940   9.685  -0.029  0.9225  1.1816  3.4645
  685MOL0     H92441  10.581   9.490  -0.261  0.2726 -0.5346 -1.2581
  685MOL0     H92442  10.689   9.534  -0.390 -0.7034  1.0183  0.4438
  685MOL0     H92443  10.696   9.291  -0.226  0.2139  0.4999  0.5164
  685MOL0     H92444  10.632   9.299  -0.384 -1.3600  2.6149  0.4208
  685MOL0     H92445  10.853   9.192  -0.358  2.8583 -0.5972  0.0987
  685MOL0     H92446  10.919   9.337  -0.274 -0.5037  0.0557  0.2758
  685MOL0     H92447  10.841   9.341  -0.570 -2.1029  0.5611  1.2817
  685MOL0     H92448  10.920   9.473  -0.477  0.0617 -0.1404  0.5039
  685MOL0     H92449  11.064   9.210  -0.543  1.1093  0.6765 -0.0107
  685MOL0     H92450  11.100   9.301  -0.409 -0.1955 -2.0170 -1.1795
  685MOL0     H92451  11.081   9.500  -0.621 -1.5142 -0.8475 -0.8078
  685MOL0     H92452  11.233   9.438  -0.541  0.8338  1.0383 -0.0458
  685MOL0     H92453  11.198   9.235  -0.693 -2.5092  0.3763  2.5260
  685MOL0     H92454  11.275   9.385  -0.751  0.2732 -2.1936 -1.0771
  685MOL0     H92455  11.034   9.460  -0.827 -0.1316  0.2184 -1.7075
  685MOL0     H92456  10.996   9.285  -0.812  0.7689 -0.8212  3.6404
  685MOL0     H92457  10.535   9.659  -0.190  3.6136 -0.9873 -2.9628
  685MOL0     H92458  10.460   9.814  -0.037 -0.0286 -0.1329 -1.1779
  685MOL0     H92459  10.546  10.072   0.387 -0.0070 -0.3256 -1.1518
  685MOL0     H92460  10.404  10.197   0.525 -1.7186 -0.3094  1.0941
  685MOL0     H92461   8.980   9.836   1.178 -0.0819  2.8208 -3.0291
  685MOL0     H92462   8.856   9.950   1.026 -1.1433 -3.3599 -0.2675
  685MOL0     H92463   8.477  10.256   0.975 -1.9212  1.0669  0.0805
  685MOL0     H92464   8.370  10.441   0.873  1.6284  3.1078 -3.1312
  685MOL0     H92465   8.621  10.819   0.867 -0.2304  1.7586 -0.5435
  685MOL0     H92466   8.490  10.887   0.785  0.0458  1.1138  1.2991
  685MOL0     H92467   8.484  10.829   1.075  0.7798  4.1103  2.0514
  685MOL0     H92468   8.344  10.885   0.975 -0.1359  1.3367 -4.9413
  685MOL0     H92469   8.449  11.072   1.077 -3.1534 -1.6031 -0.7963
  685MOL0     H92470   8.475  11.079   0.905 -1.2593  0.6970  1.9523
  685MOL0     H92471   8.699  11.125   1.069 -1.2698 -2.3660  3.4529
  685MOL0     H92472   8.721  11.001   0.935  1.1313  0.5764 -0.4898
  685MOL0     H92473   8.791  10.816   1.311 -0.7233  1.6907  1.6241
  685MOL0     H92474   8.678  10.707   1.025  1.5416 -0.5159 -0.3976
  685MOL0     H92475   8.762  10.522   1.153  1.8917  1.0687 -2.6206
  686MOL0     O92476   4.310   4.712   7.316  0.4681 -0.5009  0.1591
  686MOL0     C92477   4.293   4.841   7.320 -1.0196 -1.0099 -0.1635
  686MOL0     O92478   4.174   4.900   7.343  0.2132 -0.0626 -0.3253
  686MOL0     C92479   4.054   4.836   7.304  0.1475  0.4146 -0.0646
  686MOL0     C92480   3.943   4.812   7.390 -0.5896 -0.7060  0.6328
  686MOL0     C92481   3.836   4.727   7.351 -0.6634  0.2641  0.1370
  686MOL0     C92482   3.831   4.680   7.215  0.6471  0.0880 -1.0222
  686MOL0     O92483   3.707   4.627   7.175  0.0998  0.2230 -0.0682
  686MOL0     C92484   3.654   4.524   7.253 -0.6323 -0.5251 -0.7802
  686MOL0     C92485   3.610   4.414   7.165  0.3206  1.2651 -0.6034
  686MOL0     C92486   3.533   4.310   7.232 -0.4513  0.4857  0.0682
  686MOL0     C92487   3.465   4.203   7.137 -0.3034 -0.0436  0.5183
  686MOL0     C92488   3.351   4.118   7.203 -0.4897 -0.4544  0.5222
  686MOL0     C92489   3.300   4.000   7.114  0.1851 -0.0744  0.5099
  686MOL0     C92490   3.204   4.039   6.995  0.2628 -0.3833 -0.0089
  686MOL0     C92491   3.075   4.095   7.057 -0.0958  0.3796 -0.2002
  686MOL0     N92492   2.954   4.058   6.968 -0.3779 -1.0257  0.4945
  686MOL0     C92493   2.843   3.989   7.013  0.2807 -1.3202  1.3272
  686MOL0     C92494   2.748   4.017   6.918  0.0690  0.7496  0.1829
  686MOL0     C92495   2.609   3.967   6.911 -0.0846 -0.6491  0.1833
  686MOL0     C92496   2.505   4.088   6.937  0.1036  1.4883  0.2254
  686MOL0     C92497   2.475   4.168   6.811 -0.2532  1.0633  0.6562
  686MOL0     C92498   2.394   4.087   6.712 -0.2502 -0.2093 -0.4920
  686MOL0     O92499   2.366   4.183   6.609 -1.0269 -0.1939  0.5398
  686MOL0     C92500   2.460   4.217   6.517 -0.0740  0.2312 -0.8276
  686MOL0     C92501   2.566   4.124   6.478  0.6326 -0.1653  0.3808
  686MOL0     C92502   2.665   4.174   6.390 -0.6640 -0.1311 -0.4704
  686MOL0     C92503   2.779   4.089   6.350  0.1351 -1.0714 -0.5320
  686MOL0     C92504   2.662   4.310   6.341 -0.0923  0.2100 -0.4675
  686MOL0     C92505   2.762   4.372   6.248  0.3422 -0.2405  0.8161
  686MOL0     O92506   2.777   4.508   6.244  0.0165 -0.2676  0.3435
  686MOL0     C92507   2.867   4.562   6.144 -0.1602  0.4246 -1.6447
  686MOL0     C92508   2.994   4.518   6.123 -0.3863 -0.2522 -0.3035
  686MOL0     C92509   3.080   4.574   6.028 -0.0074 -0.9238  0.1306
  686MOL0     C92510   3.031   4.679   5.951 -0.2192  0.7474 -0.2630
  686MOL0     O92511   3.092   4.731   5.840  0.5453 -0.0840  0.9397
  686MOL0     C92512   3.232   4.695   5.812  0.7328 -0.3103 -0.5025
  686MOL0     C92513   3.286   4.764   5.683  0.0308  0.3026 -0.6261
  686MOL0     C92514   3.246   4.689   5.548 -0.2226  0.9264 -0.9563
  686MOL0     C92515   3.124   4.759   5.470  0.4228  0.0009 -0.6781
  686MOL0     C92516   3.104   4.694   5.333 -0.1241  1.2594  0.5905
  686MOL0     C92517   3.048   4.547   5.356  0.3930 -0.4880  0.1240
  686MOL0     C92518   2.992   4.496   5.223  0.0256 -0.4409  0.0547
  686MOL0     C92519   2.922   4.363   5.232  0.4071  0.1803 -0.0473
  686MOL0    Cl92520   2.766   4.381   5.323 -0.3426 -0.4838  0.1120
  686MOL0     C92521   2.907   4.739   5.984 -0.0078  0.4532  0.5242
  686MOL0     C92522   2.828   4.675   6.075  0.5463  0.5581  0.1446
  686MOL0     O92523   2.821   4.299   6.173  0.3710  0.1269 -0.4133
  686MOL0     C92524   2.561   4.396   6.383 -0.1596  0.2677 -0.3305
  686MOL0     C92525   2.466   4.351   6.468 -0.2591  0.3087 -0.3143
  686MOL0     N92526   2.800   4.111   6.821  1.1207  0.0347  0.0046
  686MOL0     N92527   2.921   4.124   6.860 -1.0544 -0.4503  0.1658
  686MOL0     C92528   3.927   4.719   7.125  0.0108 -0.2939 -0.4799
  686MOL0     C92529   4.047   4.792   7.167  0.1057  0.1818 -0.4023
  686MOL0     C92530   4.416   4.919   7.286  0.3485 -0.9490 -0.2897
  686MOL0     C92531   4.548   4.865   7.298  0.6470 -0.6190  0.5762
  686MOL0     C92532   4.659   4.943   7.266 -0.8014  1.0212  0.4189
  686MOL0     C92533   4.645   5.074   7.225 -0.3425  0.3356 -0.1910
  686MOL0     O92534   4.750   5.153   7.185  0.1418 -0.2591 -0.6870
  686MOL0     C92535   4.888   5.122   7.184 -0.6666 -0.2128 -0.0470
  686MOL0     C92536   4.949   5.123   7.320 -0.2161  0.6367 -0.1237
  686MOL0     C92537   5.090   5.061   7.318  0.9342  0.5929 -0.8918
  686MOL0     C92538   5.084   4.908   7.374  0.1377 -0.0598  0.0548
  686MOL0     C92539   5.053   4.900   7.518 -0.7007  0.7589  0.2685
  686MOL0     C92540   5.062   4.886   7.637 -0.5245 -0.7249  1.1410
  686MOL0     C92541   4.517   5.128   7.212  0.1562  0.2715  0.5379
  686MOL0     C92542   4.398   5.056   7.246 -0.7345  0.1780  0.0225
  686MOL0     H92543   3.943   4.857   7.489 -0.3257 -0.7383  0.6491
  686MOL0     H92544   3.758   4.715   7.426  2.1532  1.1290  3.4844
  686MOL0     H92545   3.709   4.482   7.337  1.5377  1.9038 -0.8510
  686MOL0     H92546   3.566   4.567   7.301 -0.0476 -0.4926  0.2919
  686MOL0     H92547   3.545   4.451   7.084 -1.2239  0.8098  0.3921
  686MOL0     H92548   3.700   4.370   7.121 -0.1764  0.4005 -0.7811
  686MOL0     H92549   3.587   4.239   7.295 -2.4387 -1.6735 -0.5268
  686MOL0     H92550   3.457   4.351   7.299 -1.2865 -2.8444  1.3622
  686MOL0     H92551   3.404   4.247   7.058 -1.7706 -1.6044  0.7248
  686MOL0     H92552   3.544   4.137   7.098  0.3004  0.5760  0.6621
  686MOL0     H92553   3.387   4.093   7.303  1.7743 -2.7339 -0.7426
  686MOL0     H92554   3.268   4.184   7.232  2.7111  3.4436  1.6463
  686MOL0     H92555   3.390   3.965   7.062  0.1912  1.5625 -0.6967
  686MOL0     H92556   3.248   3.925   7.173 -1.4851 -0.0123 -0.8061
  686MOL0     H92557   3.238   4.119   6.928  2.0075  0.4127  1.7391
  686MOL0     H92558   3.185   3.953   6.931 -0.6722 -0.2495  0.0611
  686MOL0     H92559   3.089   4.203   7.068 -2.7406  0.7910 -0.1714
  686MOL0     H92560   3.056   4.054   7.157 -1.9162 -0.8714 -1.0004
  686MOL0     H92561   2.833   3.934   7.106 -0.4536 -0.9560  1.4727
  686MOL0     H92562   2.603   3.922   6.812 -2.0926 -2.0113  0.8648
  686MOL0     H92563   2.597   3.881   6.977  3.5938 -0.9682  0.6606
  686MOL0     H92564   2.557   4.152   7.009  1.7829 -0.8998  1.2605
  686MOL0     H92565   2.422   4.047   6.996 -0.2074 -0.4152 -1.4377
  686MOL0     H92566   2.562   4.183   6.746 -3.0622 -1.0231 -4.1269
  686MOL0     H92567   2.426   4.264   6.829 -0.8682  0.8618  0.0783
  686MOL0     H92568   2.299   4.061   6.759  1.1609  1.3301  3.6654
  686MOL0     H92569   2.446   3.999   6.672 -1.9773 -1.6494  0.2655
  686MOL0     H92570   2.578   4.027   6.525 -1.6995 -1.7917 -2.0191
  686MOL0     H92571   2.767   4.034   6.256 -0.9579 -1.4280 -0.2071
  686MOL0     H92572   2.873   4.145   6.349  0.4783 -1.2580  3.3065
  686MOL0     H92573   2.786   4.015   6.431  1.8630 -0.6134 -0.2294
  686MOL0     H92574   3.042   4.435   6.175  1.2824 -0.4531 -2.0697
  686MOL0     H92575   3.177   4.532   6.002 -0.9589 -2.5633 -1.0205
  686MOL0     H92576   3.303   4.715   5.893  0.4033 -1.7803  0.1964
  686MOL0     H92577   3.238   4.587   5.799  0.1296 -0.6890  1.8340
  686MOL0     H92578   3.245   4.865   5.675  0.7791  0.4622 -3.2362
  686MOL0     H92579   3.395   4.761   5.693  0.0706  1.0321 -0.7601
  686MOL0     H92580   3.219   4.584   5.561 -0.0606  0.6869 -2.4233
  686MOL0     H92581   3.342   4.682   5.496  2.0416  1.8322  2.7482
  686MOL0     H92582   3.037   4.748   5.536 -0.6596 -1.1702 -2.2309
  686MOL0     H92583   3.145   4.865   5.454 -0.4636  0.5596  1.4593
  686MOL0     H92584   3.199   4.686   5.280 -0.1857 -0.1809  0.6520
  686MOL0     H92585   3.028   4.752   5.280 -1.2193 -1.4447 -1.0371
  686MOL0     H92586   3.133   4.484   5.382  0.3730 -1.2366 -1.5308
  686MOL0     H92587   2.961   4.548   5.424 -0.3952 -1.5566 -0.8257
  686MOL0     H92588   3.071   4.493   5.147  0.0792 -1.9430  0.1397
  686MOL0     H92589   2.924   4.574   5.189  2.2700  1.2517 -0.7561
  686MOL0     H92590   2.981   4.290   5.288 -1.3985 -0.1557  1.4904
  686MOL0     H92591   2.888   4.337   5.131 -1.6822  3.0473 -0.2223
  686MOL0     H92592   2.872   4.838   5.958  0.9080  1.0730  1.6026
  686MOL0     H92593   2.730   4.719   6.086  0.7095  0.8788  0.3194
  686MOL0     H92594   2.554   4.500   6.352 -3.1681 -0.0280 -1.0198
  686MOL0     H92595   2.392   4.421   6.506 -1.2078 -0.5803 -0.5099
  686MOL0     H92596   3.911   4.699   7.020  0.2152  1.1709 -0.8157
  686MOL0     H92597   4.129   4.800   7.097 -0.0542  1.5780 -0.4602
  686MOL0     H92598   4.563   4.759   7.318  0.9019 -1.6977 -4.1877
  686MOL0     H92599   4.756   4.896   7.268 -1.5066 -0.5219  3.0163
  686MOL0     H92600   4.902   5.022   7.142  0.4970 -0.7829  1.5709
  686MOL0     H92601   4.941   5.186   7.114 -0.6484  0.1699  0.3095
  686MOL0     H92602   4.875   5.067   7.378 -0.7908 -0.8015 -2.1315
  686MOL0     H92603   4.954   5.219   7.371 -0.7066 -0.5541  2.3361
  686MOL0     H92604   5.160   5.117   7.382 -2.2443  1.0884  2.5448
  686MOL0     H92605   5.127   5.056   7.215  2.4799 -0.7980 -0.3268
  686MOL0     H92606   5.178   4.855   7.366  0.4800  0.1128  2.3000
  686MOL0     H92607   5.016   4.846   7.315  2.6614 -1.5450 -1.4243
  686MOL0     H92608   5.043   4.877   7.742 -0.9459  0.2845  1.1628
  686MOL0     H92609   4.507   5.233   7.187  0.3963 -0.1277 -1.4017
  686MOL0     H92610   4.299   5.096   7.226  0.5508  1.9758 -3.7026
  687MOL0     O92611   3.340   1.185   4.976 -0.6558 -0.8783 -0.5224
  687MOL0     C92612   3.352   1.266   4.891  0.1645 -0.8588  1.1671
  687MOL0     O92613   3.287   1.393   4.893 -0.3550  0.6568 -0.1476
  687MOL0     C92614   3.254   1.455   5.008  0.0558  0.3715 -0.1463
  687MOL0     C92615   3.347   1.475   5.095 -0.9575 -0.6386  0.0393
  687MOL0     C92616   3.325   1.546   5.217  0.3920  0.1079  0.0093
  687MOL0     C92617   3.199   1.584   5.239  0.7961 -0.4972 -1.2530
  687MOL0     O92618   3.187   1.670   5.343  0.1464  0.1787  0.7112
  687MOL0     C92619   3.055   1.687   5.402 -0.4074 -0.9362 -0.1358
  687MOL0     C92620   3.061   1.729   5.550 -0.2210  0.8873 -0.1963
  687MOL0     C92621   3.131   1.870   5.561 -0.6620  0.2034 -0.8249
  687MOL0     C92622   3.210   1.874   5.692 -0.0427  0.4646  0.0809
  687MOL0     C92623   3.267   2.019   5.715 -0.2485  0.3062  0.4743
  687MOL0     C92624   3.350   2.032   5.847 -1.1463 -1.0203  0.4072
  687MOL0     C92625   3.363   2.172   5.910  0.3054  0.0235 -0.6733
  687MOL0     C92626   3.476   2.251   5.859 -0.9962 -0.4724 -0.0290
  687MOL0     N92627   3.461   2.310   5.731  0.4272  0.0309 -0.3030
  687MOL0     C92628   3.417   2.441   5.709 -0.1081  0.1497  0.2945
  687MOL0     C92629   3.438   2.465   5.582 -0.6982  0.2159 -0.0118
  687MOL0     C92630   3.399   2.594   5.520 -0.4606 -0.4479  0.0742
  687MOL0     C92631   3.491   2.693   5.576 -0.2761 -0.8987  1.3285
  687MOL0     C92632   3.465   2.836   5.520  0.0263 -0.3161 -0.0348
  687MOL0     C92633   3.570   2.934   5.572  0.3260  0.0167  0.2544
  687MOL0     O92634   3.525   2.984   5.695 -0.0942  0.2638  0.1579
  687MOL0     C92635   3.606   3.029   5.795  0.2010 -1.1299  0.1832
  687MOL0     C92636   3.747   3.044   5.786 -0.4551 -0.1039 -0.4959
  687MOL0     C92637   3.827   3.101   5.884  0.8061 -0.0145  0.3442
  687MOL0     C92638   3.973   3.113   5.851  0.0035  0.1365  0.3310
  687MOL0     C92639   3.768   3.136   6.011 -0.1581 -0.1967  0.6395
  687MOL0     C92640   3.847   3.203   6.123 -0.1022  0.2914 -0.3895
  687MOL0     O92641   3.782   3.229   6.238  0.0194  1.2647 -0.3749
  687MOL0     C92642   3.858   3.280   6.334 -0.8777  0.4686 -2.2438
  687MOL0     C92643   3.833   3.413   6.379  0.3694  0.1527 -0.4249
  687MOL0     C92644   3.912   3.464   6.488 -0.0696 -0.5717  0.4596
  687MOL0     C92645   4.011   3.386   6.552 -0.4084  0.5468 -0.1001
  687MOL0     O92646   4.079   3.447   6.658  0.5220 -0.0761  0.0921
  687MOL0     C92647   4.188   3.386   6.728 -0.4087 -0.4264  0.0054
  687MOL0     C92648   4.231   3.477   6.844  0.0390  0.1502  0.2369
  687MOL0     C92649   4.125   3.478   6.947  0.2683 -0.7058  0.7677
  687MOL0     C92650   4.165   3.520   7.086 -0.4090 -0.0424 -0.1310
  687MOL0     C92651   4.196   3.670   7.091  1.4105  0.7765 -0.2078
  687MOL0     C92652   4.222   3.716   7.232  0.0472 -0.0895 -0.3472
  687MOL0     C92653   4.298   3.848   7.233 -0.2102  0.2929 -0.0158
  687MOL0     C92654   4.339   3.894   7.364  0.1707 -0.6463 -0.4843
  687MOL0    Cl92655   4.206   3.911   7.477 -0.1880 -0.2818 -0.0194
  687MOL0     C92656   4.040   3.258   6.506  0.0567  0.2278 -0.4407
  687MOL0     C92657   3.958   3.203   6.401  1.0044 -0.4573  0.2474
  687MOL0     O92658   3.959   3.243   6.097  0.5467  0.1034 -0.1796
  687MOL0     C92659   3.628   3.109   6.029  0.6399 -0.2103 -0.7088
  687MOL0     C92660   3.552   3.064   5.916  0.1905  0.5397  0.1932
  687MOL0     N92661   3.502   2.361   5.523 -0.1423  0.0629  0.5907
  687MOL0     N92662   3.517   2.264   5.612  0.6191  0.2747 -0.3596
  687MOL0     C92663   3.098   1.557   5.151  0.6247  0.1180 -0.0266
  687MOL0     C92664   3.125   1.487   5.035 -0.5813 -0.2540 -0.3134
  687MOL0     C92665   3.434   1.214   4.777 -1.2272 -0.6557  0.0922
  687MOL0     C92666   3.421   1.290   4.660  0.4186 -0.3700  0.5295
  687MOL0     C92667   3.476   1.248   4.541  0.0065 -0.0282 -0.8225
  687MOL0     C92668   3.543   1.127   4.531 -1.0165 -1.0701  0.0603
  687MOL0     O92669   3.625   1.097   4.422 -0.4875  0.9467 -0.9216
  687MOL0     C92670   3.559   1.086   4.300  0.4138 -0.8293 -0.7911
  687MOL0     C92671   3.482   0.954   4.287  0.0201 -0.0857 -0.5510
  687MOL0     C92672   3.391   0.950   4.160 -0.1066 -0.3605 -0.6197
  687MOL0     C92673   3.271   0.851   4.178 -0.7443  0.8001 -0.4423
  687MOL0     C92674   3.167   0.868   4.077  0.0634 -0.5321  0.1259
  687MOL0     C92675   3.093   0.872   3.979 -0.7421  0.3004  0.3092
  687MOL0     C92676   3.562   1.047   4.650  0.7452 -0.5969 -0.3220
  687MOL0     C92677   3.503   1.094   4.775  0.5501  1.3111  0.0926
  687MOL0     H92678   3.450   1.450   5.074 -0.7952  0.0322  0.0378
  687MOL0     H92679   3.405   1.547   5.290  0.0732 -0.8544  0.3791
  687MOL0     H92680   2.999   1.763   5.346 -1.3313  0.0697  2.0360
  687MOL0     H92681   2.994   1.597   5.401  0.2335 -1.3777 -1.2126
  687MOL0     H92682   2.958   1.743   5.582 -0.3755 -0.2876 -0.1373
  687MOL0     H92683   3.113   1.657   5.614  2.3823  2.4144 -0.4344
  687MOL0     H92684   3.191   1.900   5.475 -0.7001  2.0444 -0.2473
  687MOL0     H92685   3.059   1.952   5.570 -0.5461  0.0902  2.9006
  687MOL0     H92686   3.138   1.846   5.770 -0.1506  1.6290  0.4270
  687MOL0     H92687   3.290   1.800   5.682  1.2739  1.3610  3.0163
  687MOL0     H92688   3.327   2.054   5.630  1.6709  0.5839  1.8879
  687MOL0     H92689   3.179   2.083   5.721  0.1719  1.2153 -1.9741
  687MOL0     H92690   3.303   1.966   5.920 -1.7206  0.7338  1.6783
  687MOL0     H92691   3.448   1.986   5.832  0.0556  2.1334 -3.1439
  687MOL0     H92692   3.271   2.228   5.893 -0.7752 -1.1293  1.0211
  687MOL0     H92693   3.382   2.154   6.017  3.0466  0.5398 -1.0059
  687MOL0     H92694   3.562   2.185   5.847  1.7427  2.7150  0.5172
  687MOL0     H92695   3.491   2.336   5.926 -1.6999  0.0169 -0.4879
  687MOL0     H92696   3.366   2.508   5.778 -1.5261  1.4164 -1.8556
  687MOL0     H92697   3.396   2.590   5.411 -4.5125  1.2515 -0.0561
  687MOL0     H92698   3.296   2.616   5.550  0.0858 -0.5484  2.1751
  687MOL0     H92699   3.593   2.658   5.555 -1.6845 -2.9761 -3.4033
  687MOL0     H92700   3.470   2.703   5.682  2.6755 -1.5617  2.0711
  687MOL0     H92701   3.363   2.871   5.541 -0.2517 -0.8639 -0.4154
  687MOL0     H92702   3.476   2.826   5.411  0.5938 -0.4350  0.0331
  687MOL0     H92703   3.578   3.017   5.500  0.1512  1.3330  1.6958
  687MOL0     H92704   3.671   2.893   5.578  0.4462  0.1295 -0.7639
  687MOL0     H92705   3.794   3.012   5.693  0.6853 -2.3892  0.7667
  687MOL0     H92706   4.003   3.101   5.747 -0.7292  1.2567 -0.0367
  687MOL0     H92707   4.016   3.210   5.878  0.3687 -0.4751  2.0606
  687MOL0     H92708   4.018   3.036   5.914 -1.7715 -3.1507 -2.0705
  687MOL0     H92709   3.754   3.478   6.340  1.1892  1.0685 -0.5878
  687MOL0     H92710   3.876   3.554   6.538  0.8156 -0.3712  0.7525
  687MOL0     H92711   4.159   3.286   6.762  0.8462 -0.7425  0.1828
  687MOL0     H92712   4.269   3.375   6.655  0.6715  3.2450  0.4224
  687MOL0     H92713   4.321   3.445   6.898  0.5582 -1.4333 -1.4771
  687MOL0     H92714   4.250   3.574   6.798 -1.7668  0.3958 -0.0688
  687MOL0     H92715   4.080   3.379   6.958 -2.1700  0.3928  1.4472
  687MOL0     H92716   4.050   3.554   6.921 -2.0238 -2.7931  0.8558
  687MOL0     H92717   4.086   3.489   7.156 -0.4459  1.2949  0.4577
  687MOL0     H92718   4.260   3.482   7.122  1.2203  2.6398 -1.2835
  687MOL0     H92719   4.121   3.738   7.047 -1.7939 -2.1352  0.3169
  687MOL0     H92720   4.288   3.685   7.035  1.9933 -1.5960  0.0524
  687MOL0     H92721   4.129   3.724   7.290 -1.2744  2.4746 -2.6270
  687MOL0     H92722   4.283   3.641   7.283 -1.9205 -1.6591 -0.2220
  687MOL0     H92723   4.238   3.931   7.194 -0.8441  0.1688  0.6969
  687MOL0     H92724   4.393   3.837   7.178  0.2065  1.3319  0.4562
  687MOL0     H92725   4.389   3.991   7.354  1.3599 -0.9919  1.5669
  687MOL0     H92726   4.412   3.829   7.413 -1.9467 -1.2398  2.1286
  687MOL0     H92727   4.125   3.207   6.550 -0.9731  1.2797  3.0755
  687MOL0     H92728   3.967   3.101   6.367 -1.1667 -1.0013  1.1553
  687MOL0     H92729   3.584   3.120   6.127  2.7711 -0.8650  0.3889
  687MOL0     H92730   3.450   3.031   5.931  0.8106 -0.9586  1.4182
  687MOL0     H92731   2.997   1.593   5.163 -1.0272 -3.3608 -1.9412
  687MOL0     H92732   3.053   1.456   4.960  0.1248  0.6812 -1.4207
  687MOL0     H92733   3.372   1.385   4.644 -2.6747 -1.5435  2.1533
  687MOL0     H92734   3.474   1.313   4.454  2.2415  1.0706 -0.1492
  687MOL0     H92735   3.491   1.170   4.285  1.2114 -0.1328 -0.5919
  687MOL0     H92736   3.640   1.098   4.228 -2.3586 -0.5219 -4.1239
  687MOL0     H92737   3.422   0.954   4.379 -0.2701  0.7973 -0.7378
  687MOL0     H92738   3.548   0.868   4.273  0.2245  0.1233 -0.8903
  687MOL0     H92739   3.455   0.929   4.074  1.4271  1.7947 -0.0909
  687MOL0     H92740   3.346   1.048   4.142 -1.6396 -0.7150  0.9794
  687MOL0     H92741   3.232   0.858   4.280 -0.2217 -1.1695 -0.0694
  687MOL0     H92742   3.316   0.751   4.180  1.8453  1.8856  1.6497
  687MOL0     H92743   3.024   0.870   3.896 -2.1898 -0.8759  1.4843
  687MOL0     H92744   3.610   0.950   4.642  0.6364 -0.6179 -0.7350
  687MOL0     H92745   3.493   1.028   4.861 -3.2468 -1.1220 -1.9406
  688MOL0     O92746  10.746   4.175   3.909 -0.4943  0.1175  0.1064
  688MOL0     C92747  10.695   4.077   3.856  0.1934  1.0271  0.2741
  688MOL0     O92748  10.729   4.035   3.727  0.1063 -0.4758  0.1233
  688MOL0     C92749  10.851   4.059   3.661 -0.0899 -0.5194 -0.3734
  688MOL0     C92750  10.847   4.042   3.522  0.2048  0.2651  0.2434
  688MOL0     C92751  10.960   4.062   3.453  0.6282  0.2723  0.1634
  688MOL0     C92752  11.078   4.090   3.509 -0.1473 -0.3329 -0.1829
  688MOL0     O92753  11.174   4.138   3.425  0.6037  0.4705 -0.2236
  688MOL0     C92754  11.318   4.116   3.450  0.6768 -0.5097 -0.0835
  688MOL0     C92755  11.389   4.107   3.317 -0.2844 -1.0597 -0.5526
  688MOL0     C92756  11.542   4.107   3.334 -0.0749 -0.3502 -0.2907
  688MOL0     C92757  11.624   4.161   3.216  0.0609 -0.5931  0.3957
  688MOL0     C92758  11.786   4.116   3.215 -0.1311  0.2252 -0.3814
  688MOL0     C92759  11.875   4.196   3.114  0.3507 -0.0853 -1.2113
  688MOL0     C92760  12.007   4.139   3.089 -0.2975 -0.6284  0.6923
  688MOL0     C92761  12.108   4.149   3.211  0.3746 -0.1876  0.4335
  688MOL0     N92762  12.150   4.287   3.239  0.7359 -0.0306 -0.0920
  688MOL0     C92763  12.073   4.371   3.317 -0.0081  0.6555  0.0920
  688MOL0     C92764  12.158   4.476   3.322  0.3401 -0.5837 -0.2323
  688MOL0     C92765  12.133   4.597   3.418 -0.1608  0.7241  0.0852
  688MOL0     C92766  12.257   4.683   3.452  0.5284  0.2963  0.3138
  688MOL0     C92767  12.304   4.782   3.339  0.6860 -0.2073 -0.7396
  688MOL0     C92768  12.211   4.912   3.344 -0.3018  0.2838  0.9396
  688MOL0     O92769  12.254   4.990   3.237 -0.8186 -0.2410  0.2200
  688MOL0     C92770  12.193   5.112   3.209 -0.1538 -0.0704  0.3982
  688MOL0     C92771  12.230   5.177   3.091 -0.0070  0.7743  0.3580
  688MOL0     C92772  12.167   5.299   3.065  0.8891  0.7666 -0.1881
  688MOL0     C92773  12.200   5.357   2.928 -0.2016 -0.6652 -0.0108
  688MOL0     C92774  12.056   5.363   3.146 -0.0339  0.4012 -0.4135
  688MOL0     C92775  11.995   5.499   3.123  0.5415  0.0875  0.5967
  688MOL0     O92776  11.899   5.528   3.222  1.1770 -0.0301 -0.4646
  688MOL0     C92777  11.793   5.622   3.185  0.0019  0.2765 -0.0671
  688MOL0     C92778  11.763   5.728   3.274  0.1378  0.0490  0.6493
  688MOL0     C92779  11.661   5.823   3.236 -0.5371  0.0914 -0.1541
  688MOL0     C92780  11.580   5.802   3.126  0.2634 -0.1583 -1.7491
  688MOL0     O92781  11.466   5.869   3.090  0.9254  0.2975  0.9171
  688MOL0     C92782  11.401   5.941   3.192 -0.5670  0.0154 -0.7632
  688MOL0     C92783  11.259   5.966   3.153  0.5988  1.4431  0.2195
  688MOL0     C92784  11.193   6.050   3.261  0.6557 -0.1176  0.1139
  688MOL0     C92785  11.199   6.197   3.232  0.3258  0.3448  1.0007
  688MOL0     C92786  11.210   6.272   3.364  0.4135  0.2031  0.4710
  688MOL0     C92787  11.089   6.258   3.455  0.1440  0.2468  1.0217
  688MOL0     C92788  11.113   6.322   3.587  0.5205 -1.0301  1.1710
  688MOL0     C92789  10.992   6.330   3.677 -0.4994  0.3756  0.1756
  688MOL0    Cl92790  10.928   6.166   3.722  0.0065  0.0519 -0.0906
  688MOL0     C92791  11.622   5.699   3.035 -0.0392  0.1230  0.1567
  688MOL0     C92792  11.721   5.606   3.069 -0.9345  0.1976  0.4852
  688MOL0     O92793  12.000   5.558   3.014 -0.7585 -0.5659 -0.2484
  688MOL0     C92794  12.033   5.292   3.265  0.6876  0.3208 -0.5085
  688MOL0     C92795  12.094   5.175   3.293  0.0015 -0.6657 -0.1345
  688MOL0     N92796  12.269   4.459   3.239 -0.0731 -0.2693 -1.0458
  688MOL0     N92797  12.258   4.348   3.175  0.2614  0.2927 -0.5556
  688MOL0     C92798  11.091   4.089   3.651 -0.3747 -0.2581 -0.6740
  688MOL0     C92799  10.976   4.084   3.726  0.0598  1.0996 -1.1166
  688MOL0     C92800  10.565   4.029   3.915  0.1763 -0.9023 -1.5719
  688MOL0     C92801  10.497   3.907   3.895 -0.8590  0.4242  0.6650
  688MOL0     C92802  10.382   3.878   3.963  1.0341 -0.0536 -0.0896
  688MOL0     C92803  10.326   3.956   4.057  0.7833  0.6728  1.1269
  688MOL0     O92804  10.196   3.925   4.098 -0.5853  0.9898  0.1923
  688MOL0     C92805  10.159   3.963   4.231  0.3956  0.5428  1.1850
  688MOL0     C92806  10.089   4.103   4.226 -0.0071 -0.6496  0.1090
  688MOL0     C92807   9.979   4.114   4.118  0.1055  0.7163  0.6746
  688MOL0     C92808   9.867   4.007   4.138 -0.5375 -0.4481 -0.0239
  688MOL0     C92809   9.766   4.007   4.028  0.1769 -0.0876 -0.4252
  688MOL0     C92810   9.703   4.009   3.922  0.3787 -0.0605 -0.9359
  688MOL0     C92811  10.390   4.083   4.072  0.2576 -0.1393 -0.2472
  688MOL0     C92812  10.504   4.118   4.010  0.2808  0.2853 -0.1696
  688MOL0     H92813  10.753   4.024   3.471 -0.5330  0.5548  1.4497
  688MOL0     H92814  10.964   4.074   3.345  0.6827 -0.2883  0.0992
  688MOL0     H92815  11.369   4.197   3.503 -0.5096  1.1833 -1.4270
  688MOL0     H92816  11.318   4.024   3.510 -2.7566  0.6890  2.0264
  688MOL0     H92817  11.350   4.020   3.263 -0.1339 -1.5482  0.1106
  688MOL0     H92818  11.356   4.188   3.251 -1.3024 -1.2332 -0.2728
  688MOL0     H92819  11.561   4.166   3.424  2.5962 -2.0630  0.3963
  688MOL0     H92820  11.566   4.003   3.361 -2.1648 -0.8161  0.0091
  688MOL0     H92821  11.589   4.123   3.120  2.0134  0.1443 -0.6627
  688MOL0     H92822  11.625   4.271   3.217 -1.0863 -0.4382 -3.1395
  688MOL0     H92823  11.813   4.133   3.319 -0.7167 -0.0400 -0.1824
  688MOL0     H92824  11.795   4.009   3.193 -3.0158  0.2124 -2.0170
  688MOL0     H92825  11.837   4.193   3.011  1.2893 -2.0820 -1.5352
  688MOL0     H92826  11.884   4.304   3.133  0.1728 -0.2858  0.0336
  688MOL0     H92827  12.004   4.038   3.047 -0.0074  1.1307 -4.1939
  688MOL0     H92828  12.048   4.198   3.006 -2.3210  1.4400  1.0464
  688MOL0     H92829  12.203   4.110   3.175  2.1340  2.9221  1.3393
  688MOL0     H92830  12.071   4.095   3.299  0.0140 -1.2646 -0.3553
  688MOL0     H92831  11.973   4.357   3.358 -0.8298 -2.7105 -2.6099
  688MOL0     H92832  12.057   4.652   3.362 -0.2180  1.3847  0.8095
  688MOL0     H92833  12.099   4.562   3.515 -0.7152  2.7893  0.6762
  688MOL0     H92834  12.341   4.615   3.468  0.7215  0.5673  0.4659
  688MOL0     H92835  12.231   4.743   3.539  0.3036 -1.2982  1.3819
  688MOL0     H92836  12.306   4.728   3.244  2.6230  1.9492 -2.0277
  688MOL0     H92837  12.406   4.808   3.368  0.5903  0.1936 -0.7453
  688MOL0     H92838  12.218   4.969   3.437  5.3923  1.0784  0.3601
  688MOL0     H92839  12.107   4.885   3.324  0.0521 -0.0027 -0.6977
  688MOL0     H92840  12.300   5.129   3.024 -1.1578  3.5662 -3.1694
  688MOL0     H92841  12.269   5.441   2.940  1.7217 -1.8042 -2.3705
  688MOL0     H92842  12.246   5.278   2.869 -0.1728 -2.5673  2.3585
  688MOL0     H92843  12.114   5.404   2.880  0.8412  0.2917 -0.9897
  688MOL0     H92844  11.802   5.735   3.375  1.8684 -2.3055  0.2222
  688MOL0     H92845  11.625   5.903   3.300  0.6365 -0.1876  0.9146
  688MOL0     H92846  11.400   5.877   3.281 -1.6370 -0.8384 -1.3687
  688MOL0     H92847  11.447   6.040   3.205 -1.1612  0.3949 -1.4626
  688MOL0     H92848  11.255   6.017   3.056  2.0200  2.0014  0.4266
  688MOL0     H92849  11.210   5.869   3.140  0.8256  1.4938 -1.2211
  688MOL0     H92850  11.231   6.023   3.360 -5.4237 -0.7911  2.6997
  688MOL0     H92851  11.088   6.018   3.257 -0.0266  1.9812  0.1014
  688MOL0     H92852  11.282   6.217   3.163 -0.7871 -0.9767 -0.8244
  688MOL0     H92853  11.112   6.231   3.175  0.9523  1.5977  0.7328
  688MOL0     H92854  11.227   6.375   3.329 -0.0766 -0.6134 -2.4257
  688MOL0     H92855  11.297   6.232   3.416  1.8653 -1.1542 -2.7175
  688MOL0     H92856  11.012   6.323   3.413  1.4293  2.6687  2.2391
  688MOL0     H92857  11.059   6.155   3.476 -1.4676  0.1163 -1.4972
  688MOL0     H92858  11.160   6.418   3.564 -0.1671 -1.3164 -1.7667
  688MOL0     H92859  11.183   6.258   3.641 -0.2012 -2.2139  0.7468
  688MOL0     H92860  10.915   6.388   3.626 -2.5586 -3.7973 -2.0409
  688MOL0     H92861  11.021   6.383   3.768  1.9920  2.3975 -1.6422
  688MOL0     H92862  11.565   5.692   2.943  1.7224  3.9777 -1.4441
  688MOL0     H92863  11.756   5.521   3.011 -0.1137 -0.1320  1.4255
  688MOL0     H92864  11.950   5.323   3.327  0.5375  3.4661 -2.0600
  688MOL0     H92865  12.077   5.132   3.391 -1.5499 -1.1358 -0.5892
  688MOL0     H92866  11.182   4.123   3.700 -0.4792  1.0102 -1.3049
  688MOL0     H92867  10.982   4.069   3.834 -1.5154 -2.9170 -1.4415
  688MOL0     H92868  10.544   3.835   3.829  0.3494 -0.3588  2.3096
  688MOL0     H92869  10.321   3.791   3.937 -1.5903  1.4212  0.7373
  688MOL0     H92870  10.083   3.894   4.270 -0.5331  0.6921 -0.2668
  688MOL0     H92871  10.241   3.956   4.302  0.3279  0.7333  1.2848
  688MOL0     H92872  10.159   4.186   4.218 -0.2129 -0.4478  0.3840
  688MOL0     H92873  10.041   4.113   4.324 -0.8314 -1.7091 -0.1656
  688MOL0     H92874  10.027   4.103   4.021 -0.6337 -1.0911  0.4727
  688MOL0     H92875   9.937   4.215   4.120  0.5548  0.9746 -1.1561
  688MOL0     H92876   9.818   4.029   4.233  0.3582 -1.6078  0.7360
  688MOL0     H92877   9.907   3.905   4.139  1.4822  0.3022  0.3464
  688MOL0     H92878   9.666   4.026   3.823 -1.2931  0.2144 -0.3084
  688MOL0     H92879  10.348   4.166   4.129 -0.5138 -0.5299 -0.2305
  688MOL0     H92880  10.535   4.221   4.025 -1.6396  1.1207 -1.5775
  689MOL0     O92881   5.204   0.894   8.524 -0.3322  0.1980  0.3207
  689MOL0     C92882   5.188   0.793   8.456 -0.4068  0.4601  0.2849
  689MOL0     O92883   5.097   0.771   8.351  0.1248 -0.5622 -0.5460
  689MOL0     C92884   4.992   0.856   8.335  0.5447  1.0880 -0.2872
  689MOL0     C92885   4.857   0.830   8.379 -1.1781 -0.1672 -0.6918
  689MOL0     C92886   4.753   0.909   8.366  0.9278 -1.0708 -0.5871
  689MOL0     C92887   4.770   1.044   8.317 -0.3446  0.4166 -0.1028
  689MOL0     O92888   4.677   1.144   8.301 -0.4749 -0.4259 -0.5971
  689MOL0     C92889   4.543   1.097   8.321  0.5096 -0.9675  0.4969
  689MOL0     C92890   4.446   1.212   8.284  0.3497 -0.2615  0.1148
  689MOL0     C92891   4.310   1.165   8.255  0.4921  0.9437  0.6920
  689MOL0     C92892   4.216   1.282   8.221 -1.1250  1.3085  0.0155
  689MOL0     C92893   4.070   1.257   8.199 -1.1895 -0.1928  0.2115
  689MOL0     C92894   3.986   1.384   8.166  0.1801 -0.2119 -0.3273
  689MOL0     C92895   3.840   1.350   8.180 -0.0266  0.0529 -0.1296
  689MOL0     C92896   3.744   1.465   8.167 -0.0329  0.2926  0.3051
  689MOL0     N92897   3.783   1.587   8.243  0.2663  0.3250  0.8055
  689MOL0     C92898   3.720   1.627   8.357  1.3595  0.1835  0.6761
  689MOL0     C92899   3.767   1.753   8.378  0.9455  1.4474 -0.3598
  689MOL0     C92900   3.717   1.840   8.493 -0.6136 -0.4155  1.1853
  689MOL0     C92901   3.740   1.798   8.639  0.2809  0.4341  0.2642
  689MOL0     C92902   3.673   1.905   8.735  0.7263  0.2602  0.2305
  689MOL0     C92903   3.619   1.863   8.866  0.2982 -0.0613 -0.0829
  689MOL0     O92904   3.515   1.762   8.849  0.9514  1.2086  0.1995
  689MOL0     C92905   3.481   1.687   8.956  0.1853 -0.0608  0.6268
  689MOL0     C92906   3.457   1.550   8.927  0.1554 -0.4415  0.2747
  689MOL0     C92907   3.405   1.474   9.034  0.0584 -0.3745  0.8424
  689MOL0     C92908   3.381   1.334   8.993 -0.4951  0.2777 -0.2638
  689MOL0     C92909   3.371   1.529   9.160  0.4518 -0.5502 -0.7859
  689MOL0     C92910   3.313   1.455   9.277  0.5989  0.1074  0.1640
  689MOL0     O92911   3.270   1.526   9.388 -0.0856 -0.1197 -0.9034
  689MOL0     C92912   3.241   1.469   9.508 -0.7410 -0.7322  0.2822
  689MOL0     C92913   3.221   1.571   9.603 -0.8544  0.2289 -0.8892
  689MOL0     C92914   3.181   1.537   9.732  0.9234 -0.2686  0.2149
  689MOL0     C92915   3.148   1.402   9.759  0.5568  0.5893 -0.6326
  689MOL0     O92916   3.115   1.352   9.880 -0.2415  0.5652 -0.2962
  689MOL0     C92917   3.115   1.442   9.993 -0.3165 -0.1751 -0.1287
  689MOL0     C92918   3.072   1.379  10.126  1.0315 -0.4756 -0.0137
  689MOL0     C92919   3.065   1.491  10.236 -0.1132 -0.0673 -0.1765
  689MOL0     C92920   3.099   1.437  10.381 -0.0321  0.2543 -0.1022
  689MOL0     C92921   3.100   1.527  10.498  0.4551  0.1456 -0.5933
  689MOL0     C92922   3.124   1.470  10.634 -0.5939 -0.4141  0.2439
  689MOL0     C92923   3.023   1.357  10.665 -0.8015  0.1679 -0.6671
  689MOL0     C92924   2.994   1.360  10.819 -0.3974  0.5482 -0.4369
  689MOL0    Cl92925   2.885   1.218  10.857 -0.7516 -0.1890  0.6359
  689MOL0     C92926   3.162   1.306   9.664 -0.3508  0.6433 -0.3499
  689MOL0     C92927   3.207   1.341   9.538  0.1835  0.0057 -0.1922
  689MOL0     O92928   3.311   1.335   9.264 -0.3994 -0.2369 -0.1857
  689MOL0     C92929   3.417   1.658   9.180 -0.2463 -0.2257 -0.2473
  689MOL0     C92930   3.465   1.735   9.084  0.7960 -0.3658  1.3798
  689MOL0     N92931   3.868   1.774   8.296  0.0436 -0.2074  0.1593
  689MOL0     N92932   3.876   1.676   8.214 -0.3028 -0.5590  0.4022
  689MOL0     C92933   4.903   1.074   8.271 -0.0353 -0.0974  0.1847
  689MOL0     C92934   5.005   0.981   8.272 -0.3998  0.0122 -0.2201
  689MOL0     C92935   5.276   0.673   8.489 -0.5415  0.1402  0.5820
  689MOL0     C92936   5.334   0.654   8.618  1.3531 -0.3081  0.1419
  689MOL0     C92937   5.446   0.568   8.629 -0.3587  0.0843  0.1841
  689MOL0     C92938   5.486   0.484   8.525 -0.9847  0.0887  0.2484
  689MOL0     O92939   5.609   0.412   8.539  0.5445 -0.9927 -0.0843
  689MOL0     C92940   5.667   0.355   8.425 -0.7698  0.2619  0.6442
  689MOL0     C92941   5.810   0.323   8.462  1.1088 -0.0612 -0.7783
  689MOL0     C92942   5.819   0.213   8.575  1.1975 -1.2298  0.1288
  689MOL0     C92943   5.947   0.139   8.578  0.1344 -0.0585 -0.0574
  689MOL0     C92944   5.958   0.035   8.464 -1.1081 -0.7012  0.5163
  689MOL0     C92945   5.970  -0.036   8.366  0.4166  0.8791 -0.7194
  689MOL0     C92946   5.410   0.488   8.410 -0.3524  0.7878  0.4508
  689MOL0     C92947   5.316   0.583   8.387  0.7511 -0.1084 -0.0443
  689MOL0     H92948   4.827   0.744   8.438 -3.2049  0.3545 -0.8924
  689MOL0     H92949   4.660   0.866   8.402 -0.0979  0.9159 -0.7041
  689MOL0     H92950   4.544   1.005   8.262  0.2941 -0.6517 -0.0015
  689MOL0     H92951   4.528   1.067   8.426 -1.2633  0.0912  0.5838
  689MOL0     H92952   4.446   1.276   8.373 -0.0706  0.4785 -0.4039
  689MOL0     H92953   4.493   1.268   8.203  1.5724  0.1423  1.0789
  689MOL0     H92954   4.311   1.088   8.177 -0.9656 -1.2589  2.7047
  689MOL0     H92955   4.270   1.110   8.341  1.0089 -4.3292 -2.0197
  689MOL0     H92956   4.213   1.351   8.306  0.6643 -0.0130  1.2119
  689MOL0     H92957   4.268   1.339   8.144  2.8968 -2.1626 -0.1675
  689MOL0     H92958   4.059   1.190   8.114 -1.5255  1.2540 -0.9340
  689MOL0     H92959   4.030   1.205   8.286 -1.8258 -1.1066 -0.6091
  689MOL0     H92960   4.017   1.470   8.226  0.3379 -0.5201  0.0396
  689MOL0     H92961   3.998   1.411   8.061 -2.9138  0.0859 -0.6751
  689MOL0     H92962   3.820   1.275   8.102  1.0897 -0.7569  0.3453
  689MOL0     H92963   3.835   1.287   8.269  2.3808 -1.1466 -0.7389
  689MOL0     H92964   3.647   1.428   8.202  0.4563  0.3137  1.7392
  689MOL0     H92965   3.730   1.499   8.064 -1.1750 -1.8300 -0.3093
  689MOL0     H92966   3.648   1.566   8.410 -0.1441  1.4201  0.1455
  689MOL0     H92967   3.767   1.937   8.492  2.2470 -1.7599  2.1913
  689MOL0     H92968   3.613   1.844   8.461 -0.1878 -1.4923 -0.5171
  689MOL0     H92969   3.849   1.785   8.644  0.4146  0.5228 -1.5686
  689MOL0     H92970   3.681   1.708   8.657 -0.2231  0.3134 -1.7600
  689MOL0     H92971   3.592   1.945   8.672 -1.0691 -0.8641  1.7027
  689MOL0     H92972   3.741   1.987   8.758 -2.0872  2.3284  1.9573
  689MOL0     H92973   3.584   1.949   8.924  1.6573  1.0948 -0.9289
  689MOL0     H92974   3.697   1.811   8.923 -0.6399  1.3797  2.7243
  689MOL0     H92975   3.486   1.502   8.834 -1.1993  1.3839 -1.1634
  689MOL0     H92976   3.440   1.276   9.065  0.3257  0.5349 -0.7143
  689MOL0     H92977   3.272   1.323   8.999 -0.2772 -1.3729  3.5026
  689MOL0     H92978   3.420   1.308   8.894 -0.4916  2.5020 -0.9081
  689MOL0     H92979   3.251   1.675   9.594  2.9205 -0.7245 -0.8821
  689MOL0     H92980   3.176   1.614   9.808 -1.5974 -0.2314  0.0985
  689MOL0     H92981   3.218   1.475  10.002 -0.2501  0.0882 -1.5896
  689MOL0     H92982   3.065   1.537   9.977  2.5820  1.3004 -0.9999
  689MOL0     H92983   2.973   1.336  10.107 -0.2156  2.9205 -2.0292
  689MOL0     H92984   3.148   1.304  10.149 -0.8464 -2.3278  0.5133
  689MOL0     H92985   2.968   1.542  10.234 -0.2389 -0.1051 -4.2173
  689MOL0     H92986   3.148   1.554  10.201 -0.2607 -0.8978 -2.1551
  689MOL0     H92987   3.019   1.365  10.398  0.8317 -1.1263 -1.5616
  689MOL0     H92988   3.196   1.388  10.370 -0.6372 -0.8678 -0.5137
  689MOL0     H92989   3.000   1.571  10.501  0.6109  0.6072  3.4415
  689MOL0     H92990   3.170   1.603  10.463  0.1807 -0.6138 -2.9245
  689MOL0     H92991   3.223   1.424  10.641 -0.7962 -0.9141 -0.1271
  689MOL0     H92992   3.112   1.555  10.703  2.6297  0.2059  0.2010
  689MOL0     H92993   3.063   1.262  10.629  0.3959  0.5558 -0.4307
  689MOL0     H92994   2.929   1.385  10.616 -1.1344 -0.7194 -0.5506
  689MOL0     H92995   2.947   1.453  10.852  1.2685  1.0863  0.5239
  689MOL0     H92996   3.087   1.357  10.876 -2.2243  1.3906  2.8232
  689MOL0     H92997   3.122   1.209   9.692  1.0614 -0.4092 -1.8080
  689MOL0     H92998   3.206   1.268   9.458 -1.6573 -3.0034  2.3367
  689MOL0     H92999   3.412   1.694   9.283 -0.3386  0.0906 -0.3623
  689MOL0     H93000   3.490   1.840   9.098 -1.4539  0.3505  0.5121
  689MOL0     H93001   4.927   1.173   8.235  1.0019 -0.5959 -0.5255
  689MOL0     H93002   5.098   1.003   8.222 -0.4652 -1.3336 -0.9830
  689MOL0     H93003   5.300   0.734   8.684  0.9882  1.2133 -1.7775
  689MOL0     H93004   5.504   0.567   8.721  0.2053 -0.3009 -0.1643
  689MOL0     H93005   5.616   0.263   8.394  2.4063 -1.2463 -0.4613
  689MOL0     H93006   5.673   0.418   8.335 -1.1981 -1.9996 -1.0594
  689MOL0     H93007   5.857   0.416   8.494  3.4293 -1.3260 -0.2068
  689MOL0     H93008   5.864   0.290   8.373  0.6279 -2.0015 -0.4160
  689MOL0     H93009   5.740   0.137   8.571  1.1292 -1.2396  1.3286
  689MOL0     H93010   5.810   0.260   8.673  2.0607 -0.5131 -0.1212
  689MOL0     H93011   5.952   0.089   8.676 -4.1429 -0.4270  0.1606
  689MOL0     H93012   6.035   0.203   8.582 -1.5322  2.2927  1.4481
  689MOL0     H93013   5.981  -0.117   8.297  0.9494 -0.4912  0.9241
  689MOL0     H93014   5.447   0.420   8.333 -3.0986 -0.2045 -0.1284
  689MOL0     H93015   5.278   0.603   8.287  0.2432  2.1031  0.5198
  690MOL0     O93016   3.455   2.128   9.191 -0.2020  0.1439  0.0968
  690MOL0     C93017   3.352   2.108   9.123  0.6817 -0.6320 -1.3152
  690MOL0     O93018   3.221   2.105   9.167 -0.0947 -0.2538 -0.8209
  690MOL0     C93019   3.203   2.096   9.303 -0.4959  0.1139  1.2671
  690MOL0     C93020   3.182   2.208   9.380  0.4571 -0.4162  0.0904
  690MOL0     C93021   3.144   2.192   9.514 -0.0970 -0.0733 -0.2923
  690MOL0     C93022   3.145   2.063   9.571 -0.6534 -0.7085  0.3340
  690MOL0     O93023   3.110   2.044   9.701  0.7206  0.1511 -0.3799
  690MOL0     C93024   3.175   1.956   9.787 -0.3215  0.0766  0.0422
  690MOL0     C93025   3.130   1.982   9.922  0.8953 -0.1700 -0.5474
  690MOL0     C93026   3.116   1.847  10.006  0.1830  0.0377 -0.2510
  690MOL0     C93027   3.092   1.879  10.158  0.2789  0.2501 -0.0238
  690MOL0     C93028   3.218   1.942  10.227 -0.4333  0.2470  0.7632
  690MOL0     C93029   3.171   1.972  10.364  0.0502  0.7776  0.4124
  690MOL0     C93030   3.282   2.050  10.442  0.0424  0.6806  0.1613
  690MOL0     C93031   3.229   2.097  10.584 -0.4542  0.2731  0.8700
  690MOL0     N93032   3.337   2.166  10.650 -0.2233  0.0114  0.0892
  690MOL0     C93033   3.373   2.293  10.622 -0.0264  0.3193  0.3178
  690MOL0     C93034   3.466   2.335  10.722  1.1560 -1.0920  0.5709
  690MOL0     C93035   3.536   2.468  10.729  0.1223 -0.9534  0.6301
  690MOL0     C93036   3.654   2.473  10.630  0.1161 -0.5108 -0.2008
  690MOL0     C93037   3.766   2.356  10.642  0.6609  0.2039 -0.3115
  690MOL0     C93038   3.745   2.228  10.552  0.5535 -0.3067  0.0806
  690MOL0     O93039   3.752   2.265  10.410 -0.7051  0.4148 -0.0536
  690MOL0     C93040   3.703   2.188  10.315 -0.0418  0.5748  0.4677
  690MOL0     C93041   3.685   2.253  10.191 -0.6943  0.8259  0.2380
  690MOL0     C93042   3.623   2.190  10.079  0.2753  0.4570  0.8974
  690MOL0     C93043   3.593   2.289   9.973 -0.8328  0.2381  0.9076
  690MOL0     C93044   3.619   2.053  10.084 -0.1913 -0.0695  0.4086
  690MOL0     C93045   3.598   1.970   9.966  0.0555  0.4411  0.4775
  690MOL0     O93046   3.672   1.997   9.857 -0.2322  0.0897 -0.5090
  690MOL0     C93047   3.663   1.925   9.745  0.8580 -0.3430  0.1048
  690MOL0     C93048   3.581   1.966   9.641 -0.9281 -0.7626 -0.1439
  690MOL0     C93049   3.570   1.889   9.520 -0.1620 -0.3556 -1.0291
  690MOL0     C93050   3.656   1.776   9.495 -0.6949  0.0841  0.0333
  690MOL0     O93051   3.679   1.744   9.366 -0.0644 -0.2066  0.0679
  690MOL0     C93052   3.784   1.653   9.340 -0.3462  0.1925 -0.1221
  690MOL0     C93053   3.782   1.583   9.199  0.7125 -0.3165 -0.8548
  690MOL0     C93054   3.905   1.499   9.186 -0.1011  1.2912 -1.0243
  690MOL0     C93055   3.902   1.419   9.052 -0.2288  1.0065 -0.0711
  690MOL0     C93056   3.953   1.508   8.943 -0.6529  0.1409  0.3015
  690MOL0     C93057   3.967   1.422   8.817 -0.2762  0.2552  0.0651
  690MOL0     C93058   3.880   1.461   8.704 -0.5564 -0.0370 -0.3300
  690MOL0     C93059   3.856   1.351   8.601  0.5098 -0.0805 -0.5053
  690MOL0    Cl93060   3.742   1.231   8.678  0.2907 -0.2425 -0.0703
  690MOL0     C93061   3.732   1.736   9.611  0.5191 -0.8797  0.2311
  690MOL0     C93062   3.728   1.813   9.729 -0.6389  0.7948 -0.2410
  690MOL0     O93063   3.519   1.877   9.978  0.1151  0.3604 -0.5998
  690MOL0     C93064   3.630   1.993  10.203  0.3122  0.5210 -1.0081
  690MOL0     C93065   3.662   2.059  10.320 -1.1858 -0.0217  0.3275
  690MOL0     N93066   3.466   2.238  10.809  0.0280 -0.5813  0.3388
  690MOL0     N93067   3.393   2.135  10.767  0.5503 -0.3043  0.1217
  690MOL0     C93068   3.186   1.954   9.488  0.1837  0.6817  0.6329
  690MOL0     C93069   3.209   1.966   9.354 -1.3709  0.3808  0.5170
  690MOL0     C93070   3.359   2.138   8.974  0.3257  0.2547 -0.0794
  690MOL0     C93071   3.464   2.217   8.922 -0.6282  0.1011 -0.6926
  690MOL0     C93072   3.473   2.248   8.786 -0.0478  0.1530 -0.2593
  690MOL0     C93073   3.385   2.205   8.690  0.9542 -0.2547 -0.7159
  690MOL0     O93074   3.392   2.217   8.559 -0.0406 -1.1644 -0.4327
  690MOL0     C93075   3.498   2.305   8.504 -1.1415 -0.3252  0.2515
  690MOL0     C93076   3.474   2.308   8.347 -0.8163 -0.3500 -0.0432
  690MOL0     C93077   3.585   2.235   8.262 -0.0218 -1.0727 -0.2762
  690MOL0     C93078   3.725   2.293   8.280 -1.0894 -0.4733 -0.1483
  690MOL0     C93079   3.834   2.194   8.250  0.5005  0.9237  0.4228
  690MOL0     C93080   3.913   2.110   8.217  0.3191  0.0419  0.6865
  690MOL0     C93081   3.278   2.126   8.745 -0.9115 -1.3888 -0.0536
  690MOL0     C93082   3.257   2.090   8.881 -1.1728 -0.7774 -0.5636
  690MOL0     H93083   3.194   2.300   9.324 -1.5597  0.5778  1.2051
  690MOL0     H93084   3.117   2.272   9.583  3.7061  0.0202  1.3467
  690MOL0     H93085   3.153   1.852   9.762 -0.5334 -0.2096  1.3685
  690MOL0     H93086   3.283   1.975   9.794 -0.4472  0.5960  0.6679
  690MOL0     H93087   3.192   2.057   9.972  1.8446 -2.2257  1.5509
  690MOL0     H93088   3.024   2.010   9.917  0.9692  0.0720 -0.8088
  690MOL0     H93089   3.029   1.788   9.976  0.4811 -0.3544 -0.3430
  690MOL0     H93090   3.208   1.789  10.002  1.5013  2.0533 -0.7614
  690MOL0     H93091   3.014   1.954  10.174  0.0156 -0.0085 -0.0873
  690MOL0     H93092   3.057   1.792  10.213 -2.6975  0.4031 -1.4477
  690MOL0     H93093   3.300   1.874  10.205  0.1749  0.6362  1.7821
  690MOL0     H93094   3.243   2.034  10.174 -3.7004  0.6066 -0.3790
  690MOL0     H93095   3.086   2.040  10.367 -1.5051 -1.1168  0.7679
  690MOL0     H93096   3.155   1.881  10.422 -1.2329 -1.0944 -2.6602
  690MOL0     H93097   3.369   1.983  10.443 -0.9066 -0.6665  3.3845
  690MOL0     H93098   3.318   2.135  10.383  3.5507 -1.9051 -1.9005
  690MOL0     H93099   3.197   2.008  10.639  0.2217  0.9857  2.4821
  690MOL0     H93100   3.141   2.161  10.576 -0.6277 -0.0053  0.5150
  690MOL0     H93101   3.357   2.360  10.538  2.7329 -2.2097 -2.4825
  690MOL0     H93102   3.463   2.547  10.709 -0.4481 -2.1111 -2.5048
  690MOL0     H93103   3.571   2.484  10.832  1.7959  0.7323 -0.1298
  690MOL0     H93104   3.706   2.562  10.665  2.1556 -2.2681  1.5677
  690MOL0     H93105   3.625   2.482  10.525  2.9361  2.4737 -0.8742
  690MOL0     H93106   3.767   2.325  10.747 -3.7105  0.2836 -0.0545
  690MOL0     H93107   3.851   2.410  10.599  0.7465  0.1973 -0.1494
  690MOL0     H93108   3.644   2.194  10.574 -0.5291  2.1571 -0.8266
  690MOL0     H93109   3.816   2.155  10.594  2.0170  1.1082  0.1744
  690MOL0     H93110   3.702   2.360  10.186  2.0685  0.4129 -1.0599
  690MOL0     H93111   3.557   2.388  10.003 -1.8663 -0.0440  0.6621
  690MOL0     H93112   3.684   2.327   9.926 -1.1771  1.0637  0.8750
  690MOL0     H93113   3.529   2.241   9.898 -0.9038 -1.1024  1.7949
  690MOL0     H93114   3.522   2.056   9.654 -1.4583 -0.6953 -2.5620
  690MOL0     H93115   3.526   1.950   9.442 -0.6333 -1.6557 -1.8023
  690MOL0     H93116   3.880   1.703   9.352 -0.1237 -0.6849  2.3099
  690MOL0     H93117   3.781   1.569   9.410 -1.4578 -2.8293 -3.4753
  690MOL0     H93118   3.683   1.536   9.187 -0.2531  1.6741 -1.0940
  690MOL0     H93119   3.789   1.661   9.123  2.5785 -0.4370 -0.8413
  690MOL0     H93120   3.905   1.426   9.268 -1.0511  1.5713 -0.7634
  690MOL0     H93121   4.004   1.540   9.208  0.7149 -1.4832  1.0057
  690MOL0     H93122   3.975   1.337   9.058  1.6899  2.6524  0.3896
  690MOL0     H93123   3.798   1.389   9.042 -1.1474  3.4034  1.4398
  690MOL0     H93124   4.048   1.552   8.976 -1.8976  1.7060  1.9420
  690MOL0     H93125   3.875   1.581   8.919 -1.4172 -0.7896 -0.0903
  690MOL0     H93126   4.074   1.408   8.799 -0.0257  1.3966  0.5658
  690MOL0     H93127   3.934   1.322   8.848 -0.8794  0.4515  0.0631
  690MOL0     H93128   3.933   1.541   8.652 -2.4930  1.0883 -0.6955
  690MOL0     H93129   3.785   1.507   8.732  1.2338  3.5182  0.5727
  690MOL0     H93130   3.955   1.304   8.591  2.9016  3.4294  3.4520
  690MOL0     H93131   3.815   1.373   8.502  1.2798  0.3024 -0.7439
  690MOL0     H93132   3.796   1.648   9.615 -1.3424 -2.6468 -3.5089
  690MOL0     H93133   3.780   1.771   9.814 -3.7215  0.0093  1.3780
  690MOL0     H93134   3.628   1.885  10.209  0.2313  0.4929 -1.5264
  690MOL0     H93135   3.678   2.007  10.414  1.8697  0.4474  0.1887
  690MOL0     H93136   3.184   1.858   9.539  0.2173  0.4790  0.2509
  690MOL0     H93137   3.237   1.881   9.293 -0.5753  2.5353 -2.2849
  690MOL0     H93138   3.535   2.262   8.991  1.6048 -2.6135 -1.0092
  690MOL0     H93139   3.555   2.315   8.762 -1.5817  4.7765  5.1413
  690MOL0     H93140   3.507   2.401   8.555  2.1760 -1.0922  1.3407
  690MOL0     H93141   3.586   2.243   8.523  0.7693  1.0277 -3.2617
  690MOL0     H93142   3.473   2.413   8.315  1.7277  1.0039  3.5519
  690MOL0     H93143   3.378   2.264   8.321 -0.4553  0.5365 -3.3664
  690MOL0     H93144   3.562   2.254   8.157 -0.0699 -0.0639 -0.0939
  690MOL0     H93145   3.589   2.125   8.267  3.6167 -1.0402  0.6480
  690MOL0     H93146   3.735   2.324   8.384 -0.4730  0.0166 -0.3500
  690MOL0     H93147   3.747   2.384   8.223 -1.3245 -0.3300 -0.0147
  690MOL0     H93148   3.975   2.035   8.172  0.8808  0.0139  1.5073
  690MOL0     H93149   3.194   2.083   8.692 -1.5843 -1.1845  0.8102
  690MOL0     H93150   3.190   2.015   8.921 -1.1800  0.0858  1.1443
  691MOL0     O93151   2.968   5.168   3.825 -1.3916  0.0946  0.7397
  691MOL0     C93152   2.924   5.247   3.743  0.1981  0.2930  0.4918
  691MOL0     O93153   2.917   5.232   3.611 -0.1468  0.1581  0.3911
  691MOL0     C93154   2.918   5.112   3.540  0.1791 -0.4914  0.3002
  691MOL0     C93155   2.884   5.129   3.404  0.9210  0.4666  0.3563
  691MOL0     C93156   2.892   5.021   3.314 -0.6455 -0.2998  0.4966
  691MOL0     C93157   2.932   4.897   3.352 -0.8125  0.8654 -0.0380
  691MOL0     O93158   2.963   4.804   3.254 -0.0457 -0.3949 -0.2175
  691MOL0     C93159   3.049   4.692   3.287 -0.4193  0.5631  0.1624
  691MOL0     C93160   3.120   4.634   3.157 -0.8211 -0.4320 -0.2370
  691MOL0     C93161   3.067   4.688   3.020  0.2260 -0.6599 -0.3368
  691MOL0     C93162   3.099   4.608   2.901 -0.4658  0.0620 -0.0078
  691MOL0     C93163   3.086   4.693   2.773 -0.1082  0.5744 -0.5711
  691MOL0     C93164   3.083   4.608   2.649 -0.0982  0.3552  0.3350
  691MOL0     C93165   2.945   4.561   2.608 -0.1140  0.2352  0.4312
  691MOL0     C93166   2.949   4.516   2.464 -0.3334 -0.5396  0.5379
  691MOL0     N93167   2.820   4.476   2.412 -0.1244 -0.4469  0.7469
  691MOL0     C93168   2.797   4.344   2.385 -0.5329 -0.0915 -0.2283
  691MOL0     C93169   2.710   4.335   2.289 -0.1595  0.6034  0.4709
  691MOL0     C93170   2.638   4.215   2.247 -0.4251 -0.7513 -0.4631
  691MOL0     C93171   2.512   4.236   2.162 -0.2964  0.9816 -0.6213
  691MOL0     C93172   2.523   4.235   2.017 -0.3179  0.2196 -0.0372
  691MOL0     C93173   2.540   4.092   1.952  0.5545  0.7711  0.0254
  691MOL0     O93174   2.610   4.104   1.823 -0.2366 -0.2757  0.3377
  691MOL0     C93175   2.550   4.125   1.704  0.3772  0.0433  0.7984
  691MOL0     C93176   2.633   4.172   1.607 -0.2008 -0.7513  0.1163
  691MOL0     C93177   2.604   4.172   1.471  0.1761 -0.6535  0.1446
  691MOL0     C93178   2.695   4.211   1.368  0.3588 -0.0252 -0.1845
  691MOL0     C93179   2.474   4.149   1.424  0.2095  0.4228 -0.6667
  691MOL0     C93180   2.425   4.135   1.288  0.1686 -0.5918  0.8236
  691MOL0     O93181   2.502   4.068   1.184 -0.8748  0.3004 -0.0698
  691MOL0     C93182   2.449   4.066   1.063  0.3551 -0.1511 -0.5015
  691MOL0     C93183   2.507   4.126   0.953 -0.3424  0.4683 -1.1886
  691MOL0     C93184   2.451   4.121   0.824 -0.1913  0.1650 -0.7778
  691MOL0     C93185   2.334   4.042   0.803  0.6862  0.4235 -0.3765
  691MOL0     O93186   2.277   4.050   0.675  0.3831 -0.0181 -0.5011
  691MOL0     C93187   2.137   4.016   0.644 -0.1556 -0.6378  0.0676
  691MOL0     C93188   2.134   4.011   0.493 -1.3574  0.4835  0.8564
  691MOL0     C93189   2.222   3.901   0.425 -0.3951 -0.4489  0.1339
  691MOL0     C93190   2.188   3.865   0.281 -0.6565  0.2659  0.6209
  691MOL0     C93191   2.255   3.727   0.247  0.2581 -0.1605  0.6613
  691MOL0     C93192   2.409   3.715   0.226  0.6215  0.3264  0.9853
  691MOL0     C93193   2.443   3.574   0.181  1.0066 -0.5597  0.1374
  691MOL0     C93194   2.414   3.472   0.288  0.1873 -0.4843 -0.1673
  691MOL0    Cl93195   2.509   3.342   0.231 -0.5168  0.3815 -0.0795
  691MOL0     C93196   2.268   3.981   0.919  0.9479 -0.8908 -0.2485
  691MOL0     C93197   2.332   3.990   1.046  0.8140 -0.0548 -0.4516
  691MOL0     O93198   2.311   4.186   1.285 -0.9573  0.3971 -0.5778
  691MOL0     C93199   2.388   4.108   1.526 -0.3038 -1.0317 -0.3118
  691MOL0     C93200   2.414   4.098   1.668  0.6385 -0.5147  0.8389
  691MOL0     N93201   2.684   4.466   2.262  1.1031 -0.7620  0.9625
  691MOL0     N93202   2.742   4.555   2.341 -0.1741  0.1905  0.2202
  691MOL0     C93203   2.955   4.873   3.487 -0.1461 -0.9063 -0.5165
  691MOL0     C93204   2.955   4.984   3.581  0.1527 -0.2008 -0.4219
  691MOL0     C93205   2.859   5.367   3.799 -0.5577  0.6879 -0.1519
  691MOL0     C93206   2.843   5.476   3.720 -0.0538  0.0309  0.2021
  691MOL0     C93207   2.767   5.586   3.760 -0.8583 -0.3425  0.1777
  691MOL0     C93208   2.694   5.589   3.880  0.0114  0.3852 -0.5462
  691MOL0     O93209   2.622   5.704   3.898  0.7894  0.0300 -0.1793
  691MOL0     C93210   2.550   5.718   4.021 -0.8613  0.2477  0.0478
  691MOL0     C93211   2.457   5.834   3.993  0.0881 -1.3045  0.3098
  691MOL0     C93212   2.533   5.973   3.968 -1.1184  0.4281 -0.2079
  691MOL0     C93213   2.595   6.002   3.837 -0.9691 -0.6558 -0.2260
  691MOL0     C93214   2.503   5.979   3.724 -0.3374 -0.5266 -0.1701
  691MOL0     C93215   2.419   5.940   3.648  0.0686  0.3851 -0.9492
  691MOL0     C93216   2.711   5.474   3.958  0.9523  0.4096  0.0052
  691MOL0     C93217   2.794   5.365   3.919 -0.4074  0.2950  0.8905
  691MOL0     H93218   2.833   5.218   3.368  0.4045  1.3548  3.0175
  691MOL0     H93219   2.863   5.044   3.212 -1.5811  1.0070  1.0346
  691MOL0     H93220   3.119   4.720   3.366  1.3417  2.2768 -1.8763
  691MOL0     H93221   2.987   4.610   3.323 -4.5824  2.9880 -0.7791
  691MOL0     H93222   3.224   4.667   3.161 -0.2152 -2.1691 -0.6923
  691MOL0     H93223   3.114   4.525   3.147 -1.0145 -0.2292 -3.2808
  691MOL0     H93224   2.958   4.694   3.033  0.5647  0.6104  2.6679
  691MOL0     H93225   3.096   4.792   3.007 -0.4169 -0.3740  0.4412
  691MOL0     H93226   3.201   4.571   2.913 -0.2726 -0.0951 -1.8389
  691MOL0     H93227   3.034   4.520   2.902 -1.4688  0.6618  3.7890
  691MOL0     H93228   2.998   4.755   2.788  2.2637  3.6032  2.5150
  691MOL0     H93229   3.174   4.758   2.771  0.9224 -0.7673 -0.7222
  691MOL0     H93230   3.123   4.664   2.564  3.0095 -0.4316  1.1437
  691MOL0     H93231   3.145   4.519   2.665 -0.2022  0.5580  2.1125
  691MOL0     H93232   2.904   4.478   2.665 -4.6159 -2.9302 -6.2095
  691MOL0     H93233   2.879   4.647   2.623 -1.7047 -0.6020 -1.3970
  691MOL0     H93234   3.019   4.432   2.456  0.4539 -0.0120  1.5327
  691MOL0     H93235   2.982   4.602   2.405  0.0530  0.7222  2.4817
  691MOL0     H93236   2.826   4.251   2.432 -3.2193 -0.3507  1.0861
  691MOL0     H93237   2.709   4.151   2.193 -0.3756 -1.5117  0.4584
  691MOL0     H93238   2.601   4.165   2.338 -1.3781 -1.2150 -1.0829
  691MOL0     H93239   2.470   4.328   2.203 -1.7946 -0.4919  1.3672
  691MOL0     H93240   2.441   4.154   2.179  0.9844  0.0250  0.3722
  691MOL0     H93241   2.614   4.292   1.993  0.2404 -1.0897 -1.1590
  691MOL0     H93242   2.436   4.282   1.970  1.1401  1.8550 -1.2804
  691MOL0     H93243   2.448   4.036   1.934  0.5574  0.8615 -0.2698
  691MOL0     H93244   2.604   4.031   2.018  1.2602 -0.9352 -2.1130
  691MOL0     H93245   2.731   4.206   1.641  0.4030 -0.1862 -2.0196
  691MOL0     H93246   2.712   4.113   1.324 -0.3911 -0.0067 -0.5359
  691MOL0     H93247   2.663   4.290   1.299  1.2943  1.5419  1.0967
  691MOL0     H93248   2.795   4.244   1.398 -0.5209  2.1273  0.6285
  691MOL0     H93249   2.596   4.185   0.973 -1.4712  2.1572 -0.8798
  691MOL0     H93250   2.507   4.164   0.742 -0.7714  2.1196 -0.2019
  691MOL0     H93251   2.098   3.922   0.685  0.2821  0.2623  2.7494
  691MOL0     H93252   2.077   4.102   0.673  0.0982  0.3095 -2.0534
  691MOL0     H93253   2.029   3.983   0.478 -0.8102 -0.2206 -2.4378
  691MOL0     H93254   2.161   4.107   0.450  0.8300  0.0498  1.1696
  691MOL0     H93255   2.213   3.808   0.482 -2.0229  0.2431  1.0578
  691MOL0     H93256   2.325   3.936   0.441 -1.5479  3.2478  0.4267
  691MOL0     H93257   2.084   3.832   0.275 -0.9570  1.0092  1.5471
  691MOL0     H93258   2.201   3.947   0.210 -0.5467 -2.1282 -2.3164
  691MOL0     H93259   2.195   3.703   0.159 -0.4674 -2.4553  1.7115
  691MOL0     H93260   2.220   3.649   0.315  0.1559 -1.8395 -1.2484
  691MOL0     H93261   2.440   3.780   0.144 -0.7676  1.0690  1.0287
  691MOL0     H93262   2.457   3.746   0.320 -3.1932  0.1867  3.1663
  691MOL0     H93263   2.548   3.565   0.152  0.8575  0.5686 -0.8498
  691MOL0     H93264   2.380   3.560   0.092 -1.7602  2.9770  1.3084
  691MOL0     H93265   2.307   3.450   0.294 -0.4082  2.1894  0.2533
  691MOL0     H93266   2.456   3.501   0.385 -1.2424 -1.8578  0.9274
  691MOL0     H93267   2.175   3.929   0.900  1.9229 -2.1288 -1.8658
  691MOL0     H93268   2.300   3.930   1.131  0.8934 -1.0628 -1.1131
  691MOL0     H93269   2.286   4.078   1.501 -1.1778  2.7946 -2.1477
  691MOL0     H93270   2.351   4.060   1.747  1.5936  0.5045  2.1342
  691MOL0     H93271   2.972   4.774   3.526 -0.4957 -0.5909  0.4792
  691MOL0     H93272   2.986   4.976   3.684 -3.6287 -1.0413  0.8302
  691MOL0     H93273   2.896   5.481   3.625  1.5120 -1.2483  0.9575
  691MOL0     H93274   2.770   5.663   3.684 -0.1779 -0.9233 -0.3893
  691MOL0     H93275   2.486   5.632   4.043 -1.0301  1.2825  4.4554
  691MOL0     H93276   2.616   5.731   4.107  0.6412  1.9052 -1.2798
  691MOL0     H93277   2.389   5.844   4.078 -2.3547  0.9050 -1.6969
  691MOL0     H93278   2.386   5.819   3.911  1.0184  1.4579 -1.1356
  691MOL0     H93279   2.600   5.991   4.053 -1.1806 -1.1823  0.2035
  691MOL0     H93280   2.451   6.046   3.966  0.6266  2.5055 -0.5980
  691MOL0     H93281   2.681   5.939   3.812  0.9833  2.9698 -3.9015
  691MOL0     H93282   2.635   6.104   3.846  2.9645 -2.0459  0.3010
  691MOL0     H93283   2.342   5.915   3.578 -0.8352 -0.3403  0.2622
  691MOL0     H93284   2.651   5.460   4.048  1.6764  3.3459  1.0726
  691MOL0     H93285   2.791   5.276   3.981  0.6186 -0.1917  0.2599
  692MOL0     O93286   2.137   7.069   1.455 -0.2824  0.0201  0.5703
  692MOL0     C93287   2.162   7.170   1.389  0.1863 -0.6709  0.0624
  692MOL0     O93288   2.150   7.306   1.437  0.0896 -0.1158  1.4608
  692MOL0     C93289   2.136   7.335   1.570  0.3343 -0.7891  0.0606
  692MOL0     C93290   2.199   7.265   1.671  0.5980 -0.2505  0.3399
  692MOL0     C93291   2.180   7.301   1.807  0.3716 -0.4112  0.4076
  692MOL0     C93292   2.098   7.409   1.849  0.3771  0.6817 -0.8087
  692MOL0     O93293   2.074   7.443   1.979 -0.6328 -0.1807  0.3650
  692MOL0     C93294   2.175   7.402   2.080  0.5735  0.3497 -0.9309
  692MOL0     C93295   2.152   7.453   2.218  0.9077  0.3346  1.3086
  692MOL0     C93296   2.253   7.397   2.313 -0.3114 -0.1738  1.0658
  692MOL0     C93297   2.228   7.446   2.457  0.0489  0.9911  0.0427
  692MOL0     C93298   2.306   7.364   2.558 -0.6048  0.4693  0.2662
  692MOL0     C93299   2.460   7.392   2.562 -0.0065  0.3683  0.0974
  692MOL0     C93300   2.530   7.313   2.678 -0.7394  0.0496  0.8226
  692MOL0     C93301   2.641   7.377   2.762 -0.3920 -0.3357 -0.7301
  692MOL0     N93302   2.734   7.287   2.845  0.0388 -0.9005  0.4759
  692MOL0     C93303   2.767   7.300   2.985 -0.4927 -0.3315  0.3551
  692MOL0     C93304   2.888   7.233   3.001  0.0614 -0.3284  0.3638
  692MOL0     C93305   2.972   7.221   3.124  1.2856 -0.8480  0.0371
  692MOL0     C93306   2.997   7.076   3.173  0.0069 -0.5843  0.0928
  692MOL0     C93307   3.105   7.013   3.083  0.4711  0.2761 -0.0695
  692MOL0     C93308   3.190   6.897   3.142  0.8249 -0.8503 -0.4342
  692MOL0     O93309   3.099   6.798   3.195 -0.8781 -0.3751 -0.2379
  692MOL0     C93310   3.146   6.675   3.236  0.2512 -0.0113 -0.7039
  692MOL0     C93311   3.059   6.593   3.310  0.4602 -0.4918 -0.0653
  692MOL0     C93312   3.096   6.477   3.378 -0.0071 -0.3956  0.4516
  692MOL0     C93313   2.996   6.395   3.428  0.7439 -0.5047  0.2470
  692MOL0     C93314   3.233   6.438   3.375 -0.0675  1.0317  0.2614
  692MOL0     C93315   3.295   6.321   3.449 -0.0830  0.0923 -0.0401
  692MOL0     O93316   3.432   6.324   3.449 -0.0047  1.0905 -0.5313
  692MOL0     C93317   3.491   6.223   3.518 -0.7542  0.2345  0.1674
  692MOL0     C93318   3.502   6.239   3.661 -0.9853 -0.4528 -0.6311
  692MOL0     C93319   3.578   6.146   3.738  0.1272  0.7801 -0.3617
  692MOL0     C93320   3.641   6.043   3.669  0.9092 -0.6709 -0.3810
  692MOL0     O93321   3.707   5.955   3.743  0.7347 -0.0555 -0.2343
  692MOL0     C93322   3.839   5.936   3.706  0.1557 -0.2917 -0.5051
  692MOL0     C93323   3.904   5.852   3.824  0.3630  0.5936 -0.4352
  692MOL0     C93324   3.848   5.907   3.968 -0.6514  0.5092  0.6556
  692MOL0     C93325   3.970   5.896   4.070 -0.3500  0.4190 -0.3639
  692MOL0     C93326   3.937   5.981   4.186 -0.5517 -0.4986  0.7365
  692MOL0     C93327   4.025   5.940   4.298  0.2115 -0.2308 -1.8818
  692MOL0     C93328   3.986   5.943   4.456 -0.9023 -0.0881  0.3854
  692MOL0     C93329   4.073   6.046   4.536 -0.5828 -0.4034  0.5429
  692MOL0    Cl93330   4.055   6.021   4.717  0.1844  0.0780  0.4328
  692MOL0     C93331   3.621   6.022   3.526  0.5366  0.2929  0.3638
  692MOL0     C93332   3.541   6.102   3.454  0.7579  0.1028 -0.3985
  692MOL0     O93333   3.223   6.239   3.503 -0.0775  0.4880  0.4589
  692MOL0     C93334   3.321   6.521   3.301  0.3996 -0.2923  0.2891
  692MOL0     C93335   3.280   6.639   3.240 -0.0990 -0.5519  0.0401
  692MOL0     N93336   2.921   7.177   2.879 -0.2031  0.0921 -0.7221
  692MOL0     N93337   2.833   7.213   2.786 -0.5061 -0.0885 -0.6338
  692MOL0     C93338   2.046   7.490   1.741 -0.3294  0.2247 -0.4100
  692MOL0     C93339   2.061   7.442   1.613  0.9777  0.8124 -0.2528
  692MOL0     C93340   2.190   7.159   1.246 -0.6474 -0.0549  0.1169
  692MOL0     C93341   2.170   7.036   1.186  0.2861 -1.2242 -1.0541
  692MOL0     C93342   2.200   7.022   1.051  0.8305 -0.9585  0.0364
  692MOL0     C93343   2.251   7.123   0.976  0.3721 -0.6786 -0.0287
  692MOL0     O93344   2.267   7.116   0.838 -0.0581  0.7744 -0.5333
  692MOL0     C93345   2.149   7.094   0.770  1.1033  0.0875 -0.3341
  692MOL0     C93346   2.173   7.045   0.623 -0.8289  0.2523 -0.3900
  692MOL0     C93347   2.061   7.076   0.523 -0.1763 -1.2811  0.2747
  692MOL0     C93348   1.951   6.969   0.531  0.1227 -0.5270 -0.6784
  692MOL0     C93349   1.856   6.997   0.412 -0.2386 -0.1302  0.1571
  692MOL0     C93350   1.773   7.025   0.324 -0.7625 -0.3208 -1.1663
  692MOL0     C93351   2.272   7.241   1.037  0.7239  0.3355  0.3686
  692MOL0     C93352   2.253   7.262   1.171 -0.3665  0.1527 -0.0752
  692MOL0     H93353   2.257   7.176   1.654 -0.2055 -0.7078 -0.0783
  692MOL0     H93354   2.231   7.237   1.879  1.1725 -1.0038 -0.6549
  692MOL0     H93355   2.181   7.293   2.085 -3.4518 -0.1263 -2.3640
  692MOL0     H93356   2.270   7.444   2.046  0.8450 -1.4451 -2.6273
  692MOL0     H93357   2.159   7.561   2.231 -5.1903  0.9327  2.7614
  692MOL0     H93358   2.056   7.418   2.258  0.3885  3.6872  3.3371
  692MOL0     H93359   2.251   7.288   2.305  2.0562 -0.1289 -1.0695
  692MOL0     H93360   2.350   7.424   2.272 -1.3787 -1.0916 -2.3575
  692MOL0     H93361   2.252   7.552   2.458 -0.8849  1.2126  0.8429
  692MOL0     H93362   2.123   7.425   2.479 -0.1417 -0.2518 -1.8871
  692MOL0     H93363   2.260   7.386   2.656 -0.6108 -0.4556  0.4758
  692MOL0     H93364   2.283   7.259   2.543 -0.1318  0.4059  0.0013
  692MOL0     H93365   2.493   7.368   2.461 -0.0436 -1.3810  0.4785
  692MOL0     H93366   2.482   7.497   2.582 -0.5923 -0.0894  3.7939
  692MOL0     H93367   2.461   7.265   2.748 -3.3122  0.9982 -0.9248
  692MOL0     H93368   2.572   7.225   2.628 -1.8983 -0.8903  1.4536
  692MOL0     H93369   2.582   7.431   2.838  0.2276 -1.7120  0.7722
  692MOL0     H93370   2.703   7.454   2.715  2.2769 -0.7102  1.8965
  692MOL0     H93371   2.724   7.357   3.067 -1.2999 -0.4795  0.0441
  692MOL0     H93372   3.065   7.278   3.120 -0.4819  2.1452 -2.1120
  692MOL0     H93373   2.903   7.272   3.191  0.0675 -2.0448 -0.2611
  692MOL0     H93374   2.902   7.026   3.193 -0.5526 -0.0029 -1.0101
  692MOL0     H93375   3.052   7.089   3.267  1.8814  1.3333 -1.1757
  692MOL0     H93376   3.175   7.085   3.040  1.0700  1.1872  2.2491
  692MOL0     H93377   3.047   6.976   2.999  0.5130  1.6831 -0.7460
  692MOL0     H93378   3.265   6.933   3.213  2.5080  0.3555 -2.6805
  692MOL0     H93379   3.246   6.860   3.055  1.3904  1.0705 -0.9523
  692MOL0     H93380   2.961   6.637   3.319  1.4878  2.5642 -2.2171
  692MOL0     H93381   2.901   6.447   3.413  2.3567  2.5960 -0.0379
  692MOL0     H93382   3.016   6.306   3.368  0.7984 -0.9671  0.9409
  692MOL0     H93383   3.001   6.387   3.537 -3.0536 -2.6542  0.4237
  692MOL0     H93384   3.454   6.327   3.704  1.2526  2.0529 -2.8325
  692MOL0     H93385   3.607   6.166   3.841 -0.4333  0.1357 -0.0735
  692MOL0     H93386   3.853   5.886   3.609  0.9906 -1.6948  0.2932
  692MOL0     H93387   3.890   6.032   3.707  1.4796 -0.9696 -0.2314
  692MOL0     H93388   3.868   5.750   3.807  0.2939  0.8954 -2.3827
  692MOL0     H93389   4.013   5.853   3.816  0.4755  4.8299 -0.7330
  692MOL0     H93390   3.762   5.856   4.012  0.2469 -3.2708 -1.5048
  692MOL0     H93391   3.819   6.012   3.964  1.8749  1.2445 -1.1689
  692MOL0     H93392   3.998   5.791   4.086 -0.4407 -0.0874 -3.0012
  692MOL0     H93393   4.060   5.932   4.018 -0.4738  0.1085 -0.8051
  692MOL0     H93394   3.832   5.972   4.214 -0.5197  0.6001  1.2541
  692MOL0     H93395   3.959   6.086   4.162 -1.8901 -0.4381 -0.3661
  692MOL0     H93396   4.063   5.839   4.283  0.5127 -0.3185 -0.6780
  692MOL0     H93397   4.111   6.006   4.286  0.2184 -0.0121 -0.7347
  692MOL0     H93398   4.002   5.842   4.494 -0.8285 -0.7163 -1.2156
  692MOL0     H93399   3.885   5.978   4.479  0.8342  2.6878  5.1822
  692MOL0     H93400   4.031   6.145   4.515 -3.5292 -2.0488 -2.1754
  692MOL0     H93401   4.176   6.038   4.500 -0.2482  1.5136  0.9409
  692MOL0     H93402   3.650   5.928   3.481 -2.2145  0.3052 -1.6811
  692MOL0     H93403   3.519   6.089   3.349 -2.0507 -0.2222  0.1276
  692MOL0     H93404   3.427   6.500   3.295  0.7122  1.0775  0.6948
  692MOL0     H93405   3.351   6.706   3.193 -2.2667 -0.8164 -3.9988
  692MOL0     H93406   1.992   7.582   1.762  0.5566  0.8510 -0.8343
  692MOL0     H93407   2.015   7.502   1.535  1.6003  0.9586 -0.5122
  692MOL0     H93408   2.136   6.948   1.241 -2.3893 -0.6009 -1.5865
  692MOL0     H93409   2.170   6.928   1.006 -1.3649 -2.1701  3.5795
  692MOL0     H93410   2.084   7.021   0.818  2.1627  1.5415  3.7012
  692MOL0     H93411   2.111   7.194   0.791 -0.4342 -0.6381  0.4381
  692MOL0     H93412   2.201   6.939   0.629  1.5220  0.9276  2.8131
  692MOL0     H93413   2.254   7.106   0.582 -1.3240  1.4228  0.3181
  692MOL0     H93414   2.112   7.074   0.427  2.0204  3.4291  1.0650
  692MOL0     H93415   2.017   7.176   0.524  2.3415 -0.0056 -2.4400
  692MOL0     H93416   1.892   6.992   0.620  3.1710 -0.1716  1.4237
  692MOL0     H93417   1.991   6.868   0.528  1.4258 -0.0193 -1.0969
  692MOL0     H93418   1.693   7.042   0.255 -2.4915 -0.7618  0.6667
  692MOL0     H93419   2.293   7.324   0.971  0.2148  1.4365  1.5488
  692MOL0     H93420   2.289   7.357   1.208  1.0000 -0.8358  1.2369
  693MOL0     O93421   3.134   5.187   2.152 -0.0576 -0.2560  0.1640
  693MOL0     C93422   3.201   5.273   2.206 -0.1024 -0.1347  0.2027
  693MOL0     O93423   3.330   5.304   2.167  0.1057 -0.8966 -0.2286
  693MOL0     C93424   3.384   5.233   2.068  0.8229  1.2781 -0.3646
  693MOL0     C93425   3.488   5.144   2.093  0.0719  0.0680  0.8826
  693MOL0     C93426   3.543   5.071   1.990  0.1507  0.2108  0.7066
  693MOL0     C93427   3.491   5.080   1.859 -0.6898  0.1521  1.2205
  693MOL0     O93428   3.559   5.042   1.746  1.3474  0.8527  0.1830
  693MOL0     C93429   3.657   4.943   1.730 -0.2762 -0.0413 -0.2352
  693MOL0     C93430   3.613   4.802   1.747  0.4266 -0.3802  0.0153
  693MOL0     C93431   3.738   4.707   1.726 -0.0612 -0.3502  0.6599
  693MOL0     C93432   3.703   4.569   1.707  0.7394  0.8134 -0.1938
  693MOL0     C93433   3.837   4.490   1.721  0.0777  0.0298  0.1827
  693MOL0     C93434   3.829   4.363   1.810 -0.6033 -0.2279 -0.0197
  693MOL0     C93435   3.945   4.265   1.796 -0.7394  0.0443 -0.0272
  693MOL0     C93436   4.082   4.338   1.814  0.5815  0.4903 -0.0507
  693MOL0     N93437   4.101   4.384   1.952  0.1598  0.2493 -0.1449
  693MOL0     C93438   4.097   4.295   2.057  0.3619  0.6492 -0.0768
  693MOL0     C93439   4.151   4.364   2.162  0.4702 -0.2794 -0.1232
  693MOL0     C93440   4.157   4.299   2.299 -0.3435 -0.2390 -0.2265
  693MOL0     C93441   4.024   4.300   2.365 -0.1560  0.1350  0.6614
  693MOL0     C93442   3.908   4.232   2.288  0.2325  0.4465  0.3965
  693MOL0     C93443   3.802   4.187   2.371 -0.2581  0.6735 -1.0658
  693MOL0     O93444   3.713   4.085   2.309  0.3424 -0.9048  0.0993
  693MOL0     C93445   3.653   4.112   2.187 -0.1432  0.2157  0.2824
  693MOL0     C93446   3.641   4.008   2.093  0.4961  0.2743  0.2042
  693MOL0     C93447   3.560   4.012   1.980  1.1670  0.7419 -0.1085
  693MOL0     C93448   3.542   3.883   1.896  0.6033 -0.3256  0.5251
  693MOL0     C93449   3.503   4.136   1.941 -0.4306 -0.0083  0.6048
  693MOL0     C93450   3.428   4.168   1.810 -0.7522  0.2696  0.6297
  693MOL0     O93451   3.348   4.286   1.795 -0.5088  0.0775 -0.0932
  693MOL0     C93452   3.271   4.297   1.688 -0.5515 -0.9048 -0.7955
  693MOL0     C93453   3.140   4.247   1.687 -0.1199 -0.1576  0.2104
  693MOL0     C93454   3.060   4.270   1.568 -0.1774  0.1821 -0.0410
  693MOL0     C93455   3.106   4.343   1.459  0.1788 -0.3730  0.0165
  693MOL0     O93456   3.023   4.354   1.340  0.8087 -0.1597  0.3250
  693MOL0     C93457   3.040   4.460   1.242  0.5750 -0.2721  0.3234
  693MOL0     C93458   2.973   4.593   1.278  0.3286  0.4794 -0.2078
  693MOL0     C93459   2.823   4.588   1.313 -0.2835 -0.1546  0.1614
  693MOL0     C93460   2.738   4.540   1.193 -0.6412 -0.0633  0.3835
  693MOL0     C93461   2.594   4.540   1.204  1.2074  0.6121  0.7237
  693MOL0     C93462   2.524   4.451   1.093  0.1080 -0.6285  0.3557
  693MOL0     C93463   2.371   4.476   1.103  0.2771  0.7735 -0.8158
  693MOL0     C93464   2.287   4.452   0.979  0.6300 -0.1572  0.9995
  693MOL0    Cl93465   2.113   4.486   0.990  0.5036 -0.0862  0.0289
  693MOL0     C93466   3.234   4.399   1.464 -0.3714  0.2295  0.3509
  693MOL0     C93467   3.321   4.377   1.574  0.2960 -0.0883  0.0030
  693MOL0     O93468   3.438   4.081   1.722  0.2026 -0.1875 -0.2591
  693MOL0     C93469   3.518   4.247   2.021  1.2974 -0.1814  0.2781
  693MOL0     C93470   3.584   4.225   2.150  0.4714 -0.1275  0.4615
  693MOL0     N93471   4.174   4.489   2.112 -0.6345  0.1070 -0.5168
  693MOL0     N93472   4.154   4.499   1.991 -0.1461  0.6746 -0.4634
  693MOL0     C93473   3.384   5.169   1.839 -0.2207 -0.7694  0.1382
  693MOL0     C93474   3.338   5.251   1.938 -0.0795  0.3114 -0.1677
  693MOL0     C93475   3.136   5.353   2.315 -0.2621 -0.1213  0.3050
  693MOL0     C93476   3.065   5.276   2.418  0.2658 -0.4534 -0.9443
  693MOL0     C93477   3.038   5.343   2.536  0.5291 -0.3589  1.0493
  693MOL0     C93478   3.061   5.480   2.559  0.3086  0.4551  0.3311
  693MOL0     O93479   3.031   5.547   2.678  0.3672 -0.0914 -0.2927
  693MOL0     C93480   3.022   5.473   2.801 -0.3482 -1.0440 -0.0258
  693MOL0     C93481   3.154   5.416   2.840  0.1162 -0.2508  0.5889
  693MOL0     C93482   3.116   5.287   2.927  0.4422 -0.5605  1.8960
  693MOL0     C93483   3.232   5.190   2.934 -0.4573  0.0480  0.8522
  693MOL0     C93484   3.273   5.116   2.817  0.5259 -0.0636 -0.2413
  693MOL0     C93485   3.311   5.054   2.715  0.0089 -0.5165  0.4063
  693MOL0     C93486   3.106   5.557   2.447 -0.1042 -0.5734  0.4934
  693MOL0     C93487   3.154   5.486   2.329 -0.0960 -1.0993  0.7801
  693MOL0     H93488   3.519   5.139   2.196 -0.0764  0.3197  0.9404
  693MOL0     H93489   3.629   5.008   2.009  0.1102 -0.3227 -0.7542
  693MOL0     H93490   3.707   4.939   1.632  3.7896 -2.2042  1.6624
  693MOL0     H93491   3.735   4.973   1.800  2.2056  0.7722 -3.1281
  693MOL0     H93492   3.571   4.789   1.847 -2.8583  0.0908 -1.1696
  693MOL0     H93493   3.524   4.781   1.687  0.7212 -0.3857 -0.4316
  693MOL0     H93494   3.791   4.740   1.636 -2.5392  1.8407 -0.0885
  693MOL0     H93495   3.805   4.719   1.811 -2.9597 -1.8153  3.3360
  693MOL0     H93496   3.625   4.541   1.779 -2.2799  3.0068 -2.3397
  693MOL0     H93497   3.657   4.565   1.608 -0.9668  0.1849  0.5745
  693MOL0     H93498   3.894   4.485   1.628 -0.1824  2.6296 -0.1804
  693MOL0     H93499   3.912   4.548   1.775  1.0942 -2.0130  1.0960
  693MOL0     H93500   3.814   4.404   1.910 -2.5797  3.6882 -1.6817
  693MOL0     H93501   3.734   4.312   1.791 -1.6805  1.9556 -0.8913
  693MOL0     H93502   3.947   4.194   1.880  1.5966  3.1829  2.8895
  693MOL0     H93503   3.930   4.213   1.701 -2.0172  1.6223 -0.7199
  693MOL0     H93504   4.090   4.418   1.740  1.0261  0.1121 -0.4193
  693MOL0     H93505   4.158   4.261   1.795 -0.1150 -0.9395  2.4580
  693MOL0     H93506   4.082   4.188   2.065  1.3469  0.5541  0.8061
  693MOL0     H93507   4.197   4.197   2.304 -3.2242 -1.4058  1.0806
  693MOL0     H93508   4.222   4.353   2.369 -2.6169 -1.5328  3.1194
  693MOL0     H93509   3.996   4.405   2.377 -0.7363 -0.1937  2.5032
  693MOL0     H93510   4.030   4.256   2.464 -1.7395  0.0476  0.7374
  693MOL0     H93511   3.951   4.143   2.240 -0.3516 -0.5775  1.7044
  693MOL0     H93512   3.887   4.307   2.212 -0.2575 -0.4876 -0.4201
  693MOL0     H93513   3.738   4.267   2.411 -1.1756 -1.0061  1.0133
  693MOL0     H93514   3.842   4.131   2.456 -0.5760 -1.4390 -2.2545
  693MOL0     H93515   3.679   3.913   2.127 -1.7336 -0.7601 -0.0086
  693MOL0     H93516   3.555   3.791   1.954 -2.2198 -1.7569 -0.9036
  693MOL0     H93517   3.441   3.879   1.855  0.7366 -4.2693  0.2243
  693MOL0     H93518   3.607   3.890   1.808 -1.5437  0.2808 -1.0774
  693MOL0     H93519   3.108   4.176   1.762 -1.0719  1.0574  0.9981
  693MOL0     H93520   2.963   4.222   1.559 -0.0966 -0.2743  1.2711
  693MOL0     H93521   3.145   4.474   1.215 -0.2076  3.9932 -1.3896
  693MOL0     H93522   2.991   4.421   1.152  1.6612 -1.9416  0.4220
  693MOL0     H93523   3.019   4.638   1.366 -1.9935  2.1774  0.2379
  693MOL0     H93524   2.990   4.664   1.196 -0.7584 -0.0977 -0.9537
  693MOL0     H93525   2.780   4.687   1.328 -2.0274 -0.9352  0.5705
  693MOL0     H93526   2.822   4.527   1.403  1.9276  0.8870  0.9625
  693MOL0     H93527   2.776   4.588   1.102 -3.2401  1.0973 -0.1649
  693MOL0     H93528   2.764   4.433   1.191 -0.7647 -0.0829 -0.9095
  693MOL0     H93529   2.559   4.643   1.194 -3.1350 -0.3654  3.1583
  693MOL0     H93530   2.550   4.503   1.298  0.2087 -1.2478 -0.4106
  693MOL0     H93531   2.557   4.478   0.993 -2.3876 -2.6319 -1.1160
  693MOL0     H93532   2.553   4.346   1.108 -2.1191 -1.2013  1.0260
  693MOL0     H93533   2.345   4.576   1.139 -2.9909 -0.2446  0.0045
  693MOL0     H93534   2.340   4.403   1.178  1.0797 -1.5434 -2.6179
  693MOL0     H93535   2.315   4.353   0.941 -0.1768 -0.6297  1.6178
  693MOL0     H93536   2.319   4.526   0.904 -1.6482 -0.1727 -0.0811
  693MOL0     H93537   3.286   4.458   1.389  1.6844  0.2912  1.7251
  693MOL0     H93538   3.417   4.427   1.581 -1.1754  3.0822 -0.4861
  693MOL0     H93539   3.456   4.334   2.006 -0.7165 -1.2129  2.0960
  693MOL0     H93540   3.603   4.305   2.221  1.7646  1.4094 -1.5173
  693MOL0     H93541   3.332   5.177   1.744 -2.6047  3.8381  1.5461
  693MOL0     H93542   3.254   5.315   1.914 -0.7371 -1.2206 -2.2692
  693MOL0     H93543   3.054   5.168   2.424 -1.9446 -0.2170  0.3845
  693MOL0     H93544   2.999   5.279   2.614 -2.5009 -1.9793 -1.5856
  693MOL0     H93545   2.995   5.535   2.887 -1.7352 -3.6365  1.5005
  693MOL0     H93546   2.938   5.404   2.794 -0.5912 -1.0320  2.0994
  693MOL0     H93547   3.215   5.489   2.894  1.1600 -1.2683  0.8335
  693MOL0     H93548   3.203   5.382   2.749 -0.6256 -2.5545  0.9815
  693MOL0     H93549   3.034   5.228   2.883  3.3381 -2.7500 -1.0600
  693MOL0     H93550   3.090   5.327   3.025 -0.4950  0.7913  1.1362
  693MOL0     H93551   3.195   5.122   3.011 -1.7333 -1.0261 -0.6653
  693MOL0     H93552   3.328   5.236   2.961  0.2049 -0.3991 -0.6740
  693MOL0     H93553   3.356   4.998   2.636  0.6468  1.1970 -0.5029
  693MOL0     H93554   3.119   5.664   2.453  0.8787 -0.6640  0.2067
  693MOL0     H93555   3.206   5.545   2.255  2.3712 -1.9744  1.7154
  694MOL0     O93556   3.994  10.271   1.819  0.2583 -0.5753 -0.6524
  694MOL0     C93557   3.989  10.175   1.747 -0.1153  0.5436 -1.0594
  694MOL0     O93558   3.972  10.040   1.787 -0.2273  0.4337  0.0064
  694MOL0     C93559   3.957   9.998   1.919  0.2869 -1.1746 -0.0918
  694MOL0     C93560   3.999   9.868   1.948  0.6928 -0.1998 -0.4198
  694MOL0     C93561   4.006   9.805   2.081  0.1405 -0.2367  0.2081
  694MOL0     C93562   3.968   9.883   2.185  0.7514 -0.0376 -0.8857
  694MOL0     O93563   3.971   9.838   2.319 -0.0352 -0.2345 -0.4448
  694MOL0     C93564   3.847   9.817   2.391  0.0420  0.4869  0.4270
  694MOL0     C93565   3.853   9.893   2.520 -0.2010  0.3340 -0.9980
  694MOL0     C93566   3.741   9.838   2.609 -0.1396  0.3142  0.7499
  694MOL0     C93567   3.788   9.714   2.692  0.7550  0.1141  0.8977
  694MOL0     C93568   3.669   9.641   2.765  1.0852 -0.1441  0.9138
  694MOL0     C93569   3.602   9.524   2.694 -0.7531 -0.7069 -0.2307
  694MOL0     C93570   3.502   9.559   2.597  0.5910  0.8597  0.2469
  694MOL0     C93571   3.407   9.449   2.556 -0.1832  0.1776 -0.8943
  694MOL0     N93572   3.462   9.368   2.454 -0.4281 -0.8471 -0.3290
  694MOL0     C93573   3.479   9.413   2.332 -0.7888 -0.0625 -0.2500
  694MOL0     C93574   3.542   9.312   2.260 -0.3068 -0.5629 -0.1952
  694MOL0     C93575   3.584   9.315   2.120  0.7549 -0.3956  0.4461
  694MOL0     C93576   3.459   9.335   2.015 -0.3746  0.2185  0.1278
  694MOL0     C93577   3.508   9.322   1.873 -0.6348 -0.3642  0.3991
  694MOL0     C93578   3.392   9.318   1.767 -0.0376 -0.2973 -0.7289
  694MOL0     O93579   3.461   9.302   1.646  0.4740 -0.3273 -0.1166
  694MOL0     C93580   3.405   9.233   1.533 -0.6330 -0.9386 -0.6120
  694MOL0     C93581   3.464   9.246   1.403 -0.3279 -0.0060 -0.6688
  694MOL0     C93582   3.400   9.213   1.286  0.2376 -1.3418 -1.0605
  694MOL0     C93583   3.484   9.230   1.156 -0.6706  0.6265 -0.0453
  694MOL0     C93584   3.269   9.163   1.288 -0.5083  0.0575  0.0742
  694MOL0     C93585   3.198   9.125   1.165  0.1799  0.8214 -0.3446
  694MOL0     O93586   3.075   9.176   1.147  1.0572  0.2963  0.1152
  694MOL0     C93587   3.004   9.158   1.027 -0.0105 -0.4222 -0.1913
  694MOL0     C93588   3.009   9.047   0.936  0.8184  0.4395 -0.4306
  694MOL0     C93589   2.918   9.037   0.833 -0.4731 -0.6847  0.0036
  694MOL0     C93590   2.826   9.134   0.808  0.2146  0.0808  0.5216
  694MOL0     O93591   2.739   9.133   0.699  0.1843 -0.1122 -0.8150
  694MOL0     C93592   2.674   9.014   0.646 -0.0915  0.4131  0.1403
  694MOL0     C93593   2.645   9.043   0.498 -0.7336  0.7772 -0.2478
  694MOL0     C93594   2.769   9.069   0.416 -0.1750  0.9160 -0.6777
  694MOL0     C93595   2.745   9.094   0.264  1.1816 -0.0976  0.0113
  694MOL0     C93596   2.753   9.237   0.213 -0.6197  0.9083  0.4969
  694MOL0     C93597   2.670   9.286   0.094 -0.0082 -0.0392 -0.4443
  694MOL0     C93598   2.669   9.436   0.083 -0.4803  0.3920  0.8020
  694MOL0     C93599   2.570   9.488  -0.014  0.2808  0.1225 -0.5873
  694MOL0    Cl93600   2.408   9.420   0.040 -0.2999 -0.9638 -0.5603
  694MOL0     C93601   2.818   9.242   0.900 -0.6727 -0.6747 -0.4523
  694MOL0     C93602   2.902   9.249   1.008 -0.7553 -0.7098  0.3095
  694MOL0     O93603   3.264   9.061   1.082  0.6387  0.1333 -0.1495
  694MOL0     C93604   3.208   9.144   1.411  0.5858 -0.1042 -0.2761
  694MOL0     C93605   3.274   9.172   1.532 -0.4178 -0.2328 -0.8098
  694MOL0     N93606   3.569   9.210   2.349 -0.2631 -0.6018  0.5246
  694MOL0     N93607   3.528   9.248   2.469 -0.6454  0.4426 -0.5185
  694MOL0     C93608   3.927  10.011   2.160  0.2722  0.4461  0.8411
  694MOL0     C93609   3.916  10.066   2.029 -0.0869  1.6000 -0.6169
  694MOL0     C93610   4.014  10.214   1.605  0.1493  0.0962  0.4183
  694MOL0     C93611   4.077  10.332   1.570 -0.2714 -0.0279  0.0929
  694MOL0     C93612   4.099  10.363   1.430 -0.0080  0.6011  0.3586
  694MOL0     C93613   4.081  10.269   1.334 -0.0374  0.1621  0.5165
  694MOL0     O93614   4.108  10.279   1.207  0.4050 -0.5162 -0.5592
  694MOL0     C93615   4.126  10.392   1.137  0.3996 -0.2020 -0.2420
  694MOL0     C93616   4.283  10.396   1.132  1.1287 -0.4049  1.1517
  694MOL0     C93617   4.340  10.300   1.028  0.1825  0.4893 -0.0681
  694MOL0     C93618   4.339  10.153   1.061  0.2098 -0.4536  0.6526
  694MOL0     C93619   4.375  10.051   0.953  0.6716  0.7375 -0.2636
  694MOL0     C93620   4.412   9.961   0.866  0.3576 -0.3486 -1.1409
  694MOL0     C93621   4.042  10.140   1.378 -0.6423 -0.1920  0.8075
  694MOL0     C93622   4.016  10.112   1.506 -0.0371  0.0626  1.0194
  694MOL0     H93623   4.036   9.804   1.869 -0.5260 -1.8505  0.2835
  694MOL0     H93624   4.045   9.704   2.089 -0.8225 -0.4913  3.6215
  694MOL0     H93625   3.757   9.839   2.333 -0.5736 -2.1726  0.2698
  694MOL0     H93626   3.854   9.709   2.403  0.0792  0.3282 -0.8721
  694MOL0     H93627   3.951   9.884   2.567 -0.0005 -0.5389 -1.5693
  694MOL0     H93628   3.830   9.999   2.504 -4.3745  0.1671  2.2468
  694MOL0     H93629   3.702   9.907   2.684 -0.6027 -0.2297  1.0122
  694MOL0     H93630   3.659   9.817   2.540  1.9849 -0.2377 -1.7605
  694MOL0     H93631   3.836   9.644   2.623  0.3668  0.4357  0.2969
  694MOL0     H93632   3.857   9.755   2.768  1.3773 -0.2102  0.5185
  694MOL0     H93633   3.724   9.617   2.857  0.2948  1.2700  1.7912
  694MOL0     H93634   3.590   9.707   2.804  1.8767  1.1147  0.4642
  694MOL0     H93635   3.678   9.476   2.630  0.7916  2.7252 -1.1861
  694MOL0     H93636   3.549   9.455   2.760 -1.0837 -2.5733 -2.3122
  694MOL0     H93637   3.439   9.632   2.649 -1.2916  1.4538 -2.5836
  694MOL0     H93638   3.533   9.618   2.510 -2.2350  0.7694 -0.9576
  694MOL0     H93639   3.315   9.494   2.515 -1.0783 -1.5338 -0.8612
  694MOL0     H93640   3.370   9.394   2.643 -0.5341  2.3012  0.3882
  694MOL0     H93641   3.452   9.508   2.286  0.1403  0.5728  0.4795
  694MOL0     H93642   3.645   9.404   2.098  3.4585 -2.5545 -1.4578
  694MOL0     H93643   3.642   9.224   2.108 -0.8562 -1.2195 -1.8224
  694MOL0     H93644   3.411   9.433   2.028  0.7091  0.7020  0.6769
  694MOL0     H93645   3.375   9.269   2.036 -0.8600  1.0294  0.7877
  694MOL0     H93646   3.570   9.234   1.851  0.8893  0.8898 -0.5439
  694MOL0     H93647   3.570   9.407   1.843 -2.3764  0.2060 -1.9313
  694MOL0     H93648   3.336   9.411   1.755  3.1617  1.7228 -1.0885
  694MOL0     H93649   3.321   9.239   1.792 -0.9316  1.7438  4.1991
  694MOL0     H93650   3.568   9.276   1.411 -0.7791  1.7582 -0.9829
  694MOL0     H93651   3.565   9.300   1.177  0.8920 -0.7246 -1.3645
  694MOL0     H93652   3.523   9.131   1.131 -0.9515 -0.7647  4.2693
  694MOL0     H93653   3.427   9.271   1.072  2.2526  1.4838 -1.7523
  694MOL0     H93654   3.077   8.965   0.954 -0.2321 -0.0323  1.7516
  694MOL0     H93655   2.925   8.947   0.772  1.9305 -2.9420  3.2314
  694MOL0     H93656   2.737   8.925   0.650 -4.0144 -2.6068  0.7127
  694MOL0     H93657   2.588   8.997   0.712  0.6216 -2.9170  0.3946
  694MOL0     H93658   2.596   8.960   0.445  0.2173 -0.3938  0.6397
  694MOL0     H93659   2.580   9.131   0.499 -1.5934  0.2214  2.8372
  694MOL0     H93660   2.828   8.978   0.430  1.3302  1.8364 -0.7630
  694MOL0     H93661   2.828   9.149   0.463  0.0472 -0.0641  0.7608
  694MOL0     H93662   2.824   9.043   0.208  2.7111  0.0255  1.9471
  694MOL0     H93663   2.652   9.055   0.223  2.7521 -0.8115 -3.1535
  694MOL0     H93664   2.859   9.245   0.188 -0.1910 -0.1891  1.8211
  694MOL0     H93665   2.755   9.307   0.297  2.6880  0.3010  1.0909
  694MOL0     H93666   2.702   9.241  -0.000 -0.5507 -2.1186  0.2928
  694MOL0     H93667   2.568   9.256   0.121 -0.0973  1.2382  0.7416
  694MOL0     H93668   2.767   9.474   0.053 -1.0485  0.6821 -0.7778
  694MOL0     H93669   2.638   9.472   0.181 -2.3079  1.4295 -0.0988
  694MOL0     H93670   2.598   9.461  -0.116  1.7555 -2.5624  0.4232
  694MOL0     H93671   2.553   9.596  -0.009 -3.8942 -0.3746 -0.7957
  694MOL0     H93672   2.738   9.315   0.891  0.8332  1.0483 -0.4491
  694MOL0     H93673   2.903   9.329   1.081 -0.1487 -1.3009  0.9647
  694MOL0     H93674   3.104   9.113   1.411  1.1934 -2.5696 -2.3624
  694MOL0     H93675   3.224   9.130   1.619  2.0987  2.0511  1.9616
  694MOL0     H93676   3.896  10.074   2.243 -0.6855 -0.7433  1.4142
  694MOL0     H93677   3.877  10.168   2.025 -1.5246  1.2093  1.5288
  694MOL0     H93678   4.088  10.403   1.652 -2.7922 -2.1114  2.4419
  694MOL0     H93679   4.127  10.461   1.395 -2.2932  0.9452 -0.6176
  694MOL0     H93680   4.075  10.380   1.041 -3.0210  1.6558  1.1761
  694MOL0     H93681   4.076  10.478   1.183 -0.2632  1.1953 -3.3432
  694MOL0     H93682   4.329  10.372   1.229 -0.4981 -2.4158  1.4923
  694MOL0     H93683   4.306  10.498   1.100  1.1773 -0.3781  1.2737
  694MOL0     H93684   4.448  10.309   1.013 -0.1028 -0.4180 -3.6026
  694MOL0     H93685   4.287  10.318   0.934  1.5216 -0.1237 -0.9800
  694MOL0     H93686   4.233  10.131   1.080 -0.4710  0.2003 -1.9377
  694MOL0     H93687   4.399  10.133   1.150  2.3996  0.8780 -0.4609
  694MOL0     H93688   4.433   9.901   0.780  0.2080 -0.6569 -0.9642
  694MOL0     H93689   4.038  10.055   1.310  2.8241 -1.7179  2.2488
  694MOL0     H93690   3.978  10.014   1.533 -2.6487  0.8927  0.6266
  695MOL0     O93691  10.954   0.595  10.048 -0.4179 -0.3193 -0.1923
  695MOL0     C93692  10.963   0.653   9.940 -0.2758  1.5284 -0.2722
  695MOL0     O93693  11.074   0.690   9.876  0.6241  0.9272  0.0455
  695MOL0     C93694  11.194   0.669   9.941  0.4087 -0.1206 -0.5815
  695MOL0     C93695  11.237   0.548   9.987 -1.1633 -0.7371 -0.5275
  695MOL0     C93696  11.362   0.540  10.050  0.1350  0.1342 -0.5562
  695MOL0     C93697  11.450   0.642  10.073  0.4003  0.4561  0.0130
  695MOL0     O93698  11.573   0.614  10.130 -0.8288 -0.0068 -0.6875
  695MOL0     C93699  11.571   0.616  10.275 -0.5765 -0.4238  0.5339
  695MOL0     C93700  11.715   0.628  10.333  0.5064  1.0375 -0.2318
  695MOL0     C93701  11.807   0.696  10.235 -0.4459 -0.5613 -0.0246
  695MOL0     C93702  11.946   0.725  10.301  0.0915 -0.2514 -0.5603
  695MOL0     C93703  12.055   0.798  10.217  0.2039 -0.3552  0.0743
  695MOL0     C93704  12.022   0.944  10.194  0.1997  0.0727 -0.2146
  695MOL0     C93705  12.009   1.020  10.332  0.8670  0.6283  0.5279
  695MOL0     C93706  12.011   1.168  10.335  0.5009 -0.4510 -0.3651
  695MOL0     N93707  12.045   1.233  10.207 -0.1363  0.2081 -1.0490
  695MOL0     C93708  12.178   1.248  10.167 -0.3547 -0.7707  0.0460
  695MOL0     C93709  12.168   1.309  10.041  0.5989  1.1188  0.5543
  695MOL0     C93710  12.271   1.362   9.956 -0.9971 -0.2106 -0.3786
  695MOL0     C93711  12.339   1.470  10.032 -0.3197 -0.6072 -0.0005
  695MOL0     C93712  12.426   1.551   9.936 -0.1892  0.3374 -0.0469
  695MOL0     C93713  12.505   1.655  10.009  0.4225 -0.4694 -0.3504
  695MOL0     O93714  12.609   1.598  10.086 -0.1775  0.6423 -0.1996
  695MOL0     C93715  12.665   1.680  10.185 -0.0029 -0.0885 -0.3975
  695MOL0     C93716  12.665   1.818  10.164  0.8475  0.9781 -0.5969
  695MOL0     C93717  12.722   1.907  10.260 -0.0999 -1.3189  0.1740
  695MOL0     C93718  12.745   2.053  10.212  0.3106 -0.0355  0.4898
  695MOL0     C93719  12.780   1.842  10.374  0.2485 -0.3511 -0.3449
  695MOL0     C93720  12.838   1.921  10.488  0.3414 -0.1442  1.0226
  695MOL0     O93721  12.880   1.850  10.593 -0.5464 -0.7674 -0.3472
  695MOL0     C93722  12.926   1.918  10.708  1.0819 -0.2987  0.7975
  695MOL0     C93723  13.061   1.921  10.732  0.2420 -0.0709 -0.1981
  695MOL0     C93724  13.111   1.949  10.859  0.2170 -0.2845  0.2548
  695MOL0     C93725  13.022   1.972  10.965  0.8316  0.5499 -0.8214
  695MOL0     O93726  13.077   1.983  11.091 -0.0022 -0.0547  1.1240
  695MOL0     C93727  13.163   1.876  11.141  0.5778 -1.1523 -0.0809
  695MOL0     C93728  13.244   1.945  11.243 -0.5254 -0.0853  0.0274
  695MOL0     C93729  13.264   1.840  11.363 -0.2920  0.8284  0.4499
  695MOL0     C93730  13.144   1.815  11.457  1.0587 -0.0401 -0.0574
  695MOL0     C93731  13.190   1.716  11.563  0.7158  0.5187  0.8167
  695MOL0     C93732  13.178   1.563  11.519 -0.2549 -0.4782 -0.5593
  695MOL0     C93733  13.036   1.515  11.538  0.9388  0.3113  1.0240
  695MOL0     C93734  13.002   1.376  11.472  0.4252 -0.9928  0.4322
  695MOL0    Cl93735  12.998   1.407  11.291  0.4631 -0.1351 -0.2491
  695MOL0     C93736  12.889   1.970  10.939  0.5986 -0.0361  0.0549
  695MOL0     C93737  12.835   1.939  10.820 -0.0964  0.1427  0.1376
  695MOL0     O93738  12.858   2.044  10.472  1.3110 -0.3371  1.6029
  695MOL0     C93739  12.782   1.700  10.381 -0.7268 -0.0059 -0.5938
  695MOL0     C93740  12.723   1.622  10.288  0.2674 -0.9073 -0.8685
  695MOL0     N93741  12.030   1.321  10.016  0.0089 -0.0556 -1.0821
  695MOL0     N93742  11.964   1.284  10.116 -0.4544 -0.3092  0.1726
  695MOL0     C93743  11.416   0.763  10.031  0.2210 -1.0063  1.1633
  695MOL0     C93744  11.286   0.780   9.965 -0.0554  0.0933 -0.4538
  695MOL0     C93745  10.833   0.704   9.887 -1.2029  0.5200  0.3185
  695MOL0     C93746  10.723   0.692   9.976 -0.2280 -0.5256  0.6778
  695MOL0     C93747  10.597   0.726   9.932 -0.0575 -1.1253 -0.4899
  695MOL0     C93748  10.576   0.752   9.794 -0.7826  0.4724  1.1706
  695MOL0     O93749  10.459   0.779   9.737  0.4777 -0.4995  0.8947
  695MOL0     C93750  10.340   0.809   9.799 -0.0589 -0.3747  0.3552
  695MOL0     C93751  10.218   0.818   9.713  0.2580  0.1033 -0.5675
  695MOL0     C93752  10.116   0.893   9.786  0.4533 -0.1164  0.0757
  695MOL0     C93753  10.132   1.047   9.769 -0.8065  0.6476  0.1698
  695MOL0     C93754  10.020   1.111   9.832  0.7806  0.1826  0.4970
  695MOL0     C93755   9.947   1.177   9.893  1.0684  0.1086  0.0211
  695MOL0     C93756  10.685   0.763   9.705 -0.0727 -0.7054 -0.2286
  695MOL0     C93757  10.814   0.734   9.753  0.2862 -0.0754  0.0748
  695MOL0     H93758  11.167   0.465   9.981 -2.1726 -0.0888  1.3228
  695MOL0     H93759  11.384   0.437  10.078  0.3558 -0.5554 -3.0141
  695MOL0     H93760  11.523   0.708  10.310 -4.2560 -2.4176  1.2494
  695MOL0     H93761  11.534   0.525  10.323  0.7859  0.2398  3.0719
  695MOL0     H93762  11.699   0.682  10.427 -1.1338 -1.6924  1.2126
  695MOL0     H93763  11.747   0.524  10.341 -2.9760 -0.4586 -2.8620
  695MOL0     H93764  11.834   0.627  10.155  1.5122 -0.4412  0.4750
  695MOL0     H93765  11.766   0.787  10.189  2.1286  0.9009  0.4116
  695MOL0     H93766  11.937   0.778  10.396  0.4389  1.4225 -1.4367
  695MOL0     H93767  12.000   0.632  10.326  0.8276  0.7612  1.9626
  695MOL0     H93768  12.156   0.779  10.257  0.3006 -3.0359 -1.1824
  695MOL0     H93769  12.062   0.748  10.120 -1.3001 -1.8230  0.6691
  695MOL0     H93770  12.106   0.993  10.145  2.2452 -2.1488  0.8334
  695MOL0     H93771  11.944   0.954  10.118  1.6737 -2.2805 -2.1853
  695MOL0     H93772  11.911   0.983  10.366 -0.1159  3.0642  0.5023
  695MOL0     H93773  12.089   0.980  10.396 -0.7680  0.0840  2.3333
  695MOL0     H93774  12.088   1.195  10.408  1.9605 -4.0684 -0.3234
  695MOL0     H93775  11.914   1.199  10.373  0.2821 -1.7674  0.2223
  695MOL0     H93776  12.268   1.228  10.223  0.2401 -2.5899 -1.4862
  695MOL0     H93777  12.339   1.281   9.928  2.4851  1.9956  0.8942
  695MOL0     H93778  12.228   1.406   9.865 -3.8353  0.6453  1.2484
  695MOL0     H93779  12.399   1.419  10.107  1.0234 -0.5794 -1.0180
  695MOL0     H93780  12.262   1.538  10.070 -0.4730  1.1035 -3.0036
  695MOL0     H93781  12.365   1.585   9.852  0.8051 -2.6936 -2.1719
  695MOL0     H93782  12.491   1.491   9.871 -2.4119  0.0988 -2.2261
  695MOL0     H93783  12.442   1.720  10.070  3.0612  0.9245  1.0551
  695MOL0     H93784  12.552   1.713   9.929  2.8458 -0.5350  0.9446
  695MOL0     H93785  12.628   1.851  10.068 -2.0598 -2.4898 -0.8731
  695MOL0     H93786  12.714   2.063  10.107  1.0937  2.5498  0.4401
  695MOL0     H93787  12.692   2.130  10.270 -1.7504 -1.7568  1.0228
  695MOL0     H93788  12.850   2.083  10.212 -0.1343  1.6664  1.0481
  695MOL0     H93789  13.120   1.893  10.645 -3.4985  1.1958 -3.4378
  695MOL0     H93790  13.215   1.942  10.887 -0.9799 -0.4180  5.8433
  695MOL0     H93791  13.096   1.809  11.195 -1.4922  2.0886  1.6589
  695MOL0     H93792  13.237   1.826  11.076 -0.9241 -3.7137  0.0496
  695MOL0     H93793  13.333   1.988  11.197 -0.7536  1.4778  0.9733
  695MOL0     H93794  13.179   2.012  11.300 -2.6827 -2.3280  0.3877
  695MOL0     H93795  13.354   1.865  11.419 -0.1229 -0.3688  0.7333
  695MOL0     H93796  13.305   1.746  11.324  1.4746  0.4411  2.9679
  695MOL0     H93797  13.124   1.905  11.515  3.8066 -0.4528  1.7389
  695MOL0     H93798  13.061   1.783  11.395  1.4185  0.5128 -0.8360
  695MOL0     H93799  13.129   1.725  11.653 -1.2028  2.3613 -0.5572
  695MOL0     H93800  13.293   1.736  11.592  1.6223  0.4499 -1.9785
  695MOL0     H93801  13.196   1.558  11.411  4.1626  0.9180 -0.1120
  695MOL0     H93802  13.257   1.498  11.558 -0.0807 -0.6661 -1.2113
  695MOL0     H93803  12.968   1.584  11.487  1.5087 -1.3712 -2.2729
  695MOL0     H93804  13.016   1.521  11.645  0.6995 -1.1000  1.0804
  695MOL0     H93805  12.907   1.338  11.511 -0.4653 -2.3119 -2.7571
  695MOL0     H93806  13.082   1.306  11.496  1.6100 -0.6224 -2.1142
  695MOL0     H93807  12.824   2.000  11.021  3.0780  0.3528  1.9892
  695MOL0     H93808  12.729   1.926  10.802  0.2255 -1.7021 -0.7145
  695MOL0     H93809  12.821   1.653  10.471 -2.8932  2.7701  1.9795
  695MOL0     H93810  12.727   1.514  10.286 -1.7403 -1.0741  0.6568
  695MOL0     H93811  11.483   0.848  10.034  0.5252 -0.7859 -3.6042
  695MOL0     H93812  11.268   0.886   9.945  0.5765  0.0440 -1.3686
  695MOL0     H93813  10.744   0.677  10.081  1.7061  2.1973  0.7864
  695MOL0     H93814  10.516   0.727  10.005  1.5816  1.6609  1.4841
  695MOL0     H93815  10.325   0.729   9.873  0.8004 -0.4051  0.5103
  695MOL0     H93816  10.350   0.904   9.853  2.1045 -1.3831  1.9010
  695MOL0     H93817  10.186   0.714   9.697  1.7984 -0.2248 -1.7963
  695MOL0     H93818  10.232   0.857   9.612 -3.2783  0.4606 -1.0407
  695MOL0     H93819  10.107   0.865   9.891 -4.2813  2.6623  0.7105
  695MOL0     H93820  10.016   0.876   9.743  0.5364  2.4347 -1.3536
  695MOL0     H93821  10.131   1.063   9.661  1.9261 -0.2295 -0.0565
  695MOL0     H93822  10.230   1.081   9.804 -2.1031  2.8125  2.0269
  695MOL0     H93823   9.871   1.224   9.952 -1.3248 -1.8588 -1.3256
  695MOL0     H93824  10.680   0.794   9.601 -0.3061 -4.1533 -1.3567
  695MOL0     H93825  10.903   0.734   9.691  1.3140 -0.5812  1.4993
  696MOL0     O93826  11.248   7.158   7.556  1.4047  0.6143 -0.2033
  696MOL0     C93827  11.136   7.131   7.606  0.4281 -0.1740 -0.3854
  696MOL0     O93828  11.080   7.006   7.609 -0.0191 -0.6017  0.7257
  696MOL0     C93829  11.163   6.901   7.578  0.1439  0.0954  0.6803
  696MOL0     C93830  11.244   6.854   7.676  0.4161 -0.2467  0.2982
  696MOL0     C93831  11.314   6.737   7.663  0.0516  1.0218  0.7170
  696MOL0     C93832  11.312   6.666   7.542 -0.5306  0.7431 -0.2310
  696MOL0     O93833  11.391   6.555   7.509 -0.4378 -0.0546 -0.0559
  696MOL0     C93834  11.382   6.454   7.597 -0.3982 -0.2718  0.4830
  696MOL0     C93835  11.475   6.341   7.554  0.1845 -0.8882 -0.6393
  696MOL0     C93836  11.625   6.362   7.582 -0.3211  0.0009 -0.7428
  696MOL0     C93837  11.705   6.258   7.504 -0.3537 -1.1599 -0.2753
  696MOL0     C93838  11.854   6.277   7.515  0.3517  0.3694  0.1076
  696MOL0     C93839  11.934   6.152   7.491 -0.6128 -0.2495  0.5389
  696MOL0     C93840  11.932   6.106   7.340 -0.6530 -0.5143 -0.0029
  696MOL0     C93841  11.922   5.958   7.321  0.0891  0.1172  0.1728
  696MOL0     N93842  12.034   5.885   7.383  0.3645  0.5745 -0.2521
  696MOL0     C93843  12.164   5.925   7.373 -0.4406 -0.4386 -0.0027
  696MOL0     C93844  12.230   5.855   7.472  0.1003 -0.1235 -0.0888
  696MOL0     C93845  12.374   5.873   7.510  0.2067 -0.1600 -0.0126
  696MOL0     C93846  12.453   5.761   7.448  0.7852  0.1716  0.1355
  696MOL0     C93847  12.599   5.767   7.486 -0.7922 -0.4203 -0.7603
  696MOL0     C93848  12.682   5.685   7.394 -0.3849 -0.2655 -0.9882
  696MOL0     O93849  12.818   5.726   7.439  0.2710  0.6928 -0.4369
  696MOL0     C93850  12.886   5.658   7.541  0.0967  0.5821 -0.0978
  696MOL0     C93851  12.824   5.555   7.617  0.6811  0.0975 -1.1691
  696MOL0     C93852  12.889   5.501   7.731  0.4256 -0.1840 -1.0435
  696MOL0     C93853  12.820   5.387   7.807 -0.2699 -0.6645  0.3306
  696MOL0     C93854  13.024   5.543   7.761  0.1917 -0.3629  0.6852
  696MOL0     C93855  13.113   5.491   7.863  0.3517  0.3642 -0.8123
  696MOL0     O93856  13.232   5.559   7.863  0.3993 -0.2591  0.4485
  696MOL0     C93857  13.336   5.522   7.954  0.3479 -0.5005  0.1738
  696MOL0     C93858  13.389   5.613   8.046  0.0937 -0.3411  0.0553
  696MOL0     C93859  13.500   5.573   8.135  0.0631 -0.7246 -0.5238
  696MOL0     C93860  13.551   5.438   8.118  0.0912 -0.3718  0.3559
  696MOL0     O93861  13.639   5.380   8.195 -0.2800  0.5470 -0.7567
  696MOL0     C93862  13.609   5.383   8.337  0.5374 -0.4906  0.3302
  696MOL0     C93863  13.721   5.449   8.423  0.3612 -0.6891  0.1828
  696MOL0     C93864  13.695   5.483   8.572 -0.0854  1.0335  0.5503
  696MOL0     C93865  13.631   5.382   8.669  0.3260  0.0418 -0.2120
  696MOL0     C93866  13.612   5.459   8.806 -0.8661 -0.7591  0.0369
  696MOL0     C93867  13.742   5.416   8.901 -0.1810  0.2137 -0.0889
  696MOL0     C93868  13.723   5.459   9.044 -0.6355  0.7757  0.2448
  696MOL0     C93869  13.660   5.600   9.072 -0.9591 -0.6445  0.4624
  696MOL0    Cl93870  13.781   5.719   9.016 -0.0166  0.1772  0.1529
  696MOL0     C93871  13.499   5.355   8.019 -0.0483 -0.6115  0.9175
  696MOL0     C93872  13.386   5.395   7.950  0.8573  0.4661  0.0682
  696MOL0     O93873  13.081   5.398   7.937  0.8016 -0.3816 -0.8026
  696MOL0     C93874  13.070   5.653   7.685  0.3365  1.2182  0.8315
  696MOL0     C93875  13.008   5.702   7.579  0.8708  0.1283 -1.2052
  696MOL0     N93876  12.136   5.763   7.519 -0.2971  0.5564  0.4893
  696MOL0     N93877  12.019   5.784   7.473  0.4933 -0.1411  0.3182
  696MOL0     C93878  11.236   6.714   7.439 -0.1392 -0.3482  1.2912
  696MOL0     C93879  11.154   6.830   7.452 -0.3744 -0.1148 -0.6685
  696MOL0     C93880  11.062   7.250   7.678  0.5904 -0.6363  0.6491
  696MOL0     C93881  10.958   7.235   7.777 -1.0615  0.1955 -0.0561
  696MOL0     C93882  10.899   7.343   7.835  0.0782 -0.8050 -0.4568
  696MOL0     C93883  10.934   7.469   7.804  0.4132  0.1307 -1.4324
  696MOL0     O93884  10.871   7.574   7.864 -0.4401 -0.5766  0.8428
  696MOL0     C93885  10.884   7.708   7.814  0.1624  0.0463 -0.0892
  696MOL0     C93886  10.799   7.814   7.882 -0.6030 -0.6649 -0.7039
  696MOL0     C93887  10.642   7.803   7.880  0.3525  0.1421  0.3037
  696MOL0     C93888  10.590   7.781   7.742  0.7565  0.8268  1.4540
  696MOL0     C93889  10.452   7.818   7.732 -1.0986  0.1055 -0.0900
  696MOL0     C93890  10.325   7.823   7.734  0.3543  0.4645 -0.0342
  696MOL0     C93891  11.027   7.489   7.708  0.5899 -0.5765  0.3834
  696MOL0     C93892  11.092   7.384   7.641  0.1853  0.1750 -0.5112
  696MOL0     H93893  11.261   6.913   7.766  2.4092  0.9718 -0.8061
  696MOL0     H93894  11.356   6.696   7.754 -0.0792  1.0765  0.8025
  696MOL0     H93895  11.399   6.488   7.700 -1.3315 -0.2707  0.6464
  696MOL0     H93896  11.280   6.419   7.580  0.4702 -3.1984  0.7630
  696MOL0     H93897  11.435   6.253   7.607 -2.1592 -0.7347 -1.9891
  696MOL0     H93898  11.472   6.319   7.447  0.9282 -1.2241 -0.5959
  696MOL0     H93899  11.647   6.464   7.549  0.8157  0.1722  0.4771
  696MOL0     H93900  11.639   6.361   7.690 -2.1352  2.1842 -0.4166
  696MOL0     H93901  11.677   6.160   7.544  1.0188 -1.4098  0.1127
  696MOL0     H93902  11.676   6.266   7.398 -1.9154  2.6486  0.2535
  696MOL0     H93903  11.892   6.356   7.449  2.1672 -0.2538  0.3697
  696MOL0     H93904  11.870   6.306   7.619 -2.0923 -0.4995  0.7907
  696MOL0     H93905  12.039   6.167   7.518  0.7583 -2.1807 -2.9665
  696MOL0     H93906  11.903   6.066   7.551  0.7933 -0.4248  1.0591
  696MOL0     H93907  11.843   6.151   7.294 -1.2142 -1.1542  0.4284
  696MOL0     H93908  12.017   6.145   7.284  0.2244  1.3091  2.4102
  696MOL0     H93909  11.912   5.940   7.214 -0.8582 -1.9516  0.5466
  696MOL0     H93910  11.826   5.921   7.358 -1.3559  1.2795 -2.2103
  696MOL0     H93911  12.208   5.987   7.296  0.9700 -0.6773  0.5854
  696MOL0     H93912  12.409   5.972   7.480 -1.2018  0.8985  1.6355
  696MOL0     H93913  12.388   5.861   7.618  3.8929  0.4157 -0.3174
  696MOL0     H93914  12.453   5.764   7.339  0.4600  1.4518  0.1488
  696MOL0     H93915  12.413   5.670   7.493  0.5845  1.5206  2.9026
  696MOL0     H93916  12.615   5.720   7.584  4.0257  1.5197 -0.3330
  696MOL0     H93917  12.634   5.869   7.501 -1.5321 -0.6431  3.8727
  696MOL0     H93918  12.667   5.712   7.290  3.5775 -1.5911 -2.0937
  696MOL0     H93919  12.679   5.575   7.396  2.9003 -0.4656 -1.3084
  696MOL0     H93920  12.718   5.534   7.606 -0.4361  2.2899  3.1096
  696MOL0     H93921  12.836   5.388   7.916  0.1608  0.1598  0.2722
  696MOL0     H93922  12.713   5.402   7.789  0.3265  2.6735 -1.2587
  696MOL0     H93923  12.851   5.289   7.771  1.0165 -0.0307 -0.3683
  696MOL0     H93924  13.344   5.711   8.040 -0.8904 -0.7242  0.9043
  696MOL0     H93925  13.547   5.639   8.207  0.8068  0.2335 -1.8543
  696MOL0     H93926  13.521   5.444   8.360  0.5837 -0.0243 -0.7043
  696MOL0     H93927  13.603   5.280   8.375 -1.2384 -1.2672 -1.9035
  696MOL0     H93928  13.807   5.381   8.416  1.2578  0.3671  0.6285
  696MOL0     H93929  13.741   5.542   8.369 -1.6610 -0.3359 -0.0489
  696MOL0     H93930  13.616   5.559   8.578  0.7169  1.7714  2.6451
  696MOL0     H93931  13.790   5.516   8.615  2.0852 -2.4463 -1.1523
  696MOL0     H93932  13.536   5.337   8.638 -2.2381  2.7774  2.8560
  696MOL0     H93933  13.709   5.306   8.677  1.4989  1.2285 -0.0218
  696MOL0     H93934  13.530   5.422   8.868 -0.9347  0.2751  0.5793
  696MOL0     H93935  13.582   5.564   8.794 -0.1728 -0.2897  2.0169
  696MOL0     H93936  13.753   5.307   8.896 -0.9703  0.1639 -1.1193
  696MOL0     H93937  13.830   5.464   8.859 -0.8216  2.5169  1.0511
  696MOL0     H93938  13.825   5.469   9.082 -0.2263  1.7559 -1.0425
  696MOL0     H93939  13.673   5.384   9.106 -1.7699  2.7267  1.8043
  696MOL0     H93940  13.643   5.609   9.180 -0.7625  1.5943  0.3428
  696MOL0     H93941  13.562   5.616   9.027 -1.3596  0.0227  1.5148
  696MOL0     H93942  13.543   5.257   8.006  0.3146 -0.5029  1.3119
  696MOL0     H93943  13.336   5.325   7.883 -1.5469  1.6641  0.5141
  696MOL0     H93944  13.156   5.713   7.712  1.4404  0.6977 -1.3768
  696MOL0     H93945  13.062   5.783   7.530 -0.0246  1.3211 -0.3028
  696MOL0     H93946  11.223   6.661   7.345  0.6121  0.7676  0.5341
  696MOL0     H93947  11.092   6.884   7.382  0.3848  3.1820  0.9605
  696MOL0     H93948  10.928   7.141   7.822  3.2949 -0.1745  2.6915
  696MOL0     H93949  10.823   7.333   7.912 -1.1844 -4.4364 -1.9716
  696MOL0     H93950  10.988   7.735   7.837 -0.4520  1.4552  1.2673
  696MOL0     H93951  10.856   7.707   7.709 -2.5478  2.6647  0.4873
  696MOL0     H93952  10.818   7.915   7.844 -1.3608 -0.5813 -0.8865
  696MOL0     H93953  10.834   7.828   7.985  0.6200 -0.3000 -1.1597
  696MOL0     H93954  10.602   7.898   7.919 -2.1771  0.6374 -3.0538
  696MOL0     H93955  10.601   7.727   7.946  1.3518  0.0696  0.8510
  696MOL0     H93956  10.597   7.674   7.720  4.7667  0.8697  1.6930
  696MOL0     H93957  10.651   7.841   7.673 -0.7252  0.7617  0.0590
  696MOL0     H93958  10.219   7.833   7.744  0.1681 -2.7128  4.3979
  696MOL0     H93959  11.066   7.589   7.691 -0.1662 -0.4697 -0.8841
  696MOL0     H93960  11.167   7.407   7.566  1.0525  1.9470  0.8116
  697MOL0     O93961   6.353   5.731   0.968 -0.5884  0.3883  0.3694
  697MOL0     C93962   6.429   5.782   0.883 -0.1348  0.7434 -0.3237
  697MOL0     O93963   6.564   5.806   0.905 -0.6129 -0.0201 -0.3679
  697MOL0     C93964   6.608   5.777   1.035  0.5846 -0.1041  0.5334
  697MOL0     C93965   6.611   5.653   1.082  0.1941  0.8249 -0.3837
  697MOL0     C93966   6.670   5.635   1.205 -0.7264  0.8205 -0.8069
  697MOL0     C93967   6.725   5.740   1.282  0.3616  0.1074  0.4567
  697MOL0     O93968   6.769   5.713   1.415  0.4486  0.4358 -0.2043
  697MOL0     C93969   6.788   5.822   1.504 -0.1624  0.5714 -0.4621
  697MOL0     C93970   6.816   5.773   1.643 -0.0057 -0.2894 -0.4271
  697MOL0     C93971   6.955   5.807   1.694 -0.2754 -0.6673 -0.4615
  697MOL0     C93972   6.994   5.747   1.824 -0.4088 -0.0613  0.9903
  697MOL0     C93973   7.016   5.602   1.825 -0.6911  0.4198 -0.1795
  697MOL0     C93974   7.037   5.524   1.954  0.5826 -0.7639  0.0025
  697MOL0     C93975   7.154   5.570   2.032 -0.2973 -0.4872  0.2801
  697MOL0     C93976   7.289   5.555   1.956  0.1014  0.3701  0.4348
  697MOL0     N93977   7.330   5.412   1.946  0.6805  0.0985  0.0501
  697MOL0     C93978   7.416   5.347   2.030  0.5974 -0.2952  0.2975
  697MOL0     C93979   7.469   5.235   1.976  0.1437 -0.1583 -0.7568
  697MOL0     C93980   7.570   5.141   2.044 -1.2865 -0.6481  0.5064
  697MOL0     C93981   7.522   4.993   2.028  0.2087  0.6336 -0.5073
  697MOL0     C93982   7.643   4.891   2.024  1.1111 -0.1906  0.6670
  697MOL0     C93983   7.594   4.745   2.029  1.8340  0.5356 -0.5483
  697MOL0     O93984   7.493   4.718   2.136 -0.1590 -0.5649 -0.0862
  697MOL0     C93985   7.546   4.658   2.248 -0.6661 -0.3129  0.0250
  697MOL0     C93986   7.497   4.534   2.284 -0.5773  0.2741 -0.8491
  697MOL0     C93987   7.558   4.461   2.391 -0.3452 -0.2200 -0.1266
  697MOL0     C93988   7.486   4.334   2.419  0.0810 -0.6917 -0.0654
  697MOL0     C93989   7.665   4.518   2.476 -0.1456  0.4076 -0.2511
  697MOL0     C93990   7.752   4.448   2.584  0.0550  0.4455  0.2245
  697MOL0     O93991   7.707   4.327   2.617  0.1467  0.0444  0.7821
  697MOL0     C93992   7.771   4.244   2.706  0.3782  0.0667 -1.1494
  697MOL0     C93993   7.882   4.166   2.667 -0.7053  0.7768  0.6765
  697MOL0     C93994   7.959   4.084   2.745  0.5080  0.6013 -0.2924
  697MOL0     C93995   7.925   4.079   2.889  0.5291 -0.1647 -0.5813
  697MOL0     O93996   8.003   4.012   2.968 -0.4064  0.3593 -0.5051
  697MOL0     C93997   7.957   3.969   3.098  0.4053  1.1776 -0.1956
  697MOL0     C93998   8.013   3.835   3.134  0.0684  1.1729 -0.6531
  697MOL0     C93999   7.945   3.773   3.266 -0.0341  0.6354 -0.0862
  697MOL0     C94000   7.995   3.622   3.281 -0.1288  0.0946 -0.4172
  697MOL0     C94001   7.947   3.550   3.404 -0.7242  0.1999  0.5142
  697MOL0     C94002   8.021   3.409   3.425 -0.3719  0.5890 -0.2765
  697MOL0     C94003   7.954   3.320   3.320 -0.4686  0.7137 -0.7704
  697MOL0     C94004   7.847   3.222   3.369 -1.4466  0.5096 -0.1202
  697MOL0    Cl94005   7.694   3.295   3.365  0.0292 -0.1559  0.0773
  697MOL0     C94006   7.816   4.164   2.933 -0.2367  0.9755 -0.1175
  697MOL0     C94007   7.737   4.252   2.840 -0.3832  0.1623  0.6429
  697MOL0     O94008   7.838   4.505   2.648 -0.5544 -0.2680  0.3920
  697MOL0     C94009   7.703   4.647   2.447  0.5924 -0.3230  0.1881
  697MOL0     C94010   7.644   4.707   2.327  0.2576  0.2334 -0.7472
  697MOL0     N94011   7.412   5.229   1.851 -0.5521 -0.0420 -0.1744
  697MOL0     N94012   7.336   5.333   1.832  0.2048  0.8269 -0.1947
  697MOL0     C94013   6.716   5.874   1.229  0.0464  0.2222 -0.4799
  697MOL0     C94014   6.664   5.890   1.103 -0.0614  0.7475  0.1440
  697MOL0     C94015   6.379   5.831   0.754  0.7901 -0.3351 -0.5509
  697MOL0     C94016   6.462   5.858   0.643 -0.4207  0.9655 -1.0175
  697MOL0     C94017   6.414   5.912   0.520 -0.3009 -0.4998  0.6861
  697MOL0     C94018   6.274   5.928   0.499  0.5762 -0.3421 -0.1693
  697MOL0     O94019   6.196   5.978   0.399  0.1942 -0.3021 -0.5666
  697MOL0     C94020   6.274   6.035   0.289 -1.2395 -0.2243  0.0425
  697MOL0     C94021   6.180   6.089   0.185  0.1987 -0.4407  0.4357
  697MOL0     C94022   6.138   5.973   0.093 -0.0439 -0.4800  0.0697
  697MOL0     C94023   6.031   6.017  -0.004  0.2971  0.1794  0.6655
  697MOL0     C94024   6.075   6.115  -0.105 -0.2797  0.2165  0.1678
  697MOL0     C94025   6.122   6.171  -0.205  0.5450  0.6946 -0.7176
  697MOL0     C94026   6.188   5.890   0.609  0.2222  0.3182  0.7273
  697MOL0     C94027   6.238   5.846   0.739 -0.5584 -0.4119  0.9342
  697MOL0     H94028   6.573   5.570   1.024 -0.2825  1.3669 -0.8546
  697MOL0     H94029   6.678   5.532   1.239  0.2052  1.2338  0.2921
  697MOL0     H94030   6.871   5.882   1.466 -2.3699  3.1681 -1.5969
  697MOL0     H94031   6.693   5.877   1.514 -1.4404 -0.9960 -2.9821
  697MOL0     H94032   6.752   5.828   1.712  1.2525  3.5731 -2.0268
  697MOL0     H94033   6.796   5.665   1.641  0.3851 -0.3988  0.8059
  697MOL0     H94034   7.017   5.784   1.607 -2.4644 -0.4733 -2.1827
  697MOL0     H94035   6.962   5.915   1.708 -2.9743 -0.2580 -1.5059
  697MOL0     H94036   7.087   5.800   1.850 -1.4474  1.5701  1.5707
  697MOL0     H94037   6.909   5.784   1.882  1.2064  0.4161  3.1885
  697MOL0     H94038   6.932   5.548   1.779 -1.6428  0.0640  1.8448
  697MOL0     H94039   7.102   5.601   1.758  0.9579  2.9286  1.7158
  697MOL0     H94040   6.964   5.549   2.032  2.3767  1.0132  1.2266
  697MOL0     H94041   7.034   5.418   1.930  1.6132 -0.9713  0.7442
  697MOL0     H94042   7.153   5.677   2.055 -0.4965 -0.6485  1.0595
  697MOL0     H94043   7.154   5.517   2.128  2.1308 -1.2224 -0.0616
  697MOL0     H94044   7.373   5.588   2.018  0.2094 -2.5540  2.0176
  697MOL0     H94045   7.279   5.604   1.859 -3.8360 -0.1565  0.4363
  697MOL0     H94046   7.445   5.378   2.130 -0.5412 -0.0684  0.5639
  697MOL0     H94047   7.667   5.144   1.993  0.8625 -1.5636  4.1806
  697MOL0     H94048   7.594   5.155   2.150  0.3121  0.0957  0.0798
  697MOL0     H94049   7.476   4.988   1.929  1.4241  1.7851 -1.1805
  697MOL0     H94050   7.458   4.976   2.115  1.7264  0.8963  0.7007
  697MOL0     H94051   7.701   4.912   2.114  3.6271 -0.9496 -0.6738
  697MOL0     H94052   7.709   4.904   1.938  1.9927  1.6424  1.5517
  697MOL0     H94053   7.680   4.679   2.045  1.5409  0.1249 -0.6645
  697MOL0     H94054   7.555   4.736   1.928  0.0073  1.5259  0.0342
  697MOL0     H94055   7.411   4.489   2.236 -0.2720  0.6491 -1.7603
  697MOL0     H94056   7.484   4.311   2.526  1.1591 -1.1256 -0.1281
  697MOL0     H94057   7.387   4.341   2.371  0.8769 -0.4430 -1.7360
  697MOL0     H94058   7.546   4.258   2.369  0.0043 -0.6059 -0.2904
  697MOL0     H94059   7.909   4.177   2.563 -1.2174  1.9029  0.6523
  697MOL0     H94060   8.043   4.032   2.700 -0.0321  1.5997 -2.5729
  697MOL0     H94061   7.991   4.046   3.168 -0.4883  1.4037  0.0002
  697MOL0     H94062   7.848   3.958   3.103  0.5407 -0.1927  0.2109
  697MOL0     H94063   8.001   3.767   3.049  0.3707  0.4920 -0.1612
  697MOL0     H94064   8.117   3.850   3.167  0.1856 -1.1865  0.2813
  697MOL0     H94065   7.836   3.783   3.255 -0.3310 -1.6574  0.3066
  697MOL0     H94066   7.985   3.830   3.350  1.2490 -2.0693  1.2249
  697MOL0     H94067   7.952   3.567   3.197 -0.4735 -1.5905  0.8065
  697MOL0     H94068   8.104   3.610   3.283 -0.3291 -3.2109 -2.6561
  697MOL0     H94069   7.838   3.538   3.409 -1.0780  3.0811  4.4083
  697MOL0     H94070   7.967   3.616   3.489  0.8378  0.1381  0.2147
  697MOL0     H94071   8.130   3.402   3.419 -0.3703  0.3656 -0.0020
  697MOL0     H94072   7.995   3.381   3.527  1.6585 -1.9621 -0.3758
  697MOL0     H94073   8.038   3.268   3.273 -0.4532 -1.0878  1.1285
  697MOL0     H94074   7.905   3.375   3.239  0.6624  1.5403 -0.9269
  697MOL0     H94075   7.877   3.176   3.464 -0.1538  1.8877  0.1877
  697MOL0     H94076   7.852   3.142   3.295 -1.0655  0.0786  0.3627
  697MOL0     H94077   7.792   4.176   3.038 -0.8205  1.9178 -0.3486
  697MOL0     H94078   7.658   4.318   2.872 -0.5200 -0.5881  1.9127
  697MOL0     H94079   7.767   4.707   2.511 -0.0262 -1.9917  2.4875
  697MOL0     H94080   7.684   4.806   2.306 -1.3145  1.1650  0.4012
  697MOL0     H94081   6.750   5.961   1.284  0.3152 -0.2766  0.1611
  697MOL0     H94082   6.649   5.989   1.060  0.4402  1.3556  1.3332
  697MOL0     H94083   6.567   5.845   0.666 -0.2620  0.5035 -1.9327
  697MOL0     H94084   6.480   5.948   0.441 -4.1578  1.9256 -1.7614
  697MOL0     H94085   6.333   6.122   0.319  0.9840 -0.9290 -1.9498
  697MOL0     H94086   6.335   5.960   0.237 -0.3927  1.4340 -1.4512
  697MOL0     H94087   6.225   6.172   0.130 -1.0688  0.4233  0.6681
  697MOL0     H94088   6.088   6.133   0.225  2.6171  5.6503  0.2353
  697MOL0     H94089   6.107   5.890   0.156  1.9486 -0.4831  1.1247
  697MOL0     H94090   6.215   5.929   0.029 -0.5497 -0.4654 -0.5667
  697MOL0     H94091   5.947   6.068   0.044 -2.1636 -3.6047  0.7902
  697MOL0     H94092   5.981   5.934  -0.055  3.0815 -1.2034  0.0208
  697MOL0     H94093   6.162   6.223  -0.289 -0.4192 -0.6233 -2.0379
  697MOL0     H94094   6.084   5.892   0.578  0.3337  2.8588  0.3442
  697MOL0     H94095   6.168   5.806   0.811 -1.0562  0.6472  1.0674
  698MOL0     O94096   0.531   8.737   3.846  0.7148 -0.4606  0.1091
  698MOL0     C94097   0.531   8.769   3.726  0.1587  0.3202 -0.2820
  698MOL0     O94098   0.426   8.756   3.640  0.0342  1.1266  0.3910
  698MOL0     C94099   0.309   8.700   3.693 -0.2368  0.4911  0.3811
  698MOL0     C94100   0.199   8.775   3.699 -1.0287  0.3966 -0.8230
  698MOL0     C94101   0.080   8.711   3.748 -0.0974  0.6884 -0.5388
  698MOL0     C94102   0.083   8.575   3.801  0.1492 -0.5601  0.1718
  698MOL0     O94103  -0.039   8.541   3.861 -0.0713  0.4344 -0.1904
  698MOL0     C94104  -0.059   8.420   3.934 -0.5972  0.0536 -0.2258
  698MOL0     C94105  -0.200   8.363   3.904  0.8817  0.2098  0.9331
  698MOL0     C94106  -0.214   8.210   3.932  0.5725  0.3221  0.4808
  698MOL0     C94107  -0.357   8.162   3.944  0.2435  0.4997  1.2670
  698MOL0     C94108  -0.352   8.007   3.920  0.5559 -0.4045 -0.8664
  698MOL0     C94109  -0.501   7.965   3.941 -0.3906 -0.2269  0.5108
  698MOL0     C94110  -0.527   7.815   3.903  0.0789 -0.9003 -0.1092
  698MOL0     C94111  -0.669   7.763   3.943  0.0249  0.1596  0.4939
  698MOL0     N94112  -0.697   7.627   3.896 -0.6985 -0.5485 -0.7150
  698MOL0     C94113  -0.685   7.504   3.954 -0.2485 -0.4699  0.7874
  698MOL0     C94114  -0.722   7.420   3.864  0.1466  0.7015  0.6953
  698MOL0     C94115  -0.696   7.270   3.895 -0.0087 -0.1660  0.3354
  698MOL0     C94116  -0.819   7.207   3.975 -0.8285  1.0049  0.4262
  698MOL0     C94117  -0.948   7.205   3.891  0.2102 -0.0068 -0.0450
  698MOL0     C94118  -1.075   7.148   3.965 -0.3234 -0.4000  0.5853
  698MOL0     O94119  -1.060   7.011   3.995 -0.6825 -0.3080 -0.3563
  698MOL0     C94120  -1.046   6.918   3.901  0.1365 -0.6841  0.1670
  698MOL0     C94121  -1.078   6.933   3.766  0.2050  0.1183 -0.2758
  698MOL0     C94122  -1.047   6.841   3.666  0.2719  0.2535  0.6004
  698MOL0     C94123  -1.070   6.873   3.521  0.8110 -0.1614 -0.4951
  698MOL0     C94124  -0.988   6.715   3.708  0.5708 -0.5148  0.6479
  698MOL0     C94125  -0.958   6.603   3.614  0.4082 -0.3978 -0.8369
  698MOL0     O94126  -0.963   6.479   3.668 -0.2909 -0.0674 -0.0159
  698MOL0     C94127  -0.954   6.367   3.584  0.3977 -0.5094 -0.2205
  698MOL0     C94128  -0.864   6.356   3.476  0.1081  0.0485  0.5328
  698MOL0     C94129  -0.856   6.234   3.399  0.5856  0.0521 -0.5561
  698MOL0     C94130  -0.934   6.120   3.428 -0.3475 -0.5484  0.2795
  698MOL0     O94131  -0.922   6.010   3.349  0.4001 -0.5819 -0.7154
  698MOL0     C94132  -0.786   5.950   3.347 -0.2274 -0.2579 -1.0958
  698MOL0     C94133  -0.777   5.826   3.264  0.1123  0.4284 -1.1843
  698MOL0     C94134  -0.846   5.700   3.338  0.1582  0.1665 -0.8922
  698MOL0     C94135  -0.854   5.574   3.249 -0.3998 -0.5204  0.7615
  698MOL0     C94136  -0.926   5.466   3.322  0.0596 -0.2412 -0.3093
  698MOL0     C94137  -1.072   5.496   3.352  1.0268  0.4284 -0.9637
  698MOL0     C94138  -1.144   5.374   3.407  0.7139  0.5605  0.2567
  698MOL0     C94139  -1.292   5.395   3.433  0.5477  0.3279  0.1985
  698MOL0    Cl94140  -1.381   5.445   3.288  0.0322  0.1385  0.1182
  698MOL0     C94141  -1.020   6.124   3.536 -0.3640 -1.3553 -0.0597
  698MOL0     C94142  -1.028   6.247   3.610  0.1923 -0.4647  0.4722
  698MOL0     O94143  -0.936   6.627   3.496 -0.3803 -0.0826  0.3574
  698MOL0     C94144  -0.963   6.691   3.848 -0.6207 -0.2256  0.1670
  698MOL0     C94145  -0.985   6.799   3.943  0.2268  0.4122  0.5356
  698MOL0     N94146  -0.750   7.490   3.751 -0.6625  0.0467 -0.2244
  698MOL0     N94147  -0.749   7.614   3.771 -0.2954 -0.2300 -0.6027
  698MOL0     C94148   0.199   8.502   3.798 -0.9964 -0.8567 -0.0704
  698MOL0     C94149   0.310   8.558   3.735 -0.7158  0.0286 -0.4954
  698MOL0     C94150   0.657   8.806   3.665 -0.3717 -0.4297 -1.1248
  698MOL0     C94151   0.667   8.852   3.536  1.4492  0.6965  0.0525
  698MOL0     C94152   0.788   8.891   3.491 -1.0681  0.3882  1.3889
  698MOL0     C94153   0.903   8.892   3.574  0.4806 -1.0332 -0.2885
  698MOL0     O94154   1.021   8.930   3.512  0.2410  0.2957 -1.1278
  698MOL0     C94155   1.122   8.984   3.600  0.0898 -0.3288 -0.1010
  698MOL0     C94156   1.255   8.954   3.523 -0.0067  0.5521 -0.0319
  698MOL0     C94157   1.270   9.053   3.404 -0.1530 -0.0578 -0.2503
  698MOL0     C94158   1.297   9.201   3.461 -0.3305  0.2017 -0.7951
  698MOL0     C94159   1.406   9.190   3.563 -0.1535  0.4249 -0.3063
  698MOL0     C94160   1.485   9.203   3.657 -0.5390 -0.4788  0.0736
  698MOL0     C94161   0.897   8.853   3.711 -0.0635  0.2564  1.1338
  698MOL0     C94162   0.778   8.802   3.756  0.9377 -0.6473 -0.0090
  698MOL0     H94163   0.205   8.880   3.670  0.3075  1.2987  2.3058
  698MOL0     H94164   0.007   8.789   3.771  1.0831  1.0329  2.5872
  698MOL0     H94165   0.014   8.347   3.898  1.0108  1.5363 -0.1574
  698MOL0     H94166  -0.042   8.439   4.041 -1.6105  1.0820 -0.2304
  698MOL0     H94167  -0.273   8.424   3.958 -0.4790  3.2641 -3.6945
  698MOL0     H94168  -0.205   8.383   3.796  2.8257  2.4286  1.1709
  698MOL0     H94169  -0.162   8.144   3.861 -0.3820 -1.4165  1.3422
  698MOL0     H94170  -0.156   8.192   4.023 -0.8624  1.1412  1.5906
  698MOL0     H94171  -0.392   8.186   4.044  1.6046  1.1961  1.5955
  698MOL0     H94172  -0.419   8.203   3.864  0.0671 -0.4489  0.9068
  698MOL0     H94173  -0.337   7.987   3.814 -2.8159 -1.5361 -1.2401
  698MOL0     H94174  -0.276   7.957   3.981  1.5408  1.5270 -0.4041
  698MOL0     H94175  -0.532   7.982   4.044  1.1218 -2.5910  1.4524
  698MOL0     H94176  -0.566   8.012   3.867  0.4404  0.2716  0.0814
  698MOL0     H94177  -0.524   7.800   3.794 -0.4033  2.9071 -0.7846
  698MOL0     H94178  -0.447   7.757   3.950  1.9947  2.5435  1.2973
  698MOL0     H94179  -0.737   7.828   3.888 -1.0080 -1.1236  0.1899
  698MOL0     H94180  -0.687   7.779   4.050 -3.2752  3.7082 -0.3515
  698MOL0     H94181  -0.661   7.495   4.059  1.6481  2.1043  0.6849
  698MOL0     H94182  -0.666   7.220   3.802  3.9074  2.9254 -0.3620
  698MOL0     H94183  -0.612   7.265   3.964 -1.3383 -3.1042  1.8795
  698MOL0     H94184  -0.824   7.265   4.068 -1.3527 -2.8840  3.0383
  698MOL0     H94185  -0.795   7.104   4.003 -0.0728  0.4314 -2.1103
  698MOL0     H94186  -0.923   7.147   3.802  2.1973 -3.8877  2.7723
  698MOL0     H94187  -0.965   7.312   3.872 -1.8100 -0.3214 -0.2915
  698MOL0     H94188  -1.158   7.180   3.902  1.9695  4.6194 -0.3473
  698MOL0     H94189  -1.095   7.205   4.056  2.4794  3.1356 -0.7810
  698MOL0     H94190  -1.125   7.026   3.734  1.4155  0.3922 -1.3409
  698MOL0     H94191  -0.971   6.884   3.475  0.8765  0.5179 -0.2083
  698MOL0     H94192  -1.130   6.803   3.462 -2.3520  0.7734  1.3485
  698MOL0     H94193  -1.127   6.966   3.510  0.5778 -0.3606 -1.0258
  698MOL0     H94194  -0.804   6.434   3.429  0.3261 -0.9909 -0.9741
  698MOL0     H94195  -0.783   6.234   3.319 -0.1244 -0.7894 -1.2179
  698MOL0     H94196  -0.713   6.027   3.321 -2.3639  2.2306 -0.2523
  698MOL0     H94197  -0.761   5.919   3.448 -0.8442 -0.0940 -0.8843
  698MOL0     H94198  -0.841   5.842   3.177 -0.1067 -1.3752 -1.3927
  698MOL0     H94199  -0.674   5.818   3.230 -0.7098 -0.7441 -3.5883
  698MOL0     H94200  -0.952   5.727   3.348  0.3553  0.6686 -0.0397
  698MOL0     H94201  -0.800   5.675   3.434  0.8860  0.3447 -1.1916
  698MOL0     H94202  -0.912   5.592   3.158 -0.2596  1.5521  1.0380
  698MOL0     H94203  -0.758   5.535   3.216 -0.1147  2.1332 -2.0397
  698MOL0     H94204  -0.868   5.444   3.412  0.2418  3.0160  0.5122
  698MOL0     H94205  -0.925   5.381   3.253 -0.6353  0.2277 -0.9149
  698MOL0     H94206  -1.063   5.559   3.441 -0.7621 -1.3701  0.5933
  698MOL0     H94207  -1.135   5.541   3.276 -1.4481 -1.0699  0.0607
  698MOL0     H94208  -1.097   5.347   3.502 -0.6867 -0.8605  0.5787
  698MOL0     H94209  -1.138   5.288   3.339  0.7718 -0.7485  1.8631
  698MOL0     H94210  -1.301   5.478   3.504  0.9938 -1.6523  2.7114
  698MOL0     H94211  -1.316   5.298   3.480  0.8344  1.3751  2.6661
  698MOL0     H94212  -1.089   6.042   3.551 -1.1897 -0.2308  2.9403
  698MOL0     H94213  -1.086   6.251   3.702  0.2089  2.1101  0.4451
  698MOL0     H94214  -0.929   6.597   3.892  1.8746 -0.9891 -3.0252
  698MOL0     H94215  -0.963   6.780   4.047 -1.4142 -0.8749  0.6928
  698MOL0     H94216   0.205   8.402   3.841  2.8446 -1.3406 -1.3212
  698MOL0     H94217   0.405   8.505   3.732 -0.7783 -0.0914 -0.3534
  698MOL0     H94218   0.577   8.850   3.476  1.9520  1.8164 -0.7738
  698MOL0     H94219   0.823   8.890   3.388  0.1208 -1.2735  1.7749
  698MOL0     H94220   1.110   9.092   3.612 -0.2778 -0.3578 -0.1876
  698MOL0     H94221   1.118   8.940   3.699 -2.3567 -1.3789 -0.5876
  698MOL0     H94222   1.262   8.853   3.480  1.0051 -0.0348  1.4446
  698MOL0     H94223   1.338   8.957   3.593 -1.0567  0.1910  1.2814
  698MOL0     H94224   1.192   9.047   3.328  2.2329 -0.7805 -2.7947
  698MOL0     H94225   1.362   9.025   3.352 -0.2737 -0.4780 -0.2435
  698MOL0     H94226   1.205   9.242   3.505 -0.1932  0.6500 -0.9285
  698MOL0     H94227   1.336   9.263   3.381  2.5459 -2.1982 -1.4229
  698MOL0     H94228   1.553   9.199   3.740 -2.6843 -0.5810  1.9382
  698MOL0     H94229   0.980   8.855   3.780  0.4682 -2.7145  0.7227
  698MOL0     H94230   0.765   8.785   3.863 -3.0946 -2.7370 -0.6117
  699MOL0     O94231   8.354   7.043   1.592  0.0280  0.3410  0.1774
  699MOL0     C94232   8.314   6.970   1.498  0.4091  0.8366  0.6096
  699MOL0     O94233   8.314   7.014   1.371 -0.1131  0.5065  0.1948
  699MOL0     C94234   8.369   7.130   1.328  0.0835  0.6316 -0.0872
  699MOL0     C94235   8.310   7.199   1.216  0.3587  0.4181 -1.3442
  699MOL0     C94236   8.380   7.310   1.163 -0.2434 -0.2925 -0.0470
  699MOL0     C94237   8.513   7.337   1.210 -0.5507  0.5334  0.5948
  699MOL0     O94238   8.582   7.430   1.159  0.6377 -0.6505  1.0175
  699MOL0     C94239   8.617   7.415   1.015  0.1994  0.4960 -0.7317
  699MOL0     C94240   8.707   7.536   0.983  0.5490 -0.5206 -0.0548
  699MOL0     C94241   8.840   7.505   0.923 -1.2874  0.3071  0.0041
  699MOL0     C94242   8.827   7.424   0.782  0.0041  0.3286 -0.2601
  699MOL0     C94243   8.925   7.467   0.674 -0.1495 -0.3926 -0.5613
  699MOL0     C94244   9.065   7.408   0.686  0.0406 -0.2917  0.1148
  699MOL0     C94245   9.088   7.298   0.596 -0.2095 -0.4929  0.7450
  699MOL0     C94246   9.241   7.246   0.596  0.1796  0.2946  0.5622
  699MOL0     N94247   9.301   7.239   0.736  0.3149  0.4735 -0.1048
  699MOL0     C94248   9.405   7.314   0.791  0.1987  0.2449  0.7225
  699MOL0     C94249   9.406   7.274   0.921 -0.0838 -0.3596  0.3912
  699MOL0     C94250   9.501   7.356   1.013  0.7751  0.5766  0.0616
  699MOL0     C94251   9.429   7.393   1.150 -0.3529 -0.7769 -0.5487
  699MOL0     C94252   9.523   7.481   1.235 -0.5741 -0.0917  0.0071
  699MOL0     C94253   9.607   7.406   1.327  0.7480  0.2387  0.5518
  699MOL0     O94254   9.677   7.482   1.420 -0.2876 -0.7561  0.2029
  699MOL0     C94255   9.605   7.559   1.497  0.8500 -1.6759  0.1218
  699MOL0     C94256   9.529   7.508   1.602 -0.3953  0.1260  0.4887
  699MOL0     C94257   9.471   7.605   1.692 -0.8532 -0.3992  0.5641
  699MOL0     C94258   9.403   7.543   1.805 -0.1381  0.1270  0.9159
  699MOL0     C94259   9.470   7.739   1.675  0.0301 -0.0859  0.0852
  699MOL0     C94260   9.440   7.850   1.781 -1.3670  1.4621  0.0204
  699MOL0     O94261   9.528   7.958   1.790  0.0383 -0.9773  0.7743
  699MOL0     C94262   9.510   8.062   1.879 -0.7957  0.0201 -0.1066
  699MOL0     C94263   9.402   8.148   1.885  0.1723  0.0103 -0.7226
  699MOL0     C94264   9.397   8.261   1.968  0.0412 -0.1612 -1.3123
  699MOL0     C94265   9.512   8.295   2.050 -0.1779 -0.2352  0.4947
  699MOL0     O94266   9.499   8.410   2.120  0.8672 -0.1053 -0.3440
  699MOL0     C94267   9.610   8.505   2.127  1.6821 -0.0990 -0.3127
  699MOL0     C94268   9.651   8.565   2.002 -0.8540 -0.0258 -0.6473
  699MOL0     C94269   9.749   8.685   2.009  1.0165  0.3964  0.4344
  699MOL0     C94270   9.831   8.717   1.880 -0.4908  0.5464  1.4510
  699MOL0     C94271   9.929   8.833   1.906 -0.2576 -0.4004  0.6286
  699MOL0     C94272  10.015   8.860   1.783 -0.5797  0.7786  0.6631
  699MOL0     C94273   9.928   8.894   1.658 -0.1528  0.2774 -0.2292
  699MOL0     C94274  10.001   8.942   1.537 -0.5545 -1.3515 -0.4423
  699MOL0    Cl94275  10.137   8.836   1.486 -0.2075  0.1878  0.0942
  699MOL0     C94276   9.624   8.210   2.047  0.0907 -1.4503  0.3106
  699MOL0     C94277   9.623   8.100   1.956  0.0682  0.3410 -0.0903
  699MOL0     O94278   9.347   7.826   1.864  0.9966  0.6092 -0.0054
  699MOL0     C94279   9.542   7.785   1.556 -0.9660  0.8889  0.9436
  699MOL0     C94280   9.601   7.698   1.472  0.7338  0.3566  0.1158
  699MOL0     N94281   9.313   7.175   0.947  0.2397 -0.2581  0.0616
  699MOL0     N94282   9.254   7.157   0.835 -0.2336  1.2763  0.7067
  699MOL0     C94283   8.574   7.274   1.322 -0.2970  0.0751  0.4621
  699MOL0     C94284   8.501   7.172   1.368 -0.2629  0.0178  0.0310
  699MOL0     C94285   8.293   6.821   1.518  0.1897  0.0122 -0.6363
  699MOL0     C94286   8.247   6.775   1.639  0.1019 -0.1033 -0.3225
  699MOL0     C94287   8.232   6.636   1.661 -0.8680  0.1254 -0.8622
  699MOL0     C94288   8.263   6.547   1.559  0.2435  0.6014 -0.0675
  699MOL0     O94289   8.262   6.417   1.589  0.0380 -0.1987 -0.3183
  699MOL0     C94290   8.184   6.346   1.499  0.2902  0.6318 -0.2114
  699MOL0     C94291   8.122   6.234   1.575  0.2510 -0.4433 -0.2128
  699MOL0     C94292   7.980   6.251   1.631  1.0881 -0.3512  0.6922
  699MOL0     C94293   7.975   6.326   1.765 -0.4250 -0.3107 -0.1586
  699MOL0     C94294   7.857   6.314   1.854 -0.5627 -0.3418  0.3764
  699MOL0     C94295   7.781   6.297   1.945  0.3638  0.5005  0.3116
  699MOL0     C94296   8.326   6.597   1.440  0.0769  0.6942  0.3990
  699MOL0     C94297   8.331   6.730   1.415  0.2056 -0.6574 -0.0746
  699MOL0     H94298   8.209   7.170   1.191 -0.9328  4.2890 -1.3343
  699MOL0     H94299   8.334   7.362   1.079  0.5611 -0.0924 -0.3713
  699MOL0     H94300   8.653   7.315   0.990 -3.3142 -0.7036 -1.6401
  699MOL0     H94301   8.522   7.426   0.961  0.5441 -0.3028 -1.5230
  699MOL0     H94302   8.645   7.601   0.920  1.0235  3.7517  3.4487
  699MOL0     H94303   8.718   7.590   1.077  2.4377 -0.6484 -0.1685
  699MOL0     H94304   8.888   7.602   0.908 -1.4359  0.2454 -0.9367
  699MOL0     H94305   8.892   7.447   0.999 -2.9303  1.5588  2.1875
  699MOL0     H94306   8.837   7.316   0.793 -2.4507  0.3262  3.6763
  699MOL0     H94307   8.727   7.439   0.741 -0.3987 -4.2262 -1.4987
  699MOL0     H94308   8.877   7.446   0.579 -2.7489  0.3365  0.5014
  699MOL0     H94309   8.947   7.573   0.690 -0.0529 -0.4939  0.0031
  699MOL0     H94310   9.133   7.488   0.655 -3.0006  1.9693 -1.2835
  699MOL0     H94311   9.075   7.379   0.791 -0.3561  0.3978  0.3523
  699MOL0     H94312   9.008   7.223   0.606 -1.1407 -0.0169 -2.1628
  699MOL0     H94313   9.068   7.337   0.496 -2.5548 -0.4572  1.1682
  699MOL0     H94314   9.307   7.313   0.540 -2.3591  1.3695 -1.2906
  699MOL0     H94315   9.238   7.144   0.557 -1.1045 -0.9149  3.5025
  699MOL0     H94316   9.455   7.401   0.749 -0.7962  1.1001  1.2465
  699MOL0     H94317   9.584   7.296   1.052 -0.6352  0.0065  2.3888
  699MOL0     H94318   9.548   7.441   0.962  0.2452 -0.7686 -2.9018
  699MOL0     H94319   9.423   7.300   1.207 -1.1330  0.7857  2.1087
  699MOL0     H94320   9.327   7.431   1.140 -0.9734 -2.7136 -2.2929
  699MOL0     H94321   9.465   7.553   1.293  0.5409  2.5862 -2.0173
  699MOL0     H94322   9.579   7.536   1.159 -2.6869  1.1927 -0.7168
  699MOL0     H94323   9.678   7.339   1.277 -1.6585 -0.5592 -2.0745
  699MOL0     H94324   9.540   7.344   1.388 -1.6359  2.6399  0.5392
  699MOL0     H94325   9.513   7.402   1.615 -0.7362  0.3714  2.3076
  699MOL0     H94326   9.317   7.592   1.852 -0.7429  0.6239 -0.6486
  699MOL0     H94327   9.368   7.440   1.793  0.7698 -0.0960  0.1117
  699MOL0     H94328   9.475   7.554   1.887  1.6989 -1.2362 -0.4528
  699MOL0     H94329   9.316   8.110   1.830 -2.7831  0.6546  3.0795
  699MOL0     H94330   9.303   8.316   1.973  0.7832  1.0798 -0.2583
  699MOL0     H94331   9.581   8.585   2.197 -0.8996 -2.0997  1.1031
  699MOL0     H94332   9.700   8.463   2.171 -0.3681 -1.0971  3.4322
  699MOL0     H94333   9.707   8.485   1.951  1.5631  1.4906 -0.5166
  699MOL0     H94334   9.563   8.589   1.941 -1.3830  1.3558  0.6187
  699MOL0     H94335   9.823   8.662   2.086  2.9295 -2.5602 -2.0387
  699MOL0     H94336   9.692   8.773   2.040 -0.1321 -0.1195 -0.1860
  699MOL0     H94337   9.893   8.628   1.867 -1.2138  0.0808  1.1290
  699MOL0     H94338   9.775   8.737   1.788  0.4158  1.3204  1.0497
  699MOL0     H94339   9.994   8.821   1.993  2.5199  2.6329 -0.7894
  699MOL0     H94340   9.863   8.918   1.927  0.6105  0.2966  0.5877
  699MOL0     H94341  10.068   8.953   1.802 -2.6830  2.3724 -0.7602
  699MOL0     H94342  10.079   8.774   1.763 -2.0409 -0.4411  1.0161
  699MOL0     H94343   9.846   8.961   1.684 -0.5984  0.3880 -1.8080
  699MOL0     H94344   9.878   8.803   1.626 -0.3852  0.3390 -0.0416
  699MOL0     H94345  10.035   9.040   1.572 -4.8097 -0.9616  3.5788
  699MOL0     H94346   9.929   8.954   1.456  0.0269  2.9198 -0.5512
  699MOL0     H94347   9.716   8.245   2.094  0.2785 -1.7897  0.1992
  699MOL0     H94348   9.719   8.050   1.950 -0.5447 -0.8425 -0.2304
  699MOL0     H94349   9.552   7.892   1.543  0.2531  1.2701  4.0363
  699MOL0     H94350   9.656   7.725   1.382  0.2060 -2.9704 -1.3379
  699MOL0     H94351   8.677   7.282   1.353 -0.3954 -0.4041  0.9310
  699MOL0     H94352   8.552   7.106   1.438  4.1029  0.9376 -1.9531
  699MOL0     H94353   8.225   6.847   1.717  1.5313  0.0186 -0.0016
  699MOL0     H94354   8.195   6.597   1.755 -0.0930  3.6907  1.1045
  699MOL0     H94355   8.100   6.399   1.455 -1.5774 -0.7471  1.5246
  699MOL0     H94356   8.250   6.315   1.417 -1.8549 -1.5606 -1.2482
  699MOL0     H94357   8.180   6.220   1.667  1.8120  2.6485 -0.5828
  699MOL0     H94358   8.134   6.139   1.522  0.2317 -0.2038 -0.6579
  699MOL0     H94359   7.917   6.163   1.644 -2.7487  1.5650 -2.7515
  699MOL0     H94360   7.923   6.312   1.561  2.2659 -1.0374 -0.9170
  699MOL0     H94361   7.982   6.432   1.739 -1.2950 -0.1303  0.2850
  699MOL0     H94362   8.067   6.306   1.819  1.4377 -0.6939 -3.2263
  699MOL0     H94363   7.716   6.259   2.021  0.8625 -0.0199  0.4847
  699MOL0     H94364   8.365   6.529   1.365 -0.5619 -0.7039  1.2784
  699MOL0     H94365   8.339   6.767   1.313 -0.2725  2.7216  1.0174
  700MOL0     O94366   6.888   8.283   9.400 -0.2143 -0.0599 -0.4234
  700MOL0     C94367   6.947   8.331   9.304 -1.3316  0.5846  0.2238
  700MOL0     O94368   7.083   8.360   9.301 -0.3220  0.6396 -0.1504
  700MOL0     C94369   7.155   8.292   9.391 -0.0297 -1.1366 -0.3287
  700MOL0     C94370   7.196   8.158   9.394 -0.7413 -0.2268  0.4651
  700MOL0     C94371   7.258   8.102   9.510  0.5453 -0.7968  0.4069
  700MOL0     C94372   7.289   8.179   9.620  0.8617  0.4025 -1.0100
  700MOL0     O94373   7.340   8.127   9.741 -0.4527 -0.3005  0.4224
  700MOL0     C94374   7.424   8.006   9.720  0.4856 -1.5600 -0.2815
  700MOL0     C94375   7.492   7.966   9.858  0.1622 -0.2669  0.1103
  700MOL0     C94376   7.607   8.058   9.882  0.0274  0.2333 -0.0207
  700MOL0     C94377   7.752   7.991   9.873 -0.7348  0.5477 -0.7254
  700MOL0     C94378   7.869   8.068   9.944  0.3371  0.0355  0.3836
  700MOL0     C94379   7.875   8.220   9.931  0.1388  0.7763  0.5477
  700MOL0     C94380   7.936   8.270   9.787 -0.4527 -0.0922 -0.1195
  700MOL0     C94381   7.912   8.431   9.788  0.8190  0.1610 -0.6413
  700MOL0     N94382   7.962   8.495   9.663 -0.2804  0.2290 -0.3514
  700MOL0     C94383   7.930   8.620   9.628 -0.0498  0.3550 -0.2359
  700MOL0     C94384   7.992   8.631   9.512 -0.5708 -0.7951 -0.6443
  700MOL0     C94385   8.010   8.751   9.419  1.0376  0.6647  0.6129
  700MOL0     C94386   7.922   8.729   9.299 -0.1949 -0.1961  0.5779
  700MOL0     C94387   7.972   8.622   9.204 -0.1696 -0.2004 -0.9019
  700MOL0     C94388   7.913   8.644   9.062  0.4889 -0.3315  0.7836
  700MOL0     O94389   8.007   8.725   8.990  0.0346  0.6587  0.4586
  700MOL0     C94390   7.981   8.793   8.873  0.4525  0.1348  0.4475
  700MOL0     C94391   8.068   8.895   8.823 -0.5818 -0.0172  0.8059
  700MOL0     C94392   8.052   8.950   8.696  0.5734 -0.3257 -0.2077
  700MOL0     C94393   8.161   9.042   8.648  0.1362 -0.6824 -0.4308
  700MOL0     C94394   7.925   8.932   8.629  0.1203 -0.3517  0.5527
  700MOL0     C94395   7.873   9.016   8.522  0.3395  0.0858  0.4225
  700MOL0     O94396   7.736   9.020   8.520  0.2399 -0.9085  0.4929
  700MOL0     C94397   7.677   9.122   8.439  0.6855 -0.2071  0.9812
  700MOL0     C94398   7.580   9.203   8.497  0.5355  0.6851  0.3274
  700MOL0     C94399   7.507   9.296   8.419 -0.1328  0.8229  0.1079
  700MOL0     C94400   7.509   9.291   8.278  0.7180  0.5800  0.0616
  700MOL0     O94401   7.432   9.377   8.212 -0.2835 -0.1422  0.2435
  700MOL0     C94402   7.478   9.444   8.092  0.7254 -1.1696  0.4299
  700MOL0     C94403   7.393   9.565   8.052 -0.0739 -0.5609 -0.3266
  700MOL0     C94404   7.406   9.574   7.893 -0.1100 -1.0350  0.5263
  700MOL0     C94405   7.322   9.694   7.839  0.1975  0.2361  0.2053
  700MOL0     C94406   7.367   9.742   7.697  0.0364 -0.4892  0.8083
  700MOL0     C94407   7.350   9.627   7.588 -0.5610 -0.2463  0.0712
  700MOL0     C94408   7.409   9.642   7.452 -0.5036 -0.2721  0.1246
  700MOL0     C94409   7.557   9.647   7.452  0.6292 -0.1227  0.9569
  700MOL0    Cl94410   7.613   9.651   7.284  0.2322 -0.0337  0.6067
  700MOL0     C94411   7.597   9.200   8.222  0.3128 -0.3946  0.5053
  700MOL0     C94412   7.684   9.122   8.290  0.5203  0.7511 -0.7805
  700MOL0     O94413   7.948   9.067   8.437  0.2202  0.7712 -0.7019
  700MOL0     C94414   7.841   8.822   8.675 -0.0971 -0.3467  0.9358
  700MOL0     C94415   7.874   8.750   8.784  0.2928  0.5336 -0.6684
  700MOL0     N94416   8.065   8.521   9.477  0.3128 -0.3445  0.3681
  700MOL0     N94417   8.058   8.442   9.584 -0.3627  0.4338  0.8557
  700MOL0     C94418   7.256   8.318   9.616 -0.4845  0.4621  1.1691
  700MOL0     C94419   7.195   8.370   9.501 -0.5844 -0.1669 -0.3221
  700MOL0     C94420   6.887   8.391   9.183  0.4662 -0.1561  0.3029
  700MOL0     C94421   6.952   8.495   9.097 -0.1326 -0.4656 -0.0480
  700MOL0     C94422   6.885   8.542   8.985 -0.3476 -0.4320 -0.5410
  700MOL0     C94423   6.759   8.489   8.946 -0.0154 -0.2695  0.6097
  700MOL0     O94424   6.701   8.527   8.826 -0.1564 -0.2162 -0.9264
  700MOL0     C94425   6.763   8.622   8.740  0.5389  0.2202 -0.6313
  700MOL0     C94426   6.675   8.685   8.628  0.4325  0.6492 -0.5320
  700MOL0     C94427   6.748   8.797   8.558 -0.3371 -0.8524 -0.4297
  700MOL0     C94428   6.884   8.782   8.514 -0.3100  1.0852  0.3499
  700MOL0     C94429   6.902   8.666   8.423  0.0686 -0.1006  0.3255
  700MOL0     C94430   6.929   8.584   8.342 -0.2907  0.6793 -0.3188
  700MOL0     C94431   6.693   8.413   9.036  1.2273 -0.1880 -0.6421
  700MOL0     C94432   6.754   8.365   9.152  0.6039 -1.5610  0.8194
  700MOL0     H94433   7.165   8.103   9.306  1.4827  0.4574 -0.8437
  700MOL0     H94434   7.273   7.994   9.505  2.1698 -0.7097  2.3516
  700MOL0     H94435   7.362   7.920   9.696 -2.5011  0.2126  0.5511
  700MOL0     H94436   7.509   8.015   9.652  0.8143 -2.6619 -0.0270
  700MOL0     H94437   7.422   7.959   9.942 -1.2062 -1.3515 -1.0767
  700MOL0     H94438   7.543   7.872   9.833  0.2305  0.1477 -1.4383
  700MOL0     H94439   7.609   8.144   9.814  1.3851 -0.2071 -0.5717
  700MOL0     H94440   7.611   8.097   9.984  1.3732 -0.3482  0.1720
  700MOL0     H94441   7.741   7.894   9.923  1.0076  0.6533 -0.0881
  700MOL0     H94442   7.780   7.961   9.771 -1.3740  0.0083 -0.7533
  700MOL0     H94443   7.867   8.034  10.048  0.1497  1.4314  0.8602
  700MOL0     H94444   7.963   8.031   9.902 -1.0618 -1.2197 -1.8793
  700MOL0     H94445   7.774   8.263   9.927  0.2124  0.8574 -1.5299
  700MOL0     H94446   7.936   8.263  10.011  2.0582 -1.8963  0.6512
  700MOL0     H94447   8.042   8.250   9.772 -0.9793 -2.9839 -0.5468
  700MOL0     H94448   7.882   8.228   9.702  0.1585 -2.3184  0.5408
  700MOL0     H94449   7.960   8.478   9.875  3.9746 -0.2581 -2.0297
  700MOL0     H94450   7.803   8.443   9.788  0.7541 -0.1969 -2.1611
  700MOL0     H94451   7.855   8.684   9.674  1.0119  1.8855 -0.5761
  700MOL0     H94452   7.975   8.840   9.471  0.4708  1.3792 -0.9332
  700MOL0     H94453   8.115   8.764   9.394  0.1633  1.0501 -3.5482
  700MOL0     H94454   7.916   8.827   9.251  1.2239 -1.0879 -1.5760
  700MOL0     H94455   7.818   8.707   9.326  0.0164 -2.8055 -0.4512
  700MOL0     H94456   7.933   8.528   9.245  2.0744 -1.3590 -1.2990
  700MOL0     H94457   8.080   8.613   9.197  0.5987  2.3205  3.8597
  700MOL0     H94458   7.818   8.696   9.080 -0.3097 -1.1978 -0.7031
  700MOL0     H94459   7.888   8.555   9.004  2.3809 -1.3664  1.4895
  700MOL0     H94460   8.155   8.919   8.882  0.3762  2.0974 -1.3108
  700MOL0     H94461   8.151   9.146   8.681  2.2887 -0.3399 -0.7589
  700MOL0     H94462   8.253   9.009   8.697 -0.5302  1.8816  2.9872
  700MOL0     H94463   8.182   9.053   8.542  3.5097  2.9055  0.3854
  700MOL0     H94464   7.577   9.203   8.605 -1.0121 -0.3768  0.3127
  700MOL0     H94465   7.445   9.376   8.458 -0.8055 -0.4561  1.7599
  700MOL0     H94466   7.579   9.480   8.114  0.7051  0.0698 -1.3186
  700MOL0     H94467   7.480   9.361   8.020  0.3243 -1.7190  1.0331
  700MOL0     H94468   7.289   9.549   8.081  0.1616 -2.8984 -0.5479
  700MOL0     H94469   7.427   9.650   8.111 -2.2754  0.4945 -0.4815
  700MOL0     H94470   7.378   9.479   7.847  0.8802 -1.5110  0.8813
  700MOL0     H94471   7.501   9.608   7.851 -2.0798  1.5049 -2.3018
  700MOL0     H94472   7.220   9.654   7.830 -0.5063  2.0095 -0.1832
  700MOL0     H94473   7.312   9.773   7.914  1.9123 -0.0516  0.7778
  700MOL0     H94474   7.474   9.763   7.709  0.5944 -3.4514  1.8270
  700MOL0     H94475   7.314   9.832   7.663  0.5099 -0.8776 -1.0704
  700MOL0     H94476   7.407   9.549   7.640  1.0998  0.1015 -1.1614
  700MOL0     H94477   7.244   9.599   7.588 -0.7006  0.2652 -0.7986
  700MOL0     H94478   7.366   9.737   7.418 -0.4788 -0.4391 -0.3873
  700MOL0     H94479   7.362   9.569   7.385 -0.0414 -0.7279  0.2942
  700MOL0     H94480   7.590   9.556   7.503 -2.8178 -0.5676  2.6871
  700MOL0     H94481   7.590   9.743   7.493  0.6491  0.9667 -1.4120
  700MOL0     H94482   7.615   9.199   8.115  0.7015 -0.1353  0.5649
  700MOL0     H94483   7.748   9.047   8.245 -1.9385 -2.3888  0.5601
  700MOL0     H94484   7.744   8.788   8.642 -1.0773  1.4091  1.8579
  700MOL0     H94485   7.789   8.691   8.820 -0.3853  0.8227 -1.7559
  700MOL0     H94486   7.278   8.379   9.703  2.3253 -3.3711  3.4432
  700MOL0     H94487   7.149   8.468   9.507 -1.2845 -0.5164  0.2247
  700MOL0     H94488   7.050   8.537   9.115 -0.0450 -0.5027 -0.4345
  700MOL0     H94489   6.937   8.617   8.926  0.4840 -0.4724  0.1186
  700MOL0     H94490   6.795   8.706   8.803 -0.7767  0.6853 -0.5337
  700MOL0     H94491   6.859   8.588   8.701  2.7075  4.4110  0.4013
  700MOL0     H94492   6.589   8.729   8.680  0.1217 -0.5446  0.0063
  700MOL0     H94493   6.634   8.616   8.553 -0.3386  1.7273 -1.1381
  700MOL0     H94494   6.745   8.873   8.637 -3.5998 -1.3775  0.0874
  700MOL0     H94495   6.690   8.838   8.474 -3.6979  0.5325  2.3075
  700MOL0     H94496   6.953   8.757   8.594  2.0414 -2.0477 -2.3889
  700MOL0     H94497   6.918   8.865   8.452  2.3108  1.1158  1.7024
  700MOL0     H94498   6.938   8.504   8.271 -2.6534 -1.8744  2.0085
  700MOL0     H94499   6.590   8.386   9.013  0.5708  2.3956 -1.0677
  700MOL0     H94500   6.705   8.287   9.209  1.8810 -3.4581 -0.5559
  701MOL0     O94501   8.779   4.856   0.405  0.2648  0.0343  0.1518
  701MOL0     C94502   8.716   4.830   0.303 -0.5027 -0.0873  0.5299
  701MOL0     O94503   8.751   4.878   0.178 -0.2690  0.0933  0.3610
  701MOL0     C94504   8.890   4.872   0.142 -0.3236 -0.4065 -0.1117
  701MOL0     C94505   8.943   4.982   0.073  0.0976  0.7229  0.3319
  701MOL0     C94506   9.080   4.982   0.042 -0.4854  0.3868 -0.2006
  701MOL0     C94507   9.170   4.882   0.086 -0.1130  0.7865  0.3975
  701MOL0     O94508   9.306   4.894   0.077 -1.0731  1.1683  1.2821
  701MOL0     C94509   9.365   4.946   0.195  0.5658 -0.3306 -1.4335
  701MOL0     C94510   9.511   4.990   0.178  0.0516  0.9698 -0.1038
  701MOL0     C94511   9.524   5.132   0.126 -0.4555 -0.1909 -0.0337
  701MOL0     C94512   9.654   5.167   0.060  0.0067 -0.2122  0.3430
  701MOL0     C94513   9.777   5.165   0.153  0.3255 -0.0652 -0.5341
  701MOL0     C94514   9.913   5.210   0.079 -0.9494  0.3453  0.0393
  701MOL0     C94515   9.928   5.366   0.080 -0.3609  0.0633  0.2981
  701MOL0     C94516   9.813   5.447   0.023  0.4749  0.1894 -0.3689
  701MOL0     N94517   9.836   5.588  -0.019  0.0624  0.4942  0.0479
  701MOL0     C94518   9.903   5.638  -0.136  0.3969  0.3128  0.1978
  701MOL0     C94519   9.895   5.771  -0.119  0.6955 -0.1015 -0.4846
  701MOL0     C94520   9.953   5.884  -0.208  0.3445  0.4678 -0.4950
  701MOL0     C94521  10.033   5.829  -0.318 -0.4745 -0.2755  0.1680
  701MOL0     C94522  10.066   5.926  -0.442 -0.4757  0.5118 -0.5998
  701MOL0     C94523  10.132   6.051  -0.400  0.1616  0.1695 -0.4963
  701MOL0     O94524  10.208   6.104  -0.512 -0.9288 -0.1267  0.2221
  701MOL0     C94525  10.218   6.240  -0.548  0.4596  0.7508 -0.9777
  701MOL0     C94526  10.348   6.297  -0.576  0.1921 -0.2639  0.7026
  701MOL0     C94527  10.367   6.433  -0.619 -0.3788  0.5434 -0.1840
  701MOL0     C94528  10.511   6.489  -0.627  0.1451  0.1459 -0.6732
  701MOL0     C94529  10.252   6.507  -0.635 -0.2303  0.5522 -0.4963
  701MOL0     C94530  10.257   6.650  -0.670 -0.6901 -0.0056  0.1783
  701MOL0     O94531  10.153   6.684  -0.763 -0.5568  0.3876  0.0562
  701MOL0     C94532  10.115   6.814  -0.755 -0.2528 -0.6201  0.3838
  701MOL0     C94533  10.151   6.904  -0.861 -0.7426 -0.9726 -0.7953
  701MOL0     C94534  10.120   7.039  -0.850  0.0140  0.0191 -0.2234
  701MOL0     C94535  10.070   7.085  -0.725 -0.5137 -0.3368  0.5715
  701MOL0     O94536  10.053   7.224  -0.711 -0.0829  0.1058  0.8423
  701MOL0     C94537  10.137   7.319  -0.786 -0.4532  0.3866 -0.1603
  701MOL0     C94538  10.109   7.461  -0.750 -0.1567 -0.8746 -0.0377
  701MOL0     C94539  10.235   7.540  -0.769  0.2827 -0.0314 -0.0069
  701MOL0     C94540  10.307   7.545  -0.641  0.0437 -0.2511 -0.0615
  701MOL0     C94541  10.450   7.603  -0.658  0.3103 -0.2043  1.0921
  701MOL0     C94542  10.500   7.658  -0.531  0.0984 -0.0344 -0.7859
  701MOL0     C94543  10.539   7.557  -0.418  0.2378 -0.5095  0.0419
  701MOL0     C94544  10.657   7.464  -0.458  0.1443 -0.7507  0.9074
  701MOL0    Cl94545  10.690   7.359  -0.310 -0.0027  0.0040  0.2252
  701MOL0     C94546  10.028   7.002  -0.623 -0.3752 -0.4594 -0.3522
  701MOL0     C94547  10.053   6.866  -0.640  0.0704 -0.2691  0.0480
  701MOL0     O94548  10.316   6.724  -0.595 -0.6891 -0.5580  0.2400
  701MOL0     C94549  10.125   6.448  -0.618 -0.3379 -0.8191 -0.5137
  701MOL0     C94550  10.105   6.321  -0.584 -0.3228 -0.4540  0.0922
  701MOL0     N94551   9.836   5.805  -0.001 -0.7266 -0.4170  0.2433
  701MOL0     N94552   9.797   5.697   0.053 -0.5398 -0.1581 -0.1586
  701MOL0     C94553   9.115   4.769   0.153 -0.3718  0.0056 -0.8961
  701MOL0     C94554   8.981   4.768   0.174  0.5211 -0.3268 -0.0118
  701MOL0     C94555   8.585   4.769   0.302  0.5966 -0.3207  0.1509
  701MOL0     C94556   8.531   4.704   0.183  0.6027  0.0666 -1.1402
  701MOL0     C94557   8.402   4.643   0.186 -0.1967  0.8385 -0.2340
  701MOL0     C94558   8.328   4.646   0.307 -0.7073  0.4872  0.8014
  701MOL0     O94559   8.206   4.589   0.322  0.7286 -1.1316  0.5763
  701MOL0     C94560   8.138   4.545   0.201 -0.4348 -0.8872  0.1368
  701MOL0     C94561   8.002   4.481   0.245  0.0928 -0.0552  0.4850
  701MOL0     C94562   8.008   4.354   0.329 -0.3693  0.2205 -0.3460
  701MOL0     C94563   7.869   4.301   0.377 -1.1724  0.3751  1.2113
  701MOL0     C94564   7.775   4.257   0.265 -0.2983 -0.0450 -0.3880
  701MOL0     C94565   7.689   4.237   0.175 -0.4181 -1.4009 -0.6493
  701MOL0     C94566   8.379   4.715   0.409 -1.0090  0.1535 -0.0918
  701MOL0     C94567   8.506   4.776   0.422  0.2446 -0.3696  1.0200
  701MOL0     H94568   8.887   5.069   0.039 -1.7838  0.3550  2.2501
  701MOL0     H94569   9.121   5.072  -0.002 -0.3090 -0.0436 -0.9289
  701MOL0     H94570   9.313   5.038   0.222  0.4156 -0.3499 -1.6575
  701MOL0     H94571   9.365   4.864   0.267  0.8501 -0.0882 -1.1516
  701MOL0     H94572   9.555   4.971   0.276 -0.3853  1.7311  0.2458
  701MOL0     H94573   9.560   4.920   0.110 -2.7465 -1.0474 -0.2560
  701MOL0     H94574   9.442   5.156   0.058 -1.7547  0.2687  1.6370
  701MOL0     H94575   9.506   5.196   0.214 -4.9499 -1.9959  0.6273
  701MOL0     H94576   9.666   5.089  -0.016 -0.3196 -0.7810  0.8654
  701MOL0     H94577   9.647   5.258  -0.000 -1.4988 -0.4223  0.1528
  701MOL0     H94578   9.762   5.236   0.235 -0.9830 -0.0160 -0.7834
  701MOL0     H94579   9.789   5.065   0.195 -0.6483 -0.2864 -0.7518
  701MOL0     H94580  10.006   5.162   0.111  1.8148  3.1883 -3.0615
  701MOL0     H94581   9.902   5.179  -0.025 -0.2496 -2.8452  0.8053
  701MOL0     H94582   9.947   5.407   0.180  0.3967  0.3969  0.0191
  701MOL0     H94583  10.019   5.386   0.023 -0.6955 -2.0002 -1.0759
  701MOL0     H94584   9.729   5.445   0.092 -0.1884  0.9535 -1.1250
  701MOL0     H94585   9.789   5.396  -0.071 -2.3461  0.8617 -0.0997
  701MOL0     H94586   9.952   5.568  -0.202 -0.2003 -0.4910  0.5889
  701MOL0     H94587   9.869   5.942  -0.248  2.2557  2.1713 -2.2950
  701MOL0     H94588  10.000   5.957  -0.141 -2.5945  0.5563  1.6574
  701MOL0     H94589   9.978   5.746  -0.364 -0.5520 -0.1893  0.1054
  701MOL0     H94590  10.119   5.782  -0.271 -0.1896  1.5303  1.5701
  701MOL0     H94591   9.975   5.941  -0.501  0.4633  3.1844 -1.4672
  701MOL0     H94592  10.125   5.866  -0.512 -2.8139 -0.7664 -1.6147
  701MOL0     H94593  10.205   6.036  -0.319 -1.5340  1.7145  1.4224
  701MOL0     H94594  10.059   6.119  -0.355  1.0866  1.4486 -0.8454
  701MOL0     H94595  10.435   6.238  -0.550 -0.1215 -0.6293  0.9285
  701MOL0     H94596  10.546   6.479  -0.730 -1.8463  0.5864 -1.4400
  701MOL0     H94597  10.524   6.588  -0.581 -1.0081 -0.2964  0.6818
  701MOL0     H94598  10.586   6.430  -0.573  2.3979  3.2245 -0.1602
  701MOL0     H94599  10.198   6.851  -0.943 -3.1963 -2.2333 -1.4871
  701MOL0     H94600  10.136   7.108  -0.932  0.2702 -0.7847 -0.8549
  701MOL0     H94601  10.242   7.297  -0.765  0.0944  2.0249 -1.0018
  701MOL0     H94602  10.131   7.307  -0.894 -1.8658 -2.4996  0.1251
  701MOL0     H94603  10.030   7.484  -0.823 -1.6752 -0.5765  1.6281
  701MOL0     H94604  10.066   7.476  -0.651  1.3153 -2.4065  0.8850
  701MOL0     H94605  10.192   7.640  -0.783 -2.9170 -1.2610  0.1707
  701MOL0     H94606  10.299   7.511  -0.853  1.5735  3.1099 -0.2546
  701MOL0     H94607  10.249   7.610  -0.575 -1.3105  0.3400 -1.7425
  701MOL0     H94608  10.311   7.447  -0.592  4.0992 -0.8190 -1.1735
  701MOL0     H94609  10.442   7.677  -0.738  2.9041 -0.5673  0.4017
  701MOL0     H94610  10.521   7.533  -0.704  0.9679  1.3629 -0.4306
  701MOL0     H94611  10.578   7.731  -0.556 -1.8702  2.6286  0.3820
  701MOL0     H94612  10.421   7.721  -0.490  0.1652 -1.8914  2.5194
  701MOL0     H94613  10.454   7.490  -0.399  0.3244 -1.1641 -1.7061
  701MOL0     H94614  10.554   7.609  -0.323 -3.2168 -4.1859  2.9797
  701MOL0     H94615  10.732   7.542  -0.468 -1.3717  0.8271  1.3208
  701MOL0     H94616  10.640   7.419  -0.556  0.9201  1.1545 -0.1412
  701MOL0     H94617   9.996   7.040  -0.526  3.8673  2.5210  0.1499
  701MOL0     H94618  10.032   6.791  -0.564 -3.8591 -0.6003 -1.1329
  701MOL0     H94619  10.040   6.505  -0.654 -0.1005  0.9339  1.5482
  701MOL0     H94620  10.006   6.275  -0.585  0.0146 -1.2366  0.8267
  701MOL0     H94621   9.188   4.694   0.182 -0.5669  1.0889  2.9249
  701MOL0     H94622   8.928   4.685   0.221 -0.4095 -0.2608 -0.9042
  701MOL0     H94623   8.595   4.698   0.096 -0.9095 -1.8534 -2.2016
  701MOL0     H94624   8.363   4.592   0.098 -0.0026  0.0616  0.1248
  701MOL0     H94625   8.116   4.626   0.130 -1.9121 -1.1969  0.1957
  701MOL0     H94626   8.198   4.463   0.160  0.3358 -1.2863  1.9951
  701MOL0     H94627   7.951   4.458   0.151  2.0255 -0.9342 -0.3941
  701MOL0     H94628   7.948   4.558   0.300 -4.3219 -2.2769 -0.2434
  701MOL0     H94629   8.054   4.383   0.424  1.0491 -0.4215 -0.8115
  701MOL0     H94630   8.081   4.279   0.297  0.5890 -0.2611  2.6641
  701MOL0     H94631   7.804   4.374   0.427 -0.9434  1.5383 -0.1353
  701MOL0     H94632   7.884   4.211   0.438  0.6674 -2.2874 -2.7692
  701MOL0     H94633   7.636   4.229   0.082 -3.7266  2.9650  0.5416
  701MOL0     H94634   8.317   4.710   0.498 -1.9330 -1.3916 -0.7814
  701MOL0     H94635   8.528   4.826   0.515  3.3091 -1.6243  1.0703
  702MOL0     O94636   2.833   4.631  11.243  0.3715  0.2217  0.7510
  702MOL0     C94637   2.842   4.661  11.126 -0.2180  0.9735  0.8822
  702MOL0     O94638   2.898   4.772  11.070  0.3700  0.2661  0.6995
  702MOL0     C94639   2.930   4.870  11.151 -0.8929 -0.6263 -0.9127
  702MOL0     C94640   3.004   4.858  11.273  0.6177 -0.1013  0.6712
  702MOL0     C94641   3.050   4.968  11.342 -0.8378  0.7349  0.3286
  702MOL0     C94642   3.011   5.098  11.306  0.0327  0.0270  0.9168
  702MOL0     O94643   3.068   5.207  11.370  0.2875 -0.7234 -0.2836
  702MOL0     C94644   3.211   5.209  11.382 -0.2587  0.1396  1.4091
  702MOL0     C94645   3.247   5.194  11.525 -0.3119 -0.2666 -0.3575
  702MOL0     C94646   3.199   5.304  11.618 -1.0983 -0.4521  0.3687
  702MOL0     C94647   3.233   5.267  11.766 -0.3295 -0.3174 -0.3092
  702MOL0     C94648   3.215   5.384  11.866  0.0091 -0.2773 -0.0496
  702MOL0     C94649   3.349   5.383  11.944  0.7831  0.1678  0.0718
  702MOL0     C94650   3.368   5.514  12.018 -0.0639  0.5644  0.8870
  702MOL0     C94651   3.327   5.502  12.167  0.4382 -0.7594 -0.3779
  702MOL0     N94652   3.427   5.464  12.268  0.5995 -0.1376  0.1576
  702MOL0     C94653   3.501   5.545  12.355 -0.7260 -0.8484  0.0266
  702MOL0     C94654   3.577   5.470  12.436  0.9949  0.3195 -0.1686
  702MOL0     C94655   3.676   5.519  12.540  0.1507  0.4222  0.4834
  702MOL0     C94656   3.816   5.537  12.483 -0.5793 -0.7052  0.0138
  702MOL0     C94657   3.847   5.642  12.374 -0.1433 -1.0379 -0.0360
  702MOL0     C94658   3.837   5.790  12.418 -0.5133  0.0328  0.1882
  702MOL0     O94659   3.708   5.815  12.427 -0.8732 -0.2907 -0.0998
  702MOL0     C94660   3.642   5.911  12.361 -0.3799 -0.3297 -1.2443
  702MOL0     C94661   3.513   5.937  12.402 -0.3856 -0.1215 -0.5220
  702MOL0     C94662   3.436   6.045  12.357  0.5213 -0.1734  0.0186
  702MOL0     C94663   3.290   6.046  12.391  1.4435 -0.2780  0.6283
  702MOL0     C94664   3.482   6.123  12.251  0.0937  0.0014  0.5912
  702MOL0     C94665   3.404   6.222  12.178  0.5858 -0.2687  1.0045
  702MOL0     O94666   3.407   6.345  12.224 -0.5894  0.8454  0.4215
  702MOL0     C94667   3.335   6.455  12.172  0.1148  0.5554  0.3786
  702MOL0     C94668   3.269   6.462  12.039  0.6558 -0.7766 -0.2240
  702MOL0     C94669   3.211   6.581  12.009  0.0824  0.3566  0.3461
  702MOL0     C94670   3.210   6.697  12.093 -0.7605  0.4124  0.7788
  702MOL0     O94671   3.156   6.821  12.049  0.0857 -0.6803  0.0217
  702MOL0     C94672   3.112   6.822  11.905 -0.0805  0.0957 -0.9651
  702MOL0     C94673   3.075   6.958  11.879  1.3936  0.1205 -0.4398
  702MOL0     C94674   3.008   6.985  11.739 -0.4670  0.2640  1.8262
  702MOL0     C94675   3.119   6.983  11.632 -0.1543  0.1242 -0.5330
  702MOL0     C94676   3.131   6.844  11.563  1.1060 -0.1888  1.3044
  702MOL0     C94677   3.022   6.816  11.460  0.6805  0.1823  0.8716
  702MOL0     C94678   3.017   6.917  11.345  0.8309 -0.3272 -0.4839
  702MOL0     C94679   2.942   6.865  11.218  0.5784 -0.1259 -0.0292
  702MOL0    Cl94680   2.781   6.805  11.259  0.4562  0.2838  0.0238
  702MOL0     C94681   3.276   6.693  12.216 -0.4428 -0.0777  0.1106
  702MOL0     C94682   3.335   6.568  12.256 -0.1658 -0.7159  0.5593
  702MOL0     O94683   3.340   6.182  12.078  0.1785 -0.2353  0.0614
  702MOL0     C94684   3.616   6.102  12.216  0.0970  0.0280  0.7542
  702MOL0     C94685   3.702   5.999  12.268 -0.1071  0.0558 -0.3513
  702MOL0     N94686   3.536   5.342  12.414  0.4273 -0.6100 -0.0989
  702MOL0     N94687   3.469   5.334  12.306  0.1832 -0.2846  0.3731
  702MOL0     C94688   2.925   5.114  11.200  0.4513  0.1030 -0.0103
  702MOL0     C94689   2.887   5.001  11.119  0.7071 -0.7938 -0.0221
  702MOL0     C94690   2.765   4.575  11.032 -0.0864  0.0835 -1.2007
  702MOL0     C94691   2.745   4.616  10.897 -1.2463 -0.2078  0.0546
  702MOL0     C94692   2.680   4.530  10.806 -0.1457  0.8883  0.2434
  702MOL0     C94693   2.634   4.407  10.846  0.0836 -0.3029 -1.4624
  702MOL0     O94694   2.573   4.316  10.766 -0.6041 -0.2743 -0.0817
  702MOL0     C94695   2.586   4.328  10.626 -0.1825  0.0300 -0.1974
  702MOL0     C94696   2.598   4.189  10.558 -0.4771 -0.3348  0.4192
  702MOL0     C94697   2.498   4.071  10.591 -1.1923 -0.5296 -1.1706
  702MOL0     C94698   2.373   4.084  10.504  0.6839 -0.6465 -0.4729
  702MOL0     C94699   2.292   3.962  10.501 -0.3424  0.4081 -0.0150
  702MOL0     C94700   2.223   3.865  10.515 -0.0114  0.0642  0.4310
  702MOL0     C94701   2.658   4.370  10.984 -0.6190 -1.2267 -0.3178
  702MOL0     C94702   2.729   4.447  11.075 -0.1419  0.4366  0.6872
  702MOL0     H94703   3.039   4.758  11.296  3.7479 -0.0719 -2.9084
  702MOL0     H94704   3.119   4.939  11.421  1.2675 -1.1298 -2.0291
  702MOL0     H94705   3.256   5.132  11.320 -0.7706  0.3059  0.8238
  702MOL0     H94706   3.248   5.307  11.350 -4.2216  1.5006  0.3602
  702MOL0     H94707   3.202   5.098  11.551  0.3933 -1.7372 -3.9303
  702MOL0     H94708   3.356   5.187  11.534  0.3146  4.2367 -1.9861
  702MOL0     H94709   3.231   5.404  11.588  1.9182 -1.0351  1.2970
  702MOL0     H94710   3.091   5.316  11.602 -0.9353  3.2588  1.1176
  702MOL0     H94711   3.164   5.191  11.802  0.8996 -1.3136  0.0265
  702MOL0     H94712   3.333   5.224  11.778 -0.2362  0.6649  4.6028
  702MOL0     H94713   3.199   5.473  11.805  0.3750  0.9708  1.5855
  702MOL0     H94714   3.130   5.362  11.931 -1.4253 -0.0012 -1.7416
  702MOL0     H94715   3.349   5.293  12.006  0.1944 -0.0801 -0.2793
  702MOL0     H94716   3.439   5.388  11.882 -0.3238 -0.0257 -1.6063
  702MOL0     H94717   3.475   5.538  12.015  0.7988 -2.8596  0.1348
  702MOL0     H94718   3.297   5.583  11.972 -0.9308 -2.3539 -2.6015
  702MOL0     H94719   3.239   5.439  12.184  0.9294 -1.5600 -0.7548
  702MOL0     H94720   3.299   5.604  12.198  2.4961  0.4261 -2.1693
  702MOL0     H94721   3.523   5.651  12.354  2.1856 -1.3712 -0.9470
  702MOL0     H94722   3.646   5.620  12.568 -0.5512  0.7829 -1.4247
  702MOL0     H94723   3.664   5.448  12.622 -0.5397 -1.6776 -1.3257
  702MOL0     H94724   3.853   5.438  12.456  0.8822 -1.5546  4.3242
  702MOL0     H94725   3.879   5.566  12.567  0.7297  1.7512 -1.7183
  702MOL0     H94726   3.785   5.617  12.287 -1.7494  1.4022  0.3290
  702MOL0     H94727   3.951   5.638  12.340 -0.8358  1.7354 -2.8911
  702MOL0     H94728   3.904   5.851  12.356 -2.1125  0.1617 -1.4692
  702MOL0     H94729   3.879   5.813  12.517  3.0468  1.9951 -1.5898
  702MOL0     H94730   3.470   5.876  12.481  0.5460 -0.8127 -0.5226
  702MOL0     H94731   3.261   6.090  12.487  3.0457 -1.5474  1.7456
  702MOL0     H94732   3.242   6.093  12.305 -0.9507 -4.0166 -0.3237
  702MOL0     H94733   3.236   5.951  12.385 -0.9321  0.9372  1.2920
  702MOL0     H94734   3.263   6.380  11.968  1.1576 -0.2474 -0.9004
  702MOL0     H94735   3.170   6.588  11.909  2.3060 -0.8835 -0.7158
  702MOL0     H94736   3.198   6.790  11.845  1.0416  1.2002 -0.0080
  702MOL0     H94737   3.029   6.757  11.877 -0.9711  1.7189 -2.2556
  702MOL0     H94738   2.998   6.994  11.948  3.2416  1.9351  0.7831
  702MOL0     H94739   3.166   7.019  11.885  0.6803  1.3299 -1.3675
  702MOL0     H94740   2.956   7.081  11.740 -1.9570 -0.4678 -0.1993
  702MOL0     H94741   2.932   6.917  11.700 -2.5257  2.8215  1.1177
  702MOL0     H94742   3.106   7.070  11.566  1.9297  1.4819  0.7489
  702MOL0     H94743   3.215   7.002  11.680 -0.8503 -0.4399  1.1503
  702MOL0     H94744   3.123   6.755  11.626 -0.5954 -2.2167 -1.5247
  702MOL0     H94745   3.219   6.851  11.498 -0.5713 -1.2161 -1.2476
  702MOL0     H94746   3.047   6.720  11.414  0.2807  0.1322  0.7557
  702MOL0     H94747   2.922   6.817  11.505  0.7730  2.7188  1.1843
  702MOL0     H94748   3.109   6.960  11.305 -0.3804  1.5520 -1.3925
  702MOL0     H94749   2.968   7.009  11.377 -2.2886 -2.0254  0.0094
  702MOL0     H94750   3.003   6.782  11.181  2.4723  1.3346 -0.3518
  702MOL0     H94751   2.925   6.946  11.146 -2.9965 -0.4263  0.2814
  702MOL0     H94752   3.280   6.778  12.283 -1.5150  0.5450 -0.5807
  702MOL0     H94753   3.376   6.562  12.356  0.3248 -0.3545  0.3823
  702MOL0     H94754   3.652   6.172  12.141 -0.2422 -0.1876  0.3814
  702MOL0     H94755   3.807   5.997  12.243 -0.0966 -1.4644 -0.2946
  702MOL0     H94756   2.884   5.209  11.169 -1.5698 -0.8607 -0.4594
  702MOL0     H94757   2.831   5.014  11.027 -1.3433  0.2335  1.3045
  702MOL0     H94758   2.769   4.720  10.874 -1.4824  0.5501  2.8125
  702MOL0     H94759   2.666   4.563  10.703 -0.0724 -2.6118 -0.9970
  702MOL0     H94760   2.496   4.382  10.597  0.1767  0.1437 -1.1256
  702MOL0     H94761   2.667   4.394  10.595  0.4586  0.1156  1.5512
  702MOL0     H94762   2.690   4.146  10.598  0.2794  3.0986  2.7038
  702MOL0     H94763   2.612   4.200  10.450  0.2038 -0.2464  0.5173
  702MOL0     H94764   2.486   4.064  10.699  2.7585  0.4789 -0.4963
  702MOL0     H94765   2.544   3.977  10.561  5.0524  2.1426 -1.5491
  702MOL0     H94766   2.403   4.106  10.401  0.8266 -0.3072 -0.3602
  702MOL0     H94767   2.321   4.175  10.536 -0.8449 -1.5987 -0.1164
  702MOL0     H94768   2.148   3.789  10.520 -1.8829  1.7640 -0.5507
  702MOL0     H94769   2.636   4.268  11.014 -0.1722 -1.4303 -0.6707
  702MOL0     H94770   2.745   4.403  11.173  2.8950 -3.2478 -1.2134
  703MOL0     O94771   1.431   2.656   6.767 -0.2458  0.4529 -0.3557
  703MOL0     C94772   1.357   2.573   6.718  0.0870 -0.6647  0.3179
  703MOL0     O94773   1.379   2.510   6.600  0.1103  0.0863  0.6085
  703MOL0     C94774   1.465   2.565   6.502 -0.1814 -0.1035 -0.1743
  703MOL0     C94775   1.509   2.686   6.481 -0.0477 -0.5084 -0.6062
  703MOL0     C94776   1.590   2.717   6.374  0.1395 -0.3907  0.2826
  703MOL0     C94777   1.620   2.618   6.271  0.8503  0.2731  0.5316
  703MOL0     O94778   1.700   2.633   6.164 -0.1417  0.5454 -0.1852
  703MOL0     C94779   1.748   2.765   6.133 -1.0996  0.5060  0.8054
  703MOL0     C94780   1.852   2.757   6.007 -0.7167  1.0121 -0.2524
  703MOL0     C94781   1.803   2.678   5.884 -0.6279 -0.4392 -0.3407
  703MOL0     C94782   1.682   2.742   5.809 -0.0194 -0.2144 -0.0079
  703MOL0     C94783   1.653   2.670   5.678 -0.2304 -1.3363  0.3500
  703MOL0     C94784   1.577   2.769   5.579 -0.2448  0.1632 -0.2569
  703MOL0     C94785   1.573   2.718   5.429  0.5458 -0.1975  0.4927
  703MOL0     C94786   1.459   2.803   5.364  0.3594 -0.3551  0.1987
  703MOL0     N94787   1.438   2.757   5.226 -0.2605 -1.0348 -1.3067
  703MOL0     C94788   1.521   2.782   5.126 -0.0315 -0.3960  0.1163
  703MOL0     C94789   1.459   2.739   5.006 -0.3550 -0.6447  0.2196
  703MOL0     C94790   1.509   2.784   4.868  0.3875 -0.1312 -0.1181
  703MOL0     C94791   1.488   2.667   4.761 -0.1170 -0.3290  0.1622
  703MOL0     C94792   1.544   2.703   4.628  0.0132  0.6149  0.1419
  703MOL0     C94793   1.555   2.602   4.522  0.1835 -0.4418  0.4902
  703MOL0     O94794   1.694   2.564   4.497 -0.3916  0.5442  0.0010
  703MOL0     C94795   1.716   2.449   4.428  0.8915 -0.1167 -0.4741
  703MOL0     C94796   1.610   2.362   4.390  0.0724  0.4063  0.5145
  703MOL0     C94797   1.642   2.236   4.321  0.8450  0.3012 -0.5067
  703MOL0     C94798   1.529   2.139   4.295  0.9263 -0.0791  0.3521
  703MOL0     C94799   1.778   2.198   4.307  0.4728 -0.1674 -0.7138
  703MOL0     C94800   1.816   2.054   4.265  0.4195  0.9640  0.2011
  703MOL0     O94801   1.789   2.015   4.135  0.3079 -0.4105 -0.4099
  703MOL0     C94802   1.814   1.884   4.099 -0.2844 -1.2624 -0.7440
  703MOL0     C94803   1.936   1.825   4.110 -1.1064 -0.2152  0.6557
  703MOL0     C94804   1.951   1.689   4.084 -0.0968  0.7791  0.2396
  703MOL0     C94805   1.840   1.609   4.055  0.3915 -0.9663 -0.0209
  703MOL0     O94806   1.856   1.474   4.040 -0.0809 -0.5455  0.0312
  703MOL0     C94807   1.774   1.389   4.122  1.2096 -0.2626  0.2106
  703MOL0     C94808   1.843   1.363   4.255 -1.0373  0.2275 -0.2515
  703MOL0     C94809   1.998   1.335   4.228  0.8197  0.0878  0.8213
  703MOL0     C94810   2.064   1.342   4.358 -1.0386 -0.3774  0.6157
  703MOL0     C94811   2.218   1.335   4.332  0.1788  0.3131 -0.8042
  703MOL0     C94812   2.303   1.367   4.463  0.2400  0.0991  0.5740
  703MOL0     C94813   2.453   1.385   4.436 -0.0145  0.3788  1.2086
  703MOL0     C94814   2.525   1.261   4.501  0.0808 -0.5618  0.2648
  703MOL0    Cl94815   2.677   1.241   4.405  0.1044  0.1263  0.0569
  703MOL0     C94816   1.717   1.670   4.046  0.0025  0.3783  0.1831
  703MOL0     C94817   1.700   1.811   4.075  0.4399 -0.2434  0.8817
  703MOL0     O94818   1.880   1.985   4.341  0.6231 -0.3285  0.4930
  703MOL0     C94819   1.878   2.292   4.357  0.1947 -0.1650  0.5424
  703MOL0     C94820   1.846   2.416   4.409  0.4508 -0.6974 -0.6879
  703MOL0     N94821   1.337   2.688   5.040 -0.3022 -0.0104 -0.3506
  703MOL0     N94822   1.333   2.693   5.173 -0.0299  0.1859 -0.7685
  703MOL0     C94823   1.580   2.484   6.294  0.1872  0.8928 -0.9092
  703MOL0     C94824   1.495   2.467   6.407 -0.0166 -1.1236 -0.6660
  703MOL0     C94825   1.265   2.507   6.813 -0.0708 -0.2082  1.0044
  703MOL0     C94826   1.282   2.531   6.953 -0.0664 -0.7883 -0.6359
  703MOL0     C94827   1.203   2.457   7.053  0.2103 -0.8135  0.3212
  703MOL0     C94828   1.112   2.362   7.004  0.8944  0.5882  0.5002
  703MOL0     O94829   1.031   2.293   7.088  0.2019 -0.4923  0.5580
  703MOL0     C94830   0.937   2.376   7.157  0.0126 -0.8890 -0.2248
  703MOL0     C94831   0.825   2.433   7.083  0.9045  0.3960  0.4663
  703MOL0     C94832   0.722   2.328   7.030 -0.6755 -0.1826  0.0491
  703MOL0     C94833   0.664   2.373   6.897 -0.0969 -1.2863  0.8029
  703MOL0     C94834   0.583   2.498   6.901 -0.5210  0.4011 -0.5676
  703MOL0     C94835   0.514   2.602   6.911 -0.6273  0.0479  0.6423
  703MOL0     C94836   1.111   2.333   6.864  0.4061 -0.8105  0.8178
  703MOL0     C94837   1.175   2.415   6.770 -0.0815 -0.0105 -0.7266
  703MOL0     H94838   1.481   2.774   6.538 -0.5217 -1.2492  0.3244
  703MOL0     H94839   1.618   2.821   6.362  1.8554 -1.0391 -1.9636
  703MOL0     H94840   1.662   2.821   6.097 -0.9637  1.1034  1.3785
  703MOL0     H94841   1.804   2.827   6.205  2.9298  0.3616 -1.8492
  703MOL0     H94842   1.872   2.861   5.977 -0.8541  1.5335  1.3719
  703MOL0     H94843   1.952   2.718   6.030 -0.4209  0.1135 -2.7181
  703MOL0     H94844   1.885   2.663   5.814  0.2441 -0.4106  0.6522
  703MOL0     H94845   1.767   2.578   5.911  0.9008 -0.6530  1.0480
  703MOL0     H94846   1.590   2.732   5.867 -2.2412 -2.7312 -3.5668
  703MOL0     H94847   1.708   2.848   5.798 -0.5310  0.2474  2.5907
  703MOL0     H94848   1.746   2.649   5.625  0.8940  3.3846  0.0541
  703MOL0     H94849   1.607   2.571   5.683 -2.2953 -0.6255 -2.1685
  703MOL0     H94850   1.477   2.787   5.620  0.6766  5.3606  0.3887
  703MOL0     H94851   1.631   2.864   5.582  3.5190 -1.7292 -1.7957
  703MOL0     H94852   1.674   2.733   5.389 -0.0968 -0.9783 -1.5392
  703MOL0     H94853   1.548   2.612   5.435  0.3045 -0.0816  1.8457
  703MOL0     H94854   1.489   2.906   5.385 -0.0433 -0.4798  1.4617
  703MOL0     H94855   1.372   2.789   5.428  0.8849 -1.7151  0.6567
  703MOL0     H94856   1.613   2.838   5.132  0.6341 -1.4687  0.1706
  703MOL0     H94857   1.444   2.865   4.833  1.8002  1.6194  1.0435
  703MOL0     H94858   1.616   2.808   4.861  0.7882 -2.0577 -1.0995
  703MOL0     H94859   1.380   2.650   4.755 -0.0595 -2.6121  3.0016
  703MOL0     H94860   1.536   2.578   4.804 -0.6464 -1.4041 -1.4111
  703MOL0     H94861   1.648   2.738   4.633  0.2456  0.2970 -1.7376
  703MOL0     H94862   1.483   2.788   4.596  1.1106  0.6293 -2.0679
  703MOL0     H94863   1.517   2.641   4.427  2.5099  1.8730  0.3874
  703MOL0     H94864   1.485   2.525   4.555  1.9807 -1.9475  0.9646
  703MOL0     H94865   1.505   2.383   4.407  0.2536  1.2654  0.5943
  703MOL0     H94866   1.504   2.082   4.384 -3.3950  0.6578 -0.1651
  703MOL0     H94867   1.439   2.198   4.273  1.5051 -0.1381 -2.6167
  703MOL0     H94868   1.541   2.061   4.219  1.2435 -0.4379  0.7643
  703MOL0     H94869   2.022   1.883   4.140  0.4934 -0.9828 -2.1003
  703MOL0     H94870   2.044   1.635   4.098  0.4106  2.0119  1.9867
  703MOL0     H94871   1.671   1.425   4.134  0.4986 -1.1283 -2.5669
  703MOL0     H94872   1.772   1.291   4.075  3.7145  0.3951 -1.4396
  703MOL0     H94873   1.847   1.447   4.325  2.2669 -0.7136  0.8920
  703MOL0     H94874   1.809   1.277   4.313  1.8385 -2.8259 -2.7095
  703MOL0     H94875   2.050   1.392   4.151  0.7535  0.4864  1.0699
  703MOL0     H94876   2.011   1.233   4.192  1.1643  1.5568 -3.8165
  703MOL0     H94877   2.031   1.431   4.412  0.0945 -0.7238  1.9591
  703MOL0     H94878   2.024   1.250   4.403 -2.3077 -2.2983 -3.8379
  703MOL0     H94879   2.244   1.384   4.238 -3.9244  2.3387 -1.1524
  703MOL0     H94880   2.234   1.228   4.318 -1.1503  0.2503 -2.1390
  703MOL0     H94881   2.267   1.466   4.494 -1.8225 -0.5220  0.2995
  703MOL0     H94882   2.260   1.302   4.539 -0.9381  2.0499  1.6717
  703MOL0     H94883   2.488   1.481   4.474  0.9642  0.2677  0.6351
  703MOL0     H94884   2.476   1.391   4.329 -0.3953  0.8117  1.1465
  703MOL0     H94885   2.458   1.176   4.485 -2.2912  1.4870 -1.7089
  703MOL0     H94886   2.551   1.286   4.604  1.4908  0.5834 -0.3403
  703MOL0     H94887   1.636   1.605   4.017 -1.2172  1.2716  1.4292
  703MOL0     H94888   1.600   1.852   4.070  1.0748  1.2532 -0.9657
  703MOL0     H94889   1.983   2.283   4.328  0.3408  1.6482  0.4155
  703MOL0     H94890   1.920   2.490   4.436 -1.8864  0.7448  2.3734
  703MOL0     H94891   1.612   2.405   6.227  2.1366  1.1713 -0.3617
  703MOL0     H94892   1.466   2.369   6.444 -0.0056 -0.9776 -0.2598
  703MOL0     H94893   1.349   2.606   6.991  0.5590 -1.7517  0.2066
  703MOL0     H94894   1.209   2.471   7.161  2.4055 -3.4260  0.6418
  703MOL0     H94895   0.899   2.309   7.234  0.1125 -0.2371  0.3934
  703MOL0     H94896   0.984   2.460   7.209 -2.0713 -0.6562  1.4053
  703MOL0     H94897   0.862   2.491   6.998 -2.5580  0.3446 -1.2235
  703MOL0     H94898   0.770   2.501   7.149  3.1645 -0.6559  3.7238
  703MOL0     H94899   0.645   2.290   7.098  0.5638 -5.0987 -0.8891
  703MOL0     H94900   0.780   2.238   7.005  0.6418 -0.0497  2.3598
  703MOL0     H94901   0.594   2.296   6.863 -1.6599 -0.0975  1.2316
  703MOL0     H94902   0.736   2.383   6.815  1.5789  3.4534  2.5022
  703MOL0     H94903   0.443   2.681   6.904  0.5688  1.0524 -0.9031
  703MOL0     H94904   1.050   2.260   6.813  0.9672  2.0369 -4.7220
  703MOL0     H94905   1.148   2.402   6.666  0.5344  3.5541 -1.4723
  704MOL0     O94906   0.772  11.504   3.080  0.2622 -0.1888  0.7541
  704MOL0     C94907   0.883  11.468   3.099  0.0520 -0.6922  0.2406
  704MOL0     O94908   0.919  11.338   3.107  0.4855  0.7324  0.3463
  704MOL0     C94909   0.822  11.253   3.072 -0.5664  0.6105 -0.4761
  704MOL0     C94910   0.778  11.250   2.938 -0.5098 -0.0426  0.7000
  704MOL0     C94911   0.691  11.151   2.896 -0.3257  0.4279 -0.1649
  704MOL0     C94912   0.629  11.066   2.996  0.9941  1.2190 -0.5229
  704MOL0     O94913   0.544  10.959   2.988 -0.4258 -0.2547 -0.0056
  704MOL0     C94914   0.567  10.881   2.877  0.2612 -0.9725  0.6090
  704MOL0     C94915   0.684  10.792   2.891  0.0708  0.3356  0.4210
  704MOL0     C94916   0.682  10.704   3.009 -1.1801  0.1066  0.4535
  704MOL0     C94917   0.573  10.606   3.023  0.2379  0.2731 -0.7547
  704MOL0     C94918   0.605  10.501   3.134 -0.4918 -0.2351  0.1894
  704MOL0     C94919   0.493  10.493   3.230  0.9800  1.7762  0.3552
  704MOL0     C94920   0.525  10.393   3.337 -0.3463  1.2135  0.0682
  704MOL0     C94921   0.396  10.359   3.411 -0.1937  0.2095 -0.0184
  704MOL0     N94922   0.424  10.299   3.542  0.3190  1.3470  0.0793
  704MOL0     C94923   0.506  10.336   3.644  0.0165 -0.4892  0.1927
  704MOL0     C94924   0.464  10.265   3.756  0.2541  1.1400  0.2975
  704MOL0     C94925   0.519  10.299   3.890  0.3147 -0.4040  0.7298
  704MOL0     C94926   0.400  10.314   3.995  0.7254  0.2118  0.5699
  704MOL0     C94927   0.433  10.424   4.086  0.6008  0.5291  0.5896
  704MOL0     C94928   0.362  10.409   4.215  0.4533 -0.1277  0.4348
  704MOL0     O94929   0.363  10.543   4.266  0.0322  0.3486  0.2662
  704MOL0     C94930   0.321  10.548   4.396 -0.1442  0.5434 -0.1333
  704MOL0     C94931   0.331  10.673   4.453 -0.2393  0.0824 -0.2487
  704MOL0     C94932   0.305  10.694   4.593 -0.2487  0.0977  0.4787
  704MOL0     C94933   0.316  10.835   4.634 -0.9690 -0.2356  0.5415
  704MOL0     C94934   0.263  10.584   4.678 -0.8892 -0.6834 -0.0729
  704MOL0     C94935   0.215  10.602   4.823  0.0542 -0.6747 -0.7706
  704MOL0     O94936   0.206  10.483   4.895  0.4111 -0.3677 -0.0301
  704MOL0     C94937   0.192  10.492   5.037  0.3867 -0.7170  0.5687
  704MOL0     C94938   0.307  10.495   5.120  0.7850  0.7447  0.7055
  704MOL0     C94939   0.294  10.508   5.263  0.5106  1.0081  0.6718
  704MOL0     C94940   0.161  10.517   5.322 -0.3167  0.5272 -0.0845
  704MOL0     O94941   0.135  10.522   5.461  0.1740 -0.1617  0.1668
  704MOL0     C94942   0.233  10.537   5.561 -0.5679  0.4479  0.2383
  704MOL0     C94943   0.187  10.484   5.699 -0.3466 -0.0978 -0.2238
  704MOL0     C94944   0.197  10.338   5.702 -1.1828  0.1259 -0.4808
  704MOL0     C94945   0.151  10.269   5.841 -0.1496 -0.9987 -0.2329
  704MOL0     C94946   0.040  10.166   5.853  0.1179  0.1969  0.7674
  704MOL0     C94947  -0.081  10.207   5.770 -0.5365  0.4388 -1.4457
  704MOL0     C94948  -0.202  10.152   5.847 -0.0845  0.3860 -0.3577
  704MOL0     C94949  -0.337  10.186   5.785  0.1934 -0.3159  0.6228
  704MOL0    Cl94950  -0.351  10.358   5.740  0.1928  0.3350 -0.4786
  704MOL0     C94951   0.052  10.508   5.234  0.6030  0.3847  0.6064
  704MOL0     C94952   0.060  10.494   5.095 -1.2447  0.0440  0.3951
  704MOL0     O94953   0.214  10.710   4.876 -0.6195 -0.6025  0.0390
  704MOL0     C94954   0.244  10.455   4.615 -0.2025 -0.0978  1.2795
  704MOL0     C94955   0.268  10.442   4.479 -0.7209 -0.6088 -0.1257
  704MOL0     N94956   0.362  10.182   3.711  0.5260 -0.5042 -0.0214
  704MOL0     N94957   0.343  10.191   3.586 -0.5940  0.1693 -0.3936
  704MOL0     C94958   0.665  11.084   3.128  0.0122  0.1866  0.0204
  704MOL0     C94959   0.773  11.160   3.164  0.0153 -0.5047 -0.1919
  704MOL0     C94960   0.993  11.575   3.107  0.7004 -0.9686 -0.3004
  704MOL0     C94961   1.103  11.556   3.192  0.0483 -0.0650 -0.4396
  704MOL0     C94962   1.194  11.660   3.215 -0.0561  0.1602  0.0854
  704MOL0     C94963   1.178  11.788   3.164  0.4824  0.2273  0.2704
  704MOL0     O94964   1.257  11.894   3.186  0.0433  0.3934 -0.3812
  704MOL0     C94965   1.395  11.869   3.148 -0.0159 -0.0145 -0.1823
  704MOL0     C94966   1.428  11.877   2.994  0.6705 -0.5772 -0.5572
  704MOL0     C94967   1.435  11.733   2.942 -0.2118  1.1794  0.1752
  704MOL0     C94968   1.485  11.720   2.804 -0.1025 -0.5498  0.6708
  704MOL0     C94969   1.609  11.801   2.787  0.5045  0.7316  0.3041
  704MOL0     C94970   1.710  11.857   2.761 -0.6670  0.2774  0.2848
  704MOL0     C94971   1.066  11.807   3.081 -0.0829 -0.0951 -0.0418
  704MOL0     C94972   0.971  11.709   3.058  0.4085 -1.0640 -0.8385
  704MOL0     H94973   0.822  11.319   2.867 -0.0431  0.5719  1.5812
  704MOL0     H94974   0.666  11.129   2.792  1.2855 -4.5857  0.2409
  704MOL0     H94975   0.471  10.831   2.862  0.2632 -0.0707 -3.9670
  704MOL0     H94976   0.575  10.948   2.791  0.1042 -1.2811  0.3518
  704MOL0     H94977   0.692  10.721   2.807  1.5452 -2.6978  2.9278
  704MOL0     H94978   0.773  10.855   2.894  0.2954 -0.0063  0.9599
  704MOL0     H94979   0.778  10.653   2.994 -2.3977 -2.3674  0.5841
  704MOL0     H94980   0.700  10.762   3.100 -1.6374 -1.6118  1.6864
  704MOL0     H94981   0.487  10.669   3.048  0.8757  0.9317 -0.1462
  704MOL0     H94982   0.546  10.559   2.929 -1.4633 -1.0436  0.3415
  704MOL0     H94983   0.611  10.406   3.081 -1.0985 -0.3171  0.2626
  704MOL0     H94984   0.699  10.526   3.185 -0.5019 -2.6029  1.4743
  704MOL0     H94985   0.487  10.589   3.283 -1.6103  2.4022 -0.9300
  704MOL0     H94986   0.406  10.456   3.176  0.7819 -2.0980  2.8504
  704MOL0     H94987   0.564  10.297   3.300 -0.6155  2.0360 -2.5036
  704MOL0     H94988   0.603  10.426   3.406 -1.5266  2.1313  0.9869
  704MOL0     H94989   0.342  10.287   3.348 -0.5146 -0.4498  0.9900
  704MOL0     H94990   0.327  10.443   3.419  1.6714  1.7045  1.1527
  704MOL0     H94991   0.579  10.416   3.630 -0.6724  0.3572  1.2287
  704MOL0     H94992   0.581  10.215   3.924  1.3879 -1.2557 -2.9001
  704MOL0     H94993   0.583  10.387   3.877  1.9061 -1.4693  0.9883
  704MOL0     H94994   0.392  10.221   4.052 -4.3485  1.2325  1.9606
  704MOL0     H94995   0.300  10.338   3.958  1.0494  1.7490  0.6363
  704MOL0     H94996   0.401  10.514   4.033 -1.9973 -0.6867 -0.0179
  704MOL0     H94997   0.540  10.420   4.110  1.6569  2.3208 -3.1287
  704MOL0     H94998   0.416  10.344   4.285  1.3371  1.2040  1.0200
  704MOL0     H94999   0.265  10.367   4.186  0.3923  0.4356 -0.2085
  704MOL0     H95000   0.358  10.752   4.384 -2.6362 -1.0889 -2.7601
  704MOL0     H95001   0.350  10.899   4.552  2.2590 -0.9636  1.1667
  704MOL0     H95002   0.221  10.877   4.666 -1.5484 -1.2300  0.1851
  704MOL0     H95003   0.374  10.838   4.727 -0.8108  0.6606  0.4200
  704MOL0     H95004   0.393  10.502   5.054 -0.9935  0.5599 -1.8117
  704MOL0     H95005   0.384  10.499   5.323 -1.2499  0.1447  3.4061
  704MOL0     H95006   0.325  10.490   5.524 -1.6218  0.5615 -2.8246
  704MOL0     H95007   0.239  10.646   5.566 -4.9569  0.8615  0.2441
  704MOL0     H95008   0.254  10.526   5.774  0.9938  0.9061 -1.9083
  704MOL0     H95009   0.086  10.522   5.717  0.2324  0.3916  2.4417
  704MOL0     H95010   0.303  10.318   5.687 -1.3469 -0.3768 -1.0084
  704MOL0     H95011   0.134  10.293   5.624 -0.7221 -0.8833 -0.2930
  704MOL0     H95012   0.239  10.227   5.892 -0.0239 -1.6723 -0.9864
  704MOL0     H95013   0.112  10.348   5.906  1.3681 -0.4838  0.1068
  704MOL0     H95014   0.030  10.165   5.962  0.4639 -0.9397  0.7922
  704MOL0     H95015   0.058  10.063   5.823  1.1096 -0.6341  3.8260
  704MOL0     H95016  -0.080  10.316   5.767  1.4521  0.7100  2.2412
  704MOL0     H95017  -0.075  10.167   5.668 -2.1521 -3.6720 -0.1486
  704MOL0     H95018  -0.205  10.193   5.949  1.6440 -0.5398  0.0969
  704MOL0     H95019  -0.198  10.043   5.853  1.8925  0.4249 -0.2581
  704MOL0     H95020  -0.424  10.155   5.845  0.6754 -3.1920 -0.0135
  704MOL0     H95021  -0.347  10.138   5.687 -1.0004  0.9921  0.0697
  704MOL0     H95022  -0.045  10.529   5.276  0.2028  3.2100 -1.4635
  704MOL0     H95023  -0.024  10.509   5.028 -1.0262 -2.8342 -0.6527
  704MOL0     H95024   0.190  10.375   4.664 -6.8149  1.8234 -1.7552
  704MOL0     H95025   0.262  10.342   4.435  3.1561 -0.0638 -2.4187
  704MOL0     H95026   0.621  11.022   3.205  1.8751 -1.4677 -0.1680
  704MOL0     H95027   0.817  11.151   3.263  2.7572  1.0406 -1.1656
  704MOL0     H95028   1.134  11.462   3.236  1.4238 -0.1464 -1.5184
  704MOL0     H95029   1.266  11.631   3.291  0.1046 -0.6685 -0.3696
  704MOL0     H95030   1.448  11.953   3.194  1.1077 -1.1073  0.5960
  704MOL0     H95031   1.436  11.778   3.195 -1.4145 -0.3073  0.5407
  704MOL0     H95032   1.525  11.924   2.978  0.1757  0.1548 -1.5224
  704MOL0     H95033   1.354  11.945   2.949  2.9065  1.4116 -1.4175
  704MOL0     H95034   1.333  11.694   2.954 -1.2002  4.1734  3.0479
  704MOL0     H95035   1.501  11.676   3.007  0.0789 -0.2849 -1.3175
  704MOL0     H95036   1.411  11.762   2.735  1.0369  1.0574  0.3781
  704MOL0     H95037   1.490  11.615   2.777  1.3615 -0.2781 -0.2031
  704MOL0     H95038   1.806  11.902   2.750 -0.5539  1.3229  4.1180
  704MOL0     H95039   1.065  11.901   3.027  2.4633  0.8122  1.2983
  704MOL0     H95040   0.879  11.735   3.008  1.0969  2.2450 -0.6014
  705MOL0     O95041   9.513   5.565   2.107  0.3800  0.3659  0.1017
  705MOL0     C95042   9.566   5.630   2.015 -0.3105 -0.4985  0.0680
  705MOL0     O95043   9.565   5.769   2.008  0.4466 -0.6420  0.0425
  705MOL0     C95044   9.504   5.827   2.117  0.0343 -0.2831 -0.4923
  705MOL0     C95045   9.391   5.912   2.099  0.0316  0.3931 -0.7998
  705MOL0     C95046   9.335   5.980   2.211 -0.0629 -0.4085 -0.6350
  705MOL0     C95047   9.398   5.974   2.333  0.7552  0.7579 -0.3224
  705MOL0     O95048   9.364   6.033   2.453  0.0072  0.5115  0.1173
  705MOL0     C95049   9.242   6.114   2.452  0.6346  0.1177  0.4793
  705MOL0     C95050   9.237   6.193   2.583 -0.1123 -0.7772  0.1285
  705MOL0     C95051   9.339   6.306   2.581 -1.1530 -0.7833  0.1624
  705MOL0     C95052   9.330   6.374   2.710  0.0294  0.1974  0.1586
  705MOL0     C95053   9.265   6.513   2.693  0.5242  0.3598 -0.1127
  705MOL0     C95054   9.121   6.512   2.632  0.6509 -0.8930 -0.5550
  705MOL0     C95055   9.014   6.465   2.741 -0.3937 -0.3565 -0.1566
  705MOL0     C95056   8.868   6.466   2.697  0.2553 -0.3072  0.3291
  705MOL0     N95057   8.800   6.592   2.696  0.6055 -0.2517 -1.1277
  705MOL0     C95058   8.804   6.694   2.604  0.3967  0.7271  0.1022
  705MOL0     C95059   8.697   6.773   2.637  0.0126 -0.1037 -0.7557
  705MOL0     C95060   8.644   6.892   2.574  0.2394  0.6191 -0.0512
  705MOL0     C95061   8.499   6.882   2.522 -0.6604 -0.3129  0.1214
  705MOL0     C95062   8.461   6.999   2.442  0.1557  0.3052 -0.5300
  705MOL0     C95063   8.344   6.968   2.350  1.0120  0.7696 -0.2722
  705MOL0     O95064   8.382   6.914   2.221  0.4532  0.2424 -0.1990
  705MOL0     C95065   8.274   6.914   2.134  0.3949 -0.4717 -0.1994
  705MOL0     C95066   8.251   7.026   2.052  0.2910 -0.4420 -0.7681
  705MOL0     C95067   8.152   7.025   1.959  0.1105 -0.3579  0.1835
  705MOL0     C95068   8.116   7.158   1.892 -0.2096 -0.0294 -0.5461
  705MOL0     C95069   8.085   6.903   1.940 -0.9363  1.0738 -0.6501
  705MOL0     C95070   7.979   6.876   1.838 -0.5009 -0.4668 -0.4580
  705MOL0     O95071   7.894   6.770   1.859 -0.0524 -0.6701  0.3090
  705MOL0     C95072   7.829   6.713   1.752 -0.0235 -0.5066 -0.0301
  705MOL0     C95073   7.900   6.689   1.627 -0.2010 -0.5992 -0.0569
  705MOL0     C95074   7.845   6.600   1.529  0.3955  1.1195 -0.0746
  705MOL0     C95075   7.714   6.534   1.543 -0.2315  0.3615 -0.4363
  705MOL0     O95076   7.665   6.434   1.455 -0.3046  0.2460  0.0151
  705MOL0     C95077   7.737   6.402   1.327  0.6271  1.2520 -0.4119
  705MOL0     C95078   7.672   6.274   1.262  0.3222 -1.1542 -0.1141
  705MOL0     C95079   7.728   6.143   1.319 -0.2374  0.3482 -0.7082
  705MOL0     C95080   7.880   6.123   1.291 -0.8319  0.5190  0.3208
  705MOL0     C95081   7.941   5.985   1.343  0.2254  0.2164  0.0842
  705MOL0     C95082   8.079   5.962   1.280 -0.8147  0.6664 -0.1114
  705MOL0     C95083   8.083   5.935   1.130  0.8235  0.7297  0.7835
  705MOL0     C95084   8.144   6.051   1.040 -0.7375 -0.8034 -0.4105
  705MOL0    Cl95085   8.320   6.077   1.072 -0.5742  0.0872  0.1860
  705MOL0     C95086   7.650   6.568   1.668 -0.3052 -1.0759 -0.5511
  705MOL0     C95087   7.703   6.660   1.769  0.7440  1.0737  0.4303
  705MOL0     O95088   7.976   6.959   1.747  0.1751 -0.0083 -0.5238
  705MOL0     C95089   8.127   6.780   2.006 -0.0109 -0.3416  0.1920
  705MOL0     C95090   8.221   6.796   2.106 -1.0574  0.5317  0.4457
  705MOL0     N95091   8.653   6.735   2.764 -0.3364  0.3757  0.2317
  705MOL0     N95092   8.707   6.614   2.793  0.0693  0.9459 -0.5329
  705MOL0     C95093   9.512   5.904   2.338 -0.3402  0.6626  0.3892
  705MOL0     C95094   9.563   5.815   2.241 -0.3317 -0.8976  0.4297
  705MOL0     C95095   9.606   5.554   1.893 -0.5272 -0.2549 -0.6222
  705MOL0     C95096   9.652   5.620   1.777  0.6736 -0.2687  0.6635
  705MOL0     C95097   9.685   5.558   1.655  0.6713  0.9307  0.0384
  705MOL0     C95098   9.675   5.416   1.653 -0.0816 -0.0743 -0.3672
  705MOL0     O95099   9.693   5.343   1.544 -0.1719  0.2862 -0.0373
  705MOL0     C95100   9.728   5.406   1.415  0.4668  1.1491 -0.6455
  705MOL0     C95101   9.666   5.322   1.290 -0.3592 -0.3889 -0.4278
  705MOL0     C95102   9.511   5.331   1.287 -0.0092 -0.4947 -0.3515
  705MOL0     C95103   9.463   5.224   1.198 -0.9928  0.7286 -0.4918
  705MOL0     C95104   9.327   5.227   1.190 -0.2216 -0.4138  0.5081
  705MOL0     C95105   9.206   5.243   1.182  0.0105  0.8883 -0.3539
  705MOL0     C95106   9.630   5.356   1.762  0.4533  0.3152 -0.0951
  705MOL0     C95107   9.599   5.415   1.886 -0.6008  0.1775  0.6609
  705MOL0     H95108   9.342   5.931   2.004 -3.3546 -0.7523  0.5794
  705MOL0     H95109   9.255   6.051   2.191 -1.5135 -0.6088  3.4574
  705MOL0     H95110   9.236   6.181   2.366 -1.2078 -2.2375 -1.3546
  705MOL0     H95111   9.151   6.054   2.442 -1.4799  3.2735 -0.6621
  705MOL0     H95112   9.145   6.250   2.601  1.7518  2.6845 -0.4367
  705MOL0     H95113   9.253   6.112   2.654 -0.0534 -2.8705 -2.1047
  705MOL0     H95114   9.436   6.259   2.562  0.7647  2.5905  0.9680
  705MOL0     H95115   9.327   6.365   2.490  2.3629  1.3274  0.9004
  705MOL0     H95116   9.278   6.311   2.783 -4.1386  0.0204 -2.6776
  705MOL0     H95117   9.427   6.389   2.759 -0.5058  1.2509  0.9359
  705MOL0     H95118   9.271   6.566   2.788 -0.5053  2.5114 -1.1718
  705MOL0     H95119   9.330   6.564   2.622  0.9067  2.2489  1.5377
  705MOL0     H95120   9.086   6.611   2.604  2.4500  0.1500  0.6681
  705MOL0     H95121   9.119   6.453   2.540 -0.5711 -2.4136  0.3799
  705MOL0     H95122   9.033   6.366   2.782  0.1711  0.3553  1.3856
  705MOL0     H95123   9.017   6.524   2.833 -2.3859 -2.4207  1.3520
  705MOL0     H95124   8.830   6.399   2.775 -3.8416  1.1636 -0.1723
  705MOL0     H95125   8.857   6.421   2.598  2.8939  1.3878 -0.8379
  705MOL0     H95126   8.866   6.708   2.516  1.1772 -0.9150  0.3620
  705MOL0     H95127   8.661   6.966   2.653  2.9519  0.1200 -0.0911
  705MOL0     H95128   8.698   6.909   2.481  0.1702 -0.3021 -0.2726
  705MOL0     H95129   8.439   6.859   2.611 -1.6437  0.1898 -0.3891
  705MOL0     H95130   8.490   6.799   2.451  0.1437 -0.8717  0.6664
  705MOL0     H95131   8.538   7.020   2.368 -1.5681  0.6631 -2.3071
  705MOL0     H95132   8.427   7.080   2.508 -2.3762 -2.7931  2.2945
  705MOL0     H95133   8.283   7.057   2.334 -1.4241 -0.5177  1.2695
  705MOL0     H95134   8.288   6.889   2.401  1.7843  2.1837  3.1071
  705MOL0     H95135   8.305   7.114   2.084 -1.2804  0.0399  0.6964
  705MOL0     H95136   8.152   7.249   1.942  2.1467 -0.0905 -1.9587
  705MOL0     H95137   8.149   7.155   1.788  2.1753 -0.2575  0.1538
  705MOL0     H95138   8.008   7.168   1.899 -0.4441 -2.2554 -0.5251
  705MOL0     H95139   7.989   6.747   1.607 -0.8728 -0.2757 -2.3891
  705MOL0     H95140   7.896   6.565   1.440 -2.8183 -6.6934  0.3459
  705MOL0     H95141   7.743   6.487   1.259  1.5896 -1.4623 -4.0217
  705MOL0     H95142   7.839   6.378   1.360 -0.9959 -1.6886  3.1811
  705MOL0     H95143   7.564   6.260   1.258 -0.7667  4.9438 -2.3368
  705MOL0     H95144   7.686   6.282   1.154  0.4349 -0.1721 -0.0365
  705MOL0     H95145   7.664   6.057   1.297  2.3499 -2.1920  1.0149
  705MOL0     H95146   7.723   6.145   1.428 -0.5204 -2.2030 -0.6143
  705MOL0     H95147   7.867   6.118   1.183 -2.9995  1.0649  0.5074
  705MOL0     H95148   7.940   6.208   1.326  0.1262  0.8916 -2.0609
  705MOL0     H95149   7.884   5.898   1.311  0.6815  0.4270 -1.3429
  705MOL0     H95150   7.943   6.007   1.451 -0.6945  1.6294 -0.1531
  705MOL0     H95151   8.156   6.032   1.314  1.1237 -0.9367 -1.0196
  705MOL0     H95152   8.118   5.867   1.316  1.4861  0.4637 -2.7799
  705MOL0     H95153   7.984   5.900   1.102  0.7065  0.6444  1.2986
  705MOL0     H95154   8.145   5.851   1.098  0.9984  0.5949  1.4604
  705MOL0     H95155   8.100   6.150   1.057 -0.5150 -0.5836 -1.1097
  705MOL0     H95156   8.138   6.021   0.935 -0.6055  1.3861 -1.0886
  705MOL0     H95157   7.561   6.511   1.692  0.1282 -1.3663  0.3995
  705MOL0     H95158   7.654   6.690   1.861  2.0033  0.4992  1.3198
  705MOL0     H95159   8.079   6.687   1.979 -0.3333 -0.7196  1.9718
  705MOL0     H95160   8.262   6.710   2.158 -0.3528 -0.3106 -1.4121
  705MOL0     H95161   9.556   5.897   2.437 -1.9863 -4.0957  1.0334
  705MOL0     H95162   9.645   5.745   2.256 -0.6943 -1.5001 -0.3091
  705MOL0     H95163   9.670   5.725   1.795 -0.2122  0.2586 -1.2678
  705MOL0     H95164   9.738   5.624   1.587  0.0286  1.6292  0.1976
  705MOL0     H95165   9.693   5.509   1.408 -0.4383  1.0084  1.2535
  705MOL0     H95166   9.836   5.401   1.398  0.3454 -1.5465 -1.1546
  705MOL0     H95167   9.703   5.220   1.280 -0.9569 -1.4049  4.7942
  705MOL0     H95168   9.708   5.365   1.198  2.8970  0.1282  1.1384
  705MOL0     H95169   9.471   5.429   1.261 -1.3842 -1.2630 -1.3062
  705MOL0     H95170   9.471   5.305   1.385 -1.3479  0.3066 -0.6643
  705MOL0     H95171   9.489   5.127   1.240 -0.7290  0.7605 -0.5825
  705MOL0     H95172   9.504   5.229   1.097 -3.4615  3.8478 -1.5377
  705MOL0     H95173   9.103   5.260   1.159  0.4996  2.5056 -1.4796
  705MOL0     H95174   9.619   5.248   1.757  2.8162 -0.0558  1.2127
  705MOL0     H95175   9.576   5.346   1.967  2.9295 -3.5666 -1.1540
  706MOL0     O95176   1.431   8.813  11.513 -0.0434 -0.0380 -0.1015
  706MOL0     C95177   1.383   8.737  11.431  0.7713  1.0535 -0.3038
  706MOL0     O95178   1.454   8.643  11.359 -0.6442 -0.3316  0.1805
  706MOL0     C95179   1.574   8.595  11.415 -0.4070  0.6718 -0.0274
  706MOL0     C95180   1.665   8.566  11.322  0.8960 -0.3709  0.2641
  706MOL0     C95181   1.789   8.516  11.349  0.4453  0.9028  0.4591
  706MOL0     C95182   1.818   8.485  11.485 -0.6474  0.0734  0.5511
  706MOL0     O95183   1.935   8.431  11.524  0.6693 -0.6427  0.9174
  706MOL0     C95184   2.056   8.473  11.453 -0.1527 -0.2289 -0.9327
  706MOL0     C95185   2.180   8.471  11.546 -0.1583  0.8652  0.5680
  706MOL0     C95186   2.228   8.334  11.561 -0.0703  0.0237 -0.1915
  706MOL0     C95187   2.337   8.303  11.661  0.1019  0.6222  0.0020
  706MOL0     C95188   2.370   8.155  11.659  0.3144 -0.1662  0.4556
  706MOL0     C95189   2.469   8.100  11.755  0.2234 -0.1957  0.0734
  706MOL0     C95190   2.428   8.116  11.905  0.5215 -0.2447 -0.2226
  706MOL0     C95191   2.278   8.080  11.933 -0.0809  0.5273  0.4112
  706MOL0     N95192   2.247   8.093  12.078 -0.0025 -0.1468  0.4899
  706MOL0     C95193   2.197   8.202  12.146  0.7358 -1.3361  0.2987
  706MOL0     C95194   2.176   8.158  12.271  0.3385  0.3596  1.6134
  706MOL0     C95195   2.100   8.237  12.369 -1.0832 -0.6354  0.7408
  706MOL0     C95196   2.157   8.221  12.506 -0.4154  0.2374 -0.4975
  706MOL0     C95197   2.163   8.076  12.556 -0.1244 -0.0295  0.2231
  706MOL0     C95198   2.159   8.065  12.705  0.0953  0.3730 -0.0595
  706MOL0     O95199   2.278   8.112  12.767 -0.1175 -0.1678  0.3223
  706MOL0     C95200   2.296   8.080  12.902  0.1568 -1.0169  0.9755
  706MOL0     C95201   2.200   8.121  12.990 -0.3542  0.5242  0.1366
  706MOL0     C95202   2.217   8.098  13.134  0.5750 -0.0441  0.2849
  706MOL0     C95203   2.111   8.145  13.223  0.2768 -0.0472  0.2197
  706MOL0     C95204   2.324   8.020  13.179  0.4773  0.6325 -0.4733
  706MOL0     C95205   2.348   7.983  13.324  0.2027 -0.6071  0.6255
  706MOL0     O95206   2.473   8.026  13.366  0.5381 -0.5487 -0.1950
  706MOL0     C95207   2.503   8.012  13.502  0.1452  0.9948  0.0160
  706MOL0     C95208   2.543   7.887  13.546  0.7565  0.6403  0.6247
  706MOL0     C95209   2.563   7.875  13.681 -0.6409  0.6390 -0.8988
  706MOL0     C95210   2.554   7.991  13.767 -0.6336 -0.4728  0.4046
  706MOL0     O95211   2.596   8.001  13.900  0.3520  0.3980  0.4241
  706MOL0     C95212   2.655   7.886  13.970  0.1648  0.1390  0.1031
  706MOL0     C95213   2.546   7.806  14.044 -0.4981  0.0748  0.8512
  706MOL0     C95214   2.450   7.891  14.120 -0.0608 -1.0907  0.5648
  706MOL0     C95215   2.359   7.801  14.208 -0.3507 -0.5320 -0.3168
  706MOL0     C95216   2.236   7.875  14.253 -0.6483  0.5316  0.1527
  706MOL0     C95217   2.134   7.781  14.312 -0.1524 -0.0566 -0.7605
  706MOL0     C95218   2.191   7.669  14.404 -0.1640 -0.3737 -0.2179
  706MOL0     C95219   2.076   7.575  14.442  0.9655  0.6259  0.3357
  706MOL0    Cl95220   1.986   7.641  14.574 -0.0320  0.1684 -0.2188
  706MOL0     C95221   2.517   8.108  13.716 -0.1990  0.1433  0.5975
  706MOL0     C95222   2.496   8.121  13.587 -0.3076 -0.5676 -0.8406
  706MOL0     O95223   2.265   7.941  13.399  0.3282  0.3186 -0.1857
  706MOL0     C95224   2.420   7.996  13.087  0.5879  0.0106 -0.1719
  706MOL0     C95225   2.411   8.030  12.955 -0.0595  0.0566 -0.3468
  706MOL0     N95226   2.219   8.025  12.279 -0.5344  0.8451  0.1295
  706MOL0     N95227   2.270   7.991  12.162 -0.3075 -0.2797  0.8798
  706MOL0     C95228   1.718   8.496  11.592 -0.5323 -0.2396  0.3582
  706MOL0     C95229   1.599   8.567  11.561  0.4006 -0.0930 -0.2253
  706MOL0     C95230   1.239   8.742  11.411  0.3462 -0.0351 -0.4884
  706MOL0     C95231   1.153   8.844  11.459  0.1999  0.2574 -0.4866
  706MOL0     C95232   1.012   8.840  11.437 -0.7137  0.2767  0.0694
  706MOL0     C95233   0.961   8.732  11.353  0.4494 -0.2344 -1.4395
  706MOL0     O95234   0.821   8.730  11.346  0.2428 -0.2476  1.0131
  706MOL0     C95235   0.749   8.855  11.327  1.3766 -0.1314 -0.1870
  706MOL0     C95236   0.621   8.820  11.246  0.3918 -0.5159 -0.4845
  706MOL0     C95237   0.545   8.958  11.223  0.7222 -0.2060 -0.0428
  706MOL0     C95238   0.409   8.959  11.153  0.7569  0.8659  0.6495
  706MOL0     C95239   0.343   9.084  11.177 -0.3521 -0.3561 -0.5749
  706MOL0     C95240   0.299   9.190  11.215  0.0844  0.0270 -0.4404
  706MOL0     C95241   1.039   8.626  11.320 -0.6632  0.3187  0.1641
  706MOL0     C95242   1.179   8.632  11.343  0.0228 -0.0738  1.1167
  706MOL0     H95243   1.632   8.573  11.219  0.9128  1.0461  0.3300
  706MOL0     H95244   1.862   8.503  11.271  1.2841  1.7453  1.0851
  706MOL0     H95245   2.070   8.411  11.363 -0.3962 -2.1877  0.3088
  706MOL0     H95246   2.049   8.579  11.427 -1.4429 -0.1212 -0.2335
  706MOL0     H95247   2.258   8.531  11.499 -1.2386  0.2633 -2.1735
  706MOL0     H95248   2.160   8.515  11.644  2.1118  1.9194  0.6156
  706MOL0     H95249   2.144   8.266  11.575 -1.1611  1.1404 -1.0423
  706MOL0     H95250   2.273   8.314  11.463  0.4427  1.2170 -0.2218
  706MOL0     H95251   2.428   8.360  11.639  1.5148 -1.7662 -0.6451
  706MOL0     H95252   2.295   8.326  11.760  0.2871 -2.3147  0.8541
  706MOL0     H95253   2.280   8.093  11.660  0.5075 -0.4909  3.0727
  706MOL0     H95254   2.413   8.129  11.561 -2.7223  1.7912 -1.5683
  706MOL0     H95255   2.487   7.994  11.739  1.9600 -0.2935  2.2611
  706MOL0     H95256   2.560   8.159  11.742 -0.1738  0.2504 -0.7885
  706MOL0     H95257   2.487   8.060  11.979  1.7883  1.9562  0.5394
  706MOL0     H95258   2.442   8.220  11.936  1.2928 -1.3596  3.7850
  706MOL0     H95259   2.283   7.974  11.906  3.9565  0.1751  1.8862
  706MOL0     H95260   2.218   8.152  11.877  1.0247  0.4679 -0.9089
  706MOL0     H95261   2.153   8.293  12.105 -1.8474  0.2786  5.7269
  706MOL0     H95262   2.112   8.343  12.342  2.2942 -0.5601  1.9691
  706MOL0     H95263   1.997   8.203  12.381 -1.1079 -0.5373  0.8055
  706MOL0     H95264   2.093   8.279  12.572 -2.1124 -0.9693 -1.0032
  706MOL0     H95265   2.256   8.265  12.522  0.2471 -1.9938  2.2284
  706MOL0     H95266   2.247   8.019  12.516  0.1544  1.7914 -2.0345
  706MOL0     H95267   2.066   8.040  12.520 -0.7203  1.2322  0.5230
  706MOL0     H95268   2.147   7.958  12.723  2.5967 -0.2914 -1.8011
  706MOL0     H95269   2.066   8.104  12.746 -0.6819  0.0834 -1.4948
  706MOL0     H95270   2.108   8.166  12.954  1.5054  1.9387 -3.3340
  706MOL0     H95271   2.030   8.196  13.168 -1.8824 -1.5342  1.8673
  706MOL0     H95272   2.052   8.061  13.259  0.1422  0.1086  0.3649
  706MOL0     H95273   2.145   8.205  13.308  1.3231 -1.8923  1.1461
  706MOL0     H95274   2.566   7.803  13.482  1.1355  0.6149  0.7952
  706MOL0     H95275   2.602   7.784  13.725 -3.3052 -0.0869  0.1446
  706MOL0     H95276   2.712   7.818  13.906 -0.4501 -0.7745  0.4918
  706MOL0     H95277   2.721   7.940  14.038  2.6368  0.9673 -2.7455
  706MOL0     H95278   2.490   7.748  13.971  1.5234  0.7536 -1.3553
  706MOL0     H95279   2.595   7.755  14.128  0.8966  2.3147  1.4873
  706MOL0     H95280   2.389   7.948  14.050  2.7480  2.4991  0.7580
  706MOL0     H95281   2.511   7.963  14.175 -0.8694 -2.2046  3.0705
  706MOL0     H95282   2.332   7.729  14.130 -1.9274 -0.3681  0.0360
  706MOL0     H95283   2.418   7.755  14.287 -2.5812  0.9304  2.3616
  706MOL0     H95284   2.191   7.945  14.182  1.5296  3.9366  1.8539
  706MOL0     H95285   2.268   7.945  14.330  1.5034  1.3182 -1.3694
  706MOL0     H95286   2.057   7.840  14.361  0.9906 -0.0813  1.1691
  706MOL0     H95287   2.084   7.737  14.225  0.2181 -1.6909 -0.1886
  706MOL0     H95288   2.232   7.705  14.499 -2.2724 -0.6689  0.8490
  706MOL0     H95289   2.274   7.624  14.349  0.8074  1.0194  0.0369
  706MOL0     H95290   2.131   7.496  14.495  0.1779  0.3378  0.7370
  706MOL0     H95291   2.021   7.547  14.352  1.0970  0.8735  0.1792
  706MOL0     H95292   2.504   8.191  13.785 -0.6985 -2.1306  3.4378
  706MOL0     H95293   2.449   8.216  13.566 -1.3345 -0.7140  0.6507
  706MOL0     H95294   2.506   7.953  13.137 -1.0123 -2.9639  0.2985
  706MOL0     H95295   2.496   8.011  12.889 -0.2715 -0.7485 -0.3992
  706MOL0     H95296   1.724   8.474  11.698  2.9838  2.0545  0.7992
  706MOL0     H95297   1.525   8.583  11.638  0.7393 -1.6948  0.4720
  706MOL0     H95298   1.206   8.923  11.512 -0.3589 -0.6710  1.5559
  706MOL0     H95299   0.947   8.919  11.471 -3.0938 -2.3091  2.0578
  706MOL0     H95300   0.727   8.898  11.425 -0.4535  1.3941 -1.2061
  706MOL0     H95301   0.802   8.936  11.276 -1.9303  3.1868  1.1550
  706MOL0     H95302   0.556   8.761  11.312  2.9269 -1.9872  0.8160
  706MOL0     H95303   0.631   8.775  11.147 -1.4219  2.0873 -1.9925
  706MOL0     H95304   0.611   9.031  11.175 -1.0117  1.1255 -0.4845
  706MOL0     H95305   0.515   9.002  11.319  0.3386 -0.3342 -0.1030
  706MOL0     H95306   0.346   8.880  11.193  2.1089 -0.5138  0.1936
  706MOL0     H95307   0.429   8.943  11.046  2.6821  2.0888  0.7685
  706MOL0     H95308   0.246   9.278  11.243  0.1174 -0.9413  3.0489
  706MOL0     H95309   1.002   8.551  11.251  1.1575  0.0912 -0.6209
  706MOL0     H95310   1.237   8.548  11.306 -2.2638 -1.2912  0.1629
  707MOL0     O95311  10.777   2.880   8.616  0.1268  0.1862  0.3751
  707MOL0     C95312  10.789   2.760   8.652 -0.7102 -0.8415 -0.5907
  707MOL0     O95313  10.691   2.679   8.688  0.5031  0.1667 -0.6630
  707MOL0     C95314  10.563   2.728   8.676 -0.5337  0.4101 -0.8472
  707MOL0     C95315  10.486   2.717   8.554 -1.1942 -0.1419 -0.2608
  707MOL0     C95316  10.354   2.759   8.553  0.4583  0.7286  0.3699
  707MOL0     C95317  10.278   2.798   8.660  0.0339 -1.1328  0.4271
  707MOL0     O95318  10.144   2.838   8.662 -0.2979  0.3209  0.1944
  707MOL0     C95319  10.073   2.851   8.542  0.7211  0.1032  1.4772
  707MOL0     C95320  10.013   2.734   8.477  0.5083  0.8354  1.1146
  707MOL0     C95321   9.916   2.678   8.580 -0.5761  0.4819 -0.3407
  707MOL0     C95322   9.861   2.537   8.550 -0.9149 -0.0984  0.0543
  707MOL0     C95323   9.746   2.542   8.449 -0.0875 -0.5048 -0.8346
  707MOL0     C95324   9.608   2.598   8.499  0.4830  0.3134 -1.3879
  707MOL0     C95325   9.505   2.589   8.392  0.5570 -0.0944 -0.2534
  707MOL0     C95326   9.472   2.446   8.358 -0.2358  0.0857  0.4075
  707MOL0     N95327   9.357   2.406   8.278  0.6751 -0.8454  0.2268
  707MOL0     C95328   9.223   2.396   8.324 -0.3958  0.0076  0.7645
  707MOL0     C95329   9.158   2.364   8.220  0.1630  0.4936  0.5428
  707MOL0     C95330   9.010   2.356   8.208  0.6208 -1.3709  0.4412
  707MOL0     C95331   8.956   2.491   8.144 -0.0175  0.9093  0.6752
  707MOL0     C95332   8.813   2.486   8.086 -0.3772  0.0001 -1.0059
  707MOL0     C95333   8.786   2.357   8.014 -0.0944  1.1788  0.9272
  707MOL0     O95334   8.680   2.377   7.926  1.0291 -0.5967  0.4858
  707MOL0     C95335   8.654   2.284   7.829  0.7258 -0.3688 -0.1303
  707MOL0     C95336   8.687   2.147   7.828 -0.0622  0.8410  0.0939
  707MOL0     C95337   8.666   2.067   7.710 -0.0935  0.1189  0.9699
  707MOL0     C95338   8.705   1.919   7.720  0.6085 -0.3742  0.1262
  707MOL0     C95339   8.596   2.126   7.600  0.2893 -0.2581 -0.4421
  707MOL0     C95340   8.557   2.053   7.480 -0.9028  0.2386  0.0104
  707MOL0     O95341   8.489   2.117   7.385  0.2067  0.5115 -0.0724
  707MOL0     C95342   8.445   2.061   7.261  0.2701  0.6331 -0.4509
  707MOL0     C95343   8.519   1.965   7.188 -0.0972  0.0497  0.9598
  707MOL0     C95344   8.450   1.906   7.075 -0.1163 -0.8514 -0.9071
  707MOL0     C95345   8.325   1.938   7.035 -0.8938  0.6650  0.3091
  707MOL0     O95346   8.282   1.866   6.930 -0.4919 -0.0249  0.5536
  707MOL0     C95347   8.177   1.908   6.842  1.0562 -0.5482  0.5874
  707MOL0     C95348   8.158   1.800   6.741  0.4082  0.3870 -0.0831
  707MOL0     C95349   8.269   1.779   6.643 -0.2147  0.5107 -0.3982
  707MOL0     C95350   8.234   1.724   6.511 -0.3361 -0.7112 -0.0780
  707MOL0     C95351   8.358   1.698   6.414  0.6536  0.6417  0.2817
  707MOL0     C95352   8.433   1.831   6.372  0.5474 -0.8241  0.0703
  707MOL0     C95353   8.468   1.836   6.226 -0.2749 -0.2837  1.3963
  707MOL0     C95354   8.362   1.814   6.119  0.9398 -0.0623  0.2596
  707MOL0    Cl95355   8.216   1.913   6.134 -0.1356 -0.3889 -0.1041
  707MOL0     C95356   8.260   2.041   7.096 -0.1162 -0.4697 -0.7233
  707MOL0     C95357   8.317   2.101   7.216 -0.0608  0.1875  1.2042
  707MOL0     O95358   8.586   1.936   7.467  0.2898 -0.0780  0.3307
  707MOL0     C95359   8.551   2.265   7.609 -0.6292 -0.9787  0.3154
  707MOL0     C95360   8.582   2.335   7.722 -0.7057  0.6580  1.2184
  707MOL0     N95361   9.249   2.316   8.118 -0.1246  0.9963 -0.9363
  707MOL0     N95362   9.369   2.359   8.148  0.4094  0.5592  0.5001
  707MOL0     C95363  10.349   2.815   8.788 -1.0009  0.6140  0.9356
  707MOL0     C95364  10.489   2.773   8.791 -0.7923  0.3381 -0.0617
  707MOL0     C95365  10.918   2.701   8.664 -0.1314  0.7078  0.2910
  707MOL0     C95366  11.042   2.758   8.615 -0.2561 -0.1842  0.0101
  707MOL0     C95367  11.163   2.685   8.622  0.7044 -0.2862  0.1079
  707MOL0     C95368  11.166   2.558   8.695 -0.3881  0.5816  0.0936
  707MOL0     O95369  11.280   2.488   8.709 -0.8432 -0.3866  0.0830
  707MOL0     C95370  11.324   2.466   8.845 -0.6840 -0.4199  0.2837
  707MOL0     C95371  11.365   2.602   8.913 -0.3830 -0.0043  0.7956
  707MOL0     C95372  11.491   2.668   8.850 -0.2939  0.0127  0.3781
  707MOL0     C95373  11.605   2.588   8.900 -0.8328  0.2034  0.2340
  707MOL0     C95374  11.741   2.622   8.842  0.4153  0.4124 -0.0619
  707MOL0     C95375  11.827   2.680   8.780 -1.0002  0.4779  0.5250
  707MOL0     C95376  11.048   2.508   8.748 -0.1502  0.1962 -0.2970
  707MOL0     C95377  10.930   2.582   8.737  0.6685  0.0385  0.8292
  707MOL0     H95378  10.537   2.677   8.467  0.3722  1.7235 -0.2531
  707MOL0     H95379  10.297   2.753   8.460  2.9588 -1.2204 -1.1615
  707MOL0     H95380   9.990   2.920   8.562  0.8775  0.4041  1.0905
  707MOL0     H95381  10.140   2.881   8.461  0.5801 -0.7726  1.0210
  707MOL0     H95382   9.967   2.764   8.383  3.0802 -0.1048 -0.5812
  707MOL0     H95383  10.093   2.661   8.458  0.1834 -1.0439  5.6448
  707MOL0     H95384   9.961   2.676   8.680  2.3756 -3.5018 -1.5180
  707MOL0     H95385   9.833   2.748   8.600  0.6044  2.1703 -1.1461
  707MOL0     H95386   9.936   2.474   8.502  2.5214  2.1455  2.0604
  707MOL0     H95387   9.826   2.490   8.643 -1.2394  0.6226  0.3001
  707MOL0     H95388   9.773   2.601   8.361 -0.6700 -0.5413 -1.0436
  707MOL0     H95389   9.730   2.439   8.414 -2.8107 -0.3756 -0.2298
  707MOL0     H95390   9.591   2.535   8.587  3.9569 -3.6282 -3.2187
  707MOL0     H95391   9.613   2.703   8.529  0.2739  0.1999 -0.9354
  707MOL0     H95392   9.414   2.649   8.403 -1.1187 -1.7762 -3.4575
  707MOL0     H95393   9.560   2.638   8.312  0.3672 -1.9453 -1.5728
  707MOL0     H95394   9.468   2.396   8.455  0.8261 -1.7519 -0.4468
  707MOL0     H95395   9.556   2.410   8.298 -1.1301 -0.9318 -0.2650
  707MOL0     H95396   9.188   2.441   8.416  3.7228  2.5353  1.3669
  707MOL0     H95397   8.989   2.268   8.145  2.6916 -0.1526 -2.1576
  707MOL0     H95398   8.959   2.339   8.303  1.3969 -1.8024  0.7874
  707MOL0     H95399   9.029   2.515   8.066  1.0975 -3.2358  0.1814
  707MOL0     H95400   8.945   2.566   8.223 -1.3499  0.6266  0.7835
  707MOL0     H95401   8.796   2.569   8.017  0.0892 -0.0823 -1.2290
  707MOL0     H95402   8.749   2.505   8.172  0.5640 -2.4007  0.3278
  707MOL0     H95403   8.780   2.275   8.086 -1.1892  0.4095  0.0025
  707MOL0     H95404   8.874   2.339   7.951 -1.1504  1.8548 -0.8230
  707MOL0     H95405   8.734   2.104   7.916  0.0208 -1.8759 -1.1587
  707MOL0     H95406   8.761   1.902   7.812  1.9430  1.6028 -0.2571
  707MOL0     H95407   8.618   1.855   7.701 -0.4444  0.9713  0.2595
  707MOL0     H95408   8.768   1.895   7.634 -0.5887  0.3926 -1.0019
  707MOL0     H95409   8.616   1.932   7.225 -0.0390  0.1369  0.8841
  707MOL0     H95410   8.493   1.831   7.010 -1.1497  0.7000 -3.5149
  707MOL0     H95411   8.091   1.910   6.910  0.5036 -0.3116 -0.1020
  707MOL0     H95412   8.187   2.005   6.793 -1.5575  0.6410  2.1782
  707MOL0     H95413   8.148   1.706   6.796 -0.8504  1.0457  0.8764
  707MOL0     H95414   8.058   1.814   6.698  0.0660  0.2448  0.6482
  707MOL0     H95415   8.352   1.720   6.684  1.3148  2.4212 -0.5974
  707MOL0     H95416   8.320   1.875   6.632  1.8920 -0.7230 -2.3424
  707MOL0     H95417   8.180   1.629   6.511 -1.2076 -0.3306 -3.2676
  707MOL0     H95418   8.171   1.799   6.462  2.8991  2.0726 -0.3538
  707MOL0     H95419   8.326   1.647   6.323 -0.0789  0.5867  0.5608
  707MOL0     H95420   8.423   1.622   6.457  0.9726 -0.3923 -1.9066
  707MOL0     H95421   8.362   1.913   6.387 -0.0807 -1.7060  2.2412
  707MOL0     H95422   8.524   1.836   6.432  0.2883 -0.9637  0.4829
  707MOL0     H95423   8.553   1.769   6.210  1.7358  2.3193  0.5632
  707MOL0     H95424   8.493   1.939   6.199 -2.0418 -0.1739  0.0093
  707MOL0     H95425   8.346   1.706   6.118  2.8638 -0.4711 -2.9550
  707MOL0     H95426   8.392   1.848   6.019 -0.7134  2.4187  0.5339
  707MOL0     H95427   8.170   2.091   7.063  0.4518  2.0898  1.3117
  707MOL0     H95428   8.269   2.191   7.254  0.1697  0.9249 -0.2054
  707MOL0     H95429   8.502   2.296   7.516 -0.7980 -1.5926  0.1970
  707MOL0     H95430   8.560   2.441   7.721 -0.4874  0.7182  1.9884
  707MOL0     H95431  10.293   2.832   8.880  0.7117  2.3389  1.7382
  707MOL0     H95432  10.531   2.779   8.891  0.0168  0.6724 -0.4140
  707MOL0     H95433  11.048   2.857   8.571 -1.0865 -0.4524 -0.7339
  707MOL0     H95434  11.248   2.740   8.582 -0.6406  2.8308  1.2106
  707MOL0     H95435  11.238   2.437   8.907 -1.1169  0.4102  0.0932
  707MOL0     H95436  11.408   2.397   8.854  2.7925  3.3583 -0.2362
  707MOL0     H95437  11.396   2.592   9.017  0.1083 -1.6628  0.5155
  707MOL0     H95438  11.286   2.676   8.903 -0.1119  0.1327 -0.4984
  707MOL0     H95439  11.495   2.771   8.884  1.5978  0.2231 -0.3401
  707MOL0     H95440  11.486   2.666   8.741 -5.7167  0.4854  0.3192
  707MOL0     H95441  11.588   2.480   8.893 -0.6975  0.0939  1.4748
  707MOL0     H95442  11.601   2.615   9.005 -0.2156  1.1030  0.0410
  707MOL0     H95443  11.906   2.732   8.731  0.0079  2.4682  3.8982
  707MOL0     H95444  11.041   2.407   8.788 -0.1453  0.5372  0.5888
  707MOL0     H95445  10.841   2.526   8.763  0.1287 -0.7105 -2.2623
  708MOL0     O95446   6.962  10.599   6.826  1.1329 -0.2083  0.0610
  708MOL0     C95447   7.012  10.699   6.883  0.2909  0.7692  0.8954
  708MOL0     O95448   7.074  10.810   6.827  0.6597 -0.6582  0.7904
  708MOL0     C95449   7.085  10.804   6.689 -0.1961  0.9378 -0.1533
  708MOL0     C95450   6.967  10.771   6.603  0.1156 -0.0015 -0.7213
  708MOL0     C95451   6.982  10.746   6.467  0.3934 -0.3155  0.6149
  708MOL0     C95452   7.116  10.756   6.404  0.5843  0.1252 -0.5133
  708MOL0     O95453   7.139  10.735   6.268  0.3084 -0.3769  0.5441
  708MOL0     C95454   7.044  10.794   6.168 -0.6853  0.4390  0.2897
  708MOL0     C95455   7.041  10.943   6.195 -0.7338  0.4375 -0.1907
  708MOL0     C95456   6.946  10.995   6.088 -0.7668 -0.5542  1.1264
  708MOL0     C95457   6.969  11.146   6.082  0.1029  0.4658 -0.2652
  708MOL0     C95458   6.874  11.208   5.976 -0.2833 -0.2439 -0.6347
  708MOL0     C95459   6.904  11.351   5.956  0.0997 -0.2045  0.2407
  708MOL0     C95460   6.796  11.424   5.881  0.4603  0.2841  0.1302
  708MOL0     C95461   6.754  11.359   5.753 -0.1415 -0.3454 -0.1358
  708MOL0     N95462   6.684  11.456   5.668  0.2097  0.8514 -0.0334
  708MOL0     C95463   6.566  11.526   5.687 -0.4727 -0.3615  0.0238
  708MOL0     C95464   6.551  11.593   5.565 -0.3046  0.1648  0.1276
  708MOL0     C95465   6.447  11.683   5.530  1.5248 -0.2409 -1.1787
  708MOL0     C95466   6.485  11.826   5.494 -0.0098 -0.2835 -0.0974
  708MOL0     C95467   6.366  11.924   5.484 -0.2766 -0.1673  0.6214
  708MOL0     C95468   6.399  12.076   5.495  0.2130  0.0098  0.0067
  708MOL0     O95469   6.485  12.108   5.608  0.5867 -0.2155 -0.1785
  708MOL0     C95470   6.435  12.154   5.720  0.6141  1.0383  0.1167
  708MOL0     C95471   6.528  12.187   5.809  0.1601 -0.1534  0.3367
  708MOL0     C95472   6.489  12.251   5.933  0.4509  0.1232 -0.3315
  708MOL0     C95473   6.595  12.309   6.015 -0.3131 -0.8418 -0.2789
  708MOL0     C95474   6.349  12.272   5.965 -0.2247  0.4547  0.8322
  708MOL0     C95475   6.301  12.349   6.086 -1.3317 -0.4905 -0.1361
  708MOL0     O95476   6.174  12.400   6.075 -0.1481 -0.2925  0.0924
  708MOL0     C95477   6.136  12.486   6.181 -0.7010  0.7475 -0.7905
  708MOL0     C95478   6.024  12.450   6.257 -0.3607  0.3337 -0.5933
  708MOL0     C95479   5.971  12.526   6.364 -0.1943  0.7129 -0.7951
  708MOL0     C95480   6.039  12.647   6.398  0.1113 -0.7517  0.6022
  708MOL0     O95481   5.972  12.710   6.503 -0.8689  0.7396 -0.7426
  708MOL0     C95482   5.957  12.851   6.488 -0.1683 -0.1885 -0.2684
  708MOL0     C95483   5.817  12.892   6.455 -0.0642 -0.2821 -0.5189
  708MOL0     C95484   5.810  13.043   6.412  0.1599 -0.1026 -0.4763
  708MOL0     C95485   5.659  13.080   6.362  0.4838  0.0893 -0.2885
  708MOL0     C95486   5.648  13.221   6.315  0.8285 -0.0060  0.6766
  708MOL0     C95487   5.666  13.322   6.431  0.8265  0.6358  0.2062
  708MOL0     C95488   5.621  13.461   6.381  0.1403  0.3375  0.1407
  708MOL0     C95489   5.666  13.560   6.489  0.3760  0.2349 -0.7444
  708MOL0    Cl95490   5.830  13.626   6.446  0.2068  0.2524  0.5054
  708MOL0     C95491   6.145  12.686   6.322 -0.0763 -0.5952  0.3750
  708MOL0     C95492   6.194  12.602   6.219  0.8774  0.1004 -0.6829
  708MOL0     O95493   6.369  12.351   6.186 -0.0285  0.6054 -0.5705
  708MOL0     C95494   6.255  12.217   5.878 -0.4418 -0.6903  0.1215
  708MOL0     C95495   6.298  12.168   5.751 -0.0139 -0.9919 -0.7681
  708MOL0     N95496   6.654  11.560   5.483 -0.9099 -0.3358 -0.0609
  708MOL0     N95497   6.737  11.478   5.540  0.5390  0.5655 -0.2744
  708MOL0     C95498   7.219  10.795   6.486  1.0380 -0.0680  0.0382
  708MOL0     C95499   7.206  10.812   6.626 -0.1119  0.3254 -0.0514
  708MOL0     C95500   6.999  10.703   7.027  0.7040 -0.5199  1.3083
  708MOL0     C95501   6.995  10.590   7.110  0.0937 -1.6182 -0.3871
  708MOL0     C95502   6.954  10.605   7.241 -0.2033  0.0544  0.0777
  708MOL0     C95503   6.928  10.728   7.304  1.2134  0.2506 -0.4582
  708MOL0     O95504   6.866  10.730   7.431 -0.4664  0.6691  0.0450
  708MOL0     C95505   6.839  10.858   7.489  0.1318  1.2903 -0.4144
  708MOL0     C95506   6.813  10.838   7.639  0.5171  0.1165  0.3644
  708MOL0     C95507   6.682  10.759   7.660 -0.2114  0.7342  0.4756
  708MOL0     C95508   6.550  10.825   7.630  0.3005  0.1427 -0.8686
  708MOL0     C95509   6.431  10.770   7.690  0.1471  0.3009 -0.4704
  708MOL0     C95510   6.321  10.731   7.732 -0.7622 -0.3456  0.6435
  708MOL0     C95511   6.935  10.838   7.223  0.1581 -0.6091  0.2414
  708MOL0     C95512   6.978  10.826   7.088 -0.3288  1.4990 -0.4323
  708MOL0     H95513   6.870  10.762   6.650  0.7097 -1.7052  0.2555
  708MOL0     H95514   6.887  10.730   6.417  0.9582  2.5775 -1.6025
  708MOL0     H95515   7.072  10.770   6.065  1.7453 -4.4930  1.8186
  708MOL0     H95516   6.944  10.754   6.184 -0.3065 -0.7275 -0.1818
  708MOL0     H95517   7.004  10.973   6.293  0.0631  1.1964 -0.1105
  708MOL0     H95518   7.140  10.988   6.187 -0.4168 -0.2984 -0.3897
  708MOL0     H95519   6.972  10.955   5.990 -0.3539 -1.2260  1.4987
  708MOL0     H95520   6.841  10.974   6.112 -0.8855 -0.7530  0.4420
  708MOL0     H95521   6.964  11.188   6.183 -0.1699 -0.8955  0.3203
  708MOL0     H95522   7.074  11.160   6.057  0.4172 -2.9147 -1.3091
  708MOL0     H95523   6.883  11.165   5.875 -2.1156 -1.0344 -0.4928
  708MOL0     H95524   6.772  11.184   6.006  0.1182 -1.2973 -0.0795
  708MOL0     H95525   6.912  11.399   6.054 -1.0934  1.2529 -0.3297
  708MOL0     H95526   7.002  11.360   5.908 -0.0984 -0.5747 -0.2318
  708MOL0     H95527   6.710  11.428   5.948  1.4783  0.6535  1.4486
  708MOL0     H95528   6.831  11.526   5.867 -1.3929  0.7570 -1.4585
  708MOL0     H95529   6.690  11.270   5.751 -0.2077 -0.2871 -0.8412
  708MOL0     H95530   6.842  11.327   5.696 -0.8031 -0.8503 -0.8951
  708MOL0     H95531   6.511  11.534   5.780  1.3320 -3.2776  1.4851
  708MOL0     H95532   6.378  11.651   5.451  1.3678  2.6416 -2.3236
  708MOL0     H95533   6.382  11.682   5.618  1.3390 -1.8440 -1.2947
  708MOL0     H95534   6.536  11.816   5.399  0.5032  0.2732  0.1190
  708MOL0     H95535   6.559  11.858   5.568  3.5994 -2.3949 -2.5220
  708MOL0     H95536   6.308  11.912   5.576  1.3281 -0.7167  1.6039
  708MOL0     H95537   6.309  11.897   5.395  0.6979 -0.6974  0.1401
  708MOL0     H95538   6.312  12.141   5.490 -2.7708 -3.2472  3.1781
  708MOL0     H95539   6.443  12.106   5.400  3.7671  1.1329  1.8357
  708MOL0     H95540   6.630  12.153   5.791 -0.4267 -3.2967  2.2855
  708MOL0     H95541   6.606  12.258   6.111 -0.0508 -0.7941 -0.2824
  708MOL0     H95542   6.683  12.291   5.952 -1.4505 -3.1400 -1.3391
  708MOL0     H95543   6.570  12.415   6.024  3.7442  0.1354  1.9538
  708MOL0     H95544   5.974  12.358   6.227 -1.2298 -0.7423  3.4804
  708MOL0     H95545   5.877  12.510   6.415  0.3774  1.8245  0.6430
  708MOL0     H95546   6.011  12.901   6.569  1.6345 -1.5207 -0.5891
  708MOL0     H95547   6.021  12.889   6.407  2.0848  0.0847  1.5319
  708MOL0     H95548   5.785  12.834   6.368 -3.5336 -1.1700  1.1506
  708MOL0     H95549   5.756  12.872   6.544  0.6313  1.1780  0.3108
  708MOL0     H95550   5.874  13.055   6.325  0.3332 -0.3491 -0.3856
  708MOL0     H95551   5.852  13.114   6.484  1.6820 -0.3664 -1.0701
  708MOL0     H95552   5.651  13.012   6.277 -0.3064  1.1984 -1.1414
  708MOL0     H95553   5.592  13.047   6.442  0.5456 -0.0673 -0.3031
  708MOL0     H95554   5.546  13.243   6.281  0.6746 -0.3966  0.8741
  708MOL0     H95555   5.720  13.247   6.238  0.2183 -0.2851 -0.0029
  708MOL0     H95556   5.592  13.289   6.504 -0.3631  1.5184 -0.5525
  708MOL0     H95557   5.768  13.318   6.470  0.4234  1.5679  1.4256
  708MOL0     H95558   5.512  13.464   6.367  0.4177  1.2902 -2.2529
  708MOL0     H95559   5.660  13.495   6.285  0.4035  1.8978  0.7701
  708MOL0     H95560   5.652  13.524   6.591 -1.5982 -1.0496 -1.4086
  708MOL0     H95561   5.597  13.641   6.462  1.7139  1.2328 -1.2445
  708MOL0     H95562   6.205  12.775   6.335  1.7747 -1.6931 -0.2865
  708MOL0     H95563   6.284  12.639   6.172  1.3995  3.4094  2.4212
  708MOL0     H95564   6.148  12.226   5.898 -0.0730  1.4614  1.4465
  708MOL0     H95565   6.223  12.151   5.675 -0.1139  1.6185 -1.3431
  708MOL0     H95566   7.312  10.810   6.431  0.6302 -1.0334 -0.9416
  708MOL0     H95567   7.301  10.822   6.678  0.5785 -1.4033 -0.8865
  708MOL0     H95568   7.003  10.493   7.062  1.1071 -2.0783  0.6571
  708MOL0     H95569   6.945  10.524   7.314 -2.5515 -0.0741 -0.2725
  708MOL0     H95570   6.934  10.913   7.487  1.6759 -0.9146  2.8631
  708MOL0     H95571   6.761  10.908   7.431 -0.6496  0.9498  0.3173
  708MOL0     H95572   6.812  10.933   7.693 -0.2088 -1.3893  3.2508
  708MOL0     H95573   6.892  10.784   7.691 -1.0301  1.0104  3.9632
  708MOL0     H95574   6.681  10.752   7.770 -0.7802  3.3408  0.6835
  708MOL0     H95575   6.698  10.667   7.602  3.5006  1.9626 -0.7111
  708MOL0     H95576   6.528  10.827   7.522 -5.5185 -1.3365 -0.0631
  708MOL0     H95577   6.541  10.927   7.668  0.5914 -0.6573  1.4909
  708MOL0     H95578   6.222  10.697   7.754 -1.0595  0.5086  0.6541
  708MOL0     H95579   6.908  10.936   7.262 -0.3499 -0.3695 -0.6977
  708MOL0     H95580   6.978  10.917   7.030  1.1917  0.5872 -1.9416
  709MOL0     O95581   1.962   1.773   8.521  0.7538 -0.0757  0.1698
  709MOL0     C95582   1.960   1.696   8.426  0.0665  0.3300  0.9813
  709MOL0     O95583   1.970   1.734   8.290  0.0443  0.1475  0.1453
  709MOL0     C95584   1.977   1.865   8.253  0.0201  0.1653 -0.4918
  709MOL0     C95585   2.078   1.950   8.294  0.1652  0.3830 -0.1759
  709MOL0     C95586   2.078   2.082   8.254 -0.5487 -0.4084 -0.5012
  709MOL0     C95587   1.983   2.129   8.162 -0.6407  0.8423 -0.4323
  709MOL0     O95588   1.995   2.256   8.120  0.3637  0.1996  0.2350
  709MOL0     C95589   1.888   2.319   8.049  0.5622  0.4075 -0.8831
  709MOL0     C95590   1.895   2.474   8.071  0.2731  0.3599 -0.2229
  709MOL0     C95591   1.878   2.526   8.215  1.5295 -0.1157 -0.2389
  709MOL0     C95592   1.736   2.553   8.269  0.1031 -0.3917  1.0614
  709MOL0     C95593   1.740   2.660   8.382 -0.7683  0.1757  0.7314
  709MOL0     C95594   1.629   2.656   8.483  0.4371 -0.5413 -1.5157
  709MOL0     C95595   1.653   2.524   8.560 -0.3382 -0.4953  0.8736
  709MOL0     C95596   1.549   2.495   8.665 -0.1585  0.7734 -0.6520
  709MOL0     N95597   1.560   2.586   8.785 -0.2791 -0.5369 -1.4256
  709MOL0     C95598   1.494   2.698   8.811  0.5609 -0.1370 -0.3202
  709MOL0     C95599   1.556   2.768   8.909 -0.4550  0.7130  0.2945
  709MOL0     C95600   1.528   2.894   8.959 -0.6554 -0.4672  0.0390
  709MOL0     C95601   1.382   2.939   8.952  0.2147  0.2214  0.0839
  709MOL0     C95602   1.373   3.086   9.011  1.1482  1.0071 -0.2526
  709MOL0     C95603   1.227   3.115   9.026 -0.3009  0.5790  0.4169
  709MOL0     O95604   1.171   3.142   8.892 -0.0067 -0.2989  0.6733
  709MOL0     C95605   1.040   3.135   8.877  1.1884 -0.4193 -1.0041
  709MOL0     C95606   0.943   3.112   8.982  0.1060 -0.0136 -0.5054
  709MOL0     C95607   0.807   3.105   8.955  1.0273  1.2436  1.5476
  709MOL0     C95608   0.717   3.071   9.070 -0.6180  0.1560  0.0516
  709MOL0     C95609   0.758   3.117   8.821  0.7287 -0.9264 -0.6334
  709MOL0     C95610   0.615   3.106   8.787 -0.0783 -0.0973  0.3119
  709MOL0     O95611   0.530   3.148   8.886 -0.4531 -0.2646 -0.0972
  709MOL0     C95612   0.403   3.163   8.876  0.7321 -0.0401  0.3487
  709MOL0     C95613   0.328   3.078   8.790  0.8373  0.0759 -0.0091
  709MOL0     C95614   0.189   3.099   8.767 -0.1825  0.1270  0.6210
  709MOL0     C95615   0.137   3.216   8.822  0.2658 -1.0145 -1.0582
  709MOL0     O95616   0.006   3.243   8.786 -0.4047 -0.3235  0.3647
  709MOL0     C95617  -0.036   3.373   8.760  0.1148  0.2633  0.6870
  709MOL0     C95618  -0.016   3.392   8.602  0.8410 -0.0967 -0.5190
  709MOL0     C95619   0.116   3.464   8.556 -0.1306  0.0692 -0.7083
  709MOL0     C95620   0.155   3.417   8.413 -0.5556  0.1989  0.0083
  709MOL0     C95621   0.253   3.521   8.351  0.6348 -0.0688 -0.2312
  709MOL0     C95622   0.196   3.663   8.326 -0.8803  1.0123 -0.2949
  709MOL0     C95623   0.055   3.664   8.258  0.0059 -0.5225 -0.0357
  709MOL0     C95624  -0.010   3.799   8.287  0.4857 -0.1415  0.1625
  709MOL0    Cl95625  -0.168   3.820   8.199  0.7997 -0.6497 -0.2778
  709MOL0     C95626   0.202   3.289   8.918 -0.7054 -0.2418 -0.3998
  709MOL0     C95627   0.332   3.256   8.954  0.0147 -1.0092 -0.4061
  709MOL0     O95628   0.585   3.095   8.668  0.2221 -0.0881  0.3892
  709MOL0     C95629   0.849   3.133   8.716  0.4924 -0.7338  0.8360
  709MOL0     C95630   0.987   3.152   8.747 -0.5990  0.2976 -0.0459
  709MOL0     N95631   1.650   2.690   8.948  1.0141  0.5661 -0.8643
  709MOL0     N95632   1.645   2.578   8.887 -0.6529 -0.1139 -0.2004
  709MOL0     C95633   1.877   2.035   8.117 -0.4132  0.7485  0.9422
  709MOL0     C95634   1.874   1.908   8.165 -0.7898 -0.5241  1.1279
  709MOL0     C95635   1.967   1.548   8.454  0.3774  0.3333 -0.0338
  709MOL0     C95636   1.955   1.490   8.583  0.0094 -0.4077  0.3540
  709MOL0     C95637   1.962   1.348   8.594 -0.3589 -0.1411  0.1230
  709MOL0     C95638   1.963   1.271   8.479 -0.0616 -0.0675 -0.8036
  709MOL0     O95639   1.973   1.137   8.481  0.0216  0.2799  0.1262
  709MOL0     C95640   1.939   1.063   8.604  1.2096  0.0572 -0.0796
  709MOL0     C95641   2.049   1.050   8.711  1.0963  0.2226 -0.0612
  709MOL0     C95642   2.159   0.945   8.682  0.1132  1.2237  0.4807
  709MOL0     C95643   2.106   0.798   8.670  0.5244  0.3863 -0.6511
  709MOL0     C95644   2.211   0.697   8.661 -0.1767 -0.1283 -0.0850
  709MOL0     C95645   2.303   0.623   8.639  0.8881  0.0204  0.4831
  709MOL0     C95646   1.977   1.324   8.358  0.1732 -0.2794  0.1964
  709MOL0     C95647   1.985   1.465   8.343  0.5569  0.0981  0.0559
  709MOL0     H95648   2.149   1.906   8.363 -2.3603 -3.4151  0.3235
  709MOL0     H95649   2.148   2.150   8.302  0.2658 -1.1109 -0.6700
  709MOL0     H95650   1.903   2.303   7.942 -0.1580 -1.4764 -0.7362
  709MOL0     H95651   1.786   2.290   8.073  0.4452  0.4173 -1.3600
  709MOL0     H95652   1.999   2.500   8.049  1.2236  0.0310  3.3156
  709MOL0     H95653   1.821   2.517   8.003 -2.9121 -2.2262  1.3201
  709MOL0     H95654   1.928   2.459   8.286 -2.4720 -3.7054 -0.4210
  709MOL0     H95655   1.925   2.623   8.195  0.2937  0.1985 -1.7638
  709MOL0     H95656   1.672   2.610   8.201 -2.1142  2.2015  4.9510
  709MOL0     H95657   1.692   2.462   8.309 -5.2882  1.3520 -0.0114
  709MOL0     H95658   1.833   2.661   8.440  2.6979 -2.3804 -4.0965
  709MOL0     H95659   1.731   2.759   8.336  0.5768 -0.1561 -0.2813
  709MOL0     H95660   1.631   2.741   8.552  3.6114 -2.2553  0.7745
  709MOL0     H95661   1.540   2.654   8.418  2.8398 -2.1727 -5.0885
  709MOL0     H95662   1.641   2.434   8.499 -1.6736  0.8650 -1.0294
  709MOL0     H95663   1.753   2.523   8.602  0.3002  4.1791  0.0312
  709MOL0     H95664   1.560   2.389   8.690 -0.7563 -0.5222 -5.0759
  709MOL0     H95665   1.450   2.500   8.620 -1.9851 -3.7889  2.1059
  709MOL0     H95666   1.413   2.743   8.754  1.7777  0.3155 -1.7794
  709MOL0     H95667   1.538   2.887   9.068  1.8023 -0.8840 -0.1621
  709MOL0     H95668   1.602   2.966   8.924  0.2106  0.1584  2.8720
  709MOL0     H95669   1.313   2.873   9.004  1.1701  0.1154  1.2783
  709MOL0     H95670   1.354   2.939   8.846  0.1213 -0.6379  0.0999
  709MOL0     H95671   1.422   3.157   8.944 -1.4942  3.3373  0.1299
  709MOL0     H95672   1.427   3.101   9.105 -0.7425  1.0021  0.8785
  709MOL0     H95673   1.219   3.192   9.104  1.6033 -1.6283  3.0019
  709MOL0     H95674   1.174   3.023   9.055 -1.3501  0.7369 -0.8955
  709MOL0     H95675   0.968   3.108   9.088 -1.0943  2.8211 -0.0200
  709MOL0     H95676   0.655   3.151   9.111  1.7413  1.3112  1.6652
  709MOL0     H95677   0.649   2.997   9.028  0.8700 -0.3261 -1.6383
  709MOL0     H95678   0.772   3.027   9.154  2.2813  1.9610 -0.7550
  709MOL0     H95679   0.392   2.994   8.767 -0.4267 -0.9607  0.1803
  709MOL0     H95680   0.131   3.041   8.695  1.0252 -0.5527  0.1680
  709MOL0     H95681  -0.143   3.386   8.776  0.4259  2.3084  1.3295
  709MOL0     H95682   0.016   3.453   8.813 -0.5042  1.0133  0.1853
  709MOL0     H95683  -0.028   3.303   8.539  0.4363  1.3528 -2.6264
  709MOL0     H95684  -0.091   3.467   8.575 -1.6892 -2.1617  0.3225
  709MOL0     H95685   0.199   3.452   8.626 -0.7301  1.6350  0.3187
  709MOL0     H95686   0.099   3.572   8.550 -0.8202 -0.0904 -2.1412
  709MOL0     H95687   0.218   3.328   8.421 -0.1003  0.5806  0.8048
  709MOL0     H95688   0.062   3.402   8.357 -2.1191 -1.0922  2.7618
  709MOL0     H95689   0.298   3.477   8.261 -0.5143  0.6392 -1.1805
  709MOL0     H95690   0.334   3.532   8.424  0.1682  0.8972  0.1609
  709MOL0     H95691   0.181   3.707   8.425 -0.6620 -3.2870  1.8840
  709MOL0     H95692   0.262   3.735   8.275 -0.0562 -0.1534 -0.9388
  709MOL0     H95693  -0.013   3.588   8.297  0.2136 -1.2756 -1.1022
  709MOL0     H95694   0.076   3.641   8.153 -2.3987  0.5230 -0.8194
  709MOL0     H95695   0.052   3.879   8.244  0.1249  0.7487  1.2328
  709MOL0     H95696  -0.032   3.822   8.392  1.2117  0.4467  0.1926
  709MOL0     H95697   0.157   3.368   8.978 -1.4357 -1.2458  0.3938
  709MOL0     H95698   0.375   3.307   9.040 -2.4283  2.5463 -1.0808
  709MOL0     H95699   0.808   3.134   8.615 -2.6474 -0.3175  1.9858
  709MOL0     H95700   1.065   3.171   8.674 -0.8620  2.5981  0.2040
  709MOL0     H95701   1.800   2.064   8.047  1.9545  2.0867 -1.2996
  709MOL0     H95702   1.806   1.831   8.131 -0.6133  0.2496 -1.1460
  709MOL0     H95703   1.952   1.553   8.672 -0.6604  0.4450 -0.2532
  709MOL0     H95704   1.963   1.311   8.696  1.4570  2.6958  1.2609
  709MOL0     H95705   1.855   1.118   8.647  0.0582  1.2719 -3.5461
  709MOL0     H95706   1.896   0.968   8.575 -1.1937  1.5020 -1.5478
  709MOL0     H95707   1.985   1.034   8.799 -1.0038  0.9941 -1.3872
  709MOL0     H95708   2.092   1.149   8.724 -0.8189  1.1517 -0.3755
  709MOL0     H95709   2.246   0.950   8.748  2.5406  0.1673 -2.3939
  709MOL0     H95710   2.205   0.967   8.585  3.0178 -3.8426  0.3578
  709MOL0     H95711   2.050   0.785   8.577 -2.3571 -1.7765  1.2517
  709MOL0     H95712   2.037   0.790   8.754 -0.8420  2.1367 -1.5394
  709MOL0     H95713   2.386   0.555   8.629  0.4648 -0.5129  0.5400
  709MOL0     H95714   1.976   1.252   8.277 -0.3833  0.2684 -0.2871
  709MOL0     H95715   1.982   1.502   8.241  0.4111 -2.6350 -1.0094
  710MOL0     O95716   2.677   4.857  10.006  0.6032  0.3843 -0.5646
  710MOL0     C95717   2.619   4.956   9.962  0.3807 -0.3387  0.0580
  710MOL0     O95718   2.518   4.952   9.881 -0.1267  0.5082 -0.6660
  710MOL0     C95719   2.483   4.835   9.818  0.1340 -0.3896  0.3104
  710MOL0     C95720   2.492   4.835   9.676 -1.2668  0.0428 -0.9234
  710MOL0     C95721   2.445   4.726   9.604  0.1492  0.1249 -0.5472
  710MOL0     C95722   2.398   4.606   9.670 -0.3731 -0.5574  0.6127
  710MOL0     O95723   2.348   4.506   9.604 -0.2541 -0.3529  0.0267
  710MOL0     C95724   2.215   4.523   9.562  0.2252  0.2432 -0.1275
  710MOL0     C95725   2.133   4.391   9.542 -0.7635 -1.0145 -0.2737
  710MOL0     C95726   2.186   4.310   9.428 -0.3008  0.7372 -0.4883
  710MOL0     C95727   2.096   4.198   9.401 -0.6546 -0.3599  0.3367
  710MOL0     C95728   2.162   4.094   9.309  0.2797  0.2109 -0.2136
  710MOL0     C95729   2.088   3.960   9.311  0.3947  0.9570  0.1702
  710MOL0     C95730   1.935   3.966   9.321 -0.2652  0.6223  1.3526
  710MOL0     C95731   1.861   4.007   9.188 -0.5486  0.0148 -0.4918
  710MOL0     N95732   1.902   3.919   9.074 -0.4520  1.0567  0.3078
  710MOL0     C95733   1.853   3.793   9.052 -1.1321 -0.7141  0.2688
  710MOL0     C95734   1.919   3.750   8.934  0.9650  0.2617 -0.9142
  710MOL0     C95735   1.931   3.611   8.883 -0.2878  0.2952  0.4174
  710MOL0     C95736   1.946   3.506   9.000  1.1294  1.1708 -0.6499
  710MOL0     C95737   1.945   3.358   8.957  0.5953 -0.6474 -1.1774
  710MOL0     C95738   1.820   3.309   8.888  0.8339 -1.8410  0.9646
  710MOL0     O95739   1.842   3.209   8.789 -0.8134  1.2158  0.4070
  710MOL0     C95740   1.739   3.167   8.715  1.3668  0.2173  0.9552
  710MOL0     C95741   1.601   3.197   8.717 -0.2789 -0.4754  0.3109
  710MOL0     C95742   1.511   3.152   8.625  0.4062 -0.8124  0.7409
  710MOL0     C95743   1.370   3.214   8.614 -0.1505  0.2074  0.4715
  710MOL0     C95744   1.549   3.053   8.539 -0.2297  0.8039  0.1885
  710MOL0     C95745   1.471   3.005   8.419  0.7708 -0.2175  0.6744
  710MOL0     O95746   1.541   2.944   8.317 -0.3666 -0.2048 -0.5068
  710MOL0     C95747   1.484   2.920   8.193  0.4194  0.1623 -0.5872
  710MOL0     C95748   1.568   2.908   8.091 -0.3043  0.4892  0.2038
  710MOL0     C95749   1.527   2.899   7.958 -0.1023 -0.6362 -0.4485
  710MOL0     C95750   1.389   2.884   7.941  0.4395  0.2416  0.1745
  710MOL0     O95751   1.335   2.874   7.813  0.0168 -0.2357  0.4029
  710MOL0     C95752   1.213   2.910   7.772  0.1691 -0.5527  2.0063
  710MOL0     C95753   1.113   2.786   7.760 -0.4176  0.7876  0.9734
  710MOL0     C95754   1.150   2.691   7.643  0.5887  0.1324  0.9202
  710MOL0     C95755   1.246   2.573   7.676  0.4512 -0.2405  0.3759
  710MOL0     C95756   1.251   2.450   7.567  0.6669 -1.0339  0.4761
  710MOL0     C95757   1.119   2.374   7.528 -0.1835 -0.1501 -0.7514
  710MOL0     C95758   1.061   2.288   7.651 -0.7906 -0.3028 -0.7698
  710MOL0     C95759   0.910   2.293   7.651 -0.3061  0.5856 -0.0363
  710MOL0    Cl95760   0.834   2.240   7.497  0.1160 -0.2048  0.2874
  710MOL0     C95761   1.296   2.883   8.046 -0.6660 -0.4031 -0.4696
  710MOL0     C95762   1.348   2.905   8.175  0.4660 -0.7641  0.1130
  710MOL0     O95763   1.348   3.008   8.420  0.3630  0.9617  0.4073
  710MOL0     C95764   1.688   3.014   8.530  0.1021 -1.1830  0.0810
  710MOL0     C95765   1.781   3.077   8.616  0.7016 -0.1234  0.5595
  710MOL0     N95766   1.988   3.856   8.883  0.4041  0.3373  0.8424
  710MOL0     N95767   1.977   3.958   8.960  0.0132 -0.7102 -0.0240
  710MOL0     C95768   2.418   4.597   9.806  0.3878 -0.7769 -0.3116
  710MOL0     C95769   2.450   4.713   9.883  0.5410 -0.0328  0.0138
  710MOL0     C95770   2.685   5.090   9.996  0.8436 -0.5927 -0.5403
  710MOL0     C95771   2.613   5.208   9.953 -0.1602 -0.5847 -0.0344
  710MOL0     C95772   2.671   5.328   9.979  0.1439  1.1883 -0.1456
  710MOL0     C95773   2.793   5.338  10.036 -0.3193 -1.1011 -0.1041
  710MOL0     O95774   2.840   5.458  10.066 -0.0945 -0.9504 -0.0305
  710MOL0     C95775   2.850   5.558   9.969 -0.2621  0.0806  1.3566
  710MOL0     C95776   2.819   5.694  10.033  0.1711  0.0751  0.2856
  710MOL0     C95777   2.930   5.724  10.138 -0.2318 -0.3927 -0.4193
  710MOL0     C95778   3.033   5.822  10.074 -0.2460 -0.0649 -0.7645
  710MOL0     C95779   3.139   5.852  10.169  0.0410 -1.2150 -0.2895
  710MOL0     C95780   3.213   5.877  10.263  0.8910  0.7761  0.2116
  710MOL0     C95781   2.859   5.229  10.076  0.5885  0.0341  0.3929
  710MOL0     C95782   2.800   5.108  10.062  0.3455 -0.1365  0.1807
  710MOL0     H95783   2.535   4.924   9.630 -1.4560  0.6538  0.0579
  710MOL0     H95784   2.446   4.724   9.496  0.4155  5.0082 -0.8552
  710MOL0     H95785   2.162   4.574   9.643  2.0634 -1.4605  2.2487
  710MOL0     H95786   2.223   4.588   9.473  1.5848  1.2553  0.6946
  710MOL0     H95787   2.141   4.321   9.626 -3.4545 -0.4530  0.5647
  710MOL0     H95788   2.027   4.417   9.538 -0.1353  3.1901  3.3493
  710MOL0     H95789   2.201   4.378   9.344 -3.7907  2.6715  0.2273
  710MOL0     H95790   2.286   4.276   9.455 -0.2122  0.3007 -1.3313
  710MOL0     H95791   2.059   4.156   9.495  1.1971 -0.7032  0.9602
  710MOL0     H95792   2.004   4.237   9.357 -2.0493 -1.8797  1.7598
  710MOL0     H95793   2.160   4.130   9.206 -1.3656 -4.3435 -2.0059
  710MOL0     H95794   2.265   4.079   9.341  1.0276  1.5112 -1.8752
  710MOL0     H95795   2.127   3.904   9.226  3.3216 -0.6321  2.3406
  710MOL0     H95796   2.112   3.897   9.397 -0.0599  1.2546  0.5184
  710MOL0     H95797   1.892   3.871   9.355 -0.0427 -0.8523 -2.1232
  710MOL0     H95798   1.906   4.028   9.406  1.2155 -0.6575  2.8771
  710MOL0     H95799   1.893   4.109   9.167 -2.1091  0.9313  1.3020
  710MOL0     H95800   1.753   4.003   9.201 -0.4406 -2.9559  0.2720
  710MOL0     H95801   1.803   3.733   9.129 -0.2867 -0.3824  1.0903
  710MOL0     H95802   1.841   3.588   8.824 -1.4182  3.1556  0.8195
  710MOL0     H95803   2.026   3.606   8.831  1.0839  1.3112  2.6511
  710MOL0     H95804   1.898   3.508   9.098  4.9544 -4.1434  1.8091
  710MOL0     H95805   2.043   3.528   9.045 -0.2680  3.3455  1.5755
  710MOL0     H95806   1.954   3.295   9.046 -1.1425 -0.2017 -0.6422
  710MOL0     H95807   2.038   3.352   8.900  3.0038 -2.2804  2.5320
  710MOL0     H95808   1.766   3.394   8.845  1.3645 -0.5287  2.7774
  710MOL0     H95809   1.747   3.289   8.967 -0.8527 -1.7355 -0.4957
  710MOL0     H95810   1.564   3.273   8.784  0.3916 -1.1862  1.5130
  710MOL0     H95811   1.387   3.307   8.669  1.0255 -0.8480  1.9897
  710MOL0     H95812   1.339   3.248   8.515 -0.1997  0.1000  0.4498
  710MOL0     H95813   1.298   3.149   8.664 -0.0367 -2.5961 -2.6560
  710MOL0     H95814   1.676   2.920   8.098 -0.3247  1.6944 -1.0790
  710MOL0     H95815   1.597   2.909   7.876  1.1399  1.2500  0.7831
  710MOL0     H95816   1.159   2.990   7.823 -2.1511 -0.0870 -0.9471
  710MOL0     H95817   1.223   2.937   7.667 -1.2450  1.6710  2.3868
  710MOL0     H95818   1.100   2.733   7.855 -0.2800  2.1409  1.7759
  710MOL0     H95819   1.019   2.824   7.719  0.0191 -1.2490 -2.2485
  710MOL0     H95820   1.188   2.758   7.566 -1.0650  1.3955  1.1603
  710MOL0     H95821   1.050   2.658   7.616  1.5120 -3.1476  1.0472
  710MOL0     H95822   1.348   2.612   7.679  0.3346  0.1536 -0.5170
  710MOL0     H95823   1.210   2.530   7.770 -2.7891  1.4764  0.0654
  710MOL0     H95824   1.322   2.372   7.597  2.0886 -1.4750 -3.4728
  710MOL0     H95825   1.292   2.487   7.473  0.9611 -1.3927  0.4615
  710MOL0     H95826   1.054   2.451   7.486  0.1357  1.5627  1.7391
  710MOL0     H95827   1.143   2.299   7.452  0.0433 -1.0593  0.1931
  710MOL0     H95828   1.106   2.332   7.740 -3.6368 -2.0455  1.7337
  710MOL0     H95829   1.096   2.184   7.661  4.4296  1.2823  0.8054
  710MOL0     H95830   0.893   2.401   7.656 -2.6802  0.2263  1.2157
  710MOL0     H95831   0.875   2.241   7.740  2.5961  1.9301  2.0475
  710MOL0     H95832   1.189   2.881   8.029 -1.4730  1.5984  3.2281
  710MOL0     H95833   1.274   2.908   8.254  0.0819  3.4304 -0.1580
  710MOL0     H95834   1.706   2.932   8.462 -2.0923 -0.4136 -1.5630
  710MOL0     H95835   1.883   3.043   8.611  0.1801 -1.6426 -0.3772
  710MOL0     H95836   2.424   4.496   9.846 -4.7110 -1.7524 -1.3507
  710MOL0     H95837   2.462   4.700   9.990 -4.5994 -1.2149  0.6826
  710MOL0     H95838   2.523   5.202   9.894  0.3925  0.2256 -0.9870
  710MOL0     H95839   2.602   5.404   9.944 -1.6429  0.0896  0.8710
  710MOL0     H95840   2.946   5.569   9.917 -0.5550  0.6206  0.9128
  710MOL0     H95841   2.782   5.537   9.886  3.0772 -2.4440 -0.9742
  710MOL0     H95842   2.727   5.679  10.090  0.5649 -1.8838  0.4957
  710MOL0     H95843   2.806   5.768   9.954 -0.6180  2.4327  2.5084
  710MOL0     H95844   2.994   5.643  10.174 -0.5014 -0.4882 -0.1494
  710MOL0     H95845   2.884   5.777  10.221  1.8815 -1.2911  1.4226
  710MOL0     H95846   3.001   5.912  10.021  3.3335  1.9648  0.1824
  710MOL0     H95847   3.086   5.760  10.002  2.0862  0.4320  0.4138
  710MOL0     H95848   3.262   5.911  10.352  0.8285 -0.2435  0.6530
  710MOL0     H95849   2.954   5.228  10.130  0.6837  1.3392  0.2928
  710MOL0     H95850   2.842   5.015  10.101 -1.1901 -1.0581 -0.2480
  711MOL0     O95851   2.296   3.132   1.646  0.1443  0.2486  0.0009
  711MOL0     C95852   2.381   3.068   1.579  0.5098 -0.0458  0.5582
  711MOL0     O95853   2.361   2.936   1.517 -0.4962 -0.9972  0.0410
  711MOL0     C95854   2.239   2.877   1.488 -0.6116 -0.3825  0.2724
  711MOL0     C95855   2.246   2.742   1.490  0.1354  0.2005  0.5662
  711MOL0     C95856   2.124   2.663   1.461 -0.1967 -0.4405 -0.2929
  711MOL0     C95857   2.001   2.725   1.441 -0.9680 -0.0528 -0.6333
  711MOL0     O95858   1.883   2.652   1.423 -0.4173  0.2748 -0.0661
  711MOL0     C95859   1.871   2.523   1.487  0.2714  1.1118  0.8586
  711MOL0     C95860   1.878   2.523   1.646  0.6759 -0.4175  0.7787
  711MOL0     C95861   1.762   2.592   1.717  0.4047  0.1593  0.5805
  711MOL0     C95862   1.614   2.526   1.696  0.3787  0.5478  0.5588
  711MOL0     C95863   1.505   2.594   1.781  0.5665  1.0106 -1.1423
  711MOL0     C95864   1.513   2.748   1.774  0.1306  0.0154 -0.6470
  711MOL0     C95865   1.383   2.802   1.825  0.7726 -0.0894 -0.4441
  711MOL0     C95866   1.375   2.759   1.975 -0.1487 -0.6112 -0.4897
  711MOL0     N95867   1.286   2.845   2.062  0.4757  0.1537 -0.8544
  711MOL0     C95868   1.209   2.779   2.155 -0.3766  0.4707 -0.1082
  711MOL0     C95869   1.130   2.874   2.199 -0.4127  0.4329 -0.4309
  711MOL0     C95870   1.008   2.864   2.286 -0.7658  0.0105  0.6840
  711MOL0     C95871   0.897   2.797   2.202  0.2088  0.9002 -0.0648
  711MOL0     C95872   0.766   2.801   2.278 -0.0697 -1.0743  0.1109
  711MOL0     C95873   0.653   2.734   2.205  0.3790  0.3405  0.7329
  711MOL0     O95874   0.679   2.601   2.173 -0.1593  0.1362 -0.0610
  711MOL0     C95875   0.585   2.503   2.183  0.8406  0.1122  0.1476
  711MOL0     C95876   0.527   2.464   2.301  0.2889  0.2059 -0.1861
  711MOL0     C95877   0.456   2.346   2.316 -0.7002  0.0082 -0.8303
  711MOL0     C95878   0.418   2.312   2.457  0.1762  1.2284  0.7637
  711MOL0     C95879   0.427   2.274   2.200  0.4353  0.3051  0.2001
  711MOL0     C95880   0.357   2.141   2.220 -0.0413 -0.1471  0.0618
  711MOL0     O95881   0.237   2.131   2.169  0.3848 -0.0083 -0.3793
  711MOL0     C95882   0.143   2.029   2.198 -0.6866 -0.0946 -0.4045
  711MOL0     C95883   0.094   1.972   2.079  0.5467  0.0527 -1.2170
  711MOL0     C95884   0.001   1.871   2.076 -0.0127 -0.0416  0.6813
  711MOL0     C95885  -0.039   1.808   2.194  1.1233 -0.0495  0.0170
  711MOL0     O95886  -0.126   1.699   2.216 -0.6677 -0.7098  0.3073
  711MOL0     C95887  -0.213   1.662   2.112 -0.0948 -0.5265 -0.7078
  711MOL0     C95888  -0.148   1.554   2.026 -0.2790 -0.3739  0.1009
  711MOL0     C95889  -0.240   1.502   1.920 -0.9784 -0.1763  0.5517
  711MOL0     C95890  -0.161   1.418   1.817  0.9353 -0.4445 -0.0545
  711MOL0     C95891  -0.244   1.356   1.705 -0.3120 -0.0720  0.2549
  711MOL0     C95892  -0.163   1.273   1.606  1.3864 -0.5542  0.3075
  711MOL0     C95893  -0.251   1.185   1.513 -0.4047  0.4599  0.1558
  711MOL0     C95894  -0.182   1.058   1.463  0.0494 -0.6122 -0.9709
  711MOL0    Cl95895  -0.087   1.122   1.337 -0.5156  0.1730 -0.0332
  711MOL0     C95896   0.013   1.859   2.312 -1.6482 -0.4587  0.4647
  711MOL0     C95897   0.112   1.960   2.316  0.8531 -0.4464  1.0966
  711MOL0     O95898   0.415   2.052   2.289  0.0390  0.3106 -0.2683
  711MOL0     C95899   0.475   2.317   2.082  0.4886 -1.1796  0.1214
  711MOL0     C95900   0.556   2.428   2.066  0.0478 -0.5084  0.1423
  711MOL0     N95901   1.171   2.992   2.142 -0.1506 -0.1623  0.1312
  711MOL0     N95902   1.259   2.970   2.056 -0.0371 -0.6075 -0.0643
  711MOL0     C95903   2.000   2.864   1.450 -0.6425 -0.5619  0.0738
  711MOL0     C95904   2.120   2.947   1.465 -0.3731  0.1541  0.0808
  711MOL0     C95905   2.517   3.121   1.571  0.7117  0.2550 -0.5248
  711MOL0     C95906   2.541   3.257   1.583  0.3862 -0.2721  0.0050
  711MOL0     C95907   2.675   3.305   1.587  0.4505  0.1594  0.1527
  711MOL0     C95908   2.784   3.219   1.579  0.5567 -0.7389  0.1220
  711MOL0     O95909   2.919   3.260   1.591  0.1794  0.1109 -0.3400
  711MOL0     C95910   2.938   3.396   1.627 -0.1829 -0.2852 -0.8253
  711MOL0     C95911   3.090   3.439   1.659  0.1871  0.3811 -0.5291
  711MOL0     C95912   3.153   3.367   1.779 -0.0852  0.1077 -0.2218
  711MOL0     C95913   3.259   3.441   1.854  0.4207 -0.3704 -0.1693
  711MOL0     C95914   3.212   3.581   1.888 -0.5935 -0.6927  0.8826
  711MOL0     C95915   3.185   3.699   1.906 -0.5746  0.8775 -0.4299
  711MOL0     C95916   2.755   3.082   1.557 -0.8381 -0.2812  0.0252
  711MOL0     C95917   2.624   3.031   1.558  0.7437 -0.5250  0.8900
  711MOL0     H95918   2.335   2.687   1.517  0.0755  0.2930  0.9460
  711MOL0     H95919   2.127   2.555   1.462 -2.7219 -0.5958  2.0738
  711MOL0     H95920   1.772   2.490   1.455  0.8555  0.4072 -0.3329
  711MOL0     H95921   1.945   2.452   1.447 -1.0775  0.4668 -0.5874
  711MOL0     H95922   1.910   2.424   1.682  4.5948  0.5918  0.5673
  711MOL0     H95923   1.970   2.576   1.673  0.1005  0.3395  1.2768
  711MOL0     H95924   1.802   2.577   1.817  1.7251 -2.0841 -0.2034
  711MOL0     H95925   1.756   2.692   1.672  0.7240 -1.2961 -3.0487
  711MOL0     H95926   1.583   2.539   1.592 -0.5711  1.6137  0.9561
  711MOL0     H95927   1.621   2.418   1.707  0.2320  0.6923  2.4248
  711MOL0     H95928   1.404   2.565   1.752  0.7400  1.1404 -1.9006
  711MOL0     H95929   1.536   2.560   1.881 -1.1531 -3.4706 -1.9026
  711MOL0     H95930   1.597   2.788   1.831 -0.4259 -3.0744  2.7038
  711MOL0     H95931   1.519   2.784   1.671 -0.9656  0.7898 -0.4616
  711MOL0     H95932   1.390   2.911   1.827 -0.8903  0.0423  1.2202
  711MOL0     H95933   1.300   2.772   1.761  2.3024 -3.9304 -0.9036
  711MOL0     H95934   1.472   2.772   2.023 -0.6277  1.9210 -0.0395
  711MOL0     H95935   1.340   2.656   1.987  1.1863 -1.2677 -1.9683
  711MOL0     H95936   1.207   2.673   2.177  0.8545  0.1604 -1.3265
  711MOL0     H95937   1.023   2.794   2.368 -4.2417 -1.8165 -0.0688
  711MOL0     H95938   0.984   2.963   2.327 -0.8615  0.0524  0.5284
  711MOL0     H95939   0.921   2.690   2.197 -2.3851  0.0664  2.5837
  711MOL0     H95940   0.873   2.839   2.105  0.1042  3.3487  0.9604
  711MOL0     H95941   0.728   2.901   2.300 -1.9821 -2.3613  3.5725
  711MOL0     H95942   0.786   2.754   2.375  1.3314  0.2551  0.5146
  711MOL0     H95943   0.640   2.792   2.113 -1.1312  0.1872  0.8243
  711MOL0     H95944   0.561   2.741   2.264 -1.9734  1.0917 -2.7601
  711MOL0     H95945   0.549   2.529   2.385 -0.2423 -1.2357  1.1007
  711MOL0     H95946   0.504   2.277   2.516  0.9070 -0.5552 -1.2486
  711MOL0     H95947   0.385   2.402   2.511 -0.2738  2.7644 -1.9001
  711MOL0     H95948   0.347   2.229   2.467  1.0700  0.4511  0.7968
  711MOL0     H95949   0.132   2.000   1.982 -0.1966  1.5955 -1.0852
  711MOL0     H95950  -0.039   1.827   1.984  0.4340 -1.1765  1.0123
  711MOL0     H95951  -0.308   1.623   2.149 -0.0540  0.3542  0.3831
  711MOL0     H95952  -0.234   1.755   2.058 -2.4660  0.5550  1.8152
  711MOL0     H95953  -0.054   1.587   1.980 -1.2635  0.6057 -1.2539
  711MOL0     H95954  -0.120   1.468   2.088 -0.3906 -1.3194 -1.1279
  711MOL0     H95955  -0.273   1.592   1.866  1.4400 -0.8375 -2.2693
  711MOL0     H95956  -0.327   1.446   1.954 -1.1945 -1.2474 -1.6153
  711MOL0     H95957  -0.085   1.482   1.770 -0.4384  1.5170  0.2798
  711MOL0     H95958  -0.108   1.348   1.882 -1.7258 -1.0670  1.5826
  711MOL0     H95959  -0.310   1.425   1.652  0.0487  0.2583  0.2371
  711MOL0     H95960  -0.317   1.291   1.754 -0.3905  1.3075  2.0842
  711MOL0     H95961  -0.103   1.339   1.544  1.0221 -1.0234 -0.5613
  711MOL0     H95962  -0.099   1.202   1.659 -0.7775 -2.4991  0.5239
  711MOL0     H95963  -0.292   1.243   1.430  2.5071 -0.6369 -2.2184
  711MOL0     H95964  -0.323   1.145   1.585  0.7301  1.0948  1.7026
  711MOL0     H95965  -0.253   0.983   1.427  0.5304 -2.2841  1.3265
  711MOL0     H95966  -0.120   1.015   1.542  3.5102  0.8196 -2.6542
  711MOL0     H95967  -0.010   1.819   2.410  1.6032  1.2557  2.0801
  711MOL0     H95968   0.151   2.003   2.408 -0.5570  3.1164  0.2209
  711MOL0     H95969   0.452   2.255   1.996 -0.0931 -3.4533  1.8035
  711MOL0     H95970   0.584   2.455   1.965 -4.9035 -2.1425 -1.9335
  711MOL0     H95971   1.902   2.902   1.424 -0.8288  1.2201  2.9719
  711MOL0     H95972   2.131   3.055   1.465  0.7270  0.0531  0.2849
  711MOL0     H95973   2.467   3.334   1.602  1.9463  1.5103 -0.8110
  711MOL0     H95974   2.681   3.413   1.596  2.0141  0.0841  0.2956
  711MOL0     H95975   2.897   3.462   1.550  2.5990  2.9189  0.1844
  711MOL0     H95976   2.878   3.409   1.717  0.8849  0.7174 -0.2341
  711MOL0     H95977   3.084   3.548   1.663  1.2123  0.5241 -1.9845
  711MOL0     H95978   3.151   3.411   1.573  0.8078 -2.0993  0.6176
  711MOL0     H95979   3.198   3.278   1.733 -2.9796 -1.4091 -0.3811
  711MOL0     H95980   3.069   3.337   1.843 -2.1839  1.8726 -1.9565
  711MOL0     H95981   3.355   3.434   1.803  0.6414 -2.2127  0.3922
  711MOL0     H95982   3.290   3.377   1.937  1.3893  0.9791  0.5422
  711MOL0     H95983   3.157   3.801   1.924 -2.1390 -0.0956  3.6055
  711MOL0     H95984   2.838   3.013   1.544 -2.5225 -1.8900 -3.8592
  711MOL0     H95985   2.615   2.923   1.554  1.2845 -0.5431 -0.4588
  712MOL0     O95986  11.282   7.939  10.554 -0.0026  0.5608 -0.2602
  712MOL0     C95987  11.197   7.943  10.638 -0.2295 -0.0533  0.0627
  712MOL0     O95988  11.102   7.852  10.656 -0.6937  0.5167  0.0443
  712MOL0     C95989  11.094   7.756  10.559 -0.5316 -1.2631  0.3858
  712MOL0     C95990  11.083   7.786  10.421  0.4627  0.7958 -0.2976
  712MOL0     C95991  11.074   7.680  10.328 -0.3809  0.5490 -0.4308
  712MOL0     C95992  11.099   7.545  10.360 -0.2411 -0.1053 -0.3674
  712MOL0     O95993  11.092   7.442  10.274 -0.5917 -0.0618  0.4022
  712MOL0     C95994  10.963   7.429  10.222 -0.5760  0.5532  0.6828
  712MOL0     C95995  10.870   7.367  10.319  0.2214 -0.3429  0.1125
  712MOL0     C95996  10.891   7.214  10.338 -0.6931 -1.1932  0.1336
  712MOL0     C95997  10.812   7.131  10.243  0.1149  0.1568 -0.0222
  712MOL0     C95998  10.681   7.076  10.302  0.0207 -0.0568  0.0269
  712MOL0     C95999  10.703   6.953  10.391  0.8728  0.3951  1.0696
  712MOL0     C96000  10.587   6.875  10.445  0.2040 -0.6234 -0.4270
  712MOL0     C96001  10.459   6.951  10.480  0.0443 -0.3437  0.6134
  712MOL0     N96002  10.480   7.051  10.587  0.2609  1.1398 -0.0303
  712MOL0     C96003  10.471   7.019  10.721 -0.3376  0.6715  0.1596
  712MOL0     C96004  10.472   7.135  10.783  0.4190 -0.5703 -0.2797
  712MOL0     C96005  10.470   7.162  10.933 -0.4649  0.8503  0.3000
  712MOL0     C96006  10.350   7.113  11.007  0.0028 -0.4145 -0.1760
  712MOL0     C96007  10.368   7.141  11.157  0.4570 -0.0020 -0.9579
  712MOL0     C96008  10.240   7.115  11.235 -0.4551 -0.1342  0.0737
  712MOL0     O96009  10.244   7.139  11.377  0.3020  0.1833 -0.2023
  712MOL0     C96010  10.359   7.112  11.449 -0.4229  0.6760  1.0203
  712MOL0     C96011  10.396   7.207  11.547 -0.1695  0.0287 -0.1631
  712MOL0     C96012  10.515   7.193  11.613 -0.2596  0.3191  0.2323
  712MOL0     C96013  10.553   7.290  11.718 -0.1927 -0.3016  0.0623
  712MOL0     C96014  10.593   7.076  11.593 -0.5971  0.4176  0.0010
  712MOL0     C96015  10.721   7.049  11.664 -0.1029  0.4421 -0.9402
  712MOL0     O96016  10.826   6.996  11.594 -0.0538  0.7225  0.4329
  712MOL0     C96017  10.942   6.981  11.667 -1.1674 -0.1574 -0.3845
  712MOL0     C96018  10.946   6.892  11.770 -0.8018  0.0991  0.1514
  712MOL0     C96019  11.064   6.886  11.855  0.5235  0.0589 -0.0080
  712MOL0     C96020  11.166   6.977  11.825 -0.4555 -0.4954 -0.0230
  712MOL0     O96021  11.287   6.964  11.877  0.5540  0.2074  0.5211
  712MOL0     C96022  11.291   6.958  12.019  0.1520 -0.9591  0.4232
  712MOL0     C96023  11.427   7.021  12.066  0.1539 -0.8009  1.5231
  712MOL0     C96024  11.414   7.087  12.212  0.8363  0.1714 -0.8803
  712MOL0     C96025  11.338   7.226  12.201 -0.2539 -0.1339 -0.4278
  712MOL0     C96026  11.245   7.246  12.316  0.0946 -0.1320 -1.1634
  712MOL0     C96027  11.317   7.261  12.444 -0.8060 -0.1293  1.0763
  712MOL0     C96028  11.221   7.307  12.550 -0.3141 -0.3198 -0.0536
  712MOL0     C96029  11.190   7.462  12.554  0.2888  0.2431 -0.0204
  712MOL0    Cl96030  11.223   7.526  12.713  0.0906 -0.0830 -0.0865
  712MOL0     C96031  11.145   7.082  11.736  1.2088  0.3053 -0.6004
  712MOL0     C96032  11.040   7.079  11.653 -0.1679  0.2021 -0.3216
  712MOL0     O96033  10.721   7.079  11.784 -0.4906 -0.4721 -0.8192
  712MOL0     C96034  10.552   6.975  11.498  1.3336 -0.6868 -1.1057
  712MOL0     C96035  10.436   6.995  11.432 -0.4091 -0.2756  0.4247
  712MOL0     N96036  10.477   7.239  10.679 -0.1435 -0.2213  0.0518
  712MOL0     N96037  10.472   7.184  10.563 -0.4593 -0.4278  0.2072
  712MOL0     C96038  11.109   7.520  10.501 -1.8241 -0.4763  0.4968
  712MOL0     C96039  11.107   7.626  10.590 -0.5280 -0.7635  0.8888
  712MOL0     C96040  11.181   8.077  10.706  2.0184  0.3635  0.0027
  712MOL0     C96041  11.064   8.103  10.791 -0.4794  0.1185  0.3467
  712MOL0     C96042  11.055   8.235  10.851 -0.3775  0.3579 -0.0064
  712MOL0     C96043  11.157   8.325  10.849 -0.3614 -0.1530 -0.1224
  712MOL0     O96044  11.167   8.449  10.917  0.2190 -0.3187 -0.5370
  712MOL0     C96045  11.086   8.453  11.039 -0.0060 -0.6460 -0.5226
  712MOL0     C96046  11.134   8.570  11.133 -0.3963 -0.5864  0.8833
  712MOL0     C96047  11.058   8.587  11.263  1.0621 -1.0351  0.1611
  712MOL0     C96048  11.058   8.723  11.340  0.2450 -0.2061  0.4441
  712MOL0     C96049  11.193   8.752  11.382  0.3926 -0.3245  0.1944
  712MOL0     C96050  11.293   8.787  11.430 -0.7945  0.9722  0.2524
  712MOL0     C96051  11.263   8.306  10.759  0.0065 -0.3536  0.1620
  712MOL0     C96052  11.265   8.179  10.695  0.0800 -0.6016  0.0673
  712MOL0     H96053  11.073   7.890  10.390 -4.5178  0.7253  0.2537
  712MOL0     H96054  11.060   7.702  10.222 -1.6811 -2.5525 -1.0032
  712MOL0     H96055  10.926   7.528  10.193  0.5803  0.7898 -0.0664
  712MOL0     H96056  10.961   7.372  10.129 -0.6049 -4.1493  3.2419
  712MOL0     H96057  10.837   7.422  10.408 -2.6582 -1.5173 -0.1504
  712MOL0     H96058  10.779   7.384  10.262  1.4814  0.8462 -1.6656
  712MOL0     H96059  10.995   7.201  10.307 -0.5705 -2.1015  0.8684
  712MOL0     H96060  10.858   7.189  10.440 -0.1859 -0.6830  0.4299
  712MOL0     H96061  10.774   7.198  10.166  1.6076  2.7766  1.3905
  712MOL0     H96062  10.871   7.048  10.204 -0.5507 -1.5286  2.3079
  712MOL0     H96063  10.622   7.154  10.351 -0.1811  0.2482 -0.6900
  712MOL0     H96064  10.640   7.030  10.211  0.5815 -2.2241  0.8005
  712MOL0     H96065  10.757   6.877  10.334  2.4551 -0.3755  3.4286
  712MOL0     H96066  10.765   6.979  10.477 -1.5275 -0.4126  3.1624
  712MOL0     H96067  10.575   6.789  10.379  3.4847 -1.3287 -0.2728
  712MOL0     H96068  10.620   6.824  10.536  3.7792 -0.7140 -1.5974
  712MOL0     H96069  10.371   6.887  10.494  0.7670 -1.9642 -1.6338
  712MOL0     H96070  10.426   7.010  10.394 -1.6391 -0.3087  1.2495
  712MOL0     H96071  10.461   6.923  10.770 -2.0590  0.5747 -0.2869
  712MOL0     H96072  10.558   7.112  10.973 -0.5259  0.5620  0.0840
  712MOL0     H96073  10.482   7.268  10.956 -2.6703  0.8949  1.5373
  712MOL0     H96074  10.317   7.010  11.001  0.3144 -0.5879  0.8668
  712MOL0     H96075  10.261   7.172  10.981  0.6552  0.4402 -0.5524
  712MOL0     H96076  10.406   7.242  11.178  0.9224 -0.4312  0.3897
  712MOL0     H96077  10.455   7.085  11.192  0.0184 -0.8786 -1.2414
  712MOL0     H96078  10.197   7.015  11.226 -0.6041 -0.3473  2.4728
  712MOL0     H96079  10.161   7.178  11.193 -0.1362 -0.4826 -1.0678
  712MOL0     H96080  10.332   7.292  11.569 -2.5000 -1.8042  0.6110
  712MOL0     H96081  10.491   7.285  11.808 -0.4761  0.0069 -0.1142
  712MOL0     H96082  10.660   7.294  11.740 -0.2046 -3.1409  1.0528
  712MOL0     H96083  10.528   7.390  11.683  0.2461 -0.9899 -2.4104
  712MOL0     H96084  10.871   6.818  11.795 -1.1484  0.2820 -0.3488
  712MOL0     H96085  11.093   6.804  11.919 -1.0595 -2.5678 -2.4481
  712MOL0     H96086  11.207   7.012  12.064 -2.8956 -3.4946 -1.8331
  712MOL0     H96087  11.281   6.853  12.047 -5.1892 -1.0853 -0.8990
  712MOL0     H96088  11.512   6.952  12.069  1.6933  0.7765 -1.1694
  712MOL0     H96089  11.447   7.106  12.000 -1.8441 -1.7732 -0.5005
  712MOL0     H96090  11.512   7.115  12.251  0.0310  2.1316 -0.1206
  712MOL0     H96091  11.358   7.025  12.283 -2.2583  0.0478 -3.1915
  712MOL0     H96092  11.406   7.310  12.191 -0.4283 -0.0405 -0.8640
  712MOL0     H96093  11.281   7.240  12.108  1.5876  0.8771 -1.4655
  712MOL0     H96094  11.168   7.168  12.313  2.2756 -2.5802  1.2066
  712MOL0     H96095  11.210   7.346  12.292  1.5203  0.2670 -1.6968
  712MOL0     H96096  11.357   7.161  12.465 -1.5429 -1.1321 -1.8447
  712MOL0     H96097  11.402   7.329  12.429 -1.9386  0.9073 -1.0603
  712MOL0     H96098  11.256   7.281  12.651 -3.3813 -2.1006  0.6681
  712MOL0     H96099  11.130   7.247  12.539  1.2822 -2.8453 -0.3287
  712MOL0     H96100  11.082   7.472  12.539  0.2445 -1.5275 -1.2572
  712MOL0     H96101  11.243   7.520  12.478 -0.3761 -0.9037 -1.4288
  712MOL0     H96102  11.219   7.161  11.726  1.9851 -0.0162  2.0534
  712MOL0     H96103  11.016   7.150  11.575  0.5550  0.2255 -0.5362
  712MOL0     H96104  10.602   6.881  11.475 -0.5020 -1.9298 -0.2738
  712MOL0     H96105  10.403   6.927  11.355 -0.2325  0.8714 -0.6973
  712MOL0     H96106  11.123   7.414  10.519 -2.8457 -0.7975 -0.4777
  712MOL0     H96107  11.105   7.608  10.696 -1.7816 -0.1949  0.9870
  712MOL0     H96108  10.997   8.021  10.816  1.2979 -1.3422  0.5128
  712MOL0     H96109  10.971   8.246  10.919  0.7788  0.9288  1.3713
  712MOL0     H96110  10.980   8.471  11.015 -0.2571  0.7375  1.3614
  712MOL0     H96111  11.087   8.361  11.098  0.2927  1.0981  2.3884
  712MOL0     H96112  11.148   8.660  11.073  3.0087 -0.8220  1.1057
  712MOL0     H96113  11.236   8.544  11.162 -0.8744 -0.2926  2.9467
  712MOL0     H96114  11.081   8.499  11.324  0.5172 -2.7270 -1.9406
  712MOL0     H96115  10.956   8.565  11.229 -0.4810  3.4002  1.3188
  712MOL0     H96116  10.990   8.706  11.425 -2.8449  0.8333 -1.6400
  712MOL0     H96117  11.017   8.813  11.294  0.6795 -0.3335 -0.1994
  712MOL0     H96118  11.388   8.809  11.476  0.4998  0.4059 -2.0069
  712MOL0     H96119  11.348   8.368  10.735 -0.1359  0.9365  2.7282
  712MOL0     H96120  11.343   8.168  10.621 -1.7303 -1.9483 -1.7845
  713MOL0     O96121  10.819   6.782   4.915 -0.0435 -0.3006 -0.9262
  713MOL0     C96122  10.720   6.848   4.884 -0.0571 -0.0019 -0.3477
  713MOL0     O96123  10.685   6.892   4.763  0.7426 -0.4043  0.6821
  713MOL0     C96124  10.726   6.819   4.658 -0.6131 -0.8757  0.1487
  713MOL0     C96125  10.737   6.896   4.537  0.8376  0.2881 -0.0518
  713MOL0     C96126  10.771   6.837   4.414  0.3191 -0.0619 -0.2010
  713MOL0     C96127  10.798   6.694   4.417 -0.2624  0.0684 -1.0169
  713MOL0     O96128  10.837   6.636   4.305 -0.9076  0.0580 -0.1903
  713MOL0     C96129  10.888   6.498   4.309  0.1582  0.5289 -0.0224
  713MOL0     C96130  10.912   6.451   4.164  0.1166  0.0655  0.1944
  713MOL0     C96131  11.022   6.335   4.165 -0.5508  0.3548 -0.7712
  713MOL0     C96132  11.026   6.254   4.035 -0.2822 -0.0553  0.4528
  713MOL0     C96133  11.150   6.156   4.036 -0.2861  0.0171 -0.1189
  713MOL0     C96134  11.102   6.023   4.094  0.7910  0.3622  0.2943
  713MOL0     C96135  11.216   5.931   4.121  0.3499  0.0340  0.4555
  713MOL0     C96136  11.292   5.892   3.996  0.4277  0.9961  0.0016
  713MOL0     N96137  11.219   5.842   3.876  0.0548 -0.0853 -0.8316
  713MOL0     C96138  11.122   5.747   3.886 -0.1414  0.6692 -0.3883
  713MOL0     C96139  11.053   5.752   3.776  0.4234 -0.0779  0.6387
  713MOL0     C96140  10.952   5.650   3.722 -0.3024 -0.0365  0.3071
  713MOL0     C96141  10.802   5.675   3.749  0.0221 -0.0050 -0.0097
  713MOL0     C96142  10.773   5.831   3.741  0.0843 -0.5678  0.5030
  713MOL0     C96143  10.633   5.867   3.772  0.0289  0.4313  0.3835
  713MOL0     O96144  10.577   5.813   3.895 -0.5490  0.0634  0.4780
  713MOL0     C96145  10.623   5.875   4.010 -0.1921  0.4576 -0.4233
  713MOL0     C96146  10.706   5.801   4.089  0.8874  0.5890  1.0736
  713MOL0     C96147  10.769   5.854   4.211  0.3791  0.6345 -0.0754
  713MOL0     C96148  10.866   5.763   4.275  0.1293  1.0327  0.2295
  713MOL0     C96149  10.734   5.991   4.249 -0.3177  0.1650  0.5353
  713MOL0     C96150  10.784   6.073   4.371 -0.6119  0.5294 -0.6842
  713MOL0     O96151  10.907   6.022   4.428  0.4751 -0.4035 -0.2291
  713MOL0     C96152  10.952   6.091   4.535 -0.2510 -0.6154  0.2770
  713MOL0     C96153  11.085   6.119   4.541  0.9050 -1.3019  0.3025
  713MOL0     C96154  11.131   6.193   4.651  0.5430  0.1500 -0.9266
  713MOL0     C96155  11.038   6.239   4.750  0.1906 -0.6846  0.3075
  713MOL0     O96156  11.086   6.312   4.858  1.0446  0.0394 -1.2702
  713MOL0     C96157  11.123   6.447   4.831  0.3941  0.2733 -0.6359
  713MOL0     C96158  11.083   6.544   4.947 -0.1439  0.6005  0.0781
  713MOL0     C96159  11.176   6.519   5.075 -0.2920 -0.1542  0.0530
  713MOL0     C96160  11.178   6.638   5.162  1.1764 -1.1505 -1.1508
  713MOL0     C96161  11.033   6.701   5.182 -0.2509  0.1616  0.4727
  713MOL0     C96162  11.042   6.778   5.308  0.1097  0.1585 -0.3044
  713MOL0     C96163  10.905   6.844   5.314 -0.3318 -0.4745  0.0754
  713MOL0     C96164  10.800   6.776   5.398 -0.0953  0.1970  0.2177
  713MOL0    Cl96165  10.663   6.888   5.428  0.4964  0.4427 -0.2062
  713MOL0     C96166  10.904   6.194   4.750 -0.3944  0.2182  0.4191
  713MOL0     C96167  10.863   6.114   4.651 -0.3879  1.6004  0.2396
  713MOL0     O96168  10.720   6.165   4.413 -0.5894 -0.5946 -0.6890
  713MOL0     C96169  10.656   6.066   4.157  0.8780 -0.0034  0.2533
  713MOL0     C96170  10.597   6.009   4.041 -0.4369 -0.8381 -0.2443
  713MOL0     N96171  11.103   5.858   3.697 -0.1880 -0.0174  0.0730
  713MOL0     N96172  11.188   5.921   3.760 -0.2326  0.5989 -0.0747
  713MOL0     C96173  10.778   6.625   4.536  0.5516  0.4348  0.9755
  713MOL0     C96174  10.746   6.685   4.661  0.1668  0.3260 -0.0978
  713MOL0     C96175  10.617   6.870   4.993 -0.2362 -0.2457 -1.3865
  713MOL0     C96176  10.591   6.761   5.090 -0.1992  0.7343  0.3670
  713MOL0     C96177  10.496   6.787   5.185  0.4612  0.1549 -0.8863
  713MOL0     C96178  10.425   6.911   5.198 -0.2185  0.0360 -0.6470
  713MOL0     O96179  10.333   6.955   5.293 -0.5391  0.0026  0.6171
  713MOL0     C96180  10.319   6.856   5.399  0.0046 -0.0189 -0.5987
  713MOL0     C96181  10.217   6.938   5.486 -0.1302  0.7766  0.9319
  713MOL0     C96182  10.249   7.078   5.537 -0.0109 -0.0911 -0.0337
  713MOL0     C96183  10.146   7.131   5.628 -0.3908  0.3658  0.3988
  713MOL0     C96184  10.185   7.261   5.689  0.1387 -0.3458 -0.2204
  713MOL0     C96185  10.191   7.367   5.757  0.5353  0.1267  0.7354
  713MOL0     C96186  10.456   7.012   5.113  0.1329 -0.5524 -0.2438
  713MOL0     C96187  10.547   6.989   5.006 -0.2569 -0.3258 -0.7351
  713MOL0     H96188  10.721   7.004   4.530  0.4171  0.1305 -2.7841
  713MOL0     H96189  10.782   6.893   4.322  2.7960  1.3350  0.8749
  713MOL0     H96190  10.967   6.485   4.385  0.8505 -1.0740 -0.9637
  713MOL0     H96191  10.799   6.441   4.336 -1.2976  2.4340 -0.6455
  713MOL0     H96192  10.811   6.439   4.123 -0.3384 -0.1495  1.3477
  713MOL0     H96193  10.965   6.523   4.101  1.2207 -0.1954  0.8001
  713MOL0     H96194  11.123   6.370   4.188  0.9134 -1.9756 -3.0471
  713MOL0     H96195  10.987   6.274   4.249 -1.5027  2.0426  0.1108
  713MOL0     H96196  10.929   6.220   3.997 -0.4760  1.7837 -0.8146
  713MOL0     H96197  11.057   6.326   3.960 -0.6587  0.8106  1.1053
  713MOL0     H96198  11.174   6.135   3.932  0.4254 -5.5278  0.8578
  713MOL0     H96199  11.234   6.192   4.096  1.2510 -0.9650 -1.6134
  713MOL0     H96200  11.073   6.045   4.198  1.3600 -1.4396  0.8749
  713MOL0     H96201  11.026   5.965   4.040 -0.0269 -2.6634  4.2005
  713MOL0     H96202  11.283   5.986   4.187 -0.2450  0.2830  0.8550
  713MOL0     H96203  11.174   5.846   4.176  1.7928 -1.0340 -0.0101
  713MOL0     H96204  11.354   5.811   4.036  1.3649 -0.0465 -3.2405
  713MOL0     H96205  11.361   5.969   3.961 -0.6257  1.2917 -1.5049
  713MOL0     H96206  11.114   5.664   3.956  3.1368 -0.7580 -1.5229
  713MOL0     H96207  10.966   5.623   3.617  0.4689 -0.5971  0.5465
  713MOL0     H96208  10.984   5.567   3.785 -2.4383 -0.5972  0.7303
  713MOL0     H96209  10.772   5.633   3.846  0.3169  0.1789  0.1619
  713MOL0     H96210  10.744   5.620   3.675 -0.4630 -0.3616  0.6165
  713MOL0     H96211  10.802   5.869   3.642 -0.0444  0.0678  0.7013
  713MOL0     H96212  10.842   5.877   3.813 -0.3035  2.2393 -0.7660
  713MOL0     H96213  10.579   5.821   3.689 -2.5047  0.2301  2.0316
  713MOL0     H96214  10.630   5.976   3.767 -0.2963  0.3709 -1.2058
  713MOL0     H96215  10.735   5.700   4.060  0.2283 -0.3771  3.5374
  713MOL0     H96216  10.875   5.662   4.234  0.3586  2.6677 -4.3869
  713MOL0     H96217  10.964   5.809   4.259 -0.6319  1.5913 -4.4063
  713MOL0     H96218  10.841   5.755   4.381 -4.4356  1.2530 -0.6080
  713MOL0     H96219  11.146   6.074   4.463 -0.1069  0.9192 -1.9032
  713MOL0     H96220  11.237   6.212   4.649  1.0619 -2.4362 -0.9868
  713MOL0     H96221  11.232   6.451   4.819  0.4004  0.6293 -0.4560
  713MOL0     H96222  11.081   6.472   4.734 -0.7598 -2.3950 -0.9158
  713MOL0     H96223  11.107   6.649   4.930  3.3301 -0.3403 -1.8080
  713MOL0     H96224  10.976   6.534   4.970 -0.0390 -1.9806 -0.2630
  713MOL0     H96225  11.277   6.505   5.036 -0.2536  3.6277 -1.6465
  713MOL0     H96226  11.130   6.431   5.122 -0.9696 -0.1618 -0.6063
  713MOL0     H96227  11.235   6.619   5.253 -1.0473  0.6376  0.7406
  713MOL0     H96228  11.234   6.717   5.112 -1.0424 -0.8132 -3.2873
  713MOL0     H96229  10.957   6.623   5.192  0.6014 -0.6664  0.6870
  713MOL0     H96230  11.004   6.762   5.096 -0.6202  4.0369  3.0840
  713MOL0     H96231  11.062   6.712   5.393 -0.3810 -0.8616 -0.9743
  713MOL0     H96232  11.129   6.845   5.309  0.2056  0.0345  0.7912
  713MOL0     H96233  10.864   6.855   5.213 -0.5996 -2.0043 -0.0138
  713MOL0     H96234  10.917   6.937   5.370  1.1709 -1.1020  0.8431
  713MOL0     H96235  10.858   6.759   5.490  0.7554 -1.2837 -0.5561
  713MOL0     H96236  10.757   6.689   5.348 -2.0830 -0.1763  2.3910
  713MOL0     H96237  10.838   6.229   4.828  1.4041  3.2477  0.7356
  713MOL0     H96238  10.763   6.072   4.644 -0.4573  1.9344 -1.0724
  713MOL0     H96239  10.639   6.171   4.177  1.3203  0.6152 -2.2423
  713MOL0     H96240  10.523   6.055   3.976 -0.6988 -2.0720 -0.8634
  713MOL0     H96241  10.780   6.516   4.535 -0.9717  0.2128 -4.1381
  713MOL0     H96242  10.749   6.617   4.745 -0.7002  1.5814  0.9847
  713MOL0     H96243  10.645   6.667   5.083  0.5917  1.1546  0.5930
  713MOL0     H96244  10.496   6.709   5.260 -0.5231 -0.5844 -1.6193
  713MOL0     H96245  10.280   6.758   5.369  1.2522  0.1473 -2.9983
  713MOL0     H96246  10.411   6.844   5.457  0.8827  2.2955 -1.4140
  713MOL0     H96247  10.215   6.894   5.587  0.8085  0.5708  0.8680
  713MOL0     H96248  10.124   6.936   5.428 -0.6318 -0.2335  1.7361
  713MOL0     H96249  10.273   7.147   5.456 -1.2862  0.8269  0.3412
  713MOL0     H96250  10.343   7.064   5.593  0.5362 -0.2402 -0.9736
  713MOL0     H96251  10.127   7.052   5.701  1.1481 -1.2836 -0.8789
  713MOL0     H96252  10.051   7.151   5.579  0.8557  0.0437 -2.3710
  713MOL0     H96253  10.198   7.469   5.788  2.1408 -0.6530  3.2614
  713MOL0     H96254  10.412   7.109   5.131 -2.7719 -2.0912  1.6948
  713MOL0     H96255  10.576   7.067   4.936  2.0952  0.5316  1.0471
  714MOL0     O96256  10.104   5.957   0.602  0.5410 -0.1836 -0.3087
  714MOL0     C96257  10.230   5.951   0.594  0.5521 -0.6608  0.2407
  714MOL0     O96258  10.306   6.062   0.596  0.4041  0.2496 -0.2652
  714MOL0     C96259  10.238   6.183   0.600  1.7229  0.4545 -0.2606
  714MOL0     C96260  10.178   6.242   0.488  0.8291  0.0110  0.0918
  714MOL0     C96261  10.099   6.363   0.502 -0.3229 -0.2534  0.6443
  714MOL0     C96262  10.089   6.434   0.628 -0.5433  1.1866 -0.0712
  714MOL0     O96263  10.020   6.552   0.628  0.2589 -0.4342  0.1096
  714MOL0     C96264  10.055   6.640   0.525  0.6341  0.5845  0.7082
  714MOL0     C96265  10.016   6.776   0.584 -0.0048  0.2498  0.2283
  714MOL0     C96266  10.091   6.884   0.502  1.4461 -0.1889 -0.5043
  714MOL0     C96267  10.240   6.913   0.536 -0.4518 -0.0052  0.1219
  714MOL0     C96268  10.265   6.955   0.680  0.8319  0.1809  0.0274
  714MOL0     C96269  10.401   7.034   0.704  0.0354  0.1404 -0.2020
  714MOL0     C96270  10.367   7.183   0.700 -0.4116  0.2095  0.6817
  714MOL0     C96271  10.472   7.246   0.789 -0.3190 -0.3074 -0.1648
  714MOL0     N96272  10.467   7.387   0.758  0.4011 -0.0714  0.0032
  714MOL0     C96273  10.552   7.453   0.675 -0.4302  0.8269  0.3690
  714MOL0     C96274  10.544   7.584   0.690  0.5016 -0.8737  1.1210
  714MOL0     C96275  10.613   7.699   0.622  0.2467  0.5882 -0.3504
  714MOL0     C96276  10.563   7.727   0.481  0.5471  0.4362  0.7210
  714MOL0     C96277  10.411   7.751   0.464 -0.1552 -0.1873 -0.3353
  714MOL0     C96278  10.358   7.735   0.321  0.5327  0.0901  0.2108
  714MOL0     O96279  10.225   7.763   0.330 -0.1896 -0.3896 -0.0793
  714MOL0     C96280  10.125   7.670   0.354  0.1414  0.4017 -0.4421
  714MOL0     C96281   9.998   7.716   0.398 -0.3233 -0.0087  0.1929
  714MOL0     C96282   9.894   7.633   0.430  0.1158  0.0259 -0.3889
  714MOL0     C96283   9.766   7.697   0.484  0.3488  0.0729 -0.8042
  714MOL0     C96284   9.904   7.488   0.425 -0.1076  0.0945 -0.3044
  714MOL0     C96285   9.803   7.384   0.458  0.0817  0.6688  0.4476
  714MOL0     O96286   9.828   7.256   0.414 -0.1351 -0.4853 -0.1551
  714MOL0     C96287   9.709   7.178   0.415 -0.0226  0.4526  0.3237
  714MOL0     C96288   9.594   7.202   0.341  0.2284  0.3696  0.5684
  714MOL0     C96289   9.491   7.110   0.334 -0.0112  0.3573  0.2859
  714MOL0     C96290   9.493   6.994   0.414 -1.0507 -0.1338 -0.8864
  714MOL0     O96291   9.386   6.913   0.396 -0.1142 -0.0028  0.6701
  714MOL0     C96292   9.330   6.853   0.508 -0.1687  0.3246 -0.9615
  714MOL0     C96293   9.186   6.799   0.468  0.3537  0.0586 -1.3277
  714MOL0     C96294   9.097   6.769   0.586 -0.2685 -0.6161  0.3392
  714MOL0     C96295   9.031   6.891   0.656 -0.7835  0.7003 -0.0741
  714MOL0     C96296   8.916   6.831   0.747  0.8704 -0.8951 -0.7268
  714MOL0     C96297   8.860   6.940   0.837  0.5704 -0.5715  0.2155
  714MOL0     C96298   8.761   6.885   0.930 -1.2895 -0.1721  0.0351
  714MOL0     C96299   8.689   7.007   0.980 -0.1631 -0.2811 -0.5255
  714MOL0    Cl96300   8.798   7.100   1.080 -0.4048 -0.4361  0.1735
  714MOL0     C96301   9.606   6.965   0.490 -0.7415 -0.0086 -0.3382
  714MOL0     C96302   9.712   7.057   0.487  0.7696  0.5006 -0.6394
  714MOL0     O96303   9.698   7.416   0.518  0.0173  1.0662 -0.0294
  714MOL0     C96304  10.032   7.440   0.395  0.1284 -0.4156 -0.0973
  714MOL0     C96305  10.147   7.526   0.359 -0.3240  0.4713  0.0530
  714MOL0     N96306  10.455   7.599   0.792  0.7461 -0.2676 -0.0841
  714MOL0     N96307  10.409   7.482   0.829 -0.1408  0.2580  0.6714
  714MOL0     C96308  10.161   6.375   0.738  0.0094  1.3809  0.7859
  714MOL0     C96309  10.227   6.248   0.732  0.3428  0.2223 -0.3211
  714MOL0     C96310  10.282   5.809   0.600 -0.5019 -0.5500 -0.1656
  714MOL0     C96311  10.199   5.699   0.578  0.0412  0.7586  1.4918
  714MOL0     C96312  10.258   5.566   0.584  0.5416  0.1668 -0.9388
  714MOL0     C96313  10.394   5.544   0.611  0.5036 -0.2359 -0.1614
  714MOL0     O96314  10.438   5.421   0.602  0.0415  0.2952 -0.4670
  714MOL0     C96315  10.493   5.384   0.732  0.0850 -0.4115  0.5442
  714MOL0     C96316  10.515   5.228   0.732  0.0071  0.9499 -0.7842
  714MOL0     C96317  10.512   5.173   0.875 -0.3275 -0.7113  0.1109
  714MOL0     C96318  10.617   5.230   0.969  0.9730  0.7379 -0.1216
  714MOL0     C96319  10.592   5.189   1.106  0.1432 -0.2822  0.4199
  714MOL0     C96320  10.585   5.162   1.225  0.7516 -0.5177 -1.0995
  714MOL0     C96321  10.472   5.660   0.642 -0.0723  0.8623  0.9315
  714MOL0     C96322  10.415   5.791   0.634  0.0233  0.2791 -0.4165
  714MOL0     H96323  10.177   6.203   0.386 -0.8282 -1.3936  0.6091
  714MOL0     H96324  10.043   6.401   0.417  0.9863  0.2143 -0.0334
  714MOL0     H96325  10.163   6.633   0.511  0.5357 -1.3984  0.7329
  714MOL0     H96326   9.998   6.615   0.435 -1.1555 -4.7668  2.9271
  714MOL0     H96327   9.909   6.795   0.593  0.4070  2.5265  1.0506
  714MOL0     H96328  10.055   6.783   0.686  2.0916 -3.8582 -0.0601
  714MOL0     H96329  10.095   6.862   0.395 -0.4866  1.2730 -0.9485
  714MOL0     H96330  10.032   6.976   0.515  1.0965 -0.6971  1.8658
  714MOL0     H96331  10.292   6.817   0.527 -2.2275 -1.3336  2.7042
  714MOL0     H96332  10.277   6.993   0.471 -0.3899  0.3735  0.6188
  714MOL0     H96333  10.172   7.013   0.690  0.9237  0.3505 -0.1008
  714MOL0     H96334  10.269   6.862   0.738  0.2360 -1.3152 -2.2209
  714MOL0     H96335  10.439   7.012   0.804 -0.2256 -2.3507 -0.5738
  714MOL0     H96336  10.479   7.002   0.634  1.7973 -1.0321  2.1551
  714MOL0     H96337  10.370   7.216   0.595  2.1953  1.1827  0.9908
  714MOL0     H96338  10.269   7.208   0.742 -0.7483 -0.9706  0.6314
  714MOL0     H96339  10.567   7.201   0.758 -1.8677 -3.3461 -0.9174
  714MOL0     H96340  10.454   7.227   0.895 -0.8959  0.4544 -0.1237
  714MOL0     H96341  10.622   7.398   0.613 -0.4698  0.5835  0.5413
  714MOL0     H96342  10.583   7.788   0.678 -2.4086 -1.5477  1.9100
  714MOL0     H96343  10.720   7.678   0.627 -0.3050 -2.4253  0.7598
  714MOL0     H96344  10.602   7.641   0.425  1.4188  0.6708  0.9433
  714MOL0     H96345  10.608   7.817   0.437 -0.9996  1.1712  0.5783
  714MOL0     H96346  10.381   7.853   0.491  3.0653  0.6059  0.6851
  714MOL0     H96347  10.362   7.678   0.530 -1.9830  0.4038 -0.9642
  714MOL0     H96348  10.384   7.638   0.278 -0.1699  0.2278 -0.5495
  714MOL0     H96349  10.408   7.802   0.250  1.3572  0.6213  1.2570
  714MOL0     H96350   9.991   7.824   0.412  1.8712  0.2252 -0.0773
  714MOL0     H96351   9.759   7.797   0.441  0.9132  1.5185  2.2682
  714MOL0     H96352   9.679   7.644   0.443 -1.3449  2.4655 -0.5267
  714MOL0     H96353   9.758   7.693   0.593 -3.3105 -1.8515 -0.9820
  714MOL0     H96354   9.596   7.297   0.288  0.3461 -0.1192 -0.3071
  714MOL0     H96355   9.396   7.111   0.282 -0.7677 -0.7125  1.5769
  714MOL0     H96356   9.402   6.778   0.541 -0.4071  0.3392 -0.3870
  714MOL0     H96357   9.325   6.933   0.583  0.3235  0.7504 -1.3792
  714MOL0     H96358   9.154   6.877   0.398  1.4995  0.2794 -1.6212
  714MOL0     H96359   9.193   6.703   0.416  3.5955 -0.6375  0.1204
  714MOL0     H96360   9.158   6.712   0.657 -2.6242 -3.7173  0.0638
  714MOL0     H96361   9.024   6.702   0.539 -2.6605  3.9272 -3.2502
  714MOL0     H96362   9.107   6.941   0.718  0.0408  2.2104 -2.1913
  714MOL0     H96363   8.994   6.972   0.592  1.7438  1.2040 -0.9870
  714MOL0     H96364   8.956   6.762   0.821 -0.6764 -2.9368 -1.6815
  714MOL0     H96365   8.836   6.779   0.694 -0.0115 -1.8727  1.4484
  714MOL0     H96366   8.940   6.995   0.887  0.0258  1.3141 -0.8643
  714MOL0     H96367   8.810   7.003   0.762  2.9220 -1.8797 -2.7107
  714MOL0     H96368   8.813   6.840   1.015 -1.3271 -0.3253 -0.0233
  714MOL0     H96369   8.692   6.814   0.882 -1.0434 -1.5628  1.6227
  714MOL0     H96370   8.598   6.977   1.034 -0.2309 -1.0848 -1.0542
  714MOL0     H96371   8.663   7.067   0.893 -0.7105 -0.7585 -0.7029
  714MOL0     H96372   9.618   6.866   0.533 -1.7899  0.4760  1.1818
  714MOL0     H96373   9.808   7.033   0.531 -0.7149  2.3005  4.1505
  714MOL0     H96374  10.043   7.334   0.416  1.6099  0.1250  2.1404
  714MOL0     H96375  10.243   7.480   0.338 -0.2066  0.8887 -0.3404
  714MOL0     H96376  10.132   6.420   0.832 -1.2176  0.2078  0.9869
  714MOL0     H96377  10.259   6.207   0.827 -0.7826 -4.1481 -1.6083
  714MOL0     H96378  10.094   5.719   0.558  0.6497  1.8610 -1.0328
  714MOL0     H96379  10.209   5.470   0.567 -0.0556 -0.1095  1.7823
  714MOL0     H96380  10.572   5.450   0.767 -3.5930  4.6870  0.3544
  714MOL0     H96381  10.410   5.394   0.803 -1.7548  1.1481 -1.6999
  714MOL0     H96382  10.606   5.196   0.680  0.9553 -2.0582  2.3719
  714MOL0     H96383  10.437   5.191   0.664 -0.9880 -2.3646  1.8685
  714MOL0     H96384  10.522   5.064   0.871 -0.9119 -0.7468 -2.2804
  714MOL0     H96385  10.420   5.186   0.931  0.7877 -3.1215  2.7307
  714MOL0     H96386  10.621   5.339   0.959 -3.4239  1.6569  4.2586
  714MOL0     H96387  10.709   5.187   0.928 -1.8033 -0.7540 -5.8113
  714MOL0     H96388  10.594   5.146   1.331  3.3705  2.5396 -0.7109
  714MOL0     H96389  10.579   5.646   0.651 -0.6332 -3.9905  3.2995
  714MOL0     H96390  10.490   5.869   0.648  1.5064 -1.1013 -0.4718
  715MOL0     O96391  10.912   1.952  10.384 -0.2712 -0.6994  0.3322
  715MOL0     C96392  10.960   2.048  10.325 -0.0601  1.0022  0.5491
  715MOL0     O96393  11.012   2.045  10.204 -0.7178 -0.5777  0.1692
  715MOL0     C96394  10.972   1.943  10.116 -0.0859  0.2776 -0.4243
  715MOL0     C96395  11.063   1.914  10.018  0.7513  0.1488 -0.0673
  715MOL0     C96396  11.049   1.826   9.911  0.1065  0.8055  0.6170
  715MOL0     C96397  10.932   1.751   9.907  0.1008  0.2898  0.1410
  715MOL0     O96398  10.923   1.671   9.796 -0.0436 -1.0110  0.6319
  715MOL0     C96399  10.818   1.571   9.794  0.5107  0.8160 -0.0213
  715MOL0     C96400  10.846   1.490   9.674 -1.3735 -0.0121 -0.1333
  715MOL0     C96401  10.889   1.550   9.542  0.2457  1.3030  0.2919
  715MOL0     C96402  10.787   1.646   9.481  0.1636 -0.3692  0.8875
  715MOL0     C96403  10.667   1.588   9.413 -1.6206  0.2621 -1.1530
  715MOL0     C96404  10.700   1.569   9.265  0.2207  0.2327  0.4511
  715MOL0     C96405  10.588   1.487   9.188 -0.0742 -0.3099  0.2976
  715MOL0     C96406  10.622   1.457   9.045  0.5322 -0.6603 -0.0359
  715MOL0     N96407  10.498   1.458   8.961 -0.2499 -1.0136 -0.0476
  715MOL0     C96408  10.388   1.374   8.977  0.2822  0.7820  0.8965
  715MOL0     C96409  10.323   1.387   8.858  0.5932  0.7005  0.2414
  715MOL0     C96410  10.195   1.309   8.848 -0.5493 -0.1039 -0.6924
  715MOL0     C96411  10.148   1.274   8.714 -0.3859  0.7633 -0.8663
  715MOL0     C96412  10.096   1.400   8.652  1.4175  0.0047  0.3495
  715MOL0     C96413  10.022   1.371   8.521 -0.1791  0.1335  0.0328
  715MOL0     O96414   9.903   1.302   8.539 -0.1491 -0.1499  0.0090
  715MOL0     C96415   9.834   1.270   8.432  0.3175 -0.3301  0.3964
  715MOL0     C96416   9.724   1.190   8.455  0.1808  1.0793  1.3549
  715MOL0     C96417   9.639   1.164   8.348 -0.3734 -0.3334 -0.7370
  715MOL0     C96418   9.517   1.076   8.370 -0.4251 -0.3705 -0.3346
  715MOL0     C96419   9.651   1.221   8.223  0.1006 -0.3199 -0.0799
  715MOL0     C96420   9.565   1.197   8.104 -0.2082  0.1439  0.3684
  715MOL0     O96421   9.499   1.081   8.085  0.0506  0.9660 -0.4716
  715MOL0     C96422   9.418   1.076   7.975  0.5410  0.1886 -0.0857
  715MOL0     C96423   9.273   1.085   7.986 -0.2646 -0.8888 -0.4442
  715MOL0     C96424   9.204   1.080   7.865 -0.1991 -0.0270  0.5919
  715MOL0     C96425   9.261   1.066   7.740  0.1994 -0.1885  0.0298
  715MOL0     O96426   9.187   1.079   7.626  0.7319  0.8047  0.6584
  715MOL0     C96427   9.262   1.095   7.506  0.0387  0.2680 -0.4415
  715MOL0     C96428   9.172   1.126   7.384 -0.7814 -0.3248 -0.1395
  715MOL0     C96429   9.057   1.240   7.409 -0.3725  0.2861 -0.2941
  715MOL0     C96430   8.954   1.242   7.289  0.2724  0.0484 -0.2821
  715MOL0     C96431   8.846   1.352   7.297 -0.3031 -0.0851 -0.5492
  715MOL0     C96432   8.897   1.499   7.320  0.2901  0.4180 -0.0425
  715MOL0     C96433   8.781   1.593   7.298 -0.4595  0.2439  0.1453
  715MOL0     C96434   8.667   1.588   7.393 -0.1311 -0.2787 -1.3362
  715MOL0    Cl96435   8.727   1.590   7.562  0.0768 -0.3991  0.0170
  715MOL0     C96436   9.401   1.045   7.735  0.3791 -0.1492 -0.4310
  715MOL0     C96437   9.480   1.045   7.855 -0.7355 -0.5258  0.8580
  715MOL0     O96438   9.548   1.305   8.048 -0.1704  0.0459 -0.1106
  715MOL0     C96439   9.768   1.295   8.198  1.8668 -0.7506 -0.1487
  715MOL0     C96440   9.858   1.320   8.303 -0.4520 -0.2447  1.2672
  715MOL0     N96441  10.400   1.465   8.770 -0.0431 -0.4479 -0.2007
  715MOL0     N96442  10.497   1.507   8.833  0.0880  0.6306  0.1303
  715MOL0     C96443  10.824   1.780  10.006  0.1759 -0.1274  0.2028
  715MOL0     C96444  10.855   1.876  10.111  0.1273  0.4619  0.5654
  715MOL0     C96445  10.971   2.168  10.401 -0.2944 -0.3319  0.6104
  715MOL0     C96446  10.958   2.289  10.343  0.0578 -0.0720 -0.1746
  715MOL0     C96447  10.978   2.411  10.411  0.1925  0.4036 -0.3393
  715MOL0     C96448  11.012   2.403  10.547  1.2333  0.1166  0.0400
  715MOL0     O96449  11.020   2.516  10.628 -0.5613 -0.4464 -0.1046
  715MOL0     C96450  11.122   2.612  10.587 -0.1320 -0.8257 -0.1916
  715MOL0     C96451  11.164   2.714  10.706 -0.1679 -0.0480  1.2735
  715MOL0     C96452  11.061   2.743  10.800  0.1734 -0.9030  0.1651
  715MOL0     C96453  10.928   2.818  10.746  0.2161  0.3384  0.1068
  715MOL0     C96454  10.953   2.958  10.726 -0.2325  0.1799 -0.0487
  715MOL0     C96455  10.971   3.077  10.727 -1.1740 -0.1339 -0.3264
  715MOL0     C96456  11.012   2.280  10.612 -0.8678  0.5413 -0.0556
  715MOL0     C96457  11.007   2.164  10.538  0.1067  0.1015 -0.0058
  715MOL0     H96458  11.158   1.968  10.018  1.8159 -1.6522 -0.4161
  715MOL0     H96459  11.128   1.798   9.842  0.9642  2.3316  0.9282
  715MOL0     H96460  10.834   1.513   9.885  2.3075  0.2756 -0.6299
  715MOL0     H96461  10.719   1.617   9.778  0.8324  1.2227 -0.9239
  715MOL0     H96462  10.925   1.421   9.706 -3.0451 -2.1856 -0.4359
  715MOL0     H96463  10.756   1.430   9.656 -1.3965  1.0575 -4.7724
  715MOL0     H96464  10.988   1.595   9.557  1.7459 -1.2847 -1.0139
  715MOL0     H96465  10.903   1.478   9.461 -1.1240  0.6418  0.6089
  715MOL0     H96466  10.748   1.716   9.556 -0.8841 -1.8714  1.8053
  715MOL0     H96467  10.847   1.705   9.411 -1.1691  1.4004  1.1628
  715MOL0     H96468  10.654   1.490   9.460  4.0421 -1.7860 -2.9772
  715MOL0     H96469  10.578   1.646   9.437 -3.7558 -3.5382  1.1298
  715MOL0     H96470  10.705   1.669   9.220  3.3509  1.0274  2.2945
  715MOL0     H96471  10.805   1.542   9.245  0.1820 -0.5165  1.2361
  715MOL0     H96472  10.572   1.386   9.227 -0.7131  0.4906  2.2238
  715MOL0     H96473  10.495   1.540   9.212  0.3452  0.0751  1.1061
  715MOL0     H96474  10.669   1.358   9.046  1.1174 -0.4746  3.3119
  715MOL0     H96475  10.691   1.534   9.010 -2.0482  1.2644 -1.1994
  715MOL0     H96476  10.364   1.322   9.069  0.6166 -2.5924 -0.7573
  715MOL0     H96477  10.219   1.212   8.894  1.6639 -0.1462 -1.7761
  715MOL0     H96478  10.113   1.355   8.903 -0.9791 -1.2611 -0.3233
  715MOL0     H96479  10.060   1.210   8.722 -1.0513  1.5723 -1.6507
  715MOL0     H96480  10.231   1.234   8.654 -0.2764  1.2632 -1.0510
  715MOL0     H96481  10.174   1.476   8.650  0.7804  0.9102  3.6903
  715MOL0     H96482  10.025   1.437   8.726 -0.1488 -1.8934 -0.1235
  715MOL0     H96483  10.082   1.315   8.449  0.9260  3.6993 -2.0646
  715MOL0     H96484  10.004   1.469   8.475  0.5842 -0.0395 -0.6621
  715MOL0     H96485   9.698   1.163   8.557 -2.2976 -1.0415  0.2746
  715MOL0     H96486   9.426   1.122   8.330 -0.8283 -2.4762 -2.0323
  715MOL0     H96487   9.526   0.985   8.309 -4.0392  1.0275 -3.3898
  715MOL0     H96488   9.501   1.043   8.473 -0.1494  3.2703  1.0187
  715MOL0     H96489   9.230   1.100   8.084  0.5171  0.8146 -0.3149
  715MOL0     H96490   9.096   1.091   7.873 -0.5378 -2.0202 -0.6360
  715MOL0     H96491   9.338   1.173   7.511 -0.7136  1.1259 -1.8814
  715MOL0     H96492   9.305   0.995   7.494  1.4544  0.7921  0.0177
  715MOL0     H96493   9.226   1.157   7.294 -1.8388 -0.6389 -0.9127
  715MOL0     H96494   9.121   1.031   7.364  2.2607 -2.2355  0.4781
  715MOL0     H96495   9.097   1.339   7.431 -0.9056  0.0628  1.9153
  715MOL0     H96496   8.998   1.213   7.498  2.4972  0.2831  1.7686
  715MOL0     H96497   9.011   1.248   7.196  2.8744 -0.9558  1.1563
  715MOL0     H96498   8.903   1.145   7.289 -1.3165  0.7120 -4.3602
  715MOL0     H96499   8.777   1.316   7.374  1.1253 -0.2581  0.6931
  715MOL0     H96500   8.800   1.348   7.198 -0.8985 -1.1999 -0.2351
  715MOL0     H96501   8.934   1.510   7.422 -2.5220  0.3034  1.0890
  715MOL0     H96502   8.975   1.513   7.245 -0.0503 -0.6452 -0.6234
  715MOL0     H96503   8.742   1.573   7.197  0.6581  0.6139 -0.3699
  715MOL0     H96504   8.823   1.693   7.285  1.7425 -0.6853 -0.3173
  715MOL0     H96505   8.598   1.504   7.378 -1.3778  0.2524  0.9961
  715MOL0     H96506   8.604   1.675   7.373 -1.2832 -1.1358 -1.5566
  715MOL0     H96507   9.458   1.044   7.643  2.6990  0.4763  0.9048
  715MOL0     H96508   9.586   1.025   7.861 -0.6543  0.1092  1.6599
  715MOL0     H96509   9.796   1.321   8.096  1.6862 -1.4312 -0.3775
  715MOL0     H96510   9.937   1.390   8.278 -0.1393 -0.7376  0.8471
  715MOL0     H96511  10.729   1.728   9.995 -1.2842  1.4276  4.0434
  715MOL0     H96512  10.781   1.910  10.183 -2.5612 -1.9338 -0.8426
  715MOL0     H96513  10.928   2.306  10.240 -0.2405 -0.3579 -0.1378
  715MOL0     H96514  10.966   2.503  10.355 -0.7328 -1.1299 -2.8032
  715MOL0     H96515  11.215   2.563  10.556 -0.0449 -0.3702 -0.6498
  715MOL0     H96516  11.091   2.665  10.497 -0.3570  2.2448  1.5630
  715MOL0     H96517  11.185   2.813  10.666 -0.0141  0.0528  1.5995
  715MOL0     H96518  11.261   2.683  10.745  0.1348  0.0291  0.5963
  715MOL0     H96519  11.096   2.810  10.879 -0.0742 -1.1451  0.4792
  715MOL0     H96520  11.025   2.652  10.848 -2.3085  0.9544  2.0920
  715MOL0     H96521  10.847   2.815  10.820 -0.1369  2.9362 -0.0861
  715MOL0     H96522  10.878   2.772  10.661 -2.2233  0.2866  1.4562
  715MOL0     H96523  10.992   3.182  10.726 -0.7357 -0.2218 -0.2773
  715MOL0     H96524  11.019   2.273  10.720  5.2287 -3.3010 -0.1952
  715MOL0     H96525  11.010   2.072  10.595 -2.0822  0.2585  0.4578
  716MOL0     O96526  11.512   5.711   1.812 -0.4879  0.7220  0.9775
  716MOL0     C96527  11.585   5.688   1.910 -0.2515  0.1690  0.5577
  716MOL0     O96528  11.626   5.565   1.947 -0.2621  0.4943  0.1673
  716MOL0     C96529  11.594   5.439   1.886 -0.1248  0.0238  0.0839
  716MOL0     C96530  11.623   5.384   1.757  0.5936 -0.1523  0.7590
  716MOL0     C96531  11.584   5.256   1.713  0.1216  0.2043 -0.7302
  716MOL0     C96532  11.512   5.175   1.808 -0.1323  0.2051  0.8260
  716MOL0     O96533  11.450   5.066   1.755 -0.3724 -0.0233  0.6941
  716MOL0     C96534  11.510   4.938   1.790  0.0727  0.1056 -0.9897
  716MOL0     C96535  11.632   4.905   1.699  0.1888  1.2306 -0.2640
  716MOL0     C96536  11.580   4.921   1.551  0.9320  0.1386  0.3211
  716MOL0     C96537  11.704   4.926   1.455  0.6340  0.3875  0.1848
  716MOL0     C96538  11.668   4.940   1.309 -0.6055 -0.3973  0.7810
  716MOL0     C96539  11.783   4.945   1.212  0.1734  0.9975 -0.0113
  716MOL0     C96540  11.742   5.006   1.072 -0.0414  0.2395 -0.2543
  716MOL0     C96541  11.852   4.972   0.971 -0.3860 -0.4683  0.6179
  716MOL0     N96542  11.805   5.004   0.836 -0.1176  0.4347  0.9800
  716MOL0     C96543  11.807   5.126   0.771  0.4340  0.5217 -0.4336
  716MOL0     C96544  11.721   5.108   0.661 -0.2989 -0.6701  0.4355
  716MOL0     C96545  11.688   5.220   0.556 -0.6036 -0.5831 -0.4160
  716MOL0     C96546  11.613   5.330   0.628 -0.8262 -0.6682  0.6912
  716MOL0     C96547  11.489   5.298   0.715 -0.0181  0.0621  0.2811
  716MOL0     C96548  11.400   5.421   0.735 -1.7188 -0.1635 -0.3131
  716MOL0     O96549  11.477   5.521   0.808 -0.4702 -1.0135 -0.2424
  716MOL0     C96550  11.414   5.589   0.907  0.5863 -0.1010 -0.2105
  716MOL0     C96551  11.280   5.580   0.945 -0.2481 -2.4206  0.7925
  716MOL0     C96552  11.239   5.648   1.065 -0.2838  0.1138 -0.1529
  716MOL0     C96553  11.094   5.637   1.102 -0.3527  0.3917 -0.6603
  716MOL0     C96554  11.329   5.735   1.135  0.6129 -0.3114 -0.1582
  716MOL0     C96555  11.285   5.834   1.230  0.0539  0.3008 -0.4304
  716MOL0     O96556  11.365   5.861   1.344 -0.1163  0.5162  0.1716
  716MOL0     C96557  11.336   5.975   1.415 -0.6131  0.7135  0.1951
  716MOL0     C96558  11.318   5.967   1.551  0.3521 -0.2260  0.4221
  716MOL0     C96559  11.296   6.076   1.624 -0.3187 -0.0659  0.7575
  716MOL0     C96560  11.297   6.205   1.563 -0.8544 -0.0249 -0.6566
  716MOL0     O96561  11.292   6.330   1.624 -0.0330  0.5201  0.0354
  716MOL0     C96562  11.404   6.361   1.700 -0.3300 -0.3263 -0.1281
  716MOL0     C96563  11.365   6.478   1.803  0.6812 -0.2948  0.4267
  716MOL0     C96564  11.438   6.605   1.756 -0.9003 -0.8499 -0.9798
  716MOL0     C96565  11.426   6.723   1.850 -0.2843  0.9173 -0.1575
  716MOL0     C96566  11.541   6.822   1.829 -0.9934 -0.2992  0.2957
  716MOL0     C96567  11.522   6.971   1.894  0.2395 -0.4534  0.6537
  716MOL0     C96568  11.623   7.069   1.842  0.0772  0.2179  0.4517
  716MOL0     C96569  11.773   7.052   1.873 -0.1755  0.1689 -0.6040
  716MOL0    Cl96570  11.861   7.161   1.760  0.0595 -0.5935 -0.2421
  716MOL0     C96571  11.311   6.207   1.422 -0.1447 -0.3925 -0.3015
  716MOL0     C96572  11.322   6.089   1.350 -0.1383 -0.7142  0.4796
  716MOL0     O96573  11.183   5.891   1.204  0.8021 -1.2684  0.1011
  716MOL0     C96574  11.464   5.736   1.093  0.8505 -0.8193  0.4310
  716MOL0     C96575  11.504   5.667   0.978  1.7008 -0.3337 -0.7401
  716MOL0     N96576  11.681   4.973   0.653  0.6961 -0.1271 -1.2018
  716MOL0     N96577  11.724   4.921   0.764  0.4270  0.1175 -0.2324
  716MOL0     C96578  11.480   5.218   1.932  0.2100 -0.0393  0.0030
  716MOL0     C96579  11.526   5.349   1.970 -0.1281 -0.3530 -0.2905
  716MOL0     C96580  11.607   5.802   1.995 -0.6010 -0.2936 -0.8720
  716MOL0     C96581  11.533   5.917   1.980 -0.4533  0.0932 -0.1363
  716MOL0     C96582  11.533   6.024   2.061  0.7712  0.1198  0.0306
  716MOL0     C96583  11.618   6.022   2.179 -0.5332 -0.9942  0.5407
  716MOL0     O96584  11.620   6.123   2.281  0.1690  0.7338  0.4348
  716MOL0     C96585  11.543   6.246   2.264 -0.2906  0.3180  0.5892
  716MOL0     C96586  11.650   6.354   2.221  0.7493 -0.2375  0.3524
  716MOL0     C96587  11.596   6.455   2.132 -0.6051  0.8959  0.1391
  716MOL0     C96588  11.692   6.572   2.115  0.7019  0.4159  0.1944
  716MOL0     C96589  11.668   6.685   2.198  1.2045 -0.0182  0.3431
  716MOL0     C96590  11.662   6.784   2.273 -0.6893  1.2225 -0.4190
  716MOL0     C96591  11.705   5.911   2.197 -0.4149 -0.8268 -0.5579
  716MOL0     C96592  11.701   5.806   2.109 -0.0832 -0.0799 -0.2108
  716MOL0     H96593  11.688   5.445   1.695  1.1147 -0.3926  1.0617
  716MOL0     H96594  11.593   5.219   1.611  0.9260  0.5218 -0.7814
  716MOL0     H96595  11.545   4.928   1.893 -0.6306  1.1551 -0.6326
  716MOL0     H96596  11.439   4.856   1.774  3.3707 -2.7375 -2.2176
  716MOL0     H96597  11.717   4.971   1.718  0.0326  1.1417  0.7943
  716MOL0     H96598  11.661   4.803   1.727 -1.2051  0.0245 -2.8819
  716MOL0     H96599  11.508   4.844   1.521  1.0689  0.5447 -1.1350
  716MOL0     H96600  11.528   5.016   1.535 -1.0893 -0.3196  3.3983
  716MOL0     H96601  11.783   4.995   1.486 -0.1015  0.7549  1.3071
  716MOL0     H96602  11.761   4.833   1.471  0.0550 -0.3017 -1.4957
  716MOL0     H96603  11.608   4.857   1.270 -2.1119  0.2886  1.5744
  716MOL0     H96604  11.613   5.034   1.296 -1.3899 -1.1560 -2.2731
  716MOL0     H96605  11.866   5.008   1.246  0.6130 -0.2166  1.2718
  716MOL0     H96606  11.818   4.841   1.208 -2.1985  0.1805 -1.6942
  716MOL0     H96607  11.647   4.964   1.035  0.5031 -1.6525  0.3740
  716MOL0     H96608  11.731   5.115   1.069  1.9468  0.4720 -3.6687
  716MOL0     H96609  11.882   4.867   0.980  0.9513 -0.1601 -0.0633
  716MOL0     H96610  11.934   5.038   0.999  0.0817 -0.8058  0.0680
  716MOL0     H96611  11.868   5.208   0.807 -0.4120  0.9597  0.0299
  716MOL0     H96612  11.784   5.260   0.523 -0.4620 -1.6487 -1.3508
  716MOL0     H96613  11.636   5.190   0.465  0.0404  1.3089 -1.4516
  716MOL0     H96614  11.576   5.393   0.547 -0.6187 -1.3851  0.0269
  716MOL0     H96615  11.685   5.385   0.689  0.7543  0.5747 -2.0927
  716MOL0     H96616  11.507   5.262   0.817 -0.3250  2.7230  1.3309
  716MOL0     H96617  11.419   5.230   0.667  0.0266  1.4035 -1.8135
  716MOL0     H96618  11.310   5.386   0.785 -1.3079 -0.6902  0.0607
  716MOL0     H96619  11.361   5.469   0.644  1.8894  2.6246 -0.6373
  716MOL0     H96620  11.208   5.521   0.890 -1.6597  1.4404 -1.8713
  716MOL0     H96621  11.065   5.532   1.087 -2.7228  0.5436  2.0377
  716MOL0     H96622  11.080   5.650   1.210  2.0961 -0.9887 -0.0819
  716MOL0     H96623  11.031   5.704   1.043 -1.6877 -0.1020  0.1723
  716MOL0     H96624  11.328   5.875   1.608  1.7482  1.6011  3.3817
  716MOL0     H96625  11.273   6.065   1.729 -1.2435  1.6859  0.7700
  716MOL0     H96626  11.429   6.276   1.763  3.8085 -0.6335 -1.9010
  716MOL0     H96627  11.487   6.393   1.637 -1.9442  0.4478 -1.9911
  716MOL0     H96628  11.256   6.490   1.807  0.2453 -1.1869 -3.8077
  716MOL0     H96629  11.396   6.458   1.905 -2.7219  1.7928  2.0598
  716MOL0     H96630  11.405   6.624   1.653 -2.2264 -2.3736 -0.8693
  716MOL0     H96631  11.545   6.584   1.750 -0.5772  0.5431 -0.4800
  716MOL0     H96632  11.328   6.766   1.826 -0.8605 -0.4987 -0.4560
  716MOL0     H96633  11.418   6.700   1.957  1.6302 -0.6990 -0.3053
  716MOL0     H96634  11.563   6.838   1.723  1.4614  0.4617  0.8511
  716MOL0     H96635  11.638   6.777   1.851  0.7464  2.6155 -0.8009
  716MOL0     H96636  11.425   7.012   1.864  0.9496  2.1359  1.7038
  716MOL0     H96637  11.511   6.970   2.003 -0.3936  0.3438  0.6034
  716MOL0     H96638  11.586   7.158   1.894 -1.1308 -0.8142  1.4325
  716MOL0     H96639  11.619   7.077   1.733  1.2798  1.6450  0.4715
  716MOL0     H96640  11.809   6.950   1.856  2.2843  0.7986  0.3841
  716MOL0     H96641  11.790   7.084   1.976  3.6683  1.0920 -1.3749
  716MOL0     H96642  11.309   6.303   1.370 -1.9021  1.6011  3.0465
  716MOL0     H96643  11.324   6.101   1.243 -1.4915 -0.2104  0.4824
  716MOL0     H96644  11.528   5.806   1.146  1.9313 -3.2754  2.5606
  716MOL0     H96645  11.598   5.697   0.934  1.6264 -0.2574 -0.8484
  716MOL0     H96646  11.413   5.163   1.997 -1.6559 -0.6106 -2.2704
  716MOL0     H96647  11.512   5.388   2.070 -0.1646 -1.9512  0.3652
  716MOL0     H96648  11.456   5.916   1.902 -2.4591  0.3759  1.7458
  716MOL0     H96649  11.455   6.095   2.036 -1.4199 -2.1812 -0.1042
  716MOL0     H96650  11.468   6.235   2.185  1.0961 -2.3990 -0.4855
  716MOL0     H96651  11.483   6.267   2.353 -1.6227  0.1542 -0.2358
  716MOL0     H96652  11.732   6.315   2.160  1.3784  1.6770 -0.1240
  716MOL0     H96653  11.675   6.387   2.322 -0.3457 -1.5117  1.0707
  716MOL0     H96654  11.498   6.498   2.154 -1.0183  1.5098 -2.5629
  716MOL0     H96655  11.583   6.401   2.038  2.0551  0.3054  0.0325
  716MOL0     H96656  11.690   6.612   2.013  1.9943 -1.0986 -0.4559
  716MOL0     H96657  11.796   6.539   2.114 -0.1691 -2.8762  2.4337
  716MOL0     H96658  11.651   6.881   2.319  0.7023  2.4215 -2.4571
  716MOL0     H96659  11.774   5.891   2.278  1.4302 -0.9758 -2.0974
  716MOL0     H96660  11.760   5.715   2.116 -0.4432 -0.7742 -3.9843
  717MOL0     O96661   4.498   0.360   6.741 -0.1061 -0.3506 -1.0372
  717MOL0     C96662   4.587   0.290   6.689 -0.0447  0.0482 -0.1332
  717MOL0     O96663   4.688   0.228   6.753  0.4943 -0.5384  0.0353
  717MOL0     C96664   4.698   0.235   6.891  0.3441  0.2271  0.8458
  717MOL0     C96665   4.697   0.117   6.959 -0.4603  0.0129  0.0074
  717MOL0     C96666   4.725   0.115   7.098 -0.3183  0.6835  0.0217
  717MOL0     C96667   4.764   0.232   7.165 -1.0066 -0.2131 -0.6104
  717MOL0     O96668   4.796   0.206   7.299  0.4491 -0.4134  0.0890
  717MOL0     C96669   4.851   0.315   7.374  0.1429 -0.3431 -0.8678
  717MOL0     C96670   4.878   0.272   7.516  0.1684 -0.0522  0.0070
  717MOL0     C96671   4.749   0.262   7.592  0.5049  0.3433  0.1672
  717MOL0     C96672   4.779   0.223   7.738  0.1118 -1.1264 -0.3356
  717MOL0     C96673   4.650   0.205   7.811 -0.5280 -0.1901 -1.0481
  717MOL0     C96674   4.654   0.103   7.927 -0.1140 -0.1029  0.0677
  717MOL0     C96675   4.520   0.091   8.008 -0.3433 -0.3019 -0.7689
  717MOL0     C96676   4.488   0.203   8.105  0.9347  0.1359 -0.9016
  717MOL0     N96677   4.376   0.169   8.198 -0.4913 -0.3941 -0.3111
  717MOL0     C96678   4.371   0.187   8.334 -0.3382 -1.4274  0.1075
  717MOL0     C96679   4.242   0.176   8.359 -0.1124 -0.1525  0.2327
  717MOL0     C96680   4.172   0.166   8.481  0.8439 -0.2092  0.8500
  717MOL0     C96681   4.152   0.289   8.567 -0.3048  0.9537  1.4705
  717MOL0     C96682   4.085   0.258   8.696  0.3579 -0.0299 -0.7040
  717MOL0     C96683   4.126   0.354   8.799 -0.3374  0.0471  0.1103
  717MOL0     O96684   4.225   0.287   8.878  0.0873  0.7660  0.9246
  717MOL0     C96685   4.345   0.293   8.810  0.6610 -0.9716  0.1079
  717MOL0     C96686   4.413   0.416   8.773 -0.5131  0.2063  0.9192
  717MOL0     C96687   4.530   0.397   8.696  0.0317 -0.6499  0.0045
  717MOL0     C96688   4.593   0.519   8.639  0.2476  0.8825 -0.8798
  717MOL0     C96689   4.586   0.274   8.670 -0.2903  0.2460 -0.0399
  717MOL0     C96690   4.722   0.260   8.603  0.3195  1.1453 -0.1808
  717MOL0     O96691   4.829   0.339   8.639  0.3983  0.9297 -0.1392
  717MOL0     C96692   4.952   0.301   8.589 -0.6012  0.2375  0.9512
  717MOL0     C96693   5.037   0.229   8.670  0.6225 -0.8497  0.4277
  717MOL0     C96694   5.165   0.191   8.629 -0.7502  0.0333 -0.3155
  717MOL0     C96695   5.204   0.200   8.498  0.6095 -0.2262 -0.4131
  717MOL0     O96696   5.316   0.150   8.440 -0.0984 -0.2596  0.4194
  717MOL0     C96697   5.306   0.005   8.399  0.9220 -0.5899 -0.6762
  717MOL0     C96698   5.433  -0.061   8.352 -0.1434  0.3297 -0.1322
  717MOL0     C96699   5.505   0.012   8.241 -0.3486 -0.1362  0.5011
  717MOL0     C96700   5.441   0.005   8.104 -0.2815 -0.0362 -0.7670
  717MOL0     C96701   5.477   0.131   8.020 -0.6731  0.1256 -0.0637
  717MOL0     C96702   5.391   0.131   7.900  0.3172 -0.2699  0.1720
  717MOL0     C96703   5.423   0.236   7.791 -0.5039  0.1907 -0.3089
  717MOL0     C96704   5.297   0.241   7.703 -0.0987 -0.1528 -0.4487
  717MOL0    Cl96705   5.151   0.318   7.786  0.6121 -0.3286 -0.4301
  717MOL0     C96706   5.121   0.271   8.417  0.8959 -0.2981 -0.2362
  717MOL0     C96707   4.992   0.325   8.453 -0.2101  1.0196 -0.1548
  717MOL0     O96708   4.717   0.176   8.512 -0.7848  0.1721 -0.5569
  717MOL0     C96709   4.514   0.160   8.715  0.6690  0.2896 -0.1550
  717MOL0     C96710   4.390   0.162   8.776  0.7887 -0.3119  0.2146
  717MOL0     N96711   4.176   0.119   8.243 -0.3946  0.6825  0.7895
  717MOL0     N96712   4.265   0.114   8.158 -0.0400 -0.6733  0.4895
  717MOL0     C96713   4.771   0.354   7.088  0.1987  0.1211 -0.9332
  717MOL0     C96714   4.738   0.354   6.954  0.4638  0.5800 -0.0847
  717MOL0     C96715   4.586   0.281   6.539  0.7323  0.2560 -0.4457
  717MOL0     C96716   4.647   0.177   6.462 -0.0952 -0.0798 -0.4152
  717MOL0     C96717   4.640   0.171   6.329  0.0688 -0.8213  0.7268
  717MOL0     C96718   4.589   0.281   6.258  1.5041 -0.2487 -0.1149
  717MOL0     O96719   4.594   0.300   6.119  0.6356 -0.2324  0.6826
  717MOL0     C96720   4.657   0.211   6.021  0.2946 -0.7315 -0.8692
  717MOL0     C96721   4.593   0.074   5.999  0.3134  0.4400  0.2413
  717MOL0     C96722   4.630   0.024   5.856 -0.7600  0.7726  0.5541
  717MOL0     C96723   4.768  -0.038   5.849 -0.0078  0.8533  0.3378
  717MOL0     C96724   4.786  -0.127   5.727 -1.0826 -0.9685 -0.0087
  717MOL0     C96725   4.823  -0.196   5.632 -0.2235  0.6897  0.5822
  717MOL0     C96726   4.506   0.374   6.329 -0.2233 -0.4442 -0.2839
  717MOL0     C96727   4.514   0.379   6.471 -0.1024  1.0339 -0.6416
  717MOL0     H96728   4.680   0.022   6.909  0.7866  0.3760 -1.1733
  717MOL0     H96729   4.710   0.030   7.163  0.6351  0.2576 -0.2969
  717MOL0     H96730   4.942   0.356   7.327  0.7832  1.1187  1.4702
  717MOL0     H96731   4.779   0.397   7.379  0.2737 -0.2867  0.3584
  717MOL0     H96732   4.922   0.172   7.508 -1.1760 -1.0524  3.2214
  717MOL0     H96733   4.951   0.345   7.552  1.4681 -1.6436  0.7648
  717MOL0     H96734   4.687   0.350   7.572 -0.3108 -0.9006 -3.5461
  717MOL0     H96735   4.695   0.180   7.542  1.2784 -0.7208  1.0291
  717MOL0     H96736   4.834   0.129   7.727  1.7713  0.0146 -2.1676
  717MOL0     H96737   4.834   0.299   7.794 -0.3946 -0.9684 -0.0400
  717MOL0     H96738   4.617   0.304   7.843  1.5389 -0.1576  1.2153
  717MOL0     H96739   4.571   0.161   7.750  1.0519 -1.3239 -2.3599
  717MOL0     H96740   4.670   0.006   7.879  0.9600  0.8153 -1.5405
  717MOL0     H96741   4.736   0.114   7.999 -1.5523 -1.7980  2.0799
  717MOL0     H96742   4.453   0.084   7.922  0.7894 -1.4953 -1.5886
  717MOL0     H96743   4.529  -0.010   8.048  1.0785  0.3816  0.7613
  717MOL0     H96744   4.469   0.288   8.039 -2.7381 -2.7483 -4.0165
  717MOL0     H96745   4.579   0.203   8.166 -0.6244 -0.8244  1.5870
  717MOL0     H96746   4.452   0.216   8.401 -1.7417  2.9913  0.2318
  717MOL0     H96747   4.074   0.121   8.463  0.0772  1.4395  0.6900
  717MOL0     H96748   4.223   0.096   8.549  4.0237  1.7459  0.6743
  717MOL0     H96749   4.089   0.359   8.511  1.5668 -0.0567 -2.2879
  717MOL0     H96750   4.253   0.328   8.580  0.4260 -0.3327 -0.0098
  717MOL0     H96751   4.093   0.155   8.732 -3.1560  0.0490  0.7445
  717MOL0     H96752   3.977   0.272   8.684  0.1445  0.2822  1.1358
  717MOL0     H96753   4.040   0.382   8.861 -1.8453  2.7280 -2.9165
  717MOL0     H96754   4.165   0.448   8.759  0.0903 -0.7147 -1.3398
  717MOL0     H96755   4.374   0.515   8.789 -0.4961  1.1503 -3.6368
  717MOL0     H96756   4.686   0.547   8.689  0.3100 -0.9131  0.0979
  717MOL0     H96757   4.618   0.506   8.533  2.2668 -0.5432 -0.2982
  717MOL0     H96758   4.522   0.602   8.648  0.6884  1.3040 -1.2252
  717MOL0     H96759   5.018   0.211   8.775 -0.7148 -4.3766 -0.2893
  717MOL0     H96760   5.219   0.143   8.710 -2.6231 -1.0244  0.3692
  717MOL0     H96761   5.274  -0.055   8.486  3.6193 -1.4423 -0.1754
  717MOL0     H96762   5.226  -0.009   8.325  2.2349 -0.8936 -2.0761
  717MOL0     H96763   5.498  -0.069   8.440 -1.1356  0.7380  0.6505
  717MOL0     H96764   5.404  -0.161   8.319  2.0504 -0.2609 -0.4105
  717MOL0     H96765   5.603  -0.036   8.231 -0.7047 -1.2986  2.1460
  717MOL0     H96766   5.513   0.118   8.268 -2.0665  0.5141 -1.2831
  717MOL0     H96767   5.456  -0.089   8.048  1.1944  0.8944 -2.0210
  717MOL0     H96768   5.334   0.008   8.129  0.5250 -2.6547  4.1029
  717MOL0     H96769   5.577   0.127   7.974 -1.7056 -2.2218 -2.3677
  717MOL0     H96770   5.464   0.226   8.072  0.8997 -1.0121  2.5932
  717MOL0     H96771   5.392   0.029   7.861 -1.6212 -0.9319  1.6750
  717MOL0     H96772   5.289   0.161   7.926  0.2782 -0.1637 -0.1029
  717MOL0     H96773   5.513   0.192   7.748  1.5268 -0.9225  4.4161
  717MOL0     H96774   5.447   0.339   7.819 -1.8288  0.7524 -1.1681
  717MOL0     H96775   5.287   0.138   7.667 -0.1362 -0.6224  0.8470
  717MOL0     H96776   5.311   0.304   7.615  1.0768  0.1685 -0.0505
  717MOL0     H96777   5.155   0.289   8.316  2.4429  0.0613  0.3266
  717MOL0     H96778   4.933   0.389   8.388 -1.3868 -0.9400 -1.0828
  717MOL0     H96779   4.550   0.061   8.689 -4.9934 -1.5226 -2.7676
  717MOL0     H96780   4.333   0.070   8.786 -0.7857  0.3422 -1.9307
  717MOL0     H96781   4.802   0.446   7.137  1.8289 -1.6465  1.5753
  717MOL0     H96782   4.749   0.437   6.885  2.1525 -0.8124 -1.5865
  717MOL0     H96783   4.703   0.093   6.501 -2.0775 -1.2338  0.0730
  717MOL0     H96784   4.674   0.081   6.279 -1.2666 -1.2891  0.6180
  717MOL0     H96785   4.675   0.261   5.926 -0.1019 -1.3689 -1.2898
  717MOL0     H96786   4.757   0.196   6.063 -0.5721  1.1454  2.1746
  717MOL0     H96787   4.486   0.092   6.008 -0.2979 -3.1810  2.0919
  717MOL0     H96788   4.624  -0.001   6.073  2.3164  1.7647  0.8514
  717MOL0     H96789   4.625   0.097   5.774  0.4129 -0.5007 -0.7168
  717MOL0     H96790   4.563  -0.059   5.833  1.5697 -0.3679 -3.0051
  717MOL0     H96791   4.785  -0.107   5.933 -0.0970  0.1940 -0.1742
  717MOL0     H96792   4.843   0.041   5.858  2.2307 -1.1326  0.4278
  717MOL0     H96793   4.867  -0.246   5.548  1.1349 -0.1166  1.7167
  717MOL0     H96794   4.446   0.453   6.285 -0.0992  0.4894  1.1544
  717MOL0     H96795   4.456   0.455   6.522  0.1634 -0.1610  1.5803
  718MOL0     O96796   4.819   9.208  11.112 -0.1251  0.0742 -0.0609
  718MOL0     C96797   4.763   9.100  11.146 -0.7530  0.9711 -0.5186
  718MOL0     O96798   4.660   9.092  11.232  0.5526 -0.0417  0.5860
  718MOL0     C96799   4.618   9.208  11.284 -0.4354 -1.2600  0.4221
  718MOL0     C96800   4.695   9.278  11.380  0.3059  0.5437 -0.3270
  718MOL0     C96801   4.648   9.387  11.442  0.0270 -0.2046 -0.2872
  718MOL0     C96802   4.521   9.445  11.413 -0.0024  0.6845 -0.3198
  718MOL0     O96803   4.473   9.562  11.470 -0.3755 -0.1981  0.4204
  718MOL0     C96804   4.575   9.656  11.496  0.2586  0.2052 -0.1109
  718MOL0     C96805   4.632   9.649  11.643  0.0759 -0.4683  0.8314
  718MOL0     C96806   4.773   9.704  11.678 -0.6244  0.3793  0.0130
  718MOL0     C96807   4.819   9.841  11.610 -0.9506 -0.4816 -0.0755
  718MOL0     C96808   4.969   9.871  11.653 -0.2750 -0.7050 -0.0544
  718MOL0     C96809   5.018   9.997  11.565  0.1623  0.7039  0.2201
  718MOL0     C96810   5.166  10.046  11.596 -0.5023  0.7815 -0.4455
  718MOL0     C96811   5.270   9.924  11.595 -0.5537 -0.6327  0.3318
  718MOL0     N96812   5.402   9.950  11.655 -0.5512  0.0033 -0.0630
  718MOL0     C96813   5.418   9.915  11.787  0.4165  0.8020  0.5397
  718MOL0     C96814   5.552   9.887  11.808  0.4885  0.1398 -0.3668
  718MOL0     C96815   5.603   9.830  11.938  0.1719 -0.2381 -0.2212
  718MOL0     C96816   5.610   9.944  12.039  0.6701 -0.3469  1.1796
  718MOL0     C96817   5.654   9.908  12.173 -1.1057 -0.4628  0.0380
  718MOL0     C96818   5.795   9.857  12.176 -0.5608 -0.3025  0.3301
  718MOL0     O96819   5.875   9.941  12.252 -0.1539  0.2673  0.4867
  718MOL0     C96820   5.900   9.909  12.384  0.3325 -0.3111  0.1619
  718MOL0     C96821   5.836   9.813  12.465 -0.0956  0.2595  0.2028
  718MOL0     C96822   5.870   9.780  12.598  0.2193  0.4349 -0.1482
  718MOL0     C96823   5.798   9.653  12.642  0.2820 -1.0735 -0.8901
  718MOL0     C96824   5.964   9.862  12.674  0.9852  0.2139  0.2440
  718MOL0     C96825   6.001   9.855  12.819 -0.0861  0.1577  0.2514
  718MOL0     O96826   6.121   9.915  12.859 -0.0985  1.3528 -0.5719
  718MOL0     C96827   6.164   9.896  12.993  0.5400 -0.2113 -0.1960
  718MOL0     C96828   6.171   9.755  13.034  0.1264 -1.3045  0.3599
  718MOL0     C96829   6.224   9.738  13.156 -0.6525  0.0459 -0.8030
  718MOL0     C96830   6.270   9.839  13.245 -0.2389 -0.2661 -0.5321
  718MOL0     O96831   6.311   9.825  13.386  0.7157  0.0495  0.6024
  718MOL0     C96832   6.352   9.692  13.430 -0.2243 -0.4897  0.3895
  718MOL0     C96833   6.406   9.692  13.574 -0.1852  0.5084 -0.5866
  718MOL0     C96834   6.458   9.556  13.627  0.3674 -0.9465  1.2363
  718MOL0     C96835   6.476   9.554  13.777 -1.0702  0.1675  0.0809
  718MOL0     C96836   6.618   9.513  13.808 -0.1927 -0.5885 -0.1127
  718MOL0     C96837   6.623   9.514  13.965  0.9829 -0.1052 -0.4482
  718MOL0     C96838   6.753   9.458  14.021 -0.6054 -0.0433 -0.1493
  718MOL0     C96839   6.748   9.433  14.172 -0.7545  0.8267 -0.4331
  718MOL0    Cl96840   6.656   9.554  14.272  0.1899 -0.3981  0.1149
  718MOL0     C96841   6.277   9.965  13.195  0.3269 -0.2578  0.0615
  718MOL0     C96842   6.235   9.997  13.061 -0.3108 -0.7249 -0.3539
  718MOL0     O96843   5.921   9.801  12.896 -0.7551  0.3115  0.3204
  718MOL0     C96844   6.024   9.962  12.593  0.3529 -0.4098 -0.1443
  718MOL0     C96845   5.986   9.985  12.461 -0.0534 -0.2402  0.5043
  718MOL0     N96846   5.608   9.892  11.680 -0.4559 -0.0797 -0.3219
  718MOL0     N96847   5.528   9.940  11.596  0.0575  0.0319 -0.7493
  718MOL0     C96848   4.447   9.382  11.308  0.0240 -0.3640 -0.2345
  718MOL0     C96849   4.487   9.260  11.253  0.7044  1.1991 -0.8515
  718MOL0     C96850   4.805   8.981  11.080  0.4739  0.2447  0.0640
  718MOL0     C96851   4.706   8.875  11.073 -0.0290  0.6122 -0.3388
  718MOL0     C96852   4.745   8.753  11.017  0.2725 -0.0553  0.8951
  718MOL0     C96853   4.873   8.727  10.960 -0.1224 -0.3714 -0.3589
  718MOL0     O96854   4.925   8.614  10.895  0.1342 -0.5406 -0.3518
  718MOL0     C96855   4.833   8.512  10.858  0.0527 -0.0469  0.1019
  718MOL0     C96856   4.741   8.546  10.746 -0.5203  0.5887 -0.2695
  718MOL0     C96857   4.816   8.540  10.614  1.0214  0.3522 -0.7493
  718MOL0     C96858   4.727   8.577  10.496  0.5154  1.0019 -0.6811
  718MOL0     C96859   4.622   8.476  10.478  0.2972  0.6414 -0.2832
  718MOL0     C96860   4.518   8.397  10.474 -0.3389 -0.0433 -0.1084
  718MOL0     C96861   4.970   8.830  10.971  0.2595 -0.1730 -0.3935
  718MOL0     C96862   4.934   8.959  11.029 -0.9847  0.6447 -0.5023
  718MOL0     H96863   4.797   9.250  11.405  0.0538  0.5430  0.7221
  718MOL0     H96864   4.717   9.448  11.500  0.4556  0.2859 -1.2834
  718MOL0     H96865   4.662   9.650  11.430  3.0124 -1.4833  3.3113
  718MOL0     H96866   4.529   9.755  11.485  0.2763  0.3860  1.2724
  718MOL0     H96867   4.563   9.704  11.708  0.5685  0.1767  0.8153
  718MOL0     H96868   4.631   9.543  11.668  1.4107 -1.4179 -2.5957
  718MOL0     H96869   4.779   9.716  11.786  2.1224  3.5164 -0.3321
  718MOL0     H96870   4.845   9.625  11.652  0.0586  0.7599  0.7039
  718MOL0     H96871   4.813   9.845  11.501 -0.5784  2.1252 -0.0689
  718MOL0     H96872   4.761   9.926  11.647  0.7712  0.7497 -0.1128
  718MOL0     H96873   4.975   9.882  11.761  1.7445 -2.5055  0.0995
  718MOL0     H96874   5.030   9.784  11.628  0.8430 -0.0101  0.1584
  718MOL0     H96875   5.016   9.980  11.458  1.9399 -2.4745  0.5795
  718MOL0     H96876   4.949  10.075  11.600  0.1082  0.4827  0.6165
  718MOL0     H96877   5.193  10.135  11.539  0.7553  1.4797  1.1700
  718MOL0     H96878   5.167  10.081  11.699 -4.4211 -1.6785  0.6351
  718MOL0     H96879   5.278   9.899  11.488 -0.3708 -1.6852  0.5816
  718MOL0     H96880   5.219   9.842  11.646  0.0035 -0.8489  0.5449
  718MOL0     H96881   5.339   9.910  11.861  1.8283 -0.1926  2.0374
  718MOL0     H96882   5.529   9.754  11.966 -1.3872  0.8331 -1.3169
  718MOL0     H96883   5.704   9.790  11.923 -0.6025 -0.7984 -6.1125
  718MOL0     H96884   5.511   9.990  12.051  0.8110 -0.1224  1.5034
  718MOL0     H96885   5.677  10.015  11.988 -0.8679 -1.0216 -2.0574
  718MOL0     H96886   5.595   9.830  12.220 -0.4545  0.1192  1.8863
  718MOL0     H96887   5.633   9.993  12.238  1.2347  2.4714 -2.6726
  718MOL0     H96888   5.840   9.865  12.076 -1.4757  4.4209  0.0510
  718MOL0     H96889   5.787   9.749  12.189  1.5327 -0.6985 -1.0680
  718MOL0     H96890   5.783   9.734  12.414 -1.7101  1.2757  0.2423
  718MOL0     H96891   5.855   9.562  12.663  2.2126  0.7013  2.3729
  718MOL0     H96892   5.739   9.672  12.732 -2.0163 -1.2194 -2.2663
  718MOL0     H96893   5.721   9.621  12.571 -1.9636  1.4105  0.2516
  718MOL0     H96894   6.134   9.672  12.974 -0.5666 -2.3200  2.1285
  718MOL0     H96895   6.221   9.638  13.197  2.3403 -0.3217 -1.2346
  718MOL0     H96896   6.266   9.625  13.428 -0.7497  0.1294  1.5583
  718MOL0     H96897   6.427   9.651  13.361 -0.1857 -0.7028  0.5593
  718MOL0     H96898   6.496   9.753  13.571  1.6952 -2.1311 -2.4389
  718MOL0     H96899   6.317   9.716  13.634 -2.0980  0.4290 -3.1920
  718MOL0     H96900   6.552   9.542  13.573  0.0150  3.6712 -1.1427
  718MOL0     H96901   6.391   9.474  13.598 -0.0200 -1.3577  3.1939
  718MOL0     H96902   6.461   9.656  13.812 -0.3626  1.6659 -3.4837
  718MOL0     H96903   6.399   9.486  13.814  0.7696 -2.9322 -1.3702
  718MOL0     H96904   6.691   9.588  13.777 -2.4023  2.7635  2.1102
  718MOL0     H96905   6.631   9.416  13.760 -2.6322 -1.3230  0.5249
  718MOL0     H96906   6.613   9.619  13.994  2.4782 -0.1070  0.1625
  718MOL0     H96907   6.544   9.455  14.011  2.5145  0.0910  2.6498
  718MOL0     H96908   6.827   9.536  14.001  0.2699 -0.8135  0.0534
  718MOL0     H96909   6.776   9.370  13.961 -2.8619 -0.4393 -0.5390
  718MOL0     H96910   6.851   9.439  14.208 -0.4246  1.0981 -1.4091
  718MOL0     H96911   6.707   9.334  14.193 -3.3591  1.7620 -0.6970
  718MOL0     H96912   6.315  10.045  13.258 -2.8263  1.2821  0.2302
  718MOL0     H96913   6.227  10.092  13.010 -2.0955 -0.6883 -0.0563
  718MOL0     H96914   6.087  10.039  12.637 -2.2822  3.0300 -1.8622
  718MOL0     H96915   6.029  10.072  12.412 -1.7082 -0.2212 -1.0547
  718MOL0     H96916   4.353   9.420  11.269 -0.3261 -1.6673 -0.7116
  718MOL0     H96917   4.416   9.208  11.189  1.1849 -1.2357  0.4694
  718MOL0     H96918   4.605   8.882  11.114  1.3558  0.0756  3.6057
  718MOL0     H96919   4.665   8.679  11.014  0.2150  0.0555 -0.6186
  718MOL0     H96920   4.890   8.422  10.832  1.2823  0.5508  0.6226
  718MOL0     H96921   4.774   8.487  10.947  0.0522 -2.4774 -0.4974
  718MOL0     H96922   4.701   8.646  10.763 -2.5659 -0.3514  0.8446
  718MOL0     H96923   4.659   8.473  10.741  1.4557 -1.7364 -0.6644
  718MOL0     H96924   4.852   8.438  10.595  0.4931 -0.3953  1.7422
  718MOL0     H96925   4.892   8.616  10.632  4.2640 -3.0274  1.3061
  718MOL0     H96926   4.789   8.576  10.406  1.2655  3.3790 -0.2459
  718MOL0     H96927   4.698   8.682  10.509  1.4064  1.1133  0.5104
  718MOL0     H96928   4.431   8.337  10.456 -0.0210  0.5884 -5.0621
  718MOL0     H96929   5.071   8.801  10.945  0.8404  0.1811  1.3344
  718MOL0     H96930   5.015   9.031  11.041 -0.9377  0.4962  0.0933
  719MOL0     O96931   1.698  10.983   2.954  0.4605 -0.3822  0.2484
  719MOL0     C96932   1.638  10.875   2.973  0.8210 -0.7985 -0.5418
  719MOL0     O96933   1.567  10.808   2.877  0.2222  0.2396  0.9045
  719MOL0     C96934   1.546  10.860   2.755  1.3030 -0.4907  0.8343
  719MOL0     C96935   1.593  10.793   2.644  0.3900 -0.6059  0.3206
  719MOL0     C96936   1.581  10.842   2.512 -0.5603 -1.1897  0.0734
  719MOL0     C96937   1.525  10.962   2.504 -1.1528 -0.3787  0.9795
  719MOL0     O96938   1.527  11.035   2.385 -0.2517  0.3142 -1.0030
  719MOL0     C96939   1.655  11.042   2.320 -0.3362  0.7548 -0.6384
  719MOL0     C96940   1.681  11.172   2.233 -1.2211 -0.0121 -0.2103
  719MOL0     C96941   1.570  11.174   2.120 -0.5638 -0.0575 -0.2098
  719MOL0     C96942   1.620  11.239   1.979 -0.3481  0.1184  0.0183
  719MOL0     C96943   1.514  11.296   1.887  0.0972 -0.1411  0.0500
  719MOL0     C96944   1.577  11.372   1.768 -0.9364 -0.9112 -0.5097
  719MOL0     C96945   1.485  11.444   1.666  0.4213  0.4663  0.5875
  719MOL0     C96946   1.411  11.566   1.712  0.1011 -0.7777 -0.3808
  719MOL0     N96947   1.358  11.647   1.598 -0.5259  0.1385  0.2538
  719MOL0     C96948   1.254  11.733   1.615 -0.2226 -0.1961  0.0685
  719MOL0     C96949   1.227  11.781   1.492  0.2819  0.4203  0.3353
  719MOL0     C96950   1.110  11.873   1.484  0.5931 -0.7850  0.5435
  719MOL0     C96951   1.012  11.851   1.377  0.0504 -0.0655 -0.1536
  719MOL0     C96952   0.913  11.739   1.412  0.3315  0.2442 -0.1723
  719MOL0     C96953   0.802  11.792   1.510  1.1672 -0.1044 -0.4176
  719MOL0     O96954   0.725  11.680   1.566  0.4427  0.3719 -0.9731
  719MOL0     C96955   0.655  11.606   1.476  0.5556 -0.5904 -0.3435
  719MOL0     C96956   0.657  11.468   1.480  0.2386  0.0091 -0.4912
  719MOL0     C96957   0.595  11.382   1.381  0.7616  0.3246 -0.7874
  719MOL0     C96958   0.604  11.233   1.388  1.1061  0.1027  0.2148
  719MOL0     C96959   0.518  11.442   1.281  0.2790 -0.6801  0.1530
  719MOL0     C96960   0.440  11.368   1.187  0.4328  0.3260 -0.4446
  719MOL0     O96961   0.355  11.272   1.226 -0.5024  0.0218  0.8465
  719MOL0     C96962   0.280  11.190   1.151  0.6873  0.7545 -0.4915
  719MOL0     C96963   0.299  11.174   1.018  0.5847  0.3427  0.0189
  719MOL0     C96964   0.226  11.078   0.948 -0.1253 -0.9296 -0.9266
  719MOL0     C96965   0.129  10.997   1.024  0.1177 -0.4192 -0.0078
  719MOL0     O96966   0.058  10.900   0.959  0.5905  0.4141  0.3901
  719MOL0     C96967  -0.072  10.939   0.922 -0.1987  0.6228 -0.2922
  719MOL0     C96968  -0.152  10.812   0.907 -0.2235 -0.5633  0.2812
  719MOL0     C96969  -0.096  10.731   0.779 -0.8241  0.3447  0.6052
  719MOL0     C96970  -0.216  10.656   0.703 -0.1666 -0.2948 -0.4083
  719MOL0     C96971  -0.302  10.543   0.758 -0.1965 -0.5093  0.5949
  719MOL0     C96972  -0.353  10.459   0.640 -0.2535  0.6302 -0.4686
  719MOL0     C96973  -0.454  10.341   0.694 -0.5026 -0.1500  0.2117
  719MOL0     C96974  -0.590  10.390   0.726 -0.3295 -0.3660 -1.1941
  719MOL0    Cl96975  -0.591  10.449   0.900 -0.3348 -0.2069 -0.0868
  719MOL0     C96976   0.103  11.025   1.155 -0.3826  0.8205 -0.2074
  719MOL0     C96977   0.186  11.115   1.224 -0.0537 -0.0247  0.5584
  719MOL0     O96978   0.457  11.410   1.074  0.1681 -0.2720  0.5469
  719MOL0     C96979   0.487  11.581   1.286  0.2241 -0.9713 -0.3082
  719MOL0     C96980   0.556  11.657   1.380  0.4827  0.4862 -0.9342
  719MOL0     N96981   1.310  11.723   1.401  0.5632 -0.0927  0.0393
  719MOL0     N96982   1.378  11.634   1.465 -0.4801 -0.5295 -0.5775
  719MOL0     C96983   1.482  11.038   2.611  0.1103 -0.7136  0.8630
  719MOL0     C96984   1.502  10.988   2.734 -0.6554 -0.5223 -0.3218
  719MOL0     C96985   1.620  10.829   3.112  0.3844  0.0942  0.2806
  719MOL0     C96986   1.553  10.707   3.136 -0.1001  0.7693  0.2295
  719MOL0     C96987   1.511  10.675   3.263  0.9990 -0.2670 -0.2937
  719MOL0     C96988   1.536  10.762   3.369 -0.5529 -0.6933  0.3528
  719MOL0     O96989   1.473  10.738   3.485  0.5467 -0.3553 -0.3721
  719MOL0     C96990   1.557  10.664   3.575  0.8271  0.7297  0.5395
  719MOL0     C96991   1.665  10.750   3.637 -0.3615 -0.2352 -0.0785
  719MOL0     C96992   1.695  10.717   3.787 -0.7188 -0.8145 -0.2774
  719MOL0     C96993   1.740  10.829   3.880  0.3276  0.3775 -0.0642
  719MOL0     C96994   1.834  10.925   3.813  0.3971 -0.1578 -0.0938
  719MOL0     C96995   1.897  11.007   3.753 -0.4332  0.0511  0.8063
  719MOL0     C96996   1.599  10.884   3.343 -0.3515 -0.2879 -1.3455
  719MOL0     C96997   1.655  10.913   3.217  0.8896 -0.7716  0.5514
  719MOL0     H96998   1.621  10.691   2.668 -2.8990 -1.4526  1.0738
  719MOL0     H96999   1.616  10.791   2.424  0.8354  0.7392 -0.5549
  719MOL0     H97000   1.733  11.029   2.396  0.3742 -0.7968 -1.5727
  719MOL0     H97001   1.648  10.953   2.256  2.0619 -1.7019  2.2635
  719MOL0     H97002   1.697  11.269   2.280  5.5288  1.1234 -3.5380
  719MOL0     H97003   1.779  11.175   2.184  0.1792  2.6878  2.4853
  719MOL0     H97004   1.522  11.076   2.105 -2.9475  1.3829 -2.9684
  719MOL0     H97005   1.490  11.245   2.142 -0.6561 -0.4016  0.5899
  719MOL0     H97006   1.697  11.308   2.016 -0.6333 -2.1606  5.9537
  719MOL0     H97007   1.675  11.159   1.929 -0.1260  0.1965  0.1354
  719MOL0     H97008   1.448  11.214   1.854  1.7268 -0.6651 -2.1689
  719MOL0     H97009   1.465  11.367   1.954  0.7973  0.0246  0.3968
  719MOL0     H97010   1.639  11.455   1.803 -0.9051 -1.5593  1.0726
  719MOL0     H97011   1.638  11.297   1.717  0.4149  0.0755 -0.3903
  719MOL0     H97012   1.554  11.477   1.588 -2.1320  3.2136 -0.7098
  719MOL0     H97013   1.414  11.379   1.616  1.1652 -0.2344  0.4271
  719MOL0     H97014   1.480  11.632   1.767 -1.3590  0.5374 -0.0410
  719MOL0     H97015   1.333  11.544   1.785 -1.1626  0.9409 -1.1462
  719MOL0     H97016   1.205  11.762   1.707  1.1665 -1.6559  1.3558
  719MOL0     H97017   1.064  11.876   1.583  1.1850  2.8213  0.8423
  719MOL0     H97018   1.151  11.972   1.461  0.5034 -1.2254 -1.6832
  719MOL0     H97019   1.073  11.839   1.288  1.1128  0.4750  0.4798
  719MOL0     H97020   0.949  11.939   1.362  1.9973  1.3733 -0.1492
  719MOL0     H97021   0.963  11.652   1.454 -3.8871 -1.9559  0.8163
  719MOL0     H97022   0.871  11.720   1.313 -0.2996  2.8123 -0.4659
  719MOL0     H97023   0.740  11.870   1.465  4.5508  1.0243 -3.6316
  719MOL0     H97024   0.841  11.829   1.606 -1.8232  1.1402  0.4165
  719MOL0     H97025   0.702  11.410   1.560  1.4863 -0.1265 -1.2670
  719MOL0     H97026   0.692  11.193   1.439  1.2072  2.7577  2.3887
  719MOL0     H97027   0.516  11.189   1.437  1.3618 -1.6078 -0.7996
  719MOL0     H97028   0.603  11.203   1.283  3.0953 -2.7007  0.8909
  719MOL0     H97029   0.384  11.223   0.970  2.0037  1.9127  3.7392
  719MOL0     H97030   0.242  11.050   0.845  0.6838 -2.7813 -0.3348
  719MOL0     H97031  -0.114  11.004   0.999 -2.6331 -1.6798  0.4854
  719MOL0     H97032  -0.069  11.000   0.831  0.8710  2.1570  0.7146
  719MOL0     H97033  -0.136  10.756   1.000  0.8235  2.3326  1.9878
  719MOL0     H97034  -0.259  10.828   0.899 -1.2649 -4.5101  3.0311
  719MOL0     H97035  -0.020  10.662   0.818 -1.1877  0.9051  2.4093
  719MOL0     H97036  -0.043  10.796   0.709 -2.6280 -0.0079 -1.1880
  719MOL0     H97037  -0.284  10.736   0.672  1.3647  0.4925 -1.9074
  719MOL0     H97038  -0.172  10.628   0.606  2.4880  0.4067  0.5060
  719MOL0     H97039  -0.396  10.583   0.798 -0.3870  0.8594 -1.1236
  719MOL0     H97040  -0.256  10.475   0.830 -2.8174 -2.4245  0.6373
  719MOL0     H97041  -0.407  10.519   0.566 -3.1925  0.1014  1.0870
  719MOL0     H97042  -0.268  10.400   0.604  0.3154  1.0172  0.2314
  719MOL0     H97043  -0.412  10.288   0.780 -3.6327 -0.7383  1.5395
  719MOL0     H97044  -0.469  10.273   0.610  1.0293  0.8895 -0.9648
  719MOL0     H97045  -0.673  10.319   0.720 -0.0997 -0.6511 -1.0001
  719MOL0     H97046  -0.626  10.466   0.656  1.5830  0.6559 -1.1232
  719MOL0     H97047   0.028  10.971   1.212 -0.0351  2.3019  1.7733
  719MOL0     H97048   0.159  11.130   1.328  1.7879  2.0821  0.8012
  719MOL0     H97049   0.404  11.629   1.234  1.0441 -1.6277 -2.3472
  719MOL0     H97050   0.527  11.762   1.381 -0.1826  0.3191  0.6987
  719MOL0     H97051   1.434  11.135   2.606  1.6684  0.1112  1.2506
  719MOL0     H97052   1.461  11.047   2.815  0.2748  0.5648 -0.6316
  719MOL0     H97053   1.537  10.631   3.060  2.0422  0.6400 -0.1611
  719MOL0     H97054   1.446  10.591   3.282 -0.4390  1.2310  2.0099
  719MOL0     H97055   1.492  10.628   3.655 -2.2757  0.9920 -1.6947
  719MOL0     H97056   1.601  10.582   3.517  0.4385 -1.0549  2.6135
  719MOL0     H97057   1.615  10.848   3.627 -0.3411 -0.2901 -0.7901
  719MOL0     H97058   1.761  10.762   3.585  0.3509 -0.3641  1.1851
  719MOL0     H97059   1.780  10.649   3.796 -0.9472 -0.8148  3.5839
  719MOL0     H97060   1.606  10.673   3.833  0.4335 -2.0641  0.8791
  719MOL0     H97061   1.773  10.791   3.978 -3.0166  0.4513  1.2245
  719MOL0     H97062   1.654  10.890   3.908  1.7623  3.2089 -1.3888
  719MOL0     H97063   1.950  11.079   3.695 -1.4133 -0.6587 -1.0613
  719MOL0     H97064   1.601  10.955   3.425 -0.6860 -0.2792 -1.3433
  719MOL0     H97065   1.701  11.011   3.204 -0.8511 -0.1335 -1.3171
  720MOL0     O97066   5.744   4.005   2.241 -0.0762 -0.6952  0.7494
  720MOL0     C97067   5.823   3.927   2.283 -1.2601  0.7843 -0.3347
  720MOL0     O97068   5.812   3.850   2.388 -0.6077 -0.4150 -0.0063
  720MOL0     C97069   5.695   3.870   2.458 -0.1645 -1.4484 -0.2780
  720MOL0     C97070   5.664   4.001   2.506 -0.4850 -0.3962 -0.5649
  720MOL0     C97071   5.543   4.032   2.562  0.1085 -1.4428  0.6062
  720MOL0     C97072   5.455   3.930   2.583  0.1976  0.6464  0.0103
  720MOL0     O97073   5.342   3.979   2.648 -0.1097  0.2031 -0.1414
  720MOL0     C97074   5.222   3.905   2.666 -0.3766  1.4389 -0.5240
  720MOL0     C97075   5.101   3.980   2.717  1.8072  0.2070  0.1959
  720MOL0     C97076   5.136   4.070   2.840  0.0312  0.4615  0.8182
  720MOL0     C97077   5.021   4.149   2.879  0.3153 -0.2364 -0.2423
  720MOL0     C97078   5.053   4.223   3.011 -0.1591  0.9132  0.2011
  720MOL0     C97079   5.017   4.134   3.142 -0.7479  0.1617  0.3551
  720MOL0     C97080   4.868   4.138   3.178  0.1406  0.4233  0.8925
  720MOL0     C97081   4.826   4.017   3.272  0.0514  0.8519 -0.1354
  720MOL0     N97082   4.687   4.017   3.309  0.0910 -0.6470 -0.2564
  720MOL0     C97083   4.579   3.984   3.226 -0.8386 -0.0426 -0.3032
  720MOL0     C97084   4.462   3.993   3.301  0.4648  0.3852  0.2388
  720MOL0     C97085   4.316   3.967   3.268  0.2741 -0.9112 -0.2638
  720MOL0     C97086   4.304   3.856   3.164  0.9500 -0.8271  0.2084
  720MOL0     C97087   4.364   3.722   3.215 -0.3525  0.3217  0.9594
  720MOL0     C97088   4.334   3.604   3.113 -0.0483 -0.2475  0.2518
  720MOL0     O97089   4.403   3.627   2.990  0.3830 -0.2733  0.0163
  720MOL0     C97090   4.528   3.579   2.980 -0.8204  0.0968  0.3131
  720MOL0     C97091   4.627   3.667   2.942 -0.6500 -0.4833  0.1910
  720MOL0     C97092   4.769   3.647   2.951  0.2119  0.0669  0.4331
  720MOL0     C97093   4.868   3.748   2.901 -1.0872 -0.7212  0.6828
  720MOL0     C97094   4.812   3.512   2.989 -0.1219  0.1485 -0.7897
  720MOL0     C97095   4.952   3.451   2.994  1.0014 -0.4985 -0.6504
  720MOL0     O97096   5.049   3.523   2.931 -0.2643 -0.1801 -0.3194
  720MOL0     C97097   5.179   3.470   2.918 -0.4481  1.4308  0.0240
  720MOL0     C97098   5.291   3.544   2.943 -0.4549 -0.3197 -0.3554
  720MOL0     C97099   5.415   3.492   2.923 -0.3886  0.0502 -0.3660
  720MOL0     C97100   5.439   3.362   2.862 -0.1504  1.1782 -0.6143
  720MOL0     O97101   5.563   3.310   2.821 -0.3655  0.5855  0.1641
  720MOL0     C97102   5.672   3.402   2.793 -0.0040 -1.0036  0.0001
  720MOL0     C97103   5.760   3.441   2.916  0.3073  0.7028  0.1725
  720MOL0     C97104   5.826   3.312   2.975  0.8256  0.7194  0.4373
  720MOL0     C97105   5.892   3.345   3.107 -0.1066  0.8032 -0.7170
  720MOL0     C97106   5.989   3.462   3.109  0.4158 -0.4994 -0.2004
  720MOL0     C97107   6.056   3.488   3.242 -0.0694  0.1102  0.6608
  720MOL0     C97108   6.150   3.608   3.236  0.4920 -0.0791  0.3478
  720MOL0     C97109   6.228   3.634   3.363 -0.3473  0.1270 -0.0397
  720MOL0    Cl97110   6.127   3.674   3.507 -0.5829  0.4701  0.5242
  720MOL0     C97111   5.323   3.291   2.833  0.1869  0.0484  0.1975
  720MOL0     C97112   5.184   3.334   2.859 -0.5011 -0.6365 -0.5445
  720MOL0     O97113   4.972   3.355   3.073  0.2518  0.2787  0.2001
  720MOL0     C97114   4.707   3.420   3.014  0.6269  0.2652  0.0026
  720MOL0     C97115   4.569   3.455   3.024  0.6629  0.0640 -0.5234
  720MOL0     N97116   4.505   4.033   3.425 -1.1621  0.5913  0.2519
  720MOL0     N97117   4.636   4.034   3.436 -0.5474  0.4351  0.7723
  720MOL0     C97118   5.484   3.796   2.548 -0.0529 -0.4344 -0.5703
  720MOL0     C97119   5.604   3.767   2.478 -0.4256 -0.0629  1.7268
  720MOL0     C97120   5.961   3.928   2.224  0.3514 -0.5729  1.2743
  720MOL0     C97121   5.975   3.968   2.086 -0.2885 -1.1968 -0.1878
  720MOL0     C97122   6.099   3.952   2.024 -0.1892 -0.2255 -0.1840
  720MOL0     C97123   6.208   3.917   2.093 -0.1776  0.3921 -0.3593
  720MOL0     O97124   6.326   3.909   2.030  0.4281  0.8813 -0.0519
  720MOL0     C97125   6.369   4.014   1.929  0.4661  0.6229  0.0706
  720MOL0     C97126   6.407   3.953   1.795  0.7117 -0.3438 -0.3384
  720MOL0     C97127   6.320   3.831   1.756  0.1839  0.5827  0.3901
  720MOL0     C97128   6.344   3.799   1.610  0.9013 -0.1526 -0.5078
  720MOL0     C97129   6.248   3.696   1.572  0.7250  0.2340 -1.0010
  720MOL0     C97130   6.165   3.606   1.556 -0.2297  0.0885 -0.3440
  720MOL0     C97131   6.199   3.883   2.234  1.1265 -0.2929  1.2416
  720MOL0     C97132   6.076   3.896   2.300  1.0248 -0.2395  0.2674
  720MOL0     H97133   5.741   4.078   2.506  0.0329 -0.8726  0.8359
  720MOL0     H97134   5.507   4.129   2.595 -3.5353 -2.0321 -1.1614
  720MOL0     H97135   5.180   3.872   2.570 -1.1022  1.4707 -0.2261
  720MOL0     H97136   5.248   3.812   2.718  1.8800  1.0925 -2.0876
  720MOL0     H97137   5.071   4.033   2.626  2.3461 -0.8552 -0.6222
  720MOL0     H97138   5.013   3.920   2.743  1.8363 -1.0586 -2.3139
  720MOL0     H97139   5.168   4.006   2.922 -2.2412 -0.4042  1.1235
  720MOL0     H97140   5.208   4.147   2.813 -1.4770  0.7413 -3.0550
  720MOL0     H97141   4.990   4.210   2.793 -5.9691 -2.8516 -0.3503
  720MOL0     H97142   4.944   4.075   2.901  0.8369 -0.2248  1.8549
  720MOL0     H97143   5.159   4.248   3.016 -0.2529  1.1150  3.3382
  720MOL0     H97144   4.989   4.312   3.017 -1.9995 -0.3729  0.6534
  720MOL0     H97145   5.064   4.035   3.139 -0.6549  0.1573 -3.6494
  720MOL0     H97146   5.075   4.170   3.228  0.5756 -3.6930  1.2942
  720MOL0     H97147   4.848   4.232   3.230 -1.7615  0.0437  0.8970
  720MOL0     H97148   4.807   4.127   3.088  1.6779 -0.4684 -0.1029
  720MOL0     H97149   4.886   4.027   3.364 -0.4263 -1.1396  0.4316
  720MOL0     H97150   4.857   3.918   3.239 -2.8368  0.2079 -1.1567
  720MOL0     H97151   4.576   3.951   3.123 -1.0569 -0.9054 -0.0263
  720MOL0     H97152   4.254   3.945   3.356 -2.4502  3.1709 -0.8397
  720MOL0     H97153   4.281   4.063   3.228  0.5298 -1.1399 -1.0629
  720MOL0     H97154   4.344   3.880   3.066  4.3388 -2.8168  0.9554
  720MOL0     H97155   4.195   3.856   3.151  0.7240 -1.3861  1.7702
  720MOL0     H97156   4.313   3.693   3.308 -3.1099 -2.3011 -1.1593
  720MOL0     H97157   4.471   3.735   3.234 -0.9780  3.9048  3.0125
  720MOL0     H97158   4.227   3.593   3.091 -0.3557 -1.1187  1.9652
  720MOL0     H97159   4.352   3.504   3.153 -1.2795 -1.1614 -1.3317
  720MOL0     H97160   4.590   3.763   2.907 -0.6568  0.5715  2.9057
  720MOL0     H97161   4.833   3.851   2.896  0.3298 -0.2028  0.9973
  720MOL0     H97162   4.959   3.746   2.963  0.1126  1.8225 -0.8614
  720MOL0     H97163   4.894   3.736   2.795  0.1096 -2.0519  1.0895
  720MOL0     H97164   5.273   3.644   2.980  1.2239  0.0494 -0.4429
  720MOL0     H97165   5.503   3.553   2.941 -1.9904  2.2423  0.5594
  720MOL0     H97166   5.731   3.348   2.720  3.5555  1.1516  1.0463
  720MOL0     H97167   5.639   3.501   2.758  2.8951  0.7845  1.8503
  720MOL0     H97168   5.840   3.506   2.879 -0.5778  0.5109 -2.2872
  720MOL0     H97169   5.706   3.499   2.991  0.5886  3.0157 -1.3112
  720MOL0     H97170   5.902   3.281   2.903  1.1261 -0.3846  1.2052
  720MOL0     H97171   5.749   3.235   2.987 -0.9726  1.6869 -3.2741
  720MOL0     H97172   5.812   3.360   3.180 -0.8161 -0.3755 -1.2217
  720MOL0     H97173   5.944   3.253   3.136  1.6959  2.0820  0.2952
  720MOL0     H97174   5.938   3.549   3.066 -0.2916 -0.8345 -0.0610
  720MOL0     H97175   6.067   3.447   3.034  1.6809  2.3722  0.4305
  720MOL0     H97176   5.978   3.514   3.314 -0.4199 -1.3218  0.8172
  720MOL0     H97177   6.111   3.404   3.284  3.7564  1.7098 -0.6571
  720MOL0     H97178   6.089   3.696   3.216 -1.8726 -1.7272 -0.0790
  720MOL0     H97179   6.226   3.588   3.159  0.3107 -1.0331  0.3991
  720MOL0     H97180   6.301   3.716   3.356 -0.5877  0.5958  2.0563
  720MOL0     H97181   6.283   3.540   3.370 -2.0322 -0.7875  2.6322
  720MOL0     H97182   5.320   3.201   2.771  1.5732  1.8573 -2.6880
  720MOL0     H97183   5.098   3.270   2.843 -0.3789 -1.2187  1.0158
  720MOL0     H97184   4.730   3.314   3.015  1.0225  0.3324  2.1425
  720MOL0     H97185   4.488   3.383   3.034 -1.0555  2.0810  0.9912
  720MOL0     H97186   5.419   3.716   2.581  2.2608 -1.0233  3.1534
  720MOL0     H97187   5.614   3.671   2.429  2.0772  1.8118 -1.8636
  720MOL0     H97188   5.887   4.003   2.034  0.0451  1.4519  0.8579
  720MOL0     H97189   6.097   3.975   1.917  1.4654 -1.9413 -0.6366
  720MOL0     H97190   6.293   4.090   1.903  1.1042  0.8230 -1.3211
  720MOL0     H97191   6.450   4.074   1.970  0.0445  1.1450  0.1616
  720MOL0     H97192   6.512   3.924   1.802  0.6449 -0.3607  0.8092
  720MOL0     H97193   6.399   4.035   1.723 -1.3684  0.4410  0.6991
  720MOL0     H97194   6.215   3.855   1.773 -0.1856 -0.0505 -0.8381
  720MOL0     H97195   6.364   3.746   1.808 -1.4121 -1.5637 -1.5831
  720MOL0     H97196   6.445   3.763   1.591  2.1913  2.5292  0.7770
  720MOL0     H97197   6.333   3.889   1.549 -2.1500 -1.1215 -1.5846
  720MOL0     H97198   6.103   3.519   1.553  3.1603 -2.4958 -0.7545
  720MOL0     H97199   6.282   3.836   2.285 -1.4930 -2.9834  3.3929
  720MOL0     H97200   6.068   3.866   2.404  0.1159  1.2347  0.6452
  721MOL0     O97201   5.024   3.118   4.237  0.2527  0.0492  0.0823
  721MOL0     C97202   5.101   3.062   4.160  0.5465  0.5337  0.6661
  721MOL0     O97203   5.233   3.080   4.145  0.7759 -0.4321 -0.4297
  721MOL0     C97204   5.289   3.192   4.211  0.0553  0.3649  0.6009
  721MOL0     C97205   5.261   3.322   4.158 -0.2562  0.1592 -0.8475
  721MOL0     C97206   5.329   3.429   4.218  0.8053  0.0506  0.2865
  721MOL0     C97207   5.442   3.414   4.307  0.3331  0.5985  0.4105
  721MOL0     O97208   5.515   3.510   4.377 -0.0257  1.0115 -0.3996
  721MOL0     C97209   5.525   3.644   4.325 -0.7851  1.2183  0.5680
  721MOL0     C97210   5.633   3.722   4.401  1.0346 -1.0407 -0.2993
  721MOL0     C97211   5.747   3.775   4.320 -0.8415 -0.1346  0.0869
  721MOL0     C97212   5.707   3.881   4.215  0.2972 -0.1970  0.9419
  721MOL0     C97213   5.819   3.969   4.153 -0.0283  0.6381 -0.4721
  721MOL0     C97214   5.920   3.878   4.084 -0.2133  0.2941 -0.4768
  721MOL0     C97215   6.047   3.942   4.028 -0.2388  0.1457  0.4894
  721MOL0     C97216   6.117   4.038   4.120 -0.2875 -0.3828 -0.5314
  721MOL0     N97217   6.231   4.107   4.064 -0.6544 -0.2382  0.0440
  721MOL0     C97218   6.235   4.234   4.007 -0.3519  0.2263 -0.2469
  721MOL0     C97219   6.364   4.261   3.991  0.3220 -0.2114  0.1546
  721MOL0     C97220   6.430   4.376   3.910  0.2253 -0.0224 -0.0088
  721MOL0     C97221   6.341   4.494   3.878  0.0304  0.4563  0.2663
  721MOL0     C97222   6.429   4.606   3.830 -0.6921  0.7486  0.5287
  721MOL0     C97223   6.341   4.717   3.767 -0.2795  1.0581 -0.4424
  721MOL0     O97224   6.415   4.842   3.733 -0.4690 -0.7288  0.7597
  721MOL0     C97225   6.515   4.828   3.634 -0.1676 -0.5638  0.0807
  721MOL0     C97226   6.650   4.866   3.668 -0.3086  0.2203  0.4894
  721MOL0     C97227   6.754   4.849   3.575 -0.7477  0.5481 -0.0285
  721MOL0     C97228   6.897   4.896   3.621  0.4973  0.1196 -1.0125
  721MOL0     C97229   6.715   4.805   3.445 -0.4722  0.0591 -1.4051
  721MOL0     C97230   6.821   4.782   3.349 -0.3789  0.4523 -0.1416
  721MOL0     O97231   6.848   4.875   3.251 -0.0693  0.1221  0.3672
  721MOL0     C97232   6.762   4.981   3.228 -0.1963  0.2033  1.1542
  721MOL0     C97233   6.790   5.086   3.305 -0.4495 -0.5659  0.6125
  721MOL0     C97234   6.709   5.206   3.301 -0.2026  1.0641  0.0667
  721MOL0     C97235   6.606   5.222   3.213  0.7485  0.1280  0.1600
  721MOL0     O97236   6.534   5.337   3.218  0.8072  0.4813  0.6344
  721MOL0     C97237   6.406   5.345   3.149 -0.8068 -0.1525  0.0210
  721MOL0     C97238   6.337   5.476   3.188  0.1445 -0.3054 -0.1873
  721MOL0     C97239   6.213   5.487   3.105  0.6215 -0.4011 -0.2839
  721MOL0     C97240   6.108   5.372   3.123 -0.2660  0.1855  0.0755
  721MOL0     C97241   5.978   5.415   3.043 -0.3826  0.4503 -0.6956
  721MOL0     C97242   5.864   5.313   3.079 -0.3007  0.1641 -0.0021
  721MOL0     C97243   5.735   5.342   3.018 -0.0021  0.0046 -0.3792
  721MOL0     C97244   5.676   5.221   2.948  0.0596  0.0399 -0.3035
  721MOL0    Cl97245   5.590   5.126   3.069  0.0889 -0.1708 -0.0618
  721MOL0     C97246   6.587   5.117   3.123 -0.0949  0.5118 -0.0112
  721MOL0     C97247   6.667   5.000   3.132  0.8939 -0.4244 -0.0655
  721MOL0     O97248   6.881   4.671   3.360  0.0442 -0.5501  0.3208
  721MOL0     C97249   6.584   4.781   3.407  0.6191 -0.0097  0.7299
  721MOL0     C97250   6.479   4.805   3.499  0.3059 -0.5763 -0.3481
  721MOL0     N97251   6.444   4.152   4.038 -0.1101 -1.0039 -0.0832
  721MOL0     N97252   6.364   4.066   4.092  0.5068  0.1704  0.1781
  721MOL0     C97253   5.464   3.279   4.354 -0.1082  0.1732 -0.3665
  721MOL0     C97254   5.392   3.175   4.307 -0.3097  1.2853 -0.2424
  721MOL0     C97255   5.051   2.943   4.079  1.1897  0.3767 -0.5348
  721MOL0     C97256   4.918   2.897   4.093  0.0254 -0.8659 -1.1035
  721MOL0     C97257   4.859   2.792   4.024 -0.4139  0.6676  0.2647
  721MOL0     C97258   4.935   2.723   3.924 -0.1289 -0.2070 -0.7792
  721MOL0     O97259   4.888   2.619   3.846  0.1452  0.0398 -0.1135
  721MOL0     C97260   4.753   2.576   3.863  0.8080  0.1213 -0.8490
  721MOL0     C97261   4.664   2.670   3.779 -0.0945 -0.4017  0.0071
  721MOL0     C97262   4.524   2.630   3.754  0.3954 -0.7749  0.3740
  721MOL0     C97263   4.493   2.510   3.675 -0.4691  0.0823  0.5598
  721MOL0     C97264   4.350   2.522   3.649  0.0176  1.1225  1.2386
  721MOL0     C97265   4.234   2.512   3.622  0.4525  0.5259  0.2865
  721MOL0     C97266   5.068   2.764   3.918 -0.5265  0.3663  0.7361
  721MOL0     C97267   5.134   2.866   3.993 -0.7439 -0.5104 -0.2472
  721MOL0     H97268   5.186   3.337   4.081 -0.1258 -0.7256 -1.1686
  721MOL0     H97269   5.312   3.532   4.190  1.9078  0.3681  0.7300
  721MOL0     H97270   5.542   3.633   4.217  1.5527  0.4378  0.9723
  721MOL0     H97271   5.429   3.696   4.332 -1.0421  0.9816 -0.8335
  721MOL0     H97272   5.579   3.798   4.458 -0.6526 -2.0696 -0.4765
  721MOL0     H97273   5.695   3.660   4.467 -0.8020 -1.7223  0.8840
  721MOL0     H97274   5.824   3.813   4.388 -0.6327 -1.3656  0.5684
  721MOL0     H97275   5.799   3.700   4.260  0.9806 -0.1881  1.5969
  721MOL0     H97276   5.666   3.821   4.133  1.4458  2.8569 -2.0755
  721MOL0     H97277   5.634   3.948   4.261  0.7121 -0.2904  1.7557
  721MOL0     H97278   5.768   4.041   4.089 -2.3909  1.2018  1.8371
  721MOL0     H97279   5.861   4.028   4.235  0.6263 -0.1853 -0.2017
  721MOL0     H97280   5.949   3.802   4.157  3.2308  1.1222 -0.7792
  721MOL0     H97281   5.873   3.824   4.002 -3.0750  1.7483  0.0847
  721MOL0     H97282   6.120   3.863   4.009 -0.6842  0.0180 -0.7932
  721MOL0     H97283   6.028   4.002   3.939 -0.4174 -1.1873 -0.3985
  721MOL0     H97284   6.149   3.978   4.206 -1.6440  0.3872  0.5555
  721MOL0     H97285   6.056   4.117   4.165 -1.2042 -0.3376 -1.8086
  721MOL0     H97286   6.151   4.296   3.979  0.4842  1.1639 -0.7340
  721MOL0     H97287   6.519   4.409   3.963  0.8665  0.8232 -1.5376
  721MOL0     H97288   6.464   4.339   3.813  0.6700  0.2860  0.0268
  721MOL0     H97289   6.281   4.513   3.967  1.0714 -2.6823  1.7875
  721MOL0     H97290   6.265   4.465   3.805 -1.8822  1.6936  1.7046
  721MOL0     H97291   6.481   4.569   3.741  2.3778  2.0689  1.6120
  721MOL0     H97292   6.497   4.646   3.906  0.2967 -0.3624  0.2658
  721MOL0     H97293   6.268   4.748   3.842 -1.9302 -0.1643 -1.4798
  721MOL0     H97294   6.283   4.671   3.687 -0.0288 -1.9988  0.9946
  721MOL0     H97295   6.659   4.907   3.768 -0.5735 -0.2898  0.7274
  721MOL0     H97296   6.976   4.887   3.546  1.3943 -1.2205  0.0392
  721MOL0     H97297   6.885   5.004   3.618 -1.7496 -0.0308 -5.0482
  721MOL0     H97298   6.923   4.853   3.718  2.3184  2.4854 -0.3454
  721MOL0     H97299   6.872   5.075   3.374  0.0106  0.9963  0.3531
  721MOL0     H97300   6.723   5.289   3.369 -0.7793  0.2394  1.2248
  721MOL0     H97301   6.435   5.367   3.046 -2.3842 -1.0682 -0.6575
  721MOL0     H97302   6.349   5.253   3.163 -2.8651  0.8987 -0.9462
  721MOL0     H97303   6.319   5.474   3.296  3.1098 -3.5858  0.4346
  721MOL0     H97304   6.391   5.570   3.172 -0.5643 -0.1642 -2.0606
  721MOL0     H97305   6.238   5.487   2.998  3.2356  0.3081  0.2624
  721MOL0     H97306   6.169   5.582   3.139  3.4106  1.6921 -2.0500
  721MOL0     H97307   6.145   5.275   3.087 -1.1282 -0.6079  1.2590
  721MOL0     H97308   6.091   5.350   3.228 -0.1462 -3.4557 -0.5265
  721MOL0     H97309   6.009   5.438   2.940 -0.4227  4.0667 -0.0490
  721MOL0     H97310   5.951   5.517   3.074 -0.4928  0.8677 -2.0816
  721MOL0     H97311   5.904   5.217   3.045  4.2412  1.0686  2.0373
  721MOL0     H97312   5.868   5.299   3.187  0.1702 -0.3583 -0.0855
  721MOL0     H97313   5.760   5.416   2.942  0.9443  1.1848  1.0241
  721MOL0     H97314   5.661   5.386   3.086 -1.5212 -3.4786  0.4573
  721MOL0     H97315   5.755   5.152   2.918  0.7516 -1.0220  3.4234
  721MOL0     H97316   5.598   5.240   2.874  1.0750  0.5726 -1.2675
  721MOL0     H97317   6.516   5.122   3.041  1.2580 -3.4942 -1.7193
  721MOL0     H97318   6.657   4.925   3.054 -1.3803  0.1857 -0.4257
  721MOL0     H97319   6.565   4.740   3.308  0.8659 -1.4251  1.2574
  721MOL0     H97320   6.377   4.778   3.474  0.8053 -0.3466 -2.9224
  721MOL0     H97321   5.550   3.259   4.416  1.5633  1.9422 -1.9662
  721MOL0     H97322   5.405   3.081   4.360 -2.4155  2.2470  2.2154
  721MOL0     H97323   4.854   2.943   4.168  0.7327 -0.0234 -1.0003
  721MOL0     H97324   4.755   2.767   4.045 -1.0647  1.4830 -1.7263
  721MOL0     H97325   4.741   2.471   3.836  1.6926 -0.1187 -0.3738
  721MOL0     H97326   4.724   2.577   3.969  1.0297  0.6462 -0.7880
  721MOL0     H97327   4.710   2.656   3.681 -2.0625 -0.1060 -1.0087
  721MOL0     H97328   4.685   2.772   3.813 -1.1915  0.1158 -0.8267
  721MOL0     H97329   4.468   2.712   3.708  0.8282 -1.4894 -1.5290
  721MOL0     H97330   4.471   2.623   3.850  0.1836  0.3286  0.3406
  721MOL0     H97331   4.507   2.412   3.723 -2.0342  1.2023  3.5333
  721MOL0     H97332   4.552   2.502   3.583  2.2720  1.2188  2.1312
  721MOL0     H97333   4.133   2.507   3.585  1.4448  2.2544 -3.0692
  721MOL0     H97334   5.126   2.728   3.833 -0.5810 -0.1148  0.8998
  721MOL0     H97335   5.237   2.897   3.982 -0.0867 -1.8048  1.8072
  722MOL0     O97336   1.153   8.011   0.945  0.4396 -0.1779 -0.0414
  722MOL0     C97337   1.146   7.890   0.948  0.6552  0.0247 -0.7174
  722MOL0     O97338   1.084   7.811   0.864 -0.0872  0.1201  0.7526
  722MOL0     C97339   0.985   7.868   0.788  0.5857 -0.4662 -0.7635
  722MOL0     C97340   0.868   7.927   0.844  0.3909  0.0536  0.2351
  722MOL0     C97341   0.766   7.970   0.756 -0.3685  1.2567  0.6905
  722MOL0     C97342   0.774   7.947   0.618  0.2536  0.1067  0.4586
  722MOL0     O97343   0.667   7.978   0.541  0.0689 -0.1928 -0.0227
  722MOL0     C97344   0.659   7.915   0.414 -0.1775  0.0363  0.1685
  722MOL0     C97345   0.614   7.767   0.424  0.4021 -0.1515 -0.1743
  722MOL0     C97346   0.462   7.765   0.461  0.2292  0.1640 -0.7362
  722MOL0     C97347   0.402   7.632   0.449  0.7809  0.3439 -1.1126
  722MOL0     C97348   0.465   7.526   0.548 -0.1851  0.6366 -1.0032
  722MOL0     C97349   0.509   7.579   0.686 -0.7290  0.0020  0.3297
  722MOL0     C97350   0.595   7.476   0.758 -0.3656 -0.3481  0.0455
  722MOL0     C97351   0.649   7.529   0.893  0.2015  0.3045 -0.1343
  722MOL0     N97352   0.705   7.411   0.968  0.6828 -0.4356 -0.4862
  722MOL0     C97353   0.638   7.355   1.071  0.1188  1.1183 -0.2803
  722MOL0     C97354   0.718   7.259   1.113  0.1021  1.1359 -0.5930
  722MOL0     C97355   0.687   7.150   1.218  0.3607  0.0990 -0.8966
  722MOL0     C97356   0.797   7.070   1.281  0.0166  0.6374  0.0679
  722MOL0     C97357   0.741   6.976   1.392  0.4418  0.3052  0.7768
  722MOL0     C97358   0.733   7.036   1.532  0.7901 -0.5630  0.6280
  722MOL0     O97359   0.635   6.976   1.611  0.1929 -0.2755  0.5045
  722MOL0     C97360   0.670   6.903   1.722  0.9828  0.1952 -0.3634
  722MOL0     C97361   0.600   6.892   1.842 -0.9238 -0.3496 -0.1359
  722MOL0     C97362   0.647   6.818   1.949  0.5602  0.0870 -1.0902
  722MOL0     C97363   0.579   6.836   2.088 -0.2267 -0.2710  0.1938
  722MOL0     C97364   0.750   6.719   1.921 -0.0350  0.2256 -0.3640
  722MOL0     C97365   0.776   6.611   2.020  0.0915 -0.1441  1.0389
  722MOL0     O97366   0.898   6.559   1.994  1.7745 -0.1009 -0.6065
  722MOL0     C97367   0.951   6.485   2.094 -0.7467 -0.5347 -0.0246
  722MOL0     C97368   0.992   6.539   2.209 -0.7906  0.5388 -0.9708
  722MOL0     C97369   1.040   6.454   2.309  0.2144  0.0368  0.1040
  722MOL0     C97370   1.054   6.314   2.286  0.8307  0.4690  0.2232
  722MOL0     O97371   1.110   6.224   2.381  0.4353 -0.5283  0.4175
  722MOL0     C97372   1.014   6.147   2.435 -0.3170 -0.0694  0.4073
  722MOL0     C97373   1.078   6.012   2.470 -0.1381  0.6348  0.0177
  722MOL0     C97374   0.975   5.926   2.533 -0.3854  0.2098 -0.5804
  722MOL0     C97375   1.018   5.779   2.530 -0.5968 -1.0753  0.0139
  722MOL0     C97376   0.923   5.681   2.600  0.5236 -0.7806  0.1164
  722MOL0     C97377   0.787   5.675   2.532 -1.6948 -0.1092  0.6426
  722MOL0     C97378   0.700   5.584   2.613  1.2049 -0.1991  0.7046
  722MOL0     C97379   0.551   5.593   2.581 -0.0563 -0.4171  0.3326
  722MOL0    Cl97380   0.537   5.508   2.422  0.4852  0.2425  0.3319
  722MOL0     C97381   1.023   6.258   2.165 -0.0839  1.0025 -0.5457
  722MOL0     C97382   0.978   6.344   2.065  0.5154 -0.4546 -0.0894
  722MOL0     O97383   0.702   6.589   2.119 -0.4644  0.3971  0.3581
  722MOL0     C97384   0.824   6.726   1.796  0.1928  0.7880  0.2820
  722MOL0     C97385   0.786   6.822   1.705 -0.3961 -0.2361  0.1990
  722MOL0     N97386   0.843   7.273   1.054  0.4074  0.9704  0.2768
  722MOL0     N97387   0.832   7.372   0.971 -0.3902  0.1291  0.7655
  722MOL0     C97388   0.888   7.892   0.572  1.7323 -0.2800  0.4799
  722MOL0     C97389   0.996   7.857   0.651 -0.6625  0.2587  0.1512
  722MOL0     C97390   1.210   7.820   1.051  0.2357 -0.4498 -0.5977
  722MOL0     C97391   1.313   7.880   1.128 -0.5776 -0.3598  0.1210
  722MOL0     C97392   1.370   7.816   1.237 -0.8483  0.3532  0.4288
  722MOL0     C97393   1.319   7.694   1.285  0.6809 -0.7627 -0.4166
  722MOL0     O97394   1.356   7.641   1.410  0.9554 -0.1195 -0.2886
  722MOL0     C97395   1.446   7.703   1.497  0.1950 -0.3628 -0.4152
  722MOL0     C97396   1.372   7.779   1.612  0.4497  0.0497 -0.1405
  722MOL0     C97397   1.273   7.695   1.680 -0.2053  0.0120 -1.0165
  722MOL0     C97398   1.182   7.766   1.782 -0.2384  0.2959 -0.9934
  722MOL0     C97399   1.084   7.854   1.716 -0.4789 -0.1298 -0.5432
  722MOL0     C97400   0.998   7.926   1.663  0.6438  0.4622 -0.3049
  722MOL0     C97401   1.224   7.637   1.205  0.1664  0.0969  0.8358
  722MOL0     C97402   1.159   7.703   1.096 -0.4707  0.3801 -1.1186
  722MOL0     H97403   0.860   7.929   0.952  1.8009 -1.5071  0.4101
  722MOL0     H97404   0.682   8.008   0.814  1.8187 -1.3533  6.2720
  722MOL0     H97405   0.593   7.983   0.358  0.9569  0.0315 -1.2187
  722MOL0     H97406   0.755   7.924   0.363  0.0903 -1.9416  0.2707
  722MOL0     H97407   0.619   7.728   0.322 -0.4981  2.4259 -1.2895
  722MOL0     H97408   0.681   7.718   0.495  2.5513 -1.2201 -2.7460
  722MOL0     H97409   0.465   7.795   0.566 -0.0129 -1.9269 -0.0965
  722MOL0     H97410   0.397   7.839   0.413  2.6422  3.2222  0.3230
  722MOL0     H97411   0.302   7.624   0.492  2.0729 -2.0303  1.8912
  722MOL0     H97412   0.395   7.605   0.343  0.3886  0.2703 -1.0691
  722MOL0     H97413   0.401   7.439   0.564  1.6043 -0.0055  4.5325
  722MOL0     H97414   0.557   7.492   0.499  0.2310 -0.6750  0.6169
  722MOL0     H97415   0.591   7.649   0.669 -1.7959  0.8589 -1.6976
  722MOL0     H97416   0.427   7.612   0.751 -0.5696  0.9813  0.0453
  722MOL0     H97417   0.535   7.389   0.789 -3.1855  0.7637 -1.8699
  722MOL0     H97418   0.679   7.446   0.696  1.2649 -0.0243  1.9904
  722MOL0     H97419   0.568   7.583   0.942  2.9207  4.6052  0.1272
  722MOL0     H97420   0.724   7.606   0.873  0.7874 -0.2941 -0.2907
  722MOL0     H97421   0.549   7.374   1.130  0.9152  3.2274  0.3223
  722MOL0     H97422   0.636   7.202   1.299 -1.0051 -3.3941  0.6940
  722MOL0     H97423   0.618   7.072   1.186  0.7236 -0.5493 -0.1521
  722MOL0     H97424   0.875   7.134   1.325  0.9348 -1.1685  1.1666
  722MOL0     H97425   0.850   7.013   1.204  0.2038  0.8817  0.0119
  722MOL0     H97426   0.815   6.896   1.405  1.7574  1.2574 -0.5141
  722MOL0     H97427   0.646   6.928   1.368 -0.4090  3.2563 -2.6996
  722MOL0     H97428   0.700   7.139   1.520  2.9914  0.0579 -0.8169
  722MOL0     H97429   0.834   7.046   1.574  0.0512  1.7720  2.0670
  722MOL0     H97430   0.520   6.964   1.859 -0.8731 -0.4111  0.3666
  722MOL0     H97431   0.501   6.761   2.103  0.1285 -0.4878  1.0192
  722MOL0     H97432   0.652   6.827   2.169  2.3599 -0.5158 -2.0525
  722MOL0     H97433   0.542   6.938   2.103 -0.4029  0.2639 -3.1417
  722MOL0     H97434   0.982   6.645   2.231 -1.0394  0.4297 -0.5608
  722MOL0     H97435   1.075   6.480   2.408 -0.3189  0.9676  0.0549
  722MOL0     H97436   0.970   6.188   2.526 -3.7978  0.3796 -1.3203
  722MOL0     H97437   0.928   6.128   2.370  1.3049 -1.8280 -1.3838
  722MOL0     H97438   1.120   5.968   2.379 -0.2296  0.1775  0.1929
  722MOL0     H97439   1.154   6.032   2.546  0.1241 -0.0391 -0.0602
  722MOL0     H97440   0.879   5.926   2.481 -1.5597 -2.8916  1.3297
  722MOL0     H97441   0.968   5.968   2.633  0.2081  0.7598 -0.7663
  722MOL0     H97442   1.030   5.743   2.427 -0.3472  2.3332 -1.2626
  722MOL0     H97443   1.119   5.769   2.572  0.0612  2.9796 -0.2689
  722MOL0     H97444   0.910   5.718   2.702 -2.1604 -2.7534  0.5916
  722MOL0     H97445   0.974   5.585   2.601  2.8129  0.3828  0.3731
  722MOL0     H97446   0.739   5.773   2.537  0.9869  1.2696  1.2940
  722MOL0     H97447   0.813   5.647   2.429  0.7012  0.7834  0.9373
  722MOL0     H97448   0.698   5.613   2.719 -0.8393  0.8165  0.4354
  722MOL0     H97449   0.727   5.480   2.596 -2.0128 -0.8543 -1.0140
  722MOL0     H97450   0.520   5.696   2.568  0.8169 -0.2576 -0.6088
  722MOL0     H97451   0.499   5.540   2.662  0.2763 -1.8565 -0.3547
  722MOL0     H97452   1.047   6.158   2.130 -1.9187  1.0570 -2.1139
  722MOL0     H97453   0.964   6.304   1.965 -0.6387  1.0505 -0.5727
  722MOL0     H97454   0.900   6.656   1.763 -3.3535 -3.1570 -0.2731
  722MOL0     H97455   0.839   6.824   1.610  2.1000  3.0254  1.4617
  722MOL0     H97456   0.885   7.847   0.474 -2.9546 -2.5814  1.3870
  722MOL0     H97457   1.082   7.806   0.610  0.5726  2.8498 -0.6797
  722MOL0     H97458   1.354   7.968   1.081 -0.3996 -1.4420 -1.8598
  722MOL0     H97459   1.452   7.875   1.277 -0.1479 -0.3355  0.0316
  722MOL0     H97460   1.511   7.623   1.533  0.3742 -0.3411 -0.6866
  722MOL0     H97461   1.501   7.775   1.435 -3.3995  2.2195 -0.9626
  722MOL0     H97462   1.316   7.848   1.548  2.0634  1.2351 -0.3566
  722MOL0     H97463   1.442   7.831   1.678 -1.1101  2.0711  0.0434
  722MOL0     H97464   1.337   7.620   1.730  2.6210  1.1569 -2.6553
  722MOL0     H97465   1.211   7.643   1.607  0.7457 -1.7965 -0.5981
  722MOL0     H97466   1.232   7.822   1.862 -0.0998 -0.8571 -0.2543
  722MOL0     H97467   1.124   7.692   1.836 -1.0930  2.1587  0.7865
  722MOL0     H97468   0.910   7.986   1.653 -0.7558 -1.1994  1.4094
  722MOL0     H97469   1.184   7.555   1.264 -1.8405  1.7538  1.8986
  722MOL0     H97470   1.070   7.663   1.047 -0.9088 -2.4598  1.6571
  723MOL0     O97471   8.972   8.142   2.017 -0.0951 -0.3729  0.6844
  723MOL0     C97472   8.897   8.242   2.014 -0.2719  0.5098 -0.4973
  723MOL0     O97473   8.820   8.278   1.904  0.3439  1.0262 -0.4375
  723MOL0     C97474   8.845   8.216   1.786  0.5366 -0.6075 -0.4370
  723MOL0     C97475   8.858   8.298   1.685  0.0006  0.1836 -0.0881
  723MOL0     C97476   8.868   8.256   1.558 -0.5336 -0.2139 -0.3334
  723MOL0     C97477   8.861   8.119   1.525 -0.1131  0.3412  0.5022
  723MOL0     O97478   8.887   8.061   1.403  0.5105 -0.3733  0.0363
  723MOL0     C97479   8.932   8.142   1.293  0.7955 -0.0363 -0.3672
  723MOL0     C97480   8.924   8.041   1.181 -0.1605 -0.2557  0.2241
  723MOL0     C97481   8.970   8.112   1.054 -0.5098  1.2077 -0.6973
  723MOL0     C97482   8.972   8.012   0.936 -0.8315  0.3167  0.8279
  723MOL0     C97483   9.084   7.909   0.944 -0.0397  0.8607  0.7014
  723MOL0     C97484   9.105   7.860   0.792 -1.2849 -0.0139  0.5276
  723MOL0     C97485   9.224   7.765   0.781  0.7076 -0.8062 -1.0957
  723MOL0     C97486   9.333   7.798   0.687 -0.2615 -0.5738 -0.3596
  723MOL0     N97487   9.307   7.749   0.548 -0.7241 -0.7562  0.7788
  723MOL0     C97488   9.378   7.643   0.487  0.6924  0.0306  0.0716
  723MOL0     C97489   9.323   7.639   0.359  0.0120  0.1888 -0.8117
  723MOL0     C97490   9.353   7.545   0.244  0.1146  0.0908  0.1288
  723MOL0     C97491   9.242   7.444   0.241 -0.1561  0.4317  0.1432
  723MOL0     C97492   9.243   7.366   0.114 -0.0943 -0.3579  0.5941
  723MOL0     C97493   9.137   7.261   0.110  0.8999  0.6732 -0.8930
  723MOL0     O97494   9.156   7.166   0.212 -0.0683  0.2448 -0.0552
  723MOL0     C97495   9.062   7.060   0.206 -0.5736  0.3829  1.7494
  723MOL0     C97496   8.946   7.071   0.273 -0.9436 -0.1356  0.2817
  723MOL0     C97497   8.872   6.962   0.310  0.4200  0.1830  0.7538
  723MOL0     C97498   8.770   6.989   0.417 -0.2535 -0.8599 -0.5737
  723MOL0     C97499   8.918   6.829   0.273 -0.3582  0.4671 -0.5591
  723MOL0     C97500   8.859   6.706   0.327  0.4762 -0.5963 -0.0493
  723MOL0     O97501   8.924   6.584   0.324  0.2520 -0.4231 -0.0025
  723MOL0     C97502   8.852   6.470   0.352 -1.5120  0.4585  1.0299
  723MOL0     C97503   8.760   6.458   0.455 -0.0288  0.1498  0.0330
  723MOL0     C97504   8.682   6.337   0.471 -0.5463 -0.5942  0.2316
  723MOL0     C97505   8.716   6.220   0.406  0.0583 -0.5596 -1.2709
  723MOL0     O97506   8.643   6.107   0.413 -0.6431 -0.5753  0.1491
  723MOL0     C97507   8.714   5.983   0.406  0.8967  0.7918  0.7394
  723MOL0     C97508   8.639   5.871   0.474 -0.4059 -0.1019  0.2055
  723MOL0     C97509   8.656   5.876   0.627 -0.5724  0.7168 -0.2223
  723MOL0     C97510   8.587   5.745   0.676  0.6309 -0.9337 -0.6545
  723MOL0     C97511   8.558   5.759   0.824  0.9224  0.4391 -0.1686
  723MOL0     C97512   8.512   5.623   0.876  0.0138  0.5312  0.3299
  723MOL0     C97513   8.496   5.620   1.033 -0.2566 -0.7575 -0.0050
  723MOL0     C97514   8.422   5.511   1.108  0.0560  0.0498  0.3246
  723MOL0    Cl97515   8.257   5.484   1.035 -0.0862 -0.6113 -0.1979
  723MOL0     C97516   8.822   6.236   0.318 -0.3057 -0.1668  0.4477
  723MOL0     C97517   8.883   6.355   0.293 -0.0094  0.7672 -0.2929
  723MOL0     O97518   8.742   6.721   0.363  0.7638  0.4878 -0.4835
  723MOL0     C97519   9.026   6.820   0.183 -0.1539  0.0261  0.0647
  723MOL0     C97520   9.100   6.925   0.153  0.1638 -0.1755  0.0256
  723MOL0     N97521   9.231   7.736   0.354  0.0109 -0.1158 -0.9417
  723MOL0     N97522   9.216   7.801   0.461  0.1553  0.8084  0.8103
  723MOL0     C97523   8.840   8.025   1.635  0.0941 -0.0640  1.3014
  723MOL0     C97524   8.840   8.079   1.760  0.6179  0.1574  0.7063
  723MOL0     C97525   8.889   8.353   2.109 -1.0110  0.3371  0.1810
  723MOL0     C97526   8.808   8.471   2.087 -0.1939 -0.3648 -0.3360
  723MOL0     C97527   8.821   8.583   2.168 -0.8051 -0.3854 -0.6216
  723MOL0     C97528   8.892   8.574   2.292 -0.5482 -0.6990  1.1559
  723MOL0     O97529   8.890   8.683   2.382 -0.1104 -0.6310 -0.2148
  723MOL0     C97530   8.916   8.653   2.516 -0.0563  1.4973 -0.3799
  723MOL0     C97531   8.887   8.772   2.606 -0.1250  1.3796 -0.9812
  723MOL0     C97532   8.973   8.891   2.573 -0.3172 -0.9773  0.4913
  723MOL0     C97533   8.922   9.016   2.485  0.7577 -0.6126  0.4738
  723MOL0     C97534   9.022   9.113   2.447  0.4559  0.0165 -0.2971
  723MOL0     C97535   9.092   9.210   2.412  0.0298 -0.6606  0.0529
  723MOL0     C97536   8.967   8.460   2.320  0.4676  0.0219  0.2036
  723MOL0     C97537   8.963   8.349   2.229 -0.2427  0.1159 -0.0261
  723MOL0     H97538   8.864   8.402   1.716 -0.3191 -0.5703  2.8252
  723MOL0     H97539   8.875   8.332   1.480  2.8876 -2.0054 -1.9914
  723MOL0     H97540   8.864   8.223   1.265 -0.7951 -1.2866 -0.2627
  723MOL0     H97541   9.036   8.166   1.319  0.8703 -1.9602  1.3442
  723MOL0     H97542   8.983   7.953   1.209  0.8010 -1.2465 -4.1568
  723MOL0     H97543   8.818   8.016   1.175  0.1123 -1.5432  0.4096
  723MOL0     H97544   8.906   8.196   1.027  0.7188  1.9322 -1.4598
  723MOL0     H97545   9.075   8.138   1.072  0.7942 -2.1046 -2.5996
  723MOL0     H97546   8.871   7.970   0.934 -1.1153  0.9711 -1.4443
  723MOL0     H97547   8.981   8.079   0.850 -2.0442  1.0874  1.2890
  723MOL0     H97548   9.175   7.955   0.984  0.8762 -1.2242  1.1139
  723MOL0     H97549   9.054   7.832   1.014  2.7850  0.6438  1.8079
  723MOL0     H97550   9.015   7.808   0.760 -0.2458 -0.0367 -2.6667
  723MOL0     H97551   9.128   7.939   0.720 -0.3968  0.9516  1.8296
  723MOL0     H97552   9.248   7.754   0.887 -4.0133 -0.5605  0.2352
  723MOL0     H97553   9.176   7.670   0.756  0.2122 -0.6177 -0.8667
  723MOL0     H97554   9.430   7.758   0.717  0.8017  0.7107 -1.9245
  723MOL0     H97555   9.344   7.906   0.697 -1.5720 -0.6366  3.4898
  723MOL0     H97556   9.450   7.566   0.512  0.0372 -1.1824 -1.5685
  723MOL0     H97557   9.355   7.601   0.151  1.9635  1.3172  0.8408
  723MOL0     H97558   9.446   7.493   0.269 -0.2412 -0.6603 -0.0730
  723MOL0     H97559   9.144   7.492   0.242 -1.4105 -1.9642  0.3999
  723MOL0     H97560   9.244   7.376   0.327 -1.0167 -1.5972 -1.3567
  723MOL0     H97561   9.337   7.313   0.096  0.7100 -0.9710  5.2658
  723MOL0     H97562   9.244   7.431   0.025  2.6290 -1.4313 -0.2617
  723MOL0     H97563   9.153   7.195   0.024 -0.6843 -1.9925  0.6840
  723MOL0     H97564   9.040   7.307   0.129  1.4325  1.6789 -0.5783
  723MOL0     H97565   8.914   7.160   0.326  1.6303 -2.2755  6.2825
  723MOL0     H97566   8.779   7.094   0.448  0.0887 -1.1313  0.3028
  723MOL0     H97567   8.674   6.962   0.374  0.8317 -0.9878 -3.0845
  723MOL0     H97568   8.789   6.939   0.513  2.7100  3.2464  1.3240
  723MOL0     H97569   8.736   6.542   0.519 -3.9524  0.7573 -1.8924
  723MOL0     H97570   8.592   6.317   0.528 -1.0755 -1.5352 -0.8908
  723MOL0     H97571   8.744   5.952   0.305  1.4783 -0.3745  1.2561
  723MOL0     H97572   8.809   5.987   0.460  1.1687  2.0467  0.2303
  723MOL0     H97573   8.533   5.875   0.446 -0.7869  0.9169  1.6624
  723MOL0     H97574   8.696   5.783   0.444 -1.4301  0.1514 -2.8461
  723MOL0     H97575   8.625   5.968   0.678 -0.2396  0.5611  0.2711
  723MOL0     H97576   8.763   5.875   0.654 -0.5604  1.4064 -0.2212
  723MOL0     H97577   8.494   5.726   0.622 -0.2173 -0.4069  0.5804
  723MOL0     H97578   8.656   5.666   0.648  1.9538  0.1207 -0.4822
  723MOL0     H97579   8.485   5.841   0.833  0.3813 -0.2834  3.0069
  723MOL0     H97580   8.652   5.780   0.875  0.2264  2.9032  0.2475
  723MOL0     H97581   8.412   5.602   0.837 -0.3579  3.4365 -0.4965
  723MOL0     H97582   8.579   5.542   0.847 -4.1935 -2.8308 -1.0142
  723MOL0     H97583   8.448   5.716   1.049 -1.1321 -0.9515 -1.2913
  723MOL0     H97584   8.596   5.624   1.076 -0.3130  2.1288  0.0319
  723MOL0     H97585   8.409   5.531   1.215 -0.3847  0.5089  0.1849
  723MOL0     H97586   8.469   5.412   1.100  0.0485  0.0991 -0.3809
  723MOL0     H97587   8.861   6.150   0.263 -0.1999  0.0049  0.2547
  723MOL0     H97588   8.969   6.356   0.227 -1.2317  0.8441 -1.9264
  723MOL0     H97589   9.041   6.723   0.137  0.8482  1.0028 -1.7863
  723MOL0     H97590   9.195   6.911   0.102  0.2425  1.5815 -0.3901
  723MOL0     H97591   8.832   7.920   1.609 -0.8426 -0.4660  3.0496
  723MOL0     H97592   8.849   8.005   1.839 -0.2003 -0.4979  0.1975
  723MOL0     H97593   8.735   8.483   2.008 -2.9558  0.9604  2.2353
  723MOL0     H97594   8.770   8.675   2.141  0.2277  0.5987  0.6145
  723MOL0     H97595   8.854   8.568   2.545 -1.7865  2.3991 -1.3316
  723MOL0     H97596   9.023   8.628   2.519 -0.7020 -1.4504  0.4582
  723MOL0     H97597   8.893   8.748   2.713 -0.5910  3.1706 -0.5200
  723MOL0     H97598   8.781   8.795   2.593 -1.8876 -3.8903  1.1661
  723MOL0     H97599   9.056   8.853   2.512 -0.1350 -2.3817  1.5618
  723MOL0     H97600   9.012   8.933   2.666 -1.6023 -3.3092  2.1793
  723MOL0     H97601   8.843   9.075   2.531 -0.9984 -1.2674 -1.5093
  723MOL0     H97602   8.872   8.979   2.395 -0.1902  1.1440  0.2317
  723MOL0     H97603   9.157   9.282   2.365  1.2298 -3.2450 -2.5712
  723MOL0     H97604   9.017   8.460   2.416 -1.0752 -1.0719  1.0330
  723MOL0     H97605   9.025   8.263   2.255  0.1308 -0.0469 -1.3715
  724MOL0     O97606   8.017   8.332   7.374 -0.7690 -0.0915  0.4406
  724MOL0     C97607   8.088   8.349   7.278 -0.0934 -0.5519 -0.9009
  724MOL0     O97608   8.070   8.275   7.164  0.1190 -0.1143  1.0229
  724MOL0     C97609   7.951   8.208   7.157  0.6094 -0.1252  0.5232
  724MOL0     C97610   7.947   8.082   7.214  0.4501  0.1683 -0.1708
  724MOL0     C97611   7.829   8.010   7.233  0.1164  0.1292 -0.9080
  724MOL0     C97612   7.706   8.063   7.191  0.0386  0.1539  0.9171
  724MOL0     O97613   7.585   7.994   7.201  0.2674  0.4574  0.1831
  724MOL0     C97614   7.570   7.912   7.319 -0.6234  1.0868 -0.8068
  724MOL0     C97615   7.548   7.769   7.270  0.1829 -0.1728  1.0334
  724MOL0     C97616   7.492   7.690   7.391 -0.3176 -0.1668 -0.3359
  724MOL0     C97617   7.480   7.552   7.336 -1.0079  0.4873 -0.3586
  724MOL0     C97618   7.456   7.459   7.457 -1.2369 -0.5098  0.8658
  724MOL0     C97619   7.318   7.492   7.529  0.0771  0.6162  0.1938
  724MOL0     C97620   7.274   7.371   7.607  0.7924  0.8214  0.1524
  724MOL0     C97621   7.238   7.258   7.513 -0.2912  0.1196 -0.8718
  724MOL0     N97622   7.191   7.135   7.584 -0.7407 -0.3872 -0.4210
  724MOL0     C97623   7.080   7.120   7.659 -0.0027  0.4008  0.4813
  724MOL0     C97624   7.082   6.987   7.691  0.0164  0.1159  0.2267
  724MOL0     C97625   6.981   6.915   7.778 -0.5374 -0.6947 -0.2267
  724MOL0     C97626   7.013   6.772   7.828 -0.0831 -0.6802  0.9899
  724MOL0     C97627   6.996   6.668   7.718 -0.0492 -0.3145 -0.2578
  724MOL0     C97628   6.998   6.523   7.765  0.2150  0.3741  0.0967
  724MOL0     O97629   6.872   6.489   7.836 -0.5592  1.2463 -0.1838
  724MOL0     C97630   6.879   6.369   7.909  0.0757 -0.5591  0.0292
  724MOL0     C97631   6.977   6.262   7.889 -0.3026 -0.7657 -0.0792
  724MOL0     C97632   6.970   6.148   7.968  0.2174 -0.2025  0.5157
  724MOL0     C97633   7.058   6.033   7.936 -0.5141 -1.1794  0.2810
  724MOL0     C97634   6.856   6.125   8.058 -0.3607 -0.4348  0.7285
  724MOL0     C97635   6.809   5.994   8.118  0.6239 -0.0406  1.0578
  724MOL0     O97636   6.712   6.004   8.214 -0.3186  0.0528  0.1647
  724MOL0     C97637   6.652   5.895   8.270 -0.1907 -0.2588  0.5463
  724MOL0     C97638   6.711   5.779   8.306  0.4639  0.3601  0.3034
  724MOL0     C97639   6.634   5.675   8.360 -0.0586 -1.0498  1.0619
  724MOL0     C97640   6.497   5.684   8.383 -0.2311 -0.0256  0.0898
  724MOL0     O97641   6.418   5.588   8.449  0.1265 -0.1792 -0.1584
  724MOL0     C97642   6.462   5.453   8.405  1.2136 -0.2312  0.0917
  724MOL0     C97643   6.360   5.351   8.456 -0.1977 -0.6780  0.2611
  724MOL0     C97644   6.237   5.346   8.375  0.1169  0.3027  0.3591
  724MOL0     C97645   6.130   5.247   8.428 -0.0828  0.2529  0.1305
  724MOL0     C97646   6.156   5.095   8.385  0.0340 -0.9998 -0.2783
  724MOL0     C97647   6.039   5.006   8.426  0.4574 -0.8103 -0.0902
  724MOL0     C97648   6.025   4.985   8.579 -0.2586  0.3730  1.4665
  724MOL0     C97649   5.896   4.908   8.613  0.0488 -0.7696 -0.0399
  724MOL0    Cl97650   5.920   4.740   8.568 -0.2349 -0.1549  0.1290
  724MOL0     C97651   6.441   5.805   8.352  1.1956 -0.3468 -0.3371
  724MOL0     C97652   6.519   5.912   8.303  0.6118 -0.3806 -0.8117
  724MOL0     O97653   6.860   5.888   8.074  0.7996  1.3160  0.0991
  724MOL0     C97654   6.762   6.230   8.067  0.0627 -1.0563  0.7758
  724MOL0     C97655   6.777   6.352   8.007 -0.2143 -0.6138  0.6206
  724MOL0     N97656   7.196   6.937   7.626  0.2690  0.5597  0.4731
  724MOL0     N97657   7.267   7.021   7.571  0.2855 -0.1282  0.1313
  724MOL0     C97658   7.703   8.199   7.144  0.1686 -1.0479  0.4367
  724MOL0     C97659   7.824   8.264   7.127 -0.9072  0.1512 -0.4318
  724MOL0     C97660   8.203   8.436   7.296 -0.1881 -0.5374 -0.0722
  724MOL0     C97661   8.236   8.502   7.419  0.1953  0.0834  0.2878
  724MOL0     C97662   8.335   8.596   7.435  0.5935  0.3364  0.2221
  724MOL0     C97663   8.420   8.607   7.330 -0.3667  0.4117  0.4682
  724MOL0     O97664   8.506   8.711   7.354 -0.4407 -0.7998 -0.2782
  724MOL0     C97665   8.629   8.708   7.279  0.6501  0.5812  0.6233
  724MOL0     C97666   8.647   8.837   7.207 -0.2541 -0.8121 -0.6767
  724MOL0     C97667   8.783   8.845   7.131  0.5850  0.2378  0.3445
  724MOL0     C97668   8.760   8.791   6.986 -0.8108  0.1482 -0.1076
  724MOL0     C97669   8.893   8.746   6.935  0.4728 -0.2758  0.0714
  724MOL0     C97670   8.994   8.699   6.890 -0.5980  0.1563  0.5005
  724MOL0     C97671   8.397   8.537   7.213  0.4650  0.7138  0.0934
  724MOL0     C97672   8.290   8.458   7.191 -0.9972  0.4668  0.0239
  724MOL0     H97673   8.039   8.039   7.252  0.0686 -0.7738 -0.2794
  724MOL0     H97674   7.828   7.909   7.272  1.1102  1.7454  4.0246
  724MOL0     H97675   7.649   7.925   7.393 -0.7369  1.9281 -0.8227
  724MOL0     H97676   7.477   7.935   7.372 -0.5499 -0.8838  0.2470
  724MOL0     H97677   7.472   7.760   7.192 -0.8659 -0.0853  2.0121
  724MOL0     H97678   7.639   7.715   7.241  1.1551  0.8254  2.1280
  724MOL0     H97679   7.553   7.705   7.481 -0.8448  3.8829 -0.4777
  724MOL0     H97680   7.390   7.725   7.407  0.5157  2.5113 -0.4192
  724MOL0     H97681   7.401   7.531   7.263  1.1351  0.3313 -2.7567
  724MOL0     H97682   7.571   7.507   7.296 -1.2254 -0.3215  0.0296
  724MOL0     H97683   7.467   7.358   7.415  2.2195 -0.7086  2.0136
  724MOL0     H97684   7.546   7.476   7.516  1.3398 -0.2647 -2.7761
  724MOL0     H97685   7.332   7.569   7.606  2.8834 -0.2492  0.6813
  724MOL0     H97686   7.250   7.536   7.456  0.9507  0.5544 -0.6874
  724MOL0     H97687   7.360   7.340   7.668  2.5286 -1.5830 -3.1377
  724MOL0     H97688   7.193   7.396   7.675 -0.3847  0.6253 -1.1436
  724MOL0     H97689   7.326   7.230   7.456 -0.3721 -1.5851 -0.2307
  724MOL0     H97690   7.159   7.288   7.444  0.8307  1.2237 -1.7034
  724MOL0     H97691   7.019   7.201   7.699 -0.5499 -1.0260  2.6918
  724MOL0     H97692   6.963   6.979   7.864 -1.0018 -0.8293 -0.2189
  724MOL0     H97693   6.882   6.912   7.732  0.2555  0.0922 -2.1040
  724MOL0     H97694   6.953   6.747   7.917  0.6049 -2.4581  1.0013
  724MOL0     H97695   7.117   6.770   7.862  1.5175  1.7104 -3.0261
  724MOL0     H97696   7.087   6.685   7.660  1.0868  3.1782  2.2278
  724MOL0     H97697   6.910   6.692   7.655 -1.7726 -2.9967  0.9017
  724MOL0     H97698   7.083   6.515   7.834 -0.2395  1.0795  0.7501
  724MOL0     H97699   7.020   6.459   7.679  1.5252  0.4187  0.3695
  724MOL0     H97700   7.061   6.264   7.820  0.4124  0.3882  0.7901
  724MOL0     H97701   7.004   5.956   7.878  0.3408 -0.0128 -2.2082
  724MOL0     H97702   7.132   6.059   7.859 -0.9667 -0.4708  0.0755
  724MOL0     H97703   7.096   5.971   8.018  2.4759 -3.0302 -2.2718
  724MOL0     H97704   6.817   5.765   8.287  0.6871  1.9178  0.2270
  724MOL0     H97705   6.680   5.586   8.399  0.3061 -0.5977  1.6825
  724MOL0     H97706   6.489   5.445   8.299  0.0549 -1.2495 -0.1470
  724MOL0     H97707   6.562   5.419   8.436  1.5960  0.2935 -0.5445
  724MOL0     H97708   6.404   5.251   8.458  2.0247  0.2396  0.1969
  724MOL0     H97709   6.336   5.378   8.559 -3.7019  0.4501 -0.7018
  724MOL0     H97710   6.252   5.326   8.268  1.2629 -2.0800  0.9107
  724MOL0     H97711   6.186   5.442   8.381 -1.6506 -0.5824  0.2751
  724MOL0     H97712   6.124   5.245   8.537 -1.5481 -1.5499  0.0650
  724MOL0     H97713   6.031   5.272   8.388 -0.0987 -0.9146 -0.6307
  724MOL0     H97714   6.246   5.059   8.436  1.6229  1.7579 -0.9207
  724MOL0     H97715   6.153   5.090   8.276  1.8987  0.1790 -0.4243
  724MOL0     H97716   5.953   5.054   8.379 -0.0980 -1.1363  0.5739
  724MOL0     H97717   6.063   4.903   8.397  1.8488 -1.1633  2.0905
  724MOL0     H97718   6.030   5.070   8.648 -0.5142  2.8477 -1.3929
  724MOL0     H97719   6.119   4.933   8.597 -0.0215  0.6309  0.9720
  724MOL0     H97720   5.812   4.943   8.554  1.2479 -0.1394 -1.4402
  724MOL0     H97721   5.885   4.913   8.722  0.6232  1.6520 -0.0340
  724MOL0     H97722   6.336   5.822   8.374  2.2295  4.3236  2.5302
  724MOL0     H97723   6.461   5.994   8.262 -1.0355 -1.0101  0.1540
  724MOL0     H97724   6.667   6.224   8.119 -0.9703  1.9332 -0.5296
  724MOL0     H97725   6.702   6.428   8.021 -0.4091  0.4151 -4.2732
  724MOL0     H97726   7.606   8.239   7.116 -0.3123 -1.8051  0.9839
  724MOL0     H97727   7.828   8.368   7.099  0.5435  0.2528  0.0846
  724MOL0     H97728   8.167   8.505   7.503 -0.2422  1.2899 -0.0941
  724MOL0     H97729   8.344   8.659   7.523  1.2906  1.0494 -0.3477
  724MOL0     H97730   8.716   8.682   7.339  1.4055 -0.1591 -0.7473
  724MOL0     H97731   8.636   8.628   7.205  3.6956  0.1544  1.2584
  724MOL0     H97732   8.640   8.921   7.277 -0.8442  0.9817 -2.7676
  724MOL0     H97733   8.564   8.846   7.136 -0.0732 -0.8895 -0.8993
  724MOL0     H97734   8.861   8.780   7.171  0.4447  0.4073  0.9094
  724MOL0     H97735   8.830   8.943   7.116 -1.9221  1.0568 -3.7459
  724MOL0     H97736   8.719   8.874   6.928  0.5522 -0.8168 -2.5978
  724MOL0     H97737   8.680   8.717   6.987 -0.2409 -0.5476 -2.0986
  724MOL0     H97738   9.072   8.650   6.834  1.1649 -0.1880  3.0494
  724MOL0     H97739   8.467   8.558   7.132  1.6230 -3.1514 -0.1461
  724MOL0     H97740   8.281   8.413   7.092  0.2103  1.3034 -0.4886
  725MOL0     O97741   1.051   2.638   6.496  0.0477  0.5810  0.4153
  725MOL0     C97742   1.110   2.642   6.387  0.4662 -0.5616 -0.1855
  725MOL0     O97743   1.122   2.549   6.288 -0.1238  0.3815 -0.2986
  725MOL0     C97744   1.101   2.415   6.311 -0.0701 -0.4048 -0.9896
  725MOL0     C97745   0.982   2.369   6.365 -0.0605 -0.0095 -0.4900
  725MOL0     C97746   0.969   2.233   6.395 -0.1488 -0.0183  0.9917
  725MOL0     C97747   1.074   2.138   6.369  0.3693 -0.5575 -0.5574
  725MOL0     O97748   1.060   2.000   6.399  0.4361  0.5036 -0.2680
  725MOL0     C97749   1.170   1.908   6.394  1.1095  0.4075  1.2175
  725MOL0     C97750   1.123   1.783   6.453 -0.1188  1.0491 -1.1981
  725MOL0     C97751   1.028   1.708   6.352 -0.2111  0.4044  0.3778
  725MOL0     C97752   1.092   1.588   6.292 -0.0864 -0.1576  0.3560
  725MOL0     C97753   1.146   1.494   6.394 -0.1371 -0.3031 -0.0556
  725MOL0     C97754   1.129   1.349   6.346  0.3402  0.5206 -0.1376
  725MOL0     C97755   1.193   1.264   6.452 -0.4464 -0.2329  0.5075
  725MOL0     C97756   1.171   1.110   6.439 -0.4839  0.9818 -0.0575
  725MOL0     N97757   1.248   1.024   6.532 -0.2077  0.9703 -0.0407
  725MOL0     C97758   1.190   0.970   6.641  0.4365 -0.3153 -0.3555
  725MOL0     C97759   1.269   0.866   6.672 -1.0589 -0.3842 -1.4343
  725MOL0     C97760   1.246   0.768   6.786 -0.2857  0.3016 -0.2739
  725MOL0     C97761   1.162   0.643   6.762  0.5518  0.6692  0.4220
  725MOL0     C97762   1.228   0.556   6.657  0.2310 -0.2124  0.0660
  725MOL0     C97763   1.153   0.434   6.635 -0.4655  0.0845  0.7623
  725MOL0     O97764   1.225   0.361   6.544  0.6865  0.0822 -0.0341
  725MOL0     C97765   1.291   0.251   6.588 -0.7562 -0.4816 -0.1347
  725MOL0     C97766   1.250   0.147   6.670 -0.1365 -0.1778  0.2568
  725MOL0     C97767   1.333   0.040   6.705  1.2945 -0.5744  0.4066
  725MOL0     C97768   1.278  -0.064   6.811  0.5357 -0.0938  0.0096
  725MOL0     C97769   1.465   0.025   6.656  0.3568 -0.4916 -0.4157
  725MOL0     C97770   1.551  -0.090   6.674 -0.1918 -0.4609 -0.0414
  725MOL0     O97771   1.684  -0.079   6.619 -0.7649  0.1760 -0.4174
  725MOL0     C97772   1.746  -0.196   6.574  0.1218 -0.1375  0.0604
  725MOL0     C97773   1.777  -0.303   6.659  0.7429 -0.1059 -1.5488
  725MOL0     C97774   1.864  -0.398   6.609  0.3142  0.7634 -0.4400
  725MOL0     C97775   1.908  -0.401   6.482 -0.3632 -0.4312  0.2540
  725MOL0     O97776   1.979  -0.493   6.415 -0.0826 -0.4700 -0.0276
  725MOL0     C97777   1.965  -0.625   6.448  0.1768 -0.2178  0.5037
  725MOL0     C97778   1.944  -0.690   6.317 -1.3814  0.7129  1.1896
  725MOL0     C97779   2.072  -0.706   6.232  0.7917  0.3995 -0.3757
  725MOL0     C97780   2.053  -0.743   6.096  0.0132 -0.4549  0.5543
  725MOL0     C97781   2.198  -0.744   6.029 -0.0225 -0.4909 -0.3228
  725MOL0     C97782   2.197  -0.846   5.912 -0.8953  0.6224 -0.2735
  725MOL0     C97783   2.130  -0.768   5.806  0.4112  0.3878  0.0150
  725MOL0     C97784   2.059  -0.851   5.697 -0.0635 -0.3140 -0.6432
  725MOL0    Cl97785   2.196  -0.946   5.613 -0.0272  0.4708  0.0468
  725MOL0     C97786   1.869  -0.303   6.398 -0.5602  0.1203 -0.5579
  725MOL0     C97787   1.791  -0.195   6.438  0.5288 -0.6838 -0.0460
  725MOL0     O97788   1.506  -0.195   6.719  0.1180  0.8494 -0.8480
  725MOL0     C97789   1.511   0.130   6.577 -0.8941 -1.4886 -0.2844
  725MOL0     C97790   1.426   0.235   6.543  0.0401 -0.3797 -0.1868
  725MOL0     N97791   1.363   0.846   6.573 -0.6413 -0.4959 -0.2119
  725MOL0     N97792   1.347   0.948   6.493  0.3716  0.7147 -0.3950
  725MOL0     C97793   1.187   2.194   6.316  0.6692  0.0749 -0.1904
  725MOL0     C97794   1.200   2.331   6.293 -0.7373 -0.4699  0.8394
  725MOL0     C97795   1.177   2.778   6.368 -0.6804 -0.2890 -0.4351
  725MOL0     C97796   1.185   2.876   6.473 -0.0623  0.3281 -0.1193
  725MOL0     C97797   1.260   2.997   6.457 -0.2885  0.4045 -1.0225
  725MOL0     C97798   1.318   3.032   6.330 -0.8578  0.7181  0.5225
  725MOL0     O97799   1.393   3.148   6.324  0.6841  0.5371  1.1659
  725MOL0     C97800   1.470   3.173   6.200  0.0675 -0.6276  0.3500
  725MOL0     C97801   1.369   3.207   6.093 -0.2483 -0.0779  0.6863
  725MOL0     C97802   1.451   3.234   5.961  1.0430 -0.0852 -0.2541
  725MOL0     C97803   1.357   3.215   5.838  0.7558 -0.2431 -0.8121
  725MOL0     C97804   1.398   3.295   5.724 -0.0876 -0.6815 -0.7704
  725MOL0     C97805   1.432   3.353   5.626 -0.9799  1.4122 -0.3961
  725MOL0     C97806   1.304   2.933   6.231 -0.2966  0.6198 -0.2857
  725MOL0     C97807   1.226   2.819   6.241  0.0041 -0.1620 -0.1660
  725MOL0     H97808   0.900   2.438   6.383 -1.7769 -1.4576 -2.2060
  725MOL0     H97809   0.872   2.193   6.422 -1.9420  1.0580 -3.0245
  725MOL0     H97810   1.216   1.892   6.296  3.7845 -1.8752  2.6809
  725MOL0     H97811   1.250   1.939   6.463  0.3969 -1.7752  3.1580
  725MOL0     H97812   1.212   1.721   6.469 -0.6987 -0.0063 -1.8816
  725MOL0     H97813   1.066   1.810   6.543  0.1083 -3.3813  0.5333
  725MOL0     H97814   0.934   1.694   6.407 -1.3380 -0.0557 -1.5476
  725MOL0     H97815   1.009   1.777   6.269 -0.2186  1.2203  1.0528
  725MOL0     H97816   1.020   1.540   6.226 -0.9363  0.5195  0.7765
  725MOL0     H97817   1.172   1.626   6.228 -3.1379  0.4120 -3.4464
  725MOL0     H97818   1.252   1.508   6.418 -1.1478  1.5850  4.2591
  725MOL0     H97819   1.089   1.509   6.486 -1.2697  1.0878 -0.9347
  725MOL0     H97820   1.027   1.309   6.341  1.3046 -2.1892  0.3763
  725MOL0     H97821   1.186   1.340   6.252  1.1047  0.6920  0.3017
  725MOL0     H97822   1.298   1.294   6.443 -0.8421  1.5592  1.3597
  725MOL0     H97823   1.153   1.282   6.553  3.0892  1.1345  1.8270
  725MOL0     H97824   1.207   1.090   6.337  0.1904  1.7661  0.0159
  725MOL0     H97825   1.065   1.086   6.439 -0.1908 -1.6390 -5.2041
  725MOL0     H97826   1.094   0.988   6.689  1.3328  0.2525  1.2838
  725MOL0     H97827   1.341   0.736   6.831  0.0161  1.6468  0.0764
  725MOL0     H97828   1.188   0.828   6.857  1.1781 -1.0580  2.2348
  725MOL0     H97829   1.059   0.663   6.732  0.6674  0.8321  0.1319
  725MOL0     H97830   1.151   0.600   6.862 -0.7585  2.3863  1.0683
  725MOL0     H97831   1.325   0.525   6.697 -1.4538 -2.7221  2.6051
  725MOL0     H97832   1.239   0.614   6.565 -0.3162 -1.3232 -0.7212
  725MOL0     H97833   1.048   0.438   6.604  0.0256 -1.7283 -1.4151
  725MOL0     H97834   1.146   0.392   6.736  2.3366 -0.4086  0.8421
  725MOL0     H97835   1.149   0.154   6.709 -0.0161  3.5756  0.1879
  725MOL0     H97836   1.334  -0.064   6.905 -1.5011 -1.0627  1.2915
  725MOL0     H97837   1.179  -0.032   6.846  1.1050  0.0507  1.5698
  725MOL0     H97838   1.266  -0.166   6.773  1.1778 -0.6701  1.2726
  725MOL0     H97839   1.743  -0.309   6.761 -1.6843 -1.2376 -2.3532
  725MOL0     H97840   1.889  -0.477   6.679 -0.9388  0.4672 -0.3143
  725MOL0     H97841   2.061  -0.654   6.492  2.4261  3.5921 -1.3182
  725MOL0     H97842   1.883  -0.645   6.517  1.4227 -0.8603  1.8652
  725MOL0     H97843   1.917  -0.795   6.333 -1.2335  0.1886 -1.4182
  725MOL0     H97844   1.868  -0.642   6.254  0.0475  0.6280 -0.6864
  725MOL0     H97845   2.134  -0.791   6.262  0.5029  0.7602  1.3704
  725MOL0     H97846   2.130  -0.613   6.230 -0.6840  1.3851  0.7369
  725MOL0     H97847   1.997  -0.836   6.081 -2.2297  0.9219 -0.0629
  725MOL0     H97848   1.993  -0.665   6.049  0.5266 -0.5776 -0.3452
  725MOL0     H97849   2.264  -0.781   6.108  0.3844 -2.5079 -1.5423
  725MOL0     H97850   2.229  -0.645   5.995  2.8478 -1.6240 -1.2793
  725MOL0     H97851   2.298  -0.875   5.882 -0.6251  2.8060 -1.6748
  725MOL0     H97852   2.146  -0.938   5.944  0.1007  0.9020  2.4112
  725MOL0     H97853   2.207  -0.705   5.759 -0.9520  1.4552 -0.8743
  725MOL0     H97854   2.054  -0.702   5.848  2.0267  2.0624  0.4768
  725MOL0     H97855   2.023  -0.779   5.622 -2.5791 -1.3017 -0.4654
  725MOL0     H97856   1.972  -0.908   5.730  1.0370 -1.1141  0.9989
  725MOL0     H97857   1.907  -0.306   6.296 -1.1063 -1.2851 -0.7434
  725MOL0     H97858   1.776  -0.115   6.365 -0.0755  0.5194  1.3364
  725MOL0     H97859   1.606   0.127   6.525  0.1971 -0.7087  1.5749
  725MOL0     H97860   1.464   0.314   6.480 -2.1241  1.4003  0.5843
  725MOL0     H97861   1.270   2.128   6.294  2.5801  2.3737 -0.2338
  725MOL0     H97862   1.289   2.368   6.241 -1.5690 -0.6854 -0.8119
  725MOL0     H97863   1.131   2.849   6.563 -0.1305 -0.6019 -0.4269
  725MOL0     H97864   1.274   3.058   6.545  0.4869  0.2948 -1.0605
  725MOL0     H97865   1.541   3.254   6.214  0.6948 -0.9978 -0.5572
  725MOL0     H97866   1.535   3.088   6.176  0.2936 -0.5190  0.5847
  725MOL0     H97867   1.318   3.300   6.118  0.2005  0.4723 -0.3563
  725MOL0     H97868   1.286   3.136   6.081  0.4351 -0.5816 -1.5627
  725MOL0     H97869   1.542   3.172   5.958  1.7705  0.9337  0.1034
  725MOL0     H97870   1.482   3.338   5.949  0.1876  0.0423 -1.4662
  725MOL0     H97871   1.255   3.251   5.851  0.3229 -0.8372 -2.3508
  725MOL0     H97872   1.355   3.108   5.815  2.0392 -0.6616  0.7947
  725MOL0     H97873   1.457   3.397   5.531  1.0377  0.7916 -0.1887
  725MOL0     H97874   1.351   2.941   6.133 -0.7338 -1.6431 -0.7355
  725MOL0     H97875   1.217   2.750   6.157  1.3121 -0.0719 -0.3924
  726MOL0     O97876  10.906   5.838   7.078 -0.5569 -0.0527  0.1317
  726MOL0     C97877  10.862   5.728   7.104  0.0276  0.3224  0.2028
  726MOL0     O97878  10.796   5.687   7.216  0.5654 -0.6669 -0.1115
  726MOL0     C97879  10.729   5.783   7.287  0.9523 -0.2880 -0.4520
  726MOL0     C97880  10.594   5.808   7.271  0.0916  0.7265  0.1748
  726MOL0     C97881  10.529   5.892   7.368 -0.4918  0.4308 -0.4975
  726MOL0     C97882  10.600   5.976   7.451 -0.8453 -0.2551  0.1498
  726MOL0     O97883  10.522   6.053   7.524 -0.0133 -0.9999 -0.0704
  726MOL0     C97884  10.584   6.179   7.574  0.6678  0.6846 -0.3360
  726MOL0     C97885  10.472   6.263   7.648  0.3642  0.5303 -0.1337
  726MOL0     C97886  10.361   6.294   7.549  0.1058 -0.0292 -0.8319
  726MOL0     C97887  10.399   6.421   7.479 -0.0080 -0.1015  0.7126
  726MOL0     C97888  10.277   6.459   7.396 -0.6035  0.4702 -0.5118
  726MOL0     C97889  10.327   6.580   7.314 -0.6824 -0.1516 -0.0730
  726MOL0     C97890  10.195   6.647   7.266  0.3237 -0.2253  0.5371
  726MOL0     C97891  10.227   6.752   7.163  0.2185 -0.4311 -0.0522
  726MOL0     N97892  10.252   6.875   7.234 -1.1796  0.3083 -0.6258
  726MOL0     C97893  10.375   6.940   7.245 -0.7182 -0.4753 -0.2783
  726MOL0     C97894  10.348   7.049   7.317 -0.4098 -0.2070  1.2290
  726MOL0     C97895  10.457   7.143   7.359 -0.3272  0.4387  0.3956
  726MOL0     C97896  10.415   7.291   7.388  0.1859 -0.0967 -1.2084
  726MOL0     C97897  10.517   7.381   7.450 -0.6719 -0.6339 -0.5910
  726MOL0     C97898  10.477   7.528   7.451 -0.7584 -0.1961 -0.2969
  726MOL0     O97899  10.521   7.592   7.333 -0.4386  1.0528 -0.1465
  726MOL0     C97900  10.492   7.719   7.297 -0.9536 -0.2021 -0.2905
  726MOL0     C97901  10.411   7.800   7.367  0.0881 -0.0196  0.5481
  726MOL0     C97902  10.386   7.926   7.306  1.1741 -0.3897 -0.3251
  726MOL0     C97903  10.264   8.000   7.369 -0.7943  0.1226  0.3973
  726MOL0     C97904  10.467   7.978   7.197 -0.4134  0.1960  0.9208
  726MOL0     C97905  10.454   8.114   7.149  0.0394 -0.8272 -0.5409
  726MOL0     O97906  10.524   8.147   7.033 -0.0189  0.5027  0.0966
  726MOL0     C97907  10.576   8.270   7.018 -0.9644  0.6674  1.1410
  726MOL0     C97908  10.601   8.367   7.120 -0.2646  0.5404 -1.0631
  726MOL0     C97909  10.659   8.490   7.089  0.0998  0.0384  0.0375
  726MOL0     C97910  10.691   8.522   6.958 -0.1105 -0.1342  1.3280
  726MOL0     O97911  10.753   8.647   6.937 -0.6269  0.2425  0.0713
  726MOL0     C97912  10.762   8.701   6.804  0.5490  0.1138 -0.5476
  726MOL0     C97913  10.625   8.732   6.746 -0.1042 -0.3225  0.4245
  726MOL0     C97914  10.537   8.832   6.816  0.2695 -0.1548  0.9504
  726MOL0     C97915  10.580   8.977   6.818 -0.4127 -0.6344  0.2574
  726MOL0     C97916  10.476   9.084   6.860 -0.3017  0.6264 -0.0640
  726MOL0     C97917  10.540   9.220   6.871 -0.4711 -0.3634  0.5163
  726MOL0     C97918  10.429   9.328   6.878 -0.3642  0.2499  0.6922
  726MOL0     C97919  10.436   9.420   6.756  0.3884  0.3610  0.1967
  726MOL0    Cl97920  10.372   9.360   6.592 -0.4061  0.1307  0.3687
  726MOL0     C97921  10.665   8.424   6.853 -0.0695 -0.7159 -0.0129
  726MOL0     C97922  10.609   8.303   6.883  0.6272  0.3402  0.5696
  726MOL0     O97923  10.389   8.202   7.210 -0.4697 -0.2626 -0.0986
  726MOL0     C97924  10.556   7.891   7.139  0.4702  0.0729  0.1865
  726MOL0     C97925  10.558   7.759   7.183 -0.5808 -0.3478  0.2544
  726MOL0     N97926  10.218   7.065   7.341  1.4843  0.2216 -0.1133
  726MOL0     N97927  10.164   6.955   7.291  0.7929 -0.4147  0.2573
  726MOL0     C97928  10.740   5.947   7.472  0.0481  1.4223 -0.0825
  726MOL0     C97929  10.801   5.849   7.391  0.1126 -0.0807  0.5961
  726MOL0     C97930  10.902   5.621   7.016  0.3595 -0.1534  0.4197
  726MOL0     C97931  10.981   5.639   6.901 -0.4297  0.4119  0.9058
  726MOL0     C97932  11.008   5.537   6.805  0.0157  0.4860 -0.6044
  726MOL0     C97933  10.982   5.399   6.838 -1.3032 -0.3365  0.3673
  726MOL0     O97934  11.056   5.306   6.773  0.1049 -0.8655 -0.4115
  726MOL0     C97935  11.054   5.172   6.822  0.7766  0.1596  0.0624
  726MOL0     C97936  11.141   5.094   6.724  0.0479  0.0101  0.7048
  726MOL0     C97937  11.094   5.104   6.574  0.5707  0.0957 -0.6404
  726MOL0     C97938  11.159   5.210   6.490  0.3056 -0.4978 -0.3012
  726MOL0     C97939  11.290   5.168   6.437 -0.0421  0.3162 -1.0578
  726MOL0     C97940  11.400   5.146   6.396 -0.2708 -0.0298 -0.8467
  726MOL0     C97941  10.901   5.377   6.954 -1.0927 -0.4975 -0.4816
  726MOL0     C97942  10.866   5.489   7.037  0.7119 -0.4214 -0.0027
  726MOL0     H97943  10.541   5.741   7.204  2.1246 -0.6482 -0.1641
  726MOL0     H97944  10.421   5.908   7.363 -0.9761 -1.8907  1.0599
  726MOL0     H97945  10.662   6.166   7.649  0.1991  0.0339  0.0480
  726MOL0     H97946  10.629   6.228   7.486  2.7419 -0.1730  0.1795
  726MOL0     H97947  10.438   6.207   7.737 -3.1368 -1.1349 -2.2799
  726MOL0     H97948  10.513   6.355   7.691  3.9530 -0.4443 -1.1407
  726MOL0     H97949  10.338   6.222   7.470 -2.9542  0.0043 -0.0950
  726MOL0     H97950  10.270   6.301   7.608 -0.5647  1.4101 -1.9624
  726MOL0     H97951  10.427   6.504   7.545  1.8975  1.0444 -1.3951
  726MOL0     H97952  10.488   6.409   7.416 -1.0271 -0.4423 -0.7279
  726MOL0     H97953  10.251   6.375   7.330  2.1482 -1.6440  0.8651
  726MOL0     H97954  10.191   6.483   7.458 -1.5025  2.1516 -2.2902
  726MOL0     H97955  10.383   6.647   7.380  4.0298 -0.6893 -3.1115
  726MOL0     H97956  10.401   6.543   7.243 -1.5642 -3.0177  0.3890
  726MOL0     H97957  10.127   6.583   7.209  1.0459 -0.6847  0.1917
  726MOL0     H97958  10.135   6.690   7.348 -1.3460  0.4639 -0.9622
  726MOL0     H97959  10.153   6.744   7.083  2.0695 -1.3123 -1.7394
  726MOL0     H97960  10.318   6.720   7.111  3.6549  0.8647  4.4367
  726MOL0     H97961  10.472   6.911   7.204  0.1201  1.2843  0.3836
  726MOL0     H97962  10.521   7.102   7.437 -3.8697 -3.5993  1.5614
  726MOL0     H97963  10.531   7.149   7.278  1.9565  0.6891  2.4035
  726MOL0     H97964  10.327   7.297   7.453  0.1135  1.3012 -1.4153
  726MOL0     H97965  10.392   7.335   7.291  1.1042  2.8378 -0.1895
  726MOL0     H97966  10.611   7.379   7.394 -0.3848  0.6777 -0.2017
  726MOL0     H97967  10.528   7.343   7.551  0.4011  0.2961 -0.3371
  726MOL0     H97968  10.510   7.578   7.542 -0.1840 -3.0528  1.1655
  726MOL0     H97969  10.369   7.540   7.450 -0.4973  3.3438 -1.5597
  726MOL0     H97970  10.355   7.766   7.453  0.4443 -0.7532  0.4907
  726MOL0     H97971  10.206   8.027   7.280  0.8023 -3.6020 -2.0321
  726MOL0     H97972  10.197   7.938   7.430 -0.3430 -3.1555 -2.1586
  726MOL0     H97973  10.305   8.076   7.436  0.2869 -1.3101  1.4193
  726MOL0     H97974  10.585   8.345   7.225  3.5015  1.1333 -0.2057
  726MOL0     H97975  10.680   8.562   7.167 -1.4578  0.6275 -0.0454
  726MOL0     H97976  10.823   8.792   6.796 -1.0123  1.3059  0.5191
  726MOL0     H97977  10.813   8.627   6.742  1.6309 -3.6972  4.2847
  726MOL0     H97978  10.641   8.776   6.648  0.3428  1.9448  1.4571
  726MOL0     H97979  10.564   8.642   6.735  0.4735 -1.0894  2.8070
  726MOL0     H97980  10.536   8.797   6.919  1.0925  1.2286  1.4606
  726MOL0     H97981  10.441   8.821   6.764 -0.2393  0.5646  1.7019
  726MOL0     H97982  10.661   8.991   6.889  1.3577  3.0510 -2.1585
  726MOL0     H97983  10.626   8.991   6.720 -4.7033  2.1996 -1.7070
  726MOL0     H97984  10.446   9.053   6.960  0.8143  1.4944  0.5708
  726MOL0     H97985  10.381   9.080   6.806 -0.6275 -1.0015  0.5952
  726MOL0     H97986  10.602   9.227   6.961  0.1333  0.5259  0.0573
  726MOL0     H97987  10.610   9.231   6.787 -0.0871  1.3499  1.0002
  726MOL0     H97988  10.438   9.398   6.961 -0.8896  2.0856 -0.7247
  726MOL0     H97989  10.332   9.279   6.884  0.5309 -1.6898  0.3920
  726MOL0     H97990  10.536   9.449   6.722 -0.2539  1.0147 -1.2207
  726MOL0     H97991  10.376   9.505   6.791  2.3318  2.2621 -0.8403
  726MOL0     H97992  10.694   8.441   6.750  1.6454 -0.3948  0.4886
  726MOL0     H97993  10.579   8.239   6.800  2.1800 -0.7212  0.7930
  726MOL0     H97994  10.614   7.925   7.054  2.8718 -2.4129  0.6800
  726MOL0     H97995  10.619   7.684   7.135  3.4752 -0.1568  4.3560
  726MOL0     H97996  10.801   5.989   7.551  3.1703 -1.5410 -0.6737
  726MOL0     H97997  10.908   5.836   7.391  0.4116  2.1091  0.9517
  726MOL0     H97998  11.025   5.736   6.883  0.9221 -0.2378  0.5941
  726MOL0     H97999  11.066   5.547   6.714 -0.4399 -3.4232 -1.5021
  726MOL0     H98000  11.108   5.173   6.917  0.3355  2.3196  0.3317
  726MOL0     H98001  10.956   5.131   6.845  0.4422  1.1201  0.3985
  726MOL0     H98002  11.147   4.988   6.748 -0.7842 -1.2108 -3.5855
  726MOL0     H98003  11.242   5.136   6.724  1.9509 -4.0956  0.6235
  726MOL0     H98004  10.985   5.115   6.577  0.6331  1.6746  3.6454
  726MOL0     H98005  11.111   5.009   6.523 -1.4430 -0.0654 -1.0913
  726MOL0     H98006  11.179   5.302   6.546  2.3749  0.3153 -2.2102
  726MOL0     H98007  11.097   5.235   6.404  1.6047 -0.9037 -1.4039
  726MOL0     H98008  11.500   5.130   6.359  0.3807 -0.5675  1.0669
  726MOL0     H98009  10.859   5.277   6.970  2.5701 -1.9669  1.2128
  726MOL0     H98010  10.800   5.466   7.120 -1.0332 -0.7894 -1.4106
  727MOL0     O98011   1.725   2.936   9.691 -0.1406 -0.1577 -0.5773
  727MOL0     C98012   1.615   2.896   9.638 -0.9726 -0.1960 -0.0597
  727MOL0     O98013   1.606   2.844   9.505  0.0714 -0.8409  0.0765
  727MOL0     C98014   1.704   2.861   9.409  0.2979 -0.1707 -0.5021
  727MOL0     C98015   1.774   2.980   9.391  0.2855  0.0576  0.0423
  727MOL0     C98016   1.865   3.009   9.289  0.8115 -0.1923  0.3218
  727MOL0     C98017   1.886   2.913   9.195 -0.3507  0.9701 -0.0253
  727MOL0     O98018   1.977   2.942   9.095 -0.2923  0.6156  0.5233
  727MOL0     C98019   1.947   2.901   8.957  0.3148  0.0637 -0.2368
  727MOL0     C98020   2.054   2.952   8.864 -0.3484  0.1682  0.6513
  727MOL0     C98021   2.192   2.887   8.886 -0.4239  0.0509 -0.4731
  727MOL0     C98022   2.194   2.736   8.860  0.5608  0.8405  0.6486
  727MOL0     C98023   2.179   2.700   8.706 -0.6681  0.2612 -0.3431
  727MOL0     C98024   2.193   2.550   8.672 -0.4533 -0.2501 -0.6119
  727MOL0     C98025   2.172   2.534   8.521 -0.2094 -0.6864 -0.6019
  727MOL0     C98026   2.172   2.392   8.474 -0.4956  0.1974 -0.3613
  727MOL0     N98027   2.293   2.301   8.518  0.5796  0.7556  0.2617
  727MOL0     C98028   2.347   2.251   8.634 -0.8225 -0.9084 -0.0808
  727MOL0     C98029   2.437   2.160   8.596 -0.1582 -0.6573  0.0851
  727MOL0     C98030   2.493   2.044   8.671 -0.1062  0.4208 -0.1203
  727MOL0     C98031   2.384   1.962   8.748 -0.6011  0.6693  0.2186
  727MOL0     C98032   2.285   1.880   8.660 -0.2052  0.7479  0.9588
  727MOL0     C98033   2.361   1.788   8.562 -0.3413  0.6343  0.2817
  727MOL0     O98034   2.279   1.670   8.542 -0.3597  0.1779  0.6614
  727MOL0     C98035   2.313   1.589   8.441 -0.1360 -0.0168 -0.3475
  727MOL0     C98036   2.336   1.461   8.469 -0.5956 -0.7502  0.2633
  727MOL0     C98037   2.366   1.364   8.365 -0.2257 -0.0755  1.0564
  727MOL0     C98038   2.363   1.214   8.403 -0.6734 -1.1133 -0.1758
  727MOL0     C98039   2.396   1.415   8.233  0.3254  0.0572 -0.3158
  727MOL0     C98040   2.425   1.332   8.120  0.2671 -0.6596  0.8399
  727MOL0     O98041   2.480   1.397   8.013 -0.1735  0.2500 -0.5955
  727MOL0     C98042   2.538   1.324   7.911  0.6741 -0.7607 -0.6873
  727MOL0     C98043   2.480   1.333   7.775 -0.5021  0.2842 -0.8163
  727MOL0     C98044   2.559   1.269   7.679  0.3722  0.2714  0.0875
  727MOL0     C98045   2.683   1.204   7.705  1.6674 -0.8749  0.7387
  727MOL0     O98046   2.759   1.151   7.599  0.4094 -0.7989 -0.4371
  727MOL0     C98047   2.772   1.010   7.588  0.4766  1.1465 -0.3804
  727MOL0     C98048   2.729   0.974   7.447  0.1704  0.0610 -0.2266
  727MOL0     C98049   2.760   0.828   7.413 -0.6380 -0.5334 -0.2636
  727MOL0     C98050   2.688   0.722   7.490  0.6721  0.0575 -0.4216
  727MOL0     C98051   2.678   0.575   7.435  0.7575  0.0967  0.1973
  727MOL0     C98052   2.610   0.569   7.295  0.8183 -0.5268 -0.3134
  727MOL0     C98053   2.469   0.622   7.295 -0.1359 -0.1867  0.5445
  727MOL0     C98054   2.366   0.527   7.354 -0.5894 -0.4468  0.5448
  727MOL0    Cl98055   2.362   0.371   7.280  0.1042  0.2772  0.2026
  727MOL0     C98056   2.736   1.192   7.838  0.5528  0.4137  0.6042
  727MOL0     C98057   2.662   1.256   7.934 -0.7191  0.0964 -0.6056
  727MOL0     O98058   2.404   1.210   8.122 -0.8969  0.0182  0.1295
  727MOL0     C98059   2.381   1.552   8.211  0.5033 -0.3055  0.6724
  727MOL0     C98060   2.341   1.646   8.318 -0.5473  0.7911  0.4865
  727MOL0     N98061   2.455   2.156   8.462  0.4287 -0.3991  0.9993
  727MOL0     N98062   2.373   2.249   8.418  0.3943 -0.0020 -0.1600
  727MOL0     C98063   1.816   2.793   9.203 -0.2141 -0.7560  0.6713
  727MOL0     C98064   1.726   2.768   9.308  0.6566  0.3920 -0.5157
  727MOL0     C98065   1.486   2.882   9.715 -0.7033 -0.1974 -0.8164
  727MOL0     C98066   1.472   2.965   9.835 -0.1712 -0.4154  1.1689
  727MOL0     C98067   1.355   2.952   9.905 -0.2025  0.5237 -0.9266
  727MOL0     C98068   1.248   2.867   9.873  1.0403  0.9030 -0.3558
  727MOL0     O98069   1.133   2.861   9.957 -0.5680 -0.5016 -0.3501
  727MOL0     C98070   1.003   2.851   9.895 -0.3071 -0.2304 -0.0231
  727MOL0     C98071   0.971   2.989   9.835 -0.4743  0.8200 -1.0928
  727MOL0     C98072   0.826   3.003   9.793 -0.7293 -0.3923 -0.1644
  727MOL0     C98073   0.795   3.125   9.711  0.9355 -0.2660  1.4144
  727MOL0     C98074   0.865   3.243   9.757 -0.2606  0.2373  0.2738
  727MOL0     C98075   0.943   3.326   9.805  0.5911 -0.2710 -0.0115
  727MOL0     C98076   1.276   2.785   9.770  0.6642  0.1331 -0.8112
  727MOL0     C98077   1.388   2.792   9.686  0.9197  0.7642 -0.8012
  727MOL0     H98078   1.737   3.056   9.458 -0.5204 -0.0285 -0.2995
  727MOL0     H98079   1.905   3.109   9.294 -2.0058  0.9995  1.1351
  727MOL0     H98080   1.925   2.795   8.942 -0.1529  0.2994 -1.2749
  727MOL0     H98081   1.853   2.949   8.931  1.6743  2.4409 -1.0638
  727MOL0     H98082   2.024   2.935   8.760 -1.2353  3.1072  0.3274
  727MOL0     H98083   2.048   3.061   8.877 -2.5917  0.3534 -1.1937
  727MOL0     H98084   2.267   2.919   8.813  1.5044 -0.3722  1.2552
  727MOL0     H98085   2.242   2.917   8.978 -2.3818  1.5331  0.1999
  727MOL0     H98086   2.291   2.705   8.900 -0.1333 -2.0176  0.3437
  727MOL0     H98087   2.116   2.680   8.914 -1.9606  0.8896 -2.6248
  727MOL0     H98088   2.075   2.719   8.679 -0.2440  2.2974 -0.7008
  727MOL0     H98089   2.249   2.758   8.645  1.1565  0.5861  1.9184
  727MOL0     H98090   2.291   2.524   8.711 -2.1676 -3.9478  1.7774
  727MOL0     H98091   2.115   2.486   8.715  1.0362 -2.5947 -1.1908
  727MOL0     H98092   2.070   2.575   8.513  0.0607  2.1811  5.2475
  727MOL0     H98093   2.245   2.592   8.464 -0.3729  1.1846  1.0011
  727MOL0     H98094   2.170   2.412   8.367  2.8922  2.2280 -0.1466
  727MOL0     H98095   2.089   2.331   8.511  1.6075 -3.7044 -1.4628
  727MOL0     H98096   2.315   2.250   8.738 -1.8904 -0.9713 -0.3997
  727MOL0     H98097   2.545   1.967   8.614 -0.5559 -1.5810  2.0058
  727MOL0     H98098   2.571   2.083   8.738  2.4253 -4.1332  0.0304
  727MOL0     H98099   2.336   2.023   8.825 -3.6485 -0.6650 -0.4788
  727MOL0     H98100   2.441   1.891   8.809 -0.6457 -1.2930 -1.8679
  727MOL0     H98101   2.231   1.953   8.599 -0.5373 -0.3125 -0.0514
  727MOL0     H98102   2.215   1.824   8.723 -2.5377  1.6763 -0.6482
  727MOL0     H98103   2.448   1.756   8.620  0.5600  2.5526  0.0859
  727MOL0     H98104   2.396   1.850   8.478  2.0371 -0.4638  0.3975
  727MOL0     H98105   2.310   1.426   8.568  0.9285 -3.9623 -0.3588
  727MOL0     H98106   2.297   1.165   8.332  0.4786  1.2851 -3.1114
  727MOL0     H98107   2.456   1.163   8.429  0.0763  0.5954  0.7224
  727MOL0     H98108   2.312   1.216   8.500  0.8693 -0.9030  0.6641
  727MOL0     H98109   2.387   1.381   7.747 -0.0161  0.7282 -1.6858
  727MOL0     H98110   2.522   1.263   7.577  0.9119 -1.6149 -0.0374
  727MOL0     H98111   2.876   0.988   7.615  0.4995 -0.8657 -1.8508
  727MOL0     H98112   2.707   0.957   7.658 -1.0204  2.1859 -0.9323
  727MOL0     H98113   2.621   0.991   7.454  0.4371  1.3668  2.2865
  727MOL0     H98114   2.769   1.041   7.370  0.4362  1.7767  1.3217
  727MOL0     H98115   2.865   0.798   7.415 -0.2483  0.7451 -0.2867
  727MOL0     H98116   2.745   0.821   7.305  1.5845 -1.9405 -0.5458
  727MOL0     H98117   2.747   0.724   7.582  1.5803  0.7804 -0.9951
  727MOL0     H98118   2.586   0.756   7.513  0.1008 -0.5957 -1.8563
  727MOL0     H98119   2.628   0.505   7.503 -3.0611  3.6373  1.5145
  727MOL0     H98120   2.783   0.547   7.432  0.5963 -1.0975  2.8828
  727MOL0     H98121   2.680   0.617   7.227 -0.1024 -1.2595 -1.8209
  727MOL0     H98122   2.620   0.464   7.266  2.8579 -0.0201 -1.6156
  727MOL0     H98123   2.448   0.637   7.189  0.6022  1.1910  0.5653
  727MOL0     H98124   2.467   0.720   7.344  1.2780 -0.3260  0.9339
  727MOL0     H98125   2.273   0.582   7.335 -0.8460 -1.3651 -1.0177
  727MOL0     H98126   2.382   0.515   7.462 -1.2938  0.7476  0.7954
  727MOL0     H98127   2.832   1.143   7.852  1.1098  0.3453 -2.5596
  727MOL0     H98128   2.699   1.246   8.035  1.2798 -0.5503 -1.3680
  727MOL0     H98129   2.381   1.593   8.110 -0.9266  0.6150  1.0224
  727MOL0     H98130   2.331   1.753   8.300  0.8995  0.7718 -0.7062
  727MOL0     H98131   1.831   2.717   9.127  1.7240 -1.8138  2.0190
  727MOL0     H98132   1.680   2.670   9.316 -1.8694  1.5285  0.0219
  727MOL0     H98133   1.548   3.041   9.850  1.7774 -1.0916 -3.4257
  727MOL0     H98134   1.336   3.012   9.993 -0.9743  0.0344 -0.7435
  727MOL0     H98135   0.988   2.768   9.825  2.2979 -0.4223 -0.4522
  727MOL0     H98136   0.941   2.830   9.982  4.5450 -3.0369  3.2526
  727MOL0     H98137   1.039   3.004   9.752 -0.2387 -0.5030 -1.1607
  727MOL0     H98138   0.990   3.057   9.919  0.4855 -0.4748 -0.2221
  727MOL0     H98139   0.763   2.998   9.883 -1.4131  1.4323 -0.5174
  727MOL0     H98140   0.796   2.914   9.737 -3.4166 -2.9631  4.6296
  727MOL0     H98141   0.688   3.142   9.698  1.0626  0.4794  1.3337
  727MOL0     H98142   0.828   3.097   9.610  0.6493 -1.7993  1.7156
  727MOL0     H98143   1.017   3.387   9.852  3.4007 -3.1202 -0.3936
  727MOL0     H98144   1.203   2.712   9.736  0.3815  0.5783 -1.1702
  727MOL0     H98145   1.399   2.721   9.604 -1.9434 -1.5900  0.6533
  728MOL0     O98146   8.510   3.535   8.952  0.1602 -0.5662  0.7813
  728MOL0     C98147   8.432   3.498   8.864 -0.1903 -0.6030  0.2859
  728MOL0     O98148   8.327   3.570   8.824  0.3464  0.2941  0.2721
  728MOL0     C98149   8.339   3.707   8.837 -0.2467  0.2966  0.5635
  728MOL0     C98150   8.245   3.769   8.917  0.8919 -0.2382  0.2534
  728MOL0     C98151   8.225   3.905   8.917 -0.1181 -0.2992 -0.1986
  728MOL0     C98152   8.319   3.976   8.840 -0.0422 -0.6373 -0.3275
  728MOL0     O98153   8.318   4.117   8.823  0.7509  0.2281 -0.5126
  728MOL0     C98154   8.204   4.202   8.870 -0.5082  0.0556  1.2633
  728MOL0     C98155   8.244   4.345   8.837 -0.2370  0.7133 -0.4793
  728MOL0     C98156   8.361   4.386   8.926 -0.1612  0.1150  0.4461
  728MOL0     C98157   8.423   4.517   8.884  0.6986  0.1382  0.1937
  728MOL0     C98158   8.529   4.586   8.964  0.3100 -0.4878 -0.3990
  728MOL0     C98159   8.499   4.599   9.111 -0.3716  0.0398  0.7278
  728MOL0     C98160   8.586   4.713   9.164  0.1866 -1.1414 -0.0741
  728MOL0     C98161   8.506   4.843   9.153  0.6164  1.6093  0.0227
  728MOL0     N98162   8.591   4.955   9.173 -0.2633 -1.1334  0.1261
  728MOL0     C98163   8.693   5.002   9.087  0.0918  0.5228  0.5474
  728MOL0     C98164   8.757   5.104   9.150 -0.4499 -0.0778  0.4092
  728MOL0     C98165   8.875   5.176   9.096 -0.3643  0.5296 -0.4650
  728MOL0     C98166   8.862   5.324   9.127  0.1358  0.3154 -0.4148
  728MOL0     C98167   8.975   5.398   9.062  0.3945 -0.0831  0.0740
  728MOL0     C98168   8.951   5.552   9.086 -0.7192 -0.3925 -0.0110
  728MOL0     O98169   9.044   5.642   9.030 -0.4874  0.1614  0.1214
  728MOL0     C98170   9.164   5.630   9.097 -0.5798  0.1557 -1.0760
  728MOL0     C98171   9.273   5.563   9.041 -0.5477  0.1310  0.2260
  728MOL0     C98172   9.397   5.573   9.104  0.8115  0.0594 -0.9743
  728MOL0     C98173   9.515   5.485   9.062  0.4301 -0.9217  0.5913
  728MOL0     C98174   9.416   5.656   9.215  0.2149  1.0828  0.0332
  728MOL0     C98175   9.541   5.676   9.277  0.8360 -0.8184 -0.0854
  728MOL0     O98176   9.580   5.810   9.279 -0.8632  0.5460  0.8571
  728MOL0     C98177   9.699   5.833   9.338 -0.3442 -0.8321  0.7317
  728MOL0     C98178   9.697   5.888   9.467  0.3510  0.2395 -0.4556
  728MOL0     C98179   9.813   5.934   9.527 -0.7272  0.0096 -0.1804
  728MOL0     C98180   9.938   5.901   9.471 -0.0744  0.3753  0.0757
  728MOL0     O98181  10.058   5.942   9.530 -0.2142  0.8421 -0.5713
  728MOL0     C98182  10.178   5.890   9.478 -0.6612  0.5954  0.7417
  728MOL0     C98183  10.287   5.907   9.577  0.5547 -0.2582 -0.6875
  728MOL0     C98184  10.310   5.786   9.655 -0.1417 -0.3688  0.2379
  728MOL0     C98185  10.430   5.816   9.744 -0.3679  0.2258 -0.2857
  728MOL0     C98186  10.473   5.680   9.811  0.0276  0.1496 -0.2762
  728MOL0     C98187  10.619   5.689   9.879  0.7210 -0.1467 -0.4589
  728MOL0     C98188  10.737   5.635   9.794 -0.0390  0.3030  0.5393
  728MOL0     C98189  10.733   5.700   9.652 -0.3018 -0.1091  1.5622
  728MOL0    Cl98190  10.804   5.872   9.686  0.1485 -0.1685  0.3000
  728MOL0     C98191   9.938   5.832   9.344  0.0233 -0.2926  0.2193
  728MOL0     C98192   9.820   5.809   9.274 -1.2231  0.0491 -0.0532
  728MOL0     O98193   9.604   5.582   9.332  0.0416 -0.1085  0.2805
  728MOL0     C98194   9.300   5.711   9.278 -0.1652 -0.7737 -1.0711
  728MOL0     C98195   9.179   5.699   9.217  0.4425  0.3069  0.0048
  728MOL0     N98196   8.697   5.111   9.282 -0.2265  0.3248  1.0175
  728MOL0     N98197   8.598   5.026   9.289 -0.8048 -1.2347 -0.4316
  728MOL0     C98198   8.419   3.917   8.767  1.3899 -0.9376  0.6856
  728MOL0     C98199   8.428   3.780   8.756  0.1971 -0.9164  1.3154
  728MOL0     C98200   8.454   3.361   8.818  0.7841  0.4082 -0.5717
  728MOL0     C98201   8.542   3.272   8.889  0.4767 -0.2102 -0.1111
  728MOL0     C98202   8.573   3.140   8.858 -0.6791  0.0417  0.2635
  728MOL0     C98203   8.512   3.092   8.747  0.1311 -0.7040 -0.0246
  728MOL0     O98204   8.533   2.968   8.690 -0.0632 -0.4049 -0.2085
  728MOL0     C98205   8.659   2.912   8.726 -0.1300 -0.1487 -0.0626
  728MOL0     C98206   8.695   2.812   8.608  0.4180  0.1001 -0.1213
  728MOL0     C98207   8.764   2.885   8.489 -0.1544  0.7386  0.2146
  728MOL0     C98208   8.797   2.775   8.379 -0.1432 -0.3337  0.8961
  728MOL0     C98209   8.758   2.816   8.242 -0.4524  0.1536 -0.2666
  728MOL0     C98210   8.709   2.832   8.133  0.1207 -0.2391  0.5823
  728MOL0     C98211   8.420   3.170   8.676 -0.6842  0.5378 -0.1698
  728MOL0     C98212   8.387   3.305   8.709  0.1175 -0.1132 -0.8519
  728MOL0     H98213   8.175   3.713   8.978 -0.9522  1.4117 -0.2379
  728MOL0     H98214   8.140   3.951   8.965  0.5350  1.6904 -0.8642
  728MOL0     H98215   8.111   4.184   8.815  0.3935 -0.0563 -0.3124
  728MOL0     H98216   8.185   4.198   8.977 -1.1491 -3.1199  1.1126
  728MOL0     H98217   8.277   4.342   8.732 -0.5984 -2.4456 -0.5993
  728MOL0     H98218   8.166   4.421   8.841  1.2258  2.2169  2.7992
  728MOL0     H98219   8.315   4.404   9.024 -0.3397  3.2884 -0.1065
  728MOL0     H98220   8.439   4.310   8.934 -1.3860 -1.1588  0.7443
  728MOL0     H98221   8.465   4.502   8.784  0.6917 -0.3688  0.2625
  728MOL0     H98222   8.339   4.586   8.872 -1.0306 -1.8811  0.0439
  728MOL0     H98223   8.622   4.531   8.946  0.2369 -1.5358  1.9835
  728MOL0     H98224   8.544   4.679   8.909 -0.0212 -1.2061 -1.7348
  728MOL0     H98225   8.392   4.622   9.122 -0.4347  1.2133 -1.7629
  728MOL0     H98226   8.521   4.502   9.157  0.9605 -0.3828 -0.7218
  728MOL0     H98227   8.608   4.686   9.268  0.8324  1.9407  0.6967
  728MOL0     H98228   8.690   4.723   9.129 -0.4126  0.1178 -1.5805
  728MOL0     H98229   8.434   4.836   9.234  0.0525  1.8418 -0.4508
  728MOL0     H98230   8.456   4.846   9.055 -0.8610  2.0629  0.7575
  728MOL0     H98231   8.703   4.976   8.982  0.7714  2.1020  0.1911
  728MOL0     H98232   8.962   5.139   9.151 -1.9120  0.5952  2.1882
  728MOL0     H98233   8.899   5.153   8.992 -1.8560 -2.1340 -0.2944
  728MOL0     H98234   8.867   5.335   9.236 -3.3020  2.7833 -0.3513
  728MOL0     H98235   8.761   5.349   9.094  0.0677 -0.0712 -0.5070
  728MOL0     H98236   8.975   5.384   8.954 -0.8180  3.1333 -0.4745
  728MOL0     H98237   9.072   5.361   9.095  0.4988  1.4337  1.6160
  728MOL0     H98238   8.946   5.570   9.193 -1.4929  1.0722 -0.2629
  728MOL0     H98239   8.856   5.584   9.042 -0.5610  2.5652  1.5398
  728MOL0     H98240   9.257   5.499   8.955 -2.0727 -1.4285  1.5756
  728MOL0     H98241   9.525   5.488   8.953  1.4853 -0.4579  0.6907
  728MOL0     H98242   9.614   5.508   9.103  0.3712 -3.4095  2.3714
  728MOL0     H98243   9.505   5.381   9.096  2.2467 -1.5331 -0.5606
  728MOL0     H98244   9.599   5.909   9.509 -0.4821 -1.9001 -1.1930
  728MOL0     H98245   9.808   6.007   9.606 -1.4465 -0.5235  0.2769
  728MOL0     H98246  10.180   5.783   9.452 -1.4842  0.2658  1.9754
  728MOL0     H98247  10.208   5.940   9.386 -0.5468  0.5087  0.7312
  728MOL0     H98248  10.374   5.914   9.511  2.1534  1.6295  1.4487
  728MOL0     H98249  10.286   5.999   9.636 -0.7247 -1.4678  1.3196
  728MOL0     H98250  10.341   5.705   9.587  2.4191 -1.7038  2.7856
  728MOL0     H98251  10.219   5.773   9.714 -1.9527  2.4910 -1.6690
  728MOL0     H98252  10.510   5.868   9.691 -1.5218  2.0760 -0.3093
  728MOL0     H98253  10.389   5.885   9.819  1.8755  1.5136 -0.1615
  728MOL0     H98254  10.466   5.598   9.739  0.5267 -0.7837  0.7097
  728MOL0     H98255  10.399   5.667   9.890 -0.9752  0.1123 -1.1980
  728MOL0     H98256  10.651   5.793   9.892  3.5775 -0.8343 -1.2470
  728MOL0     H98257  10.607   5.650   9.980 -2.2974  0.6951 -0.4037
  728MOL0     H98258  10.732   5.526   9.782 -0.8319  0.3662  0.1915
  728MOL0     H98259  10.836   5.652   9.836  1.0829  1.1451 -2.2398
  728MOL0     H98260  10.640   5.708   9.596  3.0617 -1.4876 -5.2012
  728MOL0     H98261  10.804   5.645   9.590  1.1279  2.0421  1.1632
  728MOL0     H98262  10.027   5.787   9.300 -0.7026 -3.0971  1.3433
  728MOL0     H98263   9.825   5.775   9.171 -1.8386  1.0684 -0.4372
  728MOL0     H98264   9.311   5.759   9.374  1.9669 -0.0165 -1.6379
  728MOL0     H98265   9.088   5.733   9.265  1.6260  1.4065  1.5681
  728MOL0     H98266   8.488   3.970   8.701 -0.4905  0.1879 -0.4954
  728MOL0     H98267   8.500   3.731   8.692 -1.9370 -1.8800 -0.4826
  728MOL0     H98268   8.596   3.310   8.975  1.6685  0.3964 -1.0946
  728MOL0     H98269   8.629   3.074   8.922 -0.5973 -1.2055 -1.0314
  728MOL0     H98270   8.735   2.990   8.715  0.0374 -0.5397 -2.2218
  728MOL0     H98271   8.660   2.857   8.821 -0.5879  0.4860  0.3123
  728MOL0     H98272   8.601   2.776   8.566  0.4887  2.3381 -2.4427
  728MOL0     H98273   8.757   2.727   8.637  1.6489  0.7365 -0.7625
  728MOL0     H98274   8.862   2.926   8.516 -0.1199  2.4042 -2.1557
  728MOL0     H98275   8.699   2.961   8.446 -0.0223 -0.8361 -3.0653
  728MOL0     H98276   8.734   2.686   8.388  0.6217 -0.9766  0.1518
  728MOL0     H98277   8.900   2.738   8.384 -0.4246 -0.9530  2.8939
  728MOL0     H98278   8.666   2.862   8.039 -3.7016 -1.6837  1.6545
  728MOL0     H98279   8.379   3.123   8.587  4.8694 -4.4770 -0.7475
  728MOL0     H98280   8.316   3.349   8.640  0.0188 -1.7887 -1.8830
  729MOL0     O98281   3.877   3.658   0.390  0.1987  0.0520 -0.1589
  729MOL0     C98282   3.865   3.629   0.274 -0.1028  0.0575  0.6420
  729MOL0     O98283   3.744   3.605   0.207  0.1034 -0.8309 -0.4784
  729MOL0     C98284   3.635   3.597   0.286  0.4278 -0.2325 -0.3989
  729MOL0     C98285   3.589   3.716   0.350  0.5845 -0.1060  0.3415
  729MOL0     C98286   3.455   3.713   0.400  0.1833 -0.1440 -0.3534
  729MOL0     C98287   3.384   3.586   0.423 -0.6123 -0.4777  0.2734
  729MOL0     O98288   3.254   3.574   0.475 -0.6252 -0.8085 -0.3873
  729MOL0     C98289   3.158   3.661   0.418  0.1969  0.0137  0.0340
  729MOL0     C98290   3.012   3.630   0.461 -0.2797 -0.1430 -0.2418
  729MOL0     C98291   2.976   3.483   0.424  0.4121 -0.5382 -0.7972
  729MOL0     C98292   2.962   3.480   0.274  0.8800  0.5903  0.0216
  729MOL0     C98293   2.879   3.358   0.243  0.4693 -0.2919 -0.7765
  729MOL0     C98294   2.835   3.363   0.094  0.0531 -0.3282 -0.2337
  729MOL0     C98295   2.943   3.347  -0.011 -0.1647  0.2873 -0.1595
  729MOL0     C98296   2.996   3.191  -0.013 -0.6137 -0.4148  0.1602
  729MOL0     N98297   2.883   3.106  -0.041 -0.5054  0.5541  0.0058
  729MOL0     C98298   2.836   3.011   0.049  0.0700 -0.1343  0.2649
  729MOL0     C98299   2.747   2.940  -0.029  0.7685  0.0267  0.2045
  729MOL0     C98300   2.643   2.835   0.023 -0.7273 -0.4189 -0.5285
  729MOL0     C98301   2.726   2.707   0.056 -0.5897  0.0965 -0.1178
  729MOL0     C98302   2.655   2.609   0.149  0.2498 -0.5396 -0.2486
  729MOL0     C98303   2.744   2.489   0.191 -0.3448  0.9006 -0.0688
  729MOL0     O98304   2.773   2.407   0.073 -0.0699  0.1341  0.4588
  729MOL0     C98305   2.701   2.295   0.053 -0.4955 -1.2171  0.2635
  729MOL0     C98306   2.714   2.193   0.153  0.8853 -0.4653 -1.0449
  729MOL0     C98307   2.633   2.076   0.130 -0.7132  0.5135 -0.1716
  729MOL0     C98308   2.655   1.968   0.237 -0.1518 -0.8915 -0.1814
  729MOL0     C98309   2.546   2.061   0.011 -0.2055 -0.8093 -0.5265
  729MOL0     C98310   2.470   1.934  -0.015 -0.3143  0.6988 -0.5498
  729MOL0     O98311   2.377   1.946  -0.109 -0.0893  0.5446 -0.1220
  729MOL0     C98312   2.301   1.846  -0.156  0.3911 -0.4406 -0.6108
  729MOL0     C98313   2.258   1.729  -0.083  0.1753 -0.1396 -0.5806
  729MOL0     C98314   2.160   1.629  -0.133 -1.0067 -0.7982 -0.0502
  729MOL0     C98315   2.109   1.637  -0.258 -0.9762 -0.6698  1.2615
  729MOL0     O98316   2.024   1.536  -0.290 -0.5868 -0.1263 -0.1091
  729MOL0     C98317   2.003   1.497  -0.433 -0.6226 -0.0859 -0.6051
  729MOL0     C98318   1.851   1.516  -0.465 -0.1438 -0.6449  0.5778
  729MOL0     C98319   1.801   1.436  -0.585 -0.0192  0.8366 -1.2811
  729MOL0     C98320   1.769   1.289  -0.528  0.2418 -0.0579  0.2495
  729MOL0     C98321   1.729   1.194  -0.630  0.7154 -0.8611 -0.4720
  729MOL0     C98322   1.685   1.058  -0.555  0.2488 -0.9533  0.5450
  729MOL0     C98323   1.625   0.967  -0.657 -0.1298 -0.2693 -0.6368
  729MOL0     C98324   1.560   0.842  -0.597 -0.6065  0.7996  0.6859
  729MOL0    Cl98325   1.396   0.874  -0.509  0.1393  0.0466 -0.1539
  729MOL0     C98326   2.156   1.743  -0.339  0.2354 -0.0216  0.9915
  729MOL0     C98327   2.248   1.843  -0.292 -0.0461 -0.2197 -0.0700
  729MOL0     O98328   2.497   1.831   0.054 -0.5092  0.2630  0.9030
  729MOL0     C98329   2.535   2.168  -0.075 -0.4831  0.3161  0.6362
  729MOL0     C98330   2.607   2.284  -0.049  0.0784 -0.4020  0.5706
  729MOL0     N98331   2.757   2.972  -0.162  0.8020 -0.3786  0.0223
  729MOL0     N98332   2.832   3.082  -0.170 -0.1536  0.3703 -0.2370
  729MOL0     C98333   3.449   3.467   0.375  0.1231  0.5489  0.5365
  729MOL0     C98334   3.563   3.474   0.295  0.7316 -0.2863 -0.2527
  729MOL0     C98335   3.993   3.628   0.199  0.4730 -0.4390 -1.1905
  729MOL0     C98336   4.103   3.694   0.259 -0.5930 -0.4581 -0.0926
  729MOL0     C98337   4.218   3.691   0.177 -0.9251 -0.0406  0.0282
  729MOL0     C98338   4.230   3.630   0.057  0.1153 -0.4015  0.1957
  729MOL0     O98339   4.350   3.627  -0.009  0.0321 -0.6885  0.0595
  729MOL0     C98340   4.431   3.522   0.013 -0.1188  0.0344 -0.0369
  729MOL0     C98341   4.532   3.518  -0.097 -0.4872  0.0338 -0.5134
  729MOL0     C98342   4.490   3.491  -0.249  0.9528 -0.5641  0.0993
  729MOL0     C98343   4.505   3.343  -0.294  0.2152  1.0214 -1.0313
  729MOL0     C98344   4.410   3.256  -0.223 -0.0986 -0.0828  0.0885
  729MOL0     C98345   4.328   3.199  -0.146  0.8023  0.0289  0.2100
  729MOL0     C98346   4.122   3.553   0.012  0.0687 -0.0317 -1.0118
  729MOL0     C98347   3.992   3.569   0.073 -1.1580  0.3211 -0.2681
  729MOL0     H98348   3.658   3.795   0.321  1.7914 -1.3966 -0.4154
  729MOL0     H98349   3.407   3.810   0.406 -0.7089 -0.1022 -4.5765
  729MOL0     H98350   3.180   3.765   0.446  0.8585 -0.1299  0.0453
  729MOL0     H98351   3.159   3.663   0.309  0.9404  0.0828  0.0423
  729MOL0     H98352   3.001   3.644   0.569  0.6507 -0.6166 -0.0729
  729MOL0     H98353   2.944   3.695   0.406 -1.8358 -0.6190  1.0593
  729MOL0     H98354   3.055   3.418   0.464 -0.0871  0.9163  3.0028
  729MOL0     H98355   2.890   3.442   0.478  1.9848 -1.2334  1.3108
  729MOL0     H98356   2.908   3.570   0.245 -0.3394 -0.0116  0.3421
  729MOL0     H98357   3.065   3.474   0.237  2.4746  1.0802  3.9149
  729MOL0     H98358   2.933   3.266   0.266  0.4947 -0.3077 -0.8964
  729MOL0     H98359   2.782   3.366   0.293  1.1804 -0.9527  0.7433
  729MOL0     H98360   2.761   3.283   0.096  0.9292 -1.1660 -0.0978
  729MOL0     H98361   2.784   3.455   0.068 -1.9216 -1.7705 -1.7016
  729MOL0     H98362   2.911   3.379  -0.111  1.0848 -1.7118 -1.2597
  729MOL0     H98363   3.034   3.400   0.016 -0.4412  0.9665 -0.5391
  729MOL0     H98364   3.045   3.171   0.082 -0.9842  1.5370  0.8052
  729MOL0     H98365   3.070   3.183  -0.093  1.3157  0.9574  1.7221
  729MOL0     H98366   2.862   3.005   0.154 -2.5013  0.6271  0.9927
  729MOL0     H98367   2.602   2.874   0.116 -1.8634  0.7406 -1.4738
  729MOL0     H98368   2.568   2.823  -0.056 -2.3880  2.8662  0.3737
  729MOL0     H98369   2.823   2.731   0.102 -0.7715 -0.3389  0.5138
  729MOL0     H98370   2.738   2.654  -0.039 -0.7459 -3.1214  1.5250
  729MOL0     H98371   2.555   2.588   0.110 -1.5227  1.2653  2.8903
  729MOL0     H98372   2.634   2.663   0.242  0.6578  0.0925 -0.5115
  729MOL0     H98373   2.697   2.419   0.262  3.0975 -2.6004 -0.8866
  729MOL0     H98374   2.832   2.529   0.243 -0.9499 -0.5220  2.2154
  729MOL0     H98375   2.768   2.211   0.246 -3.3864 -1.2552  1.8710
  729MOL0     H98376   2.724   2.003   0.315  1.4507  0.6767 -2.2107
  729MOL0     H98377   2.565   1.921   0.277 -0.7984 -1.3680 -2.1056
  729MOL0     H98378   2.708   1.884   0.191 -1.7696 -1.8748 -0.3381
  729MOL0     H98379   2.282   1.716   0.022 -2.7294 -0.9571  0.0773
  729MOL0     H98380   2.128   1.551  -0.066 -2.5853  0.3217  0.5410
  729MOL0     H98381   2.076   1.549  -0.495  0.3728  3.7935  3.3679
  729MOL0     H98382   2.022   1.389  -0.434  0.7579  0.1155  0.5878
  729MOL0     H98383   1.787   1.494  -0.380 -0.3572 -2.6174 -0.0298
  729MOL0     H98384   1.840   1.621  -0.493  0.2512 -0.8335 -0.3371
  729MOL0     H98385   1.879   1.446  -0.660 -1.0136 -0.2272 -2.4988
  729MOL0     H98386   1.705   1.468  -0.626  1.2460  2.5933 -3.0169
  729MOL0     H98387   1.853   1.253  -0.468 -0.9758 -2.0894  0.8594
  729MOL0     H98388   1.693   1.305  -0.450 -0.1929  0.8225 -0.3362
  729MOL0     H98389   1.815   1.170  -0.693  0.0007 -1.0214 -1.4257
  729MOL0     H98390   1.647   1.227  -0.696  1.6799 -0.3098 -1.4312
  729MOL0     H98391   1.775   1.013  -0.511 -0.4073 -0.1029  2.9334
  729MOL0     H98392   1.612   1.092  -0.481 -1.2232 -0.0371 -1.2757
  729MOL0     H98393   1.709   0.937  -0.721  1.3804 -1.1506  1.6267
  729MOL0     H98394   1.545   1.026  -0.703 -0.2965  3.4021  3.6683
  729MOL0     H98395   1.633   0.787  -0.538  1.0798 -0.8089 -2.6155
  729MOL0     H98396   1.539   0.784  -0.687  0.7555 -0.6066  1.2318
  729MOL0     H98397   2.128   1.751  -0.443 -1.6089  0.3393  1.4742
  729MOL0     H98398   2.288   1.917  -0.361  0.8396  0.3752  1.0472
  729MOL0     H98399   2.482   2.140  -0.165  2.7246 -0.9456 -0.9897
  729MOL0     H98400   2.572   2.370  -0.105  1.3171  1.6143  2.7096
  729MOL0     H98401   3.398   3.371   0.377  0.0856  0.3915 -2.5250
  729MOL0     H98402   3.615   3.389   0.252  3.3505 -0.7053  3.2426
  729MOL0     H98403   4.099   3.750   0.352  2.2955 -1.0281  0.4624
  729MOL0     H98404   4.294   3.754   0.222 -1.2655  3.1832 -3.3979
  729MOL0     H98405   4.488   3.546   0.103  2.5143 -1.6969 -1.0862
  729MOL0     H98406   4.377   3.427   0.014 -1.9640  0.7806 -4.5714
  729MOL0     H98407   4.605   3.440  -0.071  0.5903  0.5429 -1.8531
  729MOL0     H98408   4.588   3.612  -0.086 -0.0831 -0.4812  2.6914
  729MOL0     H98409   4.566   3.551  -0.299  2.4865 -2.0846  0.5073
  729MOL0     H98410   4.387   3.517  -0.278  1.5147  0.0577 -1.4190
  729MOL0     H98411   4.604   3.308  -0.264 -0.3274  0.7538  0.4973
  729MOL0     H98412   4.490   3.338  -0.403 -3.8860 -4.0083 -0.5863
  729MOL0     H98413   4.284   3.141  -0.068  1.9834 -1.1173  0.0519
  729MOL0     H98414   4.132   3.514  -0.089  2.0910  0.1565 -0.9143
  729MOL0     H98415   3.903   3.515   0.042 -0.0218 -2.5427  1.1196
  730MOL0     O98416   9.320   2.592  10.608  1.1046  0.3912  0.5600
  730MOL0     C98417   9.273   2.477  10.619 -0.6355 -0.7587  0.8016
  730MOL0     O98418   9.168   2.441  10.692 -0.6050  0.3172 -0.4454
  730MOL0     C98419   9.128   2.529  10.787 -0.2547  0.6046 -0.0686
  730MOL0     C98420   9.217   2.578  10.878  1.0505 -1.3422 -0.3217
  730MOL0     C98421   9.179   2.686  10.961 -0.7604 -0.4436  0.2734
  730MOL0     C98422   9.047   2.720  10.971  0.4103 -0.1057  0.4859
  730MOL0     O98423   9.020   2.822  11.064 -0.0165 -0.4343  0.7679
  730MOL0     C98424   8.886   2.850  11.105 -0.0953 -0.6176 -1.0795
  730MOL0     C98425   8.826   2.733  11.186 -0.9873 -0.5839 -0.1374
  730MOL0     C98426   8.695   2.782  11.268  0.3392  0.4327 -0.6911
  730MOL0     C98427   8.570   2.779  11.181 -0.1349  1.1513  0.5646
  730MOL0     C98428   8.439   2.792  11.261 -0.3010  0.2853 -0.3194
  730MOL0     C98429   8.425   2.927  11.334  0.1602  0.0781  0.0783
  730MOL0     C98430   8.282   2.941  11.393 -0.8975  0.2002  0.0320
  730MOL0     C98431   8.256   3.087  11.436 -0.4367 -0.0742 -0.9534
  730MOL0     N98432   8.367   3.130  11.525  0.2051 -0.6910 -0.3461
  730MOL0     C98433   8.468   3.207  11.476 -0.7611 -0.0333  0.0726
  730MOL0     C98434   8.532   3.257  11.579 -0.7013  0.2426  0.3403
  730MOL0     C98435   8.645   3.352  11.589 -0.7277 -0.2953  0.7815
  730MOL0     C98436   8.592   3.488  11.582 -0.2824 -0.6529  0.5560
  730MOL0     C98437   8.697   3.584  11.625 -1.2629  0.1062 -0.4213
  730MOL0     C98438   8.818   3.586  11.538 -0.6193 -0.0862  0.6898
  730MOL0     O98439   8.806   3.598  11.398 -0.4806 -0.2435 -0.4505
  730MOL0     C98440   8.918   3.584  11.320  0.1935 -0.5566  0.2576
  730MOL0     C98441   8.905   3.536  11.191 -0.1626 -0.3650  0.0069
  730MOL0     C98442   9.011   3.539  11.101 -0.6666 -0.5576 -0.9090
  730MOL0     C98443   9.008   3.483  10.967 -0.2420 -0.1880 -0.0617
  730MOL0     C98444   9.138   3.588  11.147 -0.0821  0.6430 -0.7020
  730MOL0     C98445   9.251   3.606  11.050 -0.6503  1.8369  1.3819
  730MOL0     O98446   9.223   3.678  10.937  0.5265 -0.3599 -0.3415
  730MOL0     C98447   9.316   3.716  10.843  0.0312 -0.3032  0.7094
  730MOL0     C98448   9.255   3.705  10.720  0.3468 -0.4761  1.0957
  730MOL0     C98449   9.333   3.743  10.614  0.3143  0.5060 -0.8249
  730MOL0     C98450   9.466   3.787  10.636 -0.1008 -0.3782  0.6076
  730MOL0     O98451   9.552   3.813  10.528  0.4366 -0.0476 -0.4368
  730MOL0     C98452   9.509   3.848  10.388 -0.5511 -0.3243 -1.1434
  730MOL0     C98453   9.452   3.749  10.290  0.1989  0.5527  0.3240
  730MOL0     C98454   9.515   3.615  10.284 -1.5306  0.7014  0.6798
  730MOL0     C98455   9.529   3.559  10.136 -0.3641  0.4853 -0.6502
  730MOL0     C98456   9.572   3.412  10.148 -0.0860  0.1362 -0.0066
  730MOL0     C98457   9.622   3.360  10.013  0.4423 -0.1956  1.0006
  730MOL0     C98458   9.522   3.386   9.898  0.3136 -0.8368 -0.1338
  730MOL0     C98459   9.541   3.311   9.764 -0.4485  0.4310 -1.0747
  730MOL0    Cl98460   9.536   3.131   9.794 -0.3228  0.1835 -0.0577
  730MOL0     C98461   9.518   3.804  10.764  0.7830  0.5829 -1.4063
  730MOL0     C98462   9.431   3.781  10.877 -0.0343 -1.1120  0.5495
  730MOL0     O98463   9.358   3.554  11.077  0.5874  0.3976 -0.1084
  730MOL0     C98464   9.155   3.631  11.281 -0.2313  0.2387 -0.2353
  730MOL0     C98465   9.043   3.632  11.363 -0.2036  1.2593  0.4115
  730MOL0     N98466   8.475   3.216  11.697 -1.2929  0.3863  0.6088
  730MOL0     N98467   8.377   3.139  11.660  0.5181  0.3490  0.7381
  730MOL0     C98468   8.957   2.664  10.878 -0.6592  0.0235  0.0510
  730MOL0     C98469   8.995   2.574  10.775 -0.4077 -0.4931  0.7512
  730MOL0     C98470   9.331   2.378  10.525 -0.2215  0.4935 -0.1288
  730MOL0     C98471   9.241   2.286  10.475  0.3238  0.0338  0.2231
  730MOL0     C98472   9.296   2.166  10.417 -0.0797 -0.4310 -0.2788
  730MOL0     C98473   9.436   2.155  10.392  0.2447  2.0193 -0.3344
  730MOL0     O98474   9.477   2.041  10.328  0.4001 -0.0167  1.2792
  730MOL0     C98475   9.593   2.046  10.247  0.4563 -0.4136  0.1580
  730MOL0     C98476   9.563   2.135  10.124 -0.5717 -0.5250 -0.2050
  730MOL0     C98477   9.445   2.118  10.030  0.7189 -0.8045 -0.0576
  730MOL0     C98478   9.403   2.247   9.959  0.8301  0.4611  0.0986
  730MOL0     C98479   9.510   2.319   9.884 -1.0321  1.2580 -0.4083
  730MOL0     C98480   9.608   2.363   9.823 -0.4945 -0.7025  0.0049
  730MOL0     C98481   9.515   2.249  10.450 -0.0622 -0.1678  1.1431
  730MOL0     C98482   9.466   2.362  10.503  0.4962 -0.1365 -0.1413
  730MOL0     H98483   9.319   2.543  10.888  1.1509 -0.6943  1.0579
  730MOL0     H98484   9.251   2.735  11.025  0.3363 -2.9470  1.0496
  730MOL0     H98485   8.891   2.932  11.177 -1.7352 -1.8233  0.5082
  730MOL0     H98486   8.820   2.868  11.019 -3.0540 -2.3919  0.6410
  730MOL0     H98487   8.808   2.645  11.124  3.0583 -3.2177  1.9237
  730MOL0     H98488   8.902   2.699  11.258 -1.2330 -2.2380 -0.6148
  730MOL0     H98489   8.664   2.718  11.351 -1.4430  0.0937 -1.5597
  730MOL0     H98490   8.710   2.886  11.299  0.4240  0.5017 -0.9569
  730MOL0     H98491   8.569   2.864  11.111 -3.0910  1.0424  0.3556
  730MOL0     H98492   8.569   2.686  11.123 -1.1338  1.7484 -0.4226
  730MOL0     H98493   8.349   2.799  11.199 -1.2285  0.9005  1.0551
  730MOL0     H98494   8.439   2.715  11.340 -3.5738 -1.5742 -1.9202
  730MOL0     H98495   8.500   2.945  11.412  1.6579 -3.9377 -0.2250
  730MOL0     H98496   8.420   3.014  11.268 -0.1827 -0.6966 -0.9503
  730MOL0     H98497   8.204   2.913  11.321 -1.2143  1.5382 -0.1670
  730MOL0     H98498   8.269   2.877  11.481 -1.2525  1.4568  0.9274
  730MOL0     H98499   8.165   3.090  11.497  1.4233  2.2835  1.9547
  730MOL0     H98500   8.249   3.160  11.355  0.3731  1.9300  0.6924
  730MOL0     H98501   8.475   3.235  11.371  3.2825 -2.1622 -0.4519
  730MOL0     H98502   8.700   3.344  11.683 -2.2429  2.1403  1.9902
  730MOL0     H98503   8.713   3.332  11.506  2.3128  0.3439  2.9796
  730MOL0     H98504   8.503   3.496  11.645 -1.3631 -0.8232 -0.8959
  730MOL0     H98505   8.555   3.519  11.483  0.1807 -3.8285 -0.7443
  730MOL0     H98506   8.726   3.550  11.725 -2.3202 -3.9481 -1.3269
  730MOL0     H98507   8.645   3.681  11.633 -2.2985 -0.2222 -2.4792
  730MOL0     H98508   8.878   3.497  11.557  2.3118  1.5212 -0.3756
  730MOL0     H98509   8.865   3.680  11.570 -1.7701  1.4569 -1.8565
  730MOL0     H98510   8.802   3.512  11.168 -0.8950  0.1231  2.5061
  730MOL0     H98511   9.070   3.393  10.954  3.4055  1.5522  3.2636
  730MOL0     H98512   8.908   3.446  10.942 -0.3309  0.0302 -0.0326
  730MOL0     H98513   9.035   3.554  10.888  1.2513 -0.1272  0.4668
  730MOL0     H98514   9.161   3.657  10.699  0.2755  0.2015 -0.2591
  730MOL0     H98515   9.276   3.734  10.522  1.8776 -0.9709 -1.7224
  730MOL0     H98516   9.438   3.931  10.385  1.5165  1.5228 -1.8475
  730MOL0     H98517   9.605   3.887  10.350 -1.0333  0.5930 -1.4680
  730MOL0     H98518   9.347   3.732  10.317 -0.0534  1.9584  0.3105
  730MOL0     H98519   9.451   3.807  10.197  0.4579  4.6694  2.6527
  730MOL0     H98520   9.461   3.550  10.353  1.4262  0.0571  2.5950
  730MOL0     H98521   9.617   3.623  10.323 -0.4622 -3.6399 -0.6484
  730MOL0     H98522   9.426   3.551  10.099 -0.1021 -1.0841 -1.1161
  730MOL0     H98523   9.581   3.628  10.068 -1.1531  1.3251 -0.4222
  730MOL0     H98524   9.480   3.366  10.185 -1.2567 -0.9707 -3.8066
  730MOL0     H98525   9.655   3.401  10.218  0.8445  3.5109 -0.4307
  730MOL0     H98526   9.715   3.418  10.000  0.6791 -0.3837  1.7911
  730MOL0     H98527   9.637   3.252  10.023 -1.3861 -0.7700 -1.4530
  730MOL0     H98528   9.535   3.491   9.869  4.5343 -1.1294  0.1025
  730MOL0     H98529   9.422   3.362   9.936 -0.3323  3.2652  1.2190
  730MOL0     H98530   9.640   3.342   9.731 -0.0937 -1.0731 -1.5089
  730MOL0     H98531   9.468   3.360   9.699  0.1746  3.3115  0.2598
  730MOL0     H98532   9.620   3.835  10.783  0.4542 -0.0557  2.2318
  730MOL0     H98533   9.470   3.797  10.977 -2.6211 -1.8959  1.7724
  730MOL0     H98534   9.248   3.666  11.324 -0.3062 -0.6452  0.6777
  730MOL0     H98535   9.051   3.676  11.462  2.0407  1.3645  0.2249
  730MOL0     H98536   8.851   2.687  10.872  0.0555  3.7605 -0.7008
  730MOL0     H98537   8.930   2.532  10.700 -1.2499  0.2785  1.0264
  730MOL0     H98538   9.135   2.310  10.474  0.8395  2.5481 -0.9981
  730MOL0     H98539   9.232   2.086  10.381 -0.4568 -0.3098  0.1105
  730MOL0     H98540   9.680   2.071  10.309  1.3669  1.1751 -1.6434
  730MOL0     H98541   9.613   1.948  10.205  1.6081 -0.0337 -0.2109
  730MOL0     H98542   9.650   2.161  10.064 -1.5310 -0.4818 -1.6434
  730MOL0     H98543   9.553   2.231  10.175  2.9373 -0.9450  1.5566
  730MOL0     H98544   9.367   2.074  10.094 -2.6301  1.4357 -2.2588
  730MOL0     H98545   9.465   2.043   9.954  1.3632  1.8073 -2.6379
  730MOL0     H98546   9.373   2.303  10.048 -0.1739 -2.2249  1.5831
  730MOL0     H98547   9.323   2.229   9.886  0.6704  1.7734 -0.0759
  730MOL0     H98548   9.692   2.413   9.780  0.2282 -2.1172 -0.3087
  730MOL0     H98549   9.623   2.242  10.440 -0.2159 -0.3110 -0.8254
  730MOL0     H98550   9.536   2.439  10.537 -1.8023  4.2593 -4.1432
  731MOL0     O98551   1.151   2.599   3.236 -0.6408  0.4147  0.5764
  731MOL0     C98552   1.033   2.573   3.214 -1.4383  1.2014 -0.5735
  731MOL0     O98553   0.935   2.655   3.198  0.5775 -0.0886 -0.8065
  731MOL0     C98554   0.959   2.795   3.197 -0.6175  0.2798  0.7871
  731MOL0     C98555   0.977   2.867   3.072  0.7074 -0.1881  0.4068
  731MOL0     C98556   0.986   3.006   3.071  0.5080 -0.1758  0.0353
  731MOL0     C98557   0.984   3.086   3.195  0.2498  0.2771  0.5900
  731MOL0     O98558   0.978   3.224   3.200 -0.3530 -0.0389  0.5555
  731MOL0     C98559   1.033   3.306   3.096  0.5746  0.5784  0.7972
  731MOL0     C98560   1.117   3.416   3.161  0.2120  1.0027  0.0880
  731MOL0     C98561   1.088   3.565   3.123 -1.5384  0.5857  0.5705
  731MOL0     C98562   1.190   3.657   3.200  0.3705 -0.1170  0.4130
  731MOL0     C98563   1.145   3.806   3.167  0.1498 -0.9693  0.1749
  731MOL0     C98564   1.267   3.898   3.129  0.6629 -0.2233 -0.2897
  731MOL0     C98565   1.222   4.045   3.114  0.7571  0.5783  0.8473
  731MOL0     C98566   1.326   4.138   3.050  0.3647  0.0158  0.6973
  731MOL0     N98567   1.356   4.110   2.902 -0.2464 -1.2266 -0.2284
  731MOL0     C98568   1.256   4.104   2.815  0.5961 -0.1573  0.1467
  731MOL0     C98569   1.296   4.065   2.693 -1.4590 -0.1987 -0.9360
  731MOL0     C98570   1.217   4.050   2.575  0.2719  0.5396  0.2097
  731MOL0     C98571   1.204   4.192   2.515  0.2127  0.4472 -0.8408
  731MOL0     C98572   1.119   4.181   2.393  0.5286 -0.2548 -0.7028
  731MOL0     C98573   1.119   4.305   2.307  0.5145 -0.1171 -0.0823
  731MOL0     O98574   1.072   4.428   2.364 -0.6039  0.0936  0.2713
  731MOL0     C98575   1.049   4.528   2.279 -0.6261 -0.5840  0.4084
  731MOL0     C98576   0.967   4.628   2.341 -0.7937 -0.0357  1.5921
  731MOL0     C98577   0.933   4.748   2.260  0.5626 -1.0845 -0.0048
  731MOL0     C98578   0.862   4.847   2.342  0.0761 -0.2296 -0.2257
  731MOL0     C98579   0.966   4.754   2.121 -0.6832 -0.3366  0.1906
  731MOL0     C98580   0.931   4.863   2.024  0.2815  0.6024  0.3503
  731MOL0     O98581   0.973   4.844   1.893  0.5157  0.1038 -0.0934
  731MOL0     C98582   0.943   4.954   1.813 -0.7539 -0.3991 -0.4849
  731MOL0     C98583   1.059   5.022   1.755 -0.7934  0.4722  0.8791
  731MOL0     C98584   1.036   5.135   1.683 -1.1894 -0.1199  0.0403
  731MOL0     C98585   0.906   5.168   1.658 -0.1925  0.5185  0.0300
  731MOL0     O98586   0.901   5.277   1.577 -0.4755  0.7497 -0.9428
  731MOL0     C98587   0.794   5.370   1.595  0.1024  0.6980  0.1955
  731MOL0     C98588   0.829   5.511   1.545  0.0161 -0.8684  1.1720
  731MOL0     C98589   0.850   5.516   1.388 -0.4924 -0.7507  0.6114
  731MOL0     C98590   0.746   5.618   1.331 -0.2130  0.1904  1.5691
  731MOL0     C98591   0.713   5.570   1.178  0.3379  0.5849 -0.4660
  731MOL0     C98592   0.824   5.606   1.091 -0.0053 -0.2472  0.3723
  731MOL0     C98593   0.855   5.487   0.994  0.3605  0.2904  0.1203
  731MOL0     C98594   0.938   5.536   0.872 -0.0386 -0.2525  0.1304
  731MOL0    Cl98595   1.103   5.564   0.940  0.1756 -0.5402 -0.1186
  731MOL0     C98596   0.795   5.107   1.704  0.3659 -0.0684  0.9367
  731MOL0     C98597   0.815   4.992   1.782  0.1745 -0.2330  0.4052
  731MOL0     O98598   0.867   4.957   2.067  0.0988  1.0173  0.4121
  731MOL0     C98599   1.030   4.644   2.063  0.0230  0.2446 -0.4052
  731MOL0     C98600   1.074   4.534   2.139  0.5170 -0.7351 -0.2887
  731MOL0     N98601   1.439   4.043   2.708 -0.0384  0.2289 -0.3499
  731MOL0     N98602   1.466   4.054   2.838 -0.7545 -0.2396  0.3216
  731MOL0     C98603   0.973   3.009   3.313  0.6359  1.1058 -0.0825
  731MOL0     C98604   0.957   2.865   3.319  0.5988  0.1256 -0.6577
  731MOL0     C98605   0.990   2.434   3.244  0.8979 -0.2150 -0.6225
  731MOL0     C98606   1.083   2.329   3.272  0.2094 -0.4706 -0.2736
  731MOL0     C98607   1.038   2.203   3.296 -0.0310  0.6773  0.1448
  731MOL0     C98608   0.907   2.164   3.262 -0.2934  0.0898 -0.3994
  731MOL0     O98609   0.872   2.034   3.277 -0.0770 -0.9255  0.1486
  731MOL0     C98610   0.925   1.942   3.182  0.2800  0.7733  0.6314
  731MOL0     C98611   0.851   1.937   3.043 -0.1694 -0.9626 -0.8525
  731MOL0     C98612   0.698   1.910   3.046 -0.7888  0.3153 -0.0795
  731MOL0     C98613   0.644   1.847   2.917 -0.6435  0.4361 -0.3323
  731MOL0     C98614   0.670   1.931   2.805  0.2204 -0.0022 -0.2221
  731MOL0     C98615   0.665   2.009   2.715 -0.1201  0.1720  0.5811
  731MOL0     C98616   0.821   2.256   3.221  0.3017  0.1640  0.6014
  731MOL0     C98617   0.859   2.394   3.215 -0.3829  0.0742  0.5480
  731MOL0     H98618   0.985   2.814   2.977  1.7585  1.0051 -0.1911
  731MOL0     H98619   0.972   3.061   2.978 -0.1438  0.0342  0.2551
  731MOL0     H98620   1.104   3.244   3.040 -3.1849 -1.2536 -2.3813
  731MOL0     H98621   0.950   3.346   3.037  0.3942  0.1105  0.7236
  731MOL0     H98622   1.094   3.409   3.268  1.2890  2.0626  0.4099
  731MOL0     H98623   1.223   3.394   3.144 -0.9531 -5.7886 -1.6984
  731MOL0     H98624   1.102   3.594   3.019  1.6853  1.1914  1.0663
  731MOL0     H98625   0.990   3.596   3.161 -2.8867  1.2160 -3.0253
  731MOL0     H98626   1.190   3.646   3.308  2.7917  0.8979  0.5784
  731MOL0     H98627   1.291   3.638   3.162  0.3611  1.3333 -0.4305
  731MOL0     H98628   1.074   3.820   3.085  0.2267  0.0742  0.2690
  731MOL0     H98629   1.085   3.842   3.250  0.2341 -0.1755 -0.1016
  731MOL0     H98630   1.333   3.895   3.217 -0.9028  3.7174  1.2504
  731MOL0     H98631   1.287   3.854   3.031 -3.2743 -5.7989  0.9302
  731MOL0     H98632   1.136   4.035   3.047  0.3627 -0.3648  1.4736
  731MOL0     H98633   1.199   4.085   3.213  2.7623  2.6220  0.5640
  731MOL0     H98634   1.423   4.124   3.098  1.3608 -1.9851 -1.6587
  731MOL0     H98635   1.289   4.240   3.062  0.8976  0.0334  2.4525
  731MOL0     H98636   1.151   4.127   2.830  1.0962  1.4505  1.4524
  731MOL0     H98637   1.270   3.979   2.511  0.2302  0.0844  0.6720
  731MOL0     H98638   1.119   4.004   2.592 -0.1737  1.3584 -0.0690
  731MOL0     H98639   1.305   4.226   2.492  1.7803 -1.6120  2.2101
  731MOL0     H98640   1.151   4.256   2.587  1.0018  0.3887 -0.1881
  731MOL0     H98641   1.022   4.162   2.441 -0.0482  1.7516 -0.9789
  731MOL0     H98642   1.141   4.101   2.321 -1.5243 -0.9086 -0.6727
  731MOL0     H98643   1.054   4.274   2.225 -2.4310  0.0433  2.0032
  731MOL0     H98644   1.222   4.322   2.273  0.6952 -3.0404 -1.2984
  731MOL0     H98645   0.949   4.628   2.448 -4.3947 -0.4806  1.1027
  731MOL0     H98646   0.938   4.924   2.362  2.4396 -2.0135 -1.8116
  731MOL0     H98647   0.785   4.898   2.282  0.5708  0.5215 -0.2457
  731MOL0     H98648   0.822   4.805   2.434  1.1560 -0.0477  0.3385
  731MOL0     H98649   1.153   4.971   1.772 -1.4493 -1.3113 -0.5941
  731MOL0     H98650   1.130   5.181   1.651 -1.2883  0.7976  0.9912
  731MOL0     H98651   0.704   5.340   1.542 -1.0603 -0.5278  2.6939
  731MOL0     H98652   0.771   5.376   1.701  1.6338  1.5956  0.5112
  731MOL0     H98653   0.760   5.588   1.580  0.7529 -0.2501  1.2899
  731MOL0     H98654   0.921   5.529   1.602 -0.0774 -1.0695  1.3894
  731MOL0     H98655   0.834   5.419   1.339  0.3555 -1.1284  1.0615
  731MOL0     H98656   0.954   5.538   1.361 -0.6283 -3.1103 -2.4550
  731MOL0     H98657   0.655   5.607   1.389 -2.0280  0.6599 -1.0229
  731MOL0     H98658   0.790   5.719   1.336 -2.0252  1.1089  0.1924
  731MOL0     H98659   0.620   5.622   1.152  0.6755  1.3200 -0.2183
  731MOL0     H98660   0.681   5.465   1.175 -1.1818  1.0077 -3.6700
  731MOL0     H98661   0.806   5.702   1.041 -1.6082 -0.2815  0.8196
  731MOL0     H98662   0.913   5.632   1.150 -0.9610  0.6569  1.4652
  731MOL0     H98663   0.759   5.456   0.952  1.8922 -4.0311 -0.6337
  731MOL0     H98664   0.892   5.399   1.046  0.7740 -0.6016 -1.6036
  731MOL0     H98665   0.892   5.623   0.824 -1.8295 -0.4998  1.3127
  731MOL0     H98666   0.946   5.451   0.804 -1.0950  1.9227 -2.9132
  731MOL0     H98667   0.700   5.131   1.658 -0.3687 -3.8833  0.1586
  731MOL0     H98668   0.729   4.941   1.825 -0.4149  0.7558  0.4401
  731MOL0     H98669   1.049   4.639   1.956  1.1893 -1.9041 -0.1709
  731MOL0     H98670   1.126   4.452   2.091  2.5746  0.4467 -0.2360
  731MOL0     H98671   0.988   3.076   3.398  3.5370  1.2034 -0.5655
  731MOL0     H98672   0.952   2.810   3.412 -0.2420  1.3252  0.0358
  731MOL0     H98673   1.185   2.354   3.298  0.4213 -0.4736 -1.0798
  731MOL0     H98674   1.117   2.138   3.331  0.8805  1.9879  0.6109
  731MOL0     H98675   1.030   1.968   3.168  0.3672  1.7805  2.6668
  731MOL0     H98676   0.918   1.844   3.231 -0.7856  0.6340  0.2367
  731MOL0     H98677   0.908   1.860   2.991  2.2259  0.1880 -0.1086
  731MOL0     H98678   0.875   2.033   2.997 -0.3756 -0.4864  0.0035
  731MOL0     H98679   0.640   2.002   3.061 -2.4508 -0.5461 -0.9282
  731MOL0     H98680   0.685   1.828   3.117 -0.4235  1.0256  0.8278
  731MOL0     H98681   0.537   1.825   2.923 -0.8701  0.9203 -2.0434
  731MOL0     H98682   0.702   1.757   2.893  1.0256  0.0543  4.2109
  731MOL0     H98683   0.640   2.078   2.637  0.6946 -0.6088 -0.4073
  731MOL0     H98684   0.722   2.219   3.195 -0.3009  1.1902  1.3756
  731MOL0     H98685   0.788   2.459   3.164 -1.0633 -1.0258  0.0683
  732MOL0     O98686   7.544  10.920   3.034  0.0196 -0.2227 -0.2957
  732MOL0     C98687   7.476  11.016   3.072 -0.8627  0.5459  0.4863
  732MOL0     O98688   7.487  11.143   3.025  0.4970  0.6184  0.5900
  732MOL0     C98689   7.573  11.178   2.924 -0.3557 -0.1923 -0.5195
  732MOL0     C98690   7.718  11.182   2.933  1.1324  0.5980  1.1728
  732MOL0     C98691   7.791  11.234   2.820  0.3068 -0.0745  0.4256
  732MOL0     C98692   7.725  11.278   2.707 -0.8232  0.4700 -0.3345
  732MOL0     O98693   7.792  11.322   2.587  0.6330  0.2669  0.2548
  732MOL0     C98694   7.921  11.379   2.591 -0.1722 -0.1536  0.3843
  732MOL0     C98695   7.923  11.504   2.677 -0.7545 -0.0062  0.0528
  732MOL0     C98696   7.818  11.620   2.635 -0.6467  0.0438  0.0372
  732MOL0     C98697   7.878  11.756   2.660 -0.2075 -0.6104  0.7008
  732MOL0     C98698   7.777  11.858   2.605 -0.1311  0.5884  1.1803
  732MOL0     C98699   7.786  11.872   2.448 -0.0061  0.0898  0.0426
  732MOL0     C98700   7.892  11.970   2.398  0.4628 -0.9100 -0.2737
  732MOL0     C98701   7.848  12.063   2.279 -0.1072  0.3082  0.4101
  732MOL0     N98702   7.967  12.142   2.235  0.8771 -1.1577  0.2443
  732MOL0     C98703   8.008  12.167   2.100 -0.7689  0.1352  0.4514
  732MOL0     C98704   8.105  12.262   2.104  0.2472  0.1093  0.1389
  732MOL0     C98705   8.173  12.327   1.982 -0.7636 -0.2919 -0.3769
  732MOL0     C98706   8.242  12.461   2.001  0.3358 -1.6623 -0.1164
  732MOL0     C98707   8.304  12.489   1.856 -0.2304  0.2563  1.0014
  732MOL0     C98708   8.390  12.608   1.852 -0.0955 -0.8101 -0.0052
  732MOL0     O98709   8.322  12.733   1.880 -0.4413 -0.0886  0.1673
  732MOL0     C98710   8.226  12.795   1.797 -0.3761  0.2025 -0.5968
  732MOL0     C98711   8.207  12.781   1.664 -0.1696  1.2973 -0.4948
  732MOL0     C98712   8.132  12.862   1.584 -0.7310  0.4283 -0.6389
  732MOL0     C98713   8.139  12.838   1.432  0.7605  0.5635 -0.5627
  732MOL0     C98714   8.048  12.953   1.648 -0.9807 -0.2276  0.6690
  732MOL0     C98715   7.954  13.063   1.588 -1.4909 -0.1618 -0.4295
  732MOL0     O98716   7.877  13.139   1.662  0.5097 -0.8519  0.6929
  732MOL0     C98717   7.791  13.241   1.603 -0.9922 -0.1763 -0.7255
  732MOL0     C98718   7.740  13.232   1.479  0.2617 -0.8590  0.2498
  732MOL0     C98719   7.686  13.348   1.419 -0.5968  0.2209 -0.8211
  732MOL0     C98720   7.667  13.462   1.497 -0.3802 -0.3445  0.1438
  732MOL0     O98721   7.616  13.579   1.445 -0.4140  0.5467 -1.0805
  732MOL0     C98722   7.477  13.586   1.414  0.4284 -0.4181 -0.5257
  732MOL0     C98723   7.444  13.713   1.490  0.2648 -0.1431  0.3185
  732MOL0     C98724   7.295  13.743   1.493  0.4538 -0.1277 -0.4206
  732MOL0     C98725   7.255  13.894   1.529  0.0285 -0.8524 -0.8986
  732MOL0     C98726   7.108  13.925   1.491  0.2060  0.3019  0.0443
  732MOL0     C98727   7.069  14.063   1.552 -0.7945  0.3050  0.3019
  732MOL0     C98728   6.925  14.089   1.508 -0.6715 -0.2777  0.5343
  732MOL0     C98729   6.867  14.197   1.602 -1.0409  0.9742  0.1900
  732MOL0    Cl98730   6.947  14.358   1.588 -0.3415 -0.0394 -0.1691
  732MOL0     C98731   7.720  13.466   1.621 -0.3571 -0.6788 -0.3658
  732MOL0     C98732   7.774  13.354   1.680  0.4237 -0.0971 -0.1623
  732MOL0     O98733   7.975  13.080   1.465 -0.1969  1.0150  0.3638
  732MOL0     C98734   8.059  12.965   1.788  0.7218 -0.1833  0.7848
  732MOL0     C98735   8.145  12.895   1.856 -0.7619  0.1455  0.0488
  732MOL0     N98736   8.129  12.289   2.242 -0.2969  0.5883  0.5857
  732MOL0     N98737   8.043  12.228   2.315  0.2190  0.1064 -0.1567
  732MOL0     C98738   7.588  11.273   2.704  0.7614  0.4120 -1.2867
  732MOL0     C98739   7.509  11.242   2.818 -0.1460 -0.0311  0.1766
  732MOL0     C98740   7.372  10.991   3.160 -0.1252  1.0780  0.2733
  732MOL0     C98741   7.387  10.901   3.270 -0.3097  0.1089 -0.5047
  732MOL0     C98742   7.278  10.882   3.366  1.0445 -0.4474  0.5473
  732MOL0     C98743   7.155  10.948   3.341  0.4835 -0.0847 -0.0639
  732MOL0     O98744   7.059  10.929   3.436 -0.4550  0.0301 -0.6257
  732MOL0     C98745   6.964  11.032   3.462 -0.6774 -0.0237  0.5473
  732MOL0     C98746   7.049  11.165   3.502 -0.1642  0.4643  0.1505
  732MOL0     C98747   7.148  11.115   3.618 -1.0014  0.3910  0.5028
  732MOL0     C98748   7.255  11.217   3.632  0.3168  0.9963 -0.5078
  732MOL0     C98749   7.346  11.224   3.516  0.8055 -0.3492 -0.4899
  732MOL0     C98750   7.437  11.221   3.440 -0.1800  0.4236  0.1862
  732MOL0     C98751   7.143  11.027   3.225  0.1882  0.1044 -0.3219
  732MOL0     C98752   7.247  11.047   3.136 -0.1541 -0.6338  0.3864
  732MOL0     H98753   7.764  11.145   3.024 -1.0265 -2.2808  1.2004
  732MOL0     H98754   7.899  11.239   2.830  0.4696 -0.1033 -1.1279
  732MOL0     H98755   8.006  11.314   2.612 -0.6715 -1.6561 -1.9465
  732MOL0     H98756   7.935  11.417   2.489 -1.3717  0.3205  0.3710
  732MOL0     H98757   7.895  11.474   2.778 -0.6885 -1.8251 -0.4389
  732MOL0     H98758   8.023  11.549   2.680 -1.1502  0.8765  0.0644
  732MOL0     H98759   7.794  11.609   2.529  3.2683 -1.9686 -0.8592
  732MOL0     H98760   7.728  11.601   2.695 -1.5164 -1.2860 -1.6262
  732MOL0     H98761   7.891  11.771   2.768 -1.5863  0.4540  0.7482
  732MOL0     H98762   7.968  11.775   2.600 -1.1475 -0.2058 -0.6345
  732MOL0     H98763   7.672  11.834   2.626  0.1588 -0.0465  1.9193
  732MOL0     H98764   7.792  11.957   2.650  0.6517 -0.5638  3.5966
  732MOL0     H98765   7.803  11.773   2.404  0.8714 -0.2348  1.0535
  732MOL0     H98766   7.687  11.911   2.424  0.7916  1.2357 -1.6294
  732MOL0     H98767   7.924  12.040   2.475  1.4244 -2.0466  0.3878
  732MOL0     H98768   7.983  11.913   2.378  2.2430  0.8845  2.0472
  732MOL0     H98769   7.771  12.139   2.297  1.7755  2.9732 -1.9579
  732MOL0     H98770   7.817  11.999   2.195  0.4261 -2.2348  2.0526
  732MOL0     H98771   7.973  12.115   2.012  1.2558 -3.5738  1.6233
  732MOL0     H98772   8.242  12.253   1.942 -1.8384 -1.4193 -0.2036
  732MOL0     H98773   8.092  12.333   1.909 -0.0352 -2.0841 -1.3868
  732MOL0     H98774   8.318  12.450   2.079  1.9774 -2.4566 -1.7401
  732MOL0     H98775   8.168  12.539   2.024  0.5559 -1.5120  0.0854
  732MOL0     H98776   8.219  12.509   1.791 -2.5244 -1.2299  3.3285
  732MOL0     H98777   8.365  12.402   1.831  0.7018  1.4499 -1.1904
  732MOL0     H98778   8.440  12.618   1.754 -1.0307  0.1429 -0.4034
  732MOL0     H98779   8.465  12.593   1.930 -0.4261 -0.2254  0.4252
  732MOL0     H98780   8.260  12.703   1.610  3.7862  2.4143  1.4079
  732MOL0     H98781   8.185  12.742   1.405  1.2407 -0.1610  2.4607
  732MOL0     H98782   8.036  12.860   1.402 -0.3288  2.1168  3.5848
  732MOL0     H98783   8.205  12.915   1.391 -0.6164  0.5305 -3.0155
  732MOL0     H98784   7.757  13.138   1.427  0.2242 -2.1527  2.4558
  732MOL0     H98785   7.666  13.353   1.312  0.2543  1.0573 -0.9578
  732MOL0     H98786   7.438  13.601   1.313 -4.2950 -0.8484  1.0059
  732MOL0     H98787   7.428  13.504   1.468  1.7636  1.7576  4.6695
  732MOL0     H98788   7.474  13.715   1.595  2.8469 -2.0610 -0.3128
  732MOL0     H98789   7.501  13.793   1.442 -2.0550  1.6050  0.2897
  732MOL0     H98790   7.255  13.677   1.571  2.8969 -0.8028  0.3560
  732MOL0     H98791   7.250  13.708   1.399 -2.6714  1.0619  0.4904
  732MOL0     H98792   7.268  13.893   1.638 -3.3852 -0.8887 -0.3775
  732MOL0     H98793   7.331  13.960   1.488  0.4881 -0.3088  0.7721
  732MOL0     H98794   7.038  13.849   1.526 -0.3360  0.1758 -1.2617
  732MOL0     H98795   7.109  13.921   1.382  1.4687 -3.2077  0.0622
  732MOL0     H98796   7.082  14.046   1.660 -1.1578  0.1784  0.3273
  732MOL0     H98797   7.120  14.157   1.528 -4.0940  1.8776 -1.0549
  732MOL0     H98798   6.872  13.994   1.507 -1.4015  0.0839 -1.5392
  732MOL0     H98799   6.917  14.142   1.412 -0.2244  4.6955  2.9445
  732MOL0     H98800   6.876  14.166   1.706  3.3108  0.9357 -0.0223
  732MOL0     H98801   6.762  14.216   1.579 -0.3639  0.1713 -4.6164
  732MOL0     H98802   7.714  13.568   1.659 -4.6216 -0.0335 -2.1623
  732MOL0     H98803   7.814  13.346   1.780  0.9252 -2.1658 -0.4781
  732MOL0     H98804   7.996  13.027   1.851 -3.8715 -3.5974  0.0644
  732MOL0     H98805   8.162  12.912   1.962  0.0454 -1.3471  0.1861
  732MOL0     H98806   7.538  11.317   2.618  1.7347  1.6131 -1.2615
  732MOL0     H98807   7.404  11.269   2.814 -0.8968 -2.7100 -3.4872
  732MOL0     H98808   7.485  10.864   3.295  0.8517  2.4524 -1.2877
  732MOL0     H98809   7.302  10.814   3.447 -1.0725 -2.1703 -0.1796
  732MOL0     H98810   6.908  11.061   3.373  0.8160  2.5207  0.3517
  732MOL0     H98811   6.889  11.007   3.537 -2.5165 -2.1999 -1.8402
  732MOL0     H98812   6.992  11.243   3.553 -0.9116 -1.1040  1.8159
  732MOL0     H98813   7.103  11.203   3.415 -0.3920 -0.0424 -0.2243
  732MOL0     H98814   7.207  11.027   3.592  0.3463  1.1838  0.7646
  732MOL0     H98815   7.094  11.093   3.711 -0.9464 -0.4790  0.3398
  732MOL0     H98816   7.311  11.184   3.720 -0.0640 -2.8237 -1.5339
  732MOL0     H98817   7.207  11.312   3.657 -1.3004 -0.2795  1.5165
  732MOL0     H98818   7.523  11.219   3.376  0.3993 -0.2679  0.9753
  732MOL0     H98819   7.052  11.077   3.193 -0.1859  0.6179  1.4589
  732MOL0     H98820   7.227  11.115   3.054  0.7687 -0.7441  0.0586
  733MOL0     O98821   6.600   7.464   0.293 -0.3295  0.9846 -0.3815
  733MOL0     C98822   6.569   7.416   0.403  0.5879 -0.1912  0.2186
  733MOL0     O98823   6.439   7.386   0.436  0.5268  0.3543  0.5070
  733MOL0     C98824   6.341   7.436   0.356 -0.7531  0.1965 -0.1185
  733MOL0     C98825   6.235   7.348   0.315 -0.3471 -0.4947  0.1166
  733MOL0     C98826   6.125   7.403   0.247 -0.4767 -0.1850 -0.1968
  733MOL0     C98827   6.116   7.533   0.212  0.1181 -0.2726 -0.2117
  733MOL0     O98828   6.008   7.578   0.133 -0.3186 -0.1511  0.2995
  733MOL0     C98829   6.035   7.685   0.045 -0.3354 -0.5545  0.2023
  733MOL0     C98830   5.921   7.675  -0.046  0.6039 -0.2634  0.3107
  733MOL0     C98831   5.926   7.558  -0.147  0.4656 -0.3366  0.4808
  733MOL0     C98832   5.804   7.575  -0.238  0.5510 -0.0193 -0.8759
  733MOL0     C98833   5.794   7.479  -0.357  0.1151 -0.0536 -0.8171
  733MOL0     C98834   5.691   7.524  -0.457  0.4693  0.0576 -0.5832
  733MOL0     C98835   5.724   7.651  -0.555  0.3195  0.0874 -0.0999
  733MOL0     C98836   5.600   7.711  -0.625 -0.1080  0.1542  0.3559
  733MOL0     N98837   5.498   7.748  -0.525 -0.0404 -0.6363  0.0980
  733MOL0     C98838   5.496   7.841  -0.415  0.7254 -0.1732  0.9679
  733MOL0     C98839   5.383   7.805  -0.351  0.0743 -0.2443 -0.2775
  733MOL0     C98840   5.331   7.866  -0.219 -0.6393 -0.7397 -0.6430
  733MOL0     C98841   5.405   7.786  -0.118 -0.7386 -0.2256 -0.7587
  733MOL0     C98842   5.548   7.834  -0.070 -0.7930 -0.6946  0.1515
  733MOL0     C98843   5.544   7.973  -0.011 -0.6412  0.3266  0.6574
  733MOL0     O98844   5.497   7.958   0.119  0.3025  0.3129  0.4484
  733MOL0     C98845   5.367   7.980   0.150 -0.4270 -0.9337 -0.7969
  733MOL0     C98846   5.313   7.899   0.251  0.1110  0.2949  0.9531
  733MOL0     C98847   5.181   7.905   0.287 -0.0150  0.4067  0.0706
  733MOL0     C98848   5.142   7.806   0.391  0.1321 -0.3327  0.8047
  733MOL0     C98849   5.092   7.994   0.216 -0.1934  0.1647 -0.4102
  733MOL0     C98850   4.955   8.023   0.259 -0.0154  1.0925  0.3316
  733MOL0     O98851   4.894   8.129   0.194  0.3154 -0.4750  0.4287
  733MOL0     C98852   4.760   8.133   0.205  0.3195  0.8287  0.4222
  733MOL0     C98853   4.702   8.246   0.260  0.1366  0.1032  0.3037
  733MOL0     C98854   4.570   8.279   0.231  1.0842  0.4657 -0.1154
  733MOL0     C98855   4.490   8.194   0.148  0.1077  0.0456  0.2399
  733MOL0     O98856   4.359   8.236   0.114  0.7463  0.3668 -0.5557
  733MOL0     C98857   4.317   8.208  -0.017  0.9845 -1.0267  1.0441
  733MOL0     C98858   4.262   8.341  -0.067 -0.1855 -0.2315  0.8991
  733MOL0     C98859   4.349   8.464  -0.055  0.8055 -1.2042 -0.5418
  733MOL0     C98860   4.275   8.579  -0.130 -0.5908  0.0937  0.7029
  733MOL0     C98861   4.342   8.712  -0.144  0.9395 -0.2919 -0.0358
  733MOL0     C98862   4.419   8.775  -0.027 -0.5543  0.3318  0.2201
  733MOL0     C98863   4.418   8.935  -0.034 -0.8024 -0.2698 -0.2675
  733MOL0     C98864   4.528   8.987   0.054 -0.2161  0.1549  0.1759
  733MOL0    Cl98865   4.691   8.943  -0.013 -0.2656  0.2055  0.6190
  733MOL0     C98866   4.547   8.079   0.112  0.4384  0.8371  0.2766
  733MOL0     C98867   4.680   8.048   0.132 -0.7944 -0.4622 -0.8335
  733MOL0     O98868   4.896   7.936   0.322  0.0156 -0.4400  0.2875
  733MOL0     C98869   5.147   8.073   0.115  0.3167 -0.6645  0.3522
  733MOL0     C98870   5.283   8.069   0.086 -0.3174  0.0045 -0.2570
  733MOL0     N98871   5.309   7.701  -0.411  0.6386  0.5223  0.2901
  733MOL0     N98872   5.378   7.677  -0.516  0.0736 -0.0338 -0.6463
  733MOL0     C98873   6.215   7.623   0.253 -0.2737 -0.2774 -0.4079
  733MOL0     C98874   6.326   7.574   0.320 -0.2436 -0.0202  0.5928
  733MOL0     C98875   6.671   7.380   0.499  0.7592  0.9231 -0.6535
  733MOL0     C98876   6.643   7.352   0.635 -0.8180 -0.8867  0.3052
  733MOL0     C98877   6.743   7.332   0.723  0.1567  0.0870 -0.4401
  733MOL0     C98878   6.872   7.308   0.694 -0.8755 -0.1664 -0.2842
  733MOL0     O98879   6.973   7.285   0.783  0.6778  0.3023  0.1768
  733MOL0     C98880   6.945   7.252   0.919  0.2045 -1.2021 -0.2764
  733MOL0     C98881   6.887   7.117   0.939  1.0474  0.0525 -0.2629
  733MOL0     C98882   6.979   7.005   0.896  0.0415 -0.3540  0.1496
  733MOL0     C98883   7.080   6.972   1.003  1.1872 -0.0522 -0.8626
  733MOL0     C98884   7.029   6.888   1.118  0.2950  0.3042 -0.5250
  733MOL0     C98885   6.995   6.832   1.219 -0.2453 -1.2287  0.1984
  733MOL0     C98886   6.906   7.306   0.559  0.2927  0.5455 -0.5356
  733MOL0     C98887   6.804   7.346   0.464 -0.7143 -0.0340  0.2070
  733MOL0     H98888   6.228   7.241   0.328 -1.6962 -0.2281  2.0218
  733MOL0     H98889   6.057   7.328   0.207  1.0902 -1.9197  0.2558
  733MOL0     H98890   6.016   7.773   0.106 -1.1584 -2.0067  2.1517
  733MOL0     H98891   6.128   7.684  -0.013 -1.3099 -1.7032 -1.4047
  733MOL0     H98892   5.828   7.667   0.011 -0.8398 -0.5273 -1.9462
  733MOL0     H98893   5.928   7.769  -0.101 -0.2937  0.3660  1.2200
  733MOL0     H98894   6.021   7.546  -0.199  0.7902 -2.9598  1.5202
  733MOL0     H98895   5.918   7.463  -0.093  2.6122 -1.7610 -1.5310
  733MOL0     H98896   5.715   7.552  -0.180  0.5360  1.6138 -0.1998
  733MOL0     H98897   5.814   7.679  -0.272  0.5611 -0.1517 -1.2795
  733MOL0     H98898   5.897   7.479  -0.392 -0.0324  0.3226 -1.2595
  733MOL0     H98899   5.782   7.374  -0.327 -2.5216  0.6037  0.7476
  733MOL0     H98900   5.677   7.446  -0.533  0.8136 -0.4071 -0.1795
  733MOL0     H98901   5.597   7.531  -0.402  1.3717 -1.1213  1.2181
  733MOL0     H98902   5.777   7.734  -0.507  1.3064 -2.0980  2.8326
  733MOL0     H98903   5.791   7.619  -0.635  0.2958  0.4904 -0.2851
  733MOL0     H98904   5.562   7.631  -0.689 -2.1238  1.1701  0.1905
  733MOL0     H98905   5.618   7.800  -0.686  4.0292  0.4026  1.6092
  733MOL0     H98906   5.566   7.916  -0.379 -0.3195  2.2820 -1.7499
  733MOL0     H98907   5.340   7.972  -0.194  3.4040 -1.3525  1.2973
  733MOL0     H98908   5.226   7.843  -0.197 -0.7164 -0.1129 -0.3283
  733MOL0     H98909   5.422   7.686  -0.158  0.6675  0.0241 -0.8323
  733MOL0     H98910   5.345   7.783  -0.026  0.1057  0.5802 -0.1488
  733MOL0     H98911   5.610   7.818  -0.158  0.4075 -4.6288  1.5014
  733MOL0     H98912   5.588   7.760   0.001 -0.6950 -1.3677 -0.5956
  733MOL0     H98913   5.482   8.035  -0.076 -3.8188 -2.2594  0.9873
  733MOL0     H98914   5.643   8.020  -0.003 -0.3571 -0.4686  2.3861
  733MOL0     H98915   5.394   7.838   0.290  0.5736 -2.1040 -3.1430
  733MOL0     H98916   5.123   7.867   0.481 -0.0739 -1.0896  1.2822
  733MOL0     H98917   5.053   7.758   0.349  0.8044 -1.0419  0.1757
  733MOL0     H98918   5.226   7.737   0.404  2.2974  1.6067 -1.9140
  733MOL0     H98919   4.761   8.314   0.320  1.7940  0.9819 -2.1358
  733MOL0     H98920   4.515   8.356   0.284  0.7824 -0.5077  1.0524
  733MOL0     H98921   4.399   8.175  -0.082 -0.5365  1.2134 -2.3326
  733MOL0     H98922   4.233   8.138  -0.018  0.6366 -0.6138  0.6449
  733MOL0     H98923   4.250   8.330  -0.176  1.0385  1.4649  0.5467
  733MOL0     H98924   4.163   8.351  -0.021 -1.6704 -3.3106 -1.2773
  733MOL0     H98925   4.449   8.464  -0.098  1.0423 -0.3343 -0.0229
  733MOL0     H98926   4.348   8.502   0.048 -0.1463  1.5897 -1.4769
  733MOL0     H98927   4.246   8.548  -0.231  0.8559  1.1242 -0.0670
  733MOL0     H98928   4.183   8.600  -0.074 -1.2170 -2.3636  0.7181
  733MOL0     H98929   4.268   8.779  -0.188  0.6907 -0.1943  0.5167
  733MOL0     H98930   4.422   8.690  -0.214 -0.3575  0.0677 -1.6778
  733MOL0     H98931   4.374   8.749   0.070  0.4761 -3.2405 -0.1041
  733MOL0     H98932   4.519   8.730  -0.027 -0.1833  1.1336  0.0590
  733MOL0     H98933   4.325   8.976   0.006 -0.1591 -0.7233  1.8028
  733MOL0     H98934   4.449   8.965  -0.135  3.8161 -1.3072  0.5923
  733MOL0     H98935   4.524   8.957   0.159  1.9911  1.2033  0.6001
  733MOL0     H98936   4.519   9.095   0.043  0.3531 -0.0222 -2.8540
  733MOL0     H98937   4.485   8.010   0.056  1.4154  0.7770 -0.7567
  733MOL0     H98938   4.730   7.955   0.105 -0.1817 -0.1216 -0.8734
  733MOL0     H98939   5.095   8.152   0.061  2.0069  0.3358  0.1028
  733MOL0     H98940   5.318   8.124  -0.001 -0.6730 -0.7743 -0.9072
  733MOL0     H98941   6.231   7.726   0.221 -0.1650 -0.8840 -2.4230
  733MOL0     H98942   6.396   7.650   0.355  2.9141 -2.3581 -0.1883
  733MOL0     H98943   6.539   7.354   0.668 -1.2531 -0.6842 -0.9973
  733MOL0     H98944   6.709   7.325   0.826  3.2050 -2.0496  0.5803
  733MOL0     H98945   7.036   7.261   0.978 -1.0337 -2.9295  2.0786
  733MOL0     H98946   6.873   7.324   0.961  0.3399 -0.6885 -0.9060
  733MOL0     H98947   6.788   7.097   0.898  0.3786 -1.5018  1.9041
  733MOL0     H98948   6.878   7.110   1.048  2.0647 -2.4995 -0.2746
  733MOL0     H98949   7.039   7.043   0.813  0.0740  1.2640  0.8765
  733MOL0     H98950   6.940   6.908   0.862  1.9941 -0.2407 -2.6990
  733MOL0     H98951   7.110   7.064   1.055 -0.4598  1.1164 -1.8780
  733MOL0     H98952   7.164   6.923   0.953  2.1292  3.1279 -2.6866
  733MOL0     H98953   6.976   6.776   1.308 -1.8788 -0.6954  0.2305
  733MOL0     H98954   7.006   7.278   0.527 -0.2155 -1.5534 -0.3988
  733MOL0     H98955   6.825   7.366   0.359 -3.1292 -1.1810 -0.5666
  734MOL0     O98956   1.852   2.070   1.658  0.8825  0.3323 -0.1084
  734MOL0     C98957   1.759   2.133   1.698  0.4724  0.2793  0.1906
  734MOL0     O98958   1.653   2.175   1.629  0.3525  0.2000 -0.6431
  734MOL0     C98959   1.631   2.152   1.501 -1.2328 -0.4330  1.1780
  734MOL0     C98960   1.546   2.244   1.441 -0.8036 -0.0506 -0.1701
  734MOL0     C98961   1.497   2.231   1.303 -1.4200 -0.4419  0.8284
  734MOL0     C98962   1.539   2.125   1.223 -0.3225  0.6211  0.1109
  734MOL0     O98963   1.480   2.090   1.099 -0.8514 -0.4367  0.4941
  734MOL0     C98964   1.450   1.952   1.077 -0.3792  0.0815 -0.6243
  734MOL0     C98965   1.361   1.934   0.961 -0.3511 -0.8044  0.5163
  734MOL0     C98966   1.434   1.938   0.820 -0.0376  0.0951  0.0003
  734MOL0     C98967   1.336   1.865   0.719  0.3684  0.4373  0.1533
  734MOL0     C98968   1.359   1.922   0.571 -0.6499 -0.2223  0.2750
  734MOL0     C98969   1.294   1.824   0.465 -0.3682  0.5944 -0.0469
  734MOL0     C98970   1.224   1.889   0.344 -0.4106  0.6740  0.6914
  734MOL0     C98971   1.152   1.786   0.262 -0.8869  0.0159 -0.2463
  734MOL0     N98972   1.140   1.828   0.126 -0.0823  0.7148 -0.9934
  734MOL0     C98973   1.228   1.811   0.021 -0.3660  0.3644 -0.3712
  734MOL0     C98974   1.177   1.884  -0.081  1.0940  0.1229 -0.4932
  734MOL0     C98975   1.242   1.904  -0.213 -0.0827 -0.6550 -0.4009
  734MOL0     C98976   1.250   1.775  -0.293 -0.0076 -0.8811 -0.4117
  734MOL0     C98977   1.120   1.723  -0.372  0.5098 -0.0056 -0.4297
  734MOL0     C98978   1.150   1.599  -0.455  0.1118  0.5068  1.1397
  734MOL0     O98979   1.040   1.590  -0.543  0.0944  0.4803  0.3532
  734MOL0     C98980   1.056   1.491  -0.641 -0.3236  0.1213 -0.1580
  734MOL0     C98981   1.161   1.397  -0.641  0.2382  1.0905  0.9412
  734MOL0     C98982   1.186   1.306  -0.750  0.0864 -0.0214  0.1925
  734MOL0     C98983   1.295   1.206  -0.733  0.2015  0.8885  0.4955
  734MOL0     C98984   1.097   1.306  -0.859 -0.0302 -0.4045 -0.2063
  734MOL0     C98985   1.113   1.240  -0.981  0.7725 -0.2244 -0.6484
  734MOL0     O98986   0.995   1.203  -1.039 -0.6566 -1.1111 -0.4961
  734MOL0     C98987   0.994   1.131  -1.156  0.1982 -1.2865  1.1884
  734MOL0     C98988   1.056   1.179  -1.269 -1.0416 -0.8495 -0.2814
  734MOL0     C98989   1.069   1.102  -1.384  0.1977 -1.2218 -0.1839
  734MOL0     C98990   0.991   0.994  -1.396  0.4938 -0.2419  0.1511
  734MOL0     O98991   0.992   0.919  -1.506 -0.1432 -0.5997 -0.5334
  734MOL0     C98992   0.873   0.853  -1.548 -0.1369  0.1062 -0.7970
  734MOL0     C98993   0.910   0.823  -1.688 -0.2321  0.2888  0.9759
  734MOL0     C98994   0.941   0.932  -1.788  1.8555  0.0933 -0.9255
  734MOL0     C98995   1.084   0.993  -1.766  0.1620  0.1224 -0.6847
  734MOL0     C98996   1.132   1.056  -1.903 -0.6240 -0.7596  0.0430
  734MOL0     C98997   1.281   1.098  -1.899  0.9262 -0.9405  0.2641
  734MOL0     C98998   1.327   1.149  -2.033  0.0086 -0.4439  0.0162
  734MOL0     C98999   1.346   1.035  -2.141 -0.0956  0.1019  0.0282
  734MOL0    Cl99000   1.396   1.094  -2.299 -0.1738  0.3790  0.0280
  734MOL0     C99001   0.900   0.964  -1.290 -0.9895  1.2030  0.1726
  734MOL0     C99002   0.896   1.027  -1.161 -0.7240  0.1297  0.5800
  734MOL0     O99003   1.221   1.221  -1.029  0.2854  0.2518  0.4015
  734MOL0     C99004   0.985   1.392  -0.842 -0.2448 -0.1914  0.9835
  734MOL0     C99005   0.966   1.479  -0.742  0.2698  0.0498 -0.5568
  734MOL0     N99006   1.063   1.947  -0.037 -1.0934 -0.3958  0.1897
  734MOL0     N99007   1.042   1.911   0.085  0.0641 -0.6696 -0.0267
  734MOL0     C99008   1.635   2.033   1.284  0.3814 -0.7634  0.0315
  734MOL0     C99009   1.677   2.049   1.414  0.3393  0.0088 -1.2908
  734MOL0     C99010   1.754   2.178   1.843 -0.8293 -0.4068 -0.6073
  734MOL0     C99011   1.864   2.157   1.931 -0.4343  0.2544 -0.2607
  734MOL0     C99012   1.864   2.191   2.066  0.2635 -0.3154 -0.0196
  734MOL0     C99013   1.750   2.257   2.122 -0.0369  1.1234 -0.1474
  734MOL0     O99014   1.766   2.277   2.256  0.0737 -0.5746  0.5852
  734MOL0     C99015   1.659   2.349   2.325  0.4017 -0.5641  0.3364
  734MOL0     C99016   1.681   2.379   2.470  0.0855 -1.3431 -0.3037
  734MOL0     C99017   1.656   2.252   2.554 -0.1369  0.2150  0.2971
  734MOL0     C99018   1.665   2.282   2.707  0.0825 -0.0479  0.4856
  734MOL0     C99019   1.562   2.376   2.741  0.7175 -0.0884  0.0415
  734MOL0     C99020   1.473   2.449   2.771 -0.7943  0.0309 -0.0382
  734MOL0     C99021   1.632   2.264   2.043 -0.6649  0.7456  0.0441
  734MOL0     C99022   1.640   2.229   1.906 -0.6352 -0.4019  0.8623
  734MOL0     H99023   1.491   2.313   1.504 -0.6482 -0.7151  0.7080
  734MOL0     H99024   1.423   2.304   1.271  1.1770  0.7912 -3.2161
  734MOL0     H99025   1.545   1.898   1.065 -0.2717  0.1707 -0.1975
  734MOL0     H99026   1.393   1.912   1.161  0.9381  2.4699  1.5786
  734MOL0     H99027   1.291   1.853   0.983 -2.5817  0.7976 -0.3297
  734MOL0     H99028   1.291   2.018   0.960 -0.4973 -0.8619  2.3020
  734MOL0     H99029   1.460   2.037   0.781  2.8092 -0.8678 -0.8580
  734MOL0     H99030   1.525   1.877   0.815  2.3419  3.3860 -1.0186
  734MOL0     H99031   1.353   1.757   0.723  0.7594  0.4447 -0.8857
  734MOL0     H99032   1.231   1.885   0.740  0.0063 -0.6280 -0.5708
  734MOL0     H99033   1.306   2.018   0.559 -0.4700 -0.0961  0.4814
  734MOL0     H99034   1.466   1.934   0.552 -0.8753  1.9109 -0.0114
  734MOL0     H99035   1.376   1.766   0.422  0.2196  1.7217 -0.4804
  734MOL0     H99036   1.226   1.759   0.521  0.9221 -0.0119  0.8491
  734MOL0     H99037   1.156   1.966   0.382 -1.3315  1.3215 -2.0631
  734MOL0     H99038   1.304   1.940   0.289 -0.5123  1.8487  1.5912
  734MOL0     H99039   1.051   1.775   0.302  0.2020  1.7345  3.3614
  734MOL0     H99040   1.189   1.684   0.275 -3.6119 -0.8212  1.8618
  734MOL0     H99041   1.319   1.753   0.023 -0.6646 -0.0882  0.4270
  734MOL0     H99042   1.174   1.974  -0.262  1.8832  2.4311  0.9377
  734MOL0     H99043   1.332   1.965  -0.201 -1.5176  1.6109 -0.4985
  734MOL0     H99044   1.301   1.695  -0.238  0.2021 -0.3799  0.1336
  734MOL0     H99045   1.308   1.812  -0.378 -0.7009  2.5259  0.4658
  734MOL0     H99046   1.100   1.807  -0.440 -0.9287  0.1352  0.1429
  734MOL0     H99047   1.041   1.704  -0.299 -0.1586  0.3615 -1.0515
  734MOL0     H99048   1.165   1.511  -0.392  1.1688  0.6580  1.1220
  734MOL0     H99049   1.240   1.616  -0.515 -0.8544 -4.4048 -2.2666
  734MOL0     H99050   1.232   1.403  -0.559  1.0647  5.3153  0.1673
  734MOL0     H99051   1.235   1.116  -0.718  1.5509  0.1388  1.6818
  734MOL0     H99052   1.356   1.196  -0.823 -1.5124  0.6798 -0.6739
  734MOL0     H99053   1.366   1.224  -0.651  1.8915  1.2605 -0.9810
  734MOL0     H99054   1.102   1.277  -1.264 -0.4541 -1.1553  0.3947
  734MOL0     H99055   1.143   1.127  -1.459  0.8924  0.6035  1.0409
  734MOL0     H99056   0.854   0.761  -1.493  0.0800  1.0633  0.9688
  734MOL0     H99057   0.789   0.922  -1.554  1.8036  2.5428 -1.7450
  734MOL0     H99058   0.985   0.743  -1.690 -3.5243 -3.0578 -0.9394
  734MOL0     H99059   0.814   0.784  -1.722  0.1668  1.5079 -1.8254
  734MOL0     H99060   0.858   1.004  -1.785  1.8384  0.0391  1.4217
  734MOL0     H99061   0.940   0.884  -1.886 -0.6018 -0.8292 -0.5290
  734MOL0     H99062   1.088   1.077  -1.697 -0.1284  0.5214 -1.1472
  734MOL0     H99063   1.149   0.912  -1.731 -2.0432 -1.0230  1.0413
  734MOL0     H99064   1.088   1.154  -1.928  3.4015  1.0965 -0.5445
  734MOL0     H99065   1.091   0.993  -1.982 -3.4607  1.3277 -0.3462
  734MOL0     H99066   1.277   1.168  -1.815 -1.0824 -1.5524  0.7224
  734MOL0     H99067   1.340   1.016  -1.857 -2.0849 -2.7443  1.2712
  734MOL0     H99068   1.417   1.210  -2.029 -1.3112  1.6516 -0.7482
  734MOL0     H99069   1.254   1.222  -2.070 -0.1900 -0.6622 -0.0271
  734MOL0     H99070   1.258   0.969  -2.147 -2.8069  3.2705  1.7183
  734MOL0     H99071   1.430   0.975  -2.106  0.2775  0.7770  0.2819
  734MOL0     H99072   0.839   0.874  -1.297 -0.2048  0.5598  1.2340
  734MOL0     H99073   0.839   1.007  -1.070 -0.0226 -1.0544  0.7822
  734MOL0     H99074   0.912   1.386  -0.923 -0.3611  0.6721  1.0103
  734MOL0     H99075   0.872   1.531  -0.755 -1.6518 -2.9804  0.0208
  734MOL0     H99076   1.668   1.949   1.225  0.7350 -1.9445  1.8427
  734MOL0     H99077   1.760   1.991   1.452 -1.7174 -2.6694 -0.6387
  734MOL0     H99078   1.955   2.116   1.887 -1.4565 -1.3958 -0.9020
  734MOL0     H99079   1.950   2.176   2.130 -0.0613  0.9343  0.7581
  734MOL0     H99080   1.650   2.439   2.264 -1.1507 -1.4260 -0.7660
  734MOL0     H99081   1.560   2.304   2.312  0.6703 -1.5306  1.3641
  734MOL0     H99082   1.616   2.464   2.491 -0.1538 -1.3161 -1.0927
  734MOL0     H99083   1.787   2.401   2.486  0.0765 -2.6242  1.8084
  734MOL0     H99084   1.714   2.166   2.519  0.2540  0.6242 -0.0721
  734MOL0     H99085   1.548   2.238   2.551 -0.1141 -0.4216  1.7033
  734MOL0     H99086   1.761   2.321   2.740 -0.4884  0.8802  1.1185
  734MOL0     H99087   1.625   2.193   2.756 -2.0808  1.4782  1.6704
  734MOL0     H99088   1.389   2.510   2.801 -0.2430  1.2669 -0.9211
  734MOL0     H99089   1.539   2.304   2.081 -1.5711 -3.3041  2.7031
  734MOL0     H99090   1.547   2.235   1.850 -0.3981 -0.4281  0.4639
  735MOL0     O99091   6.727   2.497   5.086 -0.4878  0.0129  0.4323
  735MOL0     C99092   6.793   2.510   5.188 -0.2372 -0.2473 -0.9434
  735MOL0     O99093   6.824   2.627   5.252 -0.2210 -0.1469 -0.1120
  735MOL0     C99094   6.800   2.739   5.174 -0.9438 -0.2745 -0.7312
  735MOL0     C99095   6.692   2.821   5.220 -0.3140 -0.2561 -0.4268
  735MOL0     C99096   6.679   2.943   5.151  0.8620  0.8994 -1.2460
  735MOL0     C99097   6.779   2.987   5.055 -0.3606 -0.5761  1.0911
  735MOL0     O99098   6.766   3.114   5.005 -0.5402 -0.0261  0.2379
  735MOL0     C99099   6.691   3.215   5.075 -0.6220  0.8203 -0.2000
  735MOL0     C99100   6.709   3.346   4.993 -0.4390 -0.2691  0.2102
  735MOL0     C99101   6.650   3.471   5.036  0.3150 -0.5592 -0.0384
  735MOL0     C99102   6.690   3.518   5.171  0.5421  0.2067  0.4719
  735MOL0     C99103   6.591   3.463   5.275  0.1739 -0.6151 -0.1905
  735MOL0     C99104   6.604   3.522   5.411  1.1454 -0.1414 -0.3843
  735MOL0     C99105   6.518   3.454   5.516  0.5715 -0.0136  0.2015
  735MOL0     C99106   6.526   3.509   5.656 -0.2411 -0.2945 -0.2132
  735MOL0     N99107   6.613   3.425   5.744  1.4010  0.8067  0.2354
  735MOL0     C99108   6.741   3.435   5.761  0.4157 -0.9902 -0.4055
  735MOL0     C99109   6.766   3.341   5.854  0.8076 -1.3121 -0.7331
  735MOL0     C99110   6.900   3.310   5.896  0.4589 -0.1440  0.4329
  735MOL0     C99111   6.908   3.194   5.984  0.6079  0.5576 -0.2846
  735MOL0     C99112   6.858   3.231   6.133  1.0843 -0.5466 -0.0913
  735MOL0     C99113   6.801   3.117   6.219  0.2920 -0.1026  0.0614
  735MOL0     O99114   6.905   3.036   6.249  0.3351  0.0743  0.0552
  735MOL0     C99115   6.882   2.920   6.321 -0.4979  0.2951  0.9643
  735MOL0     C99116   6.761   2.877   6.376 -0.0277 -1.0811 -0.2375
  735MOL0     C99117   6.754   2.756   6.437  0.0452  0.8507  0.3927
  735MOL0     C99118   6.616   2.717   6.483 -0.1302  1.1195 -0.2817
  735MOL0     C99119   6.867   2.666   6.463  0.8324 -0.7436 -0.2181
  735MOL0     C99120   6.871   2.544   6.544  0.3536 -0.3315 -0.4336
  735MOL0     O99121   6.990   2.492   6.559  0.8515  0.5591 -0.0656
  735MOL0     C99122   7.014   2.379   6.646  0.1962 -0.8906 -0.4400
  735MOL0     C99123   6.944   2.260   6.647  1.0350 -0.4559 -0.1771
  735MOL0     C99124   6.951   2.155   6.742  0.1697  0.2373 -0.0706
  735MOL0     C99125   7.027   2.183   6.847 -0.0889  0.0594 -0.4894
  735MOL0     O99126   7.020   2.091   6.944  0.2578  0.5035  0.3607
  735MOL0     C99127   7.143   2.028   6.972 -0.2720 -0.0269 -0.0560
  735MOL0     C99128   7.137   1.891   7.033 -0.2910  0.4308 -0.2090
  735MOL0     C99129   7.129   1.773   6.939  0.0680 -0.5144 -0.5293
  735MOL0     C99130   6.983   1.755   6.913  1.2880 -0.2952  0.3375
  735MOL0     C99131   6.953   1.679   6.785  0.1600  0.4378  0.6813
  735MOL0     C99132   6.804   1.662   6.747  0.3286 -0.2343  0.4515
  735MOL0     C99133   6.782   1.610   6.606 -0.3800  0.8948 -0.1813
  735MOL0     C99134   6.641   1.578   6.574  0.3317  0.5970  0.0906
  735MOL0    Cl99135   6.535   1.716   6.551 -0.2285  0.5040  0.3230
  735MOL0     C99136   7.114   2.298   6.852 -0.8643  0.1015 -0.2061
  735MOL0     C99137   7.115   2.393   6.747 -0.2177  1.0455 -0.1492
  735MOL0     O99138   6.770   2.503   6.601 -0.1293  0.3585 -0.0815
  735MOL0     C99139   6.985   2.722   6.408 -0.7653 -0.2776 -0.7165
  735MOL0     C99140   6.991   2.842   6.335  1.2470 -0.2163 -0.3091
  735MOL0     N99141   6.656   3.270   5.896  0.0018 -0.0853  0.2925
  735MOL0     N99142   6.559   3.323   5.823  0.1706 -0.2663 -0.4849
  735MOL0     C99143   6.883   2.906   5.021 -0.8272 -0.1327 -0.1599
  735MOL0     C99144   6.892   2.782   5.081  0.1533 -1.2976  0.9375
  735MOL0     C99145   6.826   2.375   5.255  0.6288 -0.4227 -0.4598
  735MOL0     C99146   6.776   2.250   5.206  0.3229  0.0529  0.3638
  735MOL0     C99147   6.836   2.138   5.253  0.0534  0.9045 -0.7860
  735MOL0     C99148   6.927   2.143   5.362  0.7228  0.2283 -0.8455
  735MOL0     O99149   6.984   2.031   5.415  0.4093  0.7536 -0.1641
  735MOL0     C99150   6.974   1.896   5.347  0.2978  0.0969  0.7352
  735MOL0     C99151   7.055   1.800   5.428 -1.2875  0.9516  0.5914
  735MOL0     C99152   7.077   1.665   5.361 -1.2721  0.2101  0.2039
  735MOL0     C99153   7.143   1.662   5.222 -1.4643 -0.3264  0.1314
  735MOL0     C99154   7.285   1.676   5.242  0.6150  0.2729 -1.1789
  735MOL0     C99155   7.398   1.698   5.282  0.2250  0.6287 -0.6523
  735MOL0     C99156   6.954   2.266   5.418 -0.8766 -0.5562  0.3582
  735MOL0     C99157   6.907   2.382   5.363 -0.3202  0.4048  0.4679
  735MOL0     H99158   6.637   2.775   5.302 -0.9791  1.1927 -0.0341
  735MOL0     H99159   6.593   3.000   5.185  0.0148 -1.2235  0.3417
  735MOL0     H99160   6.585   3.193   5.060 -0.6490  1.3934 -0.9344
  735MOL0     H99161   6.722   3.231   5.179 -2.9831  0.4170  0.6247
  735MOL0     H99162   6.815   3.356   4.972 -0.5920  2.4240  0.3930
  735MOL0     H99163   6.664   3.348   4.893  0.3930 -0.0085 -0.1667
  735MOL0     H99164   6.673   3.552   4.966  1.0387 -0.7542 -0.0329
  735MOL0     H99165   6.543   3.455   5.049  0.1369  0.6646  0.0984
  735MOL0     H99166   6.795   3.498   5.194  0.6207 -3.5736 -2.3618
  735MOL0     H99167   6.690   3.628   5.179  3.8340  0.7017 -3.3324
  735MOL0     H99168   6.486   3.476   5.245  0.2196 -2.1504 -1.1184
  735MOL0     H99169   6.593   3.354   5.276 -6.3805 -1.1619 -0.9672
  735MOL0     H99170   6.710   3.524   5.437  0.9500 -0.5832  0.4655
  735MOL0     H99171   6.563   3.624   5.403  0.1585 -0.6133 -1.8767
  735MOL0     H99172   6.415   3.457   5.479  0.6611  0.5172 -0.0159
  735MOL0     H99173   6.565   3.355   5.513  2.2346  0.6699  1.7668
  735MOL0     H99174   6.426   3.509   5.700 -2.0346  0.8909 -3.9550
  735MOL0     H99175   6.568   3.609   5.656  3.0351 -1.4955  1.9785
  735MOL0     H99176   6.805   3.501   5.704 -0.6278  1.3444  0.9970
  735MOL0     H99177   6.962   3.290   5.807 -3.1800 -2.0750 -1.9361
  735MOL0     H99178   6.939   3.395   5.953  0.4029 -0.8211  1.4937
  735MOL0     H99179   7.011   3.160   5.996  0.6096  0.5352 -0.3595
  735MOL0     H99180   6.850   3.109   5.948 -1.2473  1.9877 -0.8163
  735MOL0     H99181   6.770   3.296   6.128  0.0917 -1.9321 -1.3681
  735MOL0     H99182   6.937   3.284   6.187  1.3051 -2.6947  1.8932
  735MOL0     H99183   6.720   3.069   6.164  2.0376 -1.9296 -1.0432
  735MOL0     H99184   6.775   3.169   6.312  1.8381  1.2850 -0.2522
  735MOL0     H99185   6.667   2.930   6.370 -0.1725 -1.3037  0.0604
  735MOL0     H99186   6.607   2.612   6.455 -1.9003  0.4687  2.3457
  735MOL0     H99187   6.606   2.713   6.592 -4.1505  0.6236 -0.5166
  735MOL0     H99188   6.538   2.772   6.430 -0.6364  1.1794  0.5109
  735MOL0     H99189   6.880   2.254   6.560  0.7299  0.9964 -0.0737
  735MOL0     H99190   6.874   2.079   6.735 -1.0826  1.4551  0.0533
  735MOL0     H99191   7.209   2.025   6.885  1.6042  0.6172  1.2714
  735MOL0     H99192   7.176   2.102   7.046 -0.4169  1.3027 -1.2818
  735MOL0     H99193   7.240   1.877   7.068 -0.0259 -0.4207 -1.2841
  735MOL0     H99194   7.070   1.880   7.119  0.5103  4.4975  1.1494
  735MOL0     H99195   7.171   1.688   6.993 -1.6274 -1.2727 -0.3390
  735MOL0     H99196   7.188   1.786   6.848  5.0278 -2.2689  2.0817
  735MOL0     H99197   6.925   1.712   6.995  0.8780 -0.3870  0.0093
  735MOL0     H99198   6.950   1.857   6.891  5.9332  0.7463 -3.3105
  735MOL0     H99199   6.989   1.576   6.797 -0.4574  0.3847  2.3275
  735MOL0     H99200   7.006   1.734   6.707  1.6410 -1.2519  0.4286
  735MOL0     H99201   6.751   1.598   6.818 -0.8461  1.9133  1.5782
  735MOL0     H99202   6.768   1.764   6.759  1.1499 -0.0136  1.1656
  735MOL0     H99203   6.835   1.515   6.596  1.9157  2.0013  0.6302
  735MOL0     H99204   6.826   1.682   6.536  1.6751  2.3970  2.4342
  735MOL0     H99205   6.601   1.510   6.651  1.4418 -0.7837 -0.4971
  735MOL0     H99206   6.636   1.514   6.486  1.7879  0.0458  0.3708
  735MOL0     H99207   7.194   2.307   6.925  0.0824 -1.4879 -0.9719
  735MOL0     H99208   7.175   2.483   6.735 -1.2626  1.6634 -0.9156
  735MOL0     H99209   7.079   2.672   6.426  0.6537  1.9395 -1.5524
  735MOL0     H99210   7.085   2.883   6.299 -0.1566  2.8061 -0.8442
  735MOL0     H99211   6.959   2.950   4.958  2.0232 -2.2986  1.4789
  735MOL0     H99212   6.989   2.735   5.064  1.3239  1.6388 -1.2190
  735MOL0     H99213   6.698   2.249   5.131 -2.3275 -0.8137  2.9284
  735MOL0     H99214   6.805   2.045   5.206 -2.8329  2.0255 -1.3375
  735MOL0     H99215   6.872   1.863   5.320  0.7764 -1.9434  1.2180
  735MOL0     H99216   7.017   1.913   5.248  0.2390 -0.3667  0.6241
  735MOL0     H99217   7.003   1.789   5.523 -0.3362  1.4777  1.1892
  735MOL0     H99218   7.149   1.852   5.450 -1.2569  1.9683 -1.6425
  735MOL0     H99219   6.989   1.601   5.362  0.1791 -1.9260 -1.1756
  735MOL0     H99220   7.145   1.618   5.432 -1.0508  0.2686  0.0308
  735MOL0     H99221   7.117   1.738   5.148  1.1893 -0.3840 -0.9527
  735MOL0     H99222   7.134   1.561   5.180 -1.2189 -0.2053 -0.2082
  735MOL0     H99223   7.494   1.735   5.313 -0.8408  1.4595  1.9964
  735MOL0     H99224   7.031   2.279   5.494 -0.2357 -1.2127 -0.1733
  735MOL0     H99225   6.949   2.472   5.406  1.7367 -0.2784  0.0294
  736MOL0     O99226   7.703   0.735   2.748  0.0844 -0.0283 -0.5335
  736MOL0     C99227   7.774   0.677   2.831 -1.3037 -0.4057 -0.0891
  736MOL0     O99228   7.729   0.608   2.943 -0.6219 -0.4137 -0.9470
  736MOL0     C99229   7.598   0.603   2.977 -0.7590 -0.1847 -0.2599
  736MOL0     C99230   7.546   0.486   3.020  0.8215  0.2210  0.7663
  736MOL0     C99231   7.410   0.480   3.055  0.9697  0.5503  0.6446
  736MOL0     C99232   7.324   0.595   3.040  0.5176 -0.0919  0.0240
  736MOL0     O99233   7.189   0.599   3.077  0.3002 -0.4920 -0.5102
  736MOL0     C99234   7.131   0.472   3.027 -0.8423  0.2689  0.1105
  736MOL0     C99235   6.991   0.502   3.011 -0.0552  0.0873  0.4624
  736MOL0     C99236   6.912   0.389   2.956 -0.1853  0.1031  0.3130
  736MOL0     C99237   6.946   0.354   2.806  0.5267 -0.9657  0.3548
  736MOL0     C99238   6.834   0.281   2.730  0.5240 -0.1706  0.4141
  736MOL0     C99239   6.883   0.284   2.577 -0.3351  0.1432 -0.7453
  736MOL0     C99240   6.818   0.180   2.496 -0.4425 -0.3991 -0.0871
  736MOL0     C99241   6.865   0.036   2.528  0.0482  0.2970 -0.5007
  736MOL0     N99242   6.762  -0.039   2.604 -0.3732 -1.2039  0.0920
  736MOL0     C99243   6.759  -0.176   2.589  0.0212  0.4787  0.5002
  736MOL0     C99244   6.649  -0.226   2.651 -0.4540  0.6146 -0.3709
  736MOL0     C99245   6.607  -0.368   2.646 -0.9148 -0.1372  0.0148
  736MOL0     C99246   6.483  -0.380   2.723  0.4302  0.2303 -0.6464
  736MOL0     C99247   6.416  -0.521   2.695 -0.2849 -1.6514  1.1875
  736MOL0     C99248   6.488  -0.648   2.748 -0.1456  0.5317  0.0081
  736MOL0     O99249   6.422  -0.775   2.732 -0.0073 -0.1448  0.4253
  736MOL0     C99250   6.485  -0.893   2.748 -0.1415  1.4727  0.9167
  736MOL0     C99251   6.402  -1.004   2.748 -0.7418 -0.0832 -0.3699
  736MOL0     C99252   6.453  -1.136   2.744 -0.7957  0.1895 -0.5087
  736MOL0     C99253   6.350  -1.246   2.715 -0.4381 -0.0734 -0.4605
  736MOL0     C99254   6.601  -1.156   2.753  0.1222 -0.2597  0.3496
  736MOL0     C99255   6.668  -1.294   2.741  0.3303  0.0182  0.2574
  736MOL0     O99256   6.794  -1.310   2.793 -1.2486  0.0890 -0.0359
  736MOL0     C99257   6.844  -1.430   2.818 -0.0706 -0.3634 -0.2984
  736MOL0     C99258   6.987  -1.440   2.812 -0.0226 -0.6938 -0.8033
  736MOL0     C99259   7.046  -1.570   2.825 -0.5037  0.2227  0.3174
  736MOL0     C99260   6.976  -1.687   2.850  0.2239 -0.5014 -0.2840
  736MOL0     O99261   7.042  -1.805   2.865  0.8079 -0.5739 -0.2134
  736MOL0     C99262   6.969  -1.924   2.899  0.2132 -0.3923 -0.0537
  736MOL0     C99263   7.050  -2.046   2.861 -1.5390 -0.1458 -0.6339
  736MOL0     C99264   7.177  -2.050   2.943 -0.7755  0.8184 -1.2350
  736MOL0     C99265   7.249  -2.169   2.889 -0.1003 -0.3552 -1.4522
  736MOL0     C99266   7.389  -2.199   2.954 -1.4269  0.2153  0.7336
  736MOL0     C99267   7.465  -2.308   2.882  0.8054  0.5467  0.3817
  736MOL0     C99268   7.407  -2.448   2.913  0.3962  0.5720 -0.1405
  736MOL0     C99269   7.473  -2.555   2.834 -0.3610 -0.3251  0.6710
  736MOL0    Cl99270   7.436  -2.720   2.901  0.3043  0.3975  0.6897
  736MOL0     C99271   6.839  -1.669   2.874  0.3530  0.1339  0.7498
  736MOL0     C99272   6.776  -1.544   2.852  0.0195  0.1244 -0.1484
  736MOL0     O99273   6.614  -1.380   2.682  0.3211  0.3959 -0.7969
  736MOL0     C99274   6.686  -1.045   2.765  0.7726 -0.2181  0.0302
  736MOL0     C99275   6.627  -0.918   2.763  1.8333  0.0552  0.3222
  736MOL0     N99276   6.590  -0.117   2.714  1.2152  0.3157  0.1426
  736MOL0     N99277   6.662  -0.008   2.697 -1.0970 -0.4406 -0.5042
  736MOL0     C99278   7.387   0.716   3.002  0.3423 -0.2341 -0.5427
  736MOL0     C99279   7.519   0.710   2.965 -0.5885 -0.3848 -0.1770
  736MOL0     C99280   7.916   0.675   2.809 -0.3339 -0.4341  0.5013
  736MOL0     C99281   7.970   0.791   2.748 -0.5400  0.0129 -0.1445
  736MOL0     C99282   8.098   0.774   2.691 -0.2606  0.2703  0.0445
  736MOL0     C99283   8.171   0.659   2.705  0.6797 -0.0269 -1.5170
  736MOL0     O99284   8.297   0.637   2.657 -0.4064 -0.2807 -0.7003
  736MOL0     C99285   8.348   0.711   2.540  0.2391  0.2638  0.4337
  736MOL0     C99286   8.437   0.823   2.578 -0.6506 -0.2207 -0.5660
  736MOL0     C99287   8.475   0.913   2.455  0.5644 -0.1988  0.4474
  736MOL0     C99288   8.584   1.004   2.512  0.5206 -1.1899 -0.1196
  736MOL0     C99289   8.629   1.122   2.438 -0.9606  0.0870  0.3097
  736MOL0     C99290   8.686   1.208   2.375 -0.5952 -1.0985 -0.1791
  736MOL0     C99291   8.126   0.556   2.787 -0.2450 -0.1587  0.0462
  736MOL0     C99292   7.992   0.561   2.836  0.1061 -0.1244  0.6214
  736MOL0     H99293   7.609   0.397   3.020  0.8298  0.2227  0.3035
  736MOL0     H99294   7.376   0.381   3.085  2.3495 -1.1905 -2.9649
  736MOL0     H99295   7.168   0.439   2.929  0.7542 -1.7486  1.3066
  736MOL0     H99296   7.142   0.392   3.100 -1.7267 -0.3316 -0.3902
  736MOL0     H99297   6.957   0.515   3.114  3.5907  1.3424  1.6568
  736MOL0     H99298   6.971   0.593   2.954 -0.7429  1.9751  3.5053
  736MOL0     H99299   6.925   0.295   3.011  2.3568 -0.5914 -1.2869
  736MOL0     H99300   6.808   0.422   2.954  0.3249  1.8279  1.0182
  736MOL0     H99301   6.969   0.448   2.756  0.3510 -0.8276  0.5343
  736MOL0     H99302   7.039   0.296   2.799  2.2468  1.7070 -0.9459
  736MOL0     H99303   6.817   0.184   2.777 -3.6701  0.3776  0.4161
  736MOL0     H99304   6.744   0.337   2.755  2.5265  2.4423  2.3686
  736MOL0     H99305   6.877   0.384   2.531 -2.3006  1.1460  1.4641
  736MOL0     H99306   6.985   0.245   2.575 -1.2572 -2.5156  0.2510
  736MOL0     H99307   6.711   0.185   2.518  0.1724  0.8003  3.1095
  736MOL0     H99308   6.830   0.208   2.390  0.8025  1.9978  0.6186
  736MOL0     H99309   6.956   0.041   2.588 -0.3471 -0.1988  0.1573
  736MOL0     H99310   6.868  -0.018   2.433 -2.4681  0.1642 -0.5862
  736MOL0     H99311   6.817  -0.244   2.528  0.0216 -0.2559  1.2984
  736MOL0     H99312   6.577  -0.375   2.541 -0.3265  2.2916 -0.3689
  736MOL0     H99313   6.678  -0.449   2.665 -1.5997 -0.4247  1.5339
  736MOL0     H99314   6.411  -0.302   2.698  1.9699  2.3336  1.0401
  736MOL0     H99315   6.517  -0.381   2.827  3.7778 -1.7989 -1.5745
  736MOL0     H99316   6.412  -0.535   2.587  3.8880  2.0841  0.2573
  736MOL0     H99317   6.308  -0.514   2.713 -1.1016  1.5285 -3.1669
  736MOL0     H99318   6.526  -0.632   2.850 -2.0351 -0.5847  0.9442
  736MOL0     H99319   6.585  -0.648   2.697  0.4076 -1.4303  0.9272
  736MOL0     H99320   6.295  -0.986   2.740 -0.9993 -1.0020  0.6536
  736MOL0     H99321   6.272  -1.234   2.790  0.1107  2.0299 -0.1536
  736MOL0     H99322   6.297  -1.226   2.622  2.5948  0.2117 -2.2650
  736MOL0     H99323   6.386  -1.348   2.731 -0.2250 -0.4292 -2.8131
  736MOL0     H99324   7.059  -1.362   2.792 -0.9994  0.6475  0.6785
  736MOL0     H99325   7.153  -1.586   2.813 -0.4554  2.0921 -3.0826
  736MOL0     H99326   6.940  -1.917   3.004  0.6719 -1.8208  0.2028
  736MOL0     H99327   6.878  -1.916   2.838 -0.3147  0.4800  0.8307
  736MOL0     H99328   6.989  -2.134   2.884  2.6755 -3.3074 -0.2348
  736MOL0     H99329   7.075  -2.056   2.755  0.4127 -0.6499 -0.1640
  736MOL0     H99330   7.158  -2.070   3.049  3.0098 -0.1522 -0.5913
  736MOL0     H99331   7.244  -1.963   2.939 -1.4608  1.4082 -0.3673
  736MOL0     H99332   7.183  -2.255   2.904 -1.4596  0.8291 -0.4002
  736MOL0     H99333   7.264  -2.144   2.783  2.9361  0.5576 -0.8988
  736MOL0     H99334   7.385  -2.223   3.061 -2.6539  0.6374  0.7994
  736MOL0     H99335   7.452  -2.110   2.958 -2.6136  1.0417  2.6047
  736MOL0     H99336   7.477  -2.288   2.775  0.0653  0.2336  0.2413
  736MOL0     H99337   7.560  -2.309   2.937  0.6579  1.5529  0.6899
  736MOL0     H99338   7.299  -2.458   2.903  0.3653  1.0189 -0.2470
  736MOL0     H99339   7.438  -2.473   3.015  2.3000 -0.7855 -0.9776
  736MOL0     H99340   7.582  -2.557   2.839 -0.3579 -1.1089  0.3347
  736MOL0     H99341   7.435  -2.553   2.732 -2.7308 -0.3946  1.4752
  736MOL0     H99342   6.777  -1.751   2.911  2.0704 -1.7855 -0.3753
  736MOL0     H99343   6.671  -1.544   2.880  0.5228 -1.7195  2.0528
  736MOL0     H99344   6.794  -1.044   2.774  0.8154  1.9921 -0.1443
  736MOL0     H99345   6.701  -0.840   2.777  5.1105 -3.0896  1.8511
  736MOL0     H99346   7.343   0.814   3.016 -0.2999 -0.8419  2.5000
  736MOL0     H99347   7.554   0.806   2.929  0.9528 -1.7343 -2.4636
  736MOL0     H99348   7.922   0.889   2.743  2.0613  1.5348  1.7185
  736MOL0     H99349   8.143   0.853   2.630  4.9447 -2.9246 -0.9238
  736MOL0     H99350   8.402   0.648   2.470 -2.4420  0.9304 -2.4340
  736MOL0     H99351   8.256   0.744   2.490 -1.9525 -1.9766  2.6624
  736MOL0     H99352   8.522   0.776   2.628 -2.4332  0.2094  3.1531
  736MOL0     H99353   8.393   0.895   2.647  1.5666  1.0370 -0.3461
  736MOL0     H99354   8.396   0.975   2.411  0.1347 -0.3575  0.9845
  736MOL0     H99355   8.508   0.841   2.380 -3.9448  0.9881 -3.1288
  736MOL0     H99356   8.672   0.944   2.537  2.4380  1.2063 -0.7848
  736MOL0     H99357   8.546   1.025   2.612 -0.5035 -1.7006 -0.3908
  736MOL0     H99358   8.752   1.280   2.329  0.2108 -2.0790 -0.6212
  736MOL0     H99359   8.190   0.473   2.814  1.6589  1.3494  0.3369
  736MOL0     H99360   7.951   0.481   2.897 -1.3814 -0.4066 -0.6771
  737MOL0     O99361   8.016   5.515   7.424  0.2897  0.1250 -0.2161
  737MOL0     C99362   7.982   5.549   7.543  0.6042  0.4438  0.4303
  737MOL0     O99363   8.064   5.545   7.646  0.7621  0.8089 -0.1071
  737MOL0     C99364   8.200   5.537   7.616  0.2222  0.1763  0.2521
  737MOL0     C99365   8.291   5.635   7.667 -1.2403 -0.2701  0.0208
  737MOL0     C99366   8.429   5.628   7.638  0.4882  0.0924 -0.8775
  737MOL0     C99367   8.476   5.528   7.550 -0.8300  0.3095  0.0012
  737MOL0     O99368   8.605   5.521   7.517  0.1210  0.2293  0.6260
  737MOL0     C99369   8.680   5.400   7.545 -0.3219  0.6119 -0.0737
  737MOL0     C99370   8.822   5.443   7.571 -0.4053 -0.0145 -0.0996
  737MOL0     C99371   8.838   5.563   7.674 -1.4373 -0.3423 -0.4575
  737MOL0     C99372   8.980   5.604   7.720 -0.1815  0.0323  0.6882
  737MOL0     C99373   8.969   5.714   7.822 -0.7253  0.4002  0.1442
  737MOL0     C99374   9.105   5.795   7.827 -0.1949  0.4451 -0.5748
  737MOL0     C99375   9.150   5.863   7.952 -0.2927 -0.4341  0.9704
  737MOL0     C99376   9.123   5.781   8.080  0.1856 -0.2818 -0.8712
  737MOL0     N99377   9.174   5.866   8.191 -0.5162  0.1354 -0.0893
  737MOL0     C99378   9.166   6.001   8.211 -0.0448 -0.6653 -0.8351
  737MOL0     C99379   9.232   6.026   8.320  0.0129 -0.0734 -0.5251
  737MOL0     C99380   9.256   6.156   8.390  0.5445 -0.4583  0.1642
  737MOL0     C99381   9.126   6.239   8.429  0.5555  0.0672 -1.0062
  737MOL0     C99382   9.046   6.170   8.537  0.9912  0.6524 -0.6850
  737MOL0     C99383   8.913   6.246   8.561 -0.6974 -0.2792 -0.2793
  737MOL0     O99384   8.932   6.389   8.562  0.3336 -0.0562  0.3266
  737MOL0     C99385   8.856   6.454   8.649 -0.0889  0.8488 -0.1128
  737MOL0     C99386   8.726   6.483   8.627  0.2632 -0.3031 -0.4727
  737MOL0     C99387   8.665   6.568   8.719 -0.6183  0.3603  0.7455
  737MOL0     C99388   8.525   6.620   8.679  0.8363 -0.1375  0.0837
  737MOL0     C99389   8.727   6.626   8.835  0.8214 -0.3873 -0.3420
  737MOL0     C99390   8.673   6.713   8.941  0.1279 -0.7834 -0.4534
  737MOL0     O99391   8.532   6.721   8.947  0.2944 -0.0226  0.6208
  737MOL0     C99392   8.470   6.820   9.027  0.3116  0.4109  0.5053
  737MOL0     C99393   8.470   6.812   9.169 -0.6872 -0.1501  0.5840
  737MOL0     C99394   8.400   6.905   9.246 -0.5514 -0.8536 -0.1113
  737MOL0     C99395   8.338   7.014   9.193  0.8115  0.4369 -0.6519
  737MOL0     O99396   8.254   7.086   9.275  0.3566  0.3882 -0.0728
  737MOL0     C99397   8.253   7.231   9.255  0.3731  0.7030  0.2300
  737MOL0     C99398   8.149   7.299   9.347  0.2580 -0.0592 -0.4560
  737MOL0     C99399   8.138   7.440   9.327 -0.1764 -0.2442  0.6349
  737MOL0     C99400   8.065   7.514   9.436  0.2066 -0.4636  0.1001
  737MOL0     C99401   8.046   7.661   9.382 -0.2708  0.3835  0.6463
  737MOL0     C99402   7.989   7.735   9.504 -0.5432 -0.7067  0.7128
  737MOL0     C99403   7.978   7.890   9.483  0.0457 -0.4029 -0.2262
  737MOL0     C99404   7.881   7.921   9.379  0.5701 -0.8035  0.7209
  737MOL0    Cl99405   7.696   7.913   9.431  0.6511  0.0734 -0.6116
  737MOL0     C99406   8.346   7.036   9.051  0.1670 -0.1973 -0.2323
  737MOL0     C99407   8.403   6.930   8.971  0.4375 -0.5108 -0.2299
  737MOL0     O99408   8.748   6.770   9.025 -0.5220  0.1622 -0.5291
  737MOL0     C99409   8.854   6.577   8.855  0.0435 -0.7466 -1.1460
  737MOL0     C99410   8.918   6.498   8.762 -0.1169  0.1253 -0.6946
  737MOL0     N99411   9.282   5.909   8.369 -0.1925  0.2770 -0.1257
  737MOL0     N99412   9.249   5.815   8.289 -1.0022  0.3194  0.3147
  737MOL0     C99413   8.389   5.427   7.501 -0.6424 -0.7102  0.2201
  737MOL0     C99414   8.254   5.433   7.539  0.0104  0.2487 -0.6181
  737MOL0     C99415   7.836   5.594   7.563  0.6799 -0.5868 -0.6936
  737MOL0     C99416   7.778   5.593   7.683  0.0277 -0.4589  0.0058
  737MOL0     C99417   7.649   5.642   7.708  0.0638 -0.5616 -0.5988
  737MOL0     C99418   7.568   5.680   7.594 -0.8214  0.2774  0.6688
  737MOL0     O99419   7.448   5.744   7.616  0.5631 -0.3254  0.3030
  737MOL0     C99420   7.408   5.823   7.738  0.4714 -0.5862 -0.3421
  737MOL0     C99421   7.346   5.721   7.842  0.5123 -0.9892 -0.1188
  737MOL0     C99422   7.200   5.733   7.853 -0.3050 -0.5761 -1.0386
  737MOL0     C99423   7.137   5.635   7.764 -0.6412  0.6828  0.1887
  737MOL0     C99424   7.001   5.617   7.821  0.7321 -0.3094 -1.0884
  737MOL0     C99425   6.886   5.639   7.855 -0.9134  0.3773 -0.6837
  737MOL0     C99426   7.619   5.661   7.469  0.2329  0.9450 -0.3512
  737MOL0     C99427   7.746   5.601   7.450 -0.6217 -0.9264  0.0840
  737MOL0     H99428   8.250   5.722   7.717  1.2904 -0.2094  2.1716
  737MOL0     H99429   8.494   5.699   7.689  0.7551 -1.4806  1.0660
  737MOL0     H99430   8.648   5.350   7.637  2.9549 -2.9191 -0.6314
  737MOL0     H99431   8.662   5.329   7.464  1.9739 -0.4977  0.3105
  737MOL0     H99432   8.883   5.358   7.603  3.3632  3.2544  2.2933
  737MOL0     H99433   8.870   5.478   7.479  0.2572 -1.5420 -0.3666
  737MOL0     H99434   8.810   5.658   7.628  1.1892  0.7577  0.0379
  737MOL0     H99435   8.781   5.528   7.761  0.1626 -3.2175 -0.4136
  737MOL0     H99436   9.029   5.513   7.755  1.0989  1.1713  1.9921
  737MOL0     H99437   9.030   5.647   7.632  0.6611  0.3938  1.3298
  737MOL0     H99438   8.882   5.780   7.824 -0.3781  0.8570  2.1092
  737MOL0     H99439   8.951   5.651   7.910  2.2178 -0.1365  0.4538
  737MOL0     H99440   9.181   5.717   7.809  0.0760  0.0080  2.0614
  737MOL0     H99441   9.100   5.864   7.743 -1.7237 -0.0321 -0.9004
  737MOL0     H99442   9.255   5.888   7.937 -1.0716  2.1559 -1.1410
  737MOL0     H99443   9.100   5.961   7.955  0.6994  0.2545 -1.5592
  737MOL0     H99444   9.180   5.688   8.074 -1.9410 -1.7723  0.4736
  737MOL0     H99445   9.015   5.770   8.091 -0.5810  3.8172 -2.3296
  737MOL0     H99446   9.106   6.069   8.150 -1.3402 -2.7883 -2.0698
  737MOL0     H99447   9.325   6.146   8.473  0.3957 -0.5528  0.2773
  737MOL0     H99448   9.316   6.210   8.316 -0.5059  1.1489  0.4275
  737MOL0     H99449   9.060   6.257   8.344 -0.1946  0.8891 -0.2676
  737MOL0     H99450   9.162   6.332   8.475  1.8445 -1.8281  2.2423
  737MOL0     H99451   9.104   6.153   8.629  0.9890  0.0020 -0.7962
  737MOL0     H99452   9.020   6.067   8.512  1.4649  0.3441  0.0652
  737MOL0     H99453   8.873   6.207   8.655 -0.7136  2.7044  1.0623
  737MOL0     H99454   8.841   6.229   8.479  0.2097 -0.7994 -0.9907
  737MOL0     H99455   8.666   6.457   8.540 -2.1642  1.6073  0.5104
  737MOL0     H99456   8.519   6.729   8.673 -4.1944 -0.1320  1.1158
  737MOL0     H99457   8.484   6.582   8.585  0.3142 -2.6361  1.2335
  737MOL0     H99458   8.455   6.588   8.757 -0.0590  2.2960  0.3891
  737MOL0     H99459   8.526   6.745   9.233  2.5116  0.1390 -1.6462
  737MOL0     H99460   8.382   6.882   9.351  1.4558  1.9335  0.9771
  737MOL0     H99461   8.354   7.273   9.254  1.0331 -0.7735  0.8587
  737MOL0     H99462   8.223   7.259   9.154 -0.3092 -0.6675  0.0277
  737MOL0     H99463   8.049   7.256   9.337  0.6946 -2.4401  3.2445
  737MOL0     H99464   8.184   7.273   9.447 -2.9017 -1.7204  0.3648
  737MOL0     H99465   8.089   7.450   9.230  0.6204  1.0391  0.3289
  737MOL0     H99466   8.240   7.479   9.318  0.4100 -1.7089  0.7846
  737MOL0     H99467   7.969   7.467   9.456 -1.1730  1.1885 -2.0865
  737MOL0     H99468   8.134   7.497   9.519 -1.7636  2.2247  2.4703
  737MOL0     H99469   7.981   7.659   9.294 -2.3510  0.5948  2.0929
  737MOL0     H99470   8.144   7.706   9.362 -1.0277  2.1784  0.7819
  737MOL0     H99471   7.894   7.680   9.508 -0.4426 -0.8411  1.4419
  737MOL0     H99472   8.050   7.714   9.592  3.2535 -0.7704 -1.7070
  737MOL0     H99473   8.076   7.921   9.448 -0.8707  0.8037 -1.8872
  737MOL0     H99474   7.964   7.935   9.582 -0.0575 -0.0129 -0.4165
  737MOL0     H99475   7.907   7.858   9.293  4.2401 -0.9750  1.7677
  737MOL0     H99476   7.907   8.024   9.353  0.0091 -0.3555  1.8569
  737MOL0     H99477   8.300   7.117   8.996  0.9714  0.4154 -0.0301
  737MOL0     H99478   8.406   6.931   8.862 -1.0041 -2.4126 -0.3472
  737MOL0     H99479   8.905   6.595   8.949 -3.1902  3.4384  0.1351
  737MOL0     H99480   9.025   6.490   8.778 -0.4111  1.3833  2.9355
  737MOL0     H99481   8.425   5.345   7.441 -1.5538 -0.9887  0.0383
  737MOL0     H99482   8.181   5.359   7.505  0.0362  0.0417 -0.2264
  737MOL0     H99483   7.838   5.577   7.772 -1.4114  1.1174  1.3315
  737MOL0     H99484   7.612   5.660   7.809  0.9737  1.4989 -0.5853
  737MOL0     H99485   7.506   5.858   7.770  0.1466  0.5212 -0.4969
  737MOL0     H99486   7.343   5.909   7.718  1.6177  0.4972  0.4476
  737MOL0     H99487   7.382   5.740   7.944  1.2465 -4.3012  0.3728
  737MOL0     H99488   7.372   5.617   7.818 -0.8670 -1.1286 -1.1056
  737MOL0     H99489   7.173   5.833   7.818  2.4598 -0.1201 -2.1144
  737MOL0     H99490   7.178   5.715   7.959  1.2992 -2.3162 -0.9545
  737MOL0     H99491   7.200   5.545   7.762 -0.0752  1.0909 -0.3940
  737MOL0     H99492   7.134   5.682   7.665  1.6333 -0.3321 -0.4249
  737MOL0     H99493   6.792   5.661   7.903 -2.5313  0.2733 -3.5878
  737MOL0     H99494   7.557   5.704   7.391 -1.5437 -0.9788 -0.0739
  737MOL0     H99495   7.787   5.610   7.350 -1.8508  0.7798 -0.3091
  738MOL0     O99496   3.808   7.952   3.431 -0.4016  0.3259 -0.8468
  738MOL0     C99497   3.824   7.959   3.550 -0.3332  0.3367 -0.9510
  738MOL0     O99498   3.850   7.857   3.639 -0.4406  0.0682 -0.4137
  738MOL0     C99499   3.887   7.734   3.595  0.4586 -0.1134 -0.4171
  738MOL0     C99500   4.019   7.687   3.563 -0.6023 -0.1635  0.8534
  738MOL0     C99501   4.046   7.550   3.516  0.6094  0.1372  0.1378
  738MOL0     C99502   3.938   7.456   3.512 -0.1332 -0.1560 -0.1005
  738MOL0     O99503   3.961   7.333   3.454 -0.5195  0.2538 -0.9025
  738MOL0     C99504   3.989   7.238   3.555 -0.3009  0.5308 -0.4670
  738MOL0     C99505   3.964   7.107   3.503  0.1278 -0.5143 -0.7369
  738MOL0     C99506   4.043   7.085   3.374  0.2065  0.3759 -0.2548
  738MOL0     C99507   3.987   6.961   3.304 -0.2352 -0.1353 -0.5825
  738MOL0     C99508   4.068   6.926   3.179 -0.1710  0.2473 -0.5150
  738MOL0     C99509   3.982   6.903   3.049 -0.7358 -0.7802  0.2222
  738MOL0     C99510   4.051   6.817   2.939  0.8231  0.0410 -0.7210
  738MOL0     C99511   3.942   6.762   2.843  0.3079 -0.4705  0.2175
  738MOL0     N99512   3.874   6.875   2.777  0.3775  0.3955  0.3840
  738MOL0     C99513   3.921   6.949   2.670  0.1683  0.2561  0.2316
  738MOL0     C99514   3.824   7.038   2.642  0.1400  0.2967  0.3281
  738MOL0     C99515   3.807   7.124   2.520 -0.8836  0.1335 -0.3077
  738MOL0     C99516   3.893   7.252   2.498  0.3004  0.7910 -0.9319
  738MOL0     C99517   4.044   7.224   2.470 -0.5018 -0.6101  0.5621
  738MOL0     C99518   4.064   7.154   2.338 -0.3497  0.1362 -0.4400
  738MOL0     O99519   4.051   7.011   2.341 -0.2520  0.0738  0.3287
  738MOL0     C99520   4.092   6.933   2.237 -1.0890 -0.1494 -0.8413
  738MOL0     C99521   4.199   6.975   2.152  0.5169 -0.1861  0.3348
  738MOL0     C99522   4.237   6.885   2.042 -0.1080 -0.0204 -0.3841
  738MOL0     C99523   4.355   6.941   1.957  0.3297  0.4037  0.0127
  738MOL0     C99524   4.154   6.779   2.012  0.2233  0.1445 -0.2709
  738MOL0     C99525   4.179   6.680   1.899  0.1203  0.2991 -0.1303
  738MOL0     O99526   4.305   6.684   1.843 -0.4162 -0.8754 -0.1747
  738MOL0     C99527   4.311   6.647   1.713 -0.6963 -0.0755 -0.4659
  738MOL0     C99528   4.252   6.731   1.616 -0.4465  0.7667 -0.1715
  738MOL0     C99529   4.269   6.707   1.481 -0.7549  0.1164  0.1229
  738MOL0     C99530   4.357   6.601   1.442 -0.0951 -0.1913  0.3164
  738MOL0     O99531   4.378   6.573   1.304  0.5171  0.0561 -0.5826
  738MOL0     C99532   4.337   6.675   1.212 -0.3700 -0.5749  0.9483
  738MOL0     C99533   4.399   6.654   1.078  0.1057  0.6272  0.1293
  738MOL0     C99534   4.548   6.673   1.081 -0.8163  0.0191 -0.9818
  738MOL0     C99535   4.617   6.585   0.978 -1.1334 -0.4560 -0.8873
  738MOL0     C99536   4.767   6.642   0.948  0.5726  0.0897  0.3690
  738MOL0     C99537   4.772   6.786   0.898  0.3984  0.0868  0.0315
  738MOL0     C99538   4.913   6.815   0.853  0.8377  0.6778 -0.5578
  738MOL0     C99539   5.009   6.842   0.976 -0.7146  0.0846  0.7323
  738MOL0    Cl99540   5.177   6.877   0.914 -0.4051  0.8594  0.0347
  738MOL0     C99541   4.424   6.527   1.537  1.0550 -0.7684  0.3636
  738MOL0     C99542   4.411   6.555   1.675  1.1243 -0.0402 -0.6402
  738MOL0     O99543   4.094   6.593   1.869 -0.4871  0.1784  0.7473
  738MOL0     C99544   4.050   6.743   2.098 -0.0195  0.2692 -0.1929
  738MOL0     C99545   4.026   6.811   2.213 -0.2123 -0.2432 -1.1166
  738MOL0     N99546   3.719   7.027   2.730 -0.2586 -0.0435 -0.2633
  738MOL0     N99547   3.751   6.925   2.807 -0.3869  0.1571 -0.0061
  738MOL0     C99548   3.810   7.501   3.553  1.0525  0.0137 -0.4108
  738MOL0     C99549   3.783   7.636   3.603 -0.5665  1.2925  0.1719
  738MOL0     C99550   3.776   8.084   3.618  0.3493  0.6755 -0.1355
  738MOL0     C99551   3.704   8.073   3.736 -0.7062 -0.0383  0.3623
  738MOL0     C99552   3.633   8.190   3.783 -0.3722  0.2047  0.8634
  738MOL0     C99553   3.664   8.321   3.739  0.8388  0.3588  0.3534
  738MOL0     O99554   3.605   8.435   3.790  0.2393 -0.4049 -0.6671
  738MOL0     C99555   3.580   8.448   3.931  0.0674  0.0437  0.6722
  738MOL0     C99556   3.687   8.538   3.995  0.3389  0.1313 -0.5267
  738MOL0     C99557   3.644   8.687   3.984 -0.2816  0.1184  0.0481
  738MOL0     C99558   3.670   8.738   3.839  0.7968  0.9646 -0.1579
  738MOL0     C99559   3.650   8.884   3.831 -0.5923  0.8201  0.4479
  738MOL0     C99560   3.636   9.003   3.846 -0.1444 -0.0418  0.2885
  738MOL0     C99561   3.746   8.328   3.634  0.2887  0.0382  0.6715
  738MOL0     C99562   3.800   8.213   3.566 -0.8116  0.2758 -0.7003
  738MOL0     H99563   4.086   7.771   3.575 -1.0995  0.2987  0.4488
  738MOL0     H99564   4.141   7.515   3.476 -0.9338  0.3955 -4.3308
  738MOL0     H99565   4.091   7.243   3.593 -0.5292  3.2298  0.0096
  738MOL0     H99566   3.933   7.251   3.648  1.4114  0.9944  0.5516
  738MOL0     H99567   4.000   7.036   3.579  2.0328  1.8357  0.7006
  738MOL0     H99568   3.859   7.085   3.482  0.0657 -0.1895 -0.7645
  738MOL0     H99569   4.040   7.162   3.296  1.3251 -0.3568 -1.0462
  738MOL0     H99570   4.148   7.071   3.400  0.6765  0.3523 -2.0067
  738MOL0     H99571   3.988   6.880   3.377 -1.0049  0.2088 -0.1816
  738MOL0     H99572   3.881   6.969   3.276 -0.9853  2.3697  2.4021
  738MOL0     H99573   4.149   6.999   3.170  2.3324 -2.2075  0.7626
  738MOL0     H99574   4.111   6.827   3.197 -0.1062  0.4163  0.2933
  738MOL0     H99575   3.889   6.854   3.080  0.4053 -2.4521  1.1573
  738MOL0     H99576   3.961   7.003   3.011  3.8686  0.4310  0.2497
  738MOL0     H99577   4.128   6.876   2.889  0.6434 -0.3370 -1.4577
  738MOL0     H99578   4.111   6.732   2.974  1.3313  0.2534 -1.0602
  738MOL0     H99579   3.869   6.690   2.879 -0.6166  0.3455  0.0324
  738MOL0     H99580   4.012   6.715   2.774  2.1319 -0.6246  2.0940
  738MOL0     H99581   4.007   6.937   2.605  0.4638 -1.1815  0.8513
  738MOL0     H99582   3.815   7.059   2.433  2.2074  1.2610 -1.0051
  738MOL0     H99583   3.704   7.159   2.527 -1.9831 -3.0781  1.3411
  738MOL0     H99584   3.873   7.318   2.582  1.3007  2.5801 -2.0315
  738MOL0     H99585   3.852   7.296   2.406  0.9870 -1.9310 -2.6828
  738MOL0     H99586   4.095   7.172   2.552  0.3643  0.8062  0.9647
  738MOL0     H99587   4.077   7.326   2.451 -0.1389 -1.3713 -3.9408
  738MOL0     H99588   4.161   7.187   2.298  0.1552  0.0969  0.7043
  738MOL0     H99589   3.988   7.193   2.270 -0.0929 -1.3700 -1.6278
  738MOL0     H99590   4.264   7.061   2.165 -0.9564  1.5115 -2.5029
  738MOL0     H99591   4.353   7.050   1.953 -2.1015  0.4044  0.0219
  738MOL0     H99592   4.450   6.894   1.985 -1.0535 -2.6832 -0.0640
  738MOL0     H99593   4.334   6.914   1.853  1.8689  0.6359 -0.3772
  738MOL0     H99594   4.187   6.811   1.650  3.2326  3.3578  1.4666
  738MOL0     H99595   4.211   6.770   1.415  0.3875  1.7555  0.6103
  738MOL0     H99596   4.229   6.664   1.208 -0.3437 -1.2935  1.8137
  738MOL0     H99597   4.355   6.777   1.248 -1.7829 -0.4438  1.3319
  738MOL0     H99598   4.376   6.552   1.045  1.0466  1.1556 -2.4286
  738MOL0     H99599   4.357   6.711   0.994 -1.4817 -0.0207  0.4387
  738MOL0     H99600   4.571   6.632   1.180 -0.6064  1.8895 -0.2157
  738MOL0     H99601   4.577   6.779   1.079 -1.1153  0.0940 -3.0395
  738MOL0     H99602   4.619   6.478   1.003  2.6176 -0.0316  1.4197
  738MOL0     H99603   4.575   6.586   0.877  2.2272 -4.4391 -2.6486
  738MOL0     H99604   4.803   6.581   0.865 -1.4013 -1.3692  0.5175
  738MOL0     H99605   4.834   6.633   1.034 -0.0365 -0.5816  0.7807
  738MOL0     H99606   4.708   6.797   0.810  0.0552  0.8173  0.3615
  738MOL0     H99607   4.740   6.862   0.969  1.2958 -0.6231  1.2428
  738MOL0     H99608   4.906   6.906   0.792  0.2381  2.0195  1.4211
  738MOL0     H99609   4.946   6.725   0.801  0.4472  0.7441 -0.9256
  738MOL0     H99610   5.004   6.765   1.054 -1.6323  1.3249  1.9495
  738MOL0     H99611   4.976   6.934   1.025  2.0637  1.0270  1.0103
  738MOL0     H99612   4.491   6.454   1.492  1.2174 -0.1321 -0.4461
  738MOL0     H99613   4.465   6.493   1.745  0.9079 -1.8282 -1.9756
  738MOL0     H99614   3.980   6.666   2.067  0.2464  0.3774 -1.0940
  738MOL0     H99615   3.946   6.788   2.283 -0.7888 -3.9325 -2.7357
  738MOL0     H99616   3.739   7.421   3.569  1.9169 -0.2515  2.6242
  738MOL0     H99617   3.689   7.664   3.650 -1.0254  3.1011 -1.6803
  738MOL0     H99618   3.684   7.976   3.780  1.8711 -1.3036 -1.0418
  738MOL0     H99619   3.565   8.168   3.864 -1.5664  1.5502  0.2732
  738MOL0     H99620   3.490   8.509   3.939 -0.6939 -1.2297  2.6208
  738MOL0     H99621   3.560   8.354   3.984 -0.6440 -2.5245 -3.7265
  738MOL0     H99622   3.780   8.523   3.939  1.5979  2.4500  0.7854
  738MOL0     H99623   3.704   8.527   4.103  0.0474 -0.2864 -0.5181
  738MOL0     H99624   3.694   8.744   4.063 -1.2870 -0.9835  1.5365
  738MOL0     H99625   3.537   8.698   4.001 -0.4332 -3.1536  2.3324
  738MOL0     H99626   3.594   8.693   3.774  0.6584 -1.3878  1.5145
  738MOL0     H99627   3.773   8.712   3.812  1.4009  2.9391  0.1253
  738MOL0     H99628   3.609   9.105   3.863  0.9107 -0.0993  2.6991
  738MOL0     H99629   3.784   8.426   3.604  1.4006 -0.4474  0.4571
  738MOL0     H99630   3.857   8.209   3.474  0.8546 -0.8684  0.3106
  739MOL0     O99631   0.932   6.865   7.313 -0.1504 -1.3266 -0.0502
  739MOL0     C99632   0.893   6.868   7.193 -0.7706 -0.0752 -0.2829
  739MOL0     O99633   0.965   6.818   7.087 -0.6615 -0.6812 -0.1730
  739MOL0     C99634   1.083   6.742   7.101  1.3003  0.2590 -0.5127
  739MOL0     C99635   1.080   6.627   7.187  0.1251 -0.0472  0.0885
  739MOL0     C99636   1.195   6.548   7.191  0.4528 -0.4960 -0.0763
  739MOL0     C99637   1.308   6.574   7.114  0.1308 -1.0730 -0.2054
  739MOL0     O99638   1.417   6.491   7.129 -0.4048  0.0550  0.7198
  739MOL0     C99639   1.515   6.491   7.017  0.2490 -0.3705 -1.1053
  739MOL0     C99640   1.619   6.388   7.057 -1.2436  0.4868  0.3394
  739MOL0     C99641   1.754   6.420   6.989 -0.9375 -0.3190  0.2185
  739MOL0     C99642   1.747   6.445   6.835  0.0056  0.4836  0.0162
  739MOL0     C99643   1.890   6.458   6.780  0.8015 -0.2727 -0.0637
  739MOL0     C99644   1.969   6.588   6.810 -0.0125  0.0951  0.3024
  739MOL0     C99645   2.113   6.571   6.778  0.2634  0.2059  0.7337
  739MOL0     C99646   2.177   6.708   6.780 -0.3478 -0.4387  0.3502
  739MOL0     N99647   2.322   6.699   6.763 -0.7164 -0.2317  0.8844
  739MOL0     C99648   2.417   6.653   6.850 -0.0717 -0.5744 -0.4754
  739MOL0     C99649   2.530   6.674   6.779  0.0894  0.7703  0.8420
  739MOL0     C99650   2.669   6.637   6.822  0.1277  0.8206  0.5106
  739MOL0     C99651   2.700   6.488   6.786 -0.1965  0.5516  0.6157
  739MOL0     C99652   2.850   6.478   6.805  0.3689  0.7767  0.2186
  739MOL0     C99653   2.898   6.337   6.788  0.1427  0.7632 -0.1615
  739MOL0     O99654   3.043   6.325   6.782  0.3486 -0.5380 -0.8127
  739MOL0     C99655   3.111   6.226   6.718 -0.0010 -0.0940 -0.0568
  739MOL0     C99656   3.248   6.250   6.706 -0.2099 -0.0594 -0.4855
  739MOL0     C99657   3.333   6.160   6.637  1.1270 -0.8504  0.6098
  739MOL0     C99658   3.485   6.194   6.628  1.0915  0.1453 -0.0477
  739MOL0     C99659   3.274   6.053   6.564 -0.9509  0.3194 -0.1606
  739MOL0     C99660   3.357   5.961   6.477  0.0603  0.6614 -0.2814
  739MOL0     O99661   3.497   5.961   6.486 -1.0287  0.0350  0.5400
  739MOL0     C99662   3.573   5.889   6.404 -0.8840  0.0074 -0.7562
  739MOL0     C99663   3.580   5.749   6.414  0.0164 -0.6412 -0.0946
  739MOL0     C99664   3.639   5.676   6.316  0.4614  0.5952  0.5417
  739MOL0     C99665   3.707   5.750   6.209  0.8689  1.3755  0.1629
  739MOL0     O99666   3.772   5.700   6.101 -0.4526 -0.4948  0.9385
  739MOL0     C99667   3.806   5.562   6.100  0.0158  0.3512 -0.7153
  739MOL0     C99668   3.700   5.474   6.024  0.0746 -0.4012  0.5684
  739MOL0     C99669   3.726   5.328   6.074  0.2315  0.5289  0.4349
  739MOL0     C99670   3.621   5.238   6.015 -0.1577 -0.1703 -0.1619
  739MOL0     C99671   3.616   5.107   6.093  0.0521 -0.6536  0.1481
  739MOL0     C99672   3.503   5.010   6.045 -0.4033 -0.4116  0.0404
  739MOL0     C99673   3.415   4.978   6.161 -0.6139 -0.1918  0.5522
  739MOL0     C99674   3.278   4.921   6.124  0.6853  0.3717  0.2798
  739MOL0    Cl99675   3.150   5.034   6.066 -0.7766 -0.2987  0.5181
  739MOL0     C99676   3.700   5.884   6.213 -0.9525  0.0905 -0.4980
  739MOL0     C99677   3.626   5.957   6.304  0.9080 -0.0145 -0.4168
  739MOL0     O99678   3.289   5.863   6.431  0.3452 -0.3891  0.7387
  739MOL0     C99679   3.142   6.027   6.592  0.0045 -0.2478 -0.3133
  739MOL0     C99680   3.060   6.113   6.669 -0.3991 -0.6164  0.7295
  739MOL0     N99681   2.499   6.714   6.645 -0.3841 -0.9702 -0.6208
  739MOL0     N99682   2.378   6.754   6.649 -0.0248  0.5247 -0.0091
  739MOL0     C99683   1.302   6.677   7.021  0.3226  0.6729  1.3300
  739MOL0     C99684   1.193   6.767   7.017 -0.2973 -0.8496 -1.2098
  739MOL0     C99685   0.764   6.931   7.172  0.9333 -0.6530  0.1249
  739MOL0     C99686   0.704   6.999   7.283 -0.0198 -0.3959  0.9579
  739MOL0     C99687   0.578   7.060   7.277  0.0564 -0.0819 -0.1600
  739MOL0     C99688   0.519   7.085   7.153  0.9496  0.3870 -0.4826
  739MOL0     O99689   0.406   7.176   7.148 -0.6531  0.0033  1.1712
  739MOL0     C99690   0.318   7.173   7.037 -0.1105 -0.4541  0.2175
  739MOL0     C99691   0.199   7.264   7.055 -0.0198  0.8231  0.8768
  739MOL0     C99692   0.146   7.280   7.196 -0.3825 -0.4588 -0.3173
  739MOL0     C99693   0.017   7.355   7.201 -0.0466 -0.0690 -0.3878
  739MOL0     C99694   0.002   7.489   7.148  0.5801 -0.6033  0.5422
  739MOL0     C99695  -0.010   7.607   7.117 -0.5035  0.6549  0.8618
  739MOL0     C99696   0.581   7.028   7.038  0.5938  0.4043  0.0747
  739MOL0     C99697   0.699   6.951   7.053 -0.2361  0.1751  0.0499
  739MOL0     H99698   1.000   6.601   7.255  2.0454 -1.4049  1.9573
  739MOL0     H99699   1.200   6.458   7.252 -0.1858 -0.0824  0.6016
  739MOL0     H99700   1.469   6.462   6.922  0.9564 -2.0784 -0.9669
  739MOL0     H99701   1.554   6.593   7.017 -0.8895  0.1559  1.5584
  739MOL0     H99702   1.631   6.388   7.166  1.0266 -1.7670  0.1827
  739MOL0     H99703   1.589   6.289   7.021  1.3587 -0.7262  1.1852
  739MOL0     H99704   1.809   6.505   7.031  1.0721 -1.6222  0.3566
  739MOL0     H99705   1.822   6.336   7.004  1.4313  1.5357  0.5046
  739MOL0     H99706   1.704   6.356   6.790 -2.2362  1.4649  0.0863
  739MOL0     H99707   1.682   6.528   6.806 -1.0927 -0.3132  0.1454
  739MOL0     H99708   1.938   6.370   6.823  1.1044  1.3181  3.1526
  739MOL0     H99709   1.886   6.451   6.671 -0.5661  0.4382 -0.0813
  739MOL0     H99710   1.922   6.676   6.764  4.1055  4.0422  2.8566
  739MOL0     H99711   1.964   6.609   6.917 -1.2783 -0.4961  0.3736
  739MOL0     H99712   2.166   6.509   6.851 -0.1159 -2.5563 -1.1862
  739MOL0     H99713   2.119   6.514   6.684 -0.2948 -2.5553  2.2792
  739MOL0     H99714   2.154   6.739   6.883  0.6362  0.3503  0.3475
  739MOL0     H99715   2.143   6.781   6.707  0.8469 -0.5089 -0.2946
  739MOL0     H99716   2.404   6.608   6.948 -4.2447  1.4260  0.1482
  739MOL0     H99717   2.720   6.709   6.758 -0.5945  0.0755 -0.9641
  739MOL0     H99718   2.705   6.666   6.921  0.9333 -0.1684  0.5305
  739MOL0     H99719   2.680   6.456   6.684  0.7053 -0.1608  0.6509
  739MOL0     H99720   2.642   6.427   6.856  0.4434  0.1211  0.7766
  739MOL0     H99721   2.889   6.512   6.901 -0.7782  0.5153  0.7907
  739MOL0     H99722   2.903   6.533   6.726  1.7404 -2.0839 -1.0032
  739MOL0     H99723   2.856   6.289   6.699  0.1997 -0.0825  0.2545
  739MOL0     H99724   2.863   6.275   6.871 -0.8346  1.3489 -0.1265
  739MOL0     H99725   3.284   6.343   6.749  0.6972 -0.8071  0.4159
  739MOL0     H99726   3.536   6.173   6.533  3.2480  1.5342  0.7394
  739MOL0     H99727   3.506   6.300   6.645  0.2826 -0.0793  2.9275
  739MOL0     H99728   3.535   6.131   6.702 -1.4033 -0.6274  1.1069
  739MOL0     H99729   3.517   5.709   6.493 -3.1678  1.5107 -1.3756
  739MOL0     H99730   3.640   5.567   6.313 -0.7179  0.5527  1.1130
  739MOL0     H99731   3.894   5.560   6.035 -1.9798  0.1086 -3.5906
  739MOL0     H99732   3.835   5.531   6.201  0.4277  3.6337  0.2862
  739MOL0     H99733   3.597   5.499   6.050  0.2977  1.4385 -0.1614
  739MOL0     H99734   3.706   5.489   5.916 -2.6788 -0.7773  0.2909
  739MOL0     H99735   3.716   5.331   6.183  1.4610 -2.2442  0.7081
  739MOL0     H99736   3.825   5.301   6.037 -0.1702  1.4461 -1.4556
  739MOL0     H99737   3.519   5.278   6.023 -0.3374 -0.8809  1.4550
  739MOL0     H99738   3.641   5.231   5.908  1.1494 -0.7533  0.1104
  739MOL0     H99739   3.595   5.136   6.197 -0.3119  0.0742 -0.1220
  739MOL0     H99740   3.709   5.050   6.089 -0.8350 -2.0852 -1.3613
  739MOL0     H99741   3.440   5.059   5.970 -1.5451 -1.7584  0.0950
  739MOL0     H99742   3.537   4.922   5.989  0.2804  0.4169 -0.9089
  739MOL0     H99743   3.396   5.059   6.233 -0.6382 -0.2766  0.6420
  739MOL0     H99744   3.468   4.900   6.216 -0.8550 -0.4515  0.4226
  739MOL0     H99745   3.230   4.885   6.215 -0.9757  1.1972 -0.2275
  739MOL0     H99746   3.289   4.834   6.059  0.8523  0.4597  0.1902
  739MOL0     H99747   3.755   5.937   6.136 -0.6887  2.1046  0.9824
  739MOL0     H99748   3.626   6.065   6.298 -1.7268  0.3361  2.9289
  739MOL0     H99749   3.100   5.937   6.547  1.6066  0.5926 -3.8718
  739MOL0     H99750   2.959   6.078   6.684 -1.1221  0.8333 -0.5538
  739MOL0     H99751   1.390   6.705   6.964 -0.9575  1.5347 -0.3022
  739MOL0     H99752   1.211   6.847   6.947  2.3875 -2.7181 -2.8294
  739MOL0     H99753   0.757   6.995   7.377  0.1305 -1.5089  0.8455
  739MOL0     H99754   0.527   7.080   7.371  2.7831  1.3366  1.1412
  739MOL0     H99755   0.371   7.195   6.944  0.2360 -0.4145  0.4228
  739MOL0     H99756   0.293   7.067   7.028 -0.4651 -0.4052  0.6322
  739MOL0     H99757   0.120   7.228   6.988  2.2554 -4.1054  0.4231
  739MOL0     H99758   0.237   7.361   7.022  0.7571 -0.5138 -2.5841
  739MOL0     H99759   0.209   7.332   7.269 -2.3129  0.1790  1.0005
  739MOL0     H99760   0.132   7.174   7.218  1.2420 -1.2933 -2.8632
  739MOL0     H99761  -0.014   7.364   7.306  0.5221  5.4096 -0.3999
  739MOL0     H99762  -0.050   7.298   7.135 -1.1953 -0.2983  0.9263
  739MOL0     H99763  -0.006   7.704   7.070  1.4144  1.0577  1.7366
  739MOL0     H99764   0.532   7.059   6.947 -1.1671 -1.4103  0.3172
  739MOL0     H99765   0.741   6.916   6.959 -1.3986 -1.4826  0.1124
  740MOL0     O99766   5.045   4.432   6.261 -0.3973  0.5183 -0.5211
  740MOL0     C99767   5.047   4.336   6.178  0.6642 -0.6266 -0.3663
  740MOL0     O99768   4.955   4.238   6.178 -0.3495 -0.6033 -0.6537
  740MOL0     C99769   4.862   4.249   6.282 -0.4724 -0.1145 -0.9152
  740MOL0     C99770   4.902   4.217   6.413 -0.1239 -0.0022  1.0665
  740MOL0     C99771   4.810   4.219   6.524 -1.0944  0.5251 -0.0942
  740MOL0     C99772   4.678   4.249   6.495 -0.6794  0.6767 -0.1113
  740MOL0     O99773   4.588   4.235   6.603 -0.5663 -0.4646  0.1613
  740MOL0     C99774   4.508   4.123   6.590  0.5251  0.4943 -0.3629
  740MOL0     C99775   4.511   4.038   6.716  0.6369  0.3084  0.2720
  740MOL0     C99776   4.413   3.916   6.709  0.6308  0.1327 -0.3490
  740MOL0     C99777   4.283   3.928   6.628  0.2992 -0.2677 -0.2322
  740MOL0     C99778   4.183   3.809   6.651 -0.0887 -0.1187 -0.3943
  740MOL0     C99779   4.040   3.863   6.629  0.7957  0.3881 -0.0831
  740MOL0     C99780   4.015   3.867   6.482 -0.3042 -0.7618 -0.8742
  740MOL0     C99781   3.889   3.941   6.449 -0.1666 -0.3582 -0.1187
  740MOL0     N99782   3.828   3.870   6.335 -0.3260 -0.6189 -0.6070
  740MOL0     C99783   3.865   3.869   6.198 -0.1447  0.5403  0.1096
  740MOL0     C99784   3.782   3.776   6.141  0.8699  0.7862  0.1981
  740MOL0     C99785   3.801   3.723   6.003 -0.5636 -0.6532  0.3447
  740MOL0     C99786   3.683   3.628   5.962 -0.1607 -0.2628  0.6523
  740MOL0     C99787   3.709   3.554   5.829 -0.0796 -0.3764  0.1836
  740MOL0     C99788   3.600   3.453   5.813  0.0239 -0.8139 -0.0743
  740MOL0     O99789   3.496   3.507   5.730  0.0184  0.2812  0.9829
  740MOL0     C99790   3.370   3.452   5.729  0.1410 -0.5609  0.1518
  740MOL0     C99791   3.277   3.517   5.654  0.4398 -0.4192 -0.5256
  740MOL0     C99792   3.143   3.474   5.633 -0.1594  0.1845  0.0020
  740MOL0     C99793   3.057   3.559   5.543 -0.1691 -0.6318  0.6067
  740MOL0     C99794   3.095   3.356   5.695  0.3042 -0.3483 -0.5131
  740MOL0     C99795   2.955   3.307   5.678  0.1671 -0.2282 -0.5608
  740MOL0     O99796   2.864   3.371   5.601  0.3716 -0.4221  0.6008
  740MOL0     C99797   2.769   3.294   5.546  0.0493 -0.3183  0.5716
  740MOL0     C99798   2.657   3.239   5.607 -0.3759  0.1763 -0.9561
  740MOL0     C99799   2.561   3.177   5.531  0.0809 -0.4038  0.4999
  740MOL0     C99800   2.573   3.175   5.389  0.7569 -0.4918 -0.5432
  740MOL0     O99801   2.494   3.109   5.305  0.8481 -0.7408 -0.0356
  740MOL0     C99802   2.374   3.045   5.346 -0.2443  0.5200  0.1581
  740MOL0     C99803   2.306   2.979   5.219  0.0564 -0.5097 -0.4507
  740MOL0     C99804   2.373   2.851   5.170  0.7230 -0.3249 -0.5576
  740MOL0     C99805   2.303   2.784   5.054  0.3489  0.3304  0.7592
  740MOL0     C99806   2.363   2.648   5.000  0.6117  0.2156 -0.1607
  740MOL0     C99807   2.440   2.652   4.865 -0.1835  0.0559  0.1825
  740MOL0     C99808   2.590   2.690   4.884 -0.1690 -1.4113 -0.1645
  740MOL0     C99809   2.680   2.615   4.791 -1.2202 -0.5689 -0.6225
  740MOL0    Cl99810   2.682   2.690   4.627  0.1517 -0.0442  0.7220
  740MOL0     C99811   2.677   3.249   5.332 -0.2412  0.0286  0.2044
  740MOL0     C99812   2.771   3.310   5.408  0.5529 -0.4636  0.0174
  740MOL0     O99813   2.936   3.198   5.730  0.6830  0.2654  1.2799
  740MOL0     C99814   3.198   3.284   5.771 -0.8610 -0.5776 -0.5372
  740MOL0     C99815   3.328   3.330   5.791 -0.3203 -0.1446 -0.4320
  740MOL0     N99816   3.685   3.744   6.233  0.4045 -0.2447  0.2245
  740MOL0     N99817   3.713   3.787   6.342 -0.7964  0.1598 -0.5439
  740MOL0     C99818   4.632   4.273   6.368 -0.1920  0.6215  0.2483
  740MOL0     C99819   4.723   4.264   6.260  0.6129 -0.5494  0.1866
  740MOL0     C99820   5.157   4.349   6.079 -0.0557 -0.5589  0.9323
  740MOL0     C99821   5.262   4.432   6.103 -0.5900 -0.7701  0.0516
  740MOL0     C99822   5.359   4.453   6.009 -0.6600  0.7250  0.2349
  740MOL0     C99823   5.370   4.379   5.899 -0.2006  0.2089  0.5893
  740MOL0     O99824   5.485   4.402   5.815 -0.1693 -0.1098 -0.6669
  740MOL0     C99825   5.447   4.498   5.720 -0.2187 -0.1078 -0.3870
  740MOL0     C99826   5.529   4.622   5.741  0.0353 -0.4231  0.0219
  740MOL0     C99827   5.508   4.705   5.615  0.3625 -0.5306  0.3885
  740MOL0     C99828   5.561   4.844   5.633 -0.3458  0.5401 -0.1153
  740MOL0     C99829   5.593   4.906   5.505  0.0268 -0.1775  0.6633
  740MOL0     C99830   5.638   4.964   5.406  0.6848 -0.2718  0.7367
  740MOL0     C99831   5.259   4.293   5.869 -0.7019 -0.7949 -0.5884
  740MOL0     C99832   5.155   4.279   5.963 -0.2748  1.0777  0.7610
  740MOL0     H99833   5.006   4.192   6.428 -0.1805 -0.8881  0.0897
  740MOL0     H99834   4.830   4.184   6.625 -4.2357 -1.0207  0.0990
  740MOL0     H99835   4.413   4.173   6.573  1.0880  1.1644 -1.6975
  740MOL0     H99836   4.521   4.052   6.507 -3.6351  0.7029 -1.4007
  740MOL0     H99837   4.615   4.003   6.725  0.8810  0.8208 -0.4712
  740MOL0     H99838   4.498   4.106   6.801  1.0299  0.4039  0.2600
  740MOL0     H99839   4.464   3.832   6.662 -2.3313 -0.3762 -3.0028
  740MOL0     H99840   4.373   3.894   6.809 -3.8401  1.1508 -1.6801
  740MOL0     H99841   4.232   4.018   6.663 -0.4834  0.4384 -2.9719
  740MOL0     H99842   4.304   3.943   6.522  1.5238  1.7664  0.2499
  740MOL0     H99843   4.186   3.723   6.583  0.4525 -0.9594  0.6608
  740MOL0     H99844   4.190   3.770   6.753  1.5097  0.4536 -0.2451
  740MOL0     H99845   3.972   3.793   6.677  2.2141 -1.5323 -0.7718
  740MOL0     H99846   4.017   3.961   6.673  2.5238  0.2191  1.2797
  740MOL0     H99847   4.087   3.925   6.423 -1.2847  0.0017 -1.3638
  740MOL0     H99848   4.020   3.765   6.444 -1.0150 -0.9595 -0.4534
  740MOL0     H99849   3.908   4.044   6.417 -2.2853  0.0486 -0.1806
  740MOL0     H99850   3.818   3.957   6.530 -0.7551 -0.0211 -0.6951
  740MOL0     H99851   3.956   3.916   6.162 -0.8062  0.8104 -1.2584
  740MOL0     H99852   3.821   3.807   5.937  2.4979 -1.1155  0.4896
  740MOL0     H99853   3.893   3.665   5.987 -0.2955 -0.9408  2.5395
  740MOL0     H99854   3.590   3.685   5.959 -0.0013  0.0049  0.7860
  740MOL0     H99855   3.669   3.563   6.049  1.0166 -1.0675  0.2655
  740MOL0     H99856   3.806   3.503   5.826 -0.4235 -1.2368  1.9479
  740MOL0     H99857   3.714   3.632   5.753  2.5260 -1.2015 -0.6052
  740MOL0     H99858   3.558   3.441   5.913 -0.6402  1.9443  0.0548
  740MOL0     H99859   3.635   3.354   5.782  3.1704 -0.8158  2.7959
  740MOL0     H99860   3.302   3.615   5.616 -2.1067  0.5405  0.1375
  740MOL0     H99861   2.987   3.610   5.610 -0.8238 -1.4759  0.5973
  740MOL0     H99862   3.135   3.628   5.510  3.4127 -4.3936  0.4420
  740MOL0     H99863   3.001   3.521   5.457 -1.4342 -0.3986  1.3014
  740MOL0     H99864   2.655   3.240   5.715  1.3767  1.7041 -0.8738
  740MOL0     H99865   2.480   3.125   5.581  0.7050 -1.6428  0.2639
  740MOL0     H99866   2.403   2.972   5.422 -1.2856 -2.5804 -2.2297
  740MOL0     H99867   2.292   3.108   5.384 -1.7683  0.3013 -2.4907
  740MOL0     H99868   2.203   2.950   5.245  0.6796  0.4244  3.9464
  740MOL0     H99869   2.314   3.046   5.134  0.8001 -2.5443 -2.0656
  740MOL0     H99870   2.395   2.779   5.249 -2.1648  1.4254  2.0981
  740MOL0     H99871   2.474   2.885   5.146  0.3950  1.4740  0.4359
  740MOL0     H99872   2.203   2.766   5.094  0.1882 -0.4249  0.0207
  740MOL0     H99873   2.294   2.859   4.975  0.0950  1.0922  1.4868
  740MOL0     H99874   2.273   2.586   4.988 -0.5914  1.4394  1.9592
  740MOL0     H99875   2.427   2.608   5.079 -0.2521 -3.6069 -1.1501
  740MOL0     H99876   2.439   2.554   4.817  3.2032  0.4426 -0.9299
  740MOL0     H99877   2.391   2.718   4.792 -2.4715 -1.2358  0.4312
  740MOL0     H99878   2.628   2.667   4.984  2.8231 -2.6514 -1.4571
  740MOL0     H99879   2.616   2.795   4.870  0.2752 -1.2172  1.7758
  740MOL0     H99880   2.642   2.515   4.773 -1.2279 -0.3758 -1.7543
  740MOL0     H99881   2.785   2.618   4.824 -0.2702  0.0593 -3.3635
  740MOL0     H99882   2.702   3.236   5.227  2.9163  1.5192  0.6713
  740MOL0     H99883   2.849   3.360   5.353 -0.5791 -1.6872 -2.9264
  740MOL0     H99884   3.164   3.188   5.809 -0.7482 -1.5031 -2.6487
  740MOL0     H99885   3.403   3.274   5.847 -0.3255 -0.5831 -0.8524
  740MOL0     H99886   4.525   4.281   6.349 -0.3593 -1.3355  0.1656
  740MOL0     H99887   4.698   4.267   6.154  2.9601 -0.5348 -0.4179
  740MOL0     H99888   5.272   4.504   6.184 -1.2288  1.4221 -1.6962
  740MOL0     H99889   5.447   4.512   6.031 -0.4918  1.1198 -1.3896
  740MOL0     H99890   5.488   4.460   5.626  2.7406 -0.1513  0.8284
  740MOL0     H99891   5.340   4.522   5.710 -0.5152 -1.0982  0.2575
  740MOL0     H99892   5.632   4.595   5.764 -0.5139 -1.9905  0.7283
  740MOL0     H99893   5.507   4.680   5.831  3.7905  0.4672  0.5432
  740MOL0     H99894   5.404   4.714   5.582  1.5736  5.4050 -3.3262
  740MOL0     H99895   5.558   4.648   5.536 -2.6327  0.7017 -2.6658
  740MOL0     H99896   5.656   4.840   5.688  1.9655 -0.5509 -3.8301
  740MOL0     H99897   5.490   4.905   5.689 -1.1478  1.6663 -2.2701
  740MOL0     H99898   5.674   5.025   5.325  0.0259 -1.9448 -0.8958
  740MOL0     H99899   5.251   4.242   5.773 -1.4961 -1.1736 -0.3290
  740MOL0     H99900   5.069   4.221   5.932 -1.3708  0.6075  4.2236
  741MOL0     O99901   1.125   8.798   1.084  0.0006  0.6448  0.2846
  741MOL0     C99902   1.147   8.922   1.066 -0.4358  0.8980  0.7466
  741MOL0     O99903   1.108   8.985   0.949  0.0928 -0.5435  0.9741
  741MOL0     C99904   1.069   8.917   0.838  0.1884 -0.3427  0.2568
  741MOL0     C99905   1.165   8.833   0.785  0.6125  0.0999  0.0377
  741MOL0     C99906   1.144   8.775   0.666  0.2112  0.5420 -0.4428
  741MOL0     C99907   1.014   8.781   0.602  0.7430 -1.1697  0.8183
  741MOL0     O99908   0.981   8.718   0.487 -0.2558  0.6550 -0.1237
  741MOL0     C99909   0.888   8.770   0.386 -0.1514 -0.2445  0.0490
  741MOL0     C99910   0.865   8.675   0.270  0.2436  0.8543 -0.6537
  741MOL0     C99911   0.763   8.731   0.178  0.3174  0.7444  0.3278
  741MOL0     C99912   0.727   8.621   0.080  0.1553 -0.2446  0.0560
  741MOL0     C99913   0.620   8.521   0.132 -0.8665  0.1331  0.3670
  741MOL0     C99914   0.612   8.398   0.041  0.2814  0.5610  0.0044
  741MOL0     C99915   0.523   8.289   0.099  0.6323 -0.4585  0.8280
  741MOL0     C99916   0.376   8.290   0.047  0.0919  0.0724  0.1957
  741MOL0     N99917   0.298   8.398   0.107  0.2297  0.3280  0.2587
  741MOL0     C99918   0.221   8.385   0.218  0.8981 -1.0262 -0.0444
  741MOL0     C99919   0.144   8.498   0.212  0.5333  0.6416  1.3812
  741MOL0     C99920   0.043   8.536   0.312  0.0641  0.1574  0.6820
  741MOL0     C99921   0.032   8.685   0.312 -0.0462 -0.2253 -0.8633
  741MOL0     C99922   0.150   8.749   0.398  0.6213  0.7616 -0.2137
  741MOL0     C99923   0.159   8.900   0.377 -0.5607  0.6166  0.6579
  741MOL0     O99924   0.243   8.956   0.468 -0.5843  0.1267  0.1448
  741MOL0     C99925   0.208   9.086   0.485  0.2155 -0.0647  0.7685
  741MOL0     C99926   0.148   9.115   0.613 -0.4402  0.0039  0.2089
  741MOL0     C99927   0.117   9.245   0.650 -0.7081 -0.3479  0.8150
  741MOL0     C99928   0.069   9.270   0.789 -1.1973  0.2187  0.8636
  741MOL0     C99929   0.142   9.358   0.564  1.6064  0.3818 -0.0813
  741MOL0     C99930   0.123   9.506   0.596  0.1486 -0.5420 -1.3580
  741MOL0     O99931   0.121   9.544   0.733  0.4750  0.3041  0.2434
  741MOL0     C99932   0.094   9.672   0.757 -0.3655 -0.4719  0.2321
  741MOL0     C99933   0.189   9.778   0.727  0.4138 -0.1429 -0.6385
  741MOL0     C99934   0.146   9.914   0.742  0.3066 -0.2666  0.3100
  741MOL0     C99935   0.012   9.945   0.781  0.2974 -0.3796  0.3589
  741MOL0     O99936  -0.024  10.082   0.812 -0.4156  0.5823  0.7633
  741MOL0     C99937   0.014  10.130   0.937 -0.8086 -0.5278  0.1473
  741MOL0     C99938   0.044  10.280   0.940  0.4534 -0.8812 -0.3170
  741MOL0     C99939   0.175  10.315   0.874 -0.2979  0.4809  0.9764
  741MOL0     C99940   0.296  10.239   0.906 -0.3638  0.5571 -0.7022
  741MOL0     C99941   0.330  10.224   1.051  0.0027 -0.1586 -0.4524
  741MOL0     C99942   0.377  10.357   1.112  0.2213 -0.3607  1.0683
  741MOL0     C99943   0.415  10.352   1.262 -0.0499 -0.3573  0.2498
  741MOL0     C99944   0.554  10.295   1.288  0.7839 -0.5387  0.4974
  741MOL0    Cl99945   0.642  10.400   1.399  0.0720 -0.1711  0.4026
  741MOL0     C99946  -0.076   9.840   0.816  0.0769 -0.2242  0.4821
  741MOL0     C99947  -0.032   9.706   0.805 -0.3891  0.3049  0.0047
  741MOL0     O99948   0.106   9.589   0.503 -0.6561 -0.2560 -0.2983
  741MOL0     C99949   0.195   9.327   0.434  0.8395 -0.3964  0.2725
  741MOL0     C99950   0.219   9.194   0.389  0.2943  0.5449 -0.4652
  741MOL0     N99951   0.166   8.562   0.086 -0.5718  0.4801  1.3083
  741MOL0     N99952   0.256   8.499   0.021  0.5590  0.3497 -0.3384
  741MOL0     C99953   0.911   8.864   0.656  0.0445  0.4138  0.3591
  741MOL0     C99954   0.950   8.933   0.768 -0.5242 -0.7368  0.1574
  741MOL0     C99955   1.196   9.000   1.178 -0.2735  0.1547  1.1121
  741MOL0     C99956   1.248   9.132   1.165  0.0222  0.3664  0.7993
  741MOL0     C99957   1.305   9.190   1.277  0.4756  0.0755  0.7408
  741MOL0     C99958   1.299   9.132   1.408  0.5953  0.5953 -0.2386
  741MOL0     O99959   1.367   9.178   1.512  0.0682  1.0001 -0.2553
  741MOL0     C99960   1.386   9.320   1.510  0.0156  1.0640  0.5471
  741MOL0     C99961   1.398   9.377   1.646  0.0660  0.1602 -1.1273
  741MOL0     C99962   1.464   9.293   1.752  0.0621 -0.1129 -0.5216
  741MOL0     C99963   1.549   9.381   1.853  0.4129 -1.3274 -0.2360
  741MOL0     C99964   1.475   9.485   1.914 -1.4513  0.1425 -0.4978
  741MOL0     C99965   1.430   9.582   1.967 -0.0332 -0.5946 -0.4244
  741MOL0     C99966   1.238   9.005   1.418 -0.3192 -0.0034 -1.1748
  741MOL0     C99967   1.200   8.941   1.305 -0.2536  0.9878 -0.2375
  741MOL0     H99968   1.263   8.821   0.831  2.4595 -0.8162 -3.7053
  741MOL0     H99969   1.224   8.718   0.619 -0.0913  0.4515 -0.8526
  741MOL0     H99970   0.790   8.779   0.433 -1.0931 -1.7451 -1.5134
  741MOL0     H99971   0.927   8.867   0.356 -0.7153 -0.3242 -0.9818
  741MOL0     H99972   0.949   8.655   0.203  1.3202 -0.6528  1.0459
  741MOL0     H99973   0.836   8.579   0.315 -0.0157  1.5420  0.7169
  741MOL0     H99974   0.671   8.756   0.232 -0.0134  0.8201 -0.2602
  741MOL0     H99975   0.809   8.809   0.116  1.7671  0.0475  0.4945
  741MOL0     H99976   0.685   8.672  -0.007 -2.8501  1.7554  2.4563
  741MOL0     H99977   0.821   8.569   0.060  0.3928 -0.8948  2.4705
  741MOL0     H99978   0.652   8.473   0.225 -1.9308 -1.5793 -0.0974
  741MOL0     H99979   0.519   8.564   0.130 -0.1515  1.9818 -2.2214
  741MOL0     H99980   0.584   8.411  -0.064  0.2998 -3.9865 -0.7634
  741MOL0     H99981   0.715   8.361   0.044  0.6952  1.6389  4.1709
  741MOL0     H99982   0.560   8.191   0.067  1.1881  0.0631 -0.1496
  741MOL0     H99983   0.532   8.281   0.208 -2.9181 -0.8256  1.2187
  741MOL0     H99984   0.324   8.196   0.069  0.0684 -0.0585 -0.3892
  741MOL0     H99985   0.377   8.292  -0.063  1.3003 -2.3154  0.0828
  741MOL0     H99986   0.204   8.305   0.289  0.8316  1.1094  2.4613
  741MOL0     H99987  -0.055   8.494   0.288 -0.4602  0.9100  1.4198
  741MOL0     H99988   0.055   8.506   0.417 -2.7341  2.4059  1.7645
  741MOL0     H99989  -0.058   8.715   0.367  1.6634  2.2173  0.7971
  741MOL0     H99990   0.040   8.733   0.214  0.8216  4.0204  1.0714
  741MOL0     H99991   0.240   8.695   0.366  1.1913  1.8413 -0.4650
  741MOL0     H99992   0.133   8.738   0.506  0.2952  2.5911 -0.0509
  741MOL0     H99993   0.055   8.928   0.397 -0.0175  0.3897  4.7802
  741MOL0     H99994   0.185   8.928   0.275  0.2747  0.8669  0.9295
  741MOL0     H99995   0.123   9.040   0.687 -2.7389  0.5275  0.0419
  741MOL0     H99996   0.150   9.327   0.835  0.2775 -1.6230  0.6807
  741MOL0     H99997  -0.024   9.326   0.783  0.3152  2.7020 -1.6938
  741MOL0     H99998   0.044   9.173   0.833  1.1830  0.1015  2.1335
  741MOL0     H99999   0.285   9.764   0.677  0.5892 -0.1826 -0.2892
  741MOL0     H    0   0.227   9.986   0.739  1.1223 -1.1530  0.5077
  741MOL0     H    1  -0.065  10.106   1.009 -0.9672 -1.8238 -0.4414
  741MOL0     H    2   0.111  10.086   0.962 -1.5230 -1.0405  2.2529
  741MOL0     H    3  -0.033  10.333   0.884  1.1667  1.2949  0.6734
  741MOL0     H    4   0.041  10.311   1.044 -0.8419 -0.3439 -0.4929
  741MOL0     H    5   0.184  10.422   0.892  1.8823  0.0969  2.6226
  741MOL0     H    6   0.160  10.310   0.766  0.5917 -0.1198  0.8718
  741MOL0     H    7   0.279  10.143   0.857  0.7931 -0.2884  0.4777
  741MOL0     H    8   0.379  10.281   0.850  0.0105 -1.3004 -1.6130
  741MOL0     H    9   0.419  10.160   1.059  2.6465  3.3346  0.7884
  741MOL0     H   10   0.253  10.183   1.116 -1.5511  1.1677 -1.3781
  741MOL0     H   11   0.468  10.374   1.055  0.3766 -4.0074 -0.0434
  741MOL0     H   12   0.308  10.441   1.098 -1.6375 -2.0904 -0.7634
  741MOL0     H   13   0.343  10.301   1.327  0.1211  1.8307  2.2512
  741MOL0     H   14   0.413  10.457   1.294  1.4297  0.3409 -1.7593
  741MOL0     H   15   0.611  10.296   1.194  0.1290  2.4832  0.0419
  741MOL0     H   16   0.544  10.190   1.319 -0.4822 -1.5352 -2.8017
  741MOL0     H   17  -0.168   9.860   0.870 -0.4284 -4.1025  1.3085
  741MOL0     H   18  -0.098   9.624   0.834 -0.1962  0.7965  1.9819
  741MOL0     H   19   0.217   9.408   0.365 -1.2760  1.3776  1.5360
  741MOL0     H   20   0.258   9.166   0.292 -0.6130  0.5611 -0.8488
  741MOL0     H   21   0.806   8.860   0.628 -0.0896  1.9794  0.5399
  741MOL0     H   22   0.886   9.005   0.819  1.0882  0.5942  0.3728
  741MOL0     H   23   1.250   9.166   1.062 -1.0436 -3.2598 -0.6040
  741MOL0     H   24   1.336   9.293   1.263 -1.4593  0.9713  2.5998
  741MOL0     H   25   1.482   9.341   1.463  0.7522 -1.8893  0.5238
  741MOL0     H   26   1.304   9.368   1.455  0.2735  0.5782 -0.2843
  741MOL0     H   27   1.301   9.400   1.690  1.1898  2.1155  0.4887
  741MOL0     H   28   1.454   9.469   1.632  0.2642  0.4818  1.3687
  741MOL0     H   29   1.539   9.220   1.719  2.4964  0.9342  2.1678
  741MOL0     H   30   1.382   9.249   1.810  1.2539 -0.3370  1.1016
  741MOL0     H   31   1.638   9.421   1.803  0.1634 -0.9457 -0.3795
  741MOL0     H   32   1.594   9.317   1.930  0.9661 -2.5168 -1.4944
  741MOL0     H   33   1.390   9.665   2.022  2.7108 -0.6320  1.8422
  741MOL0     H   34   1.231   8.960   1.517 -2.5144 -0.2380 -1.3857
  741MOL0     H   35   1.171   8.837   1.313  0.5942  0.8558  1.6572
  742MOL0     O   36   7.330   8.176   3.711  0.4739  0.3540 -0.0615
  742MOL0     C   37   7.249   8.195   3.619 -0.6902  0.1039  0.3103
  742MOL0     O   38   7.197   8.097   3.540  0.6522 -0.1689 -0.5848
  742MOL0     C   39   7.239   7.972   3.563  0.6213 -0.2122  0.3748
  742MOL0     C   40   7.208   7.903   3.687 -0.9459  0.2396  0.6002
  742MOL0     C   41   7.248   7.769   3.717  0.0021 -0.1503  0.3569
  742MOL0     C   42   7.308   7.697   3.613 -0.3970 -0.3115  0.1249
  742MOL0     O   43   7.364   7.580   3.636 -0.3918  0.9794  0.1717
  742MOL0     C   44   7.268   7.466   3.641  0.0928 -0.0697  0.1795
  742MOL0     C   45   7.280   7.399   3.502 -0.5838  0.6414 -0.1783
  742MOL0     C   46   7.182   7.294   3.488  0.5072  0.8283 -0.4574
  742MOL0     C   47   7.208   7.163   3.567 -0.1947 -0.2234  0.1089
  742MOL0     C   48   7.118   7.045   3.527 -0.2933  0.6004  0.3265
  742MOL0     C   49   7.174   6.978   3.400  0.0458  1.0351 -0.1829
  742MOL0     C   50   7.076   6.887   3.327  0.6536 -0.1171 -0.4906
  742MOL0     C   51   6.949   6.952   3.256 -0.3653  0.6073 -1.0091
  742MOL0     N   52   6.980   7.072   3.177  0.0993 -0.6362  0.3066
  742MOL0     C   53   7.092   7.084   3.100 -0.3987 -0.3868  0.0048
  742MOL0     C   54   7.099   7.206   3.059 -0.6683  0.2621 -0.0915
  742MOL0     C   55   7.207   7.256   2.960 -0.2176 -0.2220 -0.4258
  742MOL0     C   56   7.336   7.279   3.039  0.5483 -0.8415 -0.3394
  742MOL0     C   57   7.432   7.368   2.968 -0.2113 -1.1391 -0.6144
  742MOL0     C   58   7.396   7.518   2.969 -1.2240 -0.3146 -0.6128
  742MOL0     O   59   7.339   7.562   3.091 -0.0635 -0.1894  0.0808
  742MOL0     C   60   7.270   7.682   3.091  0.8210 -0.9076  0.4282
  742MOL0     C   61   7.176   7.701   3.193 -0.9179 -0.2842 -0.1061
  742MOL0     C   62   7.102   7.819   3.206 -0.6616 -0.2707 -0.7784
  742MOL0     C   63   7.010   7.830   3.319  0.1328  0.3230 -0.6144
  742MOL0     C   64   7.114   7.920   3.107  0.0763 -0.1933  0.4957
  742MOL0     C   65   7.036   8.045   3.116 -0.5221 -0.1124 -0.1860
  742MOL0     O   66   6.983   8.095   2.995 -0.5064  0.0896 -0.3141
  742MOL0     C   67   6.903   8.208   3.006 -0.1563  0.6059  0.3536
  742MOL0     C   68   6.934   8.299   2.922  0.7173 -0.4811  0.9345
  742MOL0     C   69   6.859   8.414   2.903  0.3261  0.4189 -0.0528
  742MOL0     C   70   6.739   8.417   2.968  0.3490  0.1015 -0.9969
  742MOL0     O   71   6.659   8.519   2.938 -0.4212 -0.4458  0.2888
  742MOL0     C   72   6.549   8.485   2.858  0.1521 -0.0387 -0.4703
  742MOL0     C   73   6.479   8.610   2.810  0.1342 -1.2099  0.1740
  742MOL0     C   74   6.569   8.717   2.737  0.3069 -0.1002  0.6719
  742MOL0     C   75   6.658   8.676   2.614  1.0308  0.4227  0.1805
  742MOL0     C   76   6.723   8.804   2.573 -0.2104  0.5733 -0.7708
  742MOL0     C   77   6.642   8.911   2.505 -0.4200  0.2316 -0.3212
  742MOL0     C   78   6.722   9.036   2.463 -0.0703 -0.3220 -0.4819
  742MOL0     C   79   6.669   9.097   2.335 -0.3781  0.4392  0.5267
  742MOL0    Cl   80   6.494   9.139   2.339  0.3144  0.1697  0.1494
  742MOL0     C   81   6.698   8.320   3.054 -0.9409  0.6632  0.2939
  742MOL0     C   82   6.783   8.215   3.075  0.3065  0.4173 -0.7740
  742MOL0     O   83   7.036   8.112   3.219  0.8684 -0.5885  0.4262
  742MOL0     C   84   7.190   7.892   2.997 -0.5344 -0.1451  1.6647
  742MOL0     C   85   7.270   7.782   2.994 -0.4533 -0.1984 -1.1828
  742MOL0     N   86   6.984   7.272   3.097 -0.2969 -0.3218  0.7248
  742MOL0     N   87   6.913   7.195   3.170 -0.1011  0.1298  0.8628
  742MOL0     C   88   7.344   7.759   3.494 -0.6659 -0.8351 -0.6600
  742MOL0     C   89   7.315   7.896   3.470 -0.1607 -0.5570 -0.0509
  742MOL0     C   90   7.231   8.338   3.587 -0.4421 -0.2964  0.2358
  742MOL0     C   91   7.149   8.361   3.476  0.2472  0.4975 -0.2758
  742MOL0     C   92   7.138   8.484   3.422 -0.2929 -0.6596  0.2216
  742MOL0     C   93   7.205   8.603   3.477 -0.1400  1.2213 -0.3366
  742MOL0     O   94   7.206   8.708   3.396 -1.0155 -0.4282  0.7556
  742MOL0     C   95   7.278   8.824   3.443  0.4802  2.0024 -0.6914
  742MOL0     C   96   7.277   8.926   3.337 -0.4172 -0.4490 -0.0305
  742MOL0     C   97   7.159   9.008   3.314 -0.5339 -1.7030 -0.4943
  742MOL0     C   98   7.210   9.145   3.258 -0.4109 -0.1782  0.4734
  742MOL0     C   99   7.282   9.224   3.362  0.0669  0.0801  0.6389
  742MOL0     C  100   7.352   9.293   3.427 -0.3761  0.7267 -0.2054
  742MOL0     C  101   7.286   8.579   3.596 -0.3005  0.9959 -0.0035
  742MOL0     C  102   7.295   8.449   3.649  0.0846  0.1234 -0.6592
  742MOL0     H  103   7.137   7.952   3.753 -0.2820  0.4387  1.1686
  742MOL0     H  104   7.245   7.725   3.816 -1.6977 -1.1348 -0.0906
  742MOL0     H  105   7.288   7.396   3.723 -2.0334  1.7054  2.3246
  742MOL0     H  106   7.168   7.508   3.653 -1.2249 -2.0098 -2.8618
  742MOL0     H  107   7.268   7.473   3.423  0.4997 -1.6290 -2.6318
  742MOL0     H  108   7.383   7.364   3.495  0.1192  2.8451 -5.0700
  742MOL0     H  109   7.095   7.352   3.519  0.0919 -0.5467  1.0428
  742MOL0     H  110   7.174   7.258   3.384  0.8592  0.1674 -0.2632
  742MOL0     H  111   7.313   7.142   3.546 -0.9619 -1.6204 -2.7880
  742MOL0     H  112   7.204   7.173   3.676 -0.6424  0.7106  0.0103
  742MOL0     H  113   7.110   6.961   3.597 -0.7024  1.1648  0.9709
  742MOL0     H  114   7.016   7.081   3.513 -0.4361  1.7266  3.4618
  742MOL0     H  115   7.216   7.057   3.336  1.8277  0.5800  0.3504
  742MOL0     H  116   7.264   6.924   3.430  0.2513  2.7718  2.7123
  742MOL0     H  117   7.135   6.842   3.246 -1.1078  0.7560 -2.3772
  742MOL0     H  118   7.039   6.806   3.390 -1.6093  1.0202 -0.2580
  742MOL0     H  119   6.867   6.979   3.323 -0.9997  0.5872 -1.7577
  742MOL0     H  120   6.913   6.884   3.178  1.1414  0.4668 -1.6121
  742MOL0     H  121   7.168   7.008   3.092  1.8127  1.2466  3.3980
  742MOL0     H  122   7.213   7.189   2.874 -0.2078 -1.8975  0.8310
  742MOL0     H  123   7.163   7.343   2.911 -1.6323 -1.1598 -0.8786
  742MOL0     H  124   7.376   7.181   3.065  0.4517 -0.8711 -0.3005
  742MOL0     H  125   7.319   7.331   3.134  0.4890 -0.0049 -0.7929
  742MOL0     H  126   7.443   7.333   2.865  1.8954  0.8333 -1.1451
  742MOL0     H  127   7.531   7.358   3.013  0.7176 -0.4487 -2.3782
  742MOL0     H  128   7.331   7.541   2.885 -2.3015 -4.3450 -1.0834
  742MOL0     H  129   7.488   7.576   2.957 -0.5479 -1.6773 -2.4179
  742MOL0     H  130   7.154   7.620   3.262  2.3216 -2.3088 -1.2273
  742MOL0     H  131   6.904   7.820   3.297  0.3519 -1.0894 -1.1544
  742MOL0     H  132   7.043   7.751   3.387  1.7947  0.0703 -1.6462
  742MOL0     H  133   7.018   7.922   3.377  0.0955 -0.7320  1.1463
  742MOL0     H  134   7.024   8.279   2.866  1.9036 -0.3897  2.7166
  742MOL0     H  135   6.895   8.494   2.838 -1.7937  2.2717  0.9103
  742MOL0     H  136   6.584   8.417   2.780  0.1418 -4.6315  3.1213
  742MOL0     H  137   6.474   8.426   2.912  0.4390  0.4392  0.4845
  742MOL0     H  138   6.392   8.581   2.750  1.2517  0.8982 -2.6789
  742MOL0     H  139   6.444   8.647   2.907 -2.1599  1.5174 -1.5407
  742MOL0     H  140   6.642   8.744   2.814 -0.0901 -2.7584  2.1095
  742MOL0     H  141   6.501   8.794   2.698 -2.1656 -1.9445  1.0647
  742MOL0     H  142   6.731   8.596   2.628  0.1392 -0.4842 -0.2378
  742MOL0     H  143   6.588   8.639   2.539  1.5013  4.3588 -2.5115
  742MOL0     H  144   6.801   8.764   2.506  0.9606 -0.8426  1.3203
  742MOL0     H  145   6.770   8.851   2.660 -0.4686  0.7826 -0.7455
  742MOL0     H  146   6.608   8.855   2.418  2.4469 -1.8695 -0.2250
  742MOL0     H  147   6.552   8.934   2.562 -2.0377 -1.3134 -2.1321
  742MOL0     H  148   6.825   9.002   2.469 -0.7307 -2.2124  2.4875
  742MOL0     H  149   6.728   9.116   2.537  2.2399  0.2431 -1.1924
  742MOL0     H  150   6.689   9.033   2.248 -0.0167  0.1931  0.7861
  742MOL0     H  151   6.730   9.187   2.325 -1.5077  1.2318  0.6308
  742MOL0     H  152   6.605   8.337   3.108 -2.5378 -2.0839 -1.3696
  742MOL0     H  153   6.769   8.139   3.151  2.0851  0.2465 -0.5731
  742MOL0     H  154   7.206   7.961   2.915  0.2295 -1.6192  0.5177
  742MOL0     H  155   7.346   7.771   2.917  1.9264  4.4785  0.1201
  742MOL0     H  156   7.388   7.698   3.416 -0.5590  0.0847 -1.3470
  742MOL0     H  157   7.333   7.935   3.370  0.3366 -1.6736 -0.4104
  742MOL0     H  158   7.085   8.284   3.434  1.8243 -0.9276 -0.1761
  742MOL0     H  159   7.081   8.490   3.330 -1.0829  0.5056  0.7614
  742MOL0     H  160   7.214   8.860   3.525 -0.7723 -1.7196  0.1752
  742MOL0     H  161   7.377   8.809   3.487  0.0763 -2.1560 -0.7780
  742MOL0     H  162   7.293   8.880   3.239 -0.0407 -2.4803  0.9249
  742MOL0     H  163   7.370   8.979   3.357 -0.1834 -1.3508  1.4535
  742MOL0     H  164   7.095   9.020   3.402 -4.3155  0.8517 -3.2873
  742MOL0     H  165   7.091   8.959   3.244 -1.8178  1.0517 -1.3062
  742MOL0     H  166   7.131   9.209   3.217 -1.2275 -1.0254  0.6988
  742MOL0     H  167   7.275   9.122   3.174 -2.1341  2.9081 -1.9346
  742MOL0     H  168   7.409   9.368   3.479 -1.9071  3.0814 -1.7354
  742MOL0     H  169   7.346   8.658   3.640  2.0918 -1.6371  1.8871
  742MOL0     H  170   7.351   8.444   3.742 -0.8255 -0.6771 -0.1401
  743MOL0     O  171   3.602   6.712   4.840  0.9842  0.3708  1.0658
  743MOL0     C  172   3.490   6.763   4.804 -0.1835 -0.0444 -0.8118
  743MOL0     O  173   3.472   6.890   4.758  0.4562  0.0446  0.6892
  743MOL0     C  174   3.582   6.968   4.738 -0.1155  0.1121 -0.1703
  743MOL0     C  175   3.675   6.946   4.639 -0.2288  0.5360 -0.2144
  743MOL0     C  176   3.776   7.041   4.610  0.9600 -0.1120  0.5110
  743MOL0     C  177   3.775   7.161   4.678 -0.8121 -0.8620 -0.0486
  743MOL0     O  178   3.851   7.270   4.651 -0.6352 -0.0018 -0.3888
  743MOL0     C  179   3.782   7.359   4.554  0.6032 -0.5998 -0.4857
  743MOL0     C  180   3.889   7.446   4.486  0.1850  0.7560 -0.1303
  743MOL0     C  181   3.992   7.355   4.415  0.1346  0.4498  0.3847
  743MOL0     C  182   4.137   7.395   4.469 -0.7775  0.8330 -0.2561
  743MOL0     C  183   4.236   7.317   4.379  0.7011 -0.4671 -0.5553
  743MOL0     C  184   4.366   7.320   4.453  0.1181  0.1009  0.5430
  743MOL0     C  185   4.463   7.231   4.368  0.4723  0.5588  0.1096
  743MOL0     C  186   4.442   7.084   4.379  1.1266 -0.0704 -0.2520
  743MOL0     N  187   4.548   7.002   4.322  0.4658  0.2357  0.8655
  743MOL0     C  188   4.561   6.984   4.189  0.7970  0.6841 -0.1871
  743MOL0     C  189   4.658   6.895   4.166  0.5570  0.8761  0.0331
  743MOL0     C  190   4.712   6.840   4.042 -0.7830 -1.3938 -0.7355
  743MOL0     C  191   4.859   6.854   4.057 -1.5103 -0.6537  0.2731
  743MOL0     C  192   4.937   6.864   3.923  0.0411 -0.4233  1.0856
  743MOL0     C  193   4.946   6.732   3.847 -1.0496 -0.5448  0.1587
  743MOL0     O  194   4.821   6.665   3.839  0.0749  0.6726 -0.3340
  743MOL0     C  195   4.795   6.537   3.769  0.8192 -0.9655 -0.1924
  743MOL0     C  196   4.666   6.502   3.712 -0.3895  1.1641 -0.1844
  743MOL0     C  197   4.648   6.378   3.650  0.8399  0.3150  0.1923
  743MOL0     C  198   4.515   6.354   3.580  0.2323 -0.0867 -0.1560
  743MOL0     C  199   4.751   6.284   3.640  0.4136 -0.9873  1.3437
  743MOL0     C  200   4.730   6.158   3.561 -0.9423  0.1517 -0.1495
  743MOL0     O  201   4.835   6.121   3.487 -0.2699  0.6157  0.1567
  743MOL0     C  202   4.821   6.017   3.400  0.3895  0.3883 -0.0380
  743MOL0     C  203   4.917   5.916   3.398 -0.4959  0.4186  0.1923
  743MOL0     C  204   4.912   5.808   3.306 -0.3015  0.3038 -0.5069
  743MOL0     C  205   4.836   5.825   3.191 -0.2255 -0.1608 -0.2360
  743MOL0     O  206   4.830   5.717   3.103  0.1213  0.2995 -0.4562
  743MOL0     C  207   4.693   5.651   3.089 -0.8839 -0.3408  1.2860
  743MOL0     C  208   4.701   5.510   3.062  0.8988 -0.6943 -0.0791
  743MOL0     C  209   4.795   5.438   3.169 -0.2454  0.0891 -0.1527
  743MOL0     C  210   4.851   5.303   3.113 -0.0817  0.0372 -0.3864
  743MOL0     C  211   4.986   5.308   3.039  0.1629 -0.0915 -0.2014
  743MOL0     C  212   5.104   5.352   3.145  0.6227 -0.4652 -0.8436
  743MOL0     C  213   5.232   5.341   3.064 -0.7781  0.5074  0.3026
  743MOL0     C  214   5.352   5.368   3.150  0.6859  0.4302  0.3156
  743MOL0    Cl  215   5.322   5.520   3.236 -0.3947 -0.0549 -0.0740
  743MOL0     C  216   4.762   5.935   3.175 -0.2589 -0.5150 -0.0220
  743MOL0     C  217   4.744   6.033   3.279  0.2992 -0.2234  0.6830
  743MOL0     O  218   4.627   6.093   3.579  0.1164  0.4447 -0.1588
  743MOL0     C  219   4.870   6.310   3.693  0.0794 -0.2128 -0.4920
  743MOL0     C  220   4.894   6.442   3.752  0.3025 -1.3648  0.1714
  743MOL0     N  221   4.703   6.858   4.289 -0.2489 -1.0736  0.2800
  743MOL0     N  222   4.639   6.925   4.382  0.7181  0.5308 -0.3677
  743MOL0     C  223   3.685   7.191   4.780  0.1178  0.3187 -0.1111
  743MOL0     C  224   3.592   7.092   4.804  1.0708  0.3909 -0.6680
  743MOL0     C  225   3.378   6.673   4.788 -0.6887 -0.8841  0.5379
  743MOL0     C  226   3.251   6.726   4.760  0.5861  0.7408  0.0062
  743MOL0     C  227   3.137   6.644   4.760  0.5454 -0.5732  0.9148
  743MOL0     C  228   3.147   6.507   4.750 -0.0246  0.1329  0.0891
  743MOL0     O  229   3.034   6.436   4.721 -0.1966 -0.5474 -0.6746
  743MOL0     C  230   3.025   6.301   4.763 -0.2012 -0.3051  0.3045
  743MOL0     C  231   2.891   6.266   4.819 -0.6660  1.2742 -0.0130
  743MOL0     C  232   2.790   6.290   4.710  0.4983 -0.3707 -0.3862
  743MOL0     C  233   2.657   6.214   4.745 -0.0548  0.5705  0.3542
  743MOL0     C  234   2.624   6.263   4.882 -0.6169  0.1793  0.5009
  743MOL0     C  235   2.599   6.291   5.002  0.7033  0.0893  0.2319
  743MOL0     C  236   3.273   6.452   4.773 -0.1595  0.3144 -0.6136
  743MOL0     C  237   3.383   6.529   4.794  0.0099 -0.1470 -0.3684
  743MOL0     H  238   3.650   6.849   4.597 -1.8467 -0.1641  2.1459
  743MOL0     H  239   3.840   7.011   4.528 -1.3154 -0.6414 -1.1739
  743MOL0     H  240   3.718   7.311   4.480 -1.0731  1.5331 -0.5240
  743MOL0     H  241   3.708   7.422   4.603  1.5097  0.2371 -0.1540
  743MOL0     H  242   3.835   7.504   4.410  0.9217 -0.2571 -1.4794
  743MOL0     H  243   3.935   7.513   4.559  0.7624  0.4950 -0.2462
  743MOL0     H  244   3.962   7.251   4.424 -2.7009  1.1495  0.1160
  743MOL0     H  245   3.985   7.373   4.307  0.2473 -0.1566  0.2732
  743MOL0     H  246   4.164   7.499   4.449 -0.7965  1.2336  1.6048
  743MOL0     H  247   4.153   7.356   4.570  0.0729  0.4576 -0.5296
  743MOL0     H  248   4.201   7.213   4.380  2.5178 -1.1186  0.8576
  743MOL0     H  249   4.239   7.362   4.279 -0.7529  2.5332  0.6297
  743MOL0     H  250   4.399   7.425   4.454  1.2834 -0.1426 -2.6220
  743MOL0     H  251   4.358   7.291   4.558 -4.7806 -0.7802  0.1606
  743MOL0     H  252   4.465   7.261   4.263 -3.5685 -0.2247 -0.3564
  743MOL0     H  253   4.562   7.251   4.411  1.8492 -2.3305 -1.4135
  743MOL0     H  254   4.345   7.049   4.341  1.0920  0.7236 -0.9080
  743MOL0     H  255   4.432   7.062   4.486 -3.3244  0.5577 -0.3637
  743MOL0     H  256   4.491   7.023   4.114  0.5648  0.0854 -0.2864
  743MOL0     H  257   4.681   6.737   4.023 -2.3398 -0.6564 -2.6599
  743MOL0     H  258   4.689   6.904   3.956  1.8157  2.0164  0.8466
  743MOL0     H  259   4.906   6.777   4.118  4.0298  0.7324 -1.5956
  743MOL0     H  260   4.879   6.953   4.100 -0.7717 -0.1272 -1.2045
  743MOL0     H  261   5.040   6.894   3.946  0.1017  2.7665 -2.3244
  743MOL0     H  262   4.891   6.943   3.863  0.2566  0.6330  2.2727
  743MOL0     H  263   5.002   6.666   3.915 -0.5414 -1.6177 -1.2586
  743MOL0     H  264   5.002   6.737   3.753  1.5763 -1.6238  1.5505
  743MOL0     H  265   4.590   6.580   3.707 -0.2686  1.4367  1.5924
  743MOL0     H  266   4.449   6.299   3.648 -0.4158  0.2360 -0.5139
  743MOL0     H  267   4.455   6.442   3.556  0.9791  0.6246  0.5149
  743MOL0     H  268   4.519   6.299   3.485 -3.1388 -1.8701  0.5590
  743MOL0     H  269   4.997   5.906   3.472 -0.7344 -0.2237  0.3766
  743MOL0     H  270   4.991   5.734   3.314  0.9324  1.7780  2.5442
  743MOL0     H  271   4.623   5.666   3.172 -2.2977 -1.8725  0.4404
  743MOL0     H  272   4.650   5.701   3.002  1.5713  1.8722  1.2380
  743MOL0     H  273   4.600   5.468   3.060  0.6658 -0.2914  1.9012
  743MOL0     H  274   4.737   5.496   2.959 -4.5822 -1.9755 -2.1823
  743MOL0     H  275   4.740   5.423   3.263 -1.5774  1.8358 -0.6093
  743MOL0     H  276   4.876   5.509   3.190 -3.4403  3.5960  1.4312
  743MOL0     H  277   4.850   5.225   3.191  0.9188 -1.5890 -1.9180
  743MOL0     H  278   4.786   5.277   3.029  2.6685 -0.7783 -2.4191
  743MOL0     H  279   4.979   5.386   2.962 -0.8653  2.4676  2.2855
  743MOL0     H  280   5.009   5.214   2.989 -0.5962  1.0798 -2.9318
  743MOL0     H  281   5.087   5.456   3.172 -1.9655 -0.8727 -0.5805
  743MOL0     H  282   5.115   5.290   3.234  1.5019  0.4363 -0.3121
  743MOL0     H  283   5.230   5.408   2.977 -4.0998  1.4339  0.9928
  743MOL0     H  284   5.244   5.241   3.021  1.6202  2.4999 -4.4440
  743MOL0     H  285   5.451   5.361   3.105  0.6927 -1.1557  0.5009
  743MOL0     H  286   5.351   5.290   3.228  1.2034  0.8557  0.7491
  743MOL0     H  287   4.698   5.932   3.087  0.4325  0.0362 -0.5636
  743MOL0     H  288   4.691   6.125   3.258  2.5154  0.9077 -0.2712
  743MOL0     H  289   4.960   6.251   3.681  0.8901  1.2774 -2.3747
  743MOL0     H  290   4.993   6.448   3.796  1.0738 -3.2011 -1.2066
  743MOL0     H  291   3.670   7.285   4.832  1.6087  0.0952  0.7690
  743MOL0     H  292   3.524   7.114   4.886 -1.1879 -1.0983 -2.0598
  743MOL0     H  293   3.232   6.829   4.731 -2.4615  0.3022  0.1836
  743MOL0     H  294   3.042   6.692   4.742  0.9306  0.0254  0.4202
  743MOL0     H  295   3.045   6.227   4.685 -1.0836 -1.2740  0.9719
  743MOL0     H  296   3.095   6.286   4.846  1.5751  1.9448 -0.6940
  743MOL0     H  297   2.874   6.322   4.911 -2.9339 -1.8366  1.6469
  743MOL0     H  298   2.898   6.159   4.840  0.1408  0.8565 -2.1446
  743MOL0     H  299   2.830   6.254   4.614  1.6361 -1.4862  0.4727
  743MOL0     H  300   2.771   6.398   4.708  0.5982 -0.1887  2.8654
  743MOL0     H  301   2.659   6.105   4.749 -1.0338  0.5603  0.9604
  743MOL0     H  302   2.572   6.236   4.679 -0.7191 -2.1051  0.2243
  743MOL0     H  303   2.564   6.334   5.094  0.4699  2.1139 -0.7625
  743MOL0     H  304   3.287   6.346   4.788 -2.3959  0.3474  3.1369
  743MOL0     H  305   3.474   6.472   4.810 -1.7419 -3.8091 -2.3973
  744MOL0     O  306   3.402   7.912   9.379  0.3621  0.8692  0.5671
  744MOL0     C  307   3.426   7.897   9.494 -0.5179 -0.3532  0.1464
  744MOL0     O  308   3.461   7.995   9.577  0.4001  0.1173 -0.7351
  744MOL0     C  309   3.432   8.123   9.538  0.0062 -0.4388 -0.7014
  744MOL0     C  310   3.304   8.161   9.513 -0.5382 -0.9340  0.3756
  744MOL0     C  311   3.271   8.298   9.500  0.2696 -0.7813 -0.3081
  744MOL0     C  312   3.373   8.396   9.479  0.0373  0.4981 -0.1951
  744MOL0     O  313   3.330   8.525   9.460 -0.9502  0.8295  0.4625
  744MOL0     C  314   3.424   8.618   9.428  0.0773  0.1037  1.2743
  744MOL0     C  315   3.345   8.741   9.401 -0.3430  0.7065  0.2919
  744MOL0     C  316   3.225   8.722   9.311 -0.3308 -0.8919 -0.5135
  744MOL0     C  317   3.160   8.854   9.283  0.2720 -0.5796 -1.1284
  744MOL0     C  318   3.043   8.842   9.184  0.8789 -0.5621  0.0831
  744MOL0     C  319   2.914   8.902   9.238  0.4351  0.4142 -0.5606
  744MOL0     C  320   2.809   8.928   9.132 -0.0418 -0.1932  0.1345
  744MOL0     C  321   2.688   8.996   9.208  0.6663  0.9494  0.1156
  744MOL0     N  322   2.571   9.014   9.117 -0.4132  0.3988  0.1697
  744MOL0     C  323   2.577   9.060   8.984  0.0066  0.1070 -0.3884
  744MOL0     C  324   2.443   9.045   8.937  0.4638 -0.3297 -0.0683
  744MOL0     C  325   2.393   9.075   8.795 -0.1554 -0.3163  0.3796
  744MOL0     C  326   2.385   9.228   8.767  0.8580 -0.2018  1.6027
  744MOL0     C  327   2.260   9.264   8.697  0.5862 -1.3733  1.0715
  744MOL0     C  328   2.221   9.419   8.705  0.1030 -0.4322 -0.1594
  744MOL0     O  329   2.336   9.488   8.641 -0.7167  0.0534 -0.0648
  744MOL0     C  330   2.339   9.629   8.657  0.5321  0.9728  0.5957
  744MOL0     C  331   2.442   9.694   8.597 -0.0468 -0.2466 -0.2138
  744MOL0     C  332   2.439   9.834   8.589 -0.2264  0.2214 -1.0949
  744MOL0     C  333   2.557   9.901   8.532  0.4574  0.8793 -0.1363
  744MOL0     C  334   2.327   9.911   8.642  0.6889 -0.0538 -0.1944
  744MOL0     C  335   2.328  10.055   8.656 -0.0105  0.1030 -0.1011
  744MOL0     O  336   2.204  10.113   8.699  0.1091  0.3691  0.6920
  744MOL0     C  337   2.196  10.253   8.720  1.2595  0.8083  0.3635
  744MOL0     C  338   2.246  10.355   8.636  0.4951  0.7596  0.2534
  744MOL0     C  339   2.203  10.483   8.661 -0.2916  0.4299 -0.5293
  744MOL0     C  340   2.133  10.519   8.780 -0.1025 -0.1135  0.3412
  744MOL0     O  341   2.106  10.652   8.799  0.3333 -0.0410 -0.6741
  744MOL0     C  342   2.050  10.696   8.926 -0.2514  0.4242 -0.4400
  744MOL0     C  343   2.069  10.841   8.954  0.3253  0.0600  0.0410
  744MOL0     C  344   2.006  10.939   8.864  0.6865  0.3447  0.3004
  744MOL0     C  345   2.006  11.087   8.902 -0.4055 -0.9998  0.0961
  744MOL0     C  346   2.139  11.139   8.942 -1.3016 -0.2566  0.5156
  744MOL0     C  347   2.164  11.298   8.932 -1.0900  0.5749  0.5610
  744MOL0     C  348   2.312  11.331   8.956  0.9700 -0.0983 -1.0368
  744MOL0     C  349   2.336  11.482   8.960 -0.1462  0.7368 -0.2852
  744MOL0    Cl  350   2.301  11.570   8.806  0.3100  0.3355  0.0683
  744MOL0     C  351   2.083  10.414   8.867 -0.2588  0.0550  0.4017
  744MOL0     C  352   2.112  10.282   8.827  0.1852 -1.4151  0.1864
  744MOL0     O  353   2.419  10.123   8.621 -0.5327  1.2037 -0.3553
  744MOL0     C  354   2.232   9.838   8.706 -0.6450 -0.6555 -0.4420
  744MOL0     C  355   2.241   9.702   8.722 -0.9688  0.2513  0.3394
  744MOL0     N  356   2.366   9.001   9.040 -0.0659 -0.1832  0.2521
  744MOL0     N  357   2.442   8.966   9.147  0.2596 -0.5859  0.9422
  744MOL0     C  358   3.503   8.355   9.509 -0.0629 -0.7332 -0.7788
  744MOL0     C  359   3.530   8.220   9.546 -0.0381  0.5181  0.3336
  744MOL0     C  360   3.431   7.758   9.549  0.1346 -0.4442 -0.0156
  744MOL0     C  361   3.356   7.662   9.490  0.0055 -0.0114  0.1085
  744MOL0     C  362   3.361   7.528   9.542 -0.2781 -0.0233  0.8411
  744MOL0     C  363   3.426   7.499   9.655 -0.0835  0.2304 -0.9274
  744MOL0     O  364   3.391   7.381   9.718 -0.1140 -0.2155  0.6480
  744MOL0     C  365   3.435   7.352   9.849 -0.5563 -0.2271  0.1273
  744MOL0     C  366   3.406   7.200   9.870  0.4468  0.9044  1.0257
  744MOL0     C  367   3.442   7.156  10.016  0.0090 -0.3390 -1.3619
  744MOL0     C  368   3.590   7.176  10.051  1.0518 -0.4316  0.8115
  744MOL0     C  369   3.617   7.133  10.187  0.0945 -0.4148  0.8093
  744MOL0     C  370   3.632   7.110  10.303  0.2580 -0.3348  0.5787
  744MOL0     C  371   3.507   7.597   9.722  0.3691 -0.4288 -0.0163
  744MOL0     C  372   3.513   7.723   9.666 -0.4564 -0.3408  0.7352
  744MOL0     H  373   3.212   8.103   9.515 -1.4835  0.4948  0.0163
  744MOL0     H  374   3.169   8.334   9.496  1.0923  1.7196 -0.6396
  744MOL0     H  375   3.482   8.640   9.518 -3.1651  1.0210  3.3353
  744MOL0     H  376   3.485   8.585   9.344  1.4918 -0.2266  2.3995
  744MOL0     H  377   3.315   8.785   9.497  0.9653  0.4602  0.8344
  744MOL0     H  378   3.406   8.811   9.343 -0.7824  3.3560  2.7878
  744MOL0     H  379   3.260   8.676   9.218 -1.9726 -0.6040 -1.3057
  744MOL0     H  380   3.150   8.656   9.355  0.7747 -2.3075 -0.6462
  744MOL0     H  381   3.119   8.885   9.379 -1.2094 -2.2535 -1.1576
  744MOL0     H  382   3.233   8.926   9.246  1.6609 -1.7505 -0.7381
  744MOL0     H  383   3.063   8.862   9.078 -1.9848 -0.4064 -0.5153
  744MOL0     H  384   3.032   8.733   9.188  2.4561 -0.7094  2.3175
  744MOL0     H  385   2.862   8.828   9.299 -2.5456  0.8412 -2.3685
  744MOL0     H  386   2.939   8.998   9.285  0.2723 -0.2340  0.8886
  744MOL0     H  387   2.849   8.997   9.057 -3.3321  0.3155 -1.3136
  744MOL0     H  388   2.787   8.832   9.085  4.0555 -2.4232  2.2111
  744MOL0     H  389   2.721   9.091   9.251 -2.3337  2.1494 -0.0469
  744MOL0     H  390   2.654   8.931   9.289 -2.4222  3.5730  1.1457
  744MOL0     H  391   2.668   9.087   8.932  0.0932 -1.5648 -1.1761
  744MOL0     H  392   2.465   9.033   8.725 -1.0748 -2.3546  0.5879
  744MOL0     H  393   2.293   9.031   8.784 -2.4828  4.1282  1.3565
  744MOL0     H  394   2.471   9.269   8.714  1.0234 -1.6140  0.7409
  744MOL0     H  395   2.384   9.279   8.864  0.7814  3.2378 -0.0756
  744MOL0     H  396   2.179   9.218   8.754 -2.4552  1.4382 -0.5996
  744MOL0     H  397   2.255   9.229   8.593  3.2345 -1.0878  0.7854
  744MOL0     H  398   2.212   9.464   8.804  0.2521 -1.9087  0.5462
  744MOL0     H  399   2.128   9.430   8.647 -0.6887  0.1789  1.1656
  744MOL0     H  400   2.524   9.640   8.551  2.3327  0.9419  2.3938
  744MOL0     H  401   2.623   9.834   8.476 -3.2004 -1.0213 -2.5645
  744MOL0     H  402   2.522   9.980   8.465  1.2432  1.8526  0.5699
  744MOL0     H  403   2.613   9.950   8.612 -1.2697  0.2772  1.5328
  744MOL0     H  404   2.314  10.331   8.554  1.0094 -0.8244  1.0902
  744MOL0     H  405   2.228  10.548   8.578 -1.1040 -1.7568 -2.6028
  744MOL0     H  406   1.948  10.655   8.931  0.6902 -2.0793  0.1267
  744MOL0     H  407   2.099  10.641   9.007 -3.0109 -0.1910  0.9649
  744MOL0     H  408   2.031  10.856   9.056  1.2930  1.1318  0.2654
  744MOL0     H  409   2.178  10.852   8.957  0.1907  1.5090  0.6954
  744MOL0     H  410   1.903  10.902   8.859  0.2471  1.2850  1.8274
  744MOL0     H  411   2.052  10.920   8.766 -0.2339 -0.7270  0.0477
  744MOL0     H  412   1.958  11.151   8.828  0.4173  1.5792  1.6400
  744MOL0     H  413   1.946  11.103   8.992 -1.4133 -1.4308 -0.4964
  744MOL0     H  414   2.218  11.084   8.890  1.6095  1.5988  2.5773
  744MOL0     H  415   2.165  11.140   9.049 -0.7265  4.1629  0.5445
  744MOL0     H  416   2.131  11.332   8.833  2.6937  0.3507 -0.9423
  744MOL0     H  417   2.102  11.355   9.002 -0.1930  0.5429  1.3971
  744MOL0     H  418   2.374  11.294   8.873 -0.8274  1.1812 -3.0634
  744MOL0     H  419   2.335  11.283   9.051 -0.2347  3.1337  1.0243
  744MOL0     H  420   2.440  11.494   8.992 -0.1669 -0.5494  0.3250
  744MOL0     H  421   2.279  11.525   9.042  0.0142  1.7693 -0.7041
  744MOL0     H  422   2.019  10.441   8.950 -2.1774 -1.3414 -0.5395
  744MOL0     H  423   2.076  10.212   8.902  1.1321 -2.8229 -0.6369
  744MOL0     H  424   2.137   9.880   8.739  1.0749  2.9619  0.4662
  744MOL0     H  425   2.156   9.655   8.772 -2.4940 -0.0128 -2.3427
  744MOL0     H  426   3.587   8.424   9.505  0.5712 -1.4830 -0.5795
  744MOL0     H  427   3.630   8.182   9.565 -1.1458 -0.6987  4.8653
  744MOL0     H  428   3.299   7.687   9.402  0.5519  3.6807  0.6745
  744MOL0     H  429   3.297   7.449   9.504 -3.5026  3.5119 -1.9034
  744MOL0     H  430   3.542   7.369   9.860 -0.0406 -2.5179 -0.7564
  744MOL0     H  431   3.387   7.409   9.929  2.3143  1.2217  0.9365
  744MOL0     H  432   3.470   7.144   9.801 -0.3435 -0.3236  1.2575
  744MOL0     H  433   3.298   7.194   9.854  0.8939 -0.6710 -2.2478
  744MOL0     H  434   3.435   7.047  10.025  2.2583 -0.4292  0.1304
  744MOL0     H  435   3.375   7.201  10.089  1.3500 -0.8776  0.2590
  744MOL0     H  436   3.621   7.280  10.040  1.8845 -0.3552  3.2708
  744MOL0     H  437   3.650   7.114   9.983  0.5006  0.8767 -0.9361
  744MOL0     H  438   3.655   7.077  10.402 -0.9098 -5.0569 -0.4814
  744MOL0     H  439   3.565   7.568   9.809  2.6289 -1.4912 -1.7768
  744MOL0     H  440   3.545   7.809   9.724 -0.6133 -0.2737  0.7239
  745MOL0     O  441   7.213   9.644   2.345 -0.0881 -0.3999  0.0828
  745MOL0     C  442   7.255   9.754   2.384 -0.3104  0.3522 -1.2445
  745MOL0     O  443   7.192   9.875   2.359  0.0857 -0.4633 -1.1152
  745MOL0     C  444   7.064   9.866   2.311 -0.6769 -0.0395 -0.0263
  745MOL0     C  445   6.967   9.851   2.406  0.6346 -0.5162  0.4616
  745MOL0     C  446   6.836   9.852   2.373  0.1930 -0.7492  1.2400
  745MOL0     C  447   6.804   9.879   2.242  0.2028 -0.3107 -0.4164
  745MOL0     O  448   6.686   9.913   2.177  0.4371 -0.2440 -0.3869
  745MOL0     C  449   6.572   9.945   2.263  0.1983 -0.6362 -0.8214
  745MOL0     C  450   6.586  10.082   2.320 -0.4805 -0.2991  0.1254
  745MOL0     C  451   6.613  10.191   2.218 -0.0017 -0.0470 -0.8507
  745MOL0     C  452   6.515  10.207   2.102  0.0600  0.0336 -0.8920
  745MOL0     C  453   6.521  10.342   2.034  0.7922 -0.4105  0.2877
  745MOL0     C  454   6.393  10.372   1.952 -0.0894 -0.6471 -0.4668
  745MOL0     C  455   6.392  10.508   1.876 -1.0269  0.3962 -0.4741
  745MOL0     C  456   6.253  10.543   1.836  0.5720  0.1668 -0.4834
  745MOL0     N  457   6.160  10.437   1.798 -0.0404  0.6605  0.2800
  745MOL0     C  458   6.075  10.371   1.883  0.5173 -0.4198 -1.0621
  745MOL0     C  459   6.028  10.264   1.821  1.1400  0.6634  0.2747
  745MOL0     C  460   5.929  10.165   1.889 -0.4325 -0.3056 -0.2499
  745MOL0     C  461   5.997  10.104   2.006  0.3310 -0.1636 -0.3022
  745MOL0     C  462   5.883  10.044   2.088 -0.7502 -0.4555  0.1769
  745MOL0     C  463   5.924   9.950   2.200  0.1210 -0.2487 -0.4357
  745MOL0     O  464   6.048   9.990   2.276  0.4932 -0.5980  0.6947
  745MOL0     C  465   6.097   9.901   2.365  0.0454  0.7074 -0.4422
  745MOL0     C  466   6.209   9.940   2.435 -0.4918  0.3472  0.1673
  745MOL0     C  467   6.261   9.858   2.532 -1.0598 -0.4168  0.8941
  745MOL0     C  468   6.369   9.913   2.630  0.2954 -0.0372 -0.3493
  745MOL0     C  469   6.206   9.731   2.561 -0.5235 -0.1907 -0.0899
  745MOL0     C  470   6.239   9.638   2.663  0.5122 -0.3697  0.7619
  745MOL0     O  471   6.205   9.509   2.642  0.3015 -0.6078  0.7639
  745MOL0     C  472   6.223   9.428   2.754 -0.5830 -0.1942  0.6068
  745MOL0     C  473   6.344   9.368   2.770  0.2848  0.2892  0.4876
  745MOL0     C  474   6.368   9.272   2.873  0.0327 -0.7522 -0.2184
  745MOL0     C  475   6.270   9.244   2.965 -0.1979  0.1642  0.8108
  745MOL0     O  476   6.285   9.163   3.077  0.5197 -0.0488  0.2896
  745MOL0     C  477   6.390   9.064   3.071 -0.5216 -0.4353 -0.2061
  745MOL0     C  478   6.401   8.990   3.206  0.0140  0.5457  0.6446
  745MOL0     C  479   6.473   9.064   3.310  1.0402 -0.4256 -0.6953
  745MOL0     C  480   6.381   9.158   3.396 -1.2842  0.1755 -0.1220
  745MOL0     C  481   6.253   9.124   3.469 -0.9915 -0.1747  0.2320
  745MOL0     C  482   6.128   9.131   3.381 -0.7991 -0.3875 -0.1548
  745MOL0     C  483   6.009   9.097   3.466 -0.3975  0.7746  0.8252
  745MOL0     C  484   5.886   9.123   3.390 -0.8358  0.6857  1.0543
  745MOL0    Cl  485   5.747   9.128   3.494  0.1218 -0.3782 -0.8618
  745MOL0     C  486   6.152   9.318   2.950  0.4403  0.2078 -0.0795
  745MOL0     C  487   6.126   9.401   2.844 -0.0990  0.3090 -0.2952
  745MOL0     O  488   6.283   9.680   2.762 -0.8362 -0.2576 -0.1205
  745MOL0     C  489   6.089   9.701   2.489  0.4232  0.6456  0.6929
  745MOL0     C  490   6.038   9.775   2.391 -0.0588  0.0783 -0.8348
  745MOL0     N  491   6.080  10.264   1.689 -0.1327  0.3541  0.9116
  745MOL0     N  492   6.157  10.376   1.672 -0.2349  0.0497 -0.3925
  745MOL0     C  493   6.899   9.891   2.144 -0.4602  0.7721 -0.7985
  745MOL0     C  494   7.034   9.876   2.179  0.1466 -0.6443 -0.7869
  745MOL0     C  495   7.376   9.753   2.468 -0.8563 -0.1876  0.2554
  745MOL0     C  496   7.394   9.855   2.563 -1.6235 -0.3113  0.9841
  745MOL0     C  497   7.510   9.853   2.646 -0.7830 -0.4271  1.5714
  745MOL0     C  498   7.600   9.746   2.636 -0.3084 -0.0181  0.0443
  745MOL0     O  499   7.702   9.744   2.722 -0.1694 -0.1275  0.4314
  745MOL0     C  500   7.826   9.678   2.680  0.3037 -0.0864 -0.6158
  745MOL0     C  501   7.836   9.562   2.775 -0.5298 -0.1797 -0.2842
  745MOL0     C  502   7.957   9.470   2.770  0.6132  0.3505  0.4520
  745MOL0     C  503   7.918   9.321   2.809 -0.1595 -0.1581  0.8121
  745MOL0     C  504   7.826   9.256   2.718 -0.1813 -0.0621  0.3137
  745MOL0     C  505   7.753   9.183   2.662 -0.2612  0.0325  0.2488
  745MOL0     C  506   7.583   9.644   2.536  0.2094  2.0014 -0.0915
  745MOL0     C  507   7.473   9.644   2.457 -0.7469 -0.4467  1.4801
  745MOL0     H  508   7.002   9.849   2.509 -0.2871  1.2540  0.8560
  745MOL0     H  509   6.767   9.837   2.456  1.0924  0.1091  2.1667
  745MOL0     H  510   6.479   9.932   2.206  0.2743  1.5104 -1.5135
  745MOL0     H  511   6.574   9.877   2.349 -1.1223  1.1675  0.6984
  745MOL0     H  512   6.489  10.098   2.369 -1.0915  0.2921 -1.2371
  745MOL0     H  513   6.656  10.089   2.403  0.5127  0.3932 -0.7544
  745MOL0     H  514   6.626  10.284   2.274  1.3558  0.4674 -1.9429
  745MOL0     H  515   6.712  10.175   2.173  0.2216  3.4862 -1.9851
  745MOL0     H  516   6.547  10.128   2.033  2.3080  0.0915  0.0041
  745MOL0     H  517   6.415  10.173   2.134 -0.2274  1.0471 -0.6729
  745MOL0     H  518   6.527  10.416   2.114  3.0074  2.7727 -2.5160
  745MOL0     H  519   6.610  10.352   1.971  0.6123 -1.6139 -0.1934
  745MOL0     H  520   6.377  10.292   1.879  2.9133 -4.0007  2.1721
  745MOL0     H  521   6.318  10.383   2.031  2.0061 -0.4414  1.5822
  745MOL0     H  522   6.452  10.590   1.918  0.5523 -1.1422  0.4142
  745MOL0     H  523   6.448  10.493   1.783 -2.2662 -2.3199 -0.8546
  745MOL0     H  524   6.245  10.615   1.754 -0.5664  5.3008  3.5791
  745MOL0     H  525   6.199  10.598   1.914 -3.6518 -0.0849 -2.9564
  745MOL0     H  526   6.061  10.393   1.988  1.1232  0.2098 -1.1058
  745MOL0     H  527   5.844  10.220   1.931 -0.0084 -0.0049  0.2267
  745MOL0     H  528   5.888  10.086   1.825 -0.4014  1.0114 -1.9367
  745MOL0     H  529   6.050  10.174   2.071  1.8241 -3.1881  2.0435
  745MOL0     H  530   6.067  10.026   1.971 -0.0612 -0.5663 -0.1997
  745MOL0     H  531   5.824   9.998   2.008  0.0988 -3.5499  1.1912
  745MOL0     H  532   5.841  10.131   2.139  1.7438 -0.3087  2.1687
  745MOL0     H  533   5.929   9.848   2.161  1.4924 -0.0939 -0.7089
  745MOL0     H  534   5.850   9.944   2.281  2.1756 -1.7404  1.4509
  745MOL0     H  535   6.257  10.035   2.414 -1.4670  0.6087 -0.9903
  745MOL0     H  536   6.463   9.856   2.635  0.2595 -0.3696 -2.4941
  745MOL0     H  537   6.394  10.019   2.621 -1.0974  0.2789 -0.7111
  745MOL0     H  538   6.325   9.917   2.730  1.6818 -2.4150  0.4447
  745MOL0     H  539   6.421   9.381   2.695  0.6819  1.5110  1.1029
  745MOL0     H  540   6.471   9.247   2.894  0.2084  0.4968  0.4881
  745MOL0     H  541   6.386   8.999   2.983 -1.1508 -0.4071 -0.2017
  745MOL0     H  542   6.484   9.118   3.058  0.2351 -2.0043 -1.7153
  745MOL0     H  543   6.302   8.958   3.240  1.1592 -0.7432  2.9807
  745MOL0     H  544   6.452   8.894   3.197  0.9562  1.0077  0.8731
  745MOL0     H  545   6.571   9.108   3.293  1.4354 -1.4296 -1.0922
  745MOL0     H  546   6.500   8.976   3.370  1.5360  0.4346  0.3812
  745MOL0     H  547   6.450   9.188   3.475  2.0707 -0.5063 -2.5803
  745MOL0     H  548   6.370   9.249   3.336 -0.0410 -2.5238 -4.9465
  745MOL0     H  549   6.235   9.197   3.549 -2.6515  0.7880 -0.9615
  745MOL0     H  550   6.259   9.023   3.511  1.8425 -0.6049 -0.9688
  745MOL0     H  551   6.130   9.231   3.336 -2.0188 -1.0197 -1.7200
  745MOL0     H  552   6.129   9.056   3.301  0.1633 -1.2230  0.6224
  745MOL0     H  553   6.003   9.175   3.542 -1.9978  0.8889  0.6122
  745MOL0     H  554   6.010   8.993   3.499 -3.0811  0.3017 -0.2967
  745MOL0     H  555   5.878   9.048   3.311 -0.2109  2.2772 -0.6110
  745MOL0     H  556   5.905   9.218   3.338  0.6838  0.2887  0.8542
  745MOL0     H  557   6.072   9.297   3.021 -0.2038  1.1335 -0.5091
  745MOL0     H  558   6.031   9.443   2.811  0.2963  1.1784 -0.3500
  745MOL0     H  559   6.036   9.607   2.495  1.2999  0.0884 -0.0203
  745MOL0     H  560   5.947   9.742   2.343  0.1778  0.5330 -1.6189
  745MOL0     H  561   6.863   9.893   2.042 -2.2428 -2.3067 -0.3515
  745MOL0     H  562   7.112   9.877   2.104 -0.3185  1.5807 -1.3122
  745MOL0     H  563   7.328   9.939   2.579 -1.3043 -0.1150  1.3010
  745MOL0     H  564   7.522   9.932   2.719  0.4466 -1.3735  2.4265
  745MOL0     H  565   7.833   9.652   2.574 -1.3193  2.6820 -1.4948
  745MOL0     H  566   7.917   9.737   2.696  0.8352 -0.6416 -1.4805
  745MOL0     H  567   7.744   9.504   2.762  0.2558 -1.9969  1.6795
  745MOL0     H  568   7.828   9.600   2.877 -0.1202 -1.6921  0.3340
  745MOL0     H  569   8.037   9.517   2.828  0.1646  0.5774  0.8944
  745MOL0     H  570   7.987   9.458   2.666  0.7943 -1.9156  0.7087
  745MOL0     H  571   7.875   9.316   2.910 -1.3996 -1.6891  0.2398
  745MOL0     H  572   8.009   9.262   2.801 -0.6203 -0.6309 -1.5331
  745MOL0     H  573   7.681   9.129   2.603  0.2583 -0.0977 -0.2668
  745MOL0     H  574   7.641   9.552   2.539  0.9396  2.3633 -1.8151
  745MOL0     H  575   7.451   9.565   2.386 -0.5113  0.1986  0.6693
  746MOL0     O  576   8.506  10.255   9.646  0.5212  0.1889  0.5646
  746MOL0     C  577   8.570  10.240   9.544 -0.1866  0.0756 -0.0826
  746MOL0     O  578   8.516  10.192   9.424  0.1631 -0.3509  0.2868
  746MOL0     C  579   8.390  10.135   9.442 -0.5060  0.4958  1.7361
  746MOL0     C  580   8.377  10.002   9.459 -0.8947 -0.6427 -0.1182
  746MOL0     C  581   8.246   9.953   9.472  0.0390 -0.5547 -0.1449
  746MOL0     C  582   8.130  10.033   9.480  0.3174 -0.4721 -0.5708
  746MOL0     O  583   8.015   9.973   9.509  0.8949  0.0180 -0.3559
  746MOL0     C  584   7.902  10.001   9.425  0.1020 -1.1457  0.1605
  746MOL0     C  585   7.797   9.891   9.449 -0.0320 -0.8693 -0.1526
  746MOL0     C  586   7.689   9.946   9.544  0.1445  0.3341 -0.2100
  746MOL0     C  587   7.740   9.989   9.684  0.2339 -1.2737  0.4350
  746MOL0     C  588   7.635  10.056   9.769  0.2742  0.0171 -1.6744
  746MOL0     C  589   7.579   9.963   9.878  0.3212 -0.1133  0.3661
  746MOL0     C  590   7.678   9.957   9.995 -0.5017 -0.3687 -0.0419
  746MOL0     C  591   7.691   9.809  10.051  0.2510 -0.4173 -0.3116
  746MOL0     N  592   7.734   9.808  10.192  0.7854  0.1626  0.2485
  746MOL0     C  593   7.650   9.815  10.302  0.5440 -0.3772 -1.0428
  746MOL0     C  594   7.734   9.824  10.413 -0.2319  0.0334 -0.9193
  746MOL0     C  595   7.696   9.856  10.555  0.1003 -0.2259  0.0322
  746MOL0     C  596   7.763   9.768  10.666 -0.6210  1.1625 -0.0353
  746MOL0     C  597   7.713   9.620  10.663  0.0548 -0.2334 -0.9647
  746MOL0     C  598   7.765   9.538  10.784 -0.1333  0.0634 -0.1088
  746MOL0     O  599   7.718   9.579  10.912  0.0586  0.2321 -0.7303
  746MOL0     C  600   7.606   9.539  10.979  0.4291  0.5033 -0.0834
  746MOL0     C  601   7.520   9.448  10.914 -0.4243  0.5561 -0.2951
  746MOL0     C  602   7.393   9.417  10.969  0.0513  1.2390  0.9444
  746MOL0     C  603   7.303   9.341  10.874  0.5974 -0.1585  0.1397
  746MOL0     C  604   7.351   9.473  11.086 -0.4771 -0.3683 -0.6515
  746MOL0     C  605   7.215   9.467  11.140 -1.2323 -0.2002  0.7052
  746MOL0     O  606   7.212   9.413  11.271  0.3624 -0.8334 -0.0168
  746MOL0     C  607   7.093   9.359  11.320 -0.1893  0.5104 -0.5902
  746MOL0     C  608   7.094   9.349  11.463 -0.3316  0.0629  0.4646
  746MOL0     C  609   6.995   9.281  11.529  0.2037 -0.1809  0.6001
  746MOL0     C  610   6.879   9.241  11.453  0.1231  0.0682 -1.3812
  746MOL0     O  611   6.769   9.167  11.513  0.5287 -0.1375 -0.7384
  746MOL0     C  612   6.685   9.249  11.592 -0.0259  0.2105  1.3507
  746MOL0     C  613   6.550   9.173  11.626 -0.1188 -0.0057  0.7941
  746MOL0     C  614   6.469   9.260  11.715  0.1718  1.4243 -0.4870
  746MOL0     C  615   6.495   9.216  11.869 -0.4178 -0.3115 -0.4667
  746MOL0     C  616   6.417   9.312  11.967 -0.9569  0.7451 -0.9777
  746MOL0     C  617   6.452   9.311  12.121 -0.9715  1.0001 -0.2262
  746MOL0     C  618   6.465   9.167  12.176  0.9107  0.7819 -0.7153
  746MOL0     C  619   6.335   9.086  12.171  0.0736  0.1346 -0.6543
  746MOL0    Cl  620   6.208   9.167  12.262  0.0740 -0.4575  0.0376
  746MOL0     C  621   6.887   9.249  11.322 -0.2674  0.8794  0.1991
  746MOL0     C  622   6.997   9.292  11.250  0.7188 -0.5169 -0.3400
  746MOL0     O  623   7.120   9.505  11.074  0.2703  0.8616 -0.4734
  746MOL0     C  624   7.437   9.563  11.146 -0.4438 -0.5254  0.5178
  746MOL0     C  625   7.569   9.589  11.104  0.0403 -0.1527  0.4361
  746MOL0     N  626   7.867   9.819  10.370  0.5523 -1.0683  0.4750
  746MOL0     N  627   7.860   9.796  10.242 -0.5168 -0.0546  0.3709
  746MOL0     C  628   8.145  10.173   9.476 -0.1459  0.1684  1.1883
  746MOL0     C  629   8.276  10.221   9.447  0.1112  0.3516 -0.8050
  746MOL0     C  630   8.691  10.325   9.517 -0.3198 -0.0417  0.1096
  746MOL0     C  631   8.796  10.315   9.612 -0.7655  0.0752 -0.2827
  746MOL0     C  632   8.916  10.389   9.592 -0.1115 -0.0817  0.0563
  746MOL0     C  633   8.938  10.452   9.468 -0.7869 -0.2434 -0.0766
  746MOL0     O  634   9.040  10.548   9.451 -0.5028  0.7519  0.2744
  746MOL0     C  635   9.081  10.599   9.316  0.8881 -1.0172  0.9654
  746MOL0     C  636   9.238  10.596   9.300  0.9329  0.4911 -0.3203
  746MOL0     C  637   9.326  10.697   9.363  0.3552  0.6812 -0.6914
  746MOL0     C  638   9.474  10.661   9.340 -0.7393 -0.0546 -0.1380
  746MOL0     C  639   9.560  10.775   9.331 -1.1122 -0.2638  0.2042
  746MOL0     C  640   9.660  10.850   9.326 -0.2646  0.6186  0.6903
  746MOL0     C  641   8.839  10.455   9.370 -0.4331 -0.5924 -0.6807
  746MOL0     C  642   8.716  10.388   9.393  0.5503  0.2534 -0.6475
  746MOL0     H  643   8.466   9.940   9.460 -0.8579 -0.7724  3.9571
  746MOL0     H  644   8.241   9.845   9.487  0.4230 -0.4565  0.7033
  746MOL0     H  645   7.868  10.104   9.431  1.3485 -0.3942 -3.2173
  746MOL0     H  646   7.934   9.978   9.323  0.3616 -3.4037  0.6871
  746MOL0     H  647   7.758   9.862   9.351 -0.6407 -0.0131 -0.1698
  746MOL0     H  648   7.847   9.806   9.497 -1.1165 -2.0134 -1.0006
  746MOL0     H  649   7.643  10.034   9.498  1.8577  1.1526 -0.4538
  746MOL0     H  650   7.614   9.871   9.567  1.4666 -1.0724 -0.3499
  746MOL0     H  651   7.784   9.903   9.735  1.3805 -1.8509 -1.4034
  746MOL0     H  652   7.818  10.062   9.661 -0.1955 -1.1421 -0.6675
  746MOL0     H  653   7.685  10.138   9.822  3.3903 -4.4424  3.2705
  746MOL0     H  654   7.549  10.102   9.719 -0.0546  1.3594  0.0150
  746MOL0     H  655   7.483   9.997   9.916 -1.4823 -3.2235 -1.0190
  746MOL0     H  656   7.556   9.869   9.826 -0.6938  1.9601 -3.3017
  746MOL0     H  657   7.773  10.006   9.971 -2.2410  2.4304 -1.8320
  746MOL0     H  658   7.630  10.025  10.066  1.1713 -0.7821  1.5451
  746MOL0     H  659   7.754   9.752   9.982  0.6715  0.8199 -0.9906
  746MOL0     H  660   7.592   9.763  10.056  0.2005 -0.1665  2.7460
  746MOL0     H  661   7.544   9.838  10.313  1.3190  2.3608  2.3260
  746MOL0     H  662   7.724   9.960  10.574  1.9120 -0.8548  1.0653
  746MOL0     H  663   7.587   9.858  10.560 -0.0945 -1.2248 -2.4403
  746MOL0     H  664   7.728   9.810  10.762 -1.2616 -0.6077  0.5360
  746MOL0     H  665   7.871   9.785  10.658  0.3928 -1.1553  4.8743
  746MOL0     H  666   7.748   9.582  10.567 -1.7390  0.5260 -1.9658
  746MOL0     H  667   7.604   9.620  10.664 -0.1486  4.3516 -0.2501
  746MOL0     H  668   7.874   9.543  10.790 -0.0634 -0.4320 -0.7689
  746MOL0     H  669   7.745   9.433  10.760  0.3386  0.4842 -2.6128
  746MOL0     H  670   7.547   9.405  10.819 -0.1874  1.3641 -0.6007
  746MOL0     H  671   7.369   9.288  10.805 -0.3100  2.0426 -2.5999
  746MOL0     H  672   7.230   9.276  10.923 -0.5851  2.2911  1.8297
  746MOL0     H  673   7.233   9.405  10.820 -0.7468 -2.1123 -0.5535
  746MOL0     H  674   7.170   9.399  11.523 -1.4659  0.2475  1.8009
  746MOL0     H  675   6.985   9.258  11.635 -0.4908  1.6820  0.9692
  746MOL0     H  676   6.741   9.260  11.685  0.6951 -1.9409  1.2332
  746MOL0     H  677   6.669   9.345  11.544 -2.3225 -0.5101  0.5778
  746MOL0     H  678   6.500   9.148  11.532  1.8835 -1.2045 -0.0226
  746MOL0     H  679   6.591   9.080  11.667  3.7873  0.1458 -2.2082
  746MOL0     H  680   6.360   9.254  11.706  0.1243  1.7969 -0.1974
  746MOL0     H  681   6.497   9.364  11.695  1.5025  1.0729 -0.5358
  746MOL0     H  682   6.461   9.113  11.886  1.1944 -0.6323  1.1164
  746MOL0     H  683   6.604   9.222  11.879 -0.2480  1.3192 -2.6594
  746MOL0     H  684   6.309   9.298  11.954 -1.3517  2.9601 -0.5325
  746MOL0     H  685   6.435   9.416  11.936 -0.8418  0.7407 -0.9233
  746MOL0     H  686   6.547   9.363  12.136 -1.0928  0.7556  1.5795
  746MOL0     H  687   6.386   9.378  12.178 -0.8270 -0.4424  1.7197
  746MOL0     H  688   6.508   9.166  12.276 -0.6012 -0.9078 -0.0240
  746MOL0     H  689   6.547   9.124  12.117  0.4751 -0.1391 -0.6756
  746MOL0     H  690   6.348   8.990  12.221 -1.2731  0.1020 -0.3239
  746MOL0     H  691   6.310   9.054  12.069 -0.7066 -6.0540  1.0819
  746MOL0     H  692   6.805   9.205  11.267  1.1342 -0.0719 -1.2339
  746MOL0     H  693   7.003   9.288  11.141  2.9130 -1.6947 -0.2225
  746MOL0     H  694   7.406   9.623  11.230  1.3903  0.6669  0.4008
  746MOL0     H  695   7.635   9.658  11.157 -3.1766  0.0586  4.7327
  746MOL0     H  696   8.057  10.234   9.493  0.3219  0.9942  0.6850
  746MOL0     H  697   8.295  10.328   9.437  0.3416  0.5039  1.0112
  746MOL0     H  698   8.780  10.245   9.694  3.4641 -0.5692  0.2019
  746MOL0     H  699   8.991  10.390   9.671  2.2655 -3.0882 -1.9382
  746MOL0     H  700   9.041  10.542   9.231  1.2837  2.7544 -2.0207
  746MOL0     H  701   9.043  10.701   9.314  1.9259 -0.5811  2.3880
  746MOL0     H  702   9.246  10.600   9.191 -1.2709  1.4857 -0.4993
  746MOL0     H  703   9.267  10.499   9.343 -2.3901 -0.4360  0.1580
  746MOL0     H  704   9.307  10.694   9.470  0.1373  1.0176 -0.7194
  746MOL0     H  705   9.300  10.797   9.327 -0.6561  1.5697  2.2821
  746MOL0     H  706   9.478  10.607   9.246 -3.3671 -2.2754  0.8828
  746MOL0     H  707   9.502  10.603   9.429  0.1812  1.7721  0.8320
  746MOL0     H  708   9.738  10.924   9.327  1.7850 -1.4011  0.1517
  746MOL0     H  709   8.841  10.525   9.287  1.1325 -0.8257 -0.8731
  746MOL0     H  710   8.635  10.408   9.323 -0.8641  1.4731  1.2349
  747MOL0     O  711   5.367  10.231   6.966  0.9064 -0.2768  0.0520
  747MOL0     C  712   5.320  10.138   6.903 -0.6394  0.2224  0.4984
  747MOL0     O  713   5.232  10.042   6.952  0.2592 -0.8481  0.6318
  747MOL0     C  714   5.200  10.063   7.073 -0.4222 -0.7563 -1.5211
  747MOL0     C  715   5.286  10.031   7.180 -0.3876  0.6081 -0.2691
  747MOL0     C  716   5.238  10.038   7.307  1.3178 -0.1872 -1.0706
  747MOL0     C  717   5.109  10.079   7.336  0.2446 -0.5746  1.3129
  747MOL0     O  718   5.061  10.053   7.460 -0.0240  0.3757 -0.4223
  747MOL0     C  719   5.126  10.143   7.549 -0.9524  0.6719  0.8111
  747MOL0     C  720   5.056  10.162   7.679  0.3788  1.0857  0.0067
  747MOL0     C  721   5.141  10.235   7.781  0.2762 -0.1463  0.4920
  747MOL0     C  722   5.109  10.208   7.931 -0.3348 -0.2161 -0.6323
  747MOL0     C  723   4.960  10.181   7.962  0.2307 -0.7237 -0.7186
  747MOL0     C  724   4.952  10.176   8.117 -0.4976 -1.1722  0.0766
  747MOL0     C  725   4.802  10.207   8.157  0.0907 -0.3827  0.1203
  747MOL0     C  726   4.780  10.276   8.295 -0.5243  0.4573  0.1489
  747MOL0     N  727   4.812  10.178   8.390  0.8158  0.0985  0.2913
  747MOL0     C  728   4.927  10.181   8.457 -0.2503  0.3966 -0.1596
  747MOL0     C  729   4.901  10.101   8.568  0.1713 -0.1118  0.0728
  747MOL0     C  730   4.996  10.041   8.660  0.0401  0.5787 -0.2669
  747MOL0     C  731   5.115   9.974   8.592  0.1334  0.1546  0.8192
  747MOL0     C  732   5.241   9.944   8.674 -0.3559  0.1685  0.8230
  747MOL0     C  733   5.288  10.071   8.741 -0.2643  0.0620  0.3467
  747MOL0     O  734   5.432  10.062   8.764  0.5868  0.2006 -0.6483
  747MOL0     C  735   5.473  10.153   8.862 -1.1753 -0.0284  0.8280
  747MOL0     C  736   5.497  10.110   8.987 -0.7724 -0.2183 -0.2191
  747MOL0     C  737   5.545  10.193   9.090  0.7239  0.7022  0.2491
  747MOL0     C  738   5.544  10.140   9.229 -0.4882 -0.2061 -0.0536
  747MOL0     C  739   5.590  10.326   9.054 -0.1165 -0.0859 -0.2363
  747MOL0     C  740   5.673  10.410   9.139  0.3979 -0.0361 -0.2355
  747MOL0     O  741   5.647  10.547   9.153 -0.4579  0.0295 -0.4272
  747MOL0     C  742   5.741  10.633   9.222 -0.2704 -0.0375  0.6259
  747MOL0     C  743   5.787  10.616   9.353  0.0757  0.0660 -0.3435
  747MOL0     C  744   5.881  10.700   9.411 -1.0618  0.9592 -0.4688
  747MOL0     C  745   5.919  10.814   9.345 -0.9066  0.8783  0.1620
  747MOL0     O  746   6.007  10.892   9.415  1.1400 -0.4232 -0.4193
  747MOL0     C  747   6.060  11.011   9.360  0.0353  0.3785  0.4174
  747MOL0     C  748   6.148  11.070   9.479  0.2258 -0.3783  0.7033
  747MOL0     C  749   6.248  10.964   9.517 -0.7611  0.2708 -0.6934
  747MOL0     C  750   6.203  10.878   9.644 -0.5779 -0.6069  0.6723
  747MOL0     C  751   6.256  10.734   9.661 -1.0125  0.9717 -0.0540
  747MOL0     C  752   6.413  10.742   9.654  0.2785  0.1701 -0.8817
  747MOL0     C  753   6.469  10.600   9.644  0.7091 -0.4193  0.5829
  747MOL0     C  754   6.621  10.595   9.618 -0.4580 -0.7477  0.8516
  747MOL0    Cl  755   6.712  10.692   9.742 -0.5252 -0.1397 -0.3955
  747MOL0     C  756   5.879  10.832   9.215 -0.4175  0.4523  0.4583
  747MOL0     C  757   5.787  10.746   9.158  0.1175  0.1448  0.5987
  747MOL0     O  758   5.772  10.357   9.193 -0.7871  0.3271 -0.5042
  747MOL0     C  759   5.552  10.375   8.930 -0.1728  0.3564  0.3757
  747MOL0     C  760   5.499  10.288   8.833  0.2549  0.0471  0.1566
  747MOL0     N  761   4.773  10.050   8.555 -0.1961  0.5703 -0.8641
  747MOL0     N  762   4.713  10.112   8.458 -0.0565 -0.2544 -0.0399
  747MOL0     C  763   5.025  10.126   7.241  0.2752 -0.4153 -0.0204
  747MOL0     C  764   5.070  10.121   7.107 -0.9435  1.4529 -1.0681
  747MOL0     C  765   5.373  10.140   6.761  0.3703 -0.3105  0.0937
  747MOL0     C  766   5.305  10.073   6.657 -0.4680  0.5141 -0.1197
  747MOL0     C  767   5.355  10.076   6.525  0.8123  0.5002 -0.4445
  747MOL0     C  768   5.481  10.125   6.496  0.4082 -0.0677  1.2886
  747MOL0     O  769   5.506  10.117   6.365 -0.0252  0.5493  0.0698
  747MOL0     C  770   5.640  10.076   6.323 -0.0178 -0.2827 -0.0556
  747MOL0     C  771   5.660   9.925   6.289  0.5179 -0.5483  0.8807
  747MOL0     C  772   5.812   9.907   6.245  1.1281  0.1378 -0.5038
  747MOL0     C  773   5.856   9.764   6.234  0.3012 -0.5966  0.8476
  747MOL0     C  774   5.786   9.706   6.113 -1.7895  0.3335 -0.8030
  747MOL0     C  775   5.743   9.648   6.017  0.3129 -0.0586 -1.1887
  747MOL0     C  776   5.556  10.181   6.601 -0.1177  0.0029 -0.0194
  747MOL0     C  777   5.500  10.187   6.729 -0.3090 -0.4130 -0.2179
  747MOL0     H  778   5.380   9.977   7.167 -1.2512 -0.5721 -1.9481
  747MOL0     H  779   5.291   9.990   7.388  1.4951  2.3679  0.4100
  747MOL0     H  780   5.226  10.106   7.574  0.5517  3.1270 -1.1101
  747MOL0     H  781   5.152  10.241   7.509  1.9615 -1.0405 -1.9102
  747MOL0     H  782   4.961  10.206   7.647 -0.4523 -2.0385 -2.2337
  747MOL0     H  783   5.035  10.062   7.716 -1.7298  1.6979  0.5923
  747MOL0     H  784   5.246  10.207   7.768 -0.1697 -1.4357 -0.5876
  747MOL0     H  785   5.128  10.343   7.772 -3.4992 -0.2595  2.3804
  747MOL0     H  786   5.161  10.115   7.956  1.5965  0.5415 -1.5929
  747MOL0     H  787   5.160  10.277   7.999  0.9570 -2.8334  1.2384
  747MOL0     H  788   4.892  10.256   7.920 -0.2694 -3.1950 -4.8300
  747MOL0     H  789   4.927  10.084   7.923  0.0889 -0.7328 -0.5777
  747MOL0     H  790   4.980  10.081   8.164 -1.4654 -1.8781 -0.7200
  747MOL0     H  791   5.006  10.264   8.153  0.4870 -0.0455 -3.6432
  747MOL0     H  792   4.752  10.277   8.090 -2.4688 -3.8340 -1.8748
  747MOL0     H  793   4.747  10.113   8.151  1.7119 -1.2521 -2.9871
  747MOL0     H  794   4.675  10.306   8.295  0.2203  3.3785  0.7274
  747MOL0     H  795   4.840  10.366   8.310 -0.2691  0.1451  1.0640
  747MOL0     H  796   5.020  10.235   8.444 -1.1703  2.2948  0.6883
  747MOL0     H  797   5.028  10.125   8.721 -0.5334  1.9471 -1.7856
  747MOL0     H  798   4.945   9.961   8.715 -1.1332  0.8224 -0.9749
  747MOL0     H  799   5.158  10.032   8.510 -0.0872  1.4176  1.5659
  747MOL0     H  800   5.081   9.886   8.536 -1.6128  2.5535 -2.1496
  747MOL0     H  801   5.322   9.910   8.608  1.1458  2.6252  1.2736
  747MOL0     H  802   5.219   9.863   8.744 -2.9057 -0.4407 -0.5827
  747MOL0     H  803   5.240  10.078   8.839 -2.9802  0.1966 -0.8869
  747MOL0     H  804   5.274  10.162   8.682  1.4449  0.6071  0.7320
  747MOL0     H  805   5.492  10.006   9.016  0.9022 -0.0489  0.8359
  747MOL0     H  806   5.504  10.039   9.234  0.8040 -0.9349 -2.7196
  747MOL0     H  807   5.643  10.144   9.275 -0.7227  0.8415  0.3896
  747MOL0     H  808   5.482  10.209   9.287  0.5671  1.6233 -0.9941
  747MOL0     H  809   5.755  10.526   9.404 -1.7128  0.4802 -0.6918
  747MOL0     H  810   5.923  10.669   9.506  1.9978  1.3512 -1.5784
  747MOL0     H  811   6.127  10.988   9.277  0.7803 -2.0131  1.5803
  747MOL0     H  812   5.983  11.082   9.327 -0.6249 -1.5086 -2.4941
  747MOL0     H  813   6.183  11.166   9.441  0.6241 -0.4598  0.8545
  747MOL0     H  814   6.081  11.091   9.563 -4.1570 -1.1983 -2.2461
  747MOL0     H  815   6.338  11.020   9.544 -0.7844 -0.8191  1.9403
  747MOL0     H  816   6.264  10.895   9.434 -2.7036 -1.1531  0.0365
  747MOL0     H  817   6.224  10.942   9.730  1.7762  2.5803 -2.0332
  747MOL0     H  818   6.095  10.860   9.641 -0.8417  0.9182  0.0499
  747MOL0     H  819   6.211  10.669   9.586 -0.7941 -0.5791  1.0989
  747MOL0     H  820   6.225  10.701   9.761  0.4480  1.3835  0.5661
  747MOL0     H  821   6.448  10.799   9.567  1.9011 -1.2538 -1.2329
  747MOL0     H  822   6.446  10.798   9.742  0.5743  1.0674 -1.5435
  747MOL0     H  823   6.430  10.554   9.553  2.4183 -1.1102  0.1527
  747MOL0     H  824   6.441  10.546   9.735 -0.0842 -0.9372  0.0395
  747MOL0     H  825   6.643  10.633   9.518 -0.9869  1.0060  1.3662
  747MOL0     H  826   6.640  10.487   9.609 -0.9005 -0.6764 -1.8917
  747MOL0     H  827   5.912  10.913   9.151 -0.1169 -2.9706 -4.3403
  747MOL0     H  828   5.748  10.748   9.057 -1.7058 -1.9280  1.1514
  747MOL0     H  829   5.575  10.478   8.907 -0.4147  0.6196  1.2651
  747MOL0     H  830   5.460  10.335   8.743 -4.1646  0.0775  1.8104
  747MOL0     H  831   4.933  10.163   7.284  0.5908 -0.8570  1.0759
  747MOL0     H  832   5.003  10.154   7.029 -0.4037 -1.0377 -2.6986
  747MOL0     H  833   5.205  10.031   6.670 -0.7148  0.2009 -2.5554
  747MOL0     H  834   5.310  10.004   6.458  0.2607 -3.8346  3.9933
  747MOL0     H  835   5.668  10.132   6.233 -1.0490 -1.8294 -1.3985
  747MOL0     H  836   5.709  10.105   6.403 -1.3519 -2.0221  1.8211
  747MOL0     H  837   5.582   9.901   6.216 -0.5978  5.5449 -0.4745
  747MOL0     H  838   5.648   9.871   6.384  1.3038 -0.3689  1.0850
  747MOL0     H  839   5.868   9.949   6.328  0.2480 -0.3853  0.3765
  747MOL0     H  840   5.822   9.976   6.160 -2.2260  0.0347 -1.1561
  747MOL0     H  841   5.826   9.716   6.327 -3.2469  0.1200  0.2075
  747MOL0     H  842   5.964   9.773   6.218 -0.1810  1.1557 -2.2600
  747MOL0     H  843   5.681   9.599   5.945  0.8928 -2.9138  0.1106
  747MOL0     H  844   5.654  10.226   6.591 -0.7883  1.5054 -0.1408
  747MOL0     H  845   5.554  10.230   6.813  2.1395 -2.0298 -0.8592
  748MOL0     O  846   1.024   0.216   0.922  0.3806 -0.3003  0.1061
  748MOL0     C  847   0.945   0.124   0.928  0.7306 -0.0095  1.4506
  748MOL0     O  848   0.829   0.107   0.851 -0.7740  0.3630 -0.0540
  748MOL0     C  849   0.777   0.212   0.770 -0.2041 -0.1469 -0.0171
  748MOL0     C  850   0.662   0.176   0.701  0.5833 -0.0419 -0.6294
  748MOL0     C  851   0.586   0.267   0.623 -0.0118 -0.8042 -0.6318
  748MOL0     C  852   0.627   0.395   0.623  0.1989 -0.0199 -0.4606
  748MOL0     O  853   0.544   0.469   0.554 -0.2109 -0.3823 -0.7112
  748MOL0     C  854   0.464   0.553   0.642  1.3084  0.3926  0.3843
  748MOL0     C  855   0.346   0.596   0.556  0.4739  0.3380 -0.3300
  748MOL0     C  856   0.263   0.696   0.633  0.5140 -0.0978  0.0274
  748MOL0     C  857   0.311   0.833   0.572  0.3241  0.7304 -0.3274
  748MOL0     C  858   0.257   0.957   0.640 -0.9124  0.5790 -1.0646
  748MOL0     C  859   0.303   1.087   0.573 -0.3330 -0.1821 -0.5417
  748MOL0     C  860   0.240   1.210   0.637  0.0646  0.3829  0.6168
  748MOL0     C  861   0.292   1.346   0.596 -0.7446  0.1166  0.2222
  748MOL0     N  862   0.286   1.375   0.448 -0.4517 -0.2161 -0.3340
  748MOL0     C  863   0.183   1.435   0.374 -0.2763 -1.0813 -0.4075
  748MOL0     C  864   0.226   1.442   0.248  0.2989 -0.3648 -0.2288
  748MOL0     C  865   0.142   1.501   0.141 -0.4544 -0.2602 -1.2602
  748MOL0     C  866   0.109   1.392   0.045 -0.0181 -0.1121 -0.2415
  748MOL0     C  867   0.023   1.444  -0.075  0.2546  0.3670 -1.0467
  748MOL0     C  868  -0.048   1.334  -0.162 -0.4446  0.4466  0.5468
  748MOL0     O  869  -0.157   1.303  -0.091  0.6121  0.3916  0.0158
  748MOL0     C  870  -0.255   1.222  -0.148 -0.5258  0.7272  0.1540
  748MOL0     C  871  -0.227   1.133  -0.254  0.0909 -0.3734 -0.3015
  748MOL0     C  872  -0.323   1.053  -0.314 -0.3949  0.5401  0.3606
  748MOL0     C  873  -0.278   0.944  -0.412 -0.2780  1.1200  0.8090
  748MOL0     C  874  -0.448   1.085  -0.276 -0.3210 -0.3902 -1.0252
  748MOL0     C  875  -0.562   1.071  -0.372 -0.5917 -0.0308 -0.9991
  748MOL0     O  876  -0.539   0.992  -0.476  0.0740  0.3431  0.1490
  748MOL0     C  877  -0.631   0.953  -0.571 -0.4026 -0.7402 -0.1027
  748MOL0     C  878  -0.567   0.899  -0.678 -0.0772  0.4500  0.5772
  748MOL0     C  879  -0.640   0.836  -0.777 -0.1193 -0.0765  0.5737
  748MOL0     C  880  -0.787   0.840  -0.782 -0.4523 -0.2626 -0.5063
  748MOL0     O  881  -0.858   0.750  -0.860 -0.0458 -0.1031  0.5705
  748MOL0     C  882  -0.806   0.619  -0.900  0.5596 -0.1554  0.2883
  748MOL0     C  883  -0.908   0.534  -0.979 -0.5843 -0.2071  0.0840
  748MOL0     C  884  -0.844   0.411  -1.016 -0.5785  0.1840  0.6129
  748MOL0     C  885  -0.924   0.342  -1.135  0.2703 -0.0176 -0.1175
  748MOL0     C  886  -0.863   0.217  -1.188  0.8367  0.1055 -0.1639
  748MOL0     C  887  -0.946   0.151  -1.307 -0.6959 -1.4084 -0.6885
  748MOL0     C  888  -0.882   0.018  -1.339  0.2999 -0.1643 -0.3097
  748MOL0     C  889  -0.925  -0.030  -1.477 -0.4625  0.8783 -1.0788
  748MOL0    Cl  890  -0.849  -0.194  -1.489 -0.1242 -0.1355  0.2145
  748MOL0     C  891  -0.853   0.903  -0.672  0.2655 -0.4909 -0.2758
  748MOL0     C  892  -0.773   0.968  -0.571 -0.4660 -0.1011  0.4832
  748MOL0     O  893  -0.664   1.118  -0.344  0.0237  0.4639 -0.0017
  748MOL0     C  894  -0.480   1.169  -0.168 -0.1979 -1.0941 -0.1169
  748MOL0     C  895  -0.380   1.254  -0.114  0.6330  0.7016 -0.6835
  748MOL0     N  896   0.356   1.402   0.235  0.0444 -0.1989 -0.2111
  748MOL0     N  897   0.392   1.357   0.354  0.0448 -0.6279  0.2649
  748MOL0     C  898   0.741   0.440   0.697  0.0855  0.7679 -0.2063
  748MOL0     C  899   0.818   0.343   0.766 -0.4347  0.0326 -0.4480
  748MOL0     C  900   0.973   0.011   1.033 -0.4241  0.6349  0.8139
  748MOL0     C  901   1.096   0.009   1.097  0.7109  0.0689 -0.1453
  748MOL0     C  902   1.131  -0.080   1.199 -0.0956 -0.0130  0.6831
  748MOL0     C  903   1.031  -0.168   1.242 -0.2768 -0.7128  1.1601
  748MOL0     O  904   1.044  -0.247   1.350  0.2720 -0.1346  0.2499
  748MOL0     C  905   1.146  -0.224   1.450 -0.0990 -0.4247  0.5104
  748MOL0     C  906   1.092  -0.259   1.604  0.1559  0.0759  0.5609
  748MOL0     C  907   1.041  -0.140   1.684  0.8672 -0.1835 -0.2039
  748MOL0     C  908   0.980  -0.190   1.817  0.5920  0.3065  0.8266
  748MOL0     C  909   1.085  -0.235   1.901  0.4741 -0.6641 -0.4891
  748MOL0     C  910   1.164  -0.290   1.970 -0.3507 -0.1897  0.8461
  748MOL0     C  911   0.906  -0.173   1.170 -0.4527  0.2293 -0.4212
  748MOL0     C  912   0.877  -0.080   1.071  0.6611 -0.2328  0.1598
  748MOL0     H  913   0.637   0.070   0.702 -0.5053  0.1829  1.4916
  748MOL0     H  914   0.511   0.235   0.552 -1.8878 -0.0645  0.9351
  748MOL0     H  915   0.443   0.494   0.731 -0.9320  1.3788  0.5780
  748MOL0     H  916   0.514   0.648   0.664 -1.3479  1.9635 -0.0161
  748MOL0     H  917   0.371   0.627   0.455 -0.2571 -2.3025 -1.4050
  748MOL0     H  918   0.270   0.519   0.537 -2.3799  2.1846  2.5735
  748MOL0     H  919   0.155   0.690   0.622  0.3578 -0.6630  1.6805
  748MOL0     H  920   0.283   0.679   0.739  3.1787 -2.1486 -0.6916
  748MOL0     H  921   0.420   0.847   0.570  0.4831  0.0232  1.4775
  748MOL0     H  922   0.278   0.832   0.468  1.6026 -3.9364 -0.9137
  748MOL0     H  923   0.149   0.945   0.646 -0.8406 -0.2209 -1.2198
  748MOL0     H  924   0.302   0.951   0.740  2.4362 -4.2928 -2.4531
  748MOL0     H  925   0.413   1.094   0.570 -0.2001 -1.4266 -3.8350
  748MOL0     H  926   0.272   1.095   0.468  1.3674  2.6266 -0.9224
  748MOL0     H  927   0.133   1.192   0.622  0.2977  0.9664 -2.3433
  748MOL0     H  928   0.263   1.197   0.743  2.4993 -2.4274 -0.1189
  748MOL0     H  929   0.393   1.381   0.621 -1.3510  3.1526 -1.0502
  748MOL0     H  930   0.220   1.410   0.648 -0.2939  2.0333 -1.3547
  748MOL0     H  931   0.097   1.479   0.424  0.8470  0.0616  0.5796
  748MOL0     H  932   0.045   1.537   0.175 -0.6967 -2.1059  0.2057
  748MOL0     H  933   0.199   1.583   0.097 -2.1386 -0.0779 -3.2364
  748MOL0     H  934   0.048   1.310   0.085  1.5585 -0.7740  0.9316
  748MOL0     H  935   0.194   1.337   0.005 -1.2777  0.2689 -3.7584
  748MOL0     H  936   0.100   1.485  -0.142  1.9957  2.7092  2.1301
  748MOL0     H  937  -0.040   1.530  -0.051 -0.8060  0.3670 -3.5130
  748MOL0     H  938   0.032   1.260  -0.171  0.5308  1.4518  0.7165
  748MOL0     H  939  -0.066   1.368  -0.265 -1.6020 -0.5706  0.3962
  748MOL0     H  940  -0.124   1.115  -0.283  0.9776 -0.2699  2.4714
  748MOL0     H  941  -0.287   0.969  -0.518 -1.3120 -3.7915 -0.5437
  748MOL0     H  942  -0.177   0.907  -0.395 -1.4455 -3.7590 -1.1459
  748MOL0     H  943  -0.339   0.856  -0.387  1.0948 -0.3008 -0.5791
  748MOL0     H  944  -0.459   0.886  -0.673 -0.0727  0.6989  1.3709
  748MOL0     H  945  -0.591   0.784  -0.859 -3.8919 -1.2077 -1.1944
  748MOL0     H  946  -0.715   0.638  -0.958 -0.7661  2.9546 -0.9952
  748MOL0     H  947  -0.783   0.567  -0.807  2.4263  0.7290  0.3667
  748MOL0     H  948  -0.994   0.507  -0.918 -0.5801  0.6844  0.5022
  748MOL0     H  949  -0.933   0.595  -1.067 -0.7410  0.2302  0.4227
  748MOL0     H  950  -0.852   0.339  -0.934 -1.7202  0.2777  0.5972
  748MOL0     H  951  -0.740   0.426  -1.047  0.1455  0.4373  2.9760
  748MOL0     H  952  -1.022   0.328  -1.089 -0.0368  2.0400 -0.0284
  748MOL0     H  953  -0.929   0.408  -1.222 -3.2601 -1.5363 -1.2478
  748MOL0     H  954  -0.880   0.142  -1.110  0.8128 -2.8892 -2.8233
  748MOL0     H  955  -0.756   0.226  -1.206  1.5225  0.0196  3.2608
  748MOL0     H  956  -1.054   0.138  -1.292 -0.5929 -0.0956  1.6432
  748MOL0     H  957  -0.916   0.213  -1.393 -0.9809 -2.4855 -1.5887
  748MOL0     H  958  -0.927  -0.060  -1.277  3.1411 -1.0079  0.8830
  748MOL0     H  959  -0.775   0.005  -1.320 -0.1063 -0.1539  2.3432
  748MOL0     H  960  -0.893   0.034  -1.559  1.0942  0.7071 -0.6257
  748MOL0     H  961  -1.034  -0.026  -1.464 -0.3598  3.1889 -0.5157
  748MOL0     H  962  -0.958   0.889  -0.647  0.5479  2.5121  3.5482
  748MOL0     H  963  -0.834   1.002  -0.487 -1.0950  2.1524 -0.8020
  748MOL0     H  964  -0.580   1.166  -0.125  0.5903 -3.1084  1.8253
  748MOL0     H  965  -0.401   1.326  -0.036 -0.4585 -2.1395  1.8342
  748MOL0     H  966   0.764   0.545   0.688  1.3787  0.5021 -0.0951
  748MOL0     H  967   0.908   0.376   0.816 -0.7832  0.7635 -0.2863
  748MOL0     H  968   1.181   0.074   1.080  1.9823 -1.7481 -1.0681
  748MOL0     H  969   1.228  -0.077   1.248 -0.5079 -1.8640  1.7188
  748MOL0     H  970   1.227  -0.295   1.431 -1.9582 -2.5811  0.1547
  748MOL0     H  971   1.183  -0.121   1.457 -0.8400 -0.2327  2.2423
  748MOL0     H  972   1.176  -0.304   1.657 -0.0332 -1.8893 -0.6777
  748MOL0     H  973   1.020  -0.341   1.598  0.6689 -0.2828 -1.6090
  748MOL0     H  974   0.968  -0.088   1.621 -0.4999  0.1716  1.5588
  748MOL0     H  975   1.130  -0.081   1.707  0.3461  0.8863 -0.8302
  748MOL0     H  976   0.917  -0.274   1.784 -0.9344  1.5179  0.5355
  748MOL0     H  977   0.913  -0.126   1.876  0.4907 -1.0537  2.2734
  748MOL0     H  978   1.231  -0.338   2.039 -0.4486 -0.3055  0.8598
  748MOL0     H  979   0.824  -0.236   1.203  0.7172  1.1773  5.2931
  748MOL0     H  980   0.780  -0.070   1.023  0.4585  1.0197  0.7901
  749MOL0     O  981   7.082   5.844   9.854 -0.2780 -0.1609  0.6525
  749MOL0     C  982   7.192   5.836   9.907 -0.6014 -0.5764 -0.9296
  749MOL0     O  983   7.229   5.736   9.982  0.6691  0.6135 -0.1347
  749MOL0     C  984   7.155   5.618   9.982  0.2699  0.6678  0.0725
  749MOL0     C  985   7.168   5.528   9.872 -0.6144 -0.3240 -0.6837
  749MOL0     C  986   7.095   5.408   9.871  0.2102 -0.1040 -0.1399
  749MOL0     C  987   7.015   5.373   9.982  0.7834 -0.7580  0.0130
  749MOL0     O  988   6.937   5.262   9.986  0.3644 -0.6793 -0.3614
  749MOL0     C  989   6.981   5.142   9.910  0.3509  0.9982 -0.7847
  749MOL0     C  990   7.106   5.088   9.959  0.1911  0.0390  0.7556
  749MOL0     C  991   7.112   5.079  10.101 -0.8545  0.7118  0.4362
  749MOL0     C  992   7.029   4.958  10.149 -0.6917  0.7569 -0.1657
  749MOL0     C  993   7.052   4.942  10.298  0.3297 -0.2558 -1.1713
  749MOL0     C  994   6.923   5.014  10.369 -0.6449  0.3070  0.4658
  749MOL0     C  995   6.801   4.924  10.372 -0.0467  0.0141  0.1243
  749MOL0     C  996   6.698   4.982  10.468  0.1836  0.2902  0.8109
  749MOL0     N  997   6.663   5.120  10.427 -0.4107 -0.4133 -0.1021
  749MOL0     C  998   6.610   5.161  10.308  0.1165 -1.1209  0.3612
  749MOL0     C  999   6.619   5.292  10.303  0.0544  0.2224 -0.9890
  749MOL0     C 1000   6.567   5.371  10.190  0.6917 -0.2744 -0.0233
  749MOL0     C 1001   6.552   5.524  10.222 -0.1923  0.7604 -0.4259
  749MOL0     C 1002   6.491   5.607  10.104 -0.4245  0.8650 -0.0919
  749MOL0     C 1003   6.454   5.745  10.145  1.0690 -1.0547 -0.0681
  749MOL0     O 1004   6.561   5.823  10.199 -0.4884 -0.0356 -0.1973
  749MOL0     C 1005   6.605   5.918  10.106  0.0883 -0.2907 -0.0516
  749MOL0     C 1006   6.536   6.026  10.057  0.4159 -0.5466 -0.1553
  749MOL0     C 1007   6.593   6.122   9.977 -0.2018  0.1394 -0.6353
  749MOL0     C 1008   6.501   6.235   9.953 -0.3577 -0.1169 -0.1371
  749MOL0     C 1009   6.737   6.110   9.939  0.6795 -0.2163  0.7856
  749MOL0     C 1010   6.807   6.208   9.859  0.1816 -0.6646  0.2041
  749MOL0     O 1011   6.941   6.183   9.826  0.0926  0.0120 -0.3558
  749MOL0     C 1012   6.997   6.271   9.731 -0.5477  0.4031 -0.6710
  749MOL0     C 1013   7.014   6.227   9.601 -0.2504  0.1021 -0.3537
  749MOL0     C 1014   7.055   6.313   9.507  0.3277 -1.1906 -0.6744
  749MOL0     C 1015   7.085   6.443   9.535  0.0205 -0.5385  0.0116
  749MOL0     O 1016   7.137   6.517   9.434  0.6294 -0.0328  1.3282
  749MOL0     C 1017   7.202   6.641   9.467  0.4522  0.4939  0.7642
  749MOL0     C 1018   7.295   6.683   9.349 -1.2540  0.5829 -0.3902
  749MOL0     C 1019   7.212   6.706   9.221 -0.0544  0.2578 -0.1442
  749MOL0     C 1020   7.262   6.819   9.133 -0.1075  0.5100 -0.1130
  749MOL0     C 1021   7.290   6.776   8.990  0.2244 -0.0944  0.3694
  749MOL0     C 1022   7.165   6.741   8.911 -0.8011 -0.1539  0.3171
  749MOL0     C 1023   7.223   6.711   8.765 -0.3700  0.1667  0.0358
  749MOL0     C 1024   7.126   6.624   8.690 -0.1962  0.8847 -0.0987
  749MOL0    Cl 1025   7.098   6.462   8.761 -0.0921 -0.0716  0.0520
  749MOL0     C 1026   7.063   6.487   9.668 -1.0270 -0.4779  1.3117
  749MOL0     C 1027   7.027   6.399   9.773  0.1135  0.0447 -0.0370
  749MOL0     O 1028   6.752   6.308   9.813  1.1665  0.1124 -0.4858
  749MOL0     C 1029   6.802   5.990   9.981  0.4406 -0.3654  1.8430
  749MOL0     C 1030   6.732   5.894  10.052 -1.0627  0.5629 -0.6300
  749MOL0     N 1031   6.660   5.339  10.428 -0.0032 -0.0084  0.8764
  749MOL0     N 1032   6.681   5.235  10.500 -0.0894  0.2818 -0.5487
  749MOL0     C 1033   6.987   5.472  10.078 -0.5710 -0.7263 -0.2143
  749MOL0     C 1034   7.059   5.594  10.080 -0.0343 -0.3975 -0.1361
  749MOL0     C 1035   7.283   5.952   9.879  0.6376  0.3855  0.0550
  749MOL0     C 1036   7.274   6.030   9.767  2.1367 -0.3780 -0.5724
  749MOL0     C 1037   7.374   6.113   9.727  0.1780  0.4438  0.1688
  749MOL0     C 1038   7.489   6.139   9.803 -0.3853  0.3014 -0.2502
  749MOL0     O 1039   7.582   6.237   9.761 -1.0023  0.7092 -0.3635
  749MOL0     C 1040   7.587   6.283   9.624  0.2206 -0.1216  0.5242
  749MOL0     C 1041   7.656   6.415   9.615 -0.4580 -0.4043  0.4137
  749MOL0     C 1042   7.569   6.534   9.656 -0.0308  0.4949  0.3268
  749MOL0     C 1043   7.489   6.515   9.793 -0.5865 -1.2454  0.4197
  749MOL0     C 1044   7.578   6.510   9.908 -0.6277 -0.1708  0.3457
  749MOL0     C 1045   7.633   6.516  10.020 -0.5529 -0.1814  1.1564
  749MOL0     C 1046   7.498   6.068   9.922 -0.0292  0.0081 -0.8514
  749MOL0     C 1047   7.401   5.974   9.954  0.6068 -0.1088 -0.1488
  749MOL0     H 1048   7.230   5.549   9.786 -1.2610 -0.0799 -1.1014
  749MOL0     H 1049   7.124   5.346   9.786 -1.9470  1.9087 -2.4780
  749MOL0     H 1050   6.913   5.057   9.919 -1.3323  2.1869 -1.6850
  749MOL0     H 1051   6.991   5.167   9.804 -3.2582  0.4692 -1.3804
  749MOL0     H 1052   7.129   4.991   9.915 -2.5448 -1.0578  1.5383
  749MOL0     H 1053   7.178   5.157   9.914 -0.3548 -0.5843 -1.1217
  749MOL0     H 1054   7.215   5.060  10.133 -0.2620  1.7988 -0.7542
  749MOL0     H 1055   7.096   5.169  10.162 -1.0941 -1.2365  3.4771
  749MOL0     H 1056   6.928   4.959  10.108  0.2794  1.6547 -2.8205
  749MOL0     H 1057   7.072   4.871  10.098  1.3774  1.7110 -0.1534
  749MOL0     H 1058   7.046   4.836  10.326  1.1346  0.7066  3.3466
  749MOL0     H 1059   7.154   4.970  10.323  0.5708 -0.5027 -1.8351
  749MOL0     H 1060   6.957   5.027  10.472 -1.5484  0.8513  0.7062
  749MOL0     H 1061   6.900   5.110  10.323 -0.9345 -0.8452 -1.9650
  749MOL0     H 1062   6.758   4.910  10.272  1.9974  1.1937 -0.9995
  749MOL0     H 1063   6.823   4.824  10.409  0.4988  0.1483  0.1847
  749MOL0     H 1064   6.727   4.967  10.572  0.2261  1.0994  0.9238
  749MOL0     H 1065   6.610   4.918  10.455 -0.3485  1.2457 -0.5650
  749MOL0     H 1066   6.569   5.092  10.235  1.1032 -1.0351 -0.3076
  749MOL0     H 1067   6.630   5.368  10.101  0.7405 -0.2564  0.0102
  749MOL0     H 1068   6.468   5.328  10.172  2.2205 -4.8463  1.1268
  749MOL0     H 1069   6.652   5.568  10.232 -0.3108  0.8228  0.7155
  749MOL0     H 1070   6.498   5.544  10.315  0.2518 -0.3608  0.0946
  749MOL0     H 1071   6.400   5.563  10.062 -2.1428  4.5907 -0.6892
  749MOL0     H 1072   6.568   5.612  10.026  1.1152  0.5865  1.3429
  749MOL0     H 1073   6.386   5.732  10.230  2.0399  1.7126  1.2528
  749MOL0     H 1074   6.401   5.795  10.063 -1.7723  1.6001  3.0946
  749MOL0     H 1075   6.434   6.026  10.096  0.5566 -1.8869  0.2937
  749MOL0     H 1076   6.467   6.235   9.849 -2.3301  1.0357  0.4481
  749MOL0     H 1077   6.422   6.236  10.029 -0.1622 -1.8159  0.1164
  749MOL0     H 1078   6.559   6.327   9.967  1.0330 -1.1226  0.9895
  749MOL0     H 1079   6.986   6.128   9.568  3.5426 -1.3664  0.3360
  749MOL0     H 1080   7.062   6.268   9.409 -4.6820  0.3047 -2.0186
  749MOL0     H 1081   7.134   6.722   9.495  1.5528  1.2792  1.2597
  749MOL0     H 1082   7.268   6.625   9.553  1.4600 -1.1349 -0.2664
  749MOL0     H 1083   7.357   6.771   9.372 -1.9262  1.0700 -0.4055
  749MOL0     H 1084   7.354   6.591   9.343 -2.0167  0.1631 -1.8948
  749MOL0     H 1085   7.105   6.714   9.239 -0.1439 -2.2465  0.7990
  749MOL0     H 1086   7.204   6.609   9.169 -0.9366 -1.9647  3.7487
  749MOL0     H 1087   7.194   6.904   9.141  1.9208  2.0693  1.4633
  749MOL0     H 1088   7.351   6.860   9.181  0.3938 -1.2040  0.4908
  749MOL0     H 1089   7.357   6.689   8.989 -0.1009 -0.3826  1.5236
  749MOL0     H 1090   7.341   6.855   8.934  1.6756 -0.9769  0.4021
  749MOL0     H 1091   7.108   6.660   8.956  0.2686 -3.1945 -3.3411
  749MOL0     H 1092   7.103   6.831   8.899  0.1332  0.3938 -0.6949
  749MOL0     H 1093   7.315   6.657   8.788 -0.6641  0.8201  3.1221
  749MOL0     H 1094   7.244   6.806   8.716 -0.0505  1.2460  2.2011
  749MOL0     H 1095   7.158   6.618   8.585 -1.1276  2.7479 -0.5300
  749MOL0     H 1096   7.032   6.678   8.698 -2.5054 -2.9902  1.9259
  749MOL0     H 1097   7.071   6.593   9.686 -0.6371  0.3424 -2.7190
  749MOL0     H 1098   7.014   6.413   9.880 -1.3243 -1.3243  0.0071
  749MOL0     H 1099   6.900   5.957   9.947  0.1496 -2.3239  2.7837
  749MOL0     H 1100   6.789   5.818  10.103 -1.8831  0.9689  0.9756
  749MOL0     H 1101   6.913   5.454  10.155  1.6208  0.2241  2.2560
  749MOL0     H 1102   7.041   5.668  10.157 -1.0397 -0.0712 -0.6624
  749MOL0     H 1103   7.190   6.007   9.701  0.7511 -2.8517  1.8553
  749MOL0     H 1104   7.366   6.163   9.631  1.3872  0.2039 -0.0692
  749MOL0     H 1105   7.649   6.216   9.565 -0.9191 -0.3279 -0.4760
  749MOL0     H 1106   7.493   6.314   9.578  1.1963  2.2655 -0.0598
  749MOL0     H 1107   7.694   6.442   9.516 -0.6464  1.7533  0.8817
  749MOL0     H 1108   7.735   6.415   9.690  1.1060 -2.1118 -1.1350
  749MOL0     H 1109   7.502   6.575   9.580 -0.1282  1.0740  0.7196
  749MOL0     H 1110   7.627   6.620   9.689 -0.9012  0.4397  2.0960
  749MOL0     H 1111   7.435   6.420   9.799 -1.2447 -0.8043  2.0975
  749MOL0     H 1112   7.422   6.601   9.797  2.2647  1.1842  0.1152
  749MOL0     H 1113   7.692   6.527  10.108  1.0127  0.9111  0.0339
  749MOL0     H 1114   7.580   6.095   9.988  1.4026 -3.1522 -1.1435
  749MOL0     H 1115   7.416   5.918  10.046  1.7621  1.9433  0.9916
  750MOL0     O 1116   2.809   1.254   6.997  0.6312  0.6685  0.2017
  750MOL0     C 1117   2.841   1.257   7.113 -0.7576 -0.0322  1.3757
  750MOL0     O 1118   2.922   1.163   7.175  0.6401 -0.5728  0.4709
  750MOL0     C 1119   2.995   1.087   7.085  0.3735 -0.8700  0.3379
  750MOL0     C 1120   3.125   1.132   7.026  0.2437  0.0141  0.5962
  750MOL0     C 1121   3.189   1.058   6.926  0.7028 -0.3310  0.5521
  750MOL0     C 1122   3.140   0.931   6.891  1.3076  0.7118 -0.7908
  750MOL0     O 1123   3.223   0.855   6.812  0.3488 -0.0389  0.0815
  750MOL0     C 1124   3.232   0.893   6.678 -0.8626  0.0279 -0.1420
  750MOL0     C 1125   3.366   0.854   6.624 -1.3209 -0.3488  0.3602
  750MOL0     C 1126   3.484   0.895   6.712 -0.3422  0.2697 -0.5752
  750MOL0     C 1127   3.607   0.821   6.656 -0.5690 -0.1317 -0.0538
  750MOL0     C 1128   3.737   0.828   6.742 -0.5016  0.8569  0.1141
  750MOL0     C 1129   3.786   0.971   6.758 -0.2040  0.1907 -0.9663
  750MOL0     C 1130   3.911   0.995   6.838  0.3729  0.9935 -0.1141
  750MOL0     C 1131   4.021   1.082   6.770 -0.0064 -0.2736 -1.1982
  750MOL0     N 1132   4.082   1.019   6.656 -0.5688  0.6769 -0.5825
  750MOL0     C 1133   4.127   0.892   6.652 -0.2617 -0.2691 -0.3426
  750MOL0     C 1134   4.156   0.867   6.524 -0.2247 -0.3040  0.4490
  750MOL0     C 1135   4.199   0.738   6.479 -0.5104  1.0850 -0.0631
  750MOL0     C 1136   4.129   0.688   6.352  0.1812  0.6901 -0.2588
  750MOL0     C 1137   3.976   0.681   6.396 -0.7728 -0.3492 -0.2003
  750MOL0     C 1138   3.915   0.599   6.281  1.1097 -0.4620 -0.6848
  750MOL0     O 1139   3.782   0.585   6.344  0.3354 -0.5049 -0.3496
  750MOL0     C 1140   3.674   0.657   6.303 -0.1925  0.2554 -0.6070
  750MOL0     C 1141   3.550   0.611   6.358  0.4916 -0.1600 -0.0417
  750MOL0     C 1142   3.429   0.655   6.299 -0.5987  0.4478  0.3212
  750MOL0     C 1143   3.308   0.595   6.342  0.3709 -0.1656  0.1661
  750MOL0     C 1144   3.436   0.772   6.210 -0.4991  0.7223 -0.7404
  750MOL0     C 1145   3.318   0.836   6.152  0.5366 -0.0325  0.7358
  750MOL0     O 1146   3.196   0.790   6.177 -0.0579 -0.1228  0.8056
  750MOL0     C 1147   3.121   0.866   6.258  0.6583 -0.4737 -0.1323
  750MOL0     C 1148   3.012   0.795   6.328  0.0081 -0.0271  0.3775
  750MOL0     C 1149   2.944   0.852   6.430  0.3041  0.2464 -0.0153
  750MOL0     C 1150   2.952   0.990   6.445  0.2107 -0.5837 -0.1536
  750MOL0     O 1151   2.877   1.032   6.555  0.3098 -0.0910  0.0705
  750MOL0     C 1152   2.826   1.169   6.547 -0.0433 -0.5492 -0.4504
  750MOL0     C 1153   2.721   1.202   6.663 -1.0390  0.3450  0.1926
  750MOL0     C 1154   2.634   1.329   6.642 -0.0737  0.0620 -0.2599
  750MOL0     C 1155   2.584   1.400   6.761 -0.4571  0.1239  0.0179
  750MOL0     C 1156   2.490   1.510   6.716  0.3284  0.3012 -0.2090
  750MOL0     C 1157   2.486   1.609   6.837 -0.4284 -0.4561 -0.1655
  750MOL0     C 1158   2.391   1.729   6.830 -0.6292 -0.2613  1.1969
  750MOL0     C 1159   2.251   1.684   6.860  0.0672  0.1156  0.5471
  750MOL0    Cl 1160   2.130   1.810   6.811 -0.1210  0.4438 -0.1186
  750MOL0     C 1161   3.038   1.066   6.375  0.2156  0.4726  1.1610
  750MOL0     C 1162   3.120   1.001   6.278 -0.8750 -0.5263  0.1032
  750MOL0     O 1163   3.345   0.933   6.082  0.9081  0.0854  0.7993
  750MOL0     C 1164   3.568   0.820   6.183  0.2702  0.1395 -0.3061
  750MOL0     C 1165   3.691   0.762   6.224  0.7132 -1.6713  0.5279
  750MOL0     N 1166   4.147   0.980   6.449  0.8474 -0.2376 -0.6494
  750MOL0     N 1167   4.090   1.068   6.525 -0.4453 -0.0395  0.1150
  750MOL0     C 1168   3.018   0.882   6.950 -0.9997  0.1468 -0.5477
  750MOL0     C 1169   2.942   0.966   7.029 -0.0021  0.1573 -0.8016
  750MOL0     C 1170   2.790   1.376   7.181 -0.5983  0.8337  0.8315
  750MOL0     C 1171   2.835   1.398   7.310 -0.3709  1.2455  0.2004
  750MOL0     C 1172   2.819   1.519   7.377  0.0645  0.2530  0.2700
  750MOL0     C 1173   2.765   1.621   7.302 -0.4677 -0.8930 -0.0655
  750MOL0     O 1174   2.738   1.752   7.347 -0.5295 -0.9894 -0.8639
  750MOL0     C 1175   2.817   1.796   7.456 -0.5271 -0.0394 -0.6001
  750MOL0     C 1176   2.850   1.947   7.442 -0.8460  0.0959  0.6309
  750MOL0     C 1177   2.731   2.043   7.412 -0.3183 -0.6892 -0.2436
  750MOL0     C 1178   2.640   2.061   7.531 -0.1924  0.0201 -0.5039
  750MOL0     C 1179   2.683   2.173   7.610 -0.1432  0.7864 -0.8863
  750MOL0     C 1180   2.712   2.264   7.692 -0.5640 -0.6896  0.4878
  750MOL0     C 1181   2.723   1.602   7.174 -0.2910  0.0090 -0.0070
  750MOL0     C 1182   2.735   1.485   7.107  0.1571 -0.2615 -0.1150
  750MOL0     H 1183   3.168   1.228   7.053 -0.9122  0.9741 -0.7697
  750MOL0     H 1184   3.286   1.090   6.889  0.3618  1.9204  1.4154
  750MOL0     H 1185   3.151   0.839   6.628 -0.5246 -0.7757  0.1528
  750MOL0     H 1186   3.219   1.001   6.672 -0.5113  0.0249 -1.2537
  750MOL0     H 1187   3.368   0.745   6.611 -1.7627 -0.2249 -0.8363
  750MOL0     H 1188   3.368   0.897   6.524 -2.9471 -1.0550  0.0011
  750MOL0     H 1189   3.491   1.004   6.711 -4.0862  0.6346 -2.1635
  750MOL0     H 1190   3.470   0.854   6.813 -0.0845  0.4898 -0.4499
  750MOL0     H 1191   3.593   0.714   6.643  0.7937 -0.1189 -2.0658
  750MOL0     H 1192   3.613   0.875   6.561 -0.3888  1.6797  0.9306
  750MOL0     H 1193   3.716   0.786   6.841  0.4200 -1.9890 -0.7915
  750MOL0     H 1194   3.820   0.773   6.696  0.8293  1.4676  1.6733
  750MOL0     H 1195   3.804   1.013   6.658 -0.3063  1.4038 -0.4946
  750MOL0     H 1196   3.716   1.034   6.814  0.8729 -1.2368  2.1962
  750MOL0     H 1197   3.878   1.051   6.927 -0.9486  1.7537 -1.0492
  750MOL0     H 1198   3.950   0.903   6.884  1.5927  1.7002  0.2834
  750MOL0     H 1199   4.106   1.089   6.839 -1.1867  0.0783  0.2894
  750MOL0     H 1200   3.990   1.185   6.749  1.0401  0.3236  0.0263
  750MOL0     H 1201   4.133   0.821   6.734  0.9015 -0.6436 -0.7383
  750MOL0     H 1202   4.308   0.738   6.472 -0.4130 -0.3252  1.0811
  750MOL0     H 1203   4.177   0.668   6.559  0.0853 -0.3543 -1.1111
  750MOL0     H 1204   4.170   0.595   6.313 -1.3451  0.3540 -1.1678
  750MOL0     H 1205   4.136   0.757   6.267 -1.9613  0.6404 -0.5433
  750MOL0     H 1206   3.933   0.782   6.398 -0.3678 -0.1876  0.7920
  750MOL0     H 1207   3.946   0.634   6.490 -2.3854 -2.2250 -1.5698
  750MOL0     H 1208   3.960   0.501   6.265 -0.9720 -1.2293 -2.2950
  750MOL0     H 1209   3.917   0.650   6.184 -0.5727 -3.1722 -2.2834
  750MOL0     H 1210   3.550   0.534   6.434  3.6317 -1.0790 -0.8088
  750MOL0     H 1211   3.247   0.572   6.254 -1.9950  0.4045  1.5782
  750MOL0     H 1212   3.314   0.527   6.427  0.7691 -0.8995 -0.4305
  750MOL0     H 1213   3.256   0.676   6.394 -0.0956 -0.9181  0.8892
  750MOL0     H 1214   3.005   0.689   6.306  4.4430 -0.1907 -1.3966
  750MOL0     H 1215   2.866   0.789   6.471  0.6436  0.1345  0.4757
  750MOL0     H 1216   2.915   1.233   6.543  1.0380 -2.0529 -2.5465
  750MOL0     H 1217   2.777   1.194   6.452 -1.3330  1.9682  0.7736
  750MOL0     H 1218   2.654   1.118   6.680 -0.3326 -0.1682  0.4953
  750MOL0     H 1219   2.783   1.220   6.751 -0.1245  2.2626 -0.7600
  750MOL0     H 1220   2.548   1.304   6.580 -0.9450  2.6312 -0.1963
  750MOL0     H 1221   2.692   1.404   6.588  1.6373 -1.1155 -0.1705
  750MOL0     H 1222   2.531   1.324   6.819 -0.9158 -1.4561 -2.3423
  750MOL0     H 1223   2.671   1.439   6.815  1.3499 -1.4540 -1.6448
  750MOL0     H 1224   2.396   1.460   6.692  0.0780 -0.2989  1.7948
  750MOL0     H 1225   2.519   1.561   6.624  3.4402 -0.3806  0.2634
  750MOL0     H 1226   2.455   1.551   6.924  1.4455  1.3746  1.8035
  750MOL0     H 1227   2.582   1.656   6.856 -0.5803  0.2533 -1.0718
  750MOL0     H 1228   2.396   1.776   6.732 -4.3317  1.1410  1.5212
  750MOL0     H 1229   2.430   1.792   6.910  0.8282 -0.9445  1.0560
  750MOL0     H 1230   2.239   1.646   6.962 -3.9469 -1.3870 -0.3149
  750MOL0     H 1231   2.234   1.594   6.801 -1.0958 -0.1155  1.2104
  750MOL0     H 1232   3.051   1.173   6.386 -3.2209  1.0112  1.2875
  750MOL0     H 1233   3.183   1.070   6.222 -2.2805 -1.4783 -2.8693
  750MOL0     H 1234   3.564   0.914   6.128 -1.3671  0.3946  0.1817
  750MOL0     H 1235   3.782   0.818   6.203 -2.4148  3.4790 -1.2616
  750MOL0     H 1236   2.970   0.795   6.906 -1.0273 -0.2776  0.2885
  750MOL0     H 1237   2.854   0.928   7.081  0.4717  0.5581  0.3277
  750MOL0     H 1238   2.890   1.323   7.366  1.2541  1.1459 -1.4228
  750MOL0     H 1239   2.856   1.536   7.477  0.9549 -1.1531  0.2130
  750MOL0     H 1240   2.764   1.777   7.550 -3.1544  0.7900 -1.8248
  750MOL0     H 1241   2.914   1.745   7.463 -1.3223 -1.8163 -1.7734
  750MOL0     H 1242   2.927   1.959   7.365 -0.0475  1.2085  1.5792
  750MOL0     H 1243   2.902   1.991   7.527  0.0843  1.5545 -0.6271
  750MOL0     H 1244   2.664   2.009   7.332 -0.9729 -1.4707  0.6043
  750MOL0     H 1245   2.766   2.139   7.374 -3.0649  0.1591 -0.9098
  750MOL0     H 1246   2.629   1.964   7.581  0.0337 -0.9315 -2.2249
  750MOL0     H 1247   2.543   2.086   7.487  0.5187 -1.5479 -3.2127
  750MOL0     H 1248   2.735   2.342   7.762 -0.7522 -1.5123  1.4833
  750MOL0     H 1249   2.687   1.690   7.121  1.8733 -0.0944 -1.7690
  750MOL0     H 1250   2.699   1.478   7.005  1.9417 -2.1821 -0.6735
  751MOL0     O 1251   8.911   6.420   6.033  0.7988 -0.1694  0.2129
  751MOL0     C 1252   8.952   6.317   5.988  0.3595  0.3191  0.3419
  751MOL0     O 1253   8.960   6.199   6.057 -0.0164 -0.2793 -0.5029
  751MOL0     C 1254   8.882   6.191   6.169  0.4659  0.7962 -0.1500
  751MOL0     C 1255   8.938   6.194   6.302 -0.6065 -0.7628  1.2052
  751MOL0     C 1256   8.863   6.189   6.417 -0.0835  0.9167  0.4056
  751MOL0     C 1257   8.725   6.182   6.397  0.5815 -0.4278  0.8437
  751MOL0     O 1258   8.635   6.174   6.496 -0.3748 -0.0967 -0.2844
  751MOL0     C 1259   8.659   6.249   6.606  0.8687 -0.5183  0.2401
  751MOL0     C 1260   8.736   6.172   6.716 -1.4400  0.1645  0.0296
  751MOL0     C 1261   8.659   6.057   6.784  0.0454 -0.7304  0.5207
  751MOL0     C 1262   8.636   5.922   6.708  0.1351  0.8512  0.3237
  751MOL0     C 1263   8.594   5.808   6.799 -0.5095  0.0133 -0.4546
  751MOL0     C 1264   8.571   5.671   6.729 -0.5499 -1.4255  0.2197
  751MOL0     C 1265   8.427   5.656   6.673 -0.4130  0.7463 -0.6050
  751MOL0     C 1266   8.375   5.510   6.654 -1.4129 -0.3591  0.3094
  751MOL0     N 1267   8.285   5.510   6.534  0.3384 -0.0235 -0.1141
  751MOL0     C 1268   8.152   5.545   6.525 -0.9145  0.6965  0.4770
  751MOL0     C 1269   8.101   5.515   6.405  0.7536 -1.7585  0.6796
  751MOL0     C 1270   7.960   5.542   6.372 -0.7810 -1.1710  0.4457
  751MOL0     C 1271   7.906   5.430   6.274 -0.2411 -0.3293 -0.2775
  751MOL0     C 1272   7.748   5.438   6.270 -0.8152 -0.1983 -1.4125
  751MOL0     C 1273   7.673   5.412   6.402  0.6227  1.0878 -0.2107
  751MOL0     O 1274   7.530   5.389   6.383 -0.4724 -0.3286  0.4008
  751MOL0     C 1275   7.453   5.436   6.487 -0.5148 -0.3632  0.4684
  751MOL0     C 1276   7.325   5.479   6.452 -0.6753  0.0624 -0.7858
  751MOL0     C 1277   7.240   5.536   6.554  0.1615  0.6872 -0.2572
  751MOL0     C 1278   7.102   5.582   6.508  0.6298 -1.0859  0.2151
  751MOL0     C 1279   7.283   5.554   6.693  0.0454  0.3524  0.4512
  751MOL0     C 1280   7.196   5.592   6.803 -0.9761 -0.4197  0.1288
  751MOL0     O 1281   7.257   5.634   6.922 -0.0223  0.0379 -0.7172
  751MOL0     C 1282   7.166   5.647   7.030 -0.2096  0.5005  1.3306
  751MOL0     C 1283   7.106   5.765   7.046 -0.1253 -0.1485  0.7241
  751MOL0     C 1284   7.029   5.805   7.154  0.3762  0.5803  0.2129
  751MOL0     C 1285   7.019   5.709   7.259  0.3648  0.2296  0.5297
  751MOL0     O 1286   6.947   5.728   7.377 -0.4328 -0.4191  0.3145
  751MOL0     C 1287   6.909   5.861   7.401 -0.0328  0.2269 -0.5824
  751MOL0     C 1288   6.856   5.876   7.539  0.7466 -0.5575 -0.5594
  751MOL0     C 1289   6.820   6.026   7.562 -0.5064  0.1792  0.0278
  751MOL0     C 1290   6.690   6.047   7.639  0.5528 -0.1690  0.8321
  751MOL0     C 1291   6.648   6.196   7.664  0.3318  0.0878  0.8583
  751MOL0     C 1292   6.665   6.289   7.542  0.6567  0.8928  0.0935
  751MOL0     C 1293   6.615   6.434   7.564 -0.2090  0.3233 -0.2625
  751MOL0     C 1294   6.702   6.537   7.496 -0.1953  0.0425  0.2883
  751MOL0    Cl 1295   6.663   6.710   7.548 -0.3182  0.3788 -0.0975
  751MOL0     C 1296   7.071   5.577   7.234 -0.0674  0.2971 -0.4063
  751MOL0     C 1297   7.147   5.550   7.121  0.3011  0.0194  0.8233
  751MOL0     O 1298   7.076   5.582   6.787 -0.1280 -0.0685 -0.4318
  751MOL0     C 1299   7.413   5.516   6.718 -0.9594 -0.6153 -0.0213
  751MOL0     C 1300   7.495   5.463   6.619 -0.5872 -0.3493 -0.6904
  751MOL0     N 1301   8.209   5.453   6.335 -0.1704 -0.2034 -0.5327
  751MOL0     N 1302   8.316   5.456   6.415 -0.1442 -0.3316 -0.5060
  751MOL0     C 1303   8.668   6.208   6.276  0.5474 -0.4720  0.2756
  751MOL0     C 1304   8.742   6.208   6.159  0.3450  0.4968 -0.1744
  751MOL0     C 1305   8.975   6.302   5.845 -0.3753  0.3904  1.0223
  751MOL0     C 1306   9.020   6.410   5.759 -0.3908 -0.5214 -0.0249
  751MOL0     C 1307   9.064   6.383   5.634 -0.3869  0.7218 -0.2903
  751MOL0     C 1308   9.063   6.257   5.581 -0.0809  0.5299 -0.1218
  751MOL0     O 1309   9.120   6.235   5.456 -0.1036  0.5892  0.2175
  751MOL0     C 1310   9.263   6.207   5.461 -0.3578 -0.8571  0.3873
  751MOL0     C 1311   9.337   6.336   5.433  0.6494 -0.0785  0.2826
  751MOL0     C 1312   9.489   6.303   5.412  0.5519 -0.1910 -0.0725
  751MOL0     C 1313   9.505   6.258   5.271  0.3251  0.7219 -1.1819
  751MOL0     C 1314   9.635   6.284   5.218  0.1741 -0.8810  0.2029
  751MOL0     C 1315   9.736   6.324   5.169  0.0672  0.8038 -0.6110
  751MOL0     C 1316   9.007   6.151   5.655 -0.0769  0.6323  0.3457
  751MOL0     C 1317   8.961   6.179   5.784 -0.4005  0.6319  0.1192
  751MOL0     H 1318   9.045   6.190   6.320 -0.2025  1.2341 -0.4252
  751MOL0     H 1319   8.925   6.179   6.506  1.6087  4.1391 -0.2545
  751MOL0     H 1320   8.712   6.338   6.572  1.8744 -1.0383  0.4175
  751MOL0     H 1321   8.565   6.290   6.645  1.0677  0.8718 -0.6827
  751MOL0     H 1322   8.823   6.116   6.682 -2.1979  0.1044 -1.9472
  751MOL0     H 1323   8.779   6.237   6.792  0.0425  0.0615 -0.6989
  751MOL0     H 1324   8.718   6.034   6.873 -0.7522 -1.0089  0.9791
  751MOL0     H 1325   8.561   6.097   6.809  0.9527  2.8287 -0.9347
  751MOL0     H 1326   8.553   5.928   6.636  0.7800  0.4782 -0.4688
  751MOL0     H 1327   8.726   5.904   6.649 -0.4706  2.6640 -1.2832
  751MOL0     H 1328   8.668   5.792   6.878 -0.1579 -1.0612 -0.9785
  751MOL0     H 1329   8.501   5.832   6.851  0.3132 -1.0275  1.6425
  751MOL0     H 1330   8.650   5.659   6.655  1.8805  3.8902  1.4310
  751MOL0     H 1331   8.587   5.601   6.812 -1.6793 -1.7266  0.2026
  751MOL0     H 1332   8.358   5.688   6.752  0.3215  0.2432  0.2613
  751MOL0     H 1333   8.407   5.723   6.589 -0.5626  2.6998  0.9271
  751MOL0     H 1334   8.331   5.475   6.748  1.2354  0.1922  1.8507
  751MOL0     H 1335   8.457   5.439   6.639 -0.1833  1.0234  0.3147
  751MOL0     H 1336   8.099   5.593   6.606  2.1272  1.6104  2.0857
  751MOL0     H 1337   7.899   5.539   6.463 -1.2375  2.2946  0.3875
  751MOL0     H 1338   7.960   5.643   6.332  5.0342 -0.3904  1.4820
  751MOL0     H 1339   7.939   5.328   6.296  0.9582 -0.6213 -2.9867
  751MOL0     H 1340   7.956   5.451   6.178 -0.1401 -0.3983 -0.2402
  751MOL0     H 1341   7.722   5.367   6.191  0.3388 -0.3518 -1.6723
  751MOL0     H 1342   7.737   5.538   6.228  1.5301  0.0990 -1.4956
  751MOL0     H 1343   7.700   5.493   6.470  0.6668  0.7528  0.1772
  751MOL0     H 1344   7.723   5.324   6.444 -3.9801 -2.2253 -0.8183
  751MOL0     H 1345   7.286   5.472   6.351 -0.1992  0.5546 -1.0130
  751MOL0     H 1346   7.054   5.661   6.568  1.0064 -1.6006  1.2215
  751MOL0     H 1347   7.103   5.609   6.402 -1.4109  4.6642  1.2507
  751MOL0     H 1348   7.036   5.498   6.528 -0.0577 -0.5315  0.3247
  751MOL0     H 1349   7.120   5.837   6.967  3.4952  1.2547  2.4140
  751MOL0     H 1350   6.987   5.904   7.172  2.6456  1.0911  3.8283
  751MOL0     H 1351   6.992   5.930   7.389  0.5960 -0.3984  0.0553
  751MOL0     H 1352   6.832   5.880   7.326 -0.3089  1.3269 -0.0462
  751MOL0     H 1353   6.765   5.816   7.548  0.8794 -0.4919  1.9093
  751MOL0     H 1354   6.924   5.844   7.619 -0.9618  1.3182  1.7903
  751MOL0     H 1355   6.810   6.071   7.463 -2.4140  1.1627  0.6304
  751MOL0     H 1356   6.897   6.070   7.626 -1.5191  3.4825 -0.8675
  751MOL0     H 1357   6.605   6.003   7.587 -0.0255 -0.2435  1.8262
  751MOL0     H 1358   6.682   5.996   7.735 -0.0432  0.7987  1.3216
  751MOL0     H 1359   6.716   6.219   7.747  1.0595 -4.3949  1.7972
  751MOL0     H 1360   6.548   6.218   7.704 -0.5218 -1.0290 -0.5703
  751MOL0     H 1361   6.771   6.295   7.515  0.2999 -0.1429 -1.7098
  751MOL0     H 1362   6.605   6.245   7.462  1.7398 -1.1415  0.3468
  751MOL0     H 1363   6.586   6.464   7.665 -2.0481  0.9880 -0.9428
  751MOL0     H 1364   6.518   6.442   7.514 -1.4257 -0.3264  1.8372
  751MOL0     H 1365   6.684   6.539   7.388 -0.9371 -0.7099  0.3858
  751MOL0     H 1366   6.807   6.519   7.519 -0.0261  0.9792  0.2796
  751MOL0     H 1367   7.057   5.514   7.321 -4.1495  2.3964  0.7294
  751MOL0     H 1368   7.209   5.462   7.105 -0.8737 -0.6074 -0.5250
  751MOL0     H 1369   7.458   5.521   6.816  1.4048 -2.4175 -0.9451
  751MOL0     H 1370   7.593   5.424   6.646 -0.6386 -0.3695 -0.5361
  751MOL0     H 1371   8.562   6.225   6.260  0.3610 -1.2222  0.6883
  751MOL0     H 1372   8.686   6.226   6.067 -0.3480  0.0169  0.1407
  751MOL0     H 1373   9.035   6.511   5.796 -1.6471 -0.1912 -0.3518
  751MOL0     H 1374   9.133   6.447   5.580 -0.3284  1.2699  0.4211
  751MOL0     H 1375   9.286   6.170   5.561  0.2721  0.9226  0.9331
  751MOL0     H 1376   9.290   6.130   5.387  1.1059 -1.6603  1.7018
  751MOL0     H 1377   9.316   6.408   5.513  0.5903  4.7122 -3.6411
  751MOL0     H 1378   9.289   6.384   5.348 -0.7099 -2.5730 -0.4541
  751MOL0     H 1379   9.528   6.232   5.485 -0.3888 -0.3201  0.3250
  751MOL0     H 1380   9.529   6.402   5.437 -0.7929  0.0116  1.3986
  751MOL0     H 1381   9.426   6.303   5.212 -0.1533  0.1532 -0.9850
  751MOL0     H 1382   9.479   6.152   5.260 -0.7161  0.7671  0.4191
  751MOL0     H 1383   9.825   6.373   5.135 -0.2889 -0.3649 -3.5152
  751MOL0     H 1384   9.007   6.056   5.604  1.0302 -0.4760  2.2736
  751MOL0     H 1385   8.921   6.097   5.843  1.1680 -1.9450 -2.1308
  752MOL0     O 1386   4.107   0.231  10.094 -0.3545  0.4145 -0.3100
  752MOL0     C 1387   4.005   0.236  10.170 -0.0510 -0.1280  0.1092
  752MOL0     O 1388   3.876   0.212  10.132  0.8715 -1.0564 -0.4617
  752MOL0     C 1389   3.848   0.184  10.004 -0.4691  0.3228 -0.0495
  752MOL0     C 1390   3.890   0.063   9.942 -1.0588  0.5114 -1.5861
  752MOL0     C 1391   3.877   0.031   9.810 -0.3778 -0.8648 -0.6587
  752MOL0     C 1392   3.804   0.122   9.726 -0.1982 -0.4453  0.2951
  752MOL0     O 1393   3.782   0.085   9.597 -0.2445 -0.3865 -0.3196
  752MOL0     C 1394   3.656   0.106   9.537 -0.2186 -0.3351  0.1212
  752MOL0     C 1395   3.671   0.068   9.382  0.6112  0.6544 -1.1339
  752MOL0     C 1396   3.542   0.087   9.317  0.9602 -0.2394  0.5808
  752MOL0     C 1397   3.428  -0.014   9.357  0.0337  0.3472 -0.2802
  752MOL0     C 1398   3.297   0.012   9.282 -0.2728 -0.4372 -0.2280
  752MOL0     C 1399   3.187  -0.074   9.346  0.5327  0.2162  0.3393
  752MOL0     C 1400   3.059  -0.091   9.249  0.9098  1.2112 -1.0515
  752MOL0     C 1401   2.990   0.039   9.210  0.0088  0.1046  0.1589
  752MOL0     N 1402   2.887   0.014   9.106  0.4165 -0.6550 -0.3628
  752MOL0     C 1403   2.904  -0.002   8.966  0.5656 -0.3111 -0.3840
  752MOL0     C 1404   2.779  -0.030   8.922 -0.0365 -0.3442  0.4723
  752MOL0     C 1405   2.728  -0.050   8.775 -0.5882 -0.2449  0.9221
  752MOL0     C 1406   2.805   0.042   8.676 -1.1780 -0.3974 -0.4224
  752MOL0     C 1407   2.751   0.188   8.666  1.0906  0.0206 -0.2160
  752MOL0     C 1408   2.728   0.289   8.781 -0.4626  0.3010  0.3149
  752MOL0     O 1409   2.855   0.303   8.843  0.3729 -0.7699  0.0701
  752MOL0     C 1410   2.856   0.348   8.975 -0.8046  0.0708  0.3766
  752MOL0     C 1411   2.761   0.417   9.034  0.2808  0.0710  0.6531
  752MOL0     C 1412   2.769   0.446   9.171  0.9996 -0.0062  1.5347
  752MOL0     C 1413   2.636   0.483   9.221 -0.0682  0.2145 -0.3664
  752MOL0     C 1414   2.884   0.430   9.246 -0.6472  0.3873 -0.2164
  752MOL0     C 1415   2.910   0.464   9.391  0.3780 -0.3696 -0.0862
  752MOL0     O 1416   3.019   0.410   9.454  0.1178 -1.0397 -0.5060
  752MOL0     C 1417   3.049   0.461   9.581 -0.6395 -0.6937 -0.2659
  752MOL0     C 1418   2.972   0.416   9.697 -0.6540 -0.6589 -0.7033
  752MOL0     C 1419   3.000   0.458   9.833  0.8158  0.1316  0.0281
  752MOL0     C 1420   3.116   0.534   9.857  0.4865  1.1593 -0.4760
  752MOL0     O 1421   3.176   0.580   9.980  0.4314  0.6996 -0.6259
  752MOL0     C 1422   3.110   0.539  10.106  0.1367 -0.1199  0.0202
  752MOL0     C 1423   3.166   0.613  10.225  0.1527 -0.0776 -0.1896
  752MOL0     C 1424   3.104   0.572  10.356  0.2707 -0.0082  1.6250
  752MOL0     C 1425   3.183   0.611  10.485 -0.3976  0.0008  1.2511
  752MOL0     C 1426   3.140   0.524  10.599  0.3159  0.2947  0.1815
  752MOL0     C 1427   3.206   0.567  10.725 -0.9243  0.5501 -0.2161
  752MOL0     C 1428   3.201   0.724  10.765  0.4205 -0.2482  0.1787
  752MOL0     C 1429   3.300   0.764  10.883  0.0925 -0.7028 -0.2593
  752MOL0    Cl 1430   3.209   0.713  11.030  0.0561  0.2987  0.1663
  752MOL0     C 1431   3.181   0.587   9.738  0.3884  0.6257 -0.0769
  752MOL0     C 1432   3.154   0.553   9.601  0.4242 -0.9602 -0.0610
  752MOL0     O 1433   2.813   0.512   9.447 -0.5121 -0.1599 -0.1402
  752MOL0     C 1434   2.993   0.358   9.179  0.2671  1.7324  0.5631
  752MOL0     C 1435   2.974   0.319   9.043 -0.2826  0.5563 -0.8778
  752MOL0     N 1436   2.693  -0.052   9.033  0.7101 -0.4992 -0.2032
  752MOL0     N 1437   2.755  -0.006   9.137  0.1876  0.2537  0.1724
  752MOL0     C 1438   3.756   0.238   9.785  0.7857  0.2991  0.7007
  752MOL0     C 1439   3.782   0.272   9.922 -0.9133  0.4927 -0.0090
  752MOL0     C 1440   4.037   0.278  10.313 -0.2466 -0.2287  0.3433
  752MOL0     C 1441   3.965   0.214  10.419  0.3486 -0.2131  0.8402
  752MOL0     C 1442   3.998   0.248  10.550  0.4538 -0.3340  0.7110
  752MOL0     C 1443   4.103   0.326  10.582 -0.5272 -0.5504 -0.7080
  752MOL0     O 1444   4.130   0.344  10.719 -0.4521  0.3736  0.5767
  752MOL0     C 1445   4.188   0.239  10.799  0.2068 -0.3876 -0.9544
  752MOL0     C 1446   4.305   0.165  10.729 -0.3373 -0.7724 -0.8763
  752MOL0     C 1447   4.416   0.265  10.716 -0.6357 -0.5291 -0.0466
  752MOL0     C 1448   4.518   0.279  10.838  0.2855 -0.0405  0.2153
  752MOL0     C 1449   4.527   0.417  10.885  0.8624  1.2473 -0.1085
  752MOL0     C 1450   4.544   0.529  10.931  0.1036  0.3509 -0.2357
  752MOL0     C 1451   4.171   0.395  10.478  0.2956 -0.3969  0.3220
  752MOL0     C 1452   4.134   0.376  10.347 -1.0484 -0.5980  0.3577
  752MOL0     H 1453   3.952  -0.009   9.995  1.2115  1.9582 -2.1166
  752MOL0     H 1454   3.926  -0.061   9.779 -0.1031 -2.0223  2.7887
  752MOL0     H 1455   3.589   0.040   9.592 -0.2984  0.3869  0.9017
  752MOL0     H 1456   3.633   0.212   9.548  0.0110 -0.4591  2.1340
  752MOL0     H 1457   3.747   0.138   9.347 -1.1512  3.3837  0.1448
  752MOL0     H 1458   3.701  -0.037   9.374  1.5963  0.4543  3.1034
  752MOL0     H 1459   3.512   0.192   9.313  1.9887  0.2839 -6.4973
  752MOL0     H 1460   3.564   0.061   9.213 -0.2403 -0.4663  0.3705
  752MOL0     H 1461   3.473  -0.113   9.350  0.6116  0.6498 -1.0111
  752MOL0     H 1462   3.420  -0.000   9.465  3.7227 -0.5122  0.2306
  752MOL0     H 1463   3.271   0.118   9.284 -0.0146 -0.3511 -1.0354
  752MOL0     H 1464   3.321  -0.008   9.177  4.1066  2.3765 -0.0162
  752MOL0     H 1465   3.234  -0.173   9.352  1.3390  0.5657 -0.0077
  752MOL0     H 1466   3.146  -0.064   9.446 -1.7808 -3.1735 -0.1124
  752MOL0     H 1467   3.088  -0.150   9.161  1.6736 -1.4182  0.8604
  752MOL0     H 1468   2.987  -0.155   9.300  3.2309 -1.0915 -0.4384
  752MOL0     H 1469   3.065   0.108   9.169  0.7842 -1.4455 -1.1466
  752MOL0     H 1470   2.941   0.084   9.297  1.7827  0.4108  1.0359
  752MOL0     H 1471   2.986   0.004   8.894  0.2707 -1.3967 -0.8389
  752MOL0     H 1472   2.760  -0.153   8.760  1.2194  0.4820 -0.6173
  752MOL0     H 1473   2.621  -0.046   8.752 -0.2056  0.1499 -0.9199
  752MOL0     H 1474   2.813  -0.012   8.581  0.7086 -0.5643 -0.2124
  752MOL0     H 1475   2.908   0.043   8.714 -1.3723  0.1397  0.1016
  752MOL0     H 1476   2.655   0.177   8.615 -0.2605  1.6134  1.8526
  752MOL0     H 1477   2.808   0.244   8.591  0.2003  3.0933  1.2587
  752MOL0     H 1478   2.666   0.244   8.859 -0.7571 -1.1747 -0.7089
  752MOL0     H 1479   2.702   0.385   8.735 -0.2480 -0.0078 -0.4729
  752MOL0     H 1480   2.678   0.459   8.977  2.1915  1.2914 -1.4297
  752MOL0     H 1481   2.582   0.549   9.153 -0.9219  0.3058  0.3741
  752MOL0     H 1482   2.583   0.388   9.235  1.3746 -0.5303  0.2506
  752MOL0     H 1483   2.626   0.541   9.314 -3.3313 -1.7812  0.7157
  752MOL0     H 1484   2.889   0.351   9.673 -0.7640 -0.6095 -0.4594
  752MOL0     H 1485   2.929   0.420   9.907  1.7843 -1.7146  0.0615
  752MOL0     H 1486   3.003   0.557  10.092 -0.0610  0.2622  1.7903
  752MOL0     H 1487   3.107   0.435  10.138 -0.4372 -0.2840 -0.5411
  752MOL0     H 1488   3.273   0.594  10.225  0.4269  1.2542  1.3544
  752MOL0     H 1489   3.146   0.719  10.204 -1.2225 -0.5593 -1.5171
  752MOL0     H 1490   3.099   0.463  10.356  2.2494 -0.2219 -1.2083
  752MOL0     H 1491   3.002   0.610  10.366  0.0245 -0.6942  1.7968
  752MOL0     H 1492   3.290   0.608  10.462 -0.2055  0.9505  1.9538
  752MOL0     H 1493   3.155   0.716  10.499 -4.5259 -0.7165 -0.0297
  752MOL0     H 1494   3.166   0.424  10.564  0.6967  0.4179  0.1138
  752MOL0     H 1495   3.031   0.529  10.606  0.4243  0.7937  1.9093
  752MOL0     H 1496   3.177   0.500  10.806  1.0631  0.3152  0.3344
  752MOL0     H 1497   3.311   0.540  10.714 -1.4616 -1.4375 -0.9171
  752MOL0     H 1498   3.103   0.759  10.798 -0.3445 -0.8843 -1.3121
  752MOL0     H 1499   3.226   0.786  10.679  0.0261 -0.0765  0.1841
  752MOL0     H 1500   3.323   0.870  10.898  4.9961 -1.4584 -0.7780
  752MOL0     H 1501   3.396   0.713  10.874 -0.4274 -1.5273 -1.3620
  752MOL0     H 1502   3.248   0.670   9.758 -1.2358  1.9535  0.0413
  752MOL0     H 1503   3.196   0.605   9.515  1.2513  2.7308  2.3115
  752MOL0     H 1504   3.081   0.335   9.239  0.0411 -1.1003 -0.0866
  752MOL0     H 1505   3.057   0.265   8.999 -0.4927  1.3847 -2.3430
  752MOL0     H 1506   3.706   0.306   9.717  1.4958 -1.5229 -1.7507
  752MOL0     H 1507   3.745   0.361   9.971  0.7128  0.3863  1.5324
  752MOL0     H 1508   3.879   0.149  10.408 -0.5371  0.1761  4.2344
  752MOL0     H 1509   3.944   0.214  10.638  0.3604 -3.1358 -0.3061
  752MOL0     H 1510   4.217   0.283  10.894 -1.5960 -2.1894  0.5159
  752MOL0     H 1511   4.120   0.155  10.816  0.7472 -0.6843 -0.1978
  752MOL0     H 1512   4.277   0.123  10.632  0.6349 -0.5994 -1.2457
  752MOL0     H 1513   4.350   0.079  10.779 -0.7213  0.6868  2.2888
  752MOL0     H 1514   4.369   0.362  10.696  0.8971  0.6277  1.5974
  752MOL0     H 1515   4.469   0.239  10.624 -0.7130 -0.8326 -0.0045
  752MOL0     H 1516   4.615   0.245  10.800 -1.2460 -3.2777 -1.2207
  752MOL0     H 1517   4.493   0.213  10.921  0.6019  1.6612  1.7122
  752MOL0     H 1518   4.568   0.628  10.964  0.9031  0.2929 -0.6024
  752MOL0     H 1519   4.236   0.475  10.510 -0.4283 -1.1816  4.2411
  752MOL0     H 1520   4.184   0.430  10.268  0.1304 -2.0007  0.0971
  753MOL0     O 1521   9.791  11.032   0.096  0.3383 -0.5245 -0.3751
  753MOL0     C 1522   9.798  11.160   0.096 -0.5897  0.5713  0.0815
  753MOL0     O 1523   9.788  11.246   0.209 -0.3300 -0.4765 -0.1066
  753MOL0     C 1524   9.764  11.199   0.336 -0.6575 -0.3572 -0.5287
  753MOL0     C 1525   9.657  11.251   0.412 -0.0116  0.2062  1.1098
  753MOL0     C 1526   9.601  11.176   0.517  0.2727 -0.0152 -0.4899
  753MOL0     C 1527   9.645  11.053   0.553  0.1043 -0.6820  0.0815
  753MOL0     O 1528   9.590  10.976   0.649  0.0601 -0.1327 -0.8295
  753MOL0     C 1529   9.496  11.039   0.739 -0.0464  0.6235 -0.7013
  753MOL0     C 1530   9.478  10.948   0.858  1.0470  0.2182  0.0837
  753MOL0     C 1531   9.608  10.909   0.941  0.4643 -1.1780  0.4627
  753MOL0     C 1532   9.565  10.797   1.036 -0.0860 -0.2109 -0.3272
  753MOL0     C 1533   9.693  10.756   1.127  0.0148 -0.8462  0.1254
  753MOL0     C 1534   9.672  10.642   1.230 -0.2427  0.2254 -1.1737
  753MOL0     C 1535   9.808  10.597   1.280  0.8772 -0.6970  0.0529
  753MOL0     C 1536   9.792  10.524   1.409  0.2936 -0.6024 -0.2457
  753MOL0     N 1537   9.910  10.451   1.454 -0.0550  0.2452  0.6568
  753MOL0     C 1538  10.015  10.508   1.524 -1.6888 -0.3497  0.5510
  753MOL0     C 1539  10.098  10.409   1.556 -0.0162 -0.3003 -0.1880
  753MOL0     C 1540  10.231  10.425   1.623 -0.3832 -0.0695  0.5480
  753MOL0     C 1541  10.219  10.468   1.776 -0.0939 -0.4644  0.0478
  753MOL0     C 1542  10.144  10.353   1.852  0.9196  0.0273  0.0286
  753MOL0     C 1543  10.107  10.401   1.991  0.6470 -0.1373 -0.2479
  753MOL0     O 1544   9.976  10.463   1.986  0.3393 -0.4877 -0.2155
  753MOL0     C 1545   9.861  10.393   1.995  0.1392  0.5651  0.0172
  753MOL0     C 1546   9.863  10.284   2.090 -0.2981 -0.2219 -0.8314
  753MOL0     C 1547   9.740  10.230   2.127  0.0127  0.8422 -0.6452
  753MOL0     C 1548   9.742  10.123   2.228  0.3620  0.6290 -0.1623
  753MOL0     C 1549   9.619  10.275   2.056 -0.1153  1.0367 -0.3202
  753MOL0     C 1550   9.490  10.213   2.058  0.5239  0.6611 -0.5337
  753MOL0     O 1551   9.383  10.281   2.011  0.1597 -0.3555 -0.5251
  753MOL0     C 1552   9.276  10.197   1.973  0.0343  0.1807 -0.2680
  753MOL0     C 1553   9.154  10.210   2.041  0.1487 -0.0402  0.1697
  753MOL0     C 1554   9.049  10.116   2.024  0.0414 -1.0230  0.0181
  753MOL0     C 1555   9.056  10.003   1.942 -0.6838  0.4513 -0.3270
  753MOL0     O 1556   8.958   9.894   1.939 -0.4584  0.6387 -0.0950
  753MOL0     C 1557   8.989   9.763   1.880  1.0312  0.5483 -0.4849
  753MOL0     C 1558   9.099   9.696   1.957 -0.5257  0.3299 -1.0480
  753MOL0     C 1559   9.094   9.551   1.899  0.0970 -0.2476 -0.2485
  753MOL0     C 1560   9.175   9.450   1.979  0.6141 -0.4466 -0.0973
  753MOL0     C 1561   9.185   9.309   1.915  0.6206  0.7146  0.1843
  753MOL0     C 1562   9.042   9.250   1.864 -0.4270  0.0805 -0.2213
  753MOL0     C 1563   9.075   9.122   1.772  0.4190  0.1466  0.5017
  753MOL0     C 1564   9.116   9.150   1.628 -0.7360 -0.6504 -0.1131
  753MOL0    Cl 1565   9.162   8.994   1.554  0.3785  0.2334  0.2558
  753MOL0     C 1566   9.174   9.991   1.862 -0.3809  0.0663 -0.1327
  753MOL0     C 1567   9.276  10.091   1.886  0.0344 -0.7651  0.0645
  753MOL0     O 1568   9.484  10.101   2.097 -0.0648 -0.2912 -0.4766
  753MOL0     C 1569   9.627  10.385   1.967 -0.3321 -0.3395 -0.1662
  753MOL0     C 1570   9.750  10.442   1.935 -0.4093 -0.3865  0.1881
  753MOL0     N 1571  10.047  10.298   1.497  0.2996  0.1870  0.4263
  753MOL0     N 1572   9.931  10.317   1.450  0.0034 -0.1586 -0.5013
  753MOL0     C 1573   9.760  11.003   0.488 -1.1921 -0.6971 -0.5015
  753MOL0     C 1574   9.821  11.079   0.384 -1.1322 -0.1953  0.2984
  753MOL0     C 1575   9.811  11.214  -0.040 -0.1954 -0.8775  0.1872
  753MOL0     C 1576   9.779  11.143  -0.154 -0.1779 -0.3855  0.6381
  753MOL0     C 1577   9.784  11.202  -0.278  0.3791  1.1399 -0.1995
  753MOL0     C 1578   9.844  11.324  -0.301 -0.1274 -0.0642 -0.1631
  753MOL0     O 1579   9.846  11.392  -0.419 -0.9086  0.2369  0.0846
  753MOL0     C 1580   9.896  11.322  -0.538 -0.2592  0.3915 -1.0361
  753MOL0     C 1581   9.937  11.430  -0.643  0.3691 -1.2726  0.4102
  753MOL0     C 1582   9.823  11.507  -0.702  0.0937 -0.1906  0.3754
  753MOL0     C 1583   9.883  11.597  -0.815 -0.3776  0.7749  0.1796
  753MOL0     C 1584   9.826  11.729  -0.807  0.1289 -0.2926 -0.2180
  753MOL0     C 1585   9.800  11.846  -0.820  0.0302 -1.2002  0.5093
  753MOL0     C 1586   9.885  11.400  -0.182  0.1307  0.4853  0.6565
  753MOL0     C 1587   9.866  11.347  -0.048 -0.6746 -0.1962 -0.3098
  753MOL0     H 1588   9.615  11.335   0.357 -0.3881 -0.2390  0.7076
  753MOL0     H 1589   9.513  11.221   0.562 -1.3658 -1.6449 -1.8775
  753MOL0     H 1590   9.530  11.141   0.761 -0.7188  0.5573  0.7374
  753MOL0     H 1591   9.397  11.046   0.693 -2.4978 -0.7555  3.8034
  753MOL0     H 1592   9.394  10.981   0.920 -0.6424 -2.0253 -0.8632
  753MOL0     H 1593   9.430  10.865   0.805 -0.8308  1.6495 -0.5371
  753MOL0     H 1594   9.698  10.879   0.885  2.4431 -0.8546  3.2582
  753MOL0     H 1595   9.660  10.985   1.001  4.3209  0.4066 -4.2181
  753MOL0     H 1596   9.485  10.846   1.092  0.3405  0.9935 -0.7295
  753MOL0     H 1597   9.522  10.714   0.980 -1.8861 -0.6782  1.6224
  753MOL0     H 1598   9.786  10.735   1.075  0.2943 -2.1509  1.0872
  753MOL0     H 1599   9.724  10.848   1.177 -1.6322 -0.0449 -0.2297
  753MOL0     H 1600   9.609  10.682   1.310 -2.4591  2.4401 -3.8155
  753MOL0     H 1601   9.631  10.558   1.174 -0.6488 -1.2305  1.1588
  753MOL0     H 1602   9.856  10.528   1.211  1.2936  0.2844 -0.6631
  753MOL0     H 1603   9.870  10.685   1.296 -1.9665  1.7186 -1.1921
  753MOL0     H 1604   9.704  10.459   1.396  0.0991 -0.7375  1.5237
  753MOL0     H 1605   9.780  10.600   1.487 -0.2432  1.0758 -1.8797
  753MOL0     H 1606  10.037  10.611   1.550  1.7278 -0.8691  0.2141
  753MOL0     H 1607  10.283  10.331   1.606  0.7444  0.7419 -0.6512
  753MOL0     H 1608  10.293  10.488   1.559 -0.4351 -2.6830 -2.2672
  753MOL0     H 1609  10.154  10.555   1.785 -0.4754 -0.2005 -3.7773
  753MOL0     H 1610  10.316  10.487   1.824 -0.5184  1.6874  0.1561
  753MOL0     H 1611  10.214  10.270   1.865  2.1287  1.0366  0.2150
  753MOL0     H 1612  10.055  10.328   1.794 -0.1086  1.4189  0.9383
  753MOL0     H 1613  10.177  10.476   2.029 -0.9369  0.9426  0.6829
  753MOL0     H 1614  10.122  10.314   2.056  1.4200 -1.0350 -1.5740
  753MOL0     H 1615   9.957  10.248   2.132 -0.5521  0.2862  0.2020
  753MOL0     H 1616   9.845  10.102   2.258 -0.0183 -0.7012  0.2750
  753MOL0     H 1617   9.675  10.134   2.313  2.4830  1.5732  1.4661
  753MOL0     H 1618   9.723  10.027   2.178  0.4912  0.9576 -0.8680
  753MOL0     H 1619   9.162  10.284   2.120  2.1187 -0.3732  0.3279
  753MOL0     H 1620   8.959  10.127   2.083  0.9951 -2.3130  1.8097
  753MOL0     H 1621   8.894   9.709   1.880  0.8845  0.7328  1.4348
  753MOL0     H 1622   9.014   9.774   1.774  1.4243 -0.7535 -0.5420
  753MOL0     H 1623   9.195   9.744   1.937  2.2054 -3.7685  0.8350
  753MOL0     H 1624   9.077   9.702   2.064 -0.8916  3.5795 -1.2164
  753MOL0     H 1625   9.145   9.561   1.803 -0.1696  2.3408 -0.1952
  753MOL0     H 1626   8.988   9.525   1.904  0.3482 -1.0678  1.3261
  753MOL0     H 1627   9.273   9.497   1.990 -1.5427  4.2269  1.8590
  753MOL0     H 1628   9.138   9.421   2.078  3.1119 -4.7671 -0.1922
  753MOL0     H 1629   9.248   9.244   1.976  0.2302 -0.6728 -0.8431
  753MOL0     H 1630   9.246   9.312   1.824  0.5573  2.1480  0.1542
  753MOL0     H 1631   8.984   9.233   1.955  0.2433  0.7178  0.3352
  753MOL0     H 1632   8.980   9.320   1.808 -4.4078 -1.2215  2.1978
  753MOL0     H 1633   8.990   9.054   1.764 -0.1390  0.8073  0.7024
  753MOL0     H 1634   9.153   9.064   1.821  0.3077  1.9444  3.0034
  753MOL0     H 1635   9.203   9.215   1.619  0.6536 -2.2662  1.0035
  753MOL0     H 1636   9.035   9.199   1.574  1.0824  1.8954 -0.7067
  753MOL0     H 1637   9.185   9.912   1.789 -1.8714  0.6538 -1.0417
  753MOL0     H 1638   9.360  10.093   1.817 -1.5779 -0.9653 -2.0465
  753MOL0     H 1639   9.546  10.423   1.905  1.0450 -0.2905 -2.0132
  753MOL0     H 1640   9.747  10.528   1.869  0.8143 -1.0554 -0.7958
  753MOL0     H 1641   9.809  10.909   0.515  1.6234  1.0948  1.1836
  753MOL0     H 1642   9.897  11.025   0.329 -0.1297 -0.3998  1.8387
  753MOL0     H 1643   9.729  11.047  -0.150 -2.9439  0.9580  1.0276
  753MOL0     H 1644   9.746  11.147  -0.364 -2.0155  2.1010  0.1570
  753MOL0     H 1645   9.992  11.272  -0.520  0.2231  0.1325 -3.9153
  753MOL0     H 1646   9.834  11.241  -0.578 -0.8278  2.0462 -3.7834
  753MOL0     H 1647  10.006  11.397  -0.721 -0.6996 -0.2614 -1.0069
  753MOL0     H 1648   9.994  11.511  -0.597 -0.1971  0.2835 -1.4788
  753MOL0     H 1649   9.767  11.559  -0.624  3.3193  3.1733  0.6890
  753MOL0     H 1650   9.760  11.438  -0.759 -0.1233 -0.2127  0.6402
  753MOL0     H 1651   9.859  11.565  -0.917 -3.6903  0.6550  0.8624
  753MOL0     H 1652   9.991  11.606  -0.801 -0.4193 -1.2073  2.2706
  753MOL0     H 1653   9.785  11.951  -0.811 -2.6459 -1.5630  1.0183
  753MOL0     H 1654   9.922  11.501  -0.198  3.0868 -0.6844 -0.6000
  753MOL0     H 1655   9.882  11.405   0.043 -0.0395 -1.6676  0.5420
  754MOL0     O 1656  11.094   3.621   2.768  0.3278  0.0985 -0.6215
  754MOL0     C 1657  11.036   3.514   2.750 -1.6120  0.2870 -0.2414
  754MOL0     O 1658  11.102   3.403   2.701 -0.0523 -0.1792  0.1980
  754MOL0     C 1659  11.241   3.419   2.681  0.6076  0.0994 -0.3669
  754MOL0     C 1660  11.336   3.456   2.779  0.2280 -0.4327  0.0904
  754MOL0     C 1661  11.468   3.460   2.744  0.2791  0.5111 -0.4085
  754MOL0     C 1662  11.513   3.434   2.612 -0.5250 -0.0614 -0.9582
  754MOL0     O 1663  11.646   3.455   2.573 -0.7125 -0.7259  0.6430
  754MOL0     C 1664  11.733   3.549   2.635  0.0143 -0.3035 -0.3751
  754MOL0     C 1665  11.855   3.606   2.566 -0.4904  0.0553  0.5851
  754MOL0     C 1666  11.965   3.504   2.534 -0.0866 -0.6417  0.2518
  754MOL0     C 1667  11.918   3.395   2.440  0.3560  0.7216 -0.9657
  754MOL0     C 1668  11.914   3.251   2.482  0.2938 -0.0214  0.0497
  754MOL0     C 1669  11.783   3.196   2.541 -1.0351  0.2712  0.1897
  754MOL0     C 1670  11.796   3.043   2.583  0.1297 -0.4687 -0.4986
  754MOL0     C 1671  11.755   2.937   2.482 -0.2899 -0.3239 -0.2150
  754MOL0     N 1672  11.776   2.803   2.545  0.3326  0.2195  0.0605
  754MOL0     C 1673  11.687   2.756   2.638  1.7683  0.4032  0.2984
  754MOL0     C 1674  11.726   2.621   2.646 -0.0490 -0.1948  0.5046
  754MOL0     C 1675  11.660   2.504   2.715 -0.8518 -1.2027  0.9933
  754MOL0     C 1676  11.552   2.456   2.618 -0.9424  0.6629  0.6080
  754MOL0     C 1677  11.591   2.388   2.484 -0.0242 -0.8245 -1.0236
  754MOL0     C 1678  11.463   2.323   2.426 -0.1086  0.4296  0.0203
  754MOL0     O 1679  11.423   2.394   2.315  0.4067 -0.4944  0.7584
  754MOL0     C 1680  11.351   2.328   2.212  0.4515  0.5888 -0.0591
  754MOL0     C 1681  11.324   2.386   2.089 -0.8910 -0.1996 -0.7739
  754MOL0     C 1682  11.261   2.319   1.977  0.0481 -0.1211 -1.2096
  754MOL0     C 1683  11.230   2.403   1.858  0.0435 -0.3273  0.1875
  754MOL0     C 1684  11.228   2.179   1.987 -0.1702  0.7538  0.0144
  754MOL0     C 1685  11.167   2.082   1.886  0.1965  0.0035 -0.7367
  754MOL0     O 1686  11.149   1.954   1.931 -0.3295 -0.3201 -0.5218
  754MOL0     C 1687  11.094   1.847   1.863  0.4880 -0.6162  0.1799
  754MOL0     C 1688  11.089   1.828   1.728 -0.0315 -0.0838 -0.2333
  754MOL0     C 1689  11.037   1.714   1.670 -0.6593  0.2021  0.5060
  754MOL0     C 1690  10.979   1.609   1.747  0.4265  0.3216  0.6726
  754MOL0     O 1691  10.917   1.503   1.686  0.1297 -0.0884 -0.2534
  754MOL0     C 1692  10.904   1.376   1.755  0.9987 -0.1281  0.4764
  754MOL0     C 1693  10.874   1.282   1.638 -0.6662 -0.6918 -0.8963
  754MOL0     C 1694  10.881   1.137   1.689  0.5434  0.5352  0.6707
  754MOL0     C 1695  10.894   1.037   1.568  0.0169 -0.4657  0.0925
  754MOL0     C 1696  10.882   0.889   1.608  0.0233 -0.1720  0.4985
  754MOL0     C 1697  10.923   0.795   1.486  0.0897 -0.2100  0.4823
  754MOL0     C 1698  11.066   0.801   1.432  0.6055 -0.1697 -0.5212
  754MOL0     C 1699  11.090   0.696   1.333 -0.4511 -0.0844 -0.2264
  754MOL0    Cl 1700  11.253   0.669   1.292  0.4849 -0.5489  0.6025
  754MOL0     C 1701  10.975   1.628   1.887  0.0376  0.9697  0.2770
  754MOL0     C 1702  11.034   1.742   1.938 -0.2344 -0.0341  1.0283
  754MOL0     O 1703  11.135   2.122   1.775 -0.0474  0.2404  0.1392
  754MOL0     C 1704  11.268   2.119   2.112  0.0781  0.4428 -0.2130
  754MOL0     C 1705  11.318   2.188   2.220 -0.4948 -0.2046 -0.1742
  754MOL0     N 1706  11.843   2.615   2.582 -0.1468 -0.2653  0.1339
  754MOL0     N 1707  11.888   2.720   2.530  0.1208  0.6015  0.2531
  754MOL0     C 1708  11.419   3.392   2.520 -0.2949 -0.6577  0.2404
  754MOL0     C 1709  11.286   3.384   2.555 -0.5303 -0.2488  0.3446
  754MOL0     C 1710  10.892   3.506   2.769 -0.5811  0.4902 -0.1950
  754MOL0     C 1711  10.819   3.384   2.789 -0.9316 -0.4002 -0.3540
  754MOL0     C 1712  10.679   3.389   2.812 -0.7002  0.6794 -0.5778
  754MOL0     C 1713  10.605   3.507   2.821 -0.4703 -0.4147  1.1203
  754MOL0     O 1714  10.470   3.502   2.812 -0.8310 -0.3788  0.6934
  754MOL0     C 1715  10.400   3.616   2.765 -0.3124  0.3063  0.8911
  754MOL0     C 1716  10.266   3.588   2.713  0.0225 -0.9577 -0.0296
  754MOL0     C 1717  10.154   3.533   2.811 -0.0267  0.3025  0.5875
  754MOL0     C 1718  10.023   3.532   2.742  0.7855  0.3405 -1.0356
  754MOL0     C 1719   9.926   3.456   2.833 -0.2432 -0.7476 -1.0401
  754MOL0     C 1720   9.845   3.380   2.884  0.4543 -0.3608  0.3768
  754MOL0     C 1721  10.680   3.630   2.833  0.7967  0.0642 -0.2669
  754MOL0     C 1722  10.816   3.623   2.789  0.1332  0.8143  0.0266
  754MOL0     H 1723  11.300   3.468   2.881  0.8673  2.8190  0.0393
  754MOL0     H 1724  11.535   3.487   2.825  0.9463 -0.9429 -0.4323
  754MOL0     H 1725  11.679   3.638   2.668  1.6488  0.6068 -0.0149
  754MOL0     H 1726  11.761   3.510   2.734 -2.3948 -0.4493  0.2997
  754MOL0     H 1727  11.834   3.642   2.465 -2.2429 -2.2203  0.0529
  754MOL0     H 1728  11.896   3.688   2.626  0.6700 -0.4352  0.4775
  754MOL0     H 1729  12.052   3.553   2.487  1.3940 -1.8644  1.6057
  754MOL0     H 1730  12.000   3.469   2.631  1.2352  2.4668  1.0201
  754MOL0     H 1731  11.817   3.418   2.404  0.8336  1.2275 -2.0229
  754MOL0     H 1732  11.991   3.398   2.359  2.0722  0.1119  0.5081
  754MOL0     H 1733  11.949   3.189   2.399  0.0905  1.9502 -1.6030
  754MOL0     H 1734  11.988   3.227   2.559  0.7539 -3.0633 -1.1919
  754MOL0     H 1735  11.772   3.246   2.637  1.1262 -1.0654  1.2077
  754MOL0     H 1736  11.699   3.216   2.473  0.6624  3.8058 -1.1462
  754MOL0     H 1737  11.896   3.013   2.614 -0.0612 -0.3325  0.2667
  754MOL0     H 1738  11.735   3.035   2.674  1.6808 -1.0599  0.5279
  754MOL0     H 1739  11.819   2.941   2.394  0.3646 -0.2340  0.2574
  754MOL0     H 1740  11.652   2.958   2.451  0.2829 -0.1442 -2.1108
  754MOL0     H 1741  11.603   2.808   2.683 -0.1615 -2.2333  0.0234
  754MOL0     H 1742  11.739   2.434   2.744 -1.8044 -1.6103  2.7760
  754MOL0     H 1743  11.615   2.532   2.811  4.6237  0.7969  3.3945
  754MOL0     H 1744  11.493   2.544   2.592  1.6346  1.8784 -1.6542
  754MOL0     H 1745  11.496   2.378   2.670  0.9812 -2.7434 -2.0192
  754MOL0     H 1746  11.671   2.317   2.505 -0.2117 -0.3608  1.5925
  754MOL0     H 1747  11.625   2.467   2.415  0.3031  0.5827  0.6561
  754MOL0     H 1748  11.379   2.321   2.496 -1.3916  0.0008 -1.4713
  754MOL0     H 1749  11.493   2.223   2.393  2.5598  0.3123  2.4053
  754MOL0     H 1750  11.343   2.493   2.091 -1.3687 -0.0993  1.6489
  754MOL0     H 1751  11.161   2.359   1.786 -0.5411 -0.1397  0.6311
  754MOL0     H 1752  11.190   2.501   1.883 -1.4215 -0.9881  0.5102
  754MOL0     H 1753  11.320   2.422   1.798  1.5675  3.0944  3.1837
  754MOL0     H 1754  11.130   1.911   1.671  0.6712  1.3755  2.2442
  754MOL0     H 1755  11.021   1.706   1.563 -1.1761  1.7551  0.4418
  754MOL0     H 1756  11.001   1.342   1.792  0.6847 -2.0474 -0.3139
  754MOL0     H 1757  10.836   1.385   1.840  2.0665  3.6561  1.0950
  754MOL0     H 1758  10.769   1.293   1.606 -2.1576 -1.9546  2.9673
  754MOL0     H 1759  10.949   1.295   1.560  0.5598  1.8746  0.5797
  754MOL0     H 1760  10.795   1.113   1.752  0.7322 -0.5786  0.5161
  754MOL0     H 1761  10.969   1.113   1.750  1.9345 -2.1483 -2.1399
  754MOL0     H 1762  10.827   1.072   1.490  1.5853 -1.4990 -1.8065
  754MOL0     H 1763  10.991   1.053   1.519 -0.9350  0.8464 -1.4737
  754MOL0     H 1764  10.779   0.863   1.636  0.6632 -0.4835  2.7829
  754MOL0     H 1765  10.945   0.854   1.690 -0.4106 -0.7140  0.6088
  754MOL0     H 1766  10.896   0.693   1.514  0.4636  0.1375  2.2306
  754MOL0     H 1767  10.858   0.819   1.401 -1.5066  0.0728  1.7210
  754MOL0     H 1768  11.131   0.786   1.520 -0.7310  1.3458  0.7976
  754MOL0     H 1769  11.078   0.900   1.388 -0.9083  0.5675  0.6404
  754MOL0     H 1770  11.042   0.730   1.241 -0.3153  0.6594 -0.0347
  754MOL0     H 1771  11.047   0.603   1.371  2.1458 -0.3372  2.5427
  754MOL0     H 1772  10.936   1.554   1.956 -2.1477  1.0827 -0.7535
  754MOL0     H 1773  11.039   1.737   2.046 -0.7646 -1.5520  1.0070
  754MOL0     H 1774  11.252   2.014   2.134  1.5969  0.1591 -0.3553
  754MOL0     H 1775  11.338   2.150   2.320  0.8740  3.7599  1.2395
  754MOL0     H 1776  11.443   3.362   2.419 -4.0392  0.2483 -1.0566
  754MOL0     H 1777  11.223   3.369   2.468 -0.0047 -0.4971  0.0026
  754MOL0     H 1778  10.870   3.289   2.778  1.9573  1.0921 -0.8228
  754MOL0     H 1779  10.629   3.293   2.811  1.0605 -0.2683 -1.1644
  754MOL0     H 1780  10.392   3.691   2.844 -1.3268  1.4011 -0.2008
  754MOL0     H 1781  10.459   3.652   2.680 -1.7777 -1.0699 -0.7952
  754MOL0     H 1782  10.269   3.526   2.623 -0.9692  0.5087 -1.1217
  754MOL0     H 1783  10.229   3.683   2.673  2.6415  1.9765  3.7464
  754MOL0     H 1784  10.146   3.594   2.902  0.0113 -0.1811  0.9179
  754MOL0     H 1785  10.176   3.428   2.833 -2.6533 -0.5527 -0.4564
  754MOL0     H 1786  10.033   3.485   2.644  1.6551 -3.9411  0.8672
  754MOL0     H 1787   9.986   3.633   2.720  2.7206  0.4074 -4.6461
  754MOL0     H 1788   9.792   3.307   2.943 -0.9188 -0.4377 -0.9069
  754MOL0     H 1789  10.628   3.722   2.856 -0.5898 -1.1029  1.5905
  754MOL0     H 1790  10.880   3.710   2.799  0.8146  0.1603  1.8742
  755MOL0     O 1791   2.958  10.899   2.578 -0.6793 -0.4053 -0.3527
  755MOL0     C 1792   3.064  10.858   2.527  0.1163  0.1609  0.1379
  755MOL0     O 1793   3.175  10.935   2.489  0.7468  0.1193 -0.2027
  755MOL0     C 1794   3.177  11.076   2.505 -0.9758 -0.0847 -1.0998
  755MOL0     C 1795   3.105  11.166   2.422  0.2473  0.9369 -0.5601
  755MOL0     C 1796   3.110  11.305   2.445  0.1430  0.5837 -0.1161
  755MOL0     C 1797   3.216  11.353   2.520  0.5362 -0.4165 -0.2246
  755MOL0     O 1798   3.240  11.490   2.507  0.2784  0.0492 -0.0315
  755MOL0     C 1799   3.375  11.523   2.546 -0.2672 -0.3150 -0.0192
  755MOL0     C 1800   3.401  11.667   2.505  0.3156 -0.9625  0.1778
  755MOL0     C 1801   3.538  11.719   2.578  0.5693  0.5123  0.4806
  755MOL0     C 1802   3.559  11.859   2.515 -0.3792  0.0724 -0.0559
  755MOL0     C 1803   3.697  11.911   2.561 -0.0619 -0.0752 -0.4576
  755MOL0     C 1804   3.735  12.034   2.486  0.3837  0.2720 -0.6153
  755MOL0     C 1805   3.875  12.082   2.529  0.8155 -0.4455  0.8885
  755MOL0     C 1806   4.004  12.018   2.463  0.3813  0.7160 -0.2639
  755MOL0     N 1807   3.998  11.868   2.474 -1.2456  0.6646 -0.2638
  755MOL0     C 1808   3.974  11.775   2.373 -0.8063 -0.2689 -0.2895
  755MOL0     C 1809   3.959  11.658   2.440 -0.4066  0.7007 -0.2698
  755MOL0     C 1810   3.899  11.529   2.377  0.1034 -0.5138 -0.2918
  755MOL0     C 1811   3.982  11.480   2.253 -0.2416 -0.0565  0.7061
  755MOL0     C 1812   4.132  11.442   2.291 -0.1704 -0.2197 -0.4079
  755MOL0     C 1813   4.138  11.329   2.402 -0.2482  0.3672  0.3947
  755MOL0     O 1814   4.281  11.318   2.441  0.5195  0.1778 -0.6418
  755MOL0     C 1815   4.337  11.364   2.561 -0.1377  0.1753  1.5157
  755MOL0     C 1816   4.445  11.298   2.617  0.1175  0.8178  0.9477
  755MOL0     C 1817   4.509  11.341   2.738 -0.3062  0.9759  0.0349
  755MOL0     C 1818   4.640  11.255   2.770  0.7168 -0.4923  0.2691
  755MOL0     C 1819   4.456  11.458   2.807 -0.7164  1.5786 -0.4329
  755MOL0     C 1820   4.511  11.514   2.933 -0.9261  0.6911  0.2126
  755MOL0     O 1821   4.462  11.636   2.968 -0.7758  0.1872  0.5754
  755MOL0     C 1822   4.468  11.686   3.098  0.7876 -0.3662 -0.4021
  755MOL0     C 1823   4.440  11.823   3.102 -0.1834  1.5715  0.6605
  755MOL0     C 1824   4.427  11.889   3.220 -0.1397 -0.2592  0.5390
  755MOL0     C 1825   4.469  11.833   3.338 -0.1906  0.5729 -0.6493
  755MOL0     O 1826   4.456  11.908   3.460  0.0547 -0.0432  0.1994
  755MOL0     C 1827   4.574  11.899   3.541  0.1277 -0.2471 -0.3086
  755MOL0     C 1828   4.632  12.039   3.576  0.5064 -0.1647  0.7283
  755MOL0     C 1829   4.552  12.107   3.687 -0.2033  1.1058  0.0274
  755MOL0     C 1830   4.560  12.053   3.823 -0.4491  0.0692 -0.4353
  755MOL0     C 1831   4.445  12.120   3.902  0.7916 -0.3648  0.9170
  755MOL0     C 1832   4.461  12.073   4.045  0.1197 -0.2179  0.2188
  755MOL0     C 1833   4.464  11.924   4.067  0.3233  0.4468  0.3664
  755MOL0     C 1834   4.420  11.868   4.203 -0.2532 -0.0298  0.2959
  755MOL0    Cl 1835   4.263  11.942   4.251 -0.0080  0.4280  0.4715
  755MOL0     C 1836   4.499  11.692   3.340 -0.6975  0.2391  0.0846
  755MOL0     C 1837   4.497  11.618   3.218  0.6251 -0.8042 -0.2685
  755MOL0     O 1838   4.594  11.447   2.995  0.0561 -0.6260  0.0430
  755MOL0     C 1839   4.341  11.516   2.748  0.0799  0.3040 -0.0193
  755MOL0     C 1840   4.282  11.477   2.633  0.3209  0.4817  0.6851
  755MOL0     N 1841   3.999  11.672   2.567  0.4308 -0.1380 -0.5698
  755MOL0     N 1842   4.034  11.799   2.589 -0.4321  0.3908 -0.2982
  755MOL0     C 1843   3.297  11.258   2.591 -0.5802 -0.9164 -0.2787
  755MOL0     C 1844   3.274  11.125   2.594 -0.2074  0.5540  0.5050
  755MOL0     C 1845   3.085  10.716   2.528 -0.1232  0.7236  0.3107
  755MOL0     C 1846   3.210  10.648   2.548 -0.0356 -0.2695 -0.2393
  755MOL0     C 1847   3.218  10.513   2.537  0.1708  0.5735  0.2978
  755MOL0     C 1848   3.118  10.434   2.482  1.1297 -0.6469 -0.7338
  755MOL0     O 1849   3.120  10.299   2.452  0.1398 -0.2250  0.4644
  755MOL0     C 1850   3.256  10.238   2.460 -0.6236  0.2829 -1.0862
  755MOL0     C 1851   3.301  10.219   2.598  0.2351  0.3591  0.3983
  755MOL0     C 1852   3.283  10.082   2.672 -0.8306  0.0456  1.0079
  755MOL0     C 1853   3.140  10.051   2.712 -0.3282 -0.3816 -0.3369
  755MOL0     C 1854   3.132   9.971   2.830  0.4722 -0.0245 -0.5669
  755MOL0     C 1855   3.134   9.897   2.929  0.1178 -0.1900 -0.8251
  755MOL0     C 1856   2.998  10.496   2.454  0.3431 -0.7803  0.0948
  755MOL0     C 1857   2.978  10.627   2.484 -0.6853 -0.4821  0.0614
  755MOL0     H 1858   3.060  11.126   2.332  3.0362  0.2357 -1.7477
  755MOL0     H 1859   3.058  11.380   2.386 -2.5088 -0.1803  1.1267
  755MOL0     H 1860   3.396  11.508   2.652 -0.5335 -0.7546 -0.0262
  755MOL0     H 1861   3.452  11.468   2.490 -2.2539 -2.6404 -0.6651
  755MOL0     H 1862   3.419  11.652   2.398  0.8807 -1.7053  0.3717
  755MOL0     H 1863   3.313  11.731   2.519  0.2874 -0.2778 -2.6157
  755MOL0     H 1864   3.529  11.723   2.687 -3.1695 -2.2954  0.4505
  755MOL0     H 1865   3.617  11.650   2.548 -0.1776 -1.0264  1.9001
  755MOL0     H 1866   3.552  11.855   2.405 -1.6864 -0.8626  0.0387
  755MOL0     H 1867   3.482  11.930   2.547 -2.5644 -2.4690  0.5839
  755MOL0     H 1868   3.698  11.941   2.667 -3.4821  1.9094 -0.8414
  755MOL0     H 1869   3.767  11.829   2.546 -0.2574 -0.1781 -0.8180
  755MOL0     H 1870   3.734  12.016   2.378  0.6255  3.2931 -1.2025
  755MOL0     H 1871   3.659  12.110   2.505  2.1714  3.1450 -3.8608
  755MOL0     H 1872   3.867  12.190   2.514 -2.6780 -0.5427  1.1227
  755MOL0     H 1873   3.886  12.077   2.638 -1.1596  1.2751  1.2239
  755MOL0     H 1874   4.093  12.050   2.516 -0.1798 -0.0504  1.1797
  755MOL0     H 1875   4.017  12.049   2.359  0.5132  2.5940  0.2823
  755MOL0     H 1876   3.957  11.798   2.268  0.8032 -3.1456 -1.3041
  755MOL0     H 1877   3.885  11.449   2.449 -0.5749 -0.8513 -0.7846
  755MOL0     H 1878   3.798  11.555   2.343 -0.2070 -0.5665  0.5802
  755MOL0     H 1879   3.984  11.562   2.181  2.4274  0.1610  0.9242
  755MOL0     H 1880   3.930  11.398   2.201  1.2044  0.2402 -1.2988
  755MOL0     H 1881   4.195  11.524   2.327 -2.3951  1.9762 -1.1945
  755MOL0     H 1882   4.175  11.405   2.198  0.7989  2.3886 -1.0861
  755MOL0     H 1883   4.094  11.241   2.354 -2.9529  2.8831 -2.1726
  755MOL0     H 1884   4.070  11.340   2.487 -0.4566  2.9869 -0.0317
  755MOL0     H 1885   4.494  11.224   2.554  0.8925  0.8098  1.5394
  755MOL0     H 1886   4.661  11.190   2.685 -1.5255 -0.4700 -0.3609
  755MOL0     H 1887   4.733  11.313   2.771  1.3639 -1.4485 -1.0894
  755MOL0     H 1888   4.641  11.190   2.859 -1.4437  0.8482  1.3384
  755MOL0     H 1889   4.400  11.874   3.015  0.8638 -3.0528 -2.9221
  755MOL0     H 1890   4.375  11.984   3.211 -1.1597 -0.9088 -0.7706
  755MOL0     H 1891   4.560  11.837   3.630  0.6359  0.1218  0.0367
  755MOL0     H 1892   4.654  11.844   3.489  1.1043  2.3389 -1.7104
  755MOL0     H 1893   4.731  12.024   3.621  1.7059  0.2045 -1.5983
  755MOL0     H 1894   4.640  12.109   3.492 -1.0300 -0.6740  0.1205
  755MOL0     H 1895   4.453  12.109   3.640  0.3587  1.7275 -1.1882
  755MOL0     H 1896   4.578  12.213   3.689  1.7222  0.7378 -1.8090
  755MOL0     H 1897   4.548  11.945   3.812 -5.2067  0.6158 -3.9255
  755MOL0     H 1898   4.659  12.070   3.866 -0.0185 -0.1520 -1.3152
  755MOL0     H 1899   4.346  12.096   3.862  1.0843  3.2264 -2.5976
  755MOL0     H 1900   4.439  12.229   3.904 -1.0174 -0.4125  3.4729
  755MOL0     H 1901   4.548  12.111   4.098 -0.1875  0.2450  0.3991
  755MOL0     H 1902   4.377  12.112   4.103  1.2721  2.7027  0.0556
  755MOL0     H 1903   4.564  11.888   4.043 -0.8638 -1.6973 -1.7981
  755MOL0     H 1904   4.399  11.871   3.997  1.1832  1.3343 -1.1465
  755MOL0     H 1905   4.486  11.895   4.286 -4.5403 -0.9147  4.4045
  755MOL0     H 1906   4.424  11.760   4.184  1.6152  0.1868 -0.8502
  755MOL0     H 1907   4.524  11.636   3.430 -1.5255 -1.5793 -0.7701
  755MOL0     H 1908   4.513  11.511   3.227  3.3055 -0.5812 -1.4556
  755MOL0     H 1909   4.301  11.606   2.794  2.1744  1.7990 -0.9062
  755MOL0     H 1910   4.195  11.529   2.595 -0.7808 -1.0133  1.0528
  755MOL0     H 1911   3.390  11.292   2.636 -1.2726  2.3348 -1.0491
  755MOL0     H 1912   3.321  11.056   2.664 -1.4128  0.2938  1.0926
  755MOL0     H 1913   3.301  10.698   2.581  0.5029  0.4597 -2.6186
  755MOL0     H 1914   3.317  10.473   2.554 -0.1180 -1.1909 -1.8210
  755MOL0     H 1915   3.257  10.142   2.409  4.0649  0.7683 -2.3265
  755MOL0     H 1916   3.330  10.298   2.407  0.5326  1.6560  1.8736
  755MOL0     H 1917   3.251  10.278   2.676 -0.9799 -1.9800  1.5202
  755MOL0     H 1918   3.409  10.229   2.599  0.3368 -0.6180  0.0827
  755MOL0     H 1919   3.343  10.085   2.763  1.7468 -0.4105 -0.5704
  755MOL0     H 1920   3.331  10.010   2.605 -0.3506  0.8046  0.5153
  755MOL0     H 1921   3.073  10.008   2.636 -1.0977 -2.2554  1.3208
  755MOL0     H 1922   3.093  10.143   2.747  1.9019  0.1983  1.3438
  755MOL0     H 1923   3.135   9.834   3.015 -3.0111  1.8095  0.8706
  755MOL0     H 1924   2.934  10.435   2.391 -0.1502  0.1354 -0.2974
  755MOL0     H 1925   2.882  10.673   2.463 -0.1096  0.2250 -1.0751
  756MOL0     O 1926   8.333   3.479   7.415 -0.1090 -0.5650 -0.7329
  756MOL0     C 1927   8.351   3.365   7.446 -0.5955  0.6062  0.0163
  756MOL0     O 1928   8.452   3.278   7.402 -0.7858  0.3432 -0.2032
  756MOL0     C 1929   8.518   3.332   7.292 -0.5351  0.3312  0.0604
  756MOL0     C 1930   8.629   3.419   7.314  0.9426 -0.8759  0.8136
  756MOL0     C 1931   8.705   3.488   7.222 -0.2211  0.2655  0.3320
  756MOL0     C 1932   8.665   3.468   7.088 -0.1283 -1.2686 -0.3216
  756MOL0     O 1933   8.732   3.530   6.982  0.2737 -0.5787 -0.1831
  756MOL0     C 1934   8.856   3.599   6.995 -0.5174 -0.4524  0.7011
  756MOL0     C 1935   8.879   3.661   6.851 -0.0965  0.5760  0.3365
  756MOL0     C 1936   8.880   3.572   6.726  0.2097 -0.5916 -0.7560
  756MOL0     C 1937   8.799   3.621   6.608 -0.0055 -0.1295  0.4633
  756MOL0     C 1938   8.802   3.514   6.503  0.3965  0.2795  0.7186
  756MOL0     C 1939   8.713   3.559   6.386  0.1542  0.5983  0.3784
  756MOL0     C 1940   8.737   3.469   6.266 -0.7184 -0.2102 -0.6505
  756MOL0     C 1941   8.854   3.507   6.162  1.3068  0.1817 -0.6334
  756MOL0     N 1942   8.799   3.459   6.034 -0.0260 -0.4883  0.8572
  756MOL0     C 1943   8.795   3.331   5.975  0.8654  0.4510  0.3555
  756MOL0     C 1944   8.774   3.341   5.837  0.7488  0.0252 -0.8301
  756MOL0     C 1945   8.784   3.228   5.741 -0.1968  0.7239  0.0098
  756MOL0     C 1946   8.757   3.277   5.593 -0.4322 -0.0247 -0.0836
  756MOL0     C 1947   8.866   3.362   5.528  0.1499  0.3004 -0.3645
  756MOL0     C 1948   8.787   3.482   5.472  0.2110 -0.8980  0.3911
  756MOL0     O 1949   8.861   3.543   5.372  0.0973  0.6003  0.8892
  756MOL0     C 1950   8.847   3.679   5.351 -0.0743  0.2749 -0.5569
  756MOL0     C 1951   8.950   3.755   5.297  0.3192 -0.2830 -0.7591
  756MOL0     C 1952   8.946   3.893   5.285 -0.1347  0.8248  1.0528
  756MOL0     C 1953   9.076   3.952   5.233 -0.6322 -0.9686 -0.3586
  756MOL0     C 1954   8.834   3.972   5.329 -0.0762 -0.1793 -0.0828
  756MOL0     C 1955   8.831   4.122   5.319 -0.2278 -0.8663 -0.7979
  756MOL0     O 1956   8.706   4.183   5.335 -0.7299 -0.4864  0.3920
  756MOL0     C 1957   8.687   4.318   5.321 -0.0998 -1.0982 -0.0697
  756MOL0     C 1958   8.578   4.370   5.388 -0.4472  0.4625  0.5011
  756MOL0     C 1959   8.532   4.496   5.355 -0.1343 -0.4783  0.8295
  756MOL0     C 1960   8.602   4.574   5.260  0.1776 -0.1306 -0.3597
  756MOL0     O 1961   8.571   4.699   5.214  0.3376 -0.2034  0.2343
  756MOL0     C 1962   8.435   4.750   5.236 -0.0320 -0.0119  0.5405
  756MOL0     C 1963   8.435   4.891   5.178  0.1645 -1.9231  0.1971
  756MOL0     C 1964   8.458   4.902   5.028 -0.4385 -0.2602 -0.5370
  756MOL0     C 1965   8.412   5.036   4.984  0.4554 -0.3948  0.0033
  756MOL0     C 1966   8.481   5.075   4.856 -0.8479 -0.0415  0.1510
  756MOL0     C 1967   8.459   5.214   4.812  0.3628 -0.2879  0.1679
  756MOL0     C 1968   8.551   5.263   4.704  0.6874  0.9509  0.0440
  756MOL0     C 1969   8.493   5.360   4.610  0.3429 -0.2566 -0.8516
  756MOL0    Cl 1970   8.409   5.479   4.719  0.3104  0.0788  0.4869
  756MOL0     C 1971   8.713   4.526   5.192 -0.7000 -0.7558 -0.4933
  756MOL0     C 1972   8.756   4.400   5.227 -0.5103  0.9889 -0.1335
  756MOL0     O 1973   8.935   4.182   5.298  0.0070  0.1343 -0.1681
  756MOL0     C 1974   8.725   3.903   5.381  0.0637 -0.7818  1.0772
  756MOL0     C 1975   8.739   3.761   5.384 -0.1852  0.2998 -1.1317
  756MOL0     N 1976   8.786   3.479   5.817  0.0085 -0.3067 -1.3074
  756MOL0     N 1977   8.801   3.550   5.925  0.4619  0.9752 -0.4411
  756MOL0     C 1978   8.559   3.390   7.058  0.0561 -0.1032  0.2902
  756MOL0     C 1979   8.482   3.316   7.153  0.3575 -0.6281  0.2792
  756MOL0     C 1980   8.264   3.304   7.544  0.3589 -0.5651 -0.4495
  756MOL0     C 1981   8.268   3.176   7.577 -0.5435  1.3132  0.1585
  756MOL0     C 1982   8.169   3.113   7.657 -0.1732  0.2629 -0.3485
  756MOL0     C 1983   8.066   3.190   7.724  0.3858  0.7555  0.1110
  756MOL0     O 1984   7.976   3.126   7.806  0.9168 -0.8143 -0.3294
  756MOL0     C 1985   7.964   3.187   7.942 -0.1223  0.1702  0.4622
  756MOL0     C 1986   7.889   3.097   8.052  0.0859 -0.3378 -0.3804
  756MOL0     C 1987   7.765   3.152   8.122  1.4400  0.2499  1.3881
  756MOL0     C 1988   7.717   3.059   8.235  0.6576  0.6006  0.2826
  756MOL0     C 1989   7.606   3.107   8.328  0.1480  0.8958 -0.2124
  756MOL0     C 1990   7.523   3.151   8.406  0.3701 -0.2653  0.8048
  756MOL0     C 1991   8.066   3.318   7.695 -0.3091  0.1129  0.7389
  756MOL0     C 1992   8.162   3.376   7.606  0.6209 -0.2869  0.7560
  756MOL0     H 1993   8.647   3.417   7.421 -3.6941 -3.1254  1.8029
  756MOL0     H 1994   8.801   3.528   7.253 -0.8429  2.1130 -0.0054
  756MOL0     H 1995   8.850   3.678   7.070 -2.4040 -0.4673  0.5962
  756MOL0     H 1996   8.938   3.540   7.039  0.2527 -0.1057 -0.2521
  756MOL0     H 1997   8.791   3.723   6.832  1.0110  1.1989 -3.3761
  756MOL0     H 1998   8.971   3.719   6.853  0.3608 -0.1481  1.0617
  756MOL0     H 1999   8.978   3.535   6.693 -0.4998 -0.0435 -3.7723
  756MOL0     H 2000   8.826   3.484   6.761  0.1556  0.1265  1.0738
  756MOL0     H 2001   8.697   3.651   6.634 -0.0586  0.3440 -0.2728
  756MOL0     H 2002   8.847   3.709   6.564 -0.1637  0.4247  1.3640
  756MOL0     H 2003   8.905   3.512   6.466  0.9118  1.6574  1.9666
  756MOL0     H 2004   8.772   3.418   6.545 -0.0155 -1.0347 -2.2885
  756MOL0     H 2005   8.609   3.539   6.413  1.3340 -2.5598  3.3468
  756MOL0     H 2006   8.730   3.658   6.343 -1.2550  1.2856  1.3392
  756MOL0     H 2007   8.759   3.369   6.305  3.5719  0.7468 -0.1757
  756MOL0     H 2008   8.645   3.468   6.206 -1.3845  0.2063  0.3317
  756MOL0     H 2009   8.945   3.462   6.204 -0.2480 -0.2861  2.5136
  756MOL0     H 2010   8.872   3.614   6.158 -0.9096  0.8984  3.2432
  756MOL0     H 2011   8.812   3.242   6.035  1.0029  0.0443 -0.2689
  756MOL0     H 2012   8.882   3.181   5.743  0.6247  2.1110 -2.4482
  756MOL0     H 2013   8.715   3.148   5.770  0.3625 -1.6009 -4.1876
  756MOL0     H 2014   8.664   3.334   5.607 -0.4777 -0.9152  5.3511
  756MOL0     H 2015   8.751   3.192   5.524  2.1313  0.8533 -1.5189
  756MOL0     H 2016   8.896   3.295   5.447 -1.2535 -0.4629 -0.2881
  756MOL0     H 2017   8.946   3.386   5.598  0.9255  0.5243 -1.2990
  756MOL0     H 2018   8.762   3.545   5.558 -0.2260 -2.2919  1.3167
  756MOL0     H 2019   8.689   3.455   5.433 -0.3946 -0.2378  1.4125
  756MOL0     H 2020   9.033   3.692   5.266  0.7841 -0.1683  0.2333
  756MOL0     H 2021   9.117   4.025   5.303 -0.7280 -0.2320 -1.0673
  756MOL0     H 2022   9.152   3.873   5.227  0.9323  0.5338 -1.2588
  756MOL0     H 2023   9.048   3.979   5.131  2.2650 -0.2701 -1.0537
  756MOL0     H 2024   8.527   4.306   5.459 -1.3930  0.7092  0.0710
  756MOL0     H 2025   8.447   4.527   5.415 -0.0506 -0.0313  0.7156
  756MOL0     H 2026   8.359   4.687   5.189  1.2569  0.0155 -1.7466
  756MOL0     H 2027   8.416   4.761   5.343 -5.6204  0.6574 -0.2360
  756MOL0     H 2028   8.336   4.934   5.196  1.1267  1.1296 -1.1418
  756MOL0     H 2029   8.510   4.953   5.228 -3.0490  2.4230  0.2308
  756MOL0     H 2030   8.409   4.835   4.957  1.0828  2.6350 -4.7257
  756MOL0     H 2031   8.563   4.884   5.004 -0.3693  1.1212 -1.3630
  756MOL0     H 2032   8.304   5.050   4.978  0.4377  0.2438  1.4853
  756MOL0     H 2033   8.454   5.104   5.059  1.1628 -1.2761  0.4260
  756MOL0     H 2034   8.440   5.001   4.788 -0.1656 -2.1322  1.9016
  756MOL0     H 2035   8.590   5.062   4.862 -0.4568  2.3235 -0.4974
  756MOL0     H 2036   8.354   5.227   4.786 -0.7685 -0.9765  3.8755
  756MOL0     H 2037   8.472   5.288   4.891  1.1229  3.6428 -3.2585
  756MOL0     H 2038   8.572   5.175   4.642 -3.1649 -0.4699  0.4928
  756MOL0     H 2039   8.649   5.286   4.747 -0.1457 -0.0717  2.7236
  756MOL0     H 2040   8.422   5.302   4.551  0.9735 -1.9171 -0.0375
  756MOL0     H 2041   8.574   5.399   4.547 -0.5580  0.4055 -1.6369
  756MOL0     H 2042   8.777   4.580   5.123  1.5583 -2.3093  0.2541
  756MOL0     H 2043   8.837   4.361   5.166 -2.0449 -0.8480 -1.0992
  756MOL0     H 2044   8.631   3.955   5.392 -0.6832 -0.3390 -4.5961
  756MOL0     H 2045   8.655   3.701   5.417  1.0073 -0.0323  1.5741
  756MOL0     H 2046   8.542   3.375   6.952 -1.8127 -0.5348  0.6081
  756MOL0     H 2047   8.399   3.260   7.111 -2.7386  3.0016  0.9749
  756MOL0     H 2048   8.331   3.109   7.521 -2.5367  0.8005 -1.5729
  756MOL0     H 2049   8.157   3.008   7.680  2.0288 -0.2168 -1.1985
  756MOL0     H 2050   8.059   3.204   7.994 -1.9493  1.1910  3.7611
  756MOL0     H 2051   7.912   3.283   7.938  2.5778  1.7154 -0.2053
  756MOL0     H 2052   7.961   3.079   8.133  1.7743  0.2490 -1.6917
  756MOL0     H 2053   7.857   3.006   8.002  0.0280  0.1948 -1.3234
  756MOL0     H 2054   7.691   3.148   8.041  1.0774  0.5087  1.7017
  756MOL0     H 2055   7.782   3.255   8.156 -1.3716  0.8832  1.1561
  756MOL0     H 2056   7.802   3.044   8.303 -1.8151  0.3729  3.6108
  756MOL0     H 2057   7.689   2.964   8.189 -0.2084  0.3118  1.3640
  756MOL0     H 2058   7.441   3.189   8.464 -2.5061 -3.0265 -1.1119
  756MOL0     H 2059   7.993   3.382   7.744 -0.6233 -1.3434  2.2397
  756MOL0     H 2060   8.133   3.476   7.577  0.7600 -0.8094 -1.3333
  757MOL0     O 2061   7.368   2.346   5.644  0.1212 -0.3942 -0.3627
  757MOL0     C 2062   7.284   2.269   5.689 -0.2324  0.5921 -0.5980
  757MOL0     O 2063   7.155   2.305   5.726 -0.5393 -0.0024  0.0600
  757MOL0     C 2064   7.100   2.433   5.706 -0.3559  0.0140  0.3702
  757MOL0     C 2065   7.133   2.519   5.599  0.4614  1.0455 -0.2381
  757MOL0     C 2066   7.080   2.649   5.593  0.0422  1.0823 -1.1034
  757MOL0     C 2067   6.993   2.699   5.691  0.3499 -0.5928  0.4191
  757MOL0     O 2068   6.925   2.816   5.679 -1.1667  0.4268  0.6826
  757MOL0     C 2069   6.811   2.804   5.596  0.1257 -0.9965  0.7831
  757MOL0     C 2070   6.766   2.953   5.575 -0.1786 -0.4870  0.2418
  757MOL0     C 2071   6.886   3.033   5.519 -0.8155  0.8360  0.3341
  757MOL0     C 2072   6.841   3.167   5.488 -0.6925 -0.3938  0.4629
  757MOL0     C 2073   6.963   3.254   5.426 -0.9981 -0.6028 -0.0932
  757MOL0     C 2074   7.053   3.184   5.326  0.6806  0.1881  0.3892
  757MOL0     C 2075   7.162   3.297   5.275 -1.2495  0.1669 -0.8026
  757MOL0     C 2076   7.292   3.241   5.228 -0.2988  0.2319  0.2819
  757MOL0     N 2077   7.287   3.178   5.096 -1.0411 -0.2606 -0.4794
  757MOL0     C 2078   7.376   3.078   5.065  0.0474  0.3572  0.1562
  757MOL0     C 2079   7.313   3.003   4.971 -0.1321 -0.3845  0.6845
  757MOL0     C 2080   7.380   2.896   4.887 -0.8294 -0.4501  0.0197
  757MOL0     C 2081   7.378   2.762   4.958 -0.5566  0.6215  0.2258
  757MOL0     C 2082   7.450   2.641   4.880 -0.2824 -0.1989  0.1416
  757MOL0     C 2083   7.603   2.638   4.878  0.6701  0.4543 -0.3511
  757MOL0     O 2084   7.677   2.660   5.000  0.5509 -0.0248 -0.1689
  757MOL0     C 2085   7.712   2.787   5.039 -0.0906 -0.4257  0.5826
  757MOL0     C 2086   7.759   2.887   4.957 -0.5457 -0.2777  0.5977
  757MOL0     C 2087   7.781   3.013   4.999 -0.0983  0.3481  0.2076
  757MOL0     C 2088   7.844   3.101   4.896 -0.2273  0.4046 -0.7916
  757MOL0     C 2089   7.744   3.052   5.136  0.5683  1.0757 -0.1133
  757MOL0     C 2090   7.770   3.186   5.184  0.7544  0.0538 -0.1465
  757MOL0     O 2091   7.683   3.222   5.281 -0.1312 -0.1035 -0.9511
  757MOL0     C 2092   7.700   3.342   5.349 -0.3281 -0.5564  0.0639
  757MOL0     C 2093   7.669   3.463   5.286 -0.4112 -0.4840 -0.3165
  757MOL0     C 2094   7.676   3.586   5.365  0.3404 -1.1167  0.2107
  757MOL0     C 2095   7.739   3.590   5.491 -0.7244  1.2623  0.3114
  757MOL0     O 2096   7.768   3.700   5.563 -0.1358  0.6555  0.4437
  757MOL0     C 2097   7.855   3.800   5.493 -0.1935 -0.1984 -1.3192
  757MOL0     C 2098   7.842   3.938   5.549  0.0339 -0.9369 -0.4219
  757MOL0     C 2099   7.879   3.928   5.699  0.0577 -0.2977  0.0913
  757MOL0     C 2100   7.922   4.054   5.774  0.1057 -0.1520 -1.0040
  757MOL0     C 2101   7.804   4.140   5.807  0.9529 -0.4012 -0.0107
  757MOL0     C 2102   7.848   4.277   5.854  0.5510 -0.1851  0.2162
  757MOL0     C 2103   7.743   4.363   5.921 -0.6631  0.3879  0.0413
  757MOL0     C 2104   7.690   4.471   5.842  0.1932  0.5161 -0.1714
  757MOL0    Cl 2105   7.590   4.580   5.931  0.2569 -0.1204 -0.0400
  757MOL0     C 2106   7.763   3.469   5.551 -0.3172 -0.8203  0.6085
  757MOL0     C 2107   7.752   3.351   5.479 -0.9607  1.1597  0.7056
  757MOL0     O 2108   7.876   3.238   5.162  0.2563  0.3491 -0.0556
  757MOL0     C 2109   7.694   2.957   5.225  1.0671 -0.1843  0.5382
  757MOL0     C 2110   7.674   2.821   5.169  0.2536  0.7636  0.0304
  757MOL0     N 2111   7.193   3.063   4.934  0.3428 -0.2370 -0.8124
  757MOL0     N 2112   7.181   3.164   5.010  0.3317  0.6732  0.1903
  757MOL0     C 2113   6.964   2.616   5.793 -0.2131  0.1309 -0.5748
  757MOL0     C 2114   7.017   2.485   5.803  0.3193  0.7516  1.0974
  757MOL0     C 2115   7.326   2.125   5.709  0.4844 -0.1592  0.0967
  757MOL0     C 2116   7.226   2.023   5.714  0.5461  0.7345  0.9770
  757MOL0     C 2117   7.261   1.888   5.729 -0.4716 -0.2992  0.2011
  757MOL0     C 2118   7.399   1.854   5.729 -0.7606 -1.0892  0.4475
  757MOL0     O 2119   7.452   1.728   5.731  0.7555 -0.7123  0.1832
  757MOL0     C 2120   7.374   1.619   5.683  0.3785 -0.2866  0.0904
  757MOL0     C 2121   7.458   1.496   5.671 -0.3967  0.1077 -0.0032
  757MOL0     C 2122   7.515   1.442   5.801 -0.2354  0.0652  0.5944
  757MOL0     C 2123   7.525   1.293   5.793 -0.9968  0.7244 -0.6929
  757MOL0     C 2124   7.622   1.237   5.699 -0.4751  0.4189  1.1667
  757MOL0     C 2125   7.713   1.213   5.617 -0.0455  0.6348 -0.9404
  757MOL0     C 2126   7.495   1.957   5.743  0.3709  1.3372  0.2928
  757MOL0     C 2127   7.459   2.088   5.720  0.2628 -0.8319  0.7166
  757MOL0     H 2128   7.189   2.486   5.512 -1.3777 -1.8586 -0.4369
  757MOL0     H 2129   7.112   2.719   5.516 -1.5638  3.0165 -0.0926
  757MOL0     H 2130   6.850   2.766   5.502 -0.1327 -1.3269  0.8103
  757MOL0     H 2131   6.743   2.729   5.638 -1.1110  0.4901  1.5791
  757MOL0     H 2132   6.684   2.967   5.504 -1.9193  1.3314  2.4482
  757MOL0     H 2133   6.731   2.989   5.672 -0.9511  3.9226 -1.4480
  757MOL0     H 2134   6.971   3.038   5.587  0.1671  1.0457 -0.8868
  757MOL0     H 2135   6.923   2.973   5.435 -0.4982  1.8000 -0.2242
  757MOL0     H 2136   6.758   3.154   5.418  0.5833 -1.6602 -0.9189
  757MOL0     H 2137   6.801   3.223   5.573  2.9866  3.8678 -0.1940
  757MOL0     H 2138   6.929   3.345   5.375 -0.9700 -1.4652 -1.7448
  757MOL0     H 2139   7.030   3.285   5.506  1.1498  0.3292 -2.1423
  757MOL0     H 2140   7.110   3.096   5.356  1.5874 -0.6642 -3.3553
  757MOL0     H 2141   6.986   3.154   5.246  1.8885 -1.1352 -0.1658
  757MOL0     H 2142   7.129   3.372   5.203 -0.0282  1.4967 -0.0285
  757MOL0     H 2143   7.179   3.356   5.365 -5.3642  1.8197 -0.9129
  757MOL0     H 2144   7.332   3.172   5.303 -0.0700 -0.5059 -0.5060
  757MOL0     H 2145   7.353   3.330   5.208 -1.5984  0.8283 -1.2212
  757MOL0     H 2146   7.471   3.075   5.116  0.9865  0.8660 -1.4928
  757MOL0     H 2147   7.324   2.882   4.794 -3.1039 -1.0769  1.4199
  757MOL0     H 2148   7.487   2.913   4.873 -1.4958  1.9491 -3.4998
  757MOL0     H 2149   7.277   2.724   4.976  0.8279 -3.3382  0.7281
  757MOL0     H 2150   7.425   2.763   5.056  1.7243  0.3162 -0.7892
  757MOL0     H 2151   7.414   2.644   4.777  1.0811  0.1940 -0.3492
  757MOL0     H 2152   7.410   2.554   4.932 -1.5372  1.5951  2.3934
  757MOL0     H 2153   7.629   2.709   4.800  1.4345 -0.6199 -1.1047
  757MOL0     H 2154   7.647   2.543   4.844  1.4042  0.5164  0.3903
  757MOL0     H 2155   7.776   2.866   4.852 -2.2471 -2.7650  0.7504
  757MOL0     H 2156   7.774   3.185   4.900  0.0563  0.6182 -0.2398
  757MOL0     H 2157   7.945   3.133   4.923  1.1482 -0.8345 -3.9884
  757MOL0     H 2158   7.844   3.062   4.794  1.1755 -0.2169 -0.5689
  757MOL0     H 2159   7.614   3.474   5.193 -1.0143  0.7715  0.1585
  757MOL0     H 2160   7.648   3.679   5.316 -2.3367  0.4037  4.0956
  757MOL0     H 2161   7.961   3.774   5.506  0.2614 -0.3425 -4.3714
  757MOL0     H 2162   7.827   3.809   5.387 -1.3008  0.3110 -0.9910
  757MOL0     H 2163   7.917   3.996   5.493 -0.2498 -0.0693  0.0782
  757MOL0     H 2164   7.742   3.979   5.532  0.2515  0.6683  1.7592
  757MOL0     H 2165   7.967   3.863   5.694 -0.0454 -0.9243  4.0141
  757MOL0     H 2166   7.795   3.883   5.753  0.5885 -1.1822  0.2015
  757MOL0     H 2167   7.968   4.030   5.870 -1.3789 -2.3445 -0.7826
  757MOL0     H 2168   7.994   4.109   5.712  1.6989 -2.4402 -1.3488
  757MOL0     H 2169   7.734   4.084   5.869 -0.9044  1.3251 -0.4444
  757MOL0     H 2170   7.737   4.158   5.722 -1.8838  1.2709  2.4055
  757MOL0     H 2171   7.944   4.276   5.906  1.5715  0.0167 -1.5429
  757MOL0     H 2172   7.873   4.329   5.760  0.6043 -0.8188 -0.1260
  757MOL0     H 2173   7.791   4.409   6.007  0.5493  2.5185 -1.6592
  757MOL0     H 2174   7.665   4.291   5.947 -0.3428  0.0286  0.0111
  757MOL0     H 2175   7.639   4.420   5.760 -2.8758 -1.9642  2.9749
  757MOL0     H 2176   7.766   4.532   5.793  0.0899 -0.2481 -1.3307
  757MOL0     H 2177   7.794   3.475   5.655 -2.8624  1.3156  1.3556
  757MOL0     H 2178   7.770   3.249   5.512  2.0302  0.8999 -1.3229
  757MOL0     H 2179   7.663   2.979   5.326  1.7855 -0.9646  0.9439
  757MOL0     H 2180   7.625   2.747   5.232 -1.1782  0.9926 -0.7735
  757MOL0     H 2181   6.903   2.638   5.880 -0.8543 -1.4577 -0.5840
  757MOL0     H 2182   6.992   2.419   5.886 -1.4228  0.0160  0.0484
  757MOL0     H 2183   7.121   2.047   5.697  1.0595  2.2536 -0.3871
  757MOL0     H 2184   7.197   1.801   5.739  0.0482 -1.2225 -3.2260
  757MOL0     H 2185   7.286   1.593   5.744 -0.1839 -1.0320 -1.0009
  757MOL0     H 2186   7.339   1.646   5.583 -1.0160 -1.3038  0.2678
  757MOL0     H 2187   7.530   1.512   5.590 -0.8228 -1.7578 -0.8244
  757MOL0     H 2188   7.393   1.421   5.623 -0.8435  1.8032 -2.2089
  757MOL0     H 2189   7.459   1.471   5.891 -0.4790 -2.0863  1.1951
  757MOL0     H 2190   7.613   1.488   5.816 -0.2081 -0.3110  1.6615
  757MOL0     H 2191   7.432   1.237   5.799  0.2950 -1.7577 -2.3342
  757MOL0     H 2192   7.579   1.272   5.886 -1.8203  1.4797 -0.0136
  757MOL0     H 2193   7.799   1.186   5.560 -0.0150 -0.5499 -0.3697
  757MOL0     H 2194   7.600   1.937   5.759  0.2440  2.1488  2.4695
  757MOL0     H 2195   7.535   2.166   5.714  0.2622 -0.6968  2.1639
  758MOL0     O 2196   5.054   1.766  10.197 -0.2823 -0.6922  0.1695
  758MOL0     C 2197   5.064   1.649  10.233  0.2181  0.8243  0.7441
  758MOL0     O 2198   5.140   1.547  10.167 -0.1134 -0.3642  0.3814
  758MOL0     C 2199   5.240   1.593  10.079 -0.2487 -0.0778 -0.4376
  758MOL0     C 2200   5.270   1.521   9.960  1.1108  0.5439  1.3507
  758MOL0     C 2201   5.363   1.562   9.871 -0.5928  0.3762  0.7128
  758MOL0     C 2202   5.459   1.665   9.905  0.1081  0.1242 -0.2316
  758MOL0     O 2203   5.554   1.701   9.810 -0.1418 -0.7442 -0.5252
  758MOL0     C 2204   5.590   1.839   9.789 -0.0672  0.3438  0.3924
  758MOL0     C 2205   5.716   1.852   9.697 -0.0190 -0.3723 -0.8247
  758MOL0     C 2206   5.705   1.773   9.570 -0.0950  0.5546 -0.5172
  758MOL0     C 2207   5.607   1.840   9.473 -1.0240  0.2433  0.4468
  758MOL0     C 2208   5.517   1.744   9.394 -0.1409 -0.5601  0.1759
  758MOL0     C 2209   5.437   1.652   9.480 -0.2461 -0.3856  0.7485
  758MOL0     C 2210   5.312   1.592   9.418  0.2725 -0.2897  0.6597
  758MOL0     C 2211   5.342   1.505   9.302 -0.6462  0.5305 -0.6124
  758MOL0     N 2212   5.381   1.374   9.355  0.0296  0.4738 -0.5106
  758MOL0     C 2213   5.506   1.329   9.386 -0.0505  0.8277 -0.5376
  758MOL0     C 2214   5.491   1.199   9.419  0.3696 -0.4034 -0.4943
  758MOL0     C 2215   5.609   1.119   9.475  0.3630  0.1939  0.1108
  758MOL0     C 2216   5.587   0.968   9.448  0.6384 -0.0219  0.5789
  758MOL0     C 2217   5.646   0.890   9.572  0.7113 -0.3301 -0.2448
  758MOL0     C 2218   5.611   0.742   9.568 -0.6277  0.1763  0.3008
  758MOL0     O 2219   5.612   0.678   9.439  0.2831 -0.0919 -0.0275
  758MOL0     C 2220   5.691   0.579   9.403  0.4837  0.3422 -0.8391
  758MOL0     C 2221   5.731   0.575   9.275 -1.2954 -0.0199  0.2053
  758MOL0     C 2222   5.843   0.497   9.231  0.9448  0.3584  1.0512
  758MOL0     C 2223   5.885   0.487   9.084  0.6124 -0.4234  0.1419
  758MOL0     C 2224   5.911   0.411   9.326 -0.2224 -0.1006  0.0325
  758MOL0     C 2225   6.037   0.320   9.305  0.7878 -0.5117 -0.1802
  758MOL0     O 2226   6.081   0.224   9.394  0.5022  0.0675 -0.5596
  758MOL0     C 2227   6.150   0.117   9.339  1.0389 -0.3106  1.2095
  758MOL0     C 2228   6.090   0.018   9.258  1.0716 -0.3239  1.1243
  758MOL0     C 2229   6.172  -0.082   9.199  0.6802 -0.1420 -0.1544
  758MOL0     C 2230   6.312  -0.085   9.222  0.2951 -1.0965 -0.9135
  758MOL0     O 2231   6.393  -0.190   9.180  0.5567 -0.4141 -0.1149
  758MOL0     C 2232   6.345  -0.324   9.162  0.3449  0.2430  0.3362
  758MOL0     C 2233   6.435  -0.413   9.245 -0.0631  0.5885 -0.0324
  758MOL0     C 2234   6.582  -0.399   9.210  0.2911 -0.2479  0.4777
  758MOL0     C 2235   6.658  -0.477   9.321  0.0364 -0.3258  0.9150
  758MOL0     C 2236   6.806  -0.434   9.317 -0.0107  0.4224  0.4893
  758MOL0     C 2237   6.878  -0.475   9.189  0.4974 -0.0503 -1.1305
  758MOL0     C 2238   6.849  -0.630   9.160  0.1172 -0.1815  0.4897
  758MOL0     C 2239   6.963  -0.671   9.066 -0.4736 -0.8630  0.3680
  758MOL0    Cl 2240   6.988  -0.557   8.929 -0.4813 -0.5646  0.2986
  758MOL0     C 2241   6.360   0.027   9.291 -0.6351  0.3749  0.1301
  758MOL0     C 2242   6.284   0.113   9.364  0.3215 -0.1670 -0.2037
  758MOL0     O 2243   6.094   0.342   9.194 -0.3804 -0.6980 -0.6742
  758MOL0     C 2244   5.854   0.410   9.455  0.2548  1.0173 -0.8394
  758MOL0     C 2245   5.749   0.489   9.494 -0.0039  0.0328  0.1765
  758MOL0     N 2246   5.359   1.160   9.416 -0.4791 -0.6887  0.3536
  758MOL0     N 2247   5.298   1.268   9.373  0.1496  0.1721  0.5667
  758MOL0     C 2248   5.441   1.737  10.025  0.4424  0.8299 -1.0767
  758MOL0     C 2249   5.326   1.706  10.105 -0.2537  0.7894  0.3593
  758MOL0     C 2250   4.996   1.610  10.353  0.9581  0.8780 -1.0123
  758MOL0     C 2251   4.976   1.471  10.393 -0.5418 -0.8096 -0.1970
  758MOL0     C 2252   4.884   1.448  10.501 -0.0627  1.1694  0.3781
  758MOL0     C 2253   4.819   1.543  10.566  1.2359 -0.3458 -0.0603
  758MOL0     O 2254   4.740   1.491  10.669 -0.7238  0.3894  0.2718
  758MOL0     C 2255   4.656   1.582  10.742  0.5679  0.3345  0.1827
  758MOL0     C 2256   4.550   1.525  10.828  0.0341  1.0368 -0.1586
  758MOL0     C 2257   4.495   1.388  10.782 -0.3880  0.3291  0.7546
  758MOL0     C 2258   4.376   1.332  10.874  0.5679 -0.5940 -1.4164
  758MOL0     C 2259   4.402   1.320  11.016 -0.6379  0.4710  0.4740
  758MOL0     C 2260   4.418   1.309  11.130  0.9907 -0.3400 -0.4844
  758MOL0     C 2261   4.828   1.674  10.527 -0.4379 -0.2382 -0.0649
  758MOL0     C 2262   4.919   1.708  10.424 -0.0532 -0.2483 -0.7020
  758MOL0     H 2263   5.199   1.441   9.943  0.5020  1.0786  1.3366
  758MOL0     H 2264   5.391   1.504   9.784  3.2466  0.2780  1.8186
  758MOL0     H 2265   5.516   1.904   9.741  1.2008  1.9941  0.5763
  758MOL0     H 2266   5.626   1.876   9.885 -0.1122  1.5898 -0.0517
  758MOL0     H 2267   5.742   1.956   9.672 -0.7956 -0.1913 -0.9230
  758MOL0     H 2268   5.801   1.806   9.747  0.6655 -0.7360 -2.2661
  758MOL0     H 2269   5.798   1.769   9.512 -0.6295  3.3377 -1.7371
  758MOL0     H 2270   5.681   1.668   9.587 -1.0584  0.8832  0.2698
  758MOL0     H 2271   5.546   1.908   9.534  1.1423  3.1107 -0.3244
  758MOL0     H 2272   5.665   1.914   9.416 -3.2563  2.0587  0.4016
  758MOL0     H 2273   5.443   1.809   9.346  1.3637  1.8015  0.8750
  758MOL0     H 2274   5.575   1.683   9.324 -0.1560  1.6329 -1.8571
  758MOL0     H 2275   5.493   1.566   9.519 -1.2868 -0.6942  1.6101
  758MOL0     H 2276   5.400   1.706   9.568 -1.0633  1.1650 -0.4842
  758MOL0     H 2277   5.257   1.545   9.501 -3.0661 -0.2294 -1.3406
  758MOL0     H 2278   5.242   1.671   9.388 -0.4596 -1.4073 -0.6505
  758MOL0     H 2279   5.424   1.541   9.239  0.3373  0.8477  0.8033
  758MOL0     H 2280   5.259   1.498   9.232 -0.6852 -0.3524 -0.4980
  758MOL0     H 2281   5.600   1.382   9.386  1.5370 -1.8378 -1.3602
  758MOL0     H 2282   5.700   1.160   9.430  1.0203  2.0101  2.9054
  758MOL0     H 2283   5.614   1.134   9.583  0.4857 -1.1801  0.3136
  758MOL0     H 2284   5.632   0.933   9.355  1.8737  1.9208  0.3990
  758MOL0     H 2285   5.481   0.941   9.444  0.3698  0.7246  1.8942
  758MOL0     H 2286   5.602   0.938   9.660 -0.7808  2.5917 -2.3857
  758MOL0     H 2287   5.754   0.908   9.573  0.2318  3.1687  0.2469
  758MOL0     H 2288   5.512   0.724   9.612  0.0305 -2.6687  0.8518
  758MOL0     H 2289   5.689   0.699   9.632  0.9344  1.4406 -0.6819
  758MOL0     H 2290   5.699   0.650   9.203 -0.1498  0.1833 -0.1137
  758MOL0     H 2291   5.891   0.384   9.048 -1.3121  0.1750 -2.1559
  758MOL0     H 2292   5.806   0.534   9.025 -1.3229  0.2150  3.0346
  758MOL0     H 2293   5.974   0.541   9.051  1.2931 -1.5695  0.0398
  758MOL0     H 2294   5.987   0.033   9.229  1.5008  0.5528 -0.0092
  758MOL0     H 2295   6.128  -0.153   9.130  0.1811 -0.4946  0.5092
  758MOL0     H 2296   6.241  -0.334   9.195 -1.3514  0.7342 -4.1809
  758MOL0     H 2297   6.348  -0.349   9.056  1.4242  0.0153  0.4097
  758MOL0     H 2298   6.420  -0.393   9.351 -1.6143  1.1033 -0.3324
  758MOL0     H 2299   6.398  -0.514   9.227  0.1489  0.4758  0.1606
  758MOL0     H 2300   6.622  -0.298   9.216 -0.1219 -0.0398 -0.2163
  758MOL0     H 2301   6.594  -0.433   9.107  2.3940  2.8024 -0.3913
  758MOL0     H 2302   6.611  -0.455   9.417 -1.7252 -4.0036  1.0583
  758MOL0     H 2303   6.639  -0.582   9.301 -3.1897  0.3270 -0.1115
  758MOL0     H 2304   6.864  -0.481   9.397  2.7584  2.1998 -0.3340
  758MOL0     H 2305   6.814  -0.327   9.338 -1.7925  0.1042  3.2575
  758MOL0     H 2306   6.859  -0.408   9.104  4.2366 -1.0575 -2.9722
  758MOL0     H 2307   6.985  -0.469   9.212 -0.0481 -1.9333  2.7852
  758MOL0     H 2308   6.749  -0.653   9.122 -1.0871 -0.1285  3.3338
  758MOL0     H 2309   6.874  -0.691   9.247  0.0957  0.2352  0.7931
  758MOL0     H 2310   6.941  -0.772   9.029 -3.6489 -0.2153  0.2382
  758MOL0     H 2311   7.052  -0.676   9.130  0.1456  2.1472 -0.0976
  758MOL0     H 2312   6.463   0.045   9.320 -0.9583 -0.1189  1.6763
  758MOL0     H 2313   6.319   0.185   9.438  1.5521 -0.8977 -0.0560
  758MOL0     H 2314   5.902   0.354   9.535 -0.1467 -0.1513 -1.3955
  758MOL0     H 2315   5.721   0.490   9.599  4.7281 -1.5083  1.7262
  758MOL0     H 2316   5.516   1.808  10.057 -1.6457  3.4754 -1.7204
  758MOL0     H 2317   5.325   1.758  10.201 -0.9566  0.1841  0.6918
  758MOL0     H 2318   5.038   1.390  10.356  1.1031 -1.2275  3.1314
  758MOL0     H 2319   4.879   1.346  10.537  0.1435 -0.2489 -3.2405
  758MOL0     H 2320   4.726   1.643  10.800  1.4092  2.3986 -2.8005
  758MOL0     H 2321   4.604   1.648  10.672  0.5955  0.8754  0.6616
  758MOL0     H 2322   4.468   1.597  10.823 -0.7384  0.2705  0.9064
  758MOL0     H 2323   4.584   1.517  10.931 -1.3225 -1.7240  0.1832
  758MOL0     H 2324   4.576   1.317  10.764  3.0181  3.9960  0.0566
  758MOL0     H 2325   4.448   1.414  10.687  1.6588  2.4208  0.2240
  758MOL0     H 2326   4.349   1.235  10.833 -4.4386  0.4226 -1.1784
  758MOL0     H 2327   4.293   1.403  10.872  2.5978  2.0030 -0.2565
  758MOL0     H 2328   4.437   1.311  11.235 -0.1627  0.4950 -0.2677
  758MOL0     H 2329   4.763   1.745  10.578  0.0031  0.2459 -0.1699
  758MOL0     H 2330   4.913   1.810  10.388  1.3600 -0.1878 -0.8153
  759MOL0     O 2331   2.199   8.220   5.526  0.5347 -0.2853  0.0479
  759MOL0     C 2332   2.152   8.157   5.623 -0.5662  0.0974  0.1221
  759MOL0     O 2333   2.052   8.070   5.621 -0.7165 -0.0889 -0.5347
  759MOL0     C 2334   2.003   8.004   5.501  0.4556 -0.8475  0.2557
  759MOL0     C 2335   2.073   7.923   5.426 -0.6267  0.1871 -0.4682
  759MOL0     C 2336   2.017   7.860   5.308  0.1552  0.4010  0.0495
  759MOL0     C 2337   1.883   7.897   5.266 -0.1794  0.0635  0.4483
  759MOL0     O 2338   1.829   7.862   5.147  0.2818  0.7049 -0.1269
  759MOL0     C 2339   1.905   7.768   5.071 -0.3154 -0.2277  0.3408
  759MOL0     C 2340   1.846   7.766   4.936  0.7979 -0.7281  0.1779
  759MOL0     C 2341   1.885   7.892   4.863  0.0843  0.1157 -0.3325
  759MOL0     C 2342   1.848   7.899   4.711  0.1103  0.4662 -0.1464
  759MOL0     C 2343   1.700   7.871   4.682  0.1049  0.0073 -0.1874
  759MOL0     C 2344   1.599   7.960   4.762 -0.8204 -0.3490  0.2566
  759MOL0     C 2345   1.459   7.920   4.743  0.2940  0.8878 -0.1317
  759MOL0     C 2346   1.419   7.876   4.607  0.8991 -0.3421  0.9298
  759MOL0     N 2347   1.271   7.891   4.587 -0.9055 -0.4597 -0.0517
  759MOL0     C 2348   1.218   7.956   4.484  0.6407  0.7453  0.5260
  759MOL0     C 2349   1.085   7.932   4.497  0.5000  0.0614 -0.0571
  759MOL0     C 2350   0.975   8.006   4.421  0.7264 -0.9635 -0.2675
  759MOL0     C 2351   0.930   7.918   4.309  0.9930  0.4226  0.4374
  759MOL0     C 2352   0.789   7.964   4.275 -0.1375  0.2987  0.9749
  759MOL0     C 2353   0.741   7.899   4.142  0.2364 -0.7123  0.0274
  759MOL0     O 2354   0.744   7.763   4.153  0.1736  0.3205  0.7556
  759MOL0     C 2355   0.634   7.677   4.161 -0.4127 -0.7829 -0.6342
  759MOL0     C 2356   0.504   7.709   4.205  1.2313  0.4856 -0.2702
  759MOL0     C 2357   0.405   7.618   4.189 -0.3413  0.8789  0.4191
  759MOL0     C 2358   0.264   7.671   4.198  0.4331 -0.0118  0.1668
  759MOL0     C 2359   0.441   7.474   4.173  0.2074 -0.4854 -0.3349
  759MOL0     C 2360   0.340   7.369   4.162 -0.5691 -0.1990  0.5173
  759MOL0     O 2361   0.229   7.390   4.223  0.7047  0.9585  0.5438
  759MOL0     C 2362   0.116   7.309   4.206  0.0657 -0.8304 -0.5156
  759MOL0     C 2363   0.060   7.271   4.090  0.0077  0.0855 -0.1674
  759MOL0     C 2364  -0.062   7.202   4.083 -0.6774 -0.2053 -0.2299
  759MOL0     C 2365  -0.120   7.165   4.204  0.0054 -1.3941  0.8629
  759MOL0     O 2366  -0.244   7.119   4.221  0.6959 -0.3336  0.7957
  759MOL0     C 2367  -0.365   7.174   4.145  0.3379 -0.3685  0.7606
  759MOL0     C 2368  -0.500   7.143   4.219 -0.1572  0.0473  0.0131
  759MOL0     C 2369  -0.515   7.189   4.370  0.9261  0.6668 -0.2518
  759MOL0     C 2370  -0.433   7.085   4.453 -0.0109  0.1442 -1.8660
  759MOL0     C 2371  -0.486   7.115   4.595  0.0904  0.8932 -0.2945
  759MOL0     C 2372  -0.412   7.038   4.710  0.4566 -1.0102  0.4829
  759MOL0     C 2373  -0.459   7.075   4.855 -0.5492  0.2862  0.3899
  759MOL0     C 2374  -0.386   6.990   4.965 -0.1858  0.5557  0.3472
  759MOL0    Cl 2375  -0.226   7.054   5.017  0.0109  0.3967 -0.2706
  759MOL0     C 2376  -0.047   7.187   4.313  0.1077  0.0844 -0.6012
  759MOL0     C 2377   0.073   7.245   4.318 -0.8136 -1.1569 -0.1968
  759MOL0     O 2378   0.365   7.267   4.101  1.3626 -0.4969 -0.2587
  759MOL0     C 2379   0.574   7.444   4.143  0.7278 -0.0441 -0.0140
  759MOL0     C 2380   0.669   7.548   4.133 -0.7119  1.1215  0.0130
  759MOL0     N 2381   1.067   7.850   4.610 -0.7180 -0.7224  0.4386
  759MOL0     N 2382   1.178   7.826   4.660  0.0856 -0.2390  0.7296
  759MOL0     C 2383   1.821   8.001   5.337 -0.3112  0.5551 -0.2232
  759MOL0     C 2384   1.870   8.033   5.468 -0.0330 -1.3896  0.9741
  759MOL0     C 2385   2.197   8.208   5.754 -0.1526 -0.5240 -0.9324
  759MOL0     C 2386   2.335   8.257   5.759  0.7463  0.6340 -0.1143
  759MOL0     C 2387   2.402   8.286   5.878  0.0716 -0.5571  0.6291
  759MOL0     C 2388   2.337   8.276   6.003  0.0144 -0.5165 -0.4060
  759MOL0     O 2389   2.404   8.313   6.121  0.2513  0.8828  0.1066
  759MOL0     C 2390   2.357   8.259   6.247  0.3459  0.9844 -0.0674
  759MOL0     C 2391   2.467   8.283   6.360  0.1449  0.7394 -0.1798
  759MOL0     C 2392   2.429   8.232   6.504  0.0122 -0.0874  0.2889
  759MOL0     C 2393   2.435   8.328   6.617 -0.3007 -0.4447 -0.8395
  759MOL0     C 2394   2.314   8.409   6.612  0.2606 -0.5700 -0.7941
  759MOL0     C 2395   2.216   8.481   6.616 -0.7624  0.0818 -0.1622
  759MOL0     C 2396   2.198   8.237   6.002  0.3162 -0.5179 -0.6467
  759MOL0     C 2397   2.129   8.213   5.877 -0.6547  1.6948 -0.3348
  759MOL0     H 2398   2.173   7.884   5.441 -0.8608  0.5007  2.3135
  759MOL0     H 2399   2.065   7.776   5.259  1.8492  0.5873  1.3009
  759MOL0     H 2400   2.010   7.790   5.046 -0.1388  0.3634  1.5374
  759MOL0     H 2401   1.900   7.672   5.123  1.1396  0.2504  1.4460
  759MOL0     H 2402   1.883   7.676   4.885 -1.4912 -1.6491  0.0121
  759MOL0     H 2403   1.738   7.771   4.952  1.3286  1.9094  4.6512
  759MOL0     H 2404   1.854   7.984   4.913  5.9410  2.2277  0.2326
  759MOL0     H 2405   1.993   7.910   4.864  0.0390  0.3718  0.2411
  759MOL0     H 2406   1.869   8.000   4.675  0.6822  0.7553  0.9707
  759MOL0     H 2407   1.917   7.832   4.658  0.8538  1.3757 -0.3553
  759MOL0     H 2408   1.685   7.888   4.575 -1.4619  3.0058  0.3991
  759MOL0     H 2409   1.675   7.766   4.697 -1.3523  0.1501 -1.3999
  759MOL0     H 2410   1.613   7.950   4.870  0.9678 -0.1751  0.0842
  759MOL0     H 2411   1.617   8.064   4.732 -2.1284 -0.3464 -0.5638
  759MOL0     H 2412   1.446   7.832   4.805  1.2603  0.0365 -1.0983
  759MOL0     H 2413   1.383   7.989   4.780 -3.2152 -1.1484 -2.9494
  759MOL0     H 2414   1.460   7.775   4.598  2.4601  0.4289 -1.6681
  759MOL0     H 2415   1.461   7.940   4.529  0.2367 -2.5309 -1.3275
  759MOL0     H 2416   1.269   8.022   4.415  3.0037 -0.0674  1.4082
  759MOL0     H 2417   0.884   8.029   4.477  0.3788 -0.1863 -1.1261
  759MOL0     H 2418   1.009   8.095   4.367  1.3760 -2.1221 -1.8732
  759MOL0     H 2419   0.921   7.812   4.334 -1.5063 -0.4296 -3.3398
  759MOL0     H 2420   0.997   7.919   4.222  0.0328  0.6228 -0.3142
  759MOL0     H 2421   0.804   8.071   4.258 -0.9479 -0.1339 -4.0504
  759MOL0     H 2422   0.719   7.946   4.357 -0.4895  2.4126  1.1980
  759MOL0     H 2423   0.815   7.931   4.067  1.4989 -5.0778 -0.8906
  759MOL0     H 2424   0.640   7.930   4.113  0.3335 -0.1457  0.2840
  759MOL0     H 2425   0.485   7.808   4.243  0.2190 -0.9152  3.2979
  759MOL0     H 2426   0.202   7.667   4.108 -2.6330  2.7140  1.9093
  759MOL0     H 2427   0.212   7.613   4.275  1.0317 -4.2222 -2.2987
  759MOL0     H 2428   0.252   7.775   4.230 -0.7102  0.2416 -0.9924
  759MOL0     H 2429   0.093   7.305   3.992  0.6029  1.3517  0.4582
  759MOL0     H 2430  -0.105   7.194   3.983 -0.7456  4.2063 -0.7860
  759MOL0     H 2431  -0.350   7.279   4.120 -2.5156  0.4578  2.1523
  759MOL0     H 2432  -0.360   7.129   4.045  2.6610  1.1391  0.1004
  759MOL0     H 2433  -0.574   7.200   4.163 -0.5711  1.6295  2.0666
  759MOL0     H 2434  -0.532   7.039   4.205 -0.9643 -0.0549  2.2935
  759MOL0     H 2435  -0.620   7.188   4.400 -0.1234 -0.4430 -3.5689
  759MOL0     H 2436  -0.458   7.283   4.373  1.9140  0.0697  2.3982
  759MOL0     H 2437  -0.457   6.985   4.416 -0.9394 -1.3074  2.1758
  759MOL0     H 2438  -0.326   7.107   4.458 -0.2856  2.0172 -3.2004
  759MOL0     H 2439  -0.580   7.059   4.596  0.2193  0.6051  1.8278
  759MOL0     H 2440  -0.494   7.222   4.614  1.0927  0.4645  3.5645
  759MOL0     H 2441  -0.426   6.930   4.695  0.2625 -0.9871  0.5043
  759MOL0     H 2442  -0.308   7.068   4.694 -0.7523  2.9309 -0.9745
  759MOL0     H 2443  -0.566   7.050   4.850 -0.2987 -0.8676  0.5276
  759MOL0     H 2444  -0.440   7.181   4.874 -2.6484  1.1097 -1.6551
  759MOL0     H 2445  -0.374   6.885   4.938 -1.3990  0.2908  0.7807
  759MOL0     H 2446  -0.450   6.996   5.053 -0.6966 -2.3654  0.2602
  759MOL0     H 2447  -0.113   7.166   4.397 -1.2948 -1.7358 -2.0774
  759MOL0     H 2448   0.108   7.263   4.419 -2.6620  1.4053  0.0916
  759MOL0     H 2449   0.606   7.343   4.122  4.3577  1.4927 -3.1996
  759MOL0     H 2450   0.767   7.526   4.092 -1.2093 -4.8455  1.2371
  759MOL0     H 2451   1.726   8.037   5.299 -0.0500  1.8468  0.2980
  759MOL0     H 2452   1.814   8.095   5.537  1.0972  0.9215 -0.0612
  759MOL0     H 2453   2.390   8.270   5.666  1.2518  2.0722  0.3745
  759MOL0     H 2454   2.505   8.319   5.880  0.4204 -1.3706 -1.2097
  759MOL0     H 2455   2.260   8.304   6.266 -1.0099 -2.5504  2.5360
  759MOL0     H 2456   2.344   8.151   6.234  0.4876  0.7717  1.3204
  759MOL0     H 2457   2.467   8.392   6.354  1.6049  0.7646  0.1168
  759MOL0     H 2458   2.566   8.262   6.321 -0.1395  0.6209 -0.8492
  759MOL0     H 2459   2.491   8.144   6.519 -0.0717 -0.3915 -0.9722
  759MOL0     H 2460   2.330   8.187   6.491  0.3006 -0.5529 -0.3230
  759MOL0     H 2461   2.536   8.370   6.617 -0.9071  1.1060 -1.0197
  759MOL0     H 2462   2.423   8.279   6.714 -1.6333  0.5772 -0.4516
  759MOL0     H 2463   2.132   8.546   6.625 -2.0843 -1.2369 -2.1121
  759MOL0     H 2464   2.142   8.215   6.093  1.1609 -1.7003 -0.3919
  759MOL0     H 2465   2.032   8.165   5.868  0.3321 -0.5863  0.4505
  760MOL0     O 2466   9.710   6.567   7.871 -0.6742  0.0395 -0.0304
  760MOL0     C 2467   9.827   6.585   7.903  0.0556 -1.1169 -0.1363
  760MOL0     O 2468   9.917   6.680   7.854 -0.1735 -0.2343  0.5142
  760MOL0     C 2469   9.885   6.748   7.733 -0.1341  0.2236 -0.3255
  760MOL0     C 2470   9.895   6.686   7.609 -0.0082 -1.1510  0.5857
  760MOL0     C 2471   9.858   6.756   7.492 -0.2247  0.3236  0.5251
  760MOL0     C 2472   9.807   6.878   7.504 -0.9268  0.0055  0.1326
  760MOL0     O 2473   9.762   6.934   7.390  0.4099 -0.0431  0.1454
  760MOL0     C 2474   9.697   7.060   7.380 -0.1210 -0.0286 -0.0481
  760MOL0     C 2475   9.723   7.123   7.244 -0.2175 -0.4713 -0.2345
  760MOL0     C 2476   9.861   7.185   7.257  0.3367 -0.1691 -0.1970
  760MOL0     C 2477   9.902   7.241   7.119 -0.5129  0.1171 -0.0634
  760MOL0     C 2478   9.990   7.136   7.045 -0.3564 -0.1119  0.4461
  760MOL0     C 2479  10.035   7.195   6.907  0.5796  0.0828  0.8740
  760MOL0     C 2480  10.099   7.092   6.813 -0.1389 -0.5767  0.2135
  760MOL0     C 2481  10.224   7.027   6.894  0.7571  0.0517 -0.5397
  760MOL0     N 2482  10.313   6.938   6.822  0.0149  0.2279 -0.4908
  760MOL0     C 2483  10.444   6.900   6.858  0.7350  0.0519  0.1513
  760MOL0     C 2484  10.476   6.798   6.776  0.4680  0.1472  0.6930
  760MOL0     C 2485  10.599   6.722   6.782 -0.1828 -0.6376  0.1578
  760MOL0     C 2486  10.633   6.619   6.671  1.1512 -0.0255 -0.5074
  760MOL0     C 2487  10.766   6.557   6.676  0.6162 -0.0183 -0.5767
  760MOL0     C 2488  10.784   6.445   6.564 -0.9320 -0.0070 -0.3593
  760MOL0     O 2489  10.908   6.476   6.498  0.7241  0.1361 -0.0983
  760MOL0     C 2490  10.941   6.393   6.389 -0.6041 -0.4590  0.4127
  760MOL0     C 2491  11.030   6.442   6.298  0.0389 -0.8780 -0.1551
  760MOL0     C 2492  11.033   6.390   6.167  0.3962  0.4147 -0.4906
  760MOL0     C 2493  11.120   6.465   6.065  0.1589 -0.2176  1.2285
  760MOL0     C 2494  10.959   6.271   6.124 -0.3131  0.2960 -0.3055
  760MOL0     C 2495  10.953   6.215   5.987 -0.6286 -0.0653 -1.1308
  760MOL0     O 2496  10.857   6.116   5.972 -0.0084 -0.7302 -0.4675
  760MOL0     C 2497  10.787   6.098   5.864  0.7608 -0.0821  0.1399
  760MOL0     C 2498  10.653   6.049   5.873 -0.4464 -0.2682 -0.6758
  760MOL0     C 2499  10.586   6.012   5.758 -0.4775 -0.0966  0.5744
  760MOL0     C 2500  10.641   6.036   5.632 -0.6280  0.8188  0.2751
  760MOL0     O 2501  10.582   5.999   5.514 -0.0895 -1.5536 -0.4964
  760MOL0     C 2502  10.446   5.949   5.520 -0.1248 -0.1940  1.7802
  760MOL0     C 2503  10.370   5.929   5.387 -0.4661  0.5041  0.4065
  760MOL0     C 2504  10.348   6.056   5.307 -0.3797 -0.3901  0.1159
  760MOL0     C 2505  10.278   6.012   5.173  0.1184  0.8062  0.0840
  760MOL0     C 2506  10.216   6.142   5.116 -0.5966  0.9643  0.0235
  760MOL0     C 2507  10.118   6.124   5.001  0.3654 -0.8190 -0.1573
  760MOL0     C 2508  10.079   6.263   4.942  0.8612  0.6529 -0.2513
  760MOL0     C 2509   9.982   6.236   4.836 -0.5833  0.1720  0.0968
  760MOL0    Cl 2510   9.844   6.155   4.912 -0.1585  0.3954  0.4038
  760MOL0     C 2511  10.772   6.092   5.621  0.3347 -0.1579  0.0659
  760MOL0     C 2512  10.841   6.121   5.738 -0.2359  0.3415  0.0230
  760MOL0     O 2513  11.033   6.259   5.907 -0.2509  0.2935 -0.0951
  760MOL0     C 2514  10.897   6.208   6.229 -0.5574 -0.6849  0.4054
  760MOL0     C 2515  10.879   6.272   6.353  0.5031  0.0788  0.2448
  760MOL0     N 2516  10.361   6.761   6.707 -0.0513  0.0574  0.1679
  760MOL0     N 2517  10.269   6.851   6.724 -1.1012 -0.6699 -0.7331
  760MOL0     C 2518   9.800   6.937   7.629 -1.3160  0.2372 -0.8957
  760MOL0     C 2519   9.840   6.880   7.751  0.1237  0.3359  0.0098
  760MOL0     C 2520   9.869   6.523   8.035  1.0296 -0.0744 -0.7028
  760MOL0     C 2521   9.988   6.560   8.105  0.0836  0.8032  0.6506
  760MOL0     C 2522  10.010   6.522   8.237  0.2965 -0.7003 -0.0386
  760MOL0     C 2523   9.917   6.440   8.309 -0.7040  0.2532  0.2010
  760MOL0     O 2524   9.915   6.401   8.437 -0.6304 -0.8798 -0.7532
  760MOL0     C 2525  10.042   6.393   8.508  0.3328  0.3391 -0.5612
  760MOL0     C 2526  10.138   6.295   8.448 -0.5627  0.3439  0.2742
  760MOL0     C 2527  10.107   6.150   8.487  1.1938 -0.5324  0.0885
  760MOL0     C 2528  10.213   6.048   8.426 -0.2429  0.4058 -0.4240
  760MOL0     C 2529  10.332   6.046   8.519  0.4958 -0.4518  0.0797
  760MOL0     C 2530  10.440   6.036   8.585  0.7037 -0.0484  0.5097
  760MOL0     C 2531   9.804   6.408   8.235  0.1041  0.0527  0.2419
  760MOL0     C 2532   9.782   6.439   8.108  0.2693  0.6552 -0.3134
  760MOL0     H 2533   9.930   6.587   7.579  0.2758 -0.1496 -2.7602
  760MOL0     H 2534   9.882   6.713   7.395 -0.5798 -0.5934  0.8419
  760MOL0     H 2535   9.592   7.040   7.404 -0.1757 -2.5395 -1.9748
  760MOL0     H 2536   9.728   7.128   7.459  1.1283 -0.7951  0.1669
  760MOL0     H 2537   9.725   7.043   7.170 -0.9722 -0.7947  0.0800
  760MOL0     H 2538   9.645   7.199   7.234 -0.1909 -0.3206  0.6323
  760MOL0     H 2539   9.860   7.263   7.334  0.8992  0.9356 -1.2747
  760MOL0     H 2540   9.921   7.099   7.286 -0.3324  0.1438  2.3525
  760MOL0     H 2541   9.815   7.271   7.059 -0.5373  0.8281  0.3154
  760MOL0     H 2542   9.958   7.335   7.122 -2.3130  1.8709 -6.0224
  760MOL0     H 2543  10.083   7.103   7.093  0.2200 -2.1716 -1.8666
  760MOL0     H 2544   9.928   7.048   7.028  0.3456 -0.9536  2.0748
  760MOL0     H 2545   9.958   7.245   6.847 -0.5204 -1.4398  0.9568
  760MOL0     H 2546  10.101   7.279   6.928 -0.0583  0.9619 -0.5135
  760MOL0     H 2547  10.027   7.018   6.776 -0.9608  0.6004 -0.6053
  760MOL0     H 2548  10.139   7.153   6.732 -1.2039 -1.1511 -0.7738
  760MOL0     H 2549  10.186   6.966   6.976  1.7071 -3.0087 -2.2188
  760MOL0     H 2550  10.285   7.111   6.930  0.3759  0.4198 -0.7447
  760MOL0     H 2551  10.505   6.946   6.935  0.2416  2.4144 -0.7825
  760MOL0     H 2552  10.675   6.800   6.776 -0.7963 -0.1419 -1.8011
  760MOL0     H 2553  10.611   6.676   6.881 -2.8669  0.5069  1.1217
  760MOL0     H 2554  10.612   6.668   6.576  0.9198 -0.8274 -0.8736
  760MOL0     H 2555  10.555   6.543   6.681  0.7381  0.6839  3.6122
  760MOL0     H 2556  10.772   6.516   6.777 -0.9342 -1.0474 -0.8725
  760MOL0     H 2557  10.842   6.634   6.663  1.2878 -0.0863  2.3635
  760MOL0     H 2558  10.702   6.456   6.491 -0.8714  2.4002 -0.1469
  760MOL0     H 2559  10.778   6.343   6.603 -0.5924 -0.0581 -0.4396
  760MOL0     H 2560  11.087   6.526   6.336  0.2866 -0.6766 -0.9547
  760MOL0     H 2561  11.192   6.401   6.015 -1.2524  0.0990 -1.3894
  760MOL0     H 2562  11.060   6.501   5.980  3.2888 -0.3704 -1.2122
  760MOL0     H 2563  11.167   6.547   6.120  1.1717  1.7875 -2.2957
  760MOL0     H 2564  10.617   6.018   5.971  3.3174 -0.8656  0.7040
  760MOL0     H 2565  10.489   5.965   5.773 -0.5530  0.1214  0.7630
  760MOL0     H 2566  10.440   5.854   5.572 -4.7882 -0.7639  0.5990
  760MOL0     H 2567  10.380   6.015   5.576  0.4472  1.6742  0.3592
  760MOL0     H 2568  10.430   5.857   5.330  0.1494  1.0017  0.4186
  760MOL0     H 2569  10.277   5.883   5.420 -1.1745  1.8677  0.3583
  760MOL0     H 2570  10.433   6.114   5.270 -1.1204  1.9926  1.8307
  760MOL0     H 2571  10.286   6.129   5.362 -0.8254 -2.1611  2.0771
  760MOL0     H 2572  10.339   5.960   5.099 -1.9562 -0.2696 -0.9311
  760MOL0     H 2573  10.197   5.943   5.195  1.8762 -1.0503  1.0765
  760MOL0     H 2574  10.299   6.204   5.081  1.9416 -2.0187  0.3147
  760MOL0     H 2575  10.169   6.200   5.196  0.6632  5.4214 -2.1536
  760MOL0     H 2576  10.171   6.064   4.926  1.0425 -0.2541 -0.1421
  760MOL0     H 2577  10.030   6.073   5.040  0.8602 -0.2588  1.8425
  760MOL0     H 2578  10.171   6.312   4.908  2.4263 -3.5954 -2.8520
  760MOL0     H 2579  10.038   6.318   5.028 -0.5218 -1.5802  0.6256
  760MOL0     H 2580  10.022   6.178   4.753  0.8262  0.5309  0.4837
  760MOL0     H 2581   9.935   6.324   4.792 -0.3591  0.2754  0.0631
  760MOL0     H 2582  10.815   6.104   5.522 -0.1848 -1.1846 -0.2964
  760MOL0     H 2583  10.945   6.151   5.729 -1.0839  2.8172 -3.6579
  760MOL0     H 2584  10.846   6.113   6.224 -0.0392 -1.1244  2.6933
  760MOL0     H 2585  10.807   6.225   6.417  0.4200  1.4320  1.1857
  760MOL0     H 2586   9.749   7.033   7.632 -1.5329  0.1472 -1.5640
  760MOL0     H 2587   9.829   6.927   7.849  0.2290  4.6780 -1.8129
  760MOL0     H 2588  10.062   6.629   8.066  1.0138 -1.2847 -1.4801
  760MOL0     H 2589  10.095   6.570   8.283  0.0473  0.0828 -0.3719
  760MOL0     H 2590  10.097   6.486   8.528  1.5980 -0.3756 -0.6494
  760MOL0     H 2591  10.021   6.355   8.608 -0.4666 -1.7832 -1.4833
  760MOL0     H 2592  10.236   6.326   8.484 -1.3498  2.0271  1.0665
  760MOL0     H 2593  10.148   6.305   8.339  1.1920 -0.9369  0.2696
  760MOL0     H 2594  10.009   6.138   8.441  1.7633  1.3477 -1.8226
  760MOL0     H 2595  10.087   6.140   8.594 -0.2187 -0.6807 -0.1805
  760MOL0     H 2596  10.250   6.082   8.329  0.3303  1.5418  0.1649
  760MOL0     H 2597  10.179   5.945   8.414  2.5259 -0.3240 -3.2012
  760MOL0     H 2598  10.536   6.036   8.633 -0.3952  0.5043  2.8572
  760MOL0     H 2599   9.720   6.360   8.283 -0.2663 -0.6882 -1.0929
  760MOL0     H 2600   9.683   6.423   8.066 -1.3698  1.5215  2.8186
  761MOL0     O 2601   8.787   6.769   8.124 -0.3570  0.1971  0.2723
  761MOL0     C 2602   8.906   6.771   8.102 -0.1431  0.1449  0.2086
  761MOL0     O 2603   8.977   6.663   8.057 -0.0699 -0.2729  0.1170
  761MOL0     C 2604   8.910   6.549   8.056 -0.0534 -0.0320 -0.2115
  761MOL0     C 2605   8.902   6.477   7.933  0.0625 -0.4652 -0.6019
  761MOL0     C 2606   8.844   6.351   7.930  0.1463 -0.2472  0.3610
  761MOL0     C 2607   8.772   6.301   8.045 -0.5249  0.2651 -0.6027
  761MOL0     O 2608   8.706   6.186   8.045 -0.2955  0.5515 -0.1975
  761MOL0     C 2609   8.696   6.099   8.165  1.0744 -0.2137 -0.6965
  761MOL0     C 2610   8.634   5.966   8.107 -0.6699 -0.5294 -0.2487
  761MOL0     C 2611   8.512   5.972   8.025  0.6229  0.2532 -0.2837
  761MOL0     C 2612   8.526   5.977   7.864  0.5383  0.4086  0.5328
  761MOL0     C 2613   8.396   6.020   7.790 -0.2593  0.0262 -0.3347
  761MOL0     C 2614   8.395   6.174   7.793 -0.4678 -0.4703  0.9464
  761MOL0     C 2615   8.259   6.237   7.777 -0.7514 -0.1523 -0.0179
  761MOL0     C 2616   8.194   6.218   7.642 -0.0156 -0.0372 -0.5549
  761MOL0     N 2617   8.244   6.294   7.530 -0.1135 -0.1239  0.1224
  761MOL0     C 2618   8.309   6.255   7.417 -0.4332  1.0300  0.3214
  761MOL0     C 2619   8.308   6.350   7.323  0.6294  0.8027 -0.4467
  761MOL0     C 2620   8.371   6.354   7.184 -0.1016 -0.0587 -0.3039
  761MOL0     C 2621   8.397   6.215   7.124 -0.0410  0.4718  0.1718
  761MOL0     C 2622   8.259   6.142   7.099 -0.3122  0.3656  0.6566
  761MOL0     C 2623   8.280   6.016   7.020 -1.2582  0.1210  0.0532
  761MOL0     O 2624   8.295   6.021   6.878  0.2611 -0.4203 -1.0748
  761MOL0     C 2625   8.195   6.009   6.789 -0.2964  0.2011  0.1407
  761MOL0     C 2626   8.237   5.973   6.660  0.7010 -0.0435  0.1461
  761MOL0     C 2627   8.159   5.957   6.548  0.0446  0.5284  1.4019
  761MOL0     C 2628   8.214   5.927   6.403  0.2119 -0.3085 -0.9031
  761MOL0     C 2629   8.012   5.959   6.570 -0.5194 -0.3116 -0.8369
  761MOL0     C 2630   7.905   5.934   6.467 -0.1720  0.5603  0.2373
  761MOL0     O 2631   7.779   5.914   6.506  0.9196 -0.4307 -0.2254
  761MOL0     C 2632   7.664   5.873   6.430  0.3038  0.6602 -0.6082
  761MOL0     C 2633   7.549   5.831   6.503 -0.0045 -0.2313  0.6990
  761MOL0     C 2634   7.432   5.802   6.430  0.2417 -0.0755  0.1943
  761MOL0     C 2635   7.429   5.824   6.293  0.1051 -0.2680  0.4873
  761MOL0     O 2636   7.315   5.780   6.231  0.5545 -0.0907 -0.2009
  761MOL0     C 2637   7.311   5.789   6.085  0.1453  0.1172 -0.7888
  761MOL0     C 2638   7.188   5.731   6.024 -0.0732 -0.3223  0.7464
  761MOL0     C 2639   7.078   5.828   6.042 -0.2324  0.1320 -0.1707
  761MOL0     C 2640   6.938   5.783   5.997 -0.9820 -0.1832  0.6490
  761MOL0     C 2641   6.837   5.902   6.000  0.2497 -0.7047 -0.5127
  761MOL0     C 2642   6.715   5.901   5.899 -0.3900 -0.9964 -1.2012
  761MOL0     C 2643   6.628   5.782   5.915  0.0474 -0.3032 -1.2355
  761MOL0     C 2644   6.584   5.739   6.058 -0.5855 -0.0284  1.3281
  761MOL0    Cl 2645   6.453   5.847   6.102 -0.3416  0.1875 -0.2081
  761MOL0     C 2646   7.547   5.869   6.229 -0.5900  0.4670  0.5743
  761MOL0     C 2647   7.662   5.892   6.295 -0.4057 -0.7692  0.0450
  761MOL0     O 2648   7.938   5.932   6.350  1.1236  0.8431 -0.2872
  761MOL0     C 2649   7.972   5.981   6.704  0.3466 -0.0142  0.0623
  761MOL0     C 2650   8.051   6.004   6.813 -0.7422 -0.4673  0.3942
  761MOL0     N 2651   8.265   6.457   7.394  1.0081  0.1176 -0.5883
  761MOL0     N 2652   8.217   6.421   7.512  0.3410 -0.1460  0.9578
  761MOL0     C 2653   8.786   6.371   8.160 -0.2336 -1.0050 -0.1298
  761MOL0     C 2654   8.853   6.498   8.169 -0.2884  0.2133  0.8973
  761MOL0     C 2655   8.995   6.892   8.112  0.6621 -0.5363 -1.7323
  761MOL0     C 2656   8.986   6.973   8.230  0.3446 -0.5112  0.0978
  761MOL0     C 2657   9.045   7.100   8.233 -0.1755  0.2442  0.7192
  761MOL0     C 2658   9.114   7.149   8.119  1.0143 -0.1679 -0.2763
  761MOL0     O 2659   9.186   7.268   8.138  0.3899 -0.0662 -0.2638
  761MOL0     C 2660   9.232   7.344   8.031  0.1587 -0.8230 -0.2747
  761MOL0     C 2661   9.114   7.411   7.972  0.4948  0.7549  0.0742
  761MOL0     C 2662   9.180   7.472   7.852  0.0260 -0.4715  1.2295
  761MOL0     C 2663   9.073   7.507   7.744  0.0411  0.9751  0.1596
  761MOL0     C 2664   9.133   7.568   7.622 -0.5477  0.9213  0.1272
  761MOL0     C 2665   9.160   7.611   7.510  0.2582  0.8657  0.4343
  761MOL0     C 2666   9.125   7.064   8.006  0.2242 -0.2966  0.2128
  761MOL0     C 2667   9.063   6.940   8.007  0.2860  0.5480  0.4483
  761MOL0     H 2668   8.938   6.512   7.837 -0.9372  1.0824 -0.4318
  761MOL0     H 2669   8.842   6.289   7.841 -1.5713 -2.4310  1.8240
  761MOL0     H 2670   8.786   6.073   8.222 -0.5494 -1.3622  1.5068
  761MOL0     H 2671   8.626   6.137   8.241 -0.6573 -3.2484 -0.5943
  761MOL0     H 2672   8.715   5.936   8.039 -0.3592  2.8063 -1.5524
  761MOL0     H 2673   8.620   5.899   8.192 -0.6186  0.0624  0.2296
  761MOL0     H 2674   8.461   5.877   8.047  0.6348 -0.0623 -1.5437
  761MOL0     H 2675   8.451   6.053   8.065 -0.7850 -1.7935  2.0376
  761MOL0     H 2676   8.608   6.045   7.836  0.0749  1.3992  1.5205
  761MOL0     H 2677   8.547   5.888   7.804 -0.3581  1.3052 -1.1865
  761MOL0     H 2678   8.393   5.970   7.692 -3.4026 -1.5606  0.4673
  761MOL0     H 2679   8.320   5.967   7.848 -0.5891  0.4133 -0.4088
  761MOL0     H 2680   8.440   6.203   7.888  2.1644 -0.7874 -0.1230
  761MOL0     H 2681   8.465   6.211   7.717 -0.3320  0.2727  1.4233
  761MOL0     H 2682   8.188   6.191   7.846  1.6399 -1.9605  1.4098
  761MOL0     H 2683   8.285   6.339   7.806 -0.9056 -1.0087  3.6030
  761MOL0     H 2684   8.084   6.225   7.643 -0.4125 -3.9592 -0.4917
  761MOL0     H 2685   8.209   6.113   7.616  0.1457 -0.7081  1.9464
  761MOL0     H 2686   8.355   6.159   7.398 -0.9914  0.8041  0.1082
  761MOL0     H 2687   8.313   6.404   7.106 -0.2938  0.9532  0.4649
  761MOL0     H 2688   8.468   6.403   7.199 -0.8504  0.5775  3.5551
  761MOL0     H 2689   8.454   6.155   7.195 -0.4744 -0.7565 -0.4806
  761MOL0     H 2690   8.456   6.232   7.033  0.3233  0.1751  0.3498
  761MOL0     H 2691   8.206   6.221   7.045  3.8505  1.1816 -2.7582
  761MOL0     H 2692   8.219   6.126   7.199  1.4809 -0.5656  1.2702
  761MOL0     H 2693   8.192   5.953   7.037 -0.9627 -0.3193 -0.0315
  761MOL0     H 2694   8.363   5.955   7.058 -2.2685 -1.5969 -0.3804
  761MOL0     H 2695   8.344   5.962   6.644  0.4891 -2.1729 -0.0736
  761MOL0     H 2696   8.175   5.996   6.327  0.3488  0.8280  0.0162
  761MOL0     H 2697   8.323   5.930   6.415  0.0277  0.4445  0.9632
  761MOL0     H 2698   8.192   5.824   6.375 -3.3976  0.2262 -0.5162
  761MOL0     H 2699   7.546   5.804   6.608 -0.9229 -2.1735  0.2189
  761MOL0     H 2700   7.340   5.785   6.485  0.7616  0.5975  1.3330
  761MOL0     H 2701   7.319   5.896   6.065  2.2640 -0.3294 -2.6923
  761MOL0     H 2702   7.394   5.733   6.041 -0.0856  1.2031 -2.7311
  761MOL0     H 2703   7.210   5.729   5.917 -0.4641  0.5964  0.6380
  761MOL0     H 2704   7.174   5.637   6.077  0.8442 -1.2254 -0.5706
  761MOL0     H 2705   7.097   5.920   5.986  2.4817 -0.6854 -0.7105
  761MOL0     H 2706   7.076   5.856   6.148 -0.6006 -0.8025  0.0765
  761MOL0     H 2707   6.954   5.757   5.892  0.3195  1.0112  0.5321
  761MOL0     H 2708   6.902   5.695   6.052  0.8210 -0.4127  1.5409
  761MOL0     H 2709   6.895   5.991   5.974 -1.4153  0.8368  0.7932
  761MOL0     H 2710   6.805   5.914   6.104  2.3758  1.2668  0.0047
  761MOL0     H 2711   6.657   5.993   5.913 -0.8817 -1.6948  1.8790
  761MOL0     H 2712   6.743   5.899   5.793 -0.0250 -1.6608 -1.0948
  761MOL0     H 2713   6.690   5.698   5.884 -1.1216 -2.9953  2.9218
  761MOL0     H 2714   6.533   5.784   5.859 -1.3934 -2.1000  0.9757
  761MOL0     H 2715   6.657   5.730   6.139  2.1912 -3.2607 -1.2468
  761MOL0     H 2716   6.536   5.641   6.047 -1.7453  0.2627  3.3316
  761MOL0     H 2717   7.554   5.873   6.121  0.1468  1.7461  0.6491
  761MOL0     H 2718   7.741   5.934   6.233  1.2612 -5.0443 -1.1297
  761MOL0     H 2719   7.864   5.982   6.718  0.2389  0.6533 -0.7660
  761MOL0     H 2720   8.021   6.026   6.915 -1.4973 -1.2063  0.3443
  761MOL0     H 2721   8.741   6.335   8.251  1.8498  1.8924  2.2812
  761MOL0     H 2722   8.864   6.548   8.264  1.2376 -0.0731  0.8852
  761MOL0     H 2723   8.919   6.940   8.308 -2.8550  2.2783 -1.2291
  761MOL0     H 2724   9.047   7.160   8.323 -1.5804 -0.6575  1.3991
  761MOL0     H 2725   9.315   7.409   8.061  1.3641 -3.4267  2.5201
  761MOL0     H 2726   9.278   7.278   7.957  3.9745  2.8479 -1.6167
  761MOL0     H 2727   9.066   7.480   8.042 -1.9786 -1.3013  0.5989
  761MOL0     H 2728   9.052   7.324   7.950  1.6537  0.1030 -0.7155
  761MOL0     H 2729   9.247   7.408   7.795 -3.8645 -1.5259 -2.6844
  761MOL0     H 2730   9.221   7.565   7.892 -2.9573  0.6022  2.0629
  761MOL0     H 2731   9.011   7.589   7.782  1.9595  3.4336 -1.7117
  761MOL0     H 2732   9.028   7.410   7.724  1.3689  0.6087 -1.2634
  761MOL0     H 2733   9.186   7.634   7.409  1.7956  0.2709  0.6673
  761MOL0     H 2734   9.181   7.094   7.918  0.5335 -0.7403  0.2542
  761MOL0     H 2735   9.078   6.878   7.919 -0.0798  1.0855  0.0028
  762MOL0     O 2736   5.116   5.499  11.120 -0.2263  0.4110 -0.0938
  762MOL0     C 2737   5.141   5.588  11.041  0.5327  0.5584 -0.9686
  762MOL0     O 2738   5.094   5.600  10.913 -0.4799  0.0443  0.1942
  762MOL0     C 2739   5.025   5.498  10.859 -0.9109  0.9851  0.1498
  762MOL0     C 2740   4.907   5.525  10.782  0.6219 -0.3699 -0.1389
  762MOL0     C 2741   4.842   5.420  10.718  0.4270  0.7923 -0.6617
  762MOL0     C 2742   4.887   5.291  10.722  0.0397  0.4726  0.1254
  762MOL0     O 2743   4.823   5.190  10.670 -0.2546 -0.5138  0.6147
  762MOL0     C 2744   4.794   5.198  10.528 -0.1318  0.0363  0.6897
  762MOL0     C 2745   4.883   5.097  10.458  0.3510 -0.0349  0.5109
  762MOL0     C 2746   4.863   5.070  10.314  0.4736  0.6554 -0.3222
  762MOL0     C 2747   4.720   5.040  10.286 -0.1125 -0.5661 -0.0643
  762MOL0     C 2748   4.686   5.016  10.133  0.7148 -0.4221 -0.4231
  762MOL0     C 2749   4.784   4.910  10.071 -0.3480  0.1625 -1.1922
  762MOL0     C 2750   4.698   4.840   9.964 -0.1441 -0.4473 -0.1114
  762MOL0     C 2751   4.678   4.940   9.838  0.0687 -0.1072 -0.2127
  762MOL0     N 2752   4.600   4.883   9.730  0.1452  0.5606  0.4577
  762MOL0     C 2753   4.618   4.772   9.663  0.1722  0.8801  0.1885
  762MOL0     C 2754   4.513   4.763   9.575  0.2587 -0.1876 -0.1890
  762MOL0     C 2755   4.517   4.667   9.453  0.3187  0.2387 -0.2960
  762MOL0     C 2756   4.576   4.725   9.325  0.0602  0.0191  0.5418
  762MOL0     C 2757   4.470   4.806   9.249  0.8834  0.1654  1.0975
  762MOL0     C 2758   4.512   4.857   9.106 -0.4996 -0.7900  0.8094
  762MOL0     O 2759   4.557   4.739   9.028 -0.8822 -0.5600  0.4061
  762MOL0     C 2760   4.464   4.651   8.967  0.3637  0.6903 -0.5632
  762MOL0     C 2761   4.492   4.523   8.980 -0.3266 -0.5123 -0.4957
  762MOL0     C 2762   4.427   4.424   8.908 -0.3069 -0.6253  0.0735
  762MOL0     C 2763   4.475   4.281   8.911  0.1036  0.2696 -1.1514
  762MOL0     C 2764   4.325   4.464   8.813 -0.1062 -0.2636  0.1884
  762MOL0     C 2765   4.248   4.366   8.721  0.8304  0.2925  0.8284
  762MOL0     O 2766   4.207   4.244   8.766 -0.2910  0.4889 -0.1325
  762MOL0     C 2767   4.152   4.156   8.675 -0.2046 -0.1637 -0.0612
  762MOL0     C 2768   4.224   4.041   8.645  0.8534 -0.5352 -0.7763
  762MOL0     C 2769   4.165   3.937   8.561  0.1206 -0.2353 -0.4836
  762MOL0     C 2770   4.035   3.965   8.510 -0.2041 -0.5822 -0.6572
  762MOL0     O 2771   3.973   3.892   8.408 -0.7052 -0.3880 -0.5113
  762MOL0     C 2772   3.968   3.963   8.278  0.0555 -0.4669 -0.7848
  762MOL0     C 2773   4.060   3.903   8.178 -0.2925 -0.0522  0.3491
  762MOL0     C 2774   4.006   3.945   8.041 -0.6000  0.0249 -0.6005
  762MOL0     C 2775   4.076   3.876   7.921 -0.1295  0.1635 -0.2060
  762MOL0     C 2776   4.017   3.921   7.777 -1.2245  0.0302 -0.4233
  762MOL0     C 2777   3.861   3.903   7.771 -0.0724 -0.4065 -0.6294
  762MOL0     C 2778   3.815   3.880   7.631 -0.2454 -0.4399  0.3158
  762MOL0     C 2779   3.663   3.878   7.640 -0.2926  0.8089 -0.0927
  762MOL0    Cl 2780   3.580   3.883   7.488 -0.0490 -0.1743 -0.5535
  762MOL0     C 2781   3.970   4.081   8.544 -0.6246 -0.1109  0.3062
  762MOL0     C 2782   4.033   4.181   8.615  0.5267  0.5351  0.0035
  762MOL0     O 2783   4.208   4.412   8.619  1.0436 -0.6310 -0.9037
  762MOL0     C 2784   4.290   4.598   8.808 -0.0649 -0.0767 -0.1694
  762MOL0     C 2785   4.354   4.687   8.888 -0.0160 -0.7316 -0.0010
  762MOL0     N 2786   4.430   4.868   9.594  0.1494  0.8512  0.5270
  762MOL0     N 2787   4.490   4.937   9.680 -0.5637  1.0668  0.1012
  762MOL0     C 2788   4.996   5.261  10.794 -0.0363  0.1380  0.1165
  762MOL0     C 2789   5.063   5.367  10.857 -0.2600 -0.9366 -1.1425
  762MOL0     C 2790   5.234   5.691  11.092  0.8673 -0.8783  1.0152
  762MOL0     C 2791   5.303   5.768  11.001  0.0884 -0.1733 -0.6230
  762MOL0     C 2792   5.383   5.870  11.036 -1.8674 -0.0062 -0.7420
  762MOL0     C 2793   5.414   5.898  11.167  0.0041  0.8849 -0.3556
  762MOL0     O 2794   5.517   5.990  11.185  1.3875 -0.2387  0.3876
  762MOL0     C 2795   5.597   5.981  11.304 -0.3110  0.6861 -0.0731
  762MOL0     C 2796   5.533   6.057  11.423 -0.0189 -0.4649  0.0371
  762MOL0     C 2797   5.600   6.020  11.558  0.2175 -0.1200  0.7748
  762MOL0     C 2798   5.588   6.128  11.665  0.3667 -0.9555 -0.3278
  762MOL0     C 2799   5.684   6.112  11.773 -0.5556 -0.1101  0.2194
  762MOL0     C 2800   5.762   6.102  11.861  0.4154 -0.5355  0.6597
  762MOL0     C 2801   5.346   5.819  11.263 -0.0321 -1.0491 -0.5081
  762MOL0     C 2802   5.256   5.718  11.225  0.3085  0.4618 -0.3297
  762MOL0     H 2803   4.867   5.625  10.783  1.7432  0.0992  0.4591
  762MOL0     H 2804   4.752   5.440  10.662  0.1802 -4.2758 -2.5770
  762MOL0     H 2805   4.687   5.177  10.525 -0.9471  3.6870 -0.6129
  762MOL0     H 2806   4.806   5.301  10.494 -2.2503 -0.0191 -0.3436
  762MOL0     H 2807   4.986   5.128  10.482  0.1824 -0.4241  1.8034
  762MOL0     H 2808   4.861   5.009  10.519 -0.8157 -0.5006 -0.5510
  762MOL0     H 2809   4.886   5.161  10.259 -0.1415  1.6909  1.0828
  762MOL0     H 2810   4.935   4.993  10.283  2.1385  2.8201 -2.1497
  762MOL0     H 2811   4.678   4.965  10.354 -2.4176  1.0286  0.3778
  762MOL0     H 2812   4.670   5.133  10.313  1.1732  0.0351  0.3211
  762MOL0     H 2813   4.584   4.979  10.120  0.1629  1.7038 -3.0339
  762MOL0     H 2814   4.686   5.108  10.074 -0.7238  0.0373  0.2522
  762MOL0     H 2815   4.879   4.946  10.031  0.0523  1.4276  0.7389
  762MOL0     H 2816   4.803   4.828  10.140 -1.3102  0.7129 -0.2365
  762MOL0     H 2817   4.756   4.752   9.934  1.2307 -0.2815  1.8983
  762MOL0     H 2818   4.593   4.812   9.980 -0.7387 -0.7145 -3.6412
  762MOL0     H 2819   4.769   4.980   9.791 -0.8298  0.6815 -1.3514
  762MOL0     H 2820   4.636   5.034   9.874  0.3966 -1.3432  3.8132
  762MOL0     H 2821   4.706   4.709   9.663 -0.8671 -0.6583  1.1312
  762MOL0     H 2822   4.578   4.578   9.469 -1.4770 -1.2343 -1.3033
  762MOL0     H 2823   4.414   4.631   9.442  0.6850 -0.7351 -0.6826
  762MOL0     H 2824   4.604   4.638   9.265 -3.3078 -1.5501  1.0212
  762MOL0     H 2825   4.658   4.790   9.356  2.0049 -2.4764  0.9500
  762MOL0     H 2826   4.438   4.890   9.311 -0.3264 -1.1036  2.2519
  762MOL0     H 2827   4.379   4.747   9.234  0.7224  1.0586 -2.2752
  762MOL0     H 2828   4.592   4.930   9.122 -1.4038 -0.3668  4.1090
  762MOL0     H 2829   4.432   4.904   9.048  0.5218 -0.8206 -0.6808
  762MOL0     H 2830   4.584   4.512   9.037  0.4218 -0.6543 -1.6915
  762MOL0     H 2831   4.548   4.280   8.993 -1.2377 -3.1784  0.1699
  762MOL0     H 2832   4.396   4.218   8.953 -0.5678  3.4748  3.0696
  762MOL0     H 2833   4.523   4.234   8.825  2.2106  2.0018 -1.0186
  762MOL0     H 2834   4.322   4.039   8.691  0.1492  4.4919  1.6786
  762MOL0     H 2835   4.226   3.849   8.543 -0.8214 -1.6550  2.5540
  762MOL0     H 2836   3.868   3.952   8.236  1.0180  0.2580 -3.4335
  762MOL0     H 2837   3.987   4.070   8.282 -1.6599 -0.1516  1.1869
  762MOL0     H 2838   4.164   3.934   8.188 -0.0767 -1.0264  1.2496
  762MOL0     H 2839   4.059   3.794   8.190  0.6733 -0.4042 -2.0738
  762MOL0     H 2840   4.022   4.052   8.026  1.5099 -0.4944 -2.5954
  762MOL0     H 2841   3.897   3.935   8.042 -0.6473  0.2985 -1.5190
  762MOL0     H 2842   4.185   3.878   7.919 -0.1300  2.3978 -0.5698
  762MOL0     H 2843   4.058   3.768   7.918 -0.4002  0.2328 -1.3513
  762MOL0     H 2844   4.065   3.864   7.696  1.9352  2.0933 -0.1831
  762MOL0     H 2845   4.047   4.025   7.757 -2.5619  0.2844 -1.2722
  762MOL0     H 2846   3.821   3.831   7.843  0.0045 -0.6148 -0.7940
  762MOL0     H 2847   3.820   3.999   7.802 -1.7680 -1.3456  0.1220
  762MOL0     H 2848   3.862   3.785   7.604  1.3672  0.4841 -0.2993
  762MOL0     H 2849   3.845   3.957   7.559 -1.3490 -2.8075 -2.8899
  762MOL0     H 2850   3.625   3.954   7.709 -0.9472  0.3044  0.1129
  762MOL0     H 2851   3.632   3.784   7.686  0.5318  0.8417  0.5459
  762MOL0     H 2852   3.870   4.102   8.507  0.2447  3.6022 -0.3949
  762MOL0     H 2853   3.967   4.266   8.626 -0.9360 -0.6196  0.5292
  762MOL0     H 2854   4.213   4.628   8.738 -0.6533 -0.2154  0.4104
  762MOL0     H 2855   4.317   4.786   8.861  0.2975 -0.0820  1.7979
  762MOL0     H 2856   5.040   5.162  10.788  1.6811  0.8279  0.7020
  762MOL0     H 2857   5.146   5.342  10.923 -0.7389  0.0210 -0.1350
  762MOL0     H 2858   5.299   5.745  10.895  2.5005 -0.0125 -0.8189
  762MOL0     H 2859   5.438   5.928  10.962 -0.3655 -2.2502 -1.4990
  762MOL0     H 2860   5.612   5.875  11.327 -0.7229  0.2945 -1.5214
  762MOL0     H 2861   5.700   6.019  11.298 -1.0470  2.9263  0.6026
  762MOL0     H 2862   5.426   6.047  11.440  0.2710 -0.1717  2.5116
  762MOL0     H 2863   5.542   6.166  11.415  1.8088 -0.5379  0.5016
  762MOL0     H 2864   5.706   5.999  11.537 -0.1963 -0.9230 -0.5882
  762MOL0     H 2865   5.554   5.925  11.588  0.8482 -1.3858 -1.9993
  762MOL0     H 2866   5.489   6.109  11.708  0.0816 -0.5302 -0.7926
  762MOL0     H 2867   5.582   6.227  11.620  0.4435  0.1237  1.8943
  762MOL0     H 2868   5.832   6.070  11.936  1.5903  0.5354  0.0608
  762MOL0     H 2869   5.341   5.831  11.371 -1.3547 -1.5503 -0.4985
  762MOL0     H 2870   5.218   5.642  11.293  0.4840 -0.1273 -0.8839
  763MOL0     O 2871   5.621   0.678   6.362  0.1550 -0.6120  0.4387
  763MOL0     C 2872   5.608   0.770   6.281  0.1089 -0.8930  0.4518
  763MOL0     O 2873   5.544   0.885   6.312  0.5204  0.4724 -0.2271
  763MOL0     C 2874   5.461   0.881   6.411 -0.3185 -0.4205 -0.3477
  763MOL0     C 2875   5.329   0.839   6.398 -0.2176  0.2431 -0.3473
  763MOL0     C 2876   5.242   0.853   6.498 -0.0434 -0.3474  0.3460
  763MOL0     C 2877   5.276   0.906   6.625  0.2638 -0.0810  0.8045
  763MOL0     O 2878   5.178   0.902   6.727  0.3007 -0.5923  0.2631
  763MOL0     C 2879   5.150   1.018   6.814  0.2082 -0.4797  0.1288
  763MOL0     C 2880   5.004   1.048   6.824 -0.7327 -0.4197 -0.1129
  763MOL0     C 2881   4.939   0.948   6.932  0.2566  0.0489  0.3323
  763MOL0     C 2882   4.782   0.943   6.900 -0.2183 -0.3660  0.5744
  763MOL0     C 2883   4.730   0.797   6.920  0.1128  0.2387 -1.2054
  763MOL0     C 2884   4.590   0.783   6.876 -0.6339 -0.8056 -0.9947
  763MOL0     C 2885   4.524   0.653   6.911  0.0196  0.2055  0.0718
  763MOL0     C 2886   4.372   0.655   6.888 -0.3525  0.0911 -1.2266
  763MOL0     N 2887   4.289   0.733   6.990  0.5090 -0.0712  0.1273
  763MOL0     C 2888   4.287   0.703   7.120  0.1751  0.0520  0.9477
  763MOL0     C 2889   4.216   0.799   7.183  0.6813 -1.0302 -0.4070
  763MOL0     C 2890   4.188   0.791   7.338  0.3979 -0.2375  0.5645
  763MOL0     C 2891   4.063   0.871   7.379 -0.1001 -0.4840 -0.2703
  763MOL0     C 2892   4.099   1.014   7.390  0.1135 -1.0203  0.5903
  763MOL0     C 2893   3.976   1.099   7.457  0.2551  0.1289  0.0158
  763MOL0     O 2894   3.886   1.114   7.346 -0.0437 -0.6190 -0.4935
  763MOL0     C 2895   3.787   1.211   7.362  0.7859 -1.0718  0.2442
  763MOL0     C 2896   3.756   1.288   7.482  0.9753 -0.1715  0.8162
  763MOL0     C 2897   3.643   1.378   7.473 -0.0623 -0.8549 -0.0645
  763MOL0     C 2898   3.602   1.445   7.599  0.3707 -0.2209 -0.0365
  763MOL0     C 2899   3.564   1.384   7.352  0.6234  0.5091 -0.6033
  763MOL0     C 2900   3.451   1.486   7.331  0.2387 -0.5624  0.5620
  763MOL0     O 2901   3.445   1.555   7.211  0.0222 -1.0307  0.2161
  763MOL0     C 2902   3.356   1.657   7.200  0.2306 -0.0486  0.1614
  763MOL0     C 2903   3.215   1.647   7.218  0.6218 -0.6512  0.5472
  763MOL0     C 2904   3.131   1.753   7.221  0.1212 -0.1181 -0.0308
  763MOL0     C 2905   3.182   1.882   7.185  0.2204 -0.7539  0.9645
  763MOL0     O 2906   3.089   1.976   7.163  0.2482 -0.9933  0.5581
  763MOL0     C 2907   3.115   2.098   7.099  0.1331 -0.6438 -0.4136
  763MOL0     C 2908   3.075   2.220   7.192  0.1354  0.5141 -0.7147
  763MOL0     C 2909   3.094   2.362   7.145  1.1575  0.8042  0.2493
  763MOL0     C 2910   3.216   2.421   7.215  0.2210 -0.0888  0.2352
  763MOL0     C 2911   3.278   2.540   7.134  0.0972 -0.3895 -0.0390
  763MOL0     C 2912   3.204   2.670   7.152 -0.1892 -0.1894  1.1011
  763MOL0     C 2913   3.301   2.783   7.107  0.1196  0.2079 -0.8757
  763MOL0     C 2914   3.328   2.768   6.956  0.6861 -0.3088 -0.3472
  763MOL0    Cl 2915   3.401   2.915   6.893  0.1850 -0.2792 -0.3201
  763MOL0     C 2916   3.320   1.897   7.153 -0.5117 -0.2180 -0.4396
  763MOL0     C 2917   3.404   1.783   7.164 -0.2405 -0.0652  0.0602
  763MOL0     O 2918   3.373   1.507   7.425  0.6216  0.0884  0.0524
  763MOL0     C 2919   3.598   1.309   7.246  0.5242  0.2199 -0.0087
  763MOL0     C 2920   3.700   1.214   7.255 -0.5799 -0.6632 -0.4532
  763MOL0     N 2921   4.174   0.884   7.079 -0.8938  0.1430 -0.4355
  763MOL0     N 2922   4.222   0.849   6.963  0.2876 -0.2424 -1.4648
  763MOL0     C 2923   5.398   0.977   6.636 -0.2739 -0.5979 -0.0584
  763MOL0     C 2924   5.490   0.963   6.527 -0.7645  0.5782 -0.7677
  763MOL0     C 2925   5.672   0.761   6.154  0.4138  0.0852 -0.1162
  763MOL0     C 2926   5.671   0.866   6.062 -0.3245  0.1272 -1.1323
  763MOL0     C 2927   5.728   0.849   5.937 -0.1344  0.3326 -0.0993
  763MOL0     C 2928   5.807   0.743   5.906 -0.3130  0.1846  0.1133
  763MOL0     O 2929   5.873   0.717   5.788 -0.5681  0.2676  0.5636
  763MOL0     C 2930   5.847   0.823   5.684 -0.3414  0.1800 -0.8138
  763MOL0     C 2931   5.939   0.798   5.569 -0.3360 -0.6977  1.3952
  763MOL0     C 2932   5.900   0.895   5.449 -0.0074  0.1436 -1.3183
  763MOL0     C 2933   5.993   0.885   5.326  0.2117 -0.2406  0.7340
  763MOL0     C 2934   6.035   0.756   5.273 -0.5675  0.7105 -0.8915
  763MOL0     C 2935   6.079   0.641   5.249  0.3169 -0.4768  0.0390
  763MOL0     C 2936   5.806   0.633   5.992  0.2007 -0.0205 -0.1731
  763MOL0     C 2937   5.733   0.639   6.116 -0.6655 -0.7534 -0.3906
  763MOL0     H 2938   5.306   0.790   6.303 -1.5975  0.4899 -0.1592
  763MOL0     H 2939   5.138   0.827   6.480  0.8183 -2.0618 -2.9195
  763MOL0     H 2940   5.191   1.010   6.915 -2.5900  3.2825  1.7928
  763MOL0     H 2941   5.198   1.107   6.771  1.4303 -1.7374 -1.2282
  763MOL0     H 2942   4.982   1.150   6.855  1.1681  0.2157 -0.7284
  763MOL0     H 2943   4.955   1.041   6.726  2.2190  1.1553 -1.8258
  763MOL0     H 2944   4.982   0.848   6.914 -0.8783 -0.4186  0.1496
  763MOL0     H 2945   4.943   0.975   7.038  4.6612  1.6053 -0.0201
  763MOL0     H 2946   4.726   1.016   6.959 -2.2078 -0.4072 -1.1447
  763MOL0     H 2947   4.763   0.961   6.794  1.4977  1.8444  0.5825
  763MOL0     H 2948   4.791   0.722   6.869 -0.0427 -0.2129 -0.7268
  763MOL0     H 2949   4.729   0.770   7.026 -2.2436  0.8541 -1.0171
  763MOL0     H 2950   4.530   0.869   6.907  1.0395 -0.5583  1.9487
  763MOL0     H 2951   4.606   0.784   6.768  0.6182 -1.9293 -0.8584
  763MOL0     H 2952   4.552   0.580   6.835 -0.7184  0.2278 -0.2281
  763MOL0     H 2953   4.535   0.635   7.018 -0.3780  0.6187  0.1842
  763MOL0     H 2954   4.335   0.553   6.906 -2.1554  0.5101 -2.3440
  763MOL0     H 2955   4.357   0.689   6.785  0.9462 -0.7336 -1.7032
  763MOL0     H 2956   4.326   0.613   7.164 -0.8060 -0.5575  0.6181
  763MOL0     H 2957   4.193   0.685   7.366 -0.7482 -0.0737  1.4917
  763MOL0     H 2958   4.279   0.834   7.380  1.4106  0.7277 -2.3607
  763MOL0     H 2959   4.036   0.838   7.480  1.6211 -1.6925 -0.1625
  763MOL0     H 2960   3.986   0.849   7.306  1.5099  0.4249 -2.3463
  763MOL0     H 2961   4.117   1.049   7.288  0.6740 -2.4326  0.1768
  763MOL0     H 2962   4.179   1.016   7.464  1.3345 -2.0771 -0.6538
  763MOL0     H 2963   4.014   1.195   7.493  1.5055 -0.4155  0.1908
  763MOL0     H 2964   3.930   1.031   7.530  1.0782  2.4511  2.8893
  763MOL0     H 2965   3.803   1.276   7.579 -1.5606 -0.5797  2.0897
  763MOL0     H 2966   3.596   1.548   7.561  1.1637 -0.3321 -0.4989
  763MOL0     H 2967   3.508   1.400   7.629  1.3402 -5.4905 -3.5627
  763MOL0     H 2968   3.686   1.442   7.669 -0.3722  0.9774  0.9440
  763MOL0     H 2969   3.171   1.550   7.239  2.0954 -1.0169  2.1745
  763MOL0     H 2970   3.028   1.719   7.225 -0.3571  1.2297 -0.3439
  763MOL0     H 2971   3.219   2.117   7.072  0.5507 -1.4636  0.5564
  763MOL0     H 2972   3.060   2.108   7.005 -1.0262  0.2948  0.3332
  763MOL0     H 2973   2.967   2.207   7.205  0.0105 -1.6983 -3.2158
  763MOL0     H 2974   3.123   2.204   7.290 -0.5088 -0.8874 -0.6154
  763MOL0     H 2975   3.004   2.418   7.174  0.4621 -1.1317  2.1232
  763MOL0     H 2976   3.107   2.364   7.037 -1.8301 -2.8320 -0.4035
  763MOL0     H 2977   3.198   2.447   7.320  1.6994 -2.3466  1.1369
  763MOL0     H 2978   3.293   2.344   7.224  1.4462  1.2918  2.3636
  763MOL0     H 2979   3.287   2.515   7.028 -3.6938 -1.8814 -0.1351
  763MOL0     H 2980   3.379   2.568   7.167  0.3350 -1.8378  0.5387
  763MOL0     H 2981   3.106   2.664   7.104  0.0201  0.3823  0.5794
  763MOL0     H 2982   3.178   2.690   7.256  1.0238  2.6800  0.9477
  763MOL0     H 2983   3.397   2.781   7.160 -0.1615 -0.2958 -0.3779
  763MOL0     H 2984   3.248   2.876   7.129  1.2209  0.5416  0.5287
  763MOL0     H 2985   3.230   2.750   6.912  0.2842  1.7129 -0.3842
  763MOL0     H 2986   3.401   2.691   6.931  0.4598 -0.0908 -1.7115
  763MOL0     H 2987   3.377   1.987   7.128  2.2499 -1.4733  0.8547
  763MOL0     H 2988   3.512   1.799   7.165 -0.1793 -0.4653  1.2993
  763MOL0     H 2989   3.548   1.325   7.151  3.4593  3.0026 -1.2943
  763MOL0     H 2990   3.731   1.153   7.171  2.2034 -1.5471  1.0881
  763MOL0     H 2991   5.438   1.027   6.724  0.8512  0.1273 -0.9555
  763MOL0     H 2992   5.588   1.010   6.537 -0.3419 -0.5041  0.4844
  763MOL0     H 2993   5.639   0.968   6.083  1.9452  0.3280  2.1698
  763MOL0     H 2994   5.723   0.934   5.871 -0.5321  0.6610  0.3469
  763MOL0     H 2995   5.749   0.828   5.636  0.6804 -0.4098 -3.1100
  763MOL0     H 2996   5.878   0.923   5.715  2.7939  0.2614 -3.5856
  763MOL0     H 2997   5.920   0.700   5.526  2.1350  0.1128 -1.9607
  763MOL0     H 2998   6.044   0.799   5.601 -0.2218  1.5701  1.1210
  763MOL0     H 2999   5.917   0.998   5.481 -1.8653  0.8546 -2.5018
  763MOL0     H 3000   5.797   0.883   5.414  0.7856 -0.0924 -3.7740
  763MOL0     H 3001   6.086   0.935   5.354  0.3712  0.5218 -1.0338
  763MOL0     H 3002   5.934   0.931   5.246 -0.7618 -1.7577  0.5374
  763MOL0     H 3003   6.128   0.549   5.227 -0.2017 -1.3616  2.3249
  763MOL0     H 3004   5.879   0.556   5.971  1.6959  0.9795  1.1489
  763MOL0     H 3005   5.740   0.552   6.180  1.0701  1.5067  2.7990
  764MOL0     O 3006   9.549   4.210   4.701  0.9604 -0.2231  0.1443
  764MOL0     C 3007   9.580   4.103   4.653  0.4540 -0.2102 -0.5446
  764MOL0     O 3008   9.654   4.087   4.533 -1.1801  0.5577  0.2031
  764MOL0     C 3009   9.719   4.201   4.487  0.1115 -0.6337  0.1808
  764MOL0     C 3010   9.841   4.241   4.544  0.3027 -0.7493 -0.1861
  764MOL0     C 3011   9.903   4.359   4.494 -0.3000  0.1415 -0.0821
  764MOL0     C 3012   9.861   4.424   4.373  0.1623 -0.9240 -0.5509
  764MOL0     O 3013   9.941   4.524   4.330  0.4772  0.0467 -0.2878
  764MOL0     C 3014   9.869   4.647   4.314 -0.3976  0.8972 -0.2897
  764MOL0     C 3015   9.967   4.766   4.353  0.0185  1.7993  0.1130
  764MOL0     C 3016  10.036   4.743   4.491 -0.7107  0.0471 -0.1146
  764MOL0     C 3017   9.937   4.764   4.608 -0.3843  0.2043  0.4078
  764MOL0     C 3018  10.025   4.752   4.723 -0.3124  0.1196  0.4733
  764MOL0     C 3019   9.946   4.730   4.854 -1.1907  0.7367  0.6458
  764MOL0     C 3020  10.037   4.679   4.967  0.1107  0.2140  0.5993
  764MOL0     C 3021   9.944   4.650   5.086  0.5319  0.5238  0.3376
  764MOL0     N 3022   9.920   4.504   5.094  0.5295 -0.3580 -0.9380
  764MOL0     C 3023   9.875   4.418   4.999  0.4193  0.2431  1.8400
  764MOL0     C 3024   9.879   4.298   5.056  0.0168  0.8405 -0.1255
  764MOL0     C 3025   9.855   4.174   4.984 -0.2708 -1.9642  0.6245
  764MOL0     C 3026   9.834   4.055   5.075  0.0942  0.4362  0.3909
  764MOL0     C 3027   9.854   3.922   4.992 -0.7146  0.1317  0.5668
  764MOL0     C 3028   9.818   3.800   5.075 -0.8159 -0.9191 -0.4456
  764MOL0     O 3029   9.918   3.705   5.061  0.5444 -0.4094  0.3671
  764MOL0     C 3030   9.867   3.586   5.021  0.3949  0.0562 -0.2421
  764MOL0     C 3031   9.837   3.495   5.124  0.0594  0.0208  0.1601
  764MOL0     C 3032   9.774   3.366   5.111 -0.2363 -0.9989  0.1953
  764MOL0     C 3033   9.760   3.287   5.245 -0.5671 -0.6396 -0.1033
  764MOL0     C 3034   9.738   3.323   4.978  0.0513  0.6997 -0.6904
  764MOL0     C 3035   9.672   3.190   4.949 -0.6447 -0.7403  1.1416
  764MOL0     O 3036   9.680   3.094   5.036 -0.2041 -0.1092  0.4005
  764MOL0     C 3037   9.632   2.979   4.995 -0.1857 -0.5993  0.7885
  764MOL0     C 3038   9.504   2.942   5.028  0.5694  0.5571 -0.3095
  764MOL0     C 3039   9.449   2.831   4.974  0.1144  0.6797 -0.4046
  764MOL0     C 3040   9.517   2.746   4.888  0.4866  0.7927  0.3636
  764MOL0     O 3041   9.452   2.649   4.812  0.1642  0.3464  0.3960
  764MOL0     C 3042   9.456   2.665   4.670  0.7040  0.7465 -0.0435
  764MOL0     C 3043   9.448   2.809   4.620 -0.2617  0.5830 -0.4024
  764MOL0     C 3044   9.296   2.847   4.612 -0.8283 -0.4140 -0.2018
  764MOL0     C 3045   9.267   2.997   4.623 -0.4035 -0.4730  0.2015
  764MOL0     C 3046   9.321   3.090   4.502 -0.1458  0.8175  0.2468
  764MOL0     C 3047   9.274   3.238   4.501  0.3321  1.2823 -0.7700
  764MOL0     C 3048   9.329   3.319   4.621 -0.7589  0.3890  0.6347
  764MOL0     C 3049   9.472   3.361   4.588 -0.4886  0.2288  0.1329
  764MOL0    Cl 3050   9.485   3.452   4.432  0.1275 -0.1759  0.1336
  764MOL0     C 3051   9.649   2.766   4.872 -0.8826 -1.2295 -0.2223
  764MOL0     C 3052   9.712   2.885   4.921  0.6813 -0.3074  0.5066
  764MOL0     O 3053   9.626   3.176   4.838 -0.3933 -0.2167 -0.2310
  764MOL0     C 3054   9.745   3.424   4.877 -0.4508 -0.4930 -0.1776
  764MOL0     C 3055   9.797   3.556   4.902  0.6820  0.3165 -0.1832
  764MOL0     N 3056   9.920   4.308   5.188  0.5457  0.2739  0.6390
  764MOL0     N 3057   9.936   4.433   5.204 -0.1777 -0.2110 -0.7333
  764MOL0     C 3058   9.738   4.374   4.313 -0.3338 -0.6243  0.7243
  764MOL0     C 3059   9.667   4.269   4.374 -0.0679  0.1676 -0.2634
  764MOL0     C 3060   9.517   3.986   4.718  0.7393 -0.9435 -0.4662
  764MOL0     C 3061   9.478   3.999   4.858  0.3853 -0.1292 -0.4818
  764MOL0     C 3062   9.420   3.886   4.929 -0.5075  0.0812  0.3842
  764MOL0     C 3063   9.388   3.768   4.864  0.6358 -0.3983 -0.8598
  764MOL0     O 3064   9.334   3.656   4.930  0.5132 -0.1651  0.8097
  764MOL0     C 3065   9.409   3.571   5.003 -0.6455  0.7442 -0.1529
  764MOL0     C 3066   9.329   3.485   5.100 -0.1439  0.4714  0.0638
  764MOL0     C 3067   9.253   3.374   5.029 -0.3392  0.2464  0.6823
  764MOL0     C 3068   9.216   3.266   5.130 -0.1130 -0.3480 -0.0884
  764MOL0     C 3069   9.150   3.144   5.078 -0.4934  0.8437  1.0976
  764MOL0     C 3070   9.093   3.044   5.054  0.7432  0.6710  2.2899
  764MOL0     C 3071   9.417   3.763   4.728  0.6790 -0.6152 -0.4104
  764MOL0     C 3072   9.481   3.866   4.654  0.8536 -0.2008 -0.7584
  764MOL0     H 3073   9.875   4.181   4.628  3.1464  1.4173  0.3966
  764MOL0     H 3074   9.992   4.401   4.540  1.3455 -2.8246 -0.2594
  764MOL0     H 3075   9.831   4.641   4.212  0.0311 -1.0160 -0.3827
  764MOL0     H 3076   9.786   4.645   4.385 -0.7334 -2.8254 -0.6060
  764MOL0     H 3077  10.036   4.782   4.270  0.6578  2.3667  0.7420
  764MOL0     H 3078   9.904   4.856   4.358  1.3213  2.6810  1.7515
  764MOL0     H 3079  10.090   4.648   4.495 -0.0605  0.3947 -0.4107
  764MOL0     H 3080  10.119   4.814   4.496  1.5466 -2.2734 -1.9477
  764MOL0     H 3081   9.893   4.862   4.589 -0.4261  0.0035 -0.6214
  764MOL0     H 3082   9.850   4.697   4.613 -2.0572  2.3592  1.9474
  764MOL0     H 3083  10.095   4.669   4.717 -2.6869 -2.2163  2.5923
  764MOL0     H 3084  10.091   4.839   4.730  0.7814 -0.2514 -3.0174
  764MOL0     H 3085   9.893   4.822   4.880 -3.7196 -0.3691 -0.1898
  764MOL0     H 3086   9.872   4.652   4.833 -0.4436 -0.0358  0.8247
  764MOL0     H 3087  10.083   4.590   4.924  1.4731  1.5740 -0.8668
  764MOL0     H 3088  10.115   4.753   4.988 -1.4596  2.2336 -0.2593
  764MOL0     H 3089   9.857   4.714   5.101  0.4898  0.5185  0.1189
  764MOL0     H 3090  10.006   4.662   5.175  2.0852 -3.8440  0.0981
  764MOL0     H 3091   9.876   4.432   4.891 -0.9569 -0.3033  1.7374
  764MOL0     H 3092   9.776   4.187   4.909 -0.3033 -1.8009  0.6866
  764MOL0     H 3093   9.946   4.145   4.931  1.5173 -2.1497  3.5855
  764MOL0     H 3094   9.730   4.052   5.111 -0.5647  1.1103 -1.3297
  764MOL0     H 3095   9.904   4.065   5.158 -1.5830  0.5372  1.8652
  764MOL0     H 3096   9.955   3.911   4.951 -0.9728 -3.0371  0.4860
  764MOL0     H 3097   9.785   3.930   4.908 -1.7013  1.5462  1.4839
  764MOL0     H 3098   9.710   3.783   5.065 -0.7770 -0.5956 -1.6775
  764MOL0     H 3099   9.832   3.830   5.179 -0.9662  1.8947 -1.1461
  764MOL0     H 3100   9.883   3.536   5.213  1.7027  1.4846 -1.2750
  764MOL0     H 3101   9.652   3.270   5.249 -0.9945  0.5177 -3.3723
  764MOL0     H 3102   9.810   3.191   5.230  0.5076 -0.2337  0.7583
  764MOL0     H 3103   9.796   3.336   5.335  0.6336 -1.8547  0.1178
  764MOL0     H 3104   9.439   3.000   5.092 -0.4372 -0.3040 -0.5003
  764MOL0     H 3105   9.344   2.805   4.989  0.1311 -0.3657 -1.9295
  764MOL0     H 3106   9.551   2.627   4.631  2.0425  2.6449  1.2169
  764MOL0     H 3107   9.378   2.601   4.627  0.7125 -1.6731  3.1376
  764MOL0     H 3108   9.513   2.879   4.673  0.3585 -0.7338  0.6484
  764MOL0     H 3109   9.482   2.821   4.516 -0.4355 -0.9591 -0.6690
  764MOL0     H 3110   9.241   2.793   4.689  0.5408  0.4513  1.4335
  764MOL0     H 3111   9.265   2.821   4.510 -0.6586  0.3509 -0.4556
  764MOL0     H 3112   9.158   3.012   4.621 -0.3620 -0.1529  0.3436
  764MOL0     H 3113   9.309   3.040   4.714  1.3531  3.3300 -2.1160
  764MOL0     H 3114   9.293   3.045   4.407  4.2663 -0.5369 -0.6658
  764MOL0     H 3115   9.431   3.088   4.503 -0.1253 -0.2491 -1.3130
  764MOL0     H 3116   9.295   3.289   4.406  3.7907 -0.1169 -0.8837
  764MOL0     H 3117   9.165   3.231   4.513  0.6110  1.4346  2.7348
  764MOL0     H 3118   9.338   3.258   4.712 -2.2362  4.3095  3.7043
  764MOL0     H 3119   9.271   3.410   4.640  2.3322  2.7036 -0.4224
  764MOL0     H 3120   9.535   3.271   4.585 -2.5209 -1.3674  1.7383
  764MOL0     H 3121   9.507   3.422   4.673 -1.5517  0.1021  0.6743
  764MOL0     H 3122   9.718   2.707   4.813  4.4329  3.3609  0.5365
  764MOL0     H 3123   9.818   2.895   4.900  0.4222 -0.6816 -1.0739
  764MOL0     H 3124   9.700   3.403   4.780  0.9455 -3.5639 -0.2776
  764MOL0     H 3125   9.785   3.626   4.819  3.2750  1.4876  0.3239
  764MOL0     H 3126   9.689   4.427   4.231  3.4006  0.3477 -1.0650
  764MOL0     H 3127   9.583   4.239   4.311 -0.3127 -4.1392  1.7282
  764MOL0     H 3128   9.502   4.086   4.918 -2.3850  0.4148  0.0026
  764MOL0     H 3129   9.409   3.901   5.036  0.7171  0.7472  0.4359
  764MOL0     H 3130   9.458   3.503   4.933  2.5587  0.2786  2.3032
  764MOL0     H 3131   9.490   3.627   5.053 -0.4701 -1.0505  1.7194
  764MOL0     H 3132   9.258   3.557   5.142  2.2641  2.6978  0.5656
  764MOL0     H 3133   9.384   3.448   5.187 -0.7280  1.8043  1.0330
  764MOL0     H 3134   9.316   3.322   4.956 -2.5550  2.9172 -3.5356
  764MOL0     H 3135   9.176   3.405   4.958  3.7820 -0.4188 -4.7177
  764MOL0     H 3136   9.144   3.297   5.207 -0.8183 -2.4220  0.1339
  764MOL0     H 3137   9.306   3.241   5.187  0.6915 -1.7418 -1.9010
  764MOL0     H 3138   9.054   2.946   5.040  1.7358  0.6631 -2.5805
  764MOL0     H 3139   9.375   3.680   4.673 -0.0219 -0.0219 -0.7928
  764MOL0     H 3140   9.511   3.848   4.551  3.1379 -1.3095  0.0465
  765MOL0     O 3141   7.145   6.233   2.954  0.3346 -0.7881 -0.2981
  765MOL0     C 3142   7.231   6.222   3.049  0.0819 -1.0133 -0.2079
  765MOL0     O 3143   7.366   6.233   3.039  0.5674 -0.1459  0.7529
  765MOL0     C 3144   7.402   6.258   2.910  0.5731  0.0027 -0.1812
  765MOL0     C 3145   7.462   6.380   2.877  1.5933  0.6407 -0.1445
  765MOL0     C 3146   7.506   6.409   2.752  0.0566  0.5657  0.8004
  765MOL0     C 3147   7.490   6.310   2.646  0.2573 -0.0146  0.4260
  765MOL0     O 3148   7.527   6.327   2.510 -0.8154  0.2698 -0.2291
  765MOL0     C 3149   7.628   6.421   2.485 -0.5896 -0.9634  0.6805
  765MOL0     C 3150   7.645   6.449   2.337  0.8095 -0.2353  0.7746
  765MOL0     C 3151   7.516   6.501   2.275  0.0762  0.0743 -0.6274
  765MOL0     C 3152   7.541   6.537   2.131 -0.5236  0.1128 -0.1877
  765MOL0     C 3153   7.427   6.600   2.060 -0.8042  0.5798  0.2331
  765MOL0     C 3154   7.301   6.513   2.047 -0.0941  0.3258  0.8109
  765MOL0     C 3155   7.206   6.595   1.965  0.1499 -0.1787 -0.5812
  765MOL0     C 3156   7.227   6.607   1.814 -0.6439 -0.1793  0.3513
  765MOL0     N 3157   7.120   6.682   1.743  0.0269  0.4435  0.4965
  765MOL0     C 3158   7.087   6.816   1.769  0.7373  0.7004  0.5701
  765MOL0     C 3159   6.958   6.839   1.739 -0.4068  0.5742 -0.2601
  765MOL0     C 3160   6.868   6.952   1.756  0.4725  0.3968  0.2939
  765MOL0     C 3161   6.818   7.002   1.620 -0.3847  0.6431 -1.4009
  765MOL0     C 3162   6.918   7.062   1.524  1.0102 -0.3378 -0.8963
  765MOL0     C 3163   6.849   7.128   1.410  0.2350  0.0493 -0.6718
  765MOL0     O 3164   6.936   7.219   1.330 -0.1771  0.3218 -0.3599
  765MOL0     C 3165   6.879   7.328   1.289  0.0535 -0.1035  0.7045
  765MOL0     C 3166   6.758   7.318   1.208 -0.1216  0.2428 -0.3482
  765MOL0     C 3167   6.683   7.432   1.168  0.6392 -0.0026  0.0400
  765MOL0     C 3168   6.545   7.408   1.107  0.6078 -0.1597  0.1721
  765MOL0     C 3169   6.735   7.558   1.195  0.3541 -0.0864  0.5649
  765MOL0     C 3170   6.664   7.686   1.159  0.3009  0.3200 -0.6916
  765MOL0     O 3171   6.669   7.784   1.254  0.0678 -0.2231  0.0934
  765MOL0     C 3172   6.606   7.904   1.249  0.3602 -0.0095  0.2307
  765MOL0     C 3173   6.482   7.930   1.193  0.6887 -0.3814  1.8941
  765MOL0     C 3174   6.415   8.056   1.214 -0.0749 -0.2782 -1.3825
  765MOL0     C 3175   6.474   8.158   1.291  1.0422 -0.3096 -1.1506
  765MOL0     O 3176   6.413   8.280   1.315 -0.4383  0.7136  0.8956
  765MOL0     C 3177   6.307   8.310   1.235 -0.2314  0.2551  0.5382
  765MOL0     C 3178   6.288   8.456   1.249 -0.8099  1.4906  0.2234
  765MOL0     C 3179   6.164   8.501   1.164 -0.1445  0.1979 -0.2766
  765MOL0     C 3180   6.173   8.487   1.015  0.5404  0.4620  1.0389
  765MOL0     C 3181   6.065   8.389   0.957  0.1508 -0.3724  1.1077
  765MOL0     C 3182   6.068   8.398   0.802  0.3386  1.2223 -0.2945
  765MOL0     C 3183   6.195   8.358   0.752 -0.7423 -0.3967  0.0028
  765MOL0     C 3184   6.232   8.210   0.750  0.0723 -0.6336 -0.4017
  765MOL0    Cl 3185   6.294   8.142   0.899  0.0009  0.1302 -0.2583
  765MOL0     C 3186   6.600   8.126   1.331  0.5854 -0.7531  0.8245
  765MOL0     C 3187   6.667   8.011   1.306  0.2696 -0.0772 -0.2521
  765MOL0     O 3188   6.615   7.707   1.046 -0.2913 -0.2554  0.3021
  765MOL0     C 3189   6.870   7.570   1.253  0.4512  0.1579 -0.5885
  765MOL0     C 3190   6.938   7.456   1.295  0.4952 -0.3214  0.5776
  765MOL0     N 3191   6.923   6.716   1.676  0.2093 -0.4211  0.5903
  765MOL0     N 3192   7.013   6.625   1.681  0.0196  0.1622  0.0193
  765MOL0     C 3193   7.440   6.189   2.680 -0.2254  0.3027 -1.3365
  765MOL0     C 3194   7.385   6.161   2.804 -0.8949 -0.1737  0.4447
  765MOL0     C 3195   7.184   6.220   3.186 -0.4128  0.6249  0.6210
  765MOL0     C 3196   7.041   6.213   3.195 -0.2650  0.1490 -0.3403
  765MOL0     C 3197   6.972   6.215   3.318 -0.2806 -0.3896  0.5893
  765MOL0     C 3198   7.050   6.214   3.433  0.0274  0.5357 -0.5575
  765MOL0     O 3199   7.012   6.198   3.560 -0.7782  0.9604  0.0984
  765MOL0     C 3200   6.870   6.204   3.574 -1.2953  1.1519  0.4873
  765MOL0     C 3201   6.832   6.234   3.724 -0.2177 -0.1497 -0.7696
  765MOL0     C 3202   6.678   6.247   3.739  0.7123  1.1370 -0.5423
  765MOL0     C 3203   6.644   6.224   3.886 -0.3783 -0.6512 -0.7462
  765MOL0     C 3204   6.667   6.352   3.970 -0.2900  0.4429 -0.4569
  765MOL0     C 3205   6.667   6.448   4.046  0.0934  0.0243  0.7858
  765MOL0     C 3206   7.190   6.216   3.420  0.3045  0.1999 -0.3107
  765MOL0     C 3207   7.256   6.224   3.301  0.1142 -0.6212 -0.6514
  765MOL0     H 3208   7.469   6.467   2.941  3.9790  0.1702  0.3140
  765MOL0     H 3209   7.541   6.507   2.721 -1.8244  0.4692 -1.9903
  765MOL0     H 3210   7.606   6.514   2.540 -3.8456 -0.0415 -1.8484
  765MOL0     H 3211   7.721   6.388   2.532 -1.2020 -1.9130  1.2502
  765MOL0     H 3212   7.733   6.513   2.326  0.2698  0.7098  1.7525
  765MOL0     H 3213   7.656   6.344   2.307 -3.7812 -0.6871 -0.0438
  765MOL0     H 3214   7.452   6.412   2.276  1.8245 -1.2416  0.7183
  765MOL0     H 3215   7.482   6.584   2.337 -0.1227 -2.2094  2.5374
  765MOL0     H 3216   7.624   6.606   2.149  1.4786 -2.8011  2.9284
  765MOL0     H 3217   7.582   6.455   2.071  1.9101 -0.6468  2.2791
  765MOL0     H 3218   7.401   6.690   2.117 -0.6814 -0.3339  1.7880
  765MOL0     H 3219   7.449   6.636   1.959  0.4831 -2.0297 -0.4994
  765MOL0     H 3220   7.316   6.420   1.992 -1.7632  0.2751  0.3991
  765MOL0     H 3221   7.281   6.490   2.153  2.4944  0.6000  1.4202
  765MOL0     H 3222   7.113   6.540   1.982  1.8548 -2.1592  3.6795
  765MOL0     H 3223   7.203   6.692   2.014  0.7980 -1.1700  1.5321
  765MOL0     H 3224   7.228   6.504   1.776 -0.4754  0.2342 -0.7980
  765MOL0     H 3225   7.322   6.657   1.791 -0.1294 -1.9578 -1.6660
  765MOL0     H 3226   7.150   6.894   1.811  2.0165  0.4407 -0.7850
  765MOL0     H 3227   6.792   6.912   1.823 -0.5864  0.1819 -0.9895
  765MOL0     H 3228   6.910   7.036   1.812 -1.3654 -0.5057  3.2639
  765MOL0     H 3229   6.743   7.079   1.639 -0.5529  0.1277  0.2455
  765MOL0     H 3230   6.765   6.912   1.589  0.2578 -1.6711  3.2172
  765MOL0     H 3231   6.998   6.992   1.500  1.8684 -0.6155  2.2937
  765MOL0     H 3232   6.969   7.132   1.591 -3.6154 -1.7083  4.9744
  765MOL0     H 3233   6.760   7.177   1.451 -2.1459 -3.7842 -0.8305
  765MOL0     H 3234   6.813   7.049   1.343 -3.0111  1.5061 -0.8496
  765MOL0     H 3235   6.710   7.222   1.190 -1.3223  0.9772 -1.2540
  765MOL0     H 3236   6.524   7.432   1.002  0.4369  0.1466  0.2769
  765MOL0     H 3237   6.525   7.303   1.128  1.6597 -0.2210  0.9766
  765MOL0     H 3238   6.475   7.455   1.176  0.0342 -1.2938  0.3827
  765MOL0     H 3239   6.437   7.856   1.128  2.5236  0.9484 -1.1232
  765MOL0     H 3240   6.317   8.073   1.171 -0.3283  1.0817 -0.3266
  765MOL0     H 3241   6.332   8.284   1.131 -0.3868  1.5972  0.1448
  765MOL0     H 3242   6.219   8.252   1.263 -0.8586  0.6108 -0.6247
  765MOL0     H 3243   6.261   8.476   1.353 -0.4749 -1.1757  0.8762
  765MOL0     H 3244   6.374   8.515   1.214  0.0326  0.7049  0.9246
  765MOL0     H 3245   6.152   8.604   1.197 -0.0511 -0.3162  1.4977
  765MOL0     H 3246   6.084   8.438   1.207  0.6469 -1.2028 -0.7835
  765MOL0     H 3247   6.159   8.586   0.972 -2.9332  1.1376  3.3177
  765MOL0     H 3248   6.270   8.448   0.982 -0.2193 -0.6481  0.0393
  765MOL0     H 3249   5.969   8.416   1.000  0.6291 -0.6452  2.3956
  765MOL0     H 3250   6.076   8.284   0.983  1.9184 -0.2543  1.0051
  765MOL0     H 3251   5.992   8.333   0.757  0.8698  0.4549 -0.0999
  765MOL0     H 3252   6.040   8.500   0.775 -2.2843 -0.0529 -2.8877
  765MOL0     H 3253   6.272   8.424   0.793 -2.0062  0.0837  1.7190
  765MOL0     H 3254   6.195   8.393   0.648  1.7313  2.8330  0.8992
  765MOL0     H 3255   6.309   8.193   0.674 -0.5428  1.2038 -1.4923
  765MOL0     H 3256   6.135   8.170   0.720  0.1424 -3.4524  2.5167
  765MOL0     H 3257   6.654   8.208   1.379  1.5785 -0.9614  0.0977
  765MOL0     H 3258   6.760   8.000   1.362 -0.1927  0.0372  0.5576
  765MOL0     H 3259   6.907   7.667   1.284  0.2576 -0.6519  2.4879
  765MOL0     H 3260   7.033   7.465   1.346  0.3910 -0.3626  0.7789
  765MOL0     H 3261   7.433   6.118   2.598 -1.5811  0.4558 -1.3746
  765MOL0     H 3262   7.347   6.063   2.831 -3.5453  0.8215  0.5607
  765MOL0     H 3263   6.965   6.220   3.118 -0.8419  0.1722  0.2272
  765MOL0     H 3264   6.867   6.233   3.299  0.8481  5.1980 -2.4478
  765MOL0     H 3265   6.823   6.284   3.516 -0.6870  0.2156 -1.3780
  765MOL0     H 3266   6.818   6.112   3.545 -0.3475 -0.5586  3.8102
  765MOL0     H 3267   6.877   6.331   3.748 -1.5415  0.3308 -0.0985
  765MOL0     H 3268   6.872   6.154   3.787  2.6756 -0.2030 -2.4892
  765MOL0     H 3269   6.629   6.173   3.675  0.5675  2.5962 -2.1887
  765MOL0     H 3270   6.647   6.347   3.710  0.7349  0.6862 -2.2323
  765MOL0     H 3271   6.699   6.146   3.939  2.5176  1.9971  0.4726
  765MOL0     H 3272   6.535   6.210   3.890 -0.5778  0.5991 -1.0817
  765MOL0     H 3273   6.670   6.538   4.104  0.9270  0.4917  0.0425
  765MOL0     H 3274   7.260   6.219   3.503  1.9260 -1.0417 -1.5530
  765MOL0     H 3275   7.362   6.240   3.285  0.7124 -1.7669  1.7134
  766MOL0     O 3276   0.750   0.407   5.092 -0.5034  0.3904 -0.0684
  766MOL0     C 3277   0.807   0.490   5.028 -0.2363  0.0447 -0.9094
  766MOL0     O 3278   0.874   0.596   5.086 -0.3328 -0.0293 -0.4888
  766MOL0     C 3279   0.876   0.602   5.220  0.0899 -0.4554 -0.6138
  766MOL0     C 3280   0.955   0.509   5.285  0.4473  0.3053  0.5489
  766MOL0     C 3281   0.979   0.521   5.424 -1.2214 -0.6443 -0.0371
  766MOL0     C 3282   0.924   0.616   5.508  0.7489  0.1718  0.8049
  766MOL0     O 3283   0.923   0.622   5.642 -0.4302 -0.8265 -0.1059
  766MOL0     C 3284   0.904   0.501   5.713  0.2383  0.8465 -0.2258
  766MOL0     C 3285   0.836   0.516   5.847 -0.2363  0.4358  0.3519
  766MOL0     C 3286   0.704   0.598   5.828 -0.4591  0.7677 -0.5218
  766MOL0     C 3287   0.670   0.642   5.968 -0.3935 -0.1935  0.0846
  766MOL0     C 3288   0.533   0.716   5.977  0.1911 -0.6211 -0.0614
  766MOL0     C 3289   0.494   0.748   6.113  1.1236  0.0852 -0.4843
  766MOL0     C 3290   0.351   0.821   6.123 -0.0639  0.1184 -0.2025
  766MOL0     C 3291   0.277   0.804   6.246  0.4506  0.2980 -0.0997
  766MOL0     N 3292   0.159   0.895   6.249 -0.0115 -0.6720  0.2705
  766MOL0     C 3293   0.158   1.011   6.183 -0.5782  0.0722  0.0711
  766MOL0     C 3294   0.061   1.084   6.245  0.7796 -0.8919  0.1044
  766MOL0     C 3295  -0.007   1.216   6.217  0.0351 -0.9164  0.0026
  766MOL0     C 3296   0.079   1.295   6.110  0.4124 -0.2921 -0.6608
  766MOL0     C 3297   0.066   1.442   6.116 -0.0180  1.4104 -0.2664
  766MOL0     C 3298  -0.060   1.503   6.072  0.4271 -0.3872 -0.0538
  766MOL0     O 3299  -0.040   1.645   6.096  0.4880 -0.0054  0.2448
  766MOL0     C 3300  -0.104   1.737   6.018  0.0036  0.0925 -0.1549
  766MOL0     C 3301  -0.073   1.873   6.031 -0.7482 -0.4851  0.2264
  766MOL0     C 3302  -0.143   1.977   5.984  0.8050  0.5254  0.1509
  766MOL0     C 3303  -0.077   2.114   5.979 -0.1109 -1.3224  0.2743
  766MOL0     C 3304  -0.272   1.944   5.926 -0.5723 -0.3454  0.5097
  766MOL0     C 3305  -0.366   2.058   5.884  0.8671 -0.4945  0.0062
  766MOL0     O 3306  -0.358   2.181   5.947  0.3598  0.4133  0.0786
  766MOL0     C 3307  -0.415   2.288   5.882 -0.3032 -0.1222  0.6381
  766MOL0     C 3308  -0.339   2.356   5.792  0.5378 -0.9559 -0.4673
  766MOL0     C 3309  -0.391   2.477   5.744 -0.8776 -0.1984  0.7309
  766MOL0     C 3310  -0.524   2.526   5.771 -0.3607  0.1051 -1.1172
  766MOL0     O 3311  -0.588   2.637   5.725  0.2651  0.1695  0.0338
  766MOL0     C 3312  -0.527   2.721   5.627  0.4503 -0.4043 -0.6281
  766MOL0     C 3313  -0.586   2.864   5.636  0.4173  0.3810  0.2855
  766MOL0     C 3314  -0.547   2.928   5.775  0.6841 -0.3881 -0.1526
  766MOL0     C 3315  -0.620   3.062   5.797 -0.5625 -0.7674 -0.2718
  766MOL0     C 3316  -0.602   3.123   5.932  0.8307 -0.1581 -1.3515
  766MOL0     C 3317  -0.671   3.263   5.961  0.0478 -0.0681 -0.0189
  766MOL0     C 3318  -0.674   3.308   6.116 -0.3634 -0.1305  0.4236
  766MOL0     C 3319  -0.696   3.457   6.126  0.0670 -0.5120  0.1515
  766MOL0    Cl 3320  -0.728   3.501   6.300  0.0102  0.0568  0.3438
  766MOL0     C 3321  -0.593   2.451   5.862  0.6344 -0.4327  0.5541
  766MOL0     C 3322  -0.546   2.334   5.920 -0.1807 -0.2213 -0.0806
  766MOL0     O 3323  -0.453   2.033   5.800  0.4778 -1.1637  0.5256
  766MOL0     C 3324  -0.305   1.810   5.913 -0.4038  0.9590  0.0780
  766MOL0     C 3325  -0.217   1.710   5.939 -0.6269 -0.0546 -0.0629
  766MOL0     N 3326   0.019   1.011   6.352  0.9465  1.4387  0.1518
  766MOL0     N 3327   0.081   0.899   6.347  0.2011 -0.2820  0.2894
  766MOL0     C 3328   0.845   0.716   5.436 -0.0373  0.0807  0.7341
  766MOL0     C 3329   0.828   0.713   5.300 -0.4405  0.4424  0.4184
  766MOL0     C 3330   0.820   0.481   4.887 -0.4546  0.0325  0.0619
  766MOL0     C 3331   0.843   0.594   4.805  0.6595  0.2492 -1.0436
  766MOL0     C 3332   0.878   0.584   4.674  0.6276  0.4942 -0.5105
  766MOL0     C 3333   0.880   0.448   4.614 -0.0633 -0.5623  0.1139
  766MOL0     O 3334   0.917   0.428   4.481  0.2019 -0.0281 -0.0886
  766MOL0     C 3335   0.931   0.296   4.420 -0.3596  0.1514 -0.3866
  766MOL0     C 3336   0.949   0.299   4.271 -0.1131  0.5369  0.0227
  766MOL0     C 3337   1.094   0.348   4.241 -0.5494  0.3109  1.1038
  766MOL0     C 3338   1.185   0.250   4.168 -0.2907  0.3152 -0.1262
  766MOL0     C 3339   1.219   0.130   4.255 -0.0682 -0.0290  0.6327
  766MOL0     C 3340   1.269   0.023   4.304  0.1548 -0.2210  0.1230
  766MOL0     C 3341   0.854   0.342   4.695  0.8242  0.3824 -0.5288
  766MOL0     C 3342   0.809   0.358   4.825  0.1310 -0.7840 -0.3820
  766MOL0     H 3343   0.987   0.421   5.231 -0.4180 -0.2457  0.8977
  766MOL0     H 3344   1.033   0.448   5.483 -0.3102  0.6466  0.7941
  766MOL0     H 3345   0.851   0.417   5.669 -1.4718  0.4598  2.3278
  766MOL0     H 3346   1.008   0.466   5.722 -0.3945 -1.5021 -1.4436
  766MOL0     H 3347   0.826   0.420   5.897 -2.5778 -0.3579 -1.4586
  766MOL0     H 3348   0.897   0.590   5.900 -1.1464  1.3801  0.1228
  766MOL0     H 3349   0.711   0.680   5.756  0.0816 -1.6331 -3.4543
  766MOL0     H 3350   0.633   0.519   5.798 -0.2580  0.2749  0.2766
  766MOL0     H 3351   0.655   0.541   6.007 -3.0278  0.0501 -0.1026
  766MOL0     H 3352   0.751   0.690   6.023  2.4433  0.9012 -4.5160
  766MOL0     H 3353   0.549   0.806   5.917  0.9898 -0.5260  0.2877
  766MOL0     H 3354   0.458   0.652   5.929 -0.6774 -0.1081  0.5866
  766MOL0     H 3355   0.486   0.654   6.167  0.8903  0.6970  0.5718
  766MOL0     H 3356   0.569   0.808   6.166  0.5375  0.7143 -0.3537
  766MOL0     H 3357   0.376   0.919   6.083  0.0112 -0.0587 -0.5940
  766MOL0     H 3358   0.293   0.782   6.039  0.6584 -0.1682 -0.5717
  766MOL0     H 3359   0.339   0.831   6.331 -4.2014 -1.8643  4.5256
  766MOL0     H 3360   0.231   0.706   6.261 -1.3389  1.5967  4.7810
  766MOL0     H 3361   0.218   1.043   6.099  2.1124  0.1608  1.9127
  766MOL0     H 3362  -0.112   1.203   6.191  0.7253 -2.9093 -2.1727
  766MOL0     H 3363  -0.002   1.263   6.316  1.8873 -0.0676 -0.4566
  766MOL0     H 3364   0.050   1.258   6.011  0.3932  0.6782 -1.0301
  766MOL0     H 3365   0.181   1.267   6.134  0.4473  2.1485  2.6724
  766MOL0     H 3366   0.145   1.469   6.045  1.0054  1.8163  0.9847
  766MOL0     H 3367   0.112   1.486   6.205  2.0538  1.2906 -1.1957
  766MOL0     H 3368  -0.149   1.468   6.125  0.0215  0.2412 -0.3068
  766MOL0     H 3369  -0.086   1.474   5.970  0.2902  0.3782 -0.2457
  766MOL0     H 3370   0.022   1.890   6.081 -1.6888  1.1774  1.5579
  766MOL0     H 3371  -0.093   2.172   5.888  0.2279  0.4523  1.2936
  766MOL0     H 3372  -0.117   2.173   6.062  1.7577 -0.3011  0.5159
  766MOL0     H 3373   0.032   2.104   5.987  0.1234  0.8034  0.2206
  766MOL0     H 3374  -0.234   2.340   5.767  2.1189  1.6324  3.5011
  766MOL0     H 3375  -0.326   2.537   5.681 -4.6279  1.3395 -2.0841
  766MOL0     H 3376  -0.417   2.722   5.633  0.5177 -1.8660 -1.2441
  766MOL0     H 3377  -0.566   2.675   5.535  0.1656 -2.8892  0.6302
  766MOL0     H 3378  -0.552   2.916   5.547 -1.3457  2.5809  0.8173
  766MOL0     H 3379  -0.695   2.864   5.634  0.4111  0.3870  0.5330
  766MOL0     H 3380  -0.439   2.947   5.769  0.4931  0.3743 -2.6312
  766MOL0     H 3381  -0.577   2.869   5.862 -0.6965  1.5143  0.7483
  766MOL0     H 3382  -0.581   3.128   5.719  0.5029 -1.3952 -0.3015
  766MOL0     H 3383  -0.727   3.045   5.783 -0.7628 -0.0638  0.3956
  766MOL0     H 3384  -0.498   3.132   5.963  0.4509 -4.9115  2.3249
  766MOL0     H 3385  -0.638   3.052   6.006  3.0305  0.1462  0.0900
  766MOL0     H 3386  -0.625   3.343   5.902 -1.5646 -0.0578 -1.3050
  766MOL0     H 3387  -0.773   3.255   5.924  0.2955  1.4432 -1.0942
  766MOL0     H 3388  -0.582   3.284   6.169  1.8288  2.6278 -1.8298
  766MOL0     H 3389  -0.759   3.254   6.159  0.3106  0.0093  2.0092
  766MOL0     H 3390  -0.781   3.479   6.062 -0.7373 -1.5793  0.8136
  766MOL0     H 3391  -0.613   3.517   6.088 -1.2521 -0.1974 -2.4618
  766MOL0     H 3392  -0.694   2.487   5.881  1.0534  2.0894 -1.4603
  766MOL0     H 3393  -0.605   2.290   5.999 -0.0254 -1.0925 -0.4416
  766MOL0     H 3394  -0.393   1.788   5.853  1.7674 -0.3394 -2.8867
  766MOL0     H 3395  -0.251   1.611   5.910  2.6495 -1.6161  0.9396
  766MOL0     H 3396   0.797   0.791   5.497 -0.6198  0.3412 -0.0172
  766MOL0     H 3397   0.764   0.783   5.247 -0.0123 -2.2562 -4.2799
  766MOL0     H 3398   0.855   0.691   4.851 -1.7001 -0.2042  0.7106
  766MOL0     H 3399   0.878   0.677   4.619  0.5467  0.1429 -1.1123
  766MOL0     H 3400   1.011   0.241   4.470 -1.1289 -1.2602 -0.6444
  766MOL0     H 3401   0.836   0.243   4.436 -0.7266  0.3074 -1.8772
  766MOL0     H 3402   0.872   0.363   4.227  1.1292  1.2820 -1.1268
  766MOL0     H 3403   0.939   0.196   4.236 -1.1517 -0.4917  2.9927
  766MOL0     H 3404   1.145   0.362   4.337  0.9246  0.8099  0.2783
  766MOL0     H 3405   1.097   0.429   4.168  3.5056 -1.2279 -0.7387
  766MOL0     H 3406   1.277   0.301   4.136  0.0278 -0.4385 -0.4323
  766MOL0     H 3407   1.143   0.218   4.073  3.1975  1.0395 -2.0699
  766MOL0     H 3408   1.307  -0.072   4.335 -0.2011 -0.7648 -1.0450
  766MOL0     H 3409   0.854   0.239   4.660 -0.6691  1.9172 -6.1457
  766MOL0     H 3410   0.780   0.272   4.884 -2.6463 -1.5656 -2.6509
  767MOL0     O 3411   1.058   7.656   2.086 -0.2435  0.6312  0.1769
  767MOL0     C 3412   1.015   7.725   2.186 -0.7863 -0.2463  0.8119
  767MOL0     O 3413   1.007   7.686   2.307  0.9120 -0.2324 -0.9195
  767MOL0     C 3414   1.068   7.566   2.344 -0.3479  0.0853  1.1551
  767MOL0     C 3415   0.996   7.441   2.319 -0.2687  0.6800 -0.0577
  767MOL0     C 3416   1.054   7.318   2.362  0.5954 -0.3837  1.2878
  767MOL0     C 3417   1.164   7.318   2.440 -0.5269  0.4315 -0.1767
  767MOL0     O 3418   1.229   7.194   2.453  0.7590 -0.0460 -0.1880
  767MOL0     C 3419   1.241   7.149   2.597 -0.0010 -0.1567  0.2212
  767MOL0     C 3420   1.108   7.096   2.647 -0.9958  0.2107 -0.1967
  767MOL0     C 3421   1.083   7.083   2.796 -0.5851  0.2992  0.7323
  767MOL0     C 3422   1.088   7.221   2.863  0.4906 -0.6427  0.6116
  767MOL0     C 3423   1.074   7.217   3.016 -0.3103  0.3457 -0.6030
  767MOL0     C 3424   1.185   7.123   3.072 -0.5085 -0.7534  0.6291
  767MOL0     C 3425   1.228   7.173   3.216 -0.8300 -0.5766 -0.5752
  767MOL0     C 3426   1.171   7.078   3.332 -0.4374 -1.3817  0.2213
  767MOL0     N 3427   1.148   7.161   3.451  0.5358 -0.7959 -0.0620
  767MOL0     C 3428   1.033   7.232   3.483  0.0944 -0.5081 -0.5149
  767MOL0     C 3429   1.049   7.290   3.603 -0.2247 -0.1882 -0.5084
  767MOL0     C 3430   0.965   7.396   3.675  0.4702  0.0984 -0.7096
  767MOL0     C 3431   0.907   7.491   3.573  0.4730 -0.9884  0.0802
  767MOL0     C 3432   0.803   7.589   3.636 -0.5095 -0.3317 -0.5155
  767MOL0     C 3433   0.868   7.716   3.707 -0.3290  0.6482  0.0385
  767MOL0     O 3434   0.962   7.678   3.798 -0.3945 -0.4124 -0.4865
  767MOL0     C 3435   1.025   7.791   3.862  0.1224  0.6818  0.4768
  767MOL0     C 3436   1.147   7.769   3.933  0.8472 -0.3514 -0.4664
  767MOL0     C 3437   1.220   7.870   3.996  0.2434 -1.3050  0.2445
  767MOL0     C 3438   1.342   7.816   4.064 -0.5780  0.3016  0.9360
  767MOL0     C 3439   1.167   8.002   3.994  0.0738 -0.4551  0.4345
  767MOL0     C 3440   1.227   8.113   4.068 -0.1750  0.0044 -0.6606
  767MOL0     O 3441   1.171   8.234   4.072 -0.4938  0.7502  0.1442
  767MOL0     C 3442   1.236   8.328   4.141 -0.6729 -0.9295  0.3228
  767MOL0     C 3443   1.231   8.327   4.279 -0.2063 -1.0746 -0.7281
  767MOL0     C 3444   1.268   8.440   4.349  0.0826  0.3032 -0.5511
  767MOL0     C 3445   1.328   8.549   4.280  0.3273 -0.0581 -0.7320
  767MOL0     O 3446   1.367   8.673   4.344 -0.6678 -0.2257 -0.5081
  767MOL0     C 3447   1.481   8.744   4.295  0.3728  0.0535  0.9644
  767MOL0     C 3448   1.532   8.832   4.413  0.2090 -0.4728  0.2532
  767MOL0     C 3449   1.427   8.925   4.474 -0.3648  0.0675 -0.4354
  767MOL0     C 3450   1.494   9.002   4.584  0.2461  0.3166 -0.6276
  767MOL0     C 3451   1.500   8.943   4.724  0.4612 -0.0684 -1.1115
  767MOL0     C 3452   1.360   8.912   4.791  0.3520 -0.1654  0.7772
  767MOL0     C 3453   1.376   8.943   4.946  0.1990 -0.2661  1.3464
  767MOL0     C 3454   1.310   9.077   4.973 -0.2770 -0.5179  0.4216
  767MOL0    Cl 3455   1.129   9.081   4.915  0.0813 -0.5390 -0.0194
  767MOL0     C 3456   1.339   8.539   4.137  0.4883 -1.4759  0.0879
  767MOL0     C 3457   1.292   8.429   4.065 -0.5648 -0.1444 -0.0959
  767MOL0     O 3458   1.326   8.087   4.143  0.7814  0.4972  0.1484
  767MOL0     C 3459   1.041   8.019   3.940 -1.0324  0.7053  0.4305
  767MOL0     C 3460   0.966   7.919   3.876 -1.1329  0.2832  0.0719
  767MOL0     N 3461   1.179   7.254   3.644  0.4738  0.2457 -0.3453
  767MOL0     N 3462   1.240   7.175   3.555 -0.4847  0.5420 -0.4218
  767MOL0     C 3463   1.230   7.440   2.474  0.5625 -0.7804  0.1770
  767MOL0     C 3464   1.183   7.564   2.423 -0.1234  0.6905  1.1264
  767MOL0     C 3465   0.938   7.848   2.162 -0.8345 -0.2010 -0.8517
  767MOL0     C 3466   0.884   7.878   2.032 -0.3416 -0.0457  0.6362
  767MOL0     C 3467   0.831   8.000   2.001  0.0134 -0.7830  0.1521
  767MOL0     C 3468   0.816   8.087   2.105  0.5683 -0.0908  0.0444
  767MOL0     O 3469   0.763   8.212   2.084 -0.3730 -0.5617 -0.3880
  767MOL0     C 3470   0.673   8.236   1.976 -1.1257  0.3321  0.0379
  767MOL0     C 3471   0.579   8.352   2.000  0.5884 -0.8948 -0.4818
  767MOL0     C 3472   0.630   8.473   1.928  0.1861 -0.6212 -0.5272
  767MOL0     C 3473   0.555   8.614   1.961 -0.4535  0.4079  0.8792
  767MOL0     C 3474   0.417   8.622   1.910  0.5366 -0.9569 -0.5836
  767MOL0     C 3475   0.303   8.623   1.868 -0.1536  0.3886  0.1723
  767MOL0     C 3476   0.855   8.055   2.230 -0.3539 -1.8711 -0.7003
  767MOL0     C 3477   0.911   7.943   2.268 -0.0053  0.4049 -0.1631
  767MOL0     H 3478   0.908   7.434   2.256 -0.3870  0.7684  0.0974
  767MOL0     H 3479   1.011   7.225   2.328  1.8058 -0.3426 -0.5016
  767MOL0     H 3480   1.324   7.079   2.606  0.2025 -0.0182 -0.4992
  767MOL0     H 3481   1.269   7.234   2.659 -2.8701  2.2834 -1.5125
  767MOL0     H 3482   1.029   7.149   2.592  1.7203  2.5513 -2.1973
  767MOL0     H 3483   1.103   6.995   2.607 -0.4553  0.0122  0.2286
  767MOL0     H 3484   0.981   7.043   2.805 -0.0392 -1.1535  0.6886
  767MOL0     H 3485   1.152   7.005   2.830  0.2023  1.5026  2.0367
  767MOL0     H 3486   1.180   7.277   2.843  0.4091 -1.8532 -4.5132
  767MOL0     H 3487   1.011   7.282   2.817 -0.8527 -1.8126  1.2104
  767MOL0     H 3488   1.093   7.321   3.046  0.4107  0.8684 -2.6855
  767MOL0     H 3489   0.973   7.180   3.037 -0.3376  0.9476  0.3892
  767MOL0     H 3490   1.143   7.022   3.066 -1.9489 -0.1092 -1.0864
  767MOL0     H 3491   1.276   7.134   3.013  0.4766 -2.9471  1.6088
  767MOL0     H 3492   1.337   7.182   3.223 -0.6786 -0.3786 -2.7117
  767MOL0     H 3493   1.193   7.276   3.220  2.3981  0.6185  2.4733
  767MOL0     H 3494   1.239   6.993   3.348  1.2601 -0.3177 -0.9683
  767MOL0     H 3495   1.069   7.061   3.297 -1.6084  2.5353  1.2927
  767MOL0     H 3496   0.953   7.252   3.412 -0.1174 -2.2145 -0.8103
  767MOL0     H 3497   0.891   7.332   3.724  1.9478 -1.3450 -0.2945
  767MOL0     H 3498   1.035   7.444   3.744  5.5622 -4.4967 -1.9842
  767MOL0     H 3499   0.864   7.434   3.490  1.9407  1.1759 -2.3065
  767MOL0     H 3500   0.979   7.546   3.512 -1.5584 -1.0648 -2.5577
  767MOL0     H 3501   0.741   7.531   3.705 -0.3371  1.8548  1.6153
  767MOL0     H 3502   0.739   7.628   3.555 -0.6365 -0.7791 -0.6366
  767MOL0     H 3503   0.787   7.775   3.752 -0.5398 -0.7867  1.6137
  767MOL0     H 3504   0.921   7.770   3.628 -0.6690  2.3348  0.9211
  767MOL0     H 3505   1.182   7.668   3.916  1.4646 -0.0759 -0.8628
  767MOL0     H 3506   1.349   7.850   4.167 -1.3094 -0.8559  1.3886
  767MOL0     H 3507   1.341   7.706   4.067  0.9051  0.2714  0.9143
  767MOL0     H 3508   1.428   7.860   4.013 -1.3881 -0.1557 -0.9231
  767MOL0     H 3509   1.192   8.250   4.344  1.9532 -1.3833  0.2658
  767MOL0     H 3510   1.251   8.457   4.455 -1.9853 -1.4137 -0.5465
  767MOL0     H 3511   1.562   8.683   4.254  0.3291  1.7459 -1.8971
  767MOL0     H 3512   1.446   8.815   4.220  0.4169 -1.7665 -0.8382
  767MOL0     H 3513   1.569   8.760   4.487  0.3145  1.0398  1.7341
  767MOL0     H 3514   1.613   8.895   4.374  1.4963 -1.2161  1.5979
  767MOL0     H 3515   1.341   8.871   4.514  0.0395  2.8338  5.1934
  767MOL0     H 3516   1.402   8.996   4.394 -1.0576 -1.0494 -1.2385
  767MOL0     H 3517   1.595   9.034   4.556  0.8248  1.0471  2.0408
  767MOL0     H 3518   1.450   9.102   4.587  0.7686  0.5233  0.4790
  767MOL0     H 3519   1.545   9.023   4.784  3.7302 -1.5871 -1.2976
  767MOL0     H 3520   1.569   8.859   4.734  0.4386 -0.2419 -2.3095
  767MOL0     H 3521   1.280   8.974   4.749  1.5684 -0.2384 -1.8195
  767MOL0     H 3522   1.338   8.806   4.776  0.5667 -0.2822  1.2491
  767MOL0     H 3523   1.478   8.943   4.985  1.5962  0.0520 -1.9757
  767MOL0     H 3524   1.307   8.876   4.996 -2.2209 -2.1172 -3.7455
  767MOL0     H 3525   1.358   9.156   4.915 -1.2857 -0.2739 -0.0988
  767MOL0     H 3526   1.324   9.105   5.078 -0.5725  2.3003 -0.2257
  767MOL0     H 3527   1.373   8.632   4.091  0.1865 -0.0146  2.6323
  767MOL0     H 3528   1.278   8.417   3.958 -0.7876 -1.2801  0.0420
  767MOL0     H 3529   0.994   8.116   3.952 -2.6708 -0.0211  0.2793
  767MOL0     H 3530   0.875   7.961   3.834 -0.4736  1.1257 -0.5515
  767MOL0     H 3531   1.321   7.442   2.533  0.4311  2.0721  0.4482
  767MOL0     H 3532   1.248   7.650   2.436 -0.9899  1.4498  0.5856
  767MOL0     H 3533   0.901   7.809   1.950  3.2209  2.7219 -1.2198
  767MOL0     H 3534   0.805   8.022   1.898 -0.8072 -3.2987 -0.2365
  767MOL0     H 3535   0.722   8.264   1.883  1.0413  2.5064  1.7266
  767MOL0     H 3536   0.607   8.151   1.959 -0.5938  0.1766 -1.3385
  767MOL0     H 3537   0.571   8.372   2.107 -0.5954 -0.4512 -0.6423
  767MOL0     H 3538   0.483   8.327   1.954  0.8443  1.5935 -2.5945
  767MOL0     H 3539   0.630   8.462   1.819 -0.2283 -2.1494 -0.3946
  767MOL0     H 3540   0.735   8.497   1.947  0.4917  1.8809 -4.3283
  767MOL0     H 3541   0.613   8.699   1.923  1.0451 -0.7027  0.5762
  767MOL0     H 3542   0.542   8.604   2.069 -0.2632  1.4558  1.0118
  767MOL0     H 3543   0.205   8.613   1.827  0.1466 -3.3658 -0.0302
  767MOL0     H 3544   0.853   8.129   2.310  2.1465 -4.1877  1.7213
  767MOL0     H 3545   0.935   7.915   2.370  0.0798 -2.3801 -0.8685
  768MOL0     O 3546   7.440   1.908  11.033  0.3772  0.2091 -0.3618
  768MOL0     C 3547   7.351   1.943  11.109 -1.2940  0.0606  0.6902
  768MOL0     O 3548   7.225   1.890  11.120  0.9315  0.5432  0.0708
  768MOL0     C 3549   7.164   1.797  11.040  0.5075  0.3641 -0.6013
  768MOL0     C 3550   7.191   1.790  10.903 -0.1818 -0.8179 -0.4827
  768MOL0     C 3551   7.107   1.711  10.821 -0.7943 -0.7608  0.6391
  768MOL0     C 3552   7.005   1.638  10.880 -0.2846 -0.1207  0.3254
  768MOL0     O 3553   6.926   1.573  10.790  0.2333  0.2075  0.3877
  768MOL0     C 3554   6.920   1.431  10.801 -0.3468  0.3809  0.4935
  768MOL0     C 3555   6.825   1.385  10.683  0.9524 -0.0556 -1.2484
  768MOL0     C 3556   6.812   1.223  10.660  0.0988  0.4616 -1.3257
  768MOL0     C 3557   6.776   1.152  10.791 -0.3785 -0.3795 -0.0207
  768MOL0     C 3558   6.694   1.021  10.767  0.3662  1.2462  0.1978
  768MOL0     C 3559   6.602   0.979  10.874  0.0750  0.1423 -0.0553
  768MOL0     C 3560   6.532   0.848  10.844  0.6373 -0.8094 -0.0327
  768MOL0     C 3561   6.448   0.810  10.968 -0.1046 -0.2177 -0.1119
  768MOL0     N 3562   6.357   0.703  10.953 -0.7454  1.2316  0.0188
  768MOL0     C 3563   6.230   0.709  10.904 -0.1866 -0.0901  0.4525
  768MOL0     C 3564   6.177   0.583  10.906 -0.0321  0.3346 -0.7773
  768MOL0     C 3565   6.043   0.542  10.847  0.1428  0.4380  1.3241
  768MOL0     C 3566   6.073   0.502  10.701 -0.7251 -0.1437  0.0214
  768MOL0     C 3567   6.137   0.366  10.685  0.5452 -0.1922  0.1117
  768MOL0     C 3568   6.107   0.284  10.557  0.8586 -0.0639 -0.0425
  768MOL0     O 3569   5.966   0.244  10.556 -0.3761  0.3146  0.4985
  768MOL0     C 3570   5.900   0.217  10.439 -0.2631  0.4075 -0.1504
  768MOL0     C 3571   5.964   0.142  10.338 -0.0603 -0.9254  0.6998
  768MOL0     C 3572   5.899   0.095  10.228  0.4964 -0.4985  0.4743
  768MOL0     C 3573   5.981   0.050  10.109 -0.5578 -0.2824  0.5912
  768MOL0     C 3574   5.757   0.117  10.225  0.5301 -0.0068 -0.1363
  768MOL0     C 3575   5.681   0.073  10.110  0.9045 -0.0635 -0.9712
  768MOL0     O 3576   5.715  -0.045  10.049 -0.1891 -0.0339 -0.2452
  768MOL0     C 3577   5.630  -0.097   9.965  0.1420  0.3846 -1.2885
  768MOL0     C 3578   5.674  -0.143   9.844  0.3993 -0.2050 -0.1602
  768MOL0     C 3579   5.590  -0.203   9.755 -0.1912 -0.5354  0.1142
  768MOL0     C 3580   5.457  -0.210   9.789 -0.6024  0.2263  0.0219
  768MOL0     O 3581   5.359  -0.263   9.710 -0.0717  0.3949  0.4887
  768MOL0     C 3582   5.367  -0.247   9.565  0.6174  0.3787 -0.2665
  768MOL0     C 3583   5.228  -0.249   9.494  0.2419  0.4735  0.0216
  768MOL0     C 3584   5.149  -0.383   9.513 -0.0131  0.6934  0.0367
  768MOL0     C 3585   5.225  -0.519   9.477 -0.2568 -0.8540  0.5417
  768MOL0     C 3586   5.126  -0.633   9.508  0.6220  0.0638  0.3125
  768MOL0     C 3587   5.013  -0.642   9.408  0.4901 -1.0958  0.3222
  768MOL0     C 3588   5.062  -0.641   9.265  0.4493 -0.3103 -0.4984
  768MOL0     C 3589   4.968  -0.713   9.164 -0.3409 -0.4318 -0.3392
  768MOL0    Cl 3590   5.039  -0.681   9.002  0.5380 -0.3450 -0.3159
  768MOL0     C 3591   5.406  -0.173   9.910 -0.6876  0.0421 -0.3742
  768MOL0     C 3592   5.496  -0.114  10.001 -0.3787  1.2510  0.0822
  768MOL0     O 3593   5.588   0.152  10.082 -0.3945  0.4575  1.0920
  768MOL0     C 3594   5.687   0.185  10.333  0.2526  0.7171  0.3794
  768MOL0     C 3595   5.766   0.236  10.429  0.1013  0.1006 -0.3679
  768MOL0     N 3596   6.273   0.495  10.966  0.5711 -0.1835 -0.5735
  768MOL0     N 3597   6.381   0.575  10.989  0.3864  0.3446  0.5468
  768MOL0     C 3598   6.966   1.649  11.015 -0.9226  0.2580  0.0015
  768MOL0     C 3599   7.059   1.722  11.095  0.2120  0.2255  0.6590
  768MOL0     C 3600   7.378   2.051  11.202 -0.2019  0.1350  0.2674
  768MOL0     C 3601   7.503   2.089  11.244  0.7679  0.8352 -0.0365
  768MOL0     C 3602   7.513   2.175  11.348  0.5084 -0.0159 -0.3158
  768MOL0     C 3603   7.415   2.250  11.410 -0.1994  0.8271 -0.1263
  768MOL0     O 3604   7.437   2.350  11.511  0.3346  0.2264 -0.4643
  768MOL0     C 3605   7.399   2.485  11.485  0.4200  1.0327  0.0124
  768MOL0     C 3606   7.523   2.574  11.497 -1.0168 -0.8880  0.5381
  768MOL0     C 3607   7.636   2.542  11.401 -0.0553 -0.7444 -0.0686
  768MOL0     C 3608   7.607   2.577  11.256  0.1756 -0.0235  0.7804
  768MOL0     C 3609   7.683   2.505  11.159  0.5680  0.4757 -0.5901
  768MOL0     C 3610   7.743   2.471  11.054  1.0834 -0.0542 -0.0320
  768MOL0     C 3611   7.286   2.217  11.363 -0.1740  0.0836 -0.1997
  768MOL0     C 3612   7.267   2.119  11.265 -0.8190  0.3413  0.4078
  768MOL0     H 3613   7.277   1.850  10.874  1.8764 -3.2219  0.2586
  768MOL0     H 3614   7.114   1.699  10.713 -0.8522  0.9376  0.4307
  768MOL0     H 3615   7.023   1.395  10.789 -0.5159 -1.5941  3.7086
  768MOL0     H 3616   6.869   1.400  10.892 -0.6541  1.0348  0.5464
  768MOL0     H 3617   6.730   1.438  10.696  0.4884 -0.9457 -0.9670
  768MOL0     H 3618   6.869   1.431  10.594 -0.2489  3.7454 -0.0997
  768MOL0     H 3619   6.741   1.205  10.578 -6.2124  1.0585  3.2472
  768MOL0     H 3620   6.917   1.197  10.641  0.9143  1.6537  1.1263
  768MOL0     H 3621   6.866   1.118  10.843 -0.2794 -2.7355 -1.5859
  768MOL0     H 3622   6.723   1.218  10.861 -0.1637 -1.9418  1.6793
  768MOL0     H 3623   6.636   1.038  10.675 -0.5844  0.8668  0.7096
  768MOL0     H 3624   6.769   0.943  10.754 -0.0700  1.1556 -2.2672
  768MOL0     H 3625   6.668   0.968  10.961 -0.0346  4.1408  0.6894
  768MOL0     H 3626   6.519   1.046  10.898 -2.9629 -3.2162 -0.3005
  768MOL0     H 3627   6.459   0.861  10.765  0.4686 -1.0265  0.0849
  768MOL0     H 3628   6.607   0.769  10.826  1.9484  0.8083 -2.1319
  768MOL0     H 3629   6.399   0.895  11.017 -0.0611 -0.3618  0.1879
  768MOL0     H 3630   6.518   0.779  11.046  1.0396 -0.7577 -1.3188
  768MOL0     H 3631   6.190   0.801  10.862  3.0717  0.5824 -1.5503
  768MOL0     H 3632   5.988   0.466  10.904 -0.1285 -1.6097 -1.4656
  768MOL0     H 3633   5.967   0.621  10.850  1.1224  1.4716 -0.0478
  768MOL0     H 3634   6.117   0.583  10.642 -1.3498 -0.6792 -1.1998
  768MOL0     H 3635   5.972   0.490  10.661 -1.0312  2.3460 -0.1275
  768MOL0     H 3636   6.114   0.299  10.769 -2.3174  2.6834  1.8175
  768MOL0     H 3637   6.245   0.382  10.680  0.5620 -0.5542 -0.8509
  768MOL0     H 3638   6.178   0.206  10.528 -2.3446 -3.8101  1.2150
  768MOL0     H 3639   6.118   0.367  10.487 -1.3325  1.8775  1.7389
  768MOL0     H 3640   6.072   0.133  10.346  0.6569  3.5538 -0.8468
  768MOL0     H 3641   5.971   0.112  10.019 -0.3282 -1.4753 -0.2873
  768MOL0     H 3642   6.086   0.052  10.140 -0.3717 -2.1372  0.2251
  768MOL0     H 3643   5.967  -0.052  10.070  0.1213  1.0401 -3.6526
  768MOL0     H 3644   5.779  -0.123   9.824  0.5724 -1.9577 -1.2277
  768MOL0     H 3645   5.635  -0.248   9.666 -2.3975 -3.3113  0.2742
  768MOL0     H 3646   5.413  -0.150   9.545  1.3859  0.7121  2.6510
  768MOL0     H 3647   5.434  -0.323   9.522 -1.6450 -1.4699 -0.7347
  768MOL0     H 3648   5.161  -0.167   9.522  1.5284  1.7577 -0.5675
  768MOL0     H 3649   5.240  -0.245   9.386 -2.5749  2.4802 -0.3303
  768MOL0     H 3650   5.051  -0.373   9.466 -0.1946  2.4445  0.7270
  768MOL0     H 3651   5.116  -0.397   9.617 -0.5421  2.8283  0.1956
  768MOL0     H 3652   5.266  -0.515   9.376  0.0958  0.0143  0.7100
  768MOL0     H 3653   5.306  -0.534   9.550  0.1423  0.9423  0.5072
  768MOL0     H 3654   5.091  -0.624   9.612 -2.5767 -3.6804 -0.2248
  768MOL0     H 3655   5.183  -0.726   9.510  2.9971  1.4064 -0.6111
  768MOL0     H 3656   4.948  -0.727   9.428  1.1074 -0.8524  3.9228
  768MOL0     H 3657   4.949  -0.553   9.409 -0.5175 -1.5720 -3.5917
  768MOL0     H 3658   5.160  -0.689   9.261  0.7057 -0.4259  3.3262
  768MOL0     H 3659   5.066  -0.536   9.236  0.8362  0.3592  1.7379
  768MOL0     H 3660   4.866  -0.674   9.160 -1.0950 -2.1609  0.8393
  768MOL0     H 3661   4.960  -0.820   9.188  0.3971 -0.1288  1.4134
  768MOL0     H 3662   5.301  -0.189   9.929 -0.6070 -0.4210 -0.2886
  768MOL0     H 3663   5.449  -0.071  10.089 -2.4896  2.1765 -1.4110
  768MOL0     H 3664   5.579   0.193  10.331  0.1159 -0.8252 -0.3464
  768MOL0     H 3665   5.723   0.280  10.519 -5.4762 -2.1845 -1.4648
  768MOL0     H 3666   6.880   1.592  11.049 -1.1918  0.6755  0.0292
  768MOL0     H 3667   7.036   1.735  11.201 -3.4363  2.0715 -0.1723
  768MOL0     H 3668   7.590   2.053  11.189  0.6621  1.2537 -0.4861
  768MOL0     H 3669   7.611   2.191  11.389 -0.3602  0.5350  1.6615
  768MOL0     H 3670   7.354   2.502  11.387 -1.5862  1.2823  0.9181
  768MOL0     H 3671   7.329   2.512  11.566 -0.1729  0.6789 -0.3742
  768MOL0     H 3672   7.571   2.551  11.593 -0.3136  0.1342  0.4533
  768MOL0     H 3673   7.503   2.682  11.504 -0.8784 -0.6298 -2.1735
  768MOL0     H 3674   7.668   2.437  11.406 -1.0122 -1.0997 -0.9947
  768MOL0     H 3675   7.720   2.604  11.433 -1.7522 -0.6685  5.1259
  768MOL0     H 3676   7.611   2.686  11.248  0.9436  0.0489  1.9417
  768MOL0     H 3677   7.506   2.543  11.231  0.6207 -1.1105  0.4540
  768MOL0     H 3678   7.796   2.449  10.964 -1.2243  2.8599 -2.2787
  768MOL0     H 3679   7.198   2.276  11.386 -2.3643  0.3689 -6.8955
  768MOL0     H 3680   7.163   2.094  11.248 -1.5559  0.1812  4.1429
  769MOL0     O 3681   6.280   9.277   6.999  0.0310 -0.1996  0.3929
  769MOL0     C 3682   6.236   9.376   6.948  0.5330  0.1078  0.6025
  769MOL0     O 3683   6.290   9.505   6.964  0.1924  0.8127  0.2111
  769MOL0     C 3684   6.401   9.519   7.041 -0.4646  1.6132  0.3851
  769MOL0     C 3685   6.532   9.563   6.993  0.4336 -0.0740  0.2271
  769MOL0     C 3686   6.636   9.597   7.080 -0.5043 -0.2240  0.0592
  769MOL0     C 3687   6.623   9.572   7.214  0.6591 -0.1879 -0.0303
  769MOL0     O 3688   6.724   9.572   7.307 -0.7098  0.4213  0.6468
  769MOL0     C 3689   6.845   9.505   7.282  0.8171  0.2929 -0.4376
  769MOL0     C 3690   6.963   9.604   7.308  0.2624 -0.1289  0.3264
  769MOL0     C 3691   6.941   9.692   7.430  0.6675 -0.2814  0.0800
  769MOL0     C 3692   6.878   9.820   7.379 -0.0408 -0.5068 -0.5399
  769MOL0     C 3693   6.840   9.908   7.496  0.2139 -0.4550  0.5208
  769MOL0     C 3694   6.958   9.956   7.588 -0.6273 -0.0957 -0.0279
  769MOL0     C 3695   7.072  10.048   7.539  0.1784  0.8016  1.0136
  769MOL0     C 3696   7.032  10.193   7.537 -0.6225 -0.2018 -0.6770
  769MOL0     N 3697   7.017  10.243   7.676  0.2206 -0.2308  1.0030
  769MOL0     C 3698   7.118  10.315   7.734 -0.4064  0.4554  0.2117
  769MOL0     C 3699   7.046  10.378   7.828  0.4255 -0.0441  0.0557
  769MOL0     C 3700   7.079  10.477   7.925 -0.0572 -0.5847  0.2124
  769MOL0     C 3701   7.091  10.609   7.855 -0.7104 -0.9591 -0.2220
  769MOL0     C 3702   7.027  10.721   7.932  0.1101  0.2941 -0.5135
  769MOL0     C 3703   7.070  10.735   8.081  0.7771  0.0259  0.0720
  769MOL0     O 3704   7.212  10.711   8.084 -0.5683  0.3930  0.2976
  769MOL0     C 3705   7.282  10.750   8.198  0.9941 -0.3983 -0.0037
  769MOL0     C 3706   7.226  10.746   8.324 -0.6685  0.9268 -0.0249
  769MOL0     C 3707   7.298  10.773   8.436  0.5840  0.1598 -0.1973
  769MOL0     C 3708   7.217  10.740   8.569  1.0523  0.2458  0.3441
  769MOL0     C 3709   7.434  10.809   8.425 -0.3394 -0.5000 -0.1065
  769MOL0     C 3710   7.531  10.837   8.542  0.9769  0.7257 -0.5698
  769MOL0     O 3711   7.659  10.800   8.516  0.1520 -0.5814 -0.3950
  769MOL0     C 3712   7.773  10.828   8.584  0.0107 -0.4010  0.2763
  769MOL0     C 3713   7.786  10.915   8.694  0.1701  0.6606 -0.1184
  769MOL0     C 3714   7.904  10.927   8.764 -0.4101 -0.1258  0.3029
  769MOL0     C 3715   8.021  10.867   8.716  0.0899  0.1970 -0.1328
  769MOL0     O 3716   8.145  10.873   8.772 -0.3794  0.8262 -0.5077
  769MOL0     C 3717   8.179  10.970   8.865  0.2370 -0.4896 -0.5504
  769MOL0     C 3718   8.323  11.024   8.841  0.3643  0.1958 -0.1073
  769MOL0     C 3719   8.335  11.101   8.704  0.7715  0.3171  0.3758
  769MOL0     C 3720   8.476  11.175   8.684  0.4784 -0.4130  0.3240
  769MOL0     C 3721   8.466  11.247   8.548 -0.0789 -0.0529 -0.8175
  769MOL0     C 3722   8.596  11.307   8.503 -0.9137 -0.2267  0.8380
  769MOL0     C 3723   8.657  11.408   8.592 -0.1171  0.4227 -1.7741
  769MOL0     C 3724   8.781  11.471   8.520 -0.3897 -0.3997  1.0225
  769MOL0    Cl 3725   8.846  11.591   8.635 -0.4726  0.0548 -0.4263
  769MOL0     C 3726   8.009  10.778   8.612 -0.0008 -1.0495  0.1391
  769MOL0     C 3727   7.882  10.752   8.555  0.0431  1.0087  0.3258
  769MOL0     O 3728   7.494  10.900   8.645  0.0921 -1.0430  0.2231
  769MOL0     C 3729   7.484  10.822   8.294 -0.8734  0.7498 -0.2270
  769MOL0     C 3730   7.415  10.789   8.174  0.7178  0.2773 -0.6853
  769MOL0     N 3731   6.913  10.346   7.829  0.7949  0.4822  0.2120
  769MOL0     N 3732   6.891  10.262   7.728 -0.3585 -0.4920  1.0786
  769MOL0     C 3733   6.503   9.530   7.267 -0.4900 -0.9123 -0.7404
  769MOL0     C 3734   6.398   9.513   7.178 -0.1381  0.3414 -0.1537
  769MOL0     C 3735   6.112   9.344   6.863 -0.5411  0.3654 -0.7974
  769MOL0     C 3736   6.032   9.452   6.834  0.6557  0.6116  0.5869
  769MOL0     C 3737   5.920   9.432   6.750  0.5352 -0.0399 -0.2709
  769MOL0     C 3738   5.883   9.306   6.701  0.2125 -0.3460 -0.3635
  769MOL0     O 3739   5.783   9.314   6.603 -0.7188  0.0238 -0.6483
  769MOL0     C 3740   5.822   9.271   6.473 -0.2748  0.9940  0.1104
  769MOL0     C 3741   5.834   9.393   6.387  0.1004 -0.3416 -0.3487
  769MOL0     C 3742   5.968   9.421   6.326  0.5076  0.2231 -0.2652
  769MOL0     C 3743   6.072   9.464   6.430 -0.3673 -0.5732  0.2012
  769MOL0     C 3744   6.212   9.478   6.385 -1.1513 -0.0366 -0.1334
  769MOL0     C 3745   6.328   9.499   6.337 -0.0826  0.2982  0.1694
  769MOL0     C 3746   5.974   9.205   6.722 -0.5867  0.2222 -0.2930
  769MOL0     C 3747   6.086   9.228   6.798 -0.9034  0.5961  0.1799
  769MOL0     H 3748   6.547   9.589   6.889  0.7553  2.3709  0.8233
  769MOL0     H 3749   6.729   9.633   7.037 -0.5913  0.1380  0.1735
  769MOL0     H 3750   6.861   9.431   7.361  1.2429  2.4617  1.6671
  769MOL0     H 3751   6.848   9.461   7.183  0.4537 -0.8730  0.0589
  769MOL0     H 3752   7.053   9.548   7.337  0.6815 -0.2552 -1.1333
  769MOL0     H 3753   6.999   9.663   7.223 -6.2232  1.8082 -1.6358
  769MOL0     H 3754   6.897   9.629   7.508 -3.2902  0.2305 -1.4939
  769MOL0     H 3755   7.040   9.719   7.467  0.5807 -1.7744  1.5207
  769MOL0     H 3756   6.941   9.872   7.307 -2.2236  0.7127 -1.6740
  769MOL0     H 3757   6.792   9.788   7.319  0.0517 -2.4904  0.3102
  769MOL0     H 3758   6.782   9.994   7.460 -1.6355 -2.1507 -0.7825
  769MOL0     H 3759   6.771   9.853   7.561  0.9125  1.9347  3.5508
  769MOL0     H 3760   6.896  10.006   7.662  1.5927  2.4764  0.2166
  769MOL0     H 3761   7.006   9.870   7.636 -0.3570 -1.4148 -2.4812
  769MOL0     H 3762   7.167  10.044   7.593  1.4280  1.2428 -1.0668
  769MOL0     H 3763   7.095  10.025   7.434  0.6111 -2.3496  1.6936
  769MOL0     H 3764   6.937  10.200   7.482 -0.4437  0.7875 -0.8628
  769MOL0     H 3765   7.100  10.260   7.485  0.3013 -0.3855  0.2514
  769MOL0     H 3766   7.222  10.339   7.716 -0.3331 -0.0737 -0.0818
  769MOL0     H 3767   7.006  10.484   8.006 -0.2726  0.9773 -0.0903
  769MOL0     H 3768   7.170  10.443   7.975  1.1407 -1.9181 -2.6277
  769MOL0     H 3769   7.052  10.609   7.753  2.0995 -0.1271 -1.3953
  769MOL0     H 3770   7.195  10.643   7.844 -1.3860  0.6302 -2.1777
  769MOL0     H 3771   6.919  10.710   7.925  0.0715 -0.0212  0.3642
  769MOL0     H 3772   7.045  10.814   7.877 -1.1850  1.9372  1.6741
  769MOL0     H 3773   7.004  10.673   8.143 -1.7011 -0.3181 -2.6719
  769MOL0     H 3774   7.066  10.839   8.114  1.7936 -0.4930  2.0083
  769MOL0     H 3775   7.127  10.702   8.327 -0.3250  0.1915  1.5289
  769MOL0     H 3776   7.162  10.828   8.602 -0.3065  0.3534 -2.0069
  769MOL0     H 3777   7.143  10.660   8.558  0.5327  0.5973  1.2563
  769MOL0     H 3778   7.280  10.702   8.650  1.0882 -1.0670 -0.2585
  769MOL0     H 3779   7.697  10.968   8.726  0.1398 -0.0759  1.0749
  769MOL0     H 3780   7.915  10.986   8.855  1.1880  2.5378 -1.4691
  769MOL0     H 3781   8.103  11.048   8.876 -0.5957 -1.3998  0.3454
  769MOL0     H 3782   8.190  10.930   8.966  1.4999  1.2899  0.0730
  769MOL0     H 3783   8.352  11.096   8.918  0.1739 -0.4934  0.6267
  769MOL0     H 3784   8.393  10.941   8.855  2.2528  1.9779  1.7431
  769MOL0     H 3785   8.261  11.180   8.714 -1.2286 -0.9918 -2.6385
  769MOL0     H 3786   8.302  11.041   8.618 -1.9398  2.2038 -0.0166
  769MOL0     H 3787   8.496  11.251   8.760 -1.4916  0.3136  0.1835
  769MOL0     H 3788   8.547  11.092   8.681 -0.2209 -1.0642  1.1941
  769MOL0     H 3789   8.373  11.305   8.558  1.6566  2.5668  1.6064
  769MOL0     H 3790   8.446  11.170   8.473 -1.8865  0.7619 -1.2423
  769MOL0     H 3791   8.664  11.226   8.476 -0.0700 -0.0273  2.2586
  769MOL0     H 3792   8.575  11.363   8.411  2.7994  0.1218  0.0652
  769MOL0     H 3793   8.687  11.372   8.690 -3.5765  2.8867  0.4150
  769MOL0     H 3794   8.580  11.483   8.610  0.5744  0.6938  0.2378
  769MOL0     H 3795   8.758  11.541   8.439  1.3999  0.5187  1.2627
  769MOL0     H 3796   8.860  11.404   8.485 -1.6453 -1.6257  0.4584
  769MOL0     H 3797   8.098  10.725   8.579 -0.3107 -1.6013  0.1776
  769MOL0     H 3798   7.862  10.673   8.483  2.9118 -2.5767  3.1017
  769MOL0     H 3799   7.584  10.861   8.276 -1.0732  3.6516  3.6994
  769MOL0     H 3800   7.449  10.795   8.071  0.3681  1.2656 -0.7541
  769MOL0     H 3801   6.480   9.512   7.371 -3.7976 -0.7106 -1.3277
  769MOL0     H 3802   6.295   9.498   7.208 -0.4628 -0.0966 -1.4174
  769MOL0     H 3803   6.061   9.549   6.875  4.3076 -0.6177  1.2795
  769MOL0     H 3804   5.871   9.524   6.719 -3.1794 -1.5608  0.5885
  769MOL0     H 3805   5.912   9.210   6.466 -0.5025  0.5904  0.5964
  769MOL0     H 3806   5.741   9.209   6.432 -0.7982  1.8857 -0.2277
  769MOL0     H 3807   5.806   9.477   6.451 -0.8047 -1.6535  1.0325
  769MOL0     H 3808   5.755   9.385   6.312 -0.8606  2.4165  0.2458
  769MOL0     H 3809   5.961   9.502   6.253  4.5101  0.3564 -0.7374
  769MOL0     H 3810   6.009   9.335   6.272 -2.3696 -1.2757 -0.2972
  769MOL0     H 3811   6.079   9.394   6.514 -0.1110 -0.5230  0.2208
  769MOL0     H 3812   6.033   9.560   6.467  3.0104  0.3136  1.9396
  769MOL0     H 3813   6.406   9.532   6.271  3.2740 -2.9125  2.1811
  769MOL0     H 3814   5.950   9.117   6.664 -1.5127  0.2726 -0.0004
  769MOL0     H 3815   6.166   9.155   6.807 -1.8968 -0.5751 -0.1725
  770MOL0     O 3816  10.733   1.529   2.203  0.6720  0.0157  0.7487
  770MOL0     C 3817  10.851   1.532   2.234  0.6402 -0.6391 -0.4870
  770MOL0     O 3818  10.939   1.434   2.230 -0.4199  0.7925  0.2725
  770MOL0     C 3819  10.925   1.299   2.212 -0.3103  0.1974  0.4642
  770MOL0     C 3820  10.815   1.223   2.254  0.5512 -0.8084  0.4429
  770MOL0     C 3821  10.810   1.085   2.260 -0.1429 -0.0113 -1.0465
  770MOL0     C 3822  10.909   1.010   2.204  0.4663 -1.1073 -0.7950
  770MOL0     O 3823  10.894   0.876   2.209  0.3633  0.5427 -0.6119
  770MOL0     C 3824  10.942   0.804   2.100  0.4497  0.7774 -0.3448
  770MOL0     C 3825  10.839   0.840   1.988 -0.7099  0.8898 -0.1732
  770MOL0     C 3826  10.687   0.798   2.001 -1.2987 -0.4704  0.3416
  770MOL0     C 3827  10.660   0.661   2.046  0.4007  0.2818  0.8451
  770MOL0     C 3828  10.509   0.649   2.067 -0.2179  0.9327  0.2941
  770MOL0     C 3829  10.428   0.638   1.942  0.9725 -0.0479 -1.2448
  770MOL0     C 3830  10.278   0.633   1.966 -0.4327 -1.5814  0.4241
  770MOL0     C 3831  10.211   0.609   1.828 -1.0076  0.8936 -0.1850
  770MOL0     N 3832  10.066   0.593   1.854 -0.3410 -0.3351  0.6519
  770MOL0     C 3833   9.982   0.694   1.821  0.6497  0.2008  1.1036
  770MOL0     C 3834   9.858   0.653   1.857 -0.1235  1.3101  0.2910
  770MOL0     C 3835   9.739   0.740   1.837  0.3611  1.0702 -0.3793
  770MOL0     C 3836   9.654   0.686   1.725  0.9189 -0.5563  0.0347
  770MOL0     C 3837   9.728   0.680   1.592 -0.5797  0.4749 -0.3407
  770MOL0     C 3838   9.629   0.635   1.495  0.1927 -0.5166 -0.4487
  770MOL0     O 3839   9.531   0.737   1.476 -0.4327  0.9378  0.6232
  770MOL0     C 3840   9.410   0.711   1.413  0.4903  0.0466  1.0371
  770MOL0     C 3841   9.330   0.827   1.376 -0.3084 -0.2070  0.3506
  770MOL0     C 3842   9.203   0.818   1.313 -0.3184  0.4347  0.2835
  770MOL0     C 3843   9.130   0.945   1.281  0.0404 -0.5009  0.5187
  770MOL0     C 3844   9.149   0.689   1.287  0.3801 -0.1431  0.8354
  770MOL0     C 3845   9.025   0.664   1.209  0.4453  0.8382  0.5416
  770MOL0     O 3846   9.020   0.538   1.158  0.6532 -0.2669  0.8277
  770MOL0     C 3847   8.909   0.505   1.091  0.5703  0.4444 -0.0764
  770MOL0     C 3848   8.789   0.454   1.141 -0.0968 -0.7120 -0.3314
  770MOL0     C 3849   8.679   0.424   1.058 -0.8964 -0.3545  0.0286
  770MOL0     C 3850   8.690   0.454   0.920  0.4030  0.0297  1.1671
  770MOL0     O 3851   8.587   0.419   0.833  0.0758  0.2221 -0.6655
  770MOL0     C 3852   8.457   0.414   0.875  0.0641  0.2327 -0.4981
  770MOL0     C 3853   8.380   0.415   0.742 -0.3281  0.0350  0.5964
  770MOL0     C 3854   8.226   0.378   0.763 -1.0275 -0.2037  0.6561
  770MOL0     C 3855   8.132   0.457   0.667 -0.8233  0.0241  0.2241
  770MOL0     C 3856   7.990   0.401   0.656  0.3673  0.4482 -0.4522
  770MOL0     C 3857   7.980   0.296   0.544  0.4717  0.3778  0.2765
  770MOL0     C 3858   7.845   0.234   0.523 -0.0211 -0.4847  0.1615
  770MOL0     C 3859   7.770   0.308   0.411  0.1196  0.4015  0.0270
  770MOL0    Cl 3860   7.819   0.243   0.248 -0.6758 -0.5929  0.0710
  770MOL0     C 3861   8.809   0.502   0.869  0.6046  1.0592 -0.0690
  770MOL0     C 3862   8.915   0.533   0.956  0.0335  0.2272  0.6398
  770MOL0     O 3863   8.934   0.744   1.202  0.6926 -1.0959  0.5865
  770MOL0     C 3864   9.220   0.567   1.326 -0.4846  0.0669  0.7161
  770MOL0     C 3865   9.354   0.586   1.374  0.2396 -0.8766 -0.6178
  770MOL0     N 3866   9.880   0.523   1.906 -0.1803  0.6236 -0.2354
  770MOL0     N 3867  10.001   0.485   1.916  0.5437  0.6383  0.3613
  770MOL0     C 3868  11.025   1.079   2.167 -0.5569 -0.6032  0.8394
  770MOL0     C 3869  11.033   1.219   2.178  0.2963 -0.4329  0.2411
  770MOL0     C 3870  10.901   1.673   2.257  0.9436  0.7434  1.3788
  770MOL0     C 3871  11.026   1.688   2.325  0.8810  0.5416  0.8300
  770MOL0     C 3872  11.070   1.820   2.352  0.6677 -0.6060 -0.3324
  770MOL0     C 3873  10.997   1.937   2.316  0.6256  0.1032 -0.1007
  770MOL0     O 3874  11.049   2.060   2.357  1.1939  0.0633  0.4416
  770MOL0     C 3875  10.963   2.181   2.364 -0.3387  0.4835 -0.5757
  770MOL0     C 3876  11.031   2.296   2.438 -0.0544 -0.3367  0.1103
  770MOL0     C 3877  10.948   2.430   2.436  0.5975  0.0195  0.0151
  770MOL0     C 3878  11.004   2.538   2.531 -0.1146  0.7772  1.6698
  770MOL0     C 3879  11.144   2.570   2.505  0.2059 -0.5541  0.5647
  770MOL0     C 3880  11.260   2.588   2.491 -0.0213  0.7994 -0.3862
  770MOL0     C 3881  10.870   1.920   2.264 -0.4543  0.4513  0.7273
  770MOL0     C 3882  10.830   1.792   2.223  0.8573 -0.2130  0.2232
  770MOL0     H 3883  10.729   1.278   2.292  1.9004  3.4338 -1.8904
  770MOL0     H 3884  10.724   1.028   2.294 -0.4146  1.0020  0.0073
  770MOL0     H 3885  11.042   0.831   2.064 -0.7810  1.8256 -3.2905
  770MOL0     H 3886  10.931   0.699   2.127  1.4118 -0.2514 -3.5149
  770MOL0     H 3887  10.855   0.944   1.959 -0.5175  0.7423 -0.6056
  770MOL0     H 3888  10.870   0.788   1.897  0.0214  0.0670  0.5331
  770MOL0     H 3889  10.662   0.859   2.088 -0.0716 -0.7536  0.9160
  770MOL0     H 3890  10.642   0.834   1.908  0.1508  3.4895  0.9837
  770MOL0     H 3891  10.702   0.586   1.978 -3.2749 -0.2383 -1.0840
  770MOL0     H 3892  10.694   0.639   2.147  2.0876  1.3325  0.5534
  770MOL0     H 3893  10.503   0.551   2.115  2.7763  0.4834 -0.0687
  770MOL0     H 3894  10.472   0.719   2.143 -0.6486 -0.6886  1.6484
  770MOL0     H 3895  10.443   0.726   1.878  0.8764  1.0856  0.2280
  770MOL0     H 3896  10.464   0.550   1.888  0.0525 -0.6537 -0.8707
  770MOL0     H 3897  10.249   0.560   2.043 -4.7481  0.6701  1.2483
  770MOL0     H 3898  10.233   0.726   2.002  2.4986  0.5951 -1.1496
  770MOL0     H 3899  10.252   0.514   1.792 -3.6769 -1.7160  2.9622
  770MOL0     H 3900  10.232   0.694   1.763  2.5758  0.1165 -0.2374
  770MOL0     H 3901  10.007   0.791   1.779  2.5810  0.0556  1.8115
  770MOL0     H 3902   9.679   0.745   1.928  0.5580 -2.0827  0.0204
  770MOL0     H 3903   9.761   0.846   1.820  0.4049  0.9367 -1.1880
  770MOL0     H 3904   9.576   0.762   1.721  4.1884  3.1173 -2.6630
  770MOL0     H 3905   9.615   0.587   1.749  0.7828 -0.2130  1.3361
  770MOL0     H 3906   9.799   0.597   1.594 -0.0755  0.8441 -2.0150
  770MOL0     H 3907   9.786   0.772   1.578  0.3311 -0.2788 -1.6894
  770MOL0     H 3908   9.568   0.549   1.524 -2.5340 -0.2401 -4.4936
  770MOL0     H 3909   9.678   0.600   1.403  1.4560  5.0658 -2.3011
  770MOL0     H 3910   9.367   0.928   1.390 -0.1683 -0.0836 -0.8128
  770MOL0     H 3911   9.126   0.965   1.173  1.3539 -1.5297  0.2539
  770MOL0     H 3912   9.030   0.939   1.324 -1.3259 -1.8831 -2.5309
  770MOL0     H 3913   9.186   1.025   1.331  0.7784 -0.2033 -0.7243
  770MOL0     H 3914   8.777   0.434   1.247 -0.5667 -1.8003 -0.5737
  770MOL0     H 3915   8.586   0.387   1.100 -2.0836  0.8570 -1.4026
  770MOL0     H 3916   8.431   0.316   0.916  2.3547 -1.0704 -1.9659
  770MOL0     H 3917   8.431   0.499   0.938  3.1965  0.0720  1.1849
  770MOL0     H 3918   8.392   0.513   0.694 -0.5979 -0.5865 -0.7852
  770MOL0     H 3919   8.418   0.346   0.667  0.1423  2.2206 -1.2720
  770MOL0     H 3920   8.202   0.403   0.867 -0.5147  2.5866  0.1992
  770MOL0     H 3921   8.204   0.272   0.748 -1.2730  0.2139 -2.7070
  770MOL0     H 3922   8.138   0.553   0.719  0.0226  0.3991 -0.5456
  770MOL0     H 3923   8.173   0.471   0.567  0.1875  0.9315  0.7411
  770MOL0     H 3924   7.921   0.486   0.649 -0.7164 -0.3060  0.6487
  770MOL0     H 3925   7.961   0.354   0.750  0.8797  2.9858  1.0705
  770MOL0     H 3926   8.008   0.348   0.452 -1.5307  4.2065  1.6099
  770MOL0     H 3927   8.048   0.212   0.560  1.5545  0.9326 -1.2660
  770MOL0     H 3928   7.796   0.256   0.618 -0.5943  1.0306 -0.4527
  770MOL0     H 3929   7.850   0.125   0.510 -0.5881 -0.5478  0.4643
  770MOL0     H 3930   7.780   0.416   0.427  0.8969  0.5145 -1.0875
  770MOL0     H 3931   7.665   0.281   0.428 -0.0454  1.0612  0.0921
  770MOL0     H 3932   8.826   0.527   0.765  2.2536 -0.2027 -0.1588
  770MOL0     H 3933   9.004   0.562   0.900  1.3265 -0.4649  2.2408
  770MOL0     H 3934   9.198   0.462   1.308 -1.0318  0.2239  0.4500
  770MOL0     H 3935   9.401   0.491   1.400 -4.0961 -3.1200 -0.0481
  770MOL0     H 3936  11.120   1.030   2.151  0.4680  1.6812 -0.5365
  770MOL0     H 3937  11.131   1.264   2.162 -1.3119  3.1577 -0.5951
  770MOL0     H 3938  11.077   1.602   2.368 -0.2018 -1.5467 -1.7831
  770MOL0     H 3939  11.164   1.851   2.395  0.3497  1.8088 -1.2071
  770MOL0     H 3940  10.935   2.217   2.265 -0.8799 -2.0415 -1.4234
  770MOL0     H 3941  10.873   2.150   2.417  0.4773  0.4259  0.8574
  770MOL0     H 3942  11.118   2.331   2.381  0.3944 -1.0698  0.3189
  770MOL0     H 3943  11.051   2.268   2.542 -1.7891  2.4185  1.2865
  770MOL0     H 3944  10.842   2.404   2.445  0.4876  0.6119  0.5327
  770MOL0     H 3945  10.943   2.464   2.332 -2.6946 -2.2874 -0.7263
  770MOL0     H 3946  10.982   2.504   2.632 -0.5856 -0.5846  1.1312
  770MOL0     H 3947  10.936   2.623   2.514  0.8426  1.7582  2.6302
  770MOL0     H 3948  11.360   2.597   2.453  1.0858 -3.7580  0.8649
  770MOL0     H 3949  10.814   2.007   2.231  1.2996  1.0051 -0.9375
  770MOL0     H 3950  10.727   1.791   2.189  0.6866  2.2708  0.4812
  771MOL0     O 3951   4.018   4.053   4.387 -0.5495  0.1428  0.0026
  771MOL0     C 3952   4.103   4.019   4.469  0.0807 -0.3346 -0.7315
  771MOL0     O 3953   4.076   3.941   4.585  0.3976 -0.0129 -0.3983
  771MOL0     C 3954   3.947   3.884   4.619 -0.2099  0.2800  0.1329
  771MOL0     C 3955   3.916   3.865   4.752  0.8072  1.3680 -0.9153
  771MOL0     C 3956   3.786   3.810   4.776 -1.0383 -0.1257  0.1926
  771MOL0     C 3957   3.692   3.773   4.688 -0.5306  0.0646  0.2081
  771MOL0     O 3958   3.582   3.719   4.739  0.2384  0.8459  0.1697
  771MOL0     C 3959   3.449   3.726   4.672 -0.4718  0.5197 -0.4272
  771MOL0     C 3960   3.371   3.590   4.678  0.7070  0.0650 -0.7343
  771MOL0     C 3961   3.404   3.521   4.542  0.8253 -0.0456 -0.2275
  771MOL0     C 3962   3.315   3.394   4.520 -1.4056 -0.8075 -1.1464
  771MOL0     C 3963   3.355   3.312   4.407  0.5307 -0.7258  0.5875
  771MOL0     C 3964   3.491   3.252   4.401 -0.0096  0.3685 -0.5390
  771MOL0     C 3965   3.563   3.205   4.526 -1.0040 -0.0503 -0.4546
  771MOL0     C 3966   3.716   3.188   4.503 -0.0404 -0.5930 -0.4221
  771MOL0     N 3967   3.751   3.086   4.403 -0.8733 -0.5857 -0.1133
  771MOL0     C 3968   3.668   2.988   4.352 -1.0273 -0.4339  0.8578
  771MOL0     C 3969   3.749   2.921   4.252  0.4604  0.6700 -0.7662
  771MOL0     C 3970   3.707   2.811   4.159  0.3020 -0.7567  0.7416
  771MOL0     C 3971   3.607   2.719   4.233  0.1754  0.3776  0.2383
  771MOL0     C 3972   3.525   2.615   4.149 -0.5840  0.5525 -0.4878
  771MOL0     C 3973   3.619   2.510   4.068 -0.4955  0.1812  0.0942
  771MOL0     O 3974   3.687   2.563   3.955 -0.4653 -0.3969  1.1195
  771MOL0     C 3975   3.735   2.483   3.852 -0.3667 -0.2139  0.0422
  771MOL0     C 3976   3.768   2.348   3.878  0.4598  0.6418 -0.3707
  771MOL0     C 3977   3.823   2.265   3.778 -0.7686  1.0084 -0.0003
  771MOL0     C 3978   3.847   2.124   3.822  0.3548 -0.2366 -0.4216
  771MOL0     C 3979   3.852   2.309   3.647  0.8937 -0.0426 -0.0216
  771MOL0     C 3980   3.916   2.238   3.543 -0.2860 -1.3347 -0.2642
  771MOL0     O 3981   4.010   2.311   3.470  0.1406 -0.6326 -0.7658
  771MOL0     C 3982   4.018   2.274   3.336  0.0865 -1.2616  0.0769
  771MOL0     C 3983   4.151   2.258   3.280 -0.6689 -0.2511 -0.6112
  771MOL0     C 3984   4.167   2.241   3.142 -0.4814  0.4541 -0.0013
  771MOL0     C 3985   4.058   2.216   3.050  0.1598  0.3826  0.5540
  771MOL0     O 3986   4.090   2.177   2.924 -0.4626  0.9257  0.0978
  771MOL0     C 3987   4.010   2.080   2.871 -0.3788  0.5414  0.5930
  771MOL0     C 3988   4.038   2.062   2.719 -0.4970  0.6037  0.4412
  771MOL0     C 3989   3.939   1.972   2.638 -0.4979 -0.7308  0.3471
  771MOL0     C 3990   3.821   2.052   2.599  0.7034 -0.3543  0.3064
  771MOL0     C 3991   3.734   1.961   2.515  0.3741 -1.1093 -0.1729
  771MOL0     C 3992   3.599   2.031   2.474  0.2462 -0.4457  0.4887
  771MOL0     C 3993   3.511   1.945   2.375  0.1219  0.0717 -0.1525
  771MOL0     C 3994   3.477   1.816   2.447  0.0525  0.1375  0.5599
  771MOL0    Cl 3995   3.353   1.832   2.577 -0.6334  0.3460 -0.1926
  771MOL0     C 3996   3.929   2.218   3.103  0.0170  0.0650  0.0947
  771MOL0     C 3997   3.910   2.246   3.237  0.1191 -0.1998 -0.0886
  771MOL0     O 3998   3.864   2.132   3.500  0.7807  0.2230 -0.3236
  771MOL0     C 3999   3.824   2.447   3.631 -1.2849  1.4472  0.1001
  771MOL0     C 4000   3.772   2.535   3.725  0.1582 -0.1829  0.2416
  771MOL0     N 4001   3.870   2.983   4.247 -0.3075 -0.0876  0.0922
  771MOL0     N 4002   3.869   3.086   4.330 -0.2820 -0.4036  0.3852
  771MOL0     C 4003   3.723   3.784   4.561  0.3683 -1.2161 -0.2723
  771MOL0     C 4004   3.846   3.851   4.520 -0.3206 -0.3621 -0.6939
  771MOL0     C 4005   4.243   4.078   4.456 -0.3152 -0.0905  0.3223
  771MOL0     C 4006   4.334   4.060   4.553 -0.3346  0.1697 -0.6137
  771MOL0     C 4007   4.469   4.080   4.536  0.2597 -0.7093  1.2838
  771MOL0     C 4008   4.515   4.148   4.429 -0.3830  0.6610  0.3228
  771MOL0     O 4009   4.645   4.167   4.412 -0.0728 -0.1881  0.0418
  771MOL0     C 4010   4.745   4.108   4.500 -0.1607 -0.5644  0.3764
  771MOL0     C 4011   4.894   4.141   4.467  0.4963 -0.3676 -0.0606
  771MOL0     C 4012   4.903   4.299   4.475 -0.3914 -0.7064  0.2565
  771MOL0     C 4013   4.971   4.365   4.353 -0.7896 -0.0624  0.4712
  771MOL0     C 4014   5.115   4.331   4.362 -0.2487 -0.0196  0.3251
  771MOL0     C 4015   5.236   4.309   4.355  0.3457 -0.7354  0.1665
  771MOL0     C 4016   4.427   4.182   4.328  0.4495 -0.7202 -0.1067
  771MOL0     C 4017   4.292   4.137   4.335 -0.6388  0.8705 -0.8539
  771MOL0     H 4018   3.978   3.870   4.841 -1.7861 -0.0053  1.1231
  771MOL0     H 4019   3.759   3.807   4.882 -0.3190  0.8997  0.4264
  771MOL0     H 4020   3.387   3.793   4.734 -0.2484  0.2809  0.0559
  771MOL0     H 4021   3.452   3.767   4.571  1.3740 -0.2265 -0.7011
  771MOL0     H 4022   3.407   3.543   4.770 -0.3896 -0.4810 -0.5687
  771MOL0     H 4023   3.267   3.611   4.703  1.6404  1.7992  2.1130
  771MOL0     H 4024   3.401   3.591   4.458  2.7372  1.8289  1.1617
  771MOL0     H 4025   3.511   3.497   4.541  0.7037 -0.7531  1.2695
  771MOL0     H 4026   3.309   3.332   4.610 -0.9253  0.1198 -0.4544
  771MOL0     H 4027   3.211   3.412   4.489 -2.0122  0.9789  1.5469
  771MOL0     H 4028   3.287   3.227   4.404 -0.9464  0.3354  2.3197
  771MOL0     H 4029   3.338   3.371   4.317  1.4953  0.4376  1.1476
  771MOL0     H 4030   3.475   3.164   4.339  1.8772 -0.6085  0.3014
  771MOL0     H 4031   3.555   3.318   4.342 -1.3539  1.0374 -1.3144
  771MOL0     H 4032   3.544   3.285   4.598 -0.4174 -0.6796  0.4226
  771MOL0     H 4033   3.524   3.115   4.575 -1.6436  0.3616 -0.1889
  771MOL0     H 4034   3.768   3.149   4.591  1.4614 -4.3992 -2.7303
  771MOL0     H 4035   3.764   3.283   4.477  0.1162 -1.4658 -3.8725
  771MOL0     H 4036   3.563   2.968   4.369 -1.7348 -1.2290 -3.4393
  771MOL0     H 4037   3.659   2.857   4.072 -0.9392 -3.3523 -0.0463
  771MOL0     H 4038   3.797   2.755   4.129  0.4417  0.3441 -1.0987
  771MOL0     H 4039   3.534   2.782   4.285  0.6191 -1.3895  3.2364
  771MOL0     H 4040   3.652   2.660   4.313 -2.9288 -0.7899  1.2680
  771MOL0     H 4041   3.468   2.673   4.076  0.1418  0.3075 -1.2648
  771MOL0     H 4042   3.456   2.556   4.210  0.7152 -2.3217 -1.6065
  771MOL0     H 4043   3.551   2.432   4.032  0.8312 -0.2381 -1.6038
  771MOL0     H 4044   3.688   2.461   4.138 -2.2984 -1.9753  0.5009
  771MOL0     H 4045   3.753   2.319   3.981 -0.5973  0.5071 -0.5529
  771MOL0     H 4046   3.951   2.112   3.851 -0.1358 -0.6509  1.2612
  771MOL0     H 4047   3.788   2.094   3.909 -1.0390  2.7146 -0.2311
  771MOL0     H 4048   3.821   2.042   3.754  0.9136 -2.3969  1.8556
  771MOL0     H 4049   4.239   2.263   3.343 -1.3276 -1.5281  0.4428
  771MOL0     H 4050   4.266   2.223   3.101 -0.6679  2.2596 -1.3452
  771MOL0     H 4051   4.015   1.985   2.924  2.6502  1.5114  2.2856
  771MOL0     H 4052   3.903   2.101   2.884 -1.6189 -3.0268 -2.2671
  771MOL0     H 4053   4.043   2.160   2.671 -0.1189  0.0056 -0.7615
  771MOL0     H 4054   4.141   2.026   2.707 -1.7180 -2.3997 -2.2245
  771MOL0     H 4055   3.918   1.882   2.696  2.0085 -1.5764  0.0855
  771MOL0     H 4056   4.003   1.937   2.556  0.9888  0.5611  0.8939
  771MOL0     H 4057   3.763   2.091   2.683 -0.0103  1.0793 -0.8163
  771MOL0     H 4058   3.836   2.139   2.535  0.5202 -1.1093 -0.8076
  771MOL0     H 4059   3.706   1.873   2.575 -1.6209  0.7748  1.8783
  771MOL0     H 4060   3.792   1.917   2.434  3.9415 -3.5819  3.3121
  771MOL0     H 4061   3.546   2.054   2.567  2.7989  0.6228  1.7889
  771MOL0     H 4062   3.628   2.127   2.430  2.3908 -0.3944  1.8399
  771MOL0     H 4063   3.573   1.933   2.285  3.2947 -2.4863  2.1749
  771MOL0     H 4064   3.412   1.988   2.353 -1.0166 -1.0785  2.3790
  771MOL0     H 4065   3.566   1.760   2.477 -1.0372 -2.7506 -1.2283
  771MOL0     H 4066   3.433   1.757   2.366 -0.1052  1.2018 -0.1533
  771MOL0     H 4067   3.836   2.206   3.048  0.0284 -3.4395  0.5887
  771MOL0     H 4068   3.807   2.258   3.269  0.3540  0.5070  0.4461
  771MOL0     H 4069   3.848   2.489   3.533  4.0645 -2.1874 -0.6181
  771MOL0     H 4070   3.740   2.634   3.695 -0.6395 -0.5553 -0.1611
  771MOL0     H 4071   3.651   3.762   4.483  2.6896  1.6485 -3.5124
  771MOL0     H 4072   3.874   3.869   4.416  0.3143 -0.0007 -0.4695
  771MOL0     H 4073   4.309   4.015   4.648  1.2819 -0.6696 -0.5515
  771MOL0     H 4074   4.523   4.035   4.619  0.0969  1.9013  2.9180
  771MOL0     H 4075   4.730   4.143   4.603 -0.9201  2.2547 -0.6007
  771MOL0     H 4076   4.749   3.999   4.496  4.0269 -0.6489  1.9352
  771MOL0     H 4077   4.918   4.113   4.364  0.8149 -1.5333  0.3143
  771MOL0     H 4078   4.953   4.090   4.544 -2.6520 -1.6730  1.6723
  771MOL0     H 4079   4.963   4.327   4.562 -1.0142  1.9212 -0.0564
  771MOL0     H 4080   4.808   4.350   4.491  1.1620  1.7642  2.3534
  771MOL0     H 4081   4.955   4.473   4.348 -0.6531 -0.0875 -0.7529
  771MOL0     H 4082   4.923   4.329   4.261  0.3837 -1.0560  0.2187
  771MOL0     H 4083   5.343   4.306   4.345  0.3299  1.8311 -1.5865
  771MOL0     H 4084   4.460   4.224   4.234 -0.5883 -4.5495 -2.4166
  771MOL0     H 4085   4.221   4.171   4.260 -0.2480  0.0590 -1.6047
  772MOL0     O 4086   6.557   0.442   9.529 -0.6517 -0.3725  0.1482
  772MOL0     C 4087   6.566   0.494   9.419 -1.1394 -1.2297 -0.2935
  772MOL0     O 4088   6.477   0.587   9.378  0.6736 -0.2960  0.3185
  772MOL0     C 4089   6.371   0.621   9.456  0.6261  0.6079 -0.2647
  772MOL0     C 4090   6.236   0.616   9.405  0.5081  0.2394  0.4358
  772MOL0     C 4091   6.129   0.639   9.492  0.7850 -0.0201  1.2963
  772MOL0     C 4092   6.142   0.677   9.625  0.0063  0.3198  1.0008
  772MOL0     O 4093   6.035   0.677   9.707 -0.0189  0.4427 -0.4610
  772MOL0     C 4094   6.021   0.778   9.801  0.0142  0.1135 -1.0439
  772MOL0     C 4095   5.868   0.801   9.822 -0.0925 -0.4597 -0.0275
  772MOL0     C 4096   5.832   0.843   9.963 -0.1128 -0.3363 -0.2710
  772MOL0     C 4097   5.694   0.905   9.974 -0.1562  0.7226  0.6709
  772MOL0     C 4098   5.643   0.920  10.111  0.7370 -0.0824 -0.4390
  772MOL0     C 4099   5.738   1.005  10.201 -0.1187 -0.1933 -0.3873
  772MOL0     C 4100   5.687   1.013  10.348  0.3041  0.6649  0.9506
  772MOL0     C 4101   5.776   1.092  10.443 -0.5346  0.4415  0.2545
  772MOL0     N 4102   5.920   1.070  10.429 -0.3496 -0.2697 -0.0433
  772MOL0     C 4103   6.005   1.156  10.370  0.0011 -0.5828 -0.0739
  772MOL0     C 4104   6.116   1.076  10.348 -0.4813 -0.1003  0.0101
  772MOL0     C 4105   6.247   1.123  10.276  0.3334 -0.0587 -0.9025
  772MOL0     C 4106   6.324   1.217  10.359 -0.3037  0.4230 -0.1860
  772MOL0     C 4107   6.451   1.258  10.291 -0.5637  0.3470 -0.0828
  772MOL0     C 4108   6.530   1.356  10.371  0.0728 -0.5410  0.9301
  772MOL0     O 4109   6.469   1.480  10.370 -0.2352 -0.3207  0.2964
  772MOL0     C 4110   6.548   1.594  10.391 -0.1289 -0.7042  1.1915
  772MOL0     C 4111   6.685   1.597  10.423 -0.3716  0.2117  0.0704
  772MOL0     C 4112   6.755   1.713  10.449 -0.2699  0.9022  0.1961
  772MOL0     C 4113   6.900   1.708  10.480  0.6262  0.0531 -0.2925
  772MOL0     C 4114   6.691   1.832  10.449  0.5196  0.3642 -0.4633
  772MOL0     C 4115   6.751   1.957  10.491  0.4222 -0.4468  0.8264
  772MOL0     O 4116   6.715   2.063  10.412  0.6878  0.4635  0.4320
  772MOL0     C 4117   6.682   2.176  10.482 -0.2212  0.0549 -0.2804
  772MOL0     C 4118   6.645   2.270  10.392 -0.0699  0.4989 -0.4469
  772MOL0     C 4119   6.626   2.406  10.432  0.3596 -0.4327  0.2887
  772MOL0     C 4120   6.625   2.440  10.565 -0.3699  0.1725  0.4744
  772MOL0     O 4121   6.610   2.564  10.606 -0.0980  0.1779 -0.0744
  772MOL0     C 4122   6.670   2.665  10.526 -1.1442  1.4017  0.4601
  772MOL0     C 4123   6.715   2.798  10.604  0.1763 -0.3382  0.2382
  772MOL0     C 4124   6.846   2.852  10.542 -0.9651  1.2435  0.4027
  772MOL0     C 4125   6.889   2.986  10.594 -0.2489 -0.4365  0.2263
  772MOL0     C 4126   7.019   3.060  10.549 -0.7845 -0.3395  0.8135
  772MOL0     C 4127   7.048   3.162  10.657 -1.0331 -1.1099  0.5085
  772MOL0     C 4128   7.178   3.249  10.628  0.2100 -0.1469 -0.2104
  772MOL0     C 4129   7.200   3.362  10.735 -0.4152  0.5591  0.4582
  772MOL0    Cl 4130   7.051   3.470  10.725 -0.4007  0.3687 -0.3993
  772MOL0     C 4131   6.655   2.342  10.665 -0.3399  0.3309  0.8119
  772MOL0     C 4132   6.675   2.209  10.624 -1.3719 -1.5599 -1.0075
  772MOL0     O 4133   6.834   1.955  10.586  0.7859  0.2605 -0.6227
  772MOL0     C 4134   6.561   1.838  10.412 -0.5047 -0.4390 -0.2365
  772MOL0     C 4135   6.490   1.719  10.366  0.3851 -1.3838  0.3497
  772MOL0     N 4136   6.091   0.951  10.396 -0.2150 -0.3048 -0.0626
  772MOL0     N 4137   5.967   0.944  10.438  0.0047 -0.5457  0.7142
  772MOL0     C 4138   6.273   0.706   9.663 -0.6960 -0.1721 -0.1957
  772MOL0     C 4139   6.386   0.676   9.585  0.7717 -0.1877  0.8657
  772MOL0     C 4140   6.689   0.471   9.329  0.1549  0.9513 -0.5772
  772MOL0     C 4141   6.776   0.357   9.362 -0.2617 -0.0446 -0.7643
  772MOL0     C 4142   6.890   0.341   9.282 -0.0261 -0.4366 -0.3540
  772MOL0     C 4143   6.924   0.442   9.192 -0.1550  0.3277 -0.2891
  772MOL0     O 4144   7.035   0.425   9.115 -0.2776 -0.0173 -0.1719
  772MOL0     C 4145   7.156   0.425   9.191 -0.4795 -0.3903 -0.3256
  772MOL0     C 4146   7.285   0.450   9.117 -0.2222  0.6862 -0.0536
  772MOL0     C 4147   7.284   0.542   8.997  0.7308  0.2149 -0.3687
  772MOL0     C 4148   7.388   0.509   8.889  0.5862 -0.7458 -0.1930
  772MOL0     C 4149   7.524   0.527   8.939 -0.5935 -0.9335  0.9728
  772MOL0     C 4150   7.635   0.546   8.979 -0.6318  1.2288 -0.0963
  772MOL0     C 4151   6.846   0.552   9.169  0.5034 -0.1166 -0.4649
  772MOL0     C 4152   6.728   0.570   9.238  0.2353  0.6713 -0.1410
  772MOL0     H 4153   6.214   0.573   9.307  0.2741  0.7911  0.2416
  772MOL0     H 4154   6.025   0.629   9.463  1.4929  1.1817 -2.0347
  772MOL0     H 4155   6.075   0.752   9.893  2.1918 -1.0154 -2.5693
  772MOL0     H 4156   6.059   0.873   9.763  1.5675  0.1042  0.3410
  772MOL0     H 4157   5.838   0.875   9.747  1.4642  0.6462  0.4045
  772MOL0     H 4158   5.823   0.703   9.805 -0.9972 -0.0072 -0.2886
  772MOL0     H 4159   5.826   0.749  10.018 -5.0885  0.7361  1.5188
  772MOL0     H 4160   5.908   0.909  10.006 -1.3724  1.0508 -0.0651
  772MOL0     H 4161   5.687   1.002   9.923  3.0202 -0.8271 -3.2681
  772MOL0     H 4162   5.630   0.840   9.914  0.6350  1.0363 -0.5604
  772MOL0     H 4163   5.547   0.972  10.114  1.7233  1.8470  0.1304
  772MOL0     H 4164   5.640   0.822  10.160 -0.9420 -0.8832 -2.0305
  772MOL0     H 4165   5.841   0.971  10.202  1.0515  3.0121 -0.8412
  772MOL0     H 4166   5.742   1.106  10.159  3.3236 -0.9945 -2.3021
  772MOL0     H 4167   5.588   1.058  10.360  0.8935  2.7627 -1.2165
  772MOL0     H 4168   5.686   0.909  10.382  1.4559  0.0815 -0.6645
  772MOL0     H 4169   5.757   1.064  10.547  1.4892  0.3982  0.6574
  772MOL0     H 4170   5.749   1.197  10.429 -0.0185  0.1456 -4.3813
  772MOL0     H 4171   5.979   1.256  10.336 -4.7155 -0.2020  3.4618
  772MOL0     H 4172   6.303   1.038  10.237 -0.3904 -2.1529  2.2665
  772MOL0     H 4173   6.222   1.186  10.189  1.4304 -1.0376 -1.9608
  772MOL0     H 4174   6.361   1.169  10.451  3.7960  0.7818 -1.4180
  772MOL0     H 4175   6.262   1.307  10.365 -0.0677  1.0832 -4.4093
  772MOL0     H 4176   6.432   1.300  10.192 -4.4690 -0.4106  0.1920
  772MOL0     H 4177   6.517   1.170  10.288 -1.8929 -0.7130  0.5709
  772MOL0     H 4178   6.626   1.360  10.319 -0.7147 -1.9594 -0.6932
  772MOL0     H 4179   6.542   1.326  10.476  1.2508 -2.4501  0.2911
  772MOL0     H 4180   6.736   1.502  10.436 -0.1737  0.1819 -0.8652
  772MOL0     H 4181   6.912   1.695  10.588  1.3534 -0.4178 -0.4285
  772MOL0     H 4182   6.946   1.625  10.426  4.5554  1.9657 -0.2342
  772MOL0     H 4183   6.947   1.796  10.435  0.3218  0.7832  0.7670
  772MOL0     H 4184   6.644   2.253  10.285  0.5964  0.4800 -0.4574
  772MOL0     H 4185   6.610   2.482  10.356  1.1757 -0.5932 -0.0579
  772MOL0     H 4186   6.760   2.613  10.493 -0.0741  0.9073  3.7938
  772MOL0     H 4187   6.607   2.711  10.449 -2.2557 -1.4153 -0.4430
  772MOL0     H 4188   6.633   2.870  10.608 -0.2617 -0.7944 -0.4920
  772MOL0     H 4189   6.748   2.786  10.708  0.9722  0.9733  0.1707
  772MOL0     H 4190   6.829   2.871  10.436 -2.2898  3.3421  0.9285
  772MOL0     H 4191   6.924   2.776  10.553 -0.3992  2.0727  2.8425
  772MOL0     H 4192   6.808   3.058  10.582 -0.2080 -0.7791 -2.9394
  772MOL0     H 4193   6.898   2.976  10.702  3.4463 -1.6006 -0.0471
  772MOL0     H 4194   7.002   3.095  10.446  1.9336 -2.1988 -0.3881
  772MOL0     H 4195   7.109   2.999  10.540  0.1321  1.1989 -1.2321
  772MOL0     H 4196   6.971   3.240  10.661 -0.0269 -0.1087  1.5812
  772MOL0     H 4197   7.075   3.119  10.754  3.1043 -3.4599 -1.3873
  772MOL0     H 4198   7.159   3.312  10.541  2.1289  0.8841  0.0880
  772MOL0     H 4199   7.264   3.183  10.612  0.9959  0.4003  1.5959
  772MOL0     H 4200   7.294   3.419  10.728  0.0055 -0.0709  0.8823
  772MOL0     H 4201   7.195   3.304  10.827 -0.8488 -0.0853  0.0304
  772MOL0     H 4202   6.655   2.371  10.770 -1.2825  0.7216  0.7189
  772MOL0     H 4203   6.713   2.143  10.703 -1.1288 -0.2420  0.0076
  772MOL0     H 4204   6.500   1.928  10.413  1.5505  1.0918 -2.6952
  772MOL0     H 4205   6.388   1.735  10.334 -0.4572 -0.9088  2.9668
  772MOL0     H 4206   6.288   0.716   9.770 -0.5169  2.8371 -0.4374
  772MOL0     H 4207   6.485   0.663   9.628  0.4536  2.8135  2.7673
  772MOL0     H 4208   6.744   0.277   9.429  4.3194 -1.8163 -0.3104
  772MOL0     H 4209   6.937   0.243   9.276  1.6026  0.3717 -1.2681
  772MOL0     H 4210   7.166   0.501   9.270  3.8561 -0.9040 -0.1344
  772MOL0     H 4211   7.179   0.332   9.244  2.0144  1.6883  2.6333
  772MOL0     H 4212   7.317   0.350   9.087  0.0530  0.4461  1.0096
  772MOL0     H 4213   7.345   0.487   9.201  1.0936  0.5879 -0.9237
  772MOL0     H 4214   7.299   0.649   9.014 -0.2302  0.2919  0.0722
  772MOL0     H 4215   7.194   0.531   8.935  2.0504  1.0758 -2.5657
  772MOL0     H 4216   7.378   0.583   8.809 -0.2177 -1.4081 -0.7122
  772MOL0     H 4217   7.366   0.412   8.843  0.6007 -0.3509 -1.0419
  772MOL0     H 4218   7.732   0.560   9.022 -1.9719 -0.6994  4.1024
  772MOL0     H 4219   6.878   0.630   9.101 -1.3433  1.8459  0.8145
  772MOL0     H 4220   6.664   0.656   9.229 -1.4759 -0.5259  0.1796
  773MOL0     O 4221   8.076  11.353   4.796 -0.1561 -0.2413 -0.7041
  773MOL0     C 4222   7.990  11.296   4.861  0.1927 -0.4352  0.8670
  773MOL0     O 4223   7.935  11.185   4.830  0.5402  0.1019  0.1566
  773MOL0     C 4224   8.000  11.120   4.721 -0.4001  0.1121  0.1568
  773MOL0     C 4225   7.968  11.156   4.592  0.1210  0.5513  0.4618
  773MOL0     C 4226   8.027  11.084   4.488  0.4055 -0.2275 -0.2718
  773MOL0     C 4227   8.126  10.986   4.519 -0.0142  0.2915 -0.3215
  773MOL0     O 4228   8.185  10.936   4.411  0.9787 -0.4884 -0.0689
  773MOL0     C 4229   8.276  10.820   4.416 -0.0888 -0.2889  0.8985
  773MOL0     C 4230   8.290  10.782   4.264 -0.4256  0.6869 -0.0895
  773MOL0     C 4231   8.389  10.873   4.193 -0.3358 -0.7827 -1.2541
  773MOL0     C 4232   8.416  10.842   4.055 -0.4385  0.0002 -0.6354
  773MOL0     C 4233   8.475  10.708   4.030 -0.9713  0.1458 -0.6417
  773MOL0     C 4234   8.597  10.665   4.106 -0.4652 -0.8122 -0.2946
  773MOL0     C 4235   8.630  10.514   4.088  0.2931 -0.1528  0.1016
  773MOL0     C 4236   8.773  10.467   4.131  0.4170  0.5439  0.4781
  773MOL0     N 4237   8.885  10.523   4.050 -0.1694 -0.2456 -0.0146
  773MOL0     C 4238   8.970  10.630   4.077 -0.6020 -0.1111  0.8877
  773MOL0     C 4239   9.025  10.659   3.953 -0.3523  0.5510 -0.6690
  773MOL0     C 4240   9.139  10.750   3.925 -0.2740 -0.7603 -0.1676
  773MOL0     C 4241   9.258  10.695   4.011 -0.2565 -0.5488 -0.0037
  773MOL0     C 4242   9.352  10.811   4.053  1.0466  0.8107  0.3786
  773MOL0     C 4243   9.429  10.773   4.179  0.6098  0.2051 -0.2809
  773MOL0     O 4244   9.500  10.889   4.218 -1.6284 -0.4477  0.1762
  773MOL0     C 4245   9.533  10.897   4.356 -0.0303 -0.0692  0.1062
  773MOL0     C 4246   9.490  10.803   4.462  0.7546 -0.8212  0.1764
  773MOL0     C 4247   9.507  10.812   4.603  0.5191 -0.1391 -0.6372
  773MOL0     C 4248   9.428  10.721   4.691 -0.5731 -0.8802  1.3132
  773MOL0     C 4249   9.588  10.926   4.639 -0.6576 -0.3774  0.1998
  773MOL0     C 4250   9.612  10.972   4.779 -1.0969 -0.6992  0.4711
  773MOL0     O 4251   9.699  11.082   4.791  0.1215 -0.4556 -0.2042
  773MOL0     C 4252   9.712  11.151   4.915 -0.2106  0.4101 -0.0523
  773MOL0     C 4253   9.844  11.193   4.940  0.8186  0.6268  0.2917
  773MOL0     C 4254   9.875  11.266   5.055 -0.0379 -0.8087  0.6443
  773MOL0     C 4255   9.770  11.288   5.151  0.1495  0.6384 -0.3147
  773MOL0     O 4256   9.787  11.355   5.270 -0.1994  0.1041 -0.1388
  773MOL0     C 4257   9.694  11.342   5.386 -0.0462  0.5368 -0.9198
  773MOL0     C 4258   9.615  11.471   5.414  0.1247 -0.6478  0.1149
  773MOL0     C 4259   9.500  11.498   5.315  0.8587  0.9793  0.7740
  773MOL0     C 4260   9.449  11.629   5.359 -0.0979 -0.7049 -0.2265
  773MOL0     C 4261   9.311  11.653   5.293  1.0381  0.0487  0.4336
  773MOL0     C 4262   9.322  11.685   5.138  0.8356 -1.2178  0.3570
  773MOL0     C 4263   9.390  11.823   5.114  0.3872 -0.0641 -0.2354
  773MOL0     C 4264   9.407  11.845   4.964 -0.8700 -0.1551 -0.1245
  773MOL0    Cl 4265   9.242  11.834   4.880 -0.1954  0.1975  0.0149
  773MOL0     C 4266   9.642  11.233   5.128  0.7713  0.4693  0.6694
  773MOL0     C 4267   9.613  11.164   5.008  0.7293 -1.0981 -1.3024
  773MOL0     O 4268   9.540  10.932   4.865 -0.1911  0.2946 -1.2088
  773MOL0     C 4269   9.655  11.003   4.540  0.5875 -0.5769  0.1130
  773MOL0     C 4270   9.631  10.991   4.403  1.7136  1.4663 -0.7185
  773MOL0     N 4271   8.979  10.565   3.865 -0.1237  0.0100  0.2125
  773MOL0     N 4272   8.899  10.488   3.930  0.3186  0.4898  1.1267
  773MOL0     C 4273   8.153  10.947   4.652 -0.2381  1.1582  0.0489
  773MOL0     C 4274   8.091  11.016   4.753  0.3252  0.3463  0.0705
  773MOL0     C 4275   7.958  11.334   5.002 -0.4374 -0.1966 -0.6714
  773MOL0     C 4276   7.908  11.234   5.087 -0.3513 -0.4195  0.1073
  773MOL0     C 4277   7.903  11.255   5.219 -1.4902  0.8277 -0.2024
  773MOL0     C 4278   7.952  11.375   5.281  0.5438  0.7047 -0.2575
  773MOL0     O 4279   7.944  11.382   5.411  0.5922  0.0088 -0.9616
  773MOL0     C 4280   7.996  11.500   5.487  0.2742  1.5958  0.5648
  773MOL0     C 4281   7.961  11.493   5.628  0.6106 -0.0489  0.5231
  773MOL0     C 4282   7.808  11.493   5.644 -0.5897  1.1138 -0.3950
  773MOL0     C 4283   7.770  11.445   5.789 -0.1387  1.0326 -0.7677
  773MOL0     C 4284   7.797  11.545   5.887 -0.1512 -0.0726  0.5542
  773MOL0     C 4285   7.813  11.626   5.975 -0.2656  0.2997 -0.4926
  773MOL0     C 4286   7.996  11.469   5.200  0.1093 -0.7546  0.5011
  773MOL0     C 4287   8.023  11.443   5.063 -0.3939 -1.0479 -0.0733
  773MOL0     H 4288   7.894  11.234   4.577 -2.0470 -1.6873 -1.1428
  773MOL0     H 4289   8.006  11.101   4.383  3.2448 -0.0825 -0.8832
  773MOL0     H 4290   8.370  10.865   4.451 -0.1891 -0.0361  0.8473
  773MOL0     H 4291   8.244  10.738   4.481  1.7633 -1.1687  0.7627
  773MOL0     H 4292   8.324  10.678   4.259  1.6999  1.3615 -1.0854
  773MOL0     H 4293   8.190  10.783   4.221 -1.1371  0.1679  1.4927
  773MOL0     H 4294   8.341  10.970   4.180  1.3422 -0.3247 -5.5994
  773MOL0     H 4295   8.484  10.880   4.248 -0.8915  1.2516 -0.4545
  773MOL0     H 4296   8.324  10.862   4.000 -0.7436 -0.0895 -0.1693
  773MOL0     H 4297   8.482  10.913   4.005  0.3634  1.6269  2.4869
  773MOL0     H 4298   8.403  10.627   4.047 -1.7689  1.1546  1.1190
  773MOL0     H 4299   8.505  10.701   3.925  0.8242 -0.5079 -0.1181
  773MOL0     H 4300   8.687  10.719   4.076  0.3767 -3.0555 -2.1001
  773MOL0     H 4301   8.570  10.681   4.211  0.1021 -0.3794 -0.2115
  773MOL0     H 4302   8.559  10.448   4.140 -0.3868  0.0013 -0.6228
  773MOL0     H 4303   8.613  10.489   3.983  0.9558 -0.8164  0.1456
  773MOL0     H 4304   8.768  10.359   4.113  1.6637  0.8876 -2.3200
  773MOL0     H 4305   8.777  10.468   4.241 -1.1793 -2.1650  0.6667
  773MOL0     H 4306   8.995  10.680   4.170 -3.8540  1.0772  1.2196
  773MOL0     H 4307   9.164  10.758   3.818 -2.0105  1.1248 -0.4943
  773MOL0     H 4308   9.101  10.846   3.960 -0.3971 -1.2291  1.0313
  773MOL0     H 4309   9.321  10.622   3.960  0.6486 -0.1573  0.5240
  773MOL0     H 4310   9.223  10.661   4.109 -0.4870 -0.7025 -0.1392
  773MOL0     H 4311   9.291  10.897   4.082 -2.8697 -1.4899 -0.3379
  773MOL0     H 4312   9.424  10.816   3.971 -0.7963  0.2372 -1.3696
  773MOL0     H 4313   9.486  10.680   4.169  2.6142  1.1708  1.4968
  773MOL0     H 4314   9.352  10.764   4.256  2.1735  1.9037  1.5879
  773MOL0     H 4315   9.414  10.727   4.444 -1.2783  0.8295  1.3683
  773MOL0     H 4316   9.501  10.666   4.752 -0.9350 -1.3906  1.2815
  773MOL0     H 4317   9.358  10.777   4.755  0.9435  2.6898  0.1227
  773MOL0     H 4318   9.368  10.646   4.639  1.6085  0.2146 -3.2824
  773MOL0     H 4319   9.921  11.184   4.864  0.7663  1.6879  0.1066
  773MOL0     H 4320   9.979  11.298   5.053 -0.5574  1.0654  1.6027
  773MOL0     H 4321   9.651  11.242   5.389  2.0487 -0.4040  0.5966
  773MOL0     H 4322   9.751  11.324   5.478 -1.5568 -0.6126 -0.1671
  773MOL0     H 4323   9.566  11.452   5.510  1.5044 -1.2259  0.7197
  773MOL0     H 4324   9.681  11.555   5.434  4.1208 -3.4138 -0.3312
  773MOL0     H 4325   9.418  11.427   5.328  1.6437  0.1074  1.0692
  773MOL0     H 4326   9.543  11.504   5.215  0.7289  0.6895  0.7016
  773MOL0     H 4327   9.434  11.639   5.467 -0.5823 -0.3003 -0.3277
  773MOL0     H 4328   9.522  11.707   5.334  0.1800 -1.1562 -0.8735
  773MOL0     H 4329   9.257  11.735   5.340  1.5632 -0.3343  1.7350
  773MOL0     H 4330   9.242  11.569   5.299 -0.6291  1.0322 -2.4735
  773MOL0     H 4331   9.381  11.609   5.086 -1.5002 -3.0653  0.2195
  773MOL0     H 4332   9.217  11.686   5.106  0.5719  0.4485  1.1539
  773MOL0     H 4333   9.489  11.835   5.160 -0.4683  2.2706  1.1376
  773MOL0     H 4334   9.323  11.892   5.165 -1.6629 -2.8120  1.0068
  773MOL0     H 4335   9.476  11.770   4.925  0.0530  0.5440  0.1403
  773MOL0     H 4336   9.440  11.945   4.935 -1.3834 -0.1340 -0.6634
  773MOL0     H 4337   9.565  11.268   5.196  1.3050  1.6486  0.6859
  773MOL0     H 4338   9.510  11.131   4.995  0.1399 -0.0058  0.2118
  773MOL0     H 4339   9.723  11.079   4.576 -2.4650  1.2198  2.6207
  773MOL0     H 4340   9.676  11.063   4.336  3.5246  1.8404  0.8216
  773MOL0     H 4341   8.236  10.882   4.674  1.1175  2.7885 -0.0393
  773MOL0     H 4342   8.114  10.994   4.856 -0.3908  0.1464  0.1902
  773MOL0     H 4343   7.884  11.136   5.045  2.6265 -1.5459  0.7710
  773MOL0     H 4344   7.850  11.181   5.279 -0.0829  0.0314  0.0973
  773MOL0     H 4345   8.104  11.503   5.473  0.7367 -1.5009  2.4428
  773MOL0     H 4346   7.966  11.591   5.434  1.8539  1.8443  0.0516
  773MOL0     H 4347   7.999  11.586   5.671  1.9964 -1.7892  3.3408
  773MOL0     H 4348   8.005  11.403   5.671  0.3719 -0.2182  0.4118
  773MOL0     H 4349   7.763  11.424   5.572 -0.4590  1.6593 -1.0042
  773MOL0     H 4350   7.773  11.596   5.629 -0.8045  0.7661 -2.6099
  773MOL0     H 4351   7.822  11.353   5.817 -2.0792  0.4011  1.0779
  773MOL0     H 4352   7.661  11.430   5.789 -0.0882  0.3377  1.0962
  773MOL0     H 4353   7.830  11.690   6.059  5.0352  2.3032 -2.7052
  773MOL0     H 4354   8.042  11.556   5.246  1.2076 -0.2927 -1.3420
  773MOL0     H 4355   8.073  11.526   5.014 -3.8010  0.3591 -1.4217
  774MOL0     O 4356   5.615   2.170   7.780 -0.1932  0.0044 -0.0479
  774MOL0     C 4357   5.495   2.174   7.791  0.0668  0.0653 -0.6610
  774MOL0     O 4358   5.407   2.270   7.767 -0.1350  0.2891 -0.7075
  774MOL0     C 4359   5.464   2.367   7.692  0.1058 -0.1219  0.9242
  774MOL0     C 4360   5.455   2.496   7.743 -0.9948 -0.6554  0.2174
  774MOL0     C 4361   5.495   2.605   7.672 -0.0621  0.0097 -0.5016
  774MOL0     C 4362   5.569   2.585   7.557  0.5466  0.7216  0.1594
  774MOL0     O 4363   5.624   2.701   7.505  0.2799  0.1655  0.7432
  774MOL0     C 4364   5.702   2.691   7.383 -1.3539  0.3713  0.2790
  774MOL0     C 4365   5.856   2.665   7.399 -0.3897  0.7942 -0.8431
  774MOL0     C 4366   5.917   2.752   7.510  0.1787  0.0410 -1.4286
  774MOL0     C 4367   6.068   2.787   7.476 -0.7895  1.1414 -0.8468
  774MOL0     C 4368   6.149   2.807   7.610  0.9077  0.1087  0.1324
  774MOL0     C 4369   6.120   2.948   7.683 -0.6887  0.6445 -0.6495
  774MOL0     C 4370   6.191   2.974   7.817  0.0853 -0.2537 -1.1311
  774MOL0     C 4371   6.338   3.009   7.783 -0.5168 -1.1414  0.1505
  774MOL0     N 4372   6.406   3.036   7.908  0.1268 -0.2440 -0.3406
  774MOL0     C 4373   6.541   3.026   7.922  0.7397 -0.8988  0.0339
  774MOL0     C 4374   6.566   3.077   8.041  0.4427 -0.0862  0.9563
  774MOL0     C 4375   6.702   3.066   8.111  0.3558  0.3220  0.0739
  774MOL0     C 4376   6.729   2.961   8.221  0.2320  0.1231 -0.5935
  774MOL0     C 4377   6.642   2.987   8.351  0.1561 -0.2638 -0.6213
  774MOL0     C 4378   6.693   2.941   8.492  0.2016 -1.5031  0.4094
  774MOL0     O 4379   6.759   3.057   8.548 -0.7982 -0.1371  0.2213
  774MOL0     C 4380   6.719   3.120   8.661  1.4013  0.4842 -0.3709
  774MOL0     C 4381   6.800   3.223   8.709  0.4238  0.4532 -0.3805
  774MOL0     C 4382   6.772   3.287   8.834 -0.2915  0.7772 -0.3232
  774MOL0     C 4383   6.864   3.396   8.872  0.0931  0.3114 -0.1813
  774MOL0     C 4384   6.661   3.254   8.908  0.0209  0.4152 -0.1479
  774MOL0     C 4385   6.624   3.321   9.041  0.8215 -0.6733  0.1024
  774MOL0     O 4386   6.502   3.380   9.046  0.3352 -0.4725  0.4250
  774MOL0     C 4387   6.450   3.404   9.169 -0.4990  0.7472  0.8053
  774MOL0     C 4388   6.451   3.535   9.217 -0.5707  0.8181 -0.4658
  774MOL0     C 4389   6.390   3.562   9.341  0.6004 -0.1794  0.4944
  774MOL0     C 4390   6.323   3.458   9.418  0.2782 -0.2443 -0.1506
  774MOL0     O 4391   6.249   3.482   9.528 -0.2109 -0.1645  0.1731
  774MOL0     C 4392   6.211   3.620   9.569  0.1913  0.8051  0.3602
  774MOL0     C 4393   6.154   3.604   9.703  0.1517  0.1709  0.2562
  774MOL0     C 4394   6.067   3.722   9.731  0.4763  0.1782 -0.3961
  774MOL0     C 4395   5.997   3.698   9.865  0.8345 -0.7743 -0.4939
  774MOL0     C 4396   5.869   3.769   9.894 -0.7716  0.1925 -0.5048
  774MOL0     C 4397   5.798   3.710  10.024 -0.1040  1.1343 -0.1496
  774MOL0     C 4398   5.682   3.799  10.074  0.0640 -0.1558 -0.2607
  774MOL0     C 4399   5.584   3.714  10.162 -0.1058  0.4133  1.2726
  774MOL0    Cl 4400   5.448   3.662  10.067  0.6290  0.7046 -0.1267
  774MOL0     C 4401   6.328   3.329   9.362 -0.2924  1.2044 -0.3752
  774MOL0     C 4402   6.404   3.300   9.246  0.1883 -0.1731 -0.3315
  774MOL0     O 4403   6.698   3.317   9.135 -0.8635 -0.8951 -0.4881
  774MOL0     C 4404   6.576   3.153   8.865 -0.2856  1.0086 -0.1216
  774MOL0     C 4405   6.607   3.086   8.741  0.0071 -0.2886  0.1132
  774MOL0     N 4406   6.455   3.130   8.103 -0.4984 -0.8702 -0.8470
  774MOL0     N 4407   6.357   3.096   8.022 -0.0985 -0.3436 -0.6998
  774MOL0     C 4408   5.582   2.456   7.504 -0.1538 -1.0928  0.3829
  774MOL0     C 4409   5.529   2.350   7.569  0.3004  0.2895  0.1568
  774MOL0     C 4410   5.433   2.053   7.875  0.0439 -0.8454  0.0959
  774MOL0     C 4411   5.300   2.011   7.859  0.0282 -0.3038 -0.9251
  774MOL0     C 4412   5.257   1.890   7.912 -0.6229  0.2854  0.5783
  774MOL0     C 4413   5.332   1.811   8.003 -1.0163  0.0846  0.5042
  774MOL0     O 4414   5.277   1.689   8.055 -0.7029 -0.4665  0.2822
  774MOL0     C 4415   5.289   1.592   7.951  0.4124  0.1070 -0.5981
  774MOL0     C 4416   5.266   1.471   8.043 -1.3345  0.5798  0.6991
  774MOL0     C 4417   5.262   1.349   7.941 -0.7774 -0.4339  0.2180
  774MOL0     C 4418   5.107   1.327   7.932  0.4884 -0.6548  0.8180
  774MOL0     C 4419   5.087   1.210   7.844 -0.6152 -0.4926 -0.6428
  774MOL0     C 4420   5.064   1.116   7.766  0.0614  0.1000  0.2766
  774MOL0     C 4421   5.458   1.856   8.017 -0.8036  0.0710 -0.5448
  774MOL0     C 4422   5.509   1.968   7.958 -0.3986 -0.3309  0.4609
  774MOL0     H 4423   5.400   2.528   7.831  1.4863  5.2444  0.0942
  774MOL0     H 4424   5.483   2.709   7.698  1.8750 -0.0481  0.8418
  774MOL0     H 4425   5.674   2.627   7.299 -1.1343  0.3866  0.1912
  774MOL0     H 4426   5.705   2.790   7.335  1.1252  0.1602 -0.1393
  774MOL0     H 4427   5.873   2.559   7.420 -1.8441  0.7298  0.1991
  774MOL0     H 4428   5.905   2.685   7.304 -1.1524 -1.7086 -1.8397
  774MOL0     H 4429   5.864   2.846   7.524 -1.2568 -1.0846  1.4204
  774MOL0     H 4430   5.897   2.705   7.607  0.7142  0.2137 -1.2340
  774MOL0     H 4431   6.106   2.705   7.414  0.4447  0.0615  1.2381
  774MOL0     H 4432   6.092   2.875   7.415  0.5005  0.6578 -1.0813
  774MOL0     H 4433   6.139   2.733   7.690 -2.2534 -1.0264 -1.1601
  774MOL0     H 4434   6.256   2.819   7.591  1.3841  4.4282  3.6931
  774MOL0     H 4435   6.132   3.042   7.629 -1.3017  2.3602  1.9974
  774MOL0     H 4436   6.016   2.941   7.716 -0.0468 -2.1927  1.1151
  774MOL0     H 4437   6.141   3.054   7.871  2.0650 -1.4473  2.9160
  774MOL0     H 4438   6.175   2.890   7.886 -3.5408  1.3772  0.2235
  774MOL0     H 4439   6.338   3.089   7.708  1.3237 -1.6142 -0.3792
  774MOL0     H 4440   6.369   2.920   7.728 -3.7867 -1.3570 -1.6338
  774MOL0     H 4441   6.610   2.968   7.861 -0.9948 -3.3533  0.2424
  774MOL0     H 4442   6.778   3.058   8.033 -1.1946 -1.7423 -1.3497
  774MOL0     H 4443   6.712   3.159   8.168 -2.5586 -0.4287  2.0447
  774MOL0     H 4444   6.833   2.975   8.252 -0.1112  4.0061 -0.7191
  774MOL0     H 4445   6.713   2.857   8.189 -0.4211  0.0826 -0.1638
  774MOL0     H 4446   6.544   2.940   8.338 -0.2413  0.1838  0.6453
  774MOL0     H 4447   6.624   3.091   8.380  1.1247 -0.2961  0.1310
  774MOL0     H 4448   6.778   2.872   8.489 -1.3849 -3.6853  1.9463
  774MOL0     H 4449   6.612   2.895   8.551 -0.8495  0.8444  0.8922
  774MOL0     H 4450   6.889   3.241   8.649  0.5308  1.3205  0.0165
  774MOL0     H 4451   6.884   3.453   8.781  1.5122 -0.3989 -0.3272
  774MOL0     H 4452   6.817   3.470   8.938 -0.7225  0.1341 -0.5470
  774MOL0     H 4453   6.953   3.355   8.920 -0.2433 -1.9971 -1.3706
  774MOL0     H 4454   6.504   3.615   9.165  3.3540 -1.3299 -0.2027
  774MOL0     H 4455   6.392   3.667   9.367  2.8058  0.0274 -0.3010
  774MOL0     H 4456   6.290   3.696   9.568 -0.9662  2.1021  1.6710
  774MOL0     H 4457   6.132   3.645   9.498  0.5308 -1.8521 -1.0537
  774MOL0     H 4458   6.095   3.513   9.710 -0.1451  0.4466  1.7161
  774MOL0     H 4459   6.238   3.599   9.773 -0.7933  1.0448  1.5015
  774MOL0     H 4460   6.002   3.736   9.645  1.0747  0.2466 -0.8486
  774MOL0     H 4461   6.138   3.806   9.738  4.2576 -2.6419 -1.7444
  774MOL0     H 4462   5.985   3.597   9.906 -2.6865  0.6578  2.6722
  774MOL0     H 4463   6.061   3.755   9.933 -0.9138  0.7598 -0.0625
  774MOL0     H 4464   5.801   3.758   9.809 -0.8700 -1.4960 -0.2446
  774MOL0     H 4465   5.885   3.876   9.910  0.5786 -0.0129 -0.3554
  774MOL0     H 4466   5.762   3.613   9.989  5.7746 -1.5290 -0.1255
  774MOL0     H 4467   5.871   3.693  10.104 -0.5888 -2.6825 -0.3333
  774MOL0     H 4468   5.631   3.829   9.981 -0.3383 -1.6369 -0.5355
  774MOL0     H 4469   5.721   3.881  10.134  1.5789  0.0159 -1.4194
  774MOL0     H 4470   5.551   3.780  10.243  0.1093  1.3839  0.5859
  774MOL0     H 4471   5.636   3.636  10.219  2.8046  0.7191 -0.7570
  774MOL0     H 4472   6.276   3.255   9.423  0.4980 -0.6297 -1.8287
  774MOL0     H 4473   6.404   3.196   9.215  0.0259 -1.2062  2.8075
  774MOL0     H 4474   6.491   3.113   8.920  1.6567 -0.3275  2.0860
  774MOL0     H 4475   6.541   3.004   8.715  1.6650 -1.8190  0.5105
  774MOL0     H 4476   5.629   2.449   7.407 -3.6251  1.2563 -1.6623
  774MOL0     H 4477   5.539   2.248   7.533  1.2177 -0.3710  2.1625
  774MOL0     H 4478   5.230   2.071   7.801  0.5712  1.3206  0.0483
  774MOL0     H 4479   5.158   1.856   7.882  0.6201 -1.6804 -1.6757
  774MOL0     H 4480   5.225   1.609   7.865  1.6287  2.5406 -1.1368
  774MOL0     H 4481   5.392   1.595   7.914  0.0647  3.4886 -1.6303
  774MOL0     H 4482   5.170   1.470   8.096 -0.3381 -3.7096  2.8303
  774MOL0     H 4483   5.333   1.459   8.128 -1.9529 -3.1218  0.8061
  774MOL0     H 4484   5.323   1.267   7.979  1.0746  1.7971  2.3959
  774MOL0     H 4485   5.294   1.370   7.839  0.3752 -3.3608 -0.1196
  774MOL0     H 4486   5.057   1.412   7.886  1.0742 -0.6094  0.2507
  774MOL0     H 4487   5.067   1.309   8.032  1.8497 -0.2815  1.4561
  774MOL0     H 4488   5.071   1.032   7.701 -3.5973 -0.9799  1.0345
  774MOL0     H 4489   5.523   1.798   8.082  0.7354 -1.4996 -3.2685
  774MOL0     H 4490   5.609   2.006   7.979  1.0734 -3.5426 -0.1532
  775MOL0     O 4491  11.337   9.877   6.501  0.0940 -0.9457  0.2676
  775MOL0     C 4492  11.243   9.898   6.582 -0.2059  0.1916  0.6229
  775MOL0     O 4493  11.225  10.015   6.652 -0.2374  0.9523 -0.0047
  775MOL0     C 4494  11.307  10.127   6.640  1.1704  0.6884 -0.6699
  775MOL0     C 4495  11.295  10.226   6.733 -0.6338 -0.1743 -0.6812
  775MOL0     C 4496  11.373  10.336   6.729 -0.0383  0.1068 -0.0255
  775MOL0     C 4497  11.460  10.370   6.625  2.1570 -0.0910 -0.2563
  775MOL0     O 4498  11.515  10.491   6.606 -0.5889 -0.1605  0.9652
  775MOL0     C 4499  11.523  10.570   6.728  0.5570 -0.9460 -0.4167
  775MOL0     C 4500  11.602  10.697   6.697  0.0757  0.5958 -0.0053
  775MOL0     C 4501  11.565  10.750   6.561  0.3286 -0.8218 -0.2624
  775MOL0     C 4502  11.421  10.793   6.548  1.0161 -1.0585  0.1169
  775MOL0     C 4503  11.396  10.834   6.400  0.2159  0.2810 -0.5508
  775MOL0     C 4504  11.252  10.891   6.386  0.4015  0.6238 -1.2303
  775MOL0     C 4505  11.218  10.918   6.243  0.9236 -0.2475  0.4111
  775MOL0     C 4506  11.171  10.791   6.163 -0.0138  0.2115 -0.0863
  775MOL0     N 4507  11.095  10.840   6.050  0.4181 -0.3401  0.1490
  775MOL0     C 4508  10.959  10.842   6.058  1.3239 -0.2426 -0.8493
  775MOL0     C 4509  10.927  10.907   5.946  0.4905  0.8135 -0.3443
  775MOL0     C 4510  10.784  10.952   5.913  0.4328  0.4765  1.3628
  775MOL0     C 4511  10.739  11.084   5.969  0.4021  0.2255 -0.1714
  775MOL0     C 4512  10.830  11.202   5.939  0.1353 -0.2344 -0.4474
  775MOL0     C 4513  10.771  11.338   5.959  0.1013 -0.5913 -0.9085
  775MOL0     O 4514  10.883  11.429   5.983  0.3389 -0.3096  0.2197
  775MOL0     C 4515  10.866  11.548   6.048  0.8824 -0.4764 -0.8232
  775MOL0     C 4516  10.740  11.598   6.096 -0.1692  0.7676  0.3930
  775MOL0     C 4517  10.737  11.707   6.179 -0.0777  0.2192  0.1624
  775MOL0     C 4518  10.602  11.738   6.246  0.1430 -0.3502  0.1764
  775MOL0     C 4519  10.853  11.794   6.198  0.1715  0.3413 -0.6418
  775MOL0     C 4520  10.852  11.924   6.276 -0.0782  0.5260 -0.4924
  775MOL0     O 4521  10.976  11.976   6.308  0.3702 -0.0584 -0.0075
  775MOL0     C 4522  10.983  12.107   6.352  0.0885 -0.0350 -0.7236
  775MOL0     C 4523  11.075  12.135   6.451  0.3993  0.1642  0.3138
  775MOL0     C 4524  11.103  12.262   6.505 -0.3041 -0.4499 -0.0457
  775MOL0     C 4525  11.050  12.371   6.434  1.4811  0.1750  1.2195
  775MOL0     O 4526  11.069  12.502   6.457 -0.1066  0.5478  0.6088
  775MOL0     C 4527  11.136  12.553   6.575  0.1151 -0.3226  0.6966
  775MOL0     C 4528  11.144  12.709   6.580  0.6534  0.6109 -0.8818
  775MOL0     C 4529  11.203  12.763   6.459 -0.7836 -0.1808 -0.3126
  775MOL0     C 4530  11.249  12.911   6.487 -0.0908  0.6558 -0.8144
  775MOL0     C 4531  11.276  12.994   6.361 -0.4259 -0.3822  0.4392
  775MOL0     C 4532  11.248  13.142   6.380  0.1812  0.7507  0.5140
  775MOL0     C 4533  11.098  13.180   6.364 -0.4382  0.8342 -0.1350
  775MOL0     C 4534  11.066  13.331   6.368 -0.5614  0.6634  0.4618
  775MOL0    Cl 4535  11.132  13.407   6.224 -0.4859 -0.1971  0.0954
  775MOL0     C 4536  10.955  12.344   6.333  0.8650 -0.9554 -0.9631
  775MOL0     C 4537  10.919  12.218   6.294  0.0241  0.5850 -0.2241
  775MOL0     O 4538  10.740  11.971   6.306  0.3266 -0.2060 -0.1000
  775MOL0     C 4539  10.972  11.752   6.134  0.5015  0.1513 -0.1459
  775MOL0     C 4540  10.974  11.641   6.051 -0.4088 -0.4537  0.6328
  775MOL0     N 4541  11.046  10.922   5.870  0.3007 -0.5651  0.0489
  775MOL0     N 4542  11.143  10.867   5.927  0.1788  0.0830  0.1190
  775MOL0     C 4543  11.478  10.268   6.525 -0.3212  0.0966 -0.4544
  775MOL0     C 4544  11.402  10.147   6.540 -1.0406  0.4048  0.6247
  775MOL0     C 4545  11.138   9.801   6.611 -1.4595  0.4538 -0.9551
  775MOL0     C 4546  11.011   9.841   6.652 -0.1227 -0.0122  0.1988
  775MOL0     C 4547  10.915   9.738   6.671 -0.1837  0.0299 -0.3251
  775MOL0     C 4548  10.942   9.603   6.648 -0.9645 -0.4770  0.3288
  775MOL0     O 4549  10.844   9.514   6.658  0.8857 -0.6973 -0.0052
  775MOL0     C 4550  10.846   9.371   6.625 -0.2359  0.0032 -0.2761
  775MOL0     C 4551  10.903   9.291   6.743  0.2886  0.6437 -0.5058
  775MOL0     C 4552  10.877   9.136   6.733 -0.1465  0.5496  0.7738
  775MOL0     C 4553  10.990   9.064   6.644 -0.3209 -0.4828  0.3408
  775MOL0     C 4554  10.966   9.078   6.503 -0.0988  0.7777 -0.2633
  775MOL0     C 4555  10.946   9.099   6.385 -0.4581 -0.7802  0.3007
  775MOL0     C 4556  11.073   9.569   6.607 -0.9163  0.5724  0.3076
  775MOL0     C 4557  11.174   9.666   6.587  0.3671  0.1605 -0.2791
  775MOL0     H 4558  11.229  10.199   6.814 -0.3308  3.2857  0.9042
  775MOL0     H 4559  11.369  10.397   6.818  0.2913  1.5476 -0.9704
  775MOL0     H 4560  11.422  10.598   6.760 -0.9039  0.1292 -5.1924
  775MOL0     H 4561  11.573  10.508   6.802 -2.0343 -3.8490 -0.8866
  775MOL0     H 4562  11.580  10.769   6.776 -0.8206  2.9221 -2.2187
  775MOL0     H 4563  11.707  10.668   6.685  0.1733  1.3625 -1.1470
  775MOL0     H 4564  11.628  10.835   6.536  0.3017 -0.9506 -0.7938
  775MOL0     H 4565  11.580  10.676   6.481 -1.2178 -0.6092 -0.7796
  775MOL0     H 4566  11.348  10.715   6.572 -1.8501  0.9000 -1.5956
  775MOL0     H 4567  11.397  10.879   6.613  1.0067 -2.4812  2.1015
  775MOL0     H 4568  11.460  10.920   6.378 -2.6380  1.9509 -3.1295
  775MOL0     H 4569  11.410  10.762   6.319  0.7205  0.9986 -1.1152
  775MOL0     H 4570  11.184  10.816   6.427  1.0362  1.6377  1.8881
  775MOL0     H 4571  11.238  10.983   6.443  2.7132  0.2722  0.0289
  775MOL0     H 4572  11.150  11.003   6.238  4.2370  2.5483 -1.4611
  775MOL0     H 4573  11.311  10.954   6.198  0.0912  1.8691  0.2457
  775MOL0     H 4574  11.103  10.724   6.218 -0.3528  1.6526  1.3150
  775MOL0     H 4575  11.252  10.729   6.122 -2.4104 -1.4387 -2.7106
  775MOL0     H 4576  10.894  10.823   6.142  0.5660  1.6876 -0.9610
  775MOL0     H 4577  10.777  10.968   5.805 -0.4804  0.5523  1.4235
  775MOL0     H 4578  10.719  10.865   5.930 -1.8527  1.0825 -2.8211
  775MOL0     H 4579  10.723  11.067   6.076  1.2641  1.7159  0.2058
  775MOL0     H 4580  10.638  11.111   5.935 -0.1414 -2.4618 -0.9648
  775MOL0     H 4581  10.880  11.206   5.841  2.8251  1.7666  0.8465
  775MOL0     H 4582  10.918  11.200   6.005  0.9547  3.5288 -1.1706
  775MOL0     H 4583  10.705  11.343   6.046 -2.8738 -0.6612 -3.0169
  775MOL0     H 4584  10.702  11.357   5.876 -1.6142 -3.3831 -0.2719
  775MOL0     H 4585  10.650  11.542   6.076 -0.1102  0.0270  2.0707
  775MOL0     H 4586  10.549  11.807   6.179 -0.2749 -0.6816  0.1613
  775MOL0     H 4587  10.540  11.648   6.257 -2.9712  1.8265  1.9253
  775MOL0     H 4588  10.618  11.792   6.339 -3.4567  1.1189  0.1007
  775MOL0     H 4589  11.145  12.055   6.471 -0.6378 -0.1901  2.9761
  775MOL0     H 4590  11.184  12.276   6.576 -0.6847  3.3055 -0.1618
  775MOL0     H 4591  11.084  12.516   6.663 -1.1449 -1.4982 -0.4784
  775MOL0     H 4592  11.237  12.515   6.593 -0.6073 -1.9812  1.4747
  775MOL0     H 4593  11.046  12.752   6.599  1.1891  1.9914 -1.1417
  775MOL0     H 4594  11.203  12.727   6.671 -2.5538 -0.5636  1.6265
  775MOL0     H 4595  11.129  12.761   6.379 -1.1755  3.0747 -0.1640
  775MOL0     H 4596  11.284  12.697   6.427 -1.1203  0.1599 -1.9434
  775MOL0     H 4597  11.163  12.957   6.536 -1.2824 -0.9448 -1.3208
  775MOL0     H 4598  11.340  12.909   6.549 -1.5123  3.1175  1.5450
  775MOL0     H 4599  11.224  12.964   6.269 -1.0132 -0.6930  0.8664
  775MOL0     H 4600  11.379  12.966   6.341 -1.3975 -2.1194 -3.0621
  775MOL0     H 4601  11.281  13.168   6.481 -0.9384 -0.9542  1.3450
  775MOL0     H 4602  11.304  13.201   6.307  0.7887  2.5246  2.3090
  775MOL0     H 4603  11.044  13.144   6.452  0.1276  2.7163  1.0497
  775MOL0     H 4604  11.074  13.119   6.278  0.8873 -1.2720  0.8974
  775MOL0     H 4605  11.093  13.381   6.461  1.8836  1.4715 -0.6059
  775MOL0     H 4606  10.957  13.330   6.382 -0.3213  1.7096  2.9533
  775MOL0     H 4607  10.914  12.423   6.270  0.8627 -0.2124 -0.0508
  775MOL0     H 4608  10.845  12.219   6.216 -1.5163 -0.8571  1.1414
  775MOL0     H 4609  11.065  11.806   6.145  0.3658 -0.0109  2.1894
  775MOL0     H 4610  11.058  11.617   5.986  0.5166  2.0617  0.7617
  775MOL0     H 4611  11.536  10.291   6.436  0.6206 -2.4113 -0.5668
  775MOL0     H 4612  11.418  10.077   6.459 -1.1429 -1.1373  1.8951
  775MOL0     H 4613  10.985   9.946   6.659 -1.1929 -0.0809 -1.9913
  775MOL0     H 4614  10.818   9.772   6.707 -0.7726  0.7666 -2.4831
  775MOL0     H 4615  10.743   9.342   6.603 -0.2914  3.0271 -5.9053
  775MOL0     H 4616  10.898   9.353   6.530 -2.0788 -1.1980 -1.1111
  775MOL0     H 4617  10.849   9.323   6.832 -0.5423 -0.5904 -0.5413
  775MOL0     H 4618  11.010   9.309   6.750  0.7139 -1.5921 -0.4156
  775MOL0     H 4619  10.782   9.112   6.684  1.5507  1.5460 -3.5296
  775MOL0     H 4620  10.869   9.090   6.831 -1.3007 -0.5143  0.1967
  775MOL0     H 4621  10.993   8.963   6.685  0.1483 -0.2335  0.9478
  775MOL0     H 4622  11.084   9.116   6.667 -0.3126 -0.7628  0.9566
  775MOL0     H 4623  10.944   9.085   6.279  2.5691  1.7642 -0.2526
  775MOL0     H 4624  11.099   9.465   6.587  0.2865  1.1423 -1.3429
  775MOL0     H 4625  11.277   9.641   6.564  0.2077 -0.2842 -0.5233
  776MOL0     O 4626   5.604   9.430   5.649 -0.3030  0.5282  0.1203
  776MOL0     C 4627   5.652   9.512   5.571 -0.4982  0.9851  0.7204
  776MOL0     O 4628   5.775   9.504   5.506 -0.0913 -0.1005  0.5248
  776MOL0     C 4629   5.863   9.397   5.511 -0.6145  0.1201  0.0419
  776MOL0     C 4630   5.858   9.296   5.603 -0.6643 -0.6467  0.3311
  776MOL0     C 4631   5.960   9.207   5.617 -0.8433  0.2019 -0.0320
  776MOL0     C 4632   6.078   9.210   5.540 -0.3467  0.2090  0.3348
  776MOL0     O 4633   6.180   9.118   5.555  0.4048  0.1493  1.2307
  776MOL0     C 4634   6.148   8.994   5.607  0.3503  0.0739 -0.1515
  776MOL0     C 4635   6.265   8.895   5.593  0.5011  0.7402 -0.0496
  776MOL0     C 4636   6.329   8.894   5.457 -0.0084 -0.7667 -0.5614
  776MOL0     C 4637   6.243   8.818   5.357  0.9765  0.2078  0.4717
  776MOL0     C 4638   6.297   8.819   5.215  0.6539 -0.4759  0.4648
  776MOL0     C 4639   6.419   8.728   5.201 -0.2007 -0.0669  0.5107
  776MOL0     C 4640   6.470   8.764   5.066 -0.2478 -0.2464 -0.2466
  776MOL0     C 4641   6.588   8.691   5.028  0.1136 -0.6591 -0.5816
  776MOL0     N 4642   6.568   8.587   4.915  0.0637  0.4096 -0.5174
  776MOL0     C 4643   6.510   8.621   4.793  0.1803 -0.7604 -0.1438
  776MOL0     C 4644   6.497   8.496   4.733  0.1855 -0.3491  0.4468
  776MOL0     C 4645   6.439   8.480   4.590 -0.4493  0.3793 -0.4052
  776MOL0     C 4646   6.572   8.500   4.508 -0.1071 -0.0345 -0.2997
  776MOL0     C 4647   6.554   8.495   4.356  0.6317  0.5540  0.6880
  776MOL0     C 4648   6.459   8.379   4.303 -0.7583  0.3412  0.0671
  776MOL0     O 4649   6.482   8.357   4.158 -0.8918  0.9352  1.2466
  776MOL0     C 4650   6.412   8.431   4.058 -0.2743  0.2767 -2.0089
  776MOL0     C 4651   6.338   8.546   4.076  0.4538 -0.1850  0.3205
  776MOL0     C 4652   6.270   8.610   3.965 -0.4787  0.2080 -0.3886
  776MOL0     C 4653   6.205   8.741   4.009  0.2330 -0.9450 -0.1578
  776MOL0     C 4654   6.293   8.562   3.831  0.7182 -0.3426  0.3359
  776MOL0     C 4655   6.236   8.619   3.706 -0.1238  0.4965  0.2636
  776MOL0     O 4656   6.306   8.582   3.587  0.2779  0.3110 -0.2451
  776MOL0     C 4657   6.269   8.611   3.458  0.0862  0.6451  0.8254
  776MOL0     C 4658   6.328   8.531   3.356  0.1213  0.3853 -0.4548
  776MOL0     C 4659   6.293   8.548   3.224 -1.4374  0.1350 -0.1908
  776MOL0     C 4660   6.207   8.656   3.184 -0.2534  0.2021  0.3917
  776MOL0     O 4661   6.201   8.671   3.049  0.7862 -0.4217  0.4424
  776MOL0     C 4662   6.099   8.747   2.982 -0.1166 -0.9233 -0.4596
  776MOL0     C 4663   6.148   8.757   2.841 -0.0152 -0.2530  0.4555
  776MOL0     C 4664   6.091   8.882   2.772  0.5136 -0.5974  0.7319
  776MOL0     C 4665   6.103   8.873   2.615  0.1237  0.2348 -0.0877
  776MOL0     C 4666   6.025   8.986   2.531 -0.5378  0.5717 -0.1140
  776MOL0     C 4667   6.078   9.123   2.571 -0.7921 -0.4025 -0.6277
  776MOL0     C 4668   6.031   9.227   2.459  0.1048 -0.7253 -0.4766
  776MOL0     C 4669   5.888   9.273   2.485  0.2504 -0.3107  0.2761
  776MOL0    Cl 4670   5.848   9.405   2.372 -0.2563 -0.5110 -0.0844
  776MOL0     C 4671   6.141   8.728   3.279 -0.4231 -0.0822 -0.3333
  776MOL0     C 4672   6.165   8.706   3.415 -0.1699  0.2143  0.9596
  776MOL0     O 4673   6.138   8.697   3.716 -0.0337  0.6198  0.0934
  776MOL0     C 4674   6.360   8.435   3.825  0.4805 -1.3985  0.6195
  776MOL0     C 4675   6.413   8.379   3.934  0.5747 -0.7590  0.4436
  776MOL0     N 4676   6.540   8.395   4.817 -0.3599 -0.1518 -0.3237
  776MOL0     N 4677   6.584   8.454   4.923 -0.0322  0.0366  0.0108
  776MOL0     C 4678   6.085   9.315   5.452  0.0763 -0.0460  0.2477
  776MOL0     C 4679   5.984   9.413   5.440 -0.6428  0.1716  0.0969
  776MOL0     C 4680   5.582   9.644   5.537  0.4020  1.6685  0.2532
  776MOL0     C 4681   5.443   9.668   5.565 -0.0746  0.6115 -0.2373
  776MOL0     C 4682   5.380   9.792   5.533 -0.0627  0.6447 -0.1723
  776MOL0     C 4683   5.451   9.897   5.478  0.5271 -0.0289  0.8713
  776MOL0     O 4684   5.399  10.019   5.448  0.0345 -0.5417 -0.0154
  776MOL0     C 4685   5.263  10.030   5.402 -0.6455 -0.3657  0.0946
  776MOL0     C 4686   5.241  10.146   5.301 -0.7454  0.3931  0.3294
  776MOL0     C 4687   5.352  10.186   5.202 -0.0759  0.0608 -0.2725
  776MOL0     C 4688   5.401  10.071   5.120  0.6319 -0.2827  1.0811
  776MOL0     C 4689   5.283  10.009   5.051 -0.4897 -0.7606 -0.2022
  776MOL0     C 4690   5.191   9.955   4.992 -0.7330  0.0531 -0.2773
  776MOL0     C 4691   5.585   9.878   5.456 -0.0382 -0.2799 -0.1311
  776MOL0     C 4692   5.648   9.754   5.478  0.3816 -0.3742 -0.2726
  776MOL0     H 4693   5.776   9.283   5.674  0.0338 -0.8557  1.1235
  776MOL0     H 4694   5.934   9.123   5.679 -4.4386 -3.2112 -5.3639
  776MOL0     H 4695   6.136   9.001   5.716  2.8193 -2.9384  0.4534
  776MOL0     H 4696   6.059   8.947   5.564  1.4104 -0.4463 -1.8494
  776MOL0     H 4697   6.340   8.920   5.668  0.3603 -2.4533  1.3034
  776MOL0     H 4698   6.228   8.795   5.614 -0.9942  1.7559  2.5790
  776MOL0     H 4699   6.355   8.994   5.423  0.5282 -0.3033  1.1099
  776MOL0     H 4700   6.424   8.842   5.470  0.3545 -0.1841 -0.8365
  776MOL0     H 4701   6.216   8.714   5.380 -1.1286  0.9645  1.6991
  776MOL0     H 4702   6.147   8.871   5.362 -0.5533 -2.4052  0.7173
  776MOL0     H 4703   6.214   8.794   5.149 -3.7576  1.5291  4.6577
  776MOL0     H 4704   6.315   8.923   5.189 -1.6070  0.0655  0.9102
  776MOL0     H 4705   6.504   8.755   5.264  0.8854 -0.2855 -0.8101
  776MOL0     H 4706   6.397   8.621   5.200  2.0584 -0.5800 -1.0234
  776MOL0     H 4707   6.395   8.756   4.987 -0.4208 -0.7263 -0.0403
  776MOL0     H 4708   6.501   8.869   5.064 -0.5165 -0.1735 -0.8559
  776MOL0     H 4709   6.635   8.640   5.112 -1.6856 -4.1524 -1.4864
  776MOL0     H 4710   6.664   8.760   4.990 -1.3897  1.7128  0.4581
  776MOL0     H 4711   6.470   8.714   4.754  1.8753  0.9186  1.8824
  776MOL0     H 4712   6.400   8.378   4.575  1.5845 -0.5897  0.4744
  776MOL0     H 4713   6.360   8.552   4.568 -0.1433  1.3704  1.5329
  776MOL0     H 4714   6.645   8.422   4.531  1.2278  1.1797 -0.3447
  776MOL0     H 4715   6.610   8.599   4.535  0.2226  0.5567 -2.7256
  776MOL0     H 4716   6.658   8.479   4.324  1.1221  0.2199  2.3678
  776MOL0     H 4717   6.524   8.588   4.307  0.4032  0.2281  0.1957
  776MOL0     H 4718   6.352   8.394   4.323 -2.4065 -1.4045 -5.4829
  776MOL0     H 4719   6.485   8.285   4.353 -0.8108  0.4166  0.2360
  776MOL0     H 4720   6.335   8.589   4.175 -0.3666  3.7022 -1.1884
  776MOL0     H 4721   6.261   8.787   4.091  0.0016 -0.3480 -0.3241
  776MOL0     H 4722   6.207   8.816   3.928 -1.3550  0.5346  1.1003
  776MOL0     H 4723   6.103   8.728   4.047 -0.6599  0.6422 -1.8169
  776MOL0     H 4724   6.409   8.464   3.382 -0.6256 -0.4286 -0.1715
  776MOL0     H 4725   6.351   8.493   3.151 -0.2622 -0.9940  1.5119
  776MOL0     H 4726   6.000   8.702   2.998 -1.0681  1.1396 -0.1269
  776MOL0     H 4727   6.087   8.848   3.023 -0.9205 -0.7717 -1.0367
  776MOL0     H 4728   6.258   8.754   2.844  0.1828 -2.4122 -3.1163
  776MOL0     H 4729   6.109   8.668   2.792  3.3242 -2.3460  1.2769
  776MOL0     H 4730   6.127   8.977   2.813 -0.4591  0.3530 -0.5460
  776MOL0     H 4731   5.987   8.887   2.805  0.3525 -3.4647  0.9470
  776MOL0     H 4732   6.208   8.867   2.588 -0.1122  0.8729 -1.2287
  776MOL0     H 4733   6.067   8.774   2.584  3.5720 -0.8377 -1.1326
  776MOL0     H 4734   5.923   8.980   2.569 -0.3809  1.3832  0.4700
  776MOL0     H 4735   6.020   8.978   2.422  0.1971  0.4144 -0.1412
  776MOL0     H 4736   6.043   9.143   2.673  2.3516 -5.0511  1.7166
  776MOL0     H 4737   6.187   9.124   2.570 -0.6552  2.8693 -4.1898
  776MOL0     H 4738   6.029   9.192   2.355 -0.1947 -1.7550 -0.1434
  776MOL0     H 4739   6.101   9.309   2.476  2.8743 -3.1864  0.8242
  776MOL0     H 4740   5.879   9.315   2.585  0.1152 -0.4419  0.3195
  776MOL0     H 4741   5.822   9.186   2.489 -1.8139  1.2149  3.0763
  776MOL0     H 4742   6.092   8.820   3.248 -0.0580  0.7395  1.4247
  776MOL0     H 4743   6.108   8.765   3.486  2.3706  1.0432  2.4607
  776MOL0     H 4744   6.374   8.380   3.733 -0.2343  0.5539 -0.7184
  776MOL0     H 4745   6.461   8.284   3.913  3.2582  0.3257  1.2390
  776MOL0     H 4746   6.179   9.330   5.398 -1.1123 -1.1377 -2.2740
  776MOL0     H 4747   5.985   9.497   5.371 -0.8932  1.1750  1.2841
  776MOL0     H 4748   5.392   9.592   5.623 -0.1026 -1.1111 -2.3679
  776MOL0     H 4749   5.272   9.801   5.536  0.0748  2.9159  2.4136
  776MOL0     H 4750   5.236   9.935   5.355  2.7288 -0.7299 -1.3751
  776MOL0     H 4751   5.202  10.061   5.487  1.0524  2.2174  0.5222
  776MOL0     H 4752   5.223  10.231   5.367 -4.2986 -0.4744  0.7069
  776MOL0     H 4753   5.150  10.133   5.242  1.3491 -2.8497 -2.5730
  776MOL0     H 4754   5.438  10.218   5.261  1.2254 -2.1854 -0.7976
  776MOL0     H 4755   5.306  10.260   5.136  3.3208  0.1199 -2.8125
  776MOL0     H 4756   5.464  10.002   5.178  1.1599 -1.8436 -1.1994
  776MOL0     H 4757   5.473  10.106   5.046  0.1771 -1.1381  0.2129
  776MOL0     H 4758   5.113   9.899   4.945 -0.0120  0.1471 -1.6444
  776MOL0     H 4759   5.658   9.944   5.411  1.0545 -0.5826  1.1421
  776MOL0     H 4760   5.756   9.748   5.471  0.1952 -3.8230 -2.6010
  777MOL0     O 4761   9.455   4.100   8.679  0.7436 -0.5267 -0.8846
  777MOL0     C 4762   9.499   4.013   8.607  0.3663 -1.0257 -0.0743
  777MOL0     O 4763   9.562   3.901   8.653 -0.3867  0.3114  0.3317
  777MOL0     C 4764   9.610   3.900   8.780 -1.0264  0.6091  0.2869
  777MOL0     C 4765   9.648   3.779   8.838 -0.9434  0.2276 -0.5659
  777MOL0     C 4766   9.707   3.777   8.968  0.1531 -0.4632  0.6931
  777MOL0     C 4767   9.752   3.891   9.027 -0.1365 -0.1521 -0.1260
  777MOL0     O 4768   9.817   3.911   9.150  0.5068 -0.8512  0.6724
  777MOL0     C 4769   9.823   3.814   9.259 -0.7321 -0.1960 -0.0458
  777MOL0     C 4770   9.881   3.875   9.391  0.7294  0.5628 -0.9693
  777MOL0     C 4771   9.788   3.969   9.461  0.3782 -0.0758 -0.2200
  777MOL0     C 4772   9.824   3.983   9.615  0.6803  0.8065  0.4442
  777MOL0     C 4773   9.774   4.106   9.688 -0.0048 -1.0528 -0.0915
  777MOL0     C 4774   9.842   4.240   9.653 -0.0987  0.5115 -0.1165
  777MOL0     C 4775   9.765   4.361   9.705 -0.0153 -0.3486 -0.1433
  777MOL0     C 4776   9.771   4.374   9.854 -0.1182  0.4276  0.7707
  777MOL0     N 4777   9.902   4.378   9.923  0.5406  0.3057 -0.2218
  777MOL0     C 4778   9.948   4.271   9.995  0.1466  0.3867  0.1707
  777MOL0     C 4779  10.044   4.313  10.077 -0.6638  0.6854  0.1090
  777MOL0     C 4780  10.131   4.231  10.162 -0.3129  0.1546  0.0580
  777MOL0     C 4781  10.257   4.199  10.082 -0.3798  0.1967  0.0005
  777MOL0     C 4782  10.369   4.134  10.165 -0.0419  0.5498 -0.0848
  777MOL0     C 4783  10.483   4.079  10.080 -0.0869  0.2762  0.5909
  777MOL0     O 4784  10.436   3.970  10.004 -0.3328 -0.4474  0.5091
  777MOL0     C 4785  10.509   3.916   9.901 -1.0218  0.7273 -0.3684
  777MOL0     C 4786  10.447   3.821   9.824 -0.4856 -0.3182  0.3207
  777MOL0     C 4787  10.511   3.765   9.708  0.5705 -0.2711  0.4829
  777MOL0     C 4788  10.443   3.640   9.652  0.2574 -0.5998  0.5170
  777MOL0     C 4789  10.644   3.806   9.682 -0.0650 -0.6940  0.1416
  777MOL0     C 4790  10.726   3.748   9.581  0.0236 -0.3477  0.0920
  777MOL0     O 4791  10.802   3.834   9.517 -0.2770  0.2729 -0.0374
  777MOL0     C 4792  10.911   3.790   9.449 -0.4871 -0.5818 -0.3135
  777MOL0     C 4793  11.004   3.689   9.492 -0.2652 -0.4654  0.2261
  777MOL0     C 4794  11.110   3.660   9.410 -0.0307 -0.0918 -0.6904
  777MOL0     C 4795  11.121   3.705   9.282 -0.1766  0.3489  0.5825
  777MOL0     O 4796  11.228   3.661   9.214 -0.5848 -0.0538  0.0580
  777MOL0     C 4797  11.245   3.696   9.078  0.6091 -0.3627  0.1985
  777MOL0     C 4798  11.376   3.639   9.022  0.1810  0.0154 -0.4304
  777MOL0     C 4799  11.482   3.726   9.076 -0.1018  0.1527  0.1741
  777MOL0     C 4800  11.615   3.654   9.045  0.5932 -0.6373 -0.0477
  777MOL0     C 4801  11.738   3.741   9.074 -0.1012 -0.0827  0.4576
  777MOL0     C 4802  11.860   3.663   9.026 -0.4286  0.9752 -0.9481
  777MOL0     C 4803  11.991   3.699   9.113 -0.8430  0.1000  0.1273
  777MOL0     C 4804  12.115   3.704   9.023 -0.2390  0.3307  0.6528
  777MOL0    Cl 4805  12.104   3.841   8.909 -0.5213 -0.2938 -0.0984
  777MOL0     C 4806  11.016   3.786   9.233 -0.4330 -0.0858  0.0859
  777MOL0     C 4807  10.913   3.831   9.314 -0.6878 -0.9734 -0.0488
  777MOL0     O 4808  10.717   3.628   9.568  0.4558  0.1072 -0.3320
  777MOL0     C 4809  10.707   3.902   9.771 -0.8280 -0.1939 -0.8170
  777MOL0     C 4810  10.640   3.962   9.879  0.8532  0.3073 -0.4217
  777MOL0     N 4811  10.047   4.450  10.068 -0.1144 -0.0720  0.7121
  777MOL0     N 4812   9.964   4.494   9.975 -0.6749  0.1927 -0.3099
  777MOL0     C 4813   9.724   4.015   8.968  0.2771 -0.0336  0.5725
  777MOL0     C 4814   9.656   4.017   8.850 -0.2785 -0.1394  0.2503
  777MOL0     C 4815   9.478   4.022   8.457 -0.1673 -1.0574 -0.2755
  777MOL0     C 4816   9.523   3.913   8.380  0.3530  0.4277 -0.5557
  777MOL0     C 4817   9.529   3.934   8.242 -0.0618  0.1968 -0.0626
  777MOL0     C 4818   9.497   4.055   8.187  0.2455 -0.9056  0.2962
  777MOL0     O 4819   9.511   4.073   8.047 -0.1269  0.0349  0.3589
  777MOL0     C 4820   9.457   4.179   7.975 -1.1068 -0.6858  0.0260
  777MOL0     C 4821   9.304   4.165   7.985  0.0889  0.2190  0.7628
  777MOL0     C 4822   9.238   4.240   7.864 -0.2471  0.0245  0.0470
  777MOL0     C 4823   9.227   4.142   7.744 -0.3349  0.4286 -0.0740
  777MOL0     C 4824   9.178   4.226   7.627 -0.5375  0.6320  0.1677
  777MOL0     C 4825   9.151   4.293   7.531  0.0586 -0.3865 -0.1153
  777MOL0     C 4826   9.468   4.165   8.268  0.3688 -0.6597  0.2553
  777MOL0     C 4827   9.455   4.149   8.396  0.6860 -0.4047  0.7369
  777MOL0     H 4828   9.619   3.695   8.775 -1.4902 -1.4080  1.7613
  777MOL0     H 4829   9.726   3.683   9.018  2.2679 -0.5227 -0.1216
  777MOL0     H 4830   9.721   3.780   9.277  0.4895 -4.6359 -0.3399
  777MOL0     H 4831   9.897   3.736   9.236 -0.7045  0.5703 -2.9675
  777MOL0     H 4832   9.910   3.792   9.456 -0.3105  1.8305  1.2287
  777MOL0     H 4833   9.965   3.944   9.379  1.4119  0.3989  2.0101
  777MOL0     H 4834   9.793   4.059   9.400  3.7734 -2.1129 -3.3327
  777MOL0     H 4835   9.684   3.939   9.445  0.9339 -2.6025  0.4280
  777MOL0     H 4836   9.790   3.899   9.677  4.5093  0.8467  2.9646
  777MOL0     H 4837   9.932   3.990   9.632  0.6451 -1.2511  2.0847
  777MOL0     H 4838   9.667   4.111   9.668  0.2733 -1.7596 -1.9122
  777MOL0     H 4839   9.785   4.086   9.795  0.1889 -3.3196 -0.4832
  777MOL0     H 4840   9.947   4.232   9.683 -0.5157 -1.6094  0.9395
  777MOL0     H 4841   9.833   4.259   9.546 -3.1908 -1.5285 -0.3501
  777MOL0     H 4842   9.810   4.455   9.672 -0.3194  0.4014  1.5014
  777MOL0     H 4843   9.661   4.352   9.672  0.6242 -1.8112 -1.9581
  777MOL0     H 4844   9.711   4.297   9.904  1.2543  0.2362  2.1793
  777MOL0     H 4845   9.730   4.473   9.874  1.7155  2.2178 -3.2331
  777MOL0     H 4846   9.922   4.168   9.975 -0.8066  0.3318  1.5607
  777MOL0     H 4847  10.156   4.267  10.262 -1.6518  0.6455  0.2393
  777MOL0     H 4848  10.069   4.143  10.184 -0.2718 -0.3136 -1.5442
  777MOL0     H 4849  10.292   4.288  10.029  1.3049  0.0447  0.7864
  777MOL0     H 4850  10.236   4.131   9.999  0.8171  1.3815 -1.3160
  777MOL0     H 4851  10.325   4.052  10.223  1.1992 -0.9550 -1.1664
  777MOL0     H 4852  10.404   4.195  10.249 -0.4480 -3.0581  2.9926
  777MOL0     H 4853  10.572   4.060  10.141  0.3174  0.3413  0.0256
  777MOL0     H 4854  10.512   4.155  10.007  0.3689  2.3892  2.8435
  777MOL0     H 4855  10.347   3.796   9.858 -1.0253 -0.4577 -1.2656
  777MOL0     H 4856  10.465   3.546   9.702  0.1361 -0.8173  0.1626
  777MOL0     H 4857  10.335   3.660   9.648 -0.1439 -2.7081 -0.8556
  777MOL0     H 4858  10.473   3.631   9.547 -1.6411 -0.9441 -0.0425
  777MOL0     H 4859  11.004   3.652   9.594  0.1271 -3.8370 -0.8649
  777MOL0     H 4860  11.190   3.599   9.450 -1.4530 -1.8830 -0.4324
  777MOL0     H 4861  11.160   3.669   9.014  0.9363 -2.3625  0.5305
  777MOL0     H 4862  11.255   3.804   9.063  1.7472 -0.0747  2.6851
  777MOL0     H 4863  11.395   3.543   9.070 -3.7938 -0.2058  1.0398
  777MOL0     H 4864  11.368   3.619   8.914 -1.4584  0.5058 -0.4255
  777MOL0     H 4865  11.480   3.718   9.186  0.3349  0.1231  0.1823
  777MOL0     H 4866  11.486   3.827   9.035  2.0475 -0.2331 -0.6762
  777MOL0     H 4867  11.620   3.564   9.107  1.3916  0.2835  1.2679
  777MOL0     H 4868  11.621   3.634   8.938  2.3315 -0.0822 -0.0796
  777MOL0     H 4869  11.738   3.755   9.183 -0.9171  0.4275  0.4033
  777MOL0     H 4870  11.727   3.840   9.030 -1.2440 -0.6149 -0.5048
  777MOL0     H 4871  11.844   3.555   9.022  0.8432  0.8131 -2.3733
  777MOL0     H 4872  11.858   3.694   8.921  0.6615 -0.4459 -1.4130
  777MOL0     H 4873  12.016   3.620   9.185  1.1512  1.3790  0.9182
  777MOL0     H 4874  11.981   3.797   9.160 -1.3060 -0.8720  2.1751
  777MOL0     H 4875  12.128   3.615   8.961 -0.2053  0.3837  0.5830
  777MOL0     H 4876  12.206   3.723   9.080 -0.2131 -2.6218  1.7572
  777MOL0     H 4877  11.021   3.810   9.127  3.4604 -2.7075 -0.5580
  777MOL0     H 4878  10.840   3.906   9.286  2.0691  0.9267 -2.7948
  777MOL0     H 4879  10.810   3.925   9.746 -0.5060  0.2603  0.8512
  777MOL0     H 4880  10.691   4.038   9.937  1.7641  0.8521 -1.8675
  777MOL0     H 4881   9.757   4.114   8.997 -0.4494 -0.2314  2.2008
  777MOL0     H 4882   9.645   4.112   8.799 -4.8493 -0.4696  0.2121
  777MOL0     H 4883   9.559   3.819   8.420 -2.8186 -1.3574 -1.5686
  777MOL0     H 4884   9.559   3.846   8.187  0.7940 -0.7059  1.7705
  777MOL0     H 4885   9.495   4.273   8.014  1.1866 -2.0973  1.4107
  777MOL0     H 4886   9.479   4.179   7.867 -3.0516  3.4382 -0.5577
  777MOL0     H 4887   9.248   4.195   8.074  1.0482 -2.1974  2.2819
  777MOL0     H 4888   9.276   4.060   7.977 -0.1732  0.4192 -2.1548
  777MOL0     H 4889   9.278   4.341   7.850 -1.4584  0.7158  1.3579
  777MOL0     H 4890   9.140   4.280   7.893 -0.7337 -0.7908 -0.4595
  777MOL0     H 4891   9.159   4.057   7.761 -0.4899 -0.0265 -2.5028
  777MOL0     H 4892   9.328   4.106   7.725  0.3977  0.7365  2.8544
  777MOL0     H 4893   9.109   4.357   7.457 -0.7280  1.1798  1.6054
  777MOL0     H 4894   9.458   4.270   8.241 -1.8711 -0.7204  0.6473
  777MOL0     H 4895   9.430   4.235   8.457  0.0377  0.8280 -1.2069
  778MOL0     O 4896   9.624  10.614   7.760  0.2398 -1.2794 -0.2086
  778MOL0     C 4897   9.527  10.545   7.749  0.0947  0.5767 -0.8337
  778MOL0     O 4898   9.479  10.467   7.850 -0.3759 -0.0937  1.7411
  778MOL0     C 4899   9.550  10.458   7.969 -0.1323 -0.8249 -0.6059
  778MOL0     C 4900   9.477  10.451   8.088 -0.7524  0.6513  0.3190
  778MOL0     C 4901   9.528  10.443   8.215 -0.5207 -1.2329  0.4071
  778MOL0     C 4902   9.668  10.426   8.223  0.0647 -0.0119 -0.7745
  778MOL0     O 4903   9.719  10.391   8.345  0.1581 -0.9265  0.2608
  778MOL0     C 4904   9.861  10.377   8.365 -0.0410 -0.6767  0.3300
  778MOL0     C 4905   9.890  10.336   8.514 -0.9143 -0.0572 -0.4474
  778MOL0     C 4906  10.048  10.289   8.528  0.8875 -0.1968 -0.3683
  778MOL0     C 4907  10.097  10.296   8.674  0.6987 -0.5485  0.3970
  778MOL0     C 4908  10.100  10.436   8.732 -0.3083  0.5544  0.2372
  778MOL0     C 4909  10.178  10.532   8.643  1.4149  0.3506 -0.1748
  778MOL0     C 4910  10.234  10.663   8.710  0.1606  0.3368 -1.3082
  778MOL0     C 4911  10.320  10.754   8.620  0.0290  0.2702  0.2157
  778MOL0     N 4912  10.448  10.683   8.614  0.4586 -1.1533  0.9495
  778MOL0     C 4913  10.557  10.702   8.691 -0.2715  0.0514 -0.0280
  778MOL0     C 4914  10.668  10.630   8.639  0.3489 -0.6944 -0.7002
  778MOL0     C 4915  10.825  10.627   8.678  0.5241  0.5827  0.3094
  778MOL0     C 4916  10.915  10.564   8.578  0.7970  0.8011 -0.1936
  778MOL0     C 4917  11.067  10.564   8.612  0.3530  0.4476 -0.0675
  778MOL0     C 4918  11.131  10.689   8.536  0.1221  0.4815 -0.1295
  778MOL0     O 4919  11.265  10.689   8.578 -0.1649 -0.0639 -0.9551
  778MOL0     C 4920  11.353  10.796   8.555  0.6522 -0.3094 -0.3859
  778MOL0     C 4921  11.337  10.895   8.461  0.4720 -0.2201  0.2409
  778MOL0     C 4922  11.429  10.996   8.442 -0.1652  0.3255  0.9758
  778MOL0     C 4923  11.395  11.103   8.347  0.0446  0.5193 -0.3639
  778MOL0     C 4924  11.546  11.003   8.522 -0.4240  0.6259 -0.5380
  778MOL0     C 4925  11.664  11.090   8.488 -0.2126  0.0545 -0.3010
  778MOL0     O 4926  11.656  11.189   8.397  0.0971 -1.0436 -0.8768
  778MOL0     C 4927  11.759  11.280   8.364 -0.5539 -1.2801 -1.0945
  778MOL0     C 4928  11.889  11.245   8.333 -1.2461 -0.2846  0.1009
  778MOL0     C 4929  11.985  11.347   8.304 -0.3888 -0.8416  0.6555
  778MOL0     C 4930  11.960  11.489   8.307  0.3542 -0.0398  0.0480
  778MOL0     O 4931  12.054  11.587   8.264 -0.2168  0.2956  0.2595
  778MOL0     C 4932  12.194  11.553   8.261  0.6344  0.1818  0.5392
  778MOL0     C 4933  12.276  11.680   8.237  0.3024 -0.1281 -1.1175
  778MOL0     C 4934  12.417  11.656   8.265 -0.6668  0.3445  0.5436
  778MOL0     C 4935  12.450  11.663   8.418 -0.0093  0.4808  1.1111
  778MOL0     C 4936  12.604  11.674   8.430 -0.1585  0.4683 -0.1509
  778MOL0     C 4937  12.623  11.702   8.584  0.7044 -0.2652 -0.1068
  778MOL0     C 4938  12.759  11.749   8.642  0.7866 -0.3925 -0.4594
  778MOL0     C 4939  12.876  11.652   8.619  0.4358 -0.5595 -0.8320
  778MOL0    Cl 4940  13.036  11.740   8.653  0.0611 -0.1360  0.0580
  778MOL0     C 4941  11.825  11.520   8.343  0.2383  0.5752  0.4063
  778MOL0     C 4942  11.735  11.419   8.381 -0.3376 -0.6730  0.1901
  778MOL0     O 4943  11.759  11.067   8.559  0.0930  0.3277  0.7469
  778MOL0     C 4944  11.556  10.901   8.621 -0.2376 -0.0298 -0.3441
  778MOL0     C 4945  11.467  10.805   8.635  0.4110  0.0922 -0.3665
  778MOL0     N 4946  10.608  10.566   8.534 -0.2142 -0.4874 -0.8321
  778MOL0     N 4947  10.482  10.597   8.514  0.4276 -0.4470  0.9241
  778MOL0     C 4948   9.751  10.419   8.108  0.8297  0.5266  0.0906
  778MOL0     C 4949   9.691  10.440   7.982  0.0111 -0.0888 -0.2914
  778MOL0     C 4950   9.444  10.557   7.623  0.4372  0.4770  0.7733
  778MOL0     C 4951   9.471  10.670   7.532  0.7039  0.3580  0.3677
  778MOL0     C 4952   9.401  10.670   7.410  0.2295 -0.6608  0.1330
  778MOL0     C 4953   9.319  10.565   7.366 -0.7300  0.1180  0.9465
  778MOL0     O 4954   9.265  10.571   7.234 -0.6477 -0.1135 -0.4217
  778MOL0     C 4955   9.254  10.453   7.173  0.5903 -0.6192 -0.1896
  778MOL0     C 4956   9.189  10.475   7.035  0.4911  0.4592  0.4265
  778MOL0     C 4957   9.209  10.343   6.948  0.1917  0.3133  0.3897
  778MOL0     C 4958   9.156  10.381   6.806  0.0174  0.0369  0.6916
  778MOL0     C 4959   9.269  10.388   6.711 -1.1686 -0.5056  0.2245
  778MOL0     C 4960   9.355  10.376   6.627  0.3607  0.6385  0.4380
  778MOL0     C 4961   9.293  10.460   7.455  0.3531  1.0431 -0.3300
  778MOL0     C 4962   9.356  10.447   7.579 -0.4738 -0.5538 -0.1071
  778MOL0     H 4963   9.371  10.438   8.071 -0.2671 -0.9115 -1.8891
  778MOL0     H 4964   9.476  10.434   8.310 -0.5648  0.6863  0.5990
  778MOL0     H 4965   9.922  10.312   8.301 -1.3781 -0.7056 -0.9603
  778MOL0     H 4966   9.900  10.479   8.361  1.8525 -1.2061  2.6854
  778MOL0     H 4967   9.867  10.419   8.581  0.9600 -1.6253  2.3093
  778MOL0     H 4968   9.831  10.247   8.533 -1.0296 -0.0983 -0.9607
  778MOL0     H 4969  10.045  10.182   8.504 -0.6134 -1.0266  2.9663
  778MOL0     H 4970  10.110  10.343   8.456 -2.7227  1.8810 -2.2430
  778MOL0     H 4971  10.026  10.234   8.730 -2.0892  1.8555 -0.2753
  778MOL0     H 4972  10.199  10.259   8.687  1.5070  1.3562 -0.2222
  778MOL0     H 4973   9.997  10.471   8.742 -0.8574 -0.8962 -0.1283
  778MOL0     H 4974  10.139  10.441   8.834  0.6494  1.4211 -0.1528
  778MOL0     H 4975  10.264  10.476   8.606  1.4173  0.0687  0.2630
  778MOL0     H 4976  10.104  10.567   8.570  0.4921  2.8072  1.7622
  778MOL0     H 4977  10.145  10.720   8.740  0.4092  0.1633 -0.2007
  778MOL0     H 4978  10.280  10.642   8.807 -1.3132  1.6367 -0.2640
  778MOL0     H 4979  10.323  10.843   8.682 -1.6127  0.7168 -0.2998
  778MOL0     H 4980  10.269  10.772   8.525  0.3928 -0.3712 -0.1151
  778MOL0     H 4981  10.562  10.780   8.766  1.0807  2.9589 -2.8749
  778MOL0     H 4982  10.854  10.728   8.709  0.0199  0.7436  0.2695
  778MOL0     H 4983  10.827  10.564   8.768  0.7665 -0.8709 -0.6951
  778MOL0     H 4984  10.895  10.614   8.482  0.0388 -0.3320 -0.6486
  778MOL0     H 4985  10.894  10.458   8.565  2.1224  0.6528 -1.4028
  778MOL0     H 4986  11.114  10.474   8.570 -0.7855 -1.5258  2.6131
  778MOL0     H 4987  11.093  10.563   8.718  1.6796 -2.6385 -0.3042
  778MOL0     H 4988  11.076  10.779   8.565  1.2033  0.7972  1.0058
  778MOL0     H 4989  11.124  10.673   8.428 -1.5576  0.5091 -0.0621
  778MOL0     H 4990  11.258  10.895   8.386  1.3863  4.6777 -1.0803
  778MOL0     H 4991  11.457  11.117   8.258  2.8256 -1.4337  1.1163
  778MOL0     H 4992  11.297  11.088   8.301  0.7827 -1.6973 -1.3380
  778MOL0     H 4993  11.396  11.195   8.406  1.3026 -0.6798  1.5986
  778MOL0     H 4994  11.907  11.139   8.318 -1.3129 -0.2155 -0.4903
  778MOL0     H 4995  12.081  11.316   8.264 -0.2783 -0.2288  0.4308
  778MOL0     H 4996  12.219  11.512   8.360  0.4798  0.6024  0.7548
  778MOL0     H 4997  12.210  11.471   8.191  0.6991 -0.2603  1.0681
  778MOL0     H 4998  12.252  11.723   8.140  1.8717  0.1650 -1.3945
  778MOL0     H 4999  12.246  11.751   8.314 -1.9846 -2.6414  0.5292
  778MOL0     H 5000  12.474  11.738   8.222 -0.1291 -1.6033 -2.8608
  778MOL0     H 5001  12.459  11.566   8.217  1.2661  1.0397  0.8644
  778MOL0     H 5002  12.393  11.739   8.472  0.7419 -0.4111  3.2735
  778MOL0     H 5003  12.408  11.571   8.461 -0.9767  0.5265  0.2921
  778MOL0     H 5004  12.645  11.752   8.365 -0.0741 -0.4142 -1.1933
  778MOL0     H 5005  12.637  11.573   8.403 -0.8454 -0.2216  1.4858
  778MOL0     H 5006  12.554  11.780   8.618  1.9566 -0.4584  3.2681
  778MOL0     H 5007  12.600  11.615   8.646  2.0465 -1.1611 -0.8299
  778MOL0     H 5008  12.758  11.758   8.751  1.5157 -3.0227 -0.1606
  778MOL0     H 5009  12.786  11.850   8.610  1.6630 -0.8193 -1.1250
  778MOL0     H 5010  12.873  11.632   8.512 -1.1442 -0.2069 -0.8837
  778MOL0     H 5011  12.873  11.555   8.669 -1.7569 -0.0450  0.1708
  778MOL0     H 5012  11.786  11.621   8.352 -0.5345  0.3323 -0.1463
  778MOL0     H 5013  11.631  11.442   8.405 -0.9492 -3.9079  1.0567
  778MOL0     H 5014  11.638  10.881   8.690 -0.8227  0.6460  0.5716
  778MOL0     H 5015  11.476  10.722   8.704  0.6590 -1.1858 -1.8972
  778MOL0     H 5016   9.855  10.389   8.109  0.5357 -0.5426  1.2415
  778MOL0     H 5017   9.754  10.438   7.893  1.1943  1.6818  0.4502
  778MOL0     H 5018   9.550  10.743   7.550  1.3371 -0.3828  0.6263
  778MOL0     H 5019   9.419  10.751   7.340 -2.1021 -1.0388 -1.0032
  778MOL0     H 5020   9.357  10.421   7.153 -0.1005 -4.5736  1.6216
  778MOL0     H 5021   9.196  10.380   7.230 -1.5571  0.7919 -0.4398
  778MOL0     H 5022   9.246  10.555   6.986 -1.5990  1.1412 -1.0376
  778MOL0     H 5023   9.083  10.495   7.049  1.0565  1.9806  3.4859
  778MOL0     H 5024   9.146  10.265   6.992 -0.5502 -0.3745 -1.7847
  778MOL0     H 5025   9.316  10.324   6.936  0.5021  1.7770  0.6996
  778MOL0     H 5026   9.097  10.472   6.795  1.3528  0.6041 -4.2002
  778MOL0     H 5027   9.103  10.292   6.771 -2.9410  2.1019 -0.4881
  778MOL0     H 5028   9.430  10.353   6.553  0.3241 -0.9597  0.8581
  778MOL0     H 5029   9.238  10.367   7.443  0.9417  0.5010  1.0000
  778MOL0     H 5030   9.337  10.363   7.645  1.7941 -1.3626 -0.4115
  779MOL0     O 5031   5.667  10.063   4.015  0.7099 -0.1311  0.8732
  779MOL0     C 5032   5.569  10.086   3.942 -0.3899  0.1787 -0.7657
  779MOL0     O 5033   5.547  10.198   3.878  0.4972 -0.3596 -0.0425
  779MOL0     C 5034   5.658  10.276   3.868  0.2931 -0.2935  0.6373
  779MOL0     C 5035   5.671  10.386   3.952 -0.0744 -0.4325  0.0462
  779MOL0     C 5036   5.789  10.460   3.963  1.4871 -0.7860  0.2871
  779MOL0     C 5037   5.898  10.417   3.895 -1.0293  0.0925 -1.4015
  779MOL0     O 5038   6.013  10.490   3.922 -0.8556 -0.2795 -0.7277
  779MOL0     C 5039   6.137  10.426   3.932 -0.5976  0.2311 -0.5168
  779MOL0     C 5040   6.143  10.394   4.085  0.1943 -0.0165 -0.2374
  779MOL0     C 5041   6.289  10.402   4.114 -0.8078  0.3514 -0.2117
  779MOL0     C 5042   6.324  10.408   4.272 -0.7088  0.3575  0.2488
  779MOL0     C 5043   6.261  10.293   4.356 -0.0531  0.0834  0.4119
  779MOL0     C 5044   6.297  10.316   4.501 -1.0520 -0.2349  0.7173
  779MOL0     C 5045   6.235  10.196   4.575  0.4928 -0.1486 -0.7558
  779MOL0     C 5046   6.254  10.193   4.729 -0.6108  0.9372  0.1859
  779MOL0     N 5047   6.130  10.138   4.802  0.7474  0.4443  0.8437
  779MOL0     C 5048   6.050  10.215   4.885 -0.2235 -0.1791 -0.1694
  779MOL0     C 5049   5.933  10.150   4.885  0.8122 -0.3538 -0.1131
  779MOL0     C 5050   5.817  10.205   4.970 -0.3826 -0.6577  0.0837
  779MOL0     C 5051   5.763  10.128   5.084  0.3796  0.1080 -0.8839
  779MOL0     C 5052   5.868  10.066   5.169 -0.3059  0.4506 -0.0694
  779MOL0     C 5053   5.963  10.162   5.241  0.1397 -0.2126 -1.1803
  779MOL0     O 5054   5.994  10.100   5.362  0.4800 -1.4202 -0.5032
  779MOL0     C 5055   6.116  10.121   5.424 -0.2319  0.6386 -0.4516
  779MOL0     C 5056   6.231  10.189   5.381 -0.1022 -0.6299  0.1017
  779MOL0     C 5057   6.334  10.208   5.469 -0.4380  0.2185  0.1173
  779MOL0     C 5058   6.464  10.272   5.410 -0.2907  0.1850  1.1330
  779MOL0     C 5059   6.337  10.146   5.605  0.5952  0.1281  0.2220
  779MOL0     C 5060   6.455  10.160   5.695  0.1475 -0.1034 -0.8115
  779MOL0     O 5061   6.531  10.278   5.686  0.4670  0.1625  0.1830
  779MOL0     C 5062   6.656  10.273   5.749  0.6940 -0.6209  0.2290
  779MOL0     C 5063   6.757  10.177   5.730  0.0865 -0.0906 -0.9550
  779MOL0     C 5064   6.880  10.186   5.794 -0.2699  0.0228  0.5463
  779MOL0     C 5065   6.914  10.305   5.865 -0.1185  0.5605  0.2420
  779MOL0     O 5066   7.049  10.301   5.906 -0.3331  0.2544 -0.2614
  779MOL0     C 5067   7.101  10.423   5.974  0.1246  0.8118  0.8601
  779MOL0     C 5068   7.203  10.378   6.075  0.6767 -0.9218 -1.0222
  779MOL0     C 5069   7.134  10.299   6.193 -0.0773 -0.1231  0.4125
  779MOL0     C 5070   7.223  10.259   6.311  0.3211 -0.7006  0.3838
  779MOL0     C 5071   7.275  10.381   6.374 -0.9776 -0.6403  0.3521
  779MOL0     C 5072   7.344  10.349   6.505  0.2676  0.0506  0.0453
  779MOL0     C 5073   7.241  10.361   6.625 -0.0612 -0.0746  0.0638
  779MOL0     C 5074   7.294  10.454   6.730  0.6205 -0.2778 -0.3684
  779MOL0    Cl 5075   7.299  10.374   6.882 -0.1054 -0.1372 -0.0748
  779MOL0     C 5076   6.815  10.396   5.883 -0.5462 -0.0078  0.0951
  779MOL0     C 5077   6.688  10.384   5.828 -0.5252 -0.2324 -0.9667
  779MOL0     O 5078   6.478  10.077   5.790 -0.0039 -0.1802  0.0857
  779MOL0     C 5079   6.226  10.060   5.633  0.2213 -0.7262 -0.8121
  779MOL0     C 5080   6.121  10.052   5.546  0.0158 -0.3646 -0.7548
  779MOL0     N 5081   5.940  10.026   4.814 -1.1557 -0.2491  0.9105
  779MOL0     N 5082   6.059  10.033   4.762 -0.6411 -0.5092  0.0877
  779MOL0     C 5083   5.899  10.311   3.807 -0.3961  0.0854 -0.1081
  779MOL0     C 5084   5.773  10.243   3.789  0.0402  0.0468 -0.4240
  779MOL0     C 5085   5.469   9.983   3.932  0.8349  0.1279 -0.3125
  779MOL0     C 5086   5.503   9.855   3.961 -0.6751  0.4855  0.9512
  779MOL0     C 5087   5.410   9.758   3.926  0.6746  0.8472 -0.4548
  779MOL0     C 5088   5.283   9.777   3.872  0.3186 -0.3917  0.1771
  779MOL0     O 5089   5.209   9.669   3.845  0.3566  0.1725  0.8139
  779MOL0     C 5090   5.104   9.669   3.751 -0.1628 -0.8890  0.2008
  779MOL0     C 5091   5.052   9.524   3.749  1.0506 -0.2531 -1.0049
  779MOL0     C 5092   5.146   9.418   3.695 -1.7355  0.1464  0.6059
  779MOL0     C 5093   5.215   9.447   3.560  0.7902  0.8294 -0.1012
  779MOL0     C 5094   5.103   9.450   3.461 -0.9728  0.2655 -0.3072
  779MOL0     C 5095   5.027   9.433   3.374 -1.0861 -0.3401  0.8760
  779MOL0     C 5096   5.243   9.913   3.855 -0.3427  0.5219  0.3128
  779MOL0     C 5097   5.336  10.011   3.885 -0.3917 -0.2976 -0.7152
  779MOL0     H 5098   5.589  10.421   4.015  0.6337  2.5096 -0.4860
  779MOL0     H 5099   5.790  10.546   4.029  0.6631 -0.3747 -0.2137
  779MOL0     H 5100   6.138  10.342   3.862  1.1038  0.7346 -1.1520
  779MOL0     H 5101   6.215  10.495   3.900 -0.8297  0.8133  0.1376
  779MOL0     H 5102   6.086  10.463   4.148 -0.9518 -4.1971  3.8206
  779MOL0     H 5103   6.103  10.295   4.109 -0.3506  0.1091 -0.6248
  779MOL0     H 5104   6.333  10.315   4.063  1.6867  0.2724  1.8478
  779MOL0     H 5105   6.317  10.494   4.063  1.4900 -0.9453 -1.4689
  779MOL0     H 5106   6.433  10.401   4.279 -0.4638 -0.8310 -3.0407
  779MOL0     H 5107   6.282  10.500   4.313 -2.5937 -1.4033  2.5180
  779MOL0     H 5108   6.152  10.289   4.343 -0.1077  1.1085  0.4730
  779MOL0     H 5109   6.315  10.209   4.312  0.9557  0.6658  0.5196
  779MOL0     H 5110   6.406  10.321   4.509 -0.5973 -0.0621 -3.4990
  779MOL0     H 5111   6.247  10.406   4.537 -1.0688 -0.4565  1.2543
  779MOL0     H 5112   6.127  10.207   4.558  0.8932  0.6605 -3.1214
  779MOL0     H 5113   6.266  10.102   4.527 -0.3675  1.1676 -4.1884
  779MOL0     H 5114   6.283  10.285   4.781  3.2930 -0.4802  0.8542
  779MOL0     H 5115   6.333  10.123   4.755 -0.1206  2.0991  1.9935
  779MOL0     H 5116   6.078  10.304   4.940  0.4909 -0.5678  0.1012
  779MOL0     H 5117   5.841  10.308   4.997  0.0085 -1.4025  2.8982
  779MOL0     H 5118   5.734  10.214   4.899  0.4238  0.9306 -0.7009
  779MOL0     H 5119   5.698  10.049   5.046 -0.2222 -0.6727  1.5616
  779MOL0     H 5120   5.701  10.185   5.154 -2.9617 -0.6898 -2.9798
  779MOL0     H 5121   5.932   9.999   5.111  0.6046  2.5581 -1.6588
  779MOL0     H 5122   5.829  10.015   5.257  3.1102 -0.3441  1.1419
  779MOL0     H 5123   5.923  10.263   5.257  1.5423  1.1216 -4.9798
  779MOL0     H 5124   6.052  10.172   5.179 -2.4180  0.9752 -5.0381
  779MOL0     H 5125   6.242  10.232   5.283  0.4749  1.1129  0.8887
  779MOL0     H 5126   6.555  10.218   5.437  1.7704  3.7851  2.0935
  779MOL0     H 5127   6.470  10.275   5.301 -1.5759 -0.4923  1.0198
  779MOL0     H 5128   6.469  10.374   5.450  1.3424  1.3559 -1.7406
  779MOL0     H 5129   6.739  10.094   5.663  3.0371 -1.4846 -0.2069
  779MOL0     H 5130   6.948  10.103   5.779  1.2176  0.9558  1.7976
  779MOL0     H 5131   7.142  10.484   5.892 -0.1724 -0.1159  0.0023
  779MOL0     H 5132   7.023  10.476   6.029 -0.7587 -0.9203  1.3299
  779MOL0     H 5133   7.276  10.305   6.038 -0.4254 -2.2450 -0.6754
  779MOL0     H 5134   7.253  10.471   6.104 -0.9830  0.4671 -2.3475
  779MOL0     H 5135   7.102  10.202   6.153 -2.2824  0.5999  0.3388
  779MOL0     H 5136   7.044  10.351   6.225  0.1694  1.2205 -1.0039
  779MOL0     H 5137   7.151  10.214   6.380 -2.0270  0.0138 -1.4704
  779MOL0     H 5138   7.306  10.190   6.292  0.9936  0.1960 -0.0156
  779MOL0     H 5139   7.194  10.453   6.384 -1.2289 -1.0231  1.2216
  779MOL0     H 5140   7.349  10.425   6.306 -0.2947  0.7149  1.9083
  779MOL0     H 5141   7.381  10.246   6.515  1.1482  0.6254  4.9785
  779MOL0     H 5142   7.432  10.412   6.515 -0.3938  0.8654  0.8696
  779MOL0     H 5143   7.237  10.261   6.670  4.6348 -0.8223 -0.7092
  779MOL0     H 5144   7.139  10.386   6.592 -0.0435  1.3338  0.9957
  779MOL0     H 5145   7.228  10.541   6.743  2.7300  1.4775 -0.8601
  779MOL0     H 5146   7.387  10.504   6.703 -0.8021  2.4930 -0.5180
  779MOL0     H 5147   6.836  10.486   5.941 -2.3510  1.2003 -1.0441
  779MOL0     H 5148   6.620  10.468   5.839 -0.1988 -0.0561 -0.2417
  779MOL0     H 5149   6.239  10.017   5.732  0.7532  3.1220  0.9588
  779MOL0     H 5150   6.045   9.976   5.564  2.1974 -2.5845 -0.3878
  779MOL0     H 5151   5.987  10.282   3.752  1.0698  1.8446  1.1694
  779MOL0     H 5152   5.764  10.159   3.722  4.3130 -2.3945  1.6769
  779MOL0     H 5153   5.601   9.816   3.986  0.3051  1.7292 -0.7463
  779MOL0     H 5154   5.422   9.653   3.951 -4.0807 -0.9462 -4.0781
  779MOL0     H 5155   5.018   9.732   3.772 -0.1105  0.7240 -3.6327
  779MOL0     H 5156   5.134   9.705   3.652 -1.9972 -2.0788 -0.8515
  779MOL0     H 5157   4.967   9.534   3.681  0.2036  2.8939  0.3192
  779MOL0     H 5158   5.018   9.491   3.848 -0.2957  3.0008 -0.2365
  779MOL0     H 5159   5.096   9.321   3.701 -1.0451 -0.2785 -0.2810
  779MOL0     H 5160   5.223   9.392   3.769 -0.6611 -0.1989 -0.5963
  779MOL0     H 5161   5.274   9.360   3.531 -1.2448 -0.5115 -0.4656
  779MOL0     H 5162   5.284   9.531   3.566  1.4706  0.2826 -0.1872
  779MOL0     H 5163   4.950   9.418   3.301  0.9021  0.8974 -1.6206
  779MOL0     H 5164   5.149   9.943   3.809 -1.6604  0.7432  2.9573
  779MOL0     H 5165   5.315  10.114   3.858 -0.4047 -0.1048  0.0124
  780MOL0     O 5166   9.710   5.080   8.471 -1.0491 -0.5684  0.8450
  780MOL0     C 5167   9.690   4.973   8.530  0.2816 -0.3338 -0.1063
  780MOL0     O 5168   9.579   4.894   8.515  0.9492  0.0753 -0.2003
  780MOL0     C 5169   9.493   4.904   8.406  0.0203 -1.0226  0.2216
  780MOL0     C 5170   9.544   4.893   8.271 -0.4078  0.4579 -0.0301
  780MOL0     C 5171   9.456   4.915   8.162  0.1595  0.1175 -0.1663
  780MOL0     C 5172   9.316   4.946   8.190  1.3089  0.6056 -0.2751
  780MOL0     O 5173   9.234   4.958   8.077 -0.3059  0.8881  0.2158
  780MOL0     C 5174   9.144   5.061   8.077 -0.2888  0.2299  0.5695
  780MOL0     C 5175   9.014   4.999   8.039  1.0833  0.6156 -0.1829
  780MOL0     C 5176   8.968   4.895   8.139  0.1402  1.2389 -1.3156
  780MOL0     C 5177   8.824   4.828   8.119 -0.5256  0.0187  0.1190
  780MOL0     C 5178   8.764   4.744   8.230 -0.0713  0.6593 -1.7066
  780MOL0     C 5179   8.847   4.623   8.265  0.2588 -0.1811  1.1551
  780MOL0     C 5180   8.824   4.557   8.405 -0.2137  0.1801 -0.1407
  780MOL0     C 5181   8.720   4.442   8.382 -0.0932 -0.7734  0.3857
  780MOL0     N 5182   8.677   4.392   8.512 -0.0526 -1.1971  0.8463
  780MOL0     C 5183   8.768   4.346   8.614  0.2175  0.7494 -0.0188
  780MOL0     C 5184   8.691   4.259   8.684  0.1641 -0.3965 -0.2918
  780MOL0     C 5185   8.731   4.190   8.807  0.6066  0.2264 -0.1356
  780MOL0     C 5186   8.869   4.226   8.870  0.4007 -0.3776  0.3331
  780MOL0     C 5187   8.986   4.141   8.818  0.2592 -0.0734 -0.0845
  780MOL0     C 5188   9.118   4.182   8.839  0.5267 -0.5262  0.3807
  780MOL0     O 5189   9.128   4.319   8.791 -0.1008  0.1074  0.0025
  780MOL0     C 5190   9.147   4.341   8.658 -0.1187 -0.3366  0.6145
  780MOL0     C 5191   9.165   4.475   8.621 -0.1426  0.0372  0.7205
  780MOL0     C 5192   9.203   4.508   8.495  0.5588  0.3987  0.3216
  780MOL0     C 5193   9.255   4.648   8.483  0.0275 -0.5913  0.2682
  780MOL0     C 5194   9.201   4.417   8.389  0.0695 -0.2375  0.1086
  780MOL0     C 5195   9.250   4.455   8.252  0.0085 -1.2813 -0.4624
  780MOL0     O 5196   9.359   4.534   8.231 -0.3805 -0.6712 -0.5660
  780MOL0     C 5197   9.409   4.560   8.105 -1.2885 -0.1535 -0.1723
  780MOL0     C 5198   9.333   4.583   7.988  0.6539 -0.6627  0.6326
  780MOL0     C 5199   9.400   4.596   7.865  0.0424  0.5765 -0.3982
  780MOL0     C 5200   9.545   4.597   7.854  0.6968  0.4986  0.2131
  780MOL0     O 5201   9.618   4.622   7.746  0.5304  0.5663  0.4285
  780MOL0     C 5202   9.655   4.515   7.659 -0.1462 -0.1544  0.5449
  780MOL0     C 5203   9.538   4.452   7.570  0.0708 -0.4647 -0.5545
  780MOL0     C 5204   9.580   4.408   7.432 -0.2244 -0.5904  0.4302
  780MOL0     C 5205   9.473   4.333   7.347  0.1867  0.7954  0.2012
  780MOL0     C 5206   9.541   4.266   7.225  0.3824 -0.2205 -0.0848
  780MOL0     C 5207   9.437   4.194   7.127 -0.8767 -0.4684  1.1052
  780MOL0     C 5208   9.356   4.089   7.194 -0.1075  0.0596 -0.6199
  780MOL0     C 5209   9.307   3.978   7.118  0.7499 -0.2360 -0.3206
  780MOL0    Cl 5210   9.433   3.873   7.044  0.6557 -0.0022  0.0719
  780MOL0     C 5211   9.612   4.574   7.969 -0.0862  0.6847 -0.0034
  780MOL0     C 5212   9.548   4.549   8.091 -0.2255  0.7387 -0.6042
  780MOL0     O 5213   9.194   4.395   8.170  0.1117 -0.8176  0.3837
  780MOL0     C 5214   9.176   4.283   8.410  0.4681 -0.0492 -0.2556
  780MOL0     C 5215   9.150   4.249   8.551  0.0204  0.0603 -0.0887
  780MOL0     N 5216   8.563   4.259   8.632 -0.3003 -0.3318 -0.2242
  780MOL0     N 5217   8.559   4.338   8.533 -1.4783 -0.2370 -0.3079
  780MOL0     C 5218   9.275   4.962   8.318 -0.3008 -0.6730  0.4968
  780MOL0     C 5219   9.358   4.939   8.425 -0.0566  0.0904 -0.4677
  780MOL0     C 5220   9.780   4.930   8.634  0.3829  0.4093 -0.4915
  780MOL0     C 5221   9.899   5.004   8.670  1.0578  0.2098  0.8191
  780MOL0     C 5222  10.008   4.943   8.743  0.7826 -0.3655 -1.0836
  780MOL0     C 5223   9.977   4.820   8.807  1.3227  0.4262  0.8915
  780MOL0     O 5224  10.070   4.777   8.902  0.7938  0.0691  0.2299
  780MOL0     C 5225  10.041   4.661   8.981 -0.1866 -0.2119  0.7929
  780MOL0     C 5226   9.928   4.691   9.083 -0.2081  0.0882  0.3985
  780MOL0     C 5227   9.849   4.560   9.113 -0.4746 -0.3833  0.8532
  780MOL0     C 5228   9.937   4.449   9.167 -0.0894  0.2356  0.3421
  780MOL0     C 5229   9.857   4.330   9.182 -1.0997  0.1177 -0.0479
  780MOL0     C 5230   9.782   4.236   9.205  1.5961 -0.6627  0.4237
  780MOL0     C 5231   9.865   4.753   8.773 -0.4472 -0.8159  0.6383
  780MOL0     C 5232   9.767   4.805   8.693  0.1094  0.2345 -0.1585
  780MOL0     H 5233   9.647   4.862   8.256 -0.9702 -1.5968  0.0505
  780MOL0     H 5234   9.482   4.905   8.058 -1.5965 -2.3034 -0.4383
  780MOL0     H 5235   9.136   5.127   8.164 -0.5792 -1.5986  1.9685
  780MOL0     H 5236   9.167   5.124   7.990  0.6891 -0.5046  0.2752
  780MOL0     H 5237   8.940   5.080   8.033  0.7092  0.4877  1.8762
  780MOL0     H 5238   9.013   4.949   7.941 -3.2212 -0.7588  0.3456
  780MOL0     H 5239   9.036   4.809   8.136 -1.2533 -0.0040  0.5888
  780MOL0     H 5240   8.968   4.938   8.239 -1.4603  3.0525 -2.0313
  780MOL0     H 5241   8.750   4.904   8.094 -0.7480 -0.9623 -2.6076
  780MOL0     H 5242   8.826   4.760   8.033  0.4059  1.4826 -1.0593
  780MOL0     H 5243   8.765   4.797   8.325 -0.0323 -1.6100 -0.3668
  780MOL0     H 5244   8.667   4.696   8.214 -1.0611 -0.6601  5.2232
  780MOL0     H 5245   8.824   4.549   8.188 -2.7359  0.5023  1.2911
  780MOL0     H 5246   8.953   4.651   8.255 -0.6940  2.9487 -1.9765
  780MOL0     H 5247   8.918   4.508   8.435 -1.8510 -4.1662 -1.3159
  780MOL0     H 5248   8.793   4.629   8.481  2.2712  1.3826 -0.1585
  780MOL0     H 5249   8.772   4.362   8.328  0.5258 -0.1101 -0.0167
  780MOL0     H 5250   8.637   4.480   8.321 -0.7280 -0.5414  1.3758
  780MOL0     H 5251   8.870   4.371   8.642  0.1534 -1.0837  2.1622
  780MOL0     H 5252   8.645   4.220   8.867 -2.1020 -0.7503 -3.2235
  780MOL0     H 5253   8.727   4.082   8.791 -1.8784  0.1850  0.3084
  780MOL0     H 5254   8.864   4.214   8.979  3.9743 -2.4454  0.4145
  780MOL0     H 5255   8.895   4.330   8.846  1.5249 -0.8763 -0.6818
  780MOL0     H 5256   8.966   4.135   8.710 -4.4773 -1.7727  0.6550
  780MOL0     H 5257   8.971   4.036   8.845 -2.3333  0.0757 -0.7055
  780MOL0     H 5258   9.194   4.118   8.795 -1.7453 -2.5016 -0.9186
  780MOL0     H 5259   9.121   4.172   8.948  0.4823 -0.1540  0.4162
  780MOL0     H 5260   9.165   4.551   8.699 -0.6473  0.7978 -0.0086
  780MOL0     H 5261   9.179   4.711   8.437  1.0776  0.4881 -0.0434
  780MOL0     H 5262   9.265   4.704   8.576  2.2178  0.6704 -0.6446
  780MOL0     H 5263   9.348   4.663   8.426 -0.8568  0.7733 -0.8660
  780MOL0     H 5264   9.225   4.594   7.982  0.9389  2.2678 -0.6073
  780MOL0     H 5265   9.349   4.594   7.769  0.0672 -3.5792 -0.4983
  780MOL0     H 5266   9.728   4.558   7.591  2.1337 -2.1688  1.5349
  780MOL0     H 5267   9.710   4.439   7.716  0.0753 -0.6613 -0.3345
  780MOL0     H 5268   9.503   4.358   7.613 -0.5384  0.7756  1.8531
  780MOL0     H 5269   9.453   4.520   7.557  0.1870 -0.0510  0.7023
  780MOL0     H 5270   9.659   4.336   7.457  0.5358  0.6774  1.8833
  780MOL0     H 5271   9.617   4.496   7.378 -3.0607 -1.1674 -2.7856
  780MOL0     H 5272   9.435   4.247   7.402  0.8756  0.9724  0.9897
  780MOL0     H 5273   9.396   4.406   7.321  2.1414  2.9825  0.1808
  780MOL0     H 5274   9.615   4.194   7.260 -0.8240 -1.0213  0.8756
  780MOL0     H 5275   9.593   4.339   7.162 -0.1347 -0.4610 -0.8002
  780MOL0     H 5276   9.361   4.261   7.085 -1.5498 -0.2884  2.5556
  780MOL0     H 5277   9.500   4.151   7.049 -2.3864 -0.6107 -0.0838
  780MOL0     H 5278   9.269   4.136   7.241  1.2706 -0.5837  2.8582
  780MOL0     H 5279   9.403   4.052   7.285 -2.7961  2.7341  2.1185
  780MOL0     H 5280   9.238   4.016   7.042 -0.2337  0.7177  1.0278
  780MOL0     H 5281   9.248   3.913   7.182 -0.0795 -3.0136 -3.5649
  780MOL0     H 5282   9.720   4.566   7.956  0.0126  0.9442  0.6227
  780MOL0     H 5283   9.610   4.536   8.179  0.7289 -0.4221 -1.4086
  780MOL0     H 5284   9.183   4.214   8.327 -1.2936  1.6683 -1.9323
  780MOL0     H 5285   9.136   4.141   8.555  1.1557 -0.0995 -0.3184
  780MOL0     H 5286   9.175   4.997   8.344 -0.4404 -2.4226  2.5757
  780MOL0     H 5287   9.325   4.971   8.523  1.1854  0.2699 -0.0899
  780MOL0     H 5288   9.903   5.110   8.649 -3.0666  0.8188  2.1891
  780MOL0     H 5289  10.094   5.003   8.769  0.0476  2.1152 -3.8206
  780MOL0     H 5290  10.012   4.581   8.912 -3.3499 -0.4006  2.1478
  780MOL0     H 5291  10.127   4.620   9.035  0.2733 -1.6625 -0.9486
  780MOL0     H 5292   9.852   4.752   9.033 -1.9529 -2.8938 -0.8356
  780MOL0     H 5293   9.974   4.736   9.171  1.7310 -2.1241  0.5970
  780MOL0     H 5294   9.801   4.535   9.017  0.5412  0.3319  0.1343
  780MOL0     H 5295   9.768   4.588   9.181 -1.4192  1.0713 -0.7634
  780MOL0     H 5296   9.953   4.481   9.271 -1.2903 -0.0854  0.6335
  780MOL0     H 5297  10.024   4.430   9.103  0.7306 -1.3473  1.8466
  780MOL0     H 5298   9.713   4.156   9.224 -2.7399  2.8360  1.0782
  780MOL0     H 5299   9.847   4.657   8.822  0.6232 -1.6391 -0.5005
  780MOL0     H 5300   9.677   4.746   8.681  0.1555 -0.8474  3.4679
  781MOL0     O 5301   0.501  10.826  10.617  0.1316  0.8245 -0.0110
  781MOL0     C 5302   0.390  10.781  10.583  0.6151  0.1987  0.5371
  781MOL0     O 5303   0.259  10.825  10.627  0.1450 -0.4879  0.2763
  781MOL0     C 5304   0.229  10.906  10.730  0.5926  0.0230  0.3227
  781MOL0     C 5305   0.297  10.887  10.847  0.3520  0.3075 -0.0197
  781MOL0     C 5306   0.266  10.962  10.962  1.0779 -0.3115  0.0319
  781MOL0     C 5307   0.164  11.060  10.965 -0.5928 -0.4148  0.0778
  781MOL0     O 5308   0.147  11.124  11.078 -0.6094 -0.3700  0.0173
  781MOL0     C 5309   0.236  11.242  11.080  0.2365 -0.0765 -0.6435
  781MOL0     C 5310   0.159  11.360  11.031  0.1246 -0.5898 -0.3142
  781MOL0     C 5311   0.255  11.481  11.027 -0.1473 -0.1153  0.4248
  781MOL0     C 5312   0.288  11.519  11.168 -0.9075 -0.3814  0.0601
  781MOL0     C 5313   0.394  11.626  11.158  0.3177 -0.6543 -0.4589
  781MOL0     C 5314   0.432  11.667  11.301 -0.1053 -0.3491  0.1884
  781MOL0     C 5315   0.558  11.759  11.290 -0.0383  0.6356  0.5316
  781MOL0     C 5316   0.525  11.901  11.230  0.2188 -0.3903  0.2269
  781MOL0     N 5317   0.645  11.988  11.211 -0.8091 -0.0834 -1.0526
  781MOL0     C 5318   0.735  12.020  11.307  0.2518  0.2879  1.4955
  781MOL0     C 5319   0.825  12.103  11.236  0.0942 -0.0838  0.3856
  781MOL0     C 5320   0.951  12.154  11.299  0.2032  0.2806  0.3014
  781MOL0     C 5321   1.080  12.090  11.247  0.0750 -0.3567 -1.0964
  781MOL0     C 5322   1.071  11.938  11.245 -0.0712 -0.5735  0.7412
  781MOL0     C 5323   1.191  11.856  11.187  0.2723 -0.5286 -0.0994
  781MOL0     O 5324   1.292  11.860  11.290 -0.1995  0.3665 -0.5317
  781MOL0     C 5325   1.415  11.821  11.258 -0.6122  0.1543 -0.2672
  781MOL0     C 5326   1.532  11.896  11.288  0.3950  1.2373  0.4455
  781MOL0     C 5327   1.662  11.843  11.291  0.0472 -0.9986 -1.0124
  781MOL0     C 5328   1.774  11.945  11.321 -0.2588 -0.4073  0.8681
  781MOL0     C 5329   1.686  11.709  11.255 -0.6093 -0.7970  0.0491
  781MOL0     C 5330   1.821  11.641  11.279 -0.3916  0.3326  0.6544
  781MOL0     O 5331   1.924  11.704  11.337 -0.9674 -0.6695 -1.0950
  781MOL0     C 5332   2.049  11.663  11.310 -0.1938 -0.0169 -0.9594
  781MOL0     C 5333   2.138  11.641  11.421 -0.4094  0.4638 -0.0805
  781MOL0     C 5334   2.266  11.593  11.403 -0.0045 -0.3580 -0.9194
  781MOL0     C 5335   2.322  11.580  11.280 -0.2726 -0.6518  0.2692
  781MOL0     O 5336   2.456  11.544  11.275 -0.6183  0.2068  0.6601
  781MOL0     C 5337   2.529  11.525  11.154  0.3641 -0.0214 -0.7937
  781MOL0     C 5338   2.614  11.402  11.175 -0.2747  0.4741  0.3021
  781MOL0     C 5339   2.674  11.369  11.037  0.5367  0.1137 -0.2585
  781MOL0     C 5340   2.815  11.314  11.061  0.1438 -0.5442 -0.5880
  781MOL0     C 5341   2.844  11.207  10.956  0.7132  1.3748  0.4309
  781MOL0     C 5342   3.000  11.180  10.957  0.6734 -0.7116  0.8600
  781MOL0     C 5343   3.055  11.097  11.075  0.5386  0.5590 -0.2020
  781MOL0     C 5344   3.038  10.948  11.070 -1.2494 -0.3075  0.1465
  781MOL0    Cl 5345   3.152  10.893  10.946  0.1036 -0.3149 -0.5408
  781MOL0     C 5346   2.236  11.606  11.171  0.2004  0.6730  0.6016
  781MOL0     C 5347   2.097  11.646  11.185  0.5149 -0.6017  0.0304
  781MOL0     O 5348   1.818  11.522  11.255 -0.0095  0.3955  0.3752
  781MOL0     C 5349   1.574  11.635  11.222  0.3312 -0.2546  0.5114
  781MOL0     C 5350   1.444  11.692  11.222  0.0560  0.0975  0.4430
  781MOL0     N 5351   0.784  12.132  11.111  0.3278  0.3368  0.0353
  781MOL0     N 5352   0.673  12.058  11.099  0.5898  0.7386 -0.2787
  781MOL0     C 5353   0.104  11.089  10.839 -0.9814  0.9190 -0.1191
  781MOL0     C 5354   0.141  11.016  10.723 -1.0398  0.0824  0.4249
  781MOL0     C 5355   0.390  10.680  10.475 -0.3588 -0.1200  0.1951
  781MOL0     C 5356   0.271  10.620  10.421 -0.5437 -0.3822  0.1190
  781MOL0     C 5357   0.279  10.512  10.332  0.1746  0.0147  0.5109
  781MOL0     C 5358   0.390  10.464  10.282  0.0241  0.3284  0.4321
  781MOL0     O 5359   0.402  10.352  10.204 -0.3036  0.8063 -0.6921
  781MOL0     C 5360   0.309  10.329  10.097 -0.0750  0.1176  0.2635
  781MOL0     C 5361   0.280  10.182  10.087 -0.8953 -0.3595 -1.1124
  781MOL0     C 5362   0.419  10.103  10.062 -1.5379 -0.0059 -0.4533
  781MOL0     C 5363   0.395   9.958  10.052 -0.4815 -0.5741  0.8245
  781MOL0     C 5364   0.331   9.903  10.168 -0.3221  0.2213  0.3534
  781MOL0     C 5365   0.260   9.862  10.261  1.0525  0.2258  0.4286
  781MOL0     C 5366   0.509  10.524  10.327 -0.1019 -0.6305 -0.0915
  781MOL0     C 5367   0.512  10.628  10.424  0.0491 -0.3380 -0.4421
  781MOL0     H 5368   0.368  10.806  10.862 -1.2762 -0.8446  2.0946
  781MOL0     H 5369   0.332  10.944  11.045 -1.7114  0.0143  2.5027
  781MOL0     H 5370   0.276  11.258  11.180 -0.9663  2.9275 -0.5183
  781MOL0     H 5371   0.330  11.224  11.028  0.5239 -0.1044 -0.1170
  781MOL0     H 5372   0.114  11.339  10.933  2.7467 -2.3850 -1.2474
  781MOL0     H 5373   0.076  11.382  11.099  1.5049  1.4282  0.7821
  781MOL0     H 5374   0.353  11.464  10.980  1.6331  2.1762  3.0156
  781MOL0     H 5375   0.208  11.556  10.962  1.1247 -1.9237 -2.8412
  781MOL0     H 5376   0.200  11.553  11.222 -0.1546  0.9970  0.4679
  781MOL0     H 5377   0.348  11.444  11.220  2.7384  1.9054 -0.4384
  781MOL0     H 5378   0.486  11.583  11.118  1.6404  0.6951  0.9763
  781MOL0     H 5379   0.358  11.705  11.091  0.8500 -0.1326 -0.1383
  781MOL0     H 5380   0.354  11.725  11.351 -0.3726  0.2542 -0.9184
  781MOL0     H 5381   0.445  11.575  11.361 -2.6903  0.2191  1.7601
  781MOL0     H 5382   0.580  11.760  11.398 -3.8534 -0.6703  1.4991
  781MOL0     H 5383   0.635  11.704  11.236 -0.0408  0.0693  1.0896
  781MOL0     H 5384   0.452  11.951  11.294 -0.4204  0.2521 -0.9863
  781MOL0     H 5385   0.475  11.886  11.134  0.9653 -3.2473  0.1842
  781MOL0     H 5386   0.743  11.982  11.409  3.6367 -0.8251  0.9426
  781MOL0     H 5387   0.955  12.264  11.302  0.2454  0.2624  1.4751
  781MOL0     H 5388   0.948  12.115  11.401 -0.3304 -1.9602 -0.5103
  781MOL0     H 5389   1.163  12.120  11.310 -1.6093  3.3679 -0.4121
  781MOL0     H 5390   1.081  12.116  11.141  1.8908  0.7017 -0.8505
  781MOL0     H 5391   0.983  11.909  11.188  1.6569 -0.3890 -2.2334
  781MOL0     H 5392   1.048  11.917  11.350  1.0994 -0.8597  0.9612
  781MOL0     H 5393   1.243  11.893  11.098  2.9400 -0.0007  1.5672
  781MOL0     H 5394   1.159  11.752  11.174 -1.4600  0.1007 -1.2193
  781MOL0     H 5395   1.516  12.003  11.299  1.2129  1.7432 -2.3318
  781MOL0     H 5396   1.838  11.949  11.231  0.3778 -1.1351  1.2704
  781MOL0     H 5397   1.741  12.048  11.339 -0.0933  0.0254 -1.0332
  781MOL0     H 5398   1.830  11.912  11.408  0.2150  1.2991  1.2485
  781MOL0     H 5399   2.103  11.652  11.523  1.0650 -0.3608  0.5411
  781MOL0     H 5400   2.325  11.556  11.486  1.3046  0.9081 -1.2467
  781MOL0     H 5401   2.457  11.499  11.077  0.1122  1.3824 -1.0423
  781MOL0     H 5402   2.587  11.616  11.138  1.9978 -0.7774  0.4555
  781MOL0     H 5403   2.682  11.442  11.251 -4.0913  1.8008  3.3853
  781MOL0     H 5404   2.567  11.313  11.218  3.0741 -1.7148 -0.1981
  781MOL0     H 5405   2.676  11.458  10.973  1.6968  0.0832 -0.2819
  781MOL0     H 5406   2.615  11.301  10.975  2.2335 -1.2243 -0.5067
  781MOL0     H 5407   2.886  11.398  11.058  1.4367 -1.6282 -1.8231
  781MOL0     H 5408   2.832  11.266  11.158 -0.2063 -2.8678 -1.6124
  781MOL0     H 5409   2.825  11.233  10.851  2.6830  3.3945  0.5017
  781MOL0     H 5410   2.786  11.115  10.973  3.3953 -0.4751  0.2554
  781MOL0     H 5411   3.022  11.130  10.862  0.9898 -2.3474  1.7546
  781MOL0     H 5412   3.043  11.281  10.960  0.0784 -0.4701  1.6108
  781MOL0     H 5413   3.003  11.129  11.166  0.4373 -1.1209  0.3621
  781MOL0     H 5414   3.161  11.123  11.090  0.9534  0.6500 -2.7585
  781MOL0     H 5415   2.935  10.914  11.053 -1.0162 -0.4297 -1.1401
  781MOL0     H 5416   3.062  10.893  11.161 -2.2063 -1.4919 -0.2905
  781MOL0     H 5417   2.250  11.580  11.066  0.3798 -2.1505  1.2497
  781MOL0     H 5418   2.042  11.655  11.092  0.5195 -1.5677 -0.0701
  781MOL0     H 5419   1.581  11.528  11.207  0.3590 -0.1835 -0.0025
  781MOL0     H 5420   1.373  11.613  11.200  1.1581 -0.3397 -1.7938
  781MOL0     H 5421   0.013  11.147  10.839 -3.6792 -2.8608 -1.7192
  781MOL0     H 5422   0.093  11.046  10.630  1.1298 -0.0634 -0.7911
  781MOL0     H 5423   0.176  10.658  10.457  0.8130  3.2181  0.2745
  781MOL0     H 5424   0.187  10.471  10.291 -0.2288  1.0512  0.3437
  781MOL0     H 5425   0.217  10.387  10.102 -1.5226 -2.0383  0.1182
  781MOL0     H 5426   0.357  10.350  10.001 -0.4104  0.5877  0.1941
  781MOL0     H 5427   0.217  10.160  10.000 -0.4977 -0.4391 -1.3823
  781MOL0     H 5428   0.209  10.149  10.163 -0.6256  0.8537 -0.3046
  781MOL0     H 5429   0.486  10.115  10.148 -2.9240  0.3033  0.6416
  781MOL0     H 5430   0.473  10.134   9.972 -1.4205 -2.5909 -1.3467
  781MOL0     H 5431   0.490   9.906  10.042  0.1385  0.7687 -0.9070
  781MOL0     H 5432   0.339   9.946   9.959  0.3289 -2.0870  0.5120
  781MOL0     H 5433   0.199   9.821  10.340 -0.0827  0.4785 -0.2943
  781MOL0     H 5434   0.600  10.487  10.280  0.2927 -0.4090  0.4834
  781MOL0     H 5435   0.607  10.678  10.437 -0.4750  1.3101 -2.4145
  782MOL0     O 5436   5.436   9.033   6.436 -0.5088 -0.4697 -0.5213
  782MOL0     C 5437   5.434   8.937   6.356 -0.3175 -1.2928  0.6174
  782MOL0     O 5438   5.543   8.868   6.304  0.0732  0.4288 -0.0520
  782MOL0     C 5439   5.668   8.906   6.337  0.4047  0.7591  0.3881
  782MOL0     C 5440   5.755   8.947   6.236 -0.2811 -0.2748 -0.7480
  782MOL0     C 5441   5.888   8.979   6.272 -0.3433  0.4990  1.0942
  782MOL0     C 5442   5.938   8.969   6.400  0.1171 -0.6036  0.5538
  782MOL0     O 5443   6.063   9.005   6.447 -0.7091  0.9237  0.8860
  782MOL0     C 5444   6.156   9.067   6.352  0.5340 -0.1784 -0.0271
  782MOL0     C 5445   6.302   9.064   6.410 -0.0405 -0.0388  0.7041
  782MOL0     C 5446   6.312   9.141   6.542  0.0240 -0.2314 -0.3707
  782MOL0     C 5447   6.449   9.099   6.602  0.4055 -0.1786 -0.2966
  782MOL0     C 5448   6.480   9.181   6.727 -0.5491  0.4807 -0.6427
  782MOL0     C 5449   6.621   9.154   6.789 -0.3291  0.9442  0.2323
  782MOL0     C 5450   6.629   9.237   6.920 -0.5370 -0.8786 -0.2041
  782MOL0     C 5451   6.784   9.259   6.964 -0.2683 -1.3284  0.8354
  782MOL0     N 5452   6.828   9.156   7.064  0.3924 -0.4403  0.1920
  782MOL0     C 5453   6.869   9.027   7.045 -0.8981  0.5843  1.0292
  782MOL0     C 5454   6.933   8.995   7.160  0.1490 -0.0488 -0.7442
  782MOL0     C 5455   7.016   8.867   7.179  0.4566  0.1250 -0.1548
  782MOL0     C 5456   6.938   8.758   7.239  0.8779  0.6621 -0.3104
  782MOL0     C 5457   7.025   8.633   7.277 -0.0313 -0.1186  0.6557
  782MOL0     C 5458   7.116   8.657   7.395  0.1592  0.1027 -1.0292
  782MOL0     O 5459   7.059   8.592   7.511  0.1523  0.0284 -0.3592
  782MOL0     C 5460   7.153   8.532   7.606  0.6527  0.0886  0.6787
  782MOL0     C 5461   7.285   8.574   7.632  0.7029 -0.0259 -0.1105
  782MOL0     C 5462   7.358   8.514   7.741 -0.8094 -0.2740 -0.0106
  782MOL0     C 5463   7.502   8.551   7.750 -0.2991  0.0061  0.9922
  782MOL0     C 5464   7.290   8.429   7.844 -0.2714 -0.7791  1.1260
  782MOL0     C 5465   7.337   8.372   7.966  0.6632  1.1446 -0.6893
  782MOL0     O 5466   7.268   8.272   8.027  0.0325  0.2141 -0.0784
  782MOL0     C 5467   7.281   8.261   8.158 -0.8007 -0.6186  0.5863
  782MOL0     C 5468   7.377   8.177   8.202 -1.4359  0.5283  0.7404
  782MOL0     C 5469   7.407   8.157   8.333  0.0284 -1.0049 -0.5302
  782MOL0     C 5470   7.326   8.230   8.422  0.2028  0.4340  0.4890
  782MOL0     O 5471   7.333   8.219   8.555  0.2705  0.1600  0.5780
  782MOL0     C 5472   7.363   8.090   8.610  0.1518 -0.2219 -0.1406
  782MOL0     C 5473   7.302   8.094   8.748 -0.1672  0.3861  0.9654
  782MOL0     C 5474   7.399   8.171   8.837  0.2093 -0.7026 -0.0001
  782MOL0     C 5475   7.334   8.181   8.978  0.3396  0.4577 -0.0668
  782MOL0     C 5476   7.420   8.270   9.079  0.2306  0.6978  0.1579
  782MOL0     C 5477   7.550   8.194   9.114 -0.6280  0.4125  0.2168
  782MOL0     C 5478   7.640   8.284   9.200 -0.2586 -0.5510 -0.7144
  782MOL0     C 5479   7.602   8.271   9.337  0.4983 -0.4704 -1.3482
  782MOL0    Cl 5480   7.673   8.395   9.439 -0.2196 -0.2353 -0.6762
  782MOL0     C 5481   7.221   8.313   8.378 -0.2482  0.3710 -0.0697
  782MOL0     C 5482   7.198   8.328   8.247  0.4332  0.3856  0.7898
  782MOL0     O 5483   7.429   8.430   8.020 -0.1075  0.0245  0.3710
  782MOL0     C 5484   7.154   8.397   7.812 -0.2713 -0.7974  0.6337
  782MOL0     C 5485   7.092   8.448   7.697 -0.0533  0.5960  1.1275
  782MOL0     N 5486   6.932   9.110   7.240  1.1863  0.2616 -0.3574
  782MOL0     N 5487   6.863   9.201   7.191  0.0945  0.7129  0.2546
  782MOL0     C 5488   5.846   8.927   6.502 -0.6932 -0.4967 -0.1698
  782MOL0     C 5489   5.712   8.900   6.470 -0.0217 -0.2655  0.2360
  782MOL0     C 5490   5.302   8.917   6.296 -0.6823 -0.8452  0.0677
  782MOL0     C 5491   5.190   8.976   6.356  0.5800 -0.2953 -0.2480
  782MOL0     C 5492   5.069   8.974   6.284  0.1367 -0.5549  1.2551
  782MOL0     C 5493   5.066   8.905   6.163 -0.0330  0.1849 -1.3755
  782MOL0     O 5494   4.963   8.903   6.082  0.2790 -0.5994 -0.2988
  782MOL0     C 5495   4.926   9.026   6.018 -0.9320  0.3834  0.8559
  782MOL0     C 5496   4.831   8.998   5.904  0.0893  0.1498  0.1161
  782MOL0     C 5497   4.875   8.911   5.784 -0.2002  0.3177  0.1854
  782MOL0     C 5498   4.779   8.786   5.753 -0.6179 -0.0393 -0.1835
  782MOL0     C 5499   4.821   8.723   5.638  0.3176 -0.1412 -1.0003
  782MOL0     C 5500   4.875   8.682   5.539 -0.3184 -0.2003  0.5711
  782MOL0     C 5501   5.173   8.844   6.112 -0.1388  0.2153 -0.0871
  782MOL0     C 5502   5.296   8.839   6.178  0.4777 -0.2306 -1.0332
  782MOL0     H 5503   5.729   8.951   6.131 -0.4107 -2.0709 -0.8112
  782MOL0     H 5504   5.949   9.017   6.190 -2.0048 -0.1193 -0.5068
  782MOL0     H 5505   6.157   9.006   6.261  2.1771 -1.8974  1.0652
  782MOL0     H 5506   6.124   9.171   6.338  0.5296 -0.5226 -3.7551
  782MOL0     H 5507   6.341   8.964   6.427  2.4144  0.7342  0.0161
  782MOL0     H 5508   6.364   9.124   6.342 -0.6173  1.1047  1.1487
  782MOL0     H 5509   6.311   9.250   6.531  3.9704  0.3042  2.3303
  782MOL0     H 5510   6.236   9.114   6.616 -0.8961 -0.2484 -1.3013
  782MOL0     H 5511   6.441   8.993   6.628  0.0308 -0.5094 -1.7266
  782MOL0     H 5512   6.530   9.124   6.533 -0.8141  0.8665 -1.3961
  782MOL0     H 5513   6.482   9.290   6.710  3.4660  0.4593 -1.3698
  782MOL0     H 5514   6.412   9.162   6.810 -2.5667  1.7184 -1.9256
  782MOL0     H 5515   6.625   9.046   6.803  0.6134  1.0279  0.6652
  782MOL0     H 5516   6.699   9.172   6.715  0.3147 -2.7744 -0.1585
  782MOL0     H 5517   6.590   9.335   6.893  1.1011  0.0829  0.7788
  782MOL0     H 5518   6.573   9.198   7.006  0.4638  0.9035  1.3024
  782MOL0     H 5519   6.815   9.358   6.998 -0.8688 -0.5440 -0.8081
  782MOL0     H 5520   6.837   9.261   6.869  0.2512 -0.2423  1.1400
  782MOL0     H 5521   6.881   8.974   6.951  3.5357  3.2190 -0.1951
  782MOL0     H 5522   7.046   8.840   7.078 -0.1249 -1.0412 -0.0276
  782MOL0     H 5523   7.107   8.877   7.238  3.5632  0.7863 -4.5596
  782MOL0     H 5524   6.866   8.722   7.165  2.8748 -1.7715 -1.2099
  782MOL0     H 5525   6.886   8.789   7.330 -2.1883 -1.6971 -1.0780
  782MOL0     H 5526   7.097   8.610   7.198  0.6853  1.7957  0.6862
  782MOL0     H 5527   6.967   8.541   7.286 -1.7050  0.5651 -1.9612
  782MOL0     H 5528   7.122   8.764   7.418 -5.1145  0.6244 -0.7470
  782MOL0     H 5529   7.214   8.611   7.382  0.9428  1.0592  1.0675
  782MOL0     H 5530   7.346   8.631   7.561 -2.9313  2.1584 -1.7633
  782MOL0     H 5531   7.540   8.577   7.651  5.7161 -2.4738  2.1606
  782MOL0     H 5532   7.532   8.630   7.818  3.6828 -0.7059  0.3170
  782MOL0     H 5533   7.568   8.467   7.777 -1.8729 -2.3967 -1.9586
  782MOL0     H 5534   7.439   8.125   8.129 -1.5774  2.4279 -0.7956
  782MOL0     H 5535   7.497   8.108   8.370 -0.4528 -0.6649  1.1625
  782MOL0     H 5536   7.329   8.016   8.537 -0.4010  0.1795 -0.3020
  782MOL0     H 5537   7.472   8.091   8.615  0.2151  2.0084 -0.8689
  782MOL0     H 5538   7.202   8.138   8.745 -1.3006 -2.0638  0.6681
  782MOL0     H 5539   7.299   7.990   8.782 -0.0618 -0.8488 -2.4913
  782MOL0     H 5540   7.427   8.271   8.803 -0.2169 -0.3663  0.6117
  782MOL0     H 5541   7.496   8.120   8.840  0.9028  0.5826  0.2231
  782MOL0     H 5542   7.240   8.237   8.973  0.6628  0.8947 -2.4324
  782MOL0     H 5543   7.314   8.077   9.006  0.1139 -0.0940 -2.1582
  782MOL0     H 5544   7.353   8.281   9.165  0.5912 -0.4903  0.6059
  782MOL0     H 5545   7.445   8.364   9.029  4.0182  0.2738  0.9646
  782MOL0     H 5546   7.538   8.097   9.163 -1.4254  0.4254  0.0607
  782MOL0     H 5547   7.605   8.183   9.020 -0.4970  2.6875 -0.0146
  782MOL0     H 5548   7.629   8.385   9.161  1.8430 -0.4396 -1.1569
  782MOL0     H 5549   7.745   8.258   9.181  0.8401  2.9417 -0.0453
  782MOL0     H 5550   7.637   8.175   9.375  0.9785 -0.2767 -1.2986
  782MOL0     H 5551   7.493   8.279   9.345  0.6140 -0.0167  0.1989
  782MOL0     H 5552   7.161   8.365   8.451 -0.1473 -1.0335  1.0570
  782MOL0     H 5553   7.116   8.391   8.214 -0.2966  0.7689  3.1203
  782MOL0     H 5554   7.099   8.332   7.879  0.2395 -0.0381  1.8361
  782MOL0     H 5555   6.985   8.437   7.685  0.1198 -0.3589  0.3272
  782MOL0     H 5556   5.891   8.910   6.599 -2.1217  0.3705  0.6735
  782MOL0     H 5557   5.650   8.869   6.554  1.3322 -0.6661  1.1380
  782MOL0     H 5558   5.192   9.031   6.450 -1.5282  0.4882 -0.5930
  782MOL0     H 5559   4.983   9.031   6.315  2.3549  3.3852  0.8596
  782MOL0     H 5560   4.872   9.092   6.086 -1.0885  3.1638 -1.7401
  782MOL0     H 5561   5.016   9.073   5.977 -0.0262  0.5680  2.9453
  782MOL0     H 5562   4.787   9.091   5.867 -0.5826  1.1405  3.1330
  782MOL0     H 5563   4.737   8.957   5.943 -0.3615  2.4132  1.5742
  782MOL0     H 5564   4.975   8.873   5.803  0.5010  1.9340 -0.1605
  782MOL0     H 5565   4.877   8.967   5.690  0.6184  0.0243  0.0231
  782MOL0     H 5566   4.677   8.827   5.752 -1.1100 -1.2047 -0.9032
  782MOL0     H 5567   4.797   8.715   5.835 -0.2746  0.5579  0.2620
  782MOL0     H 5568   4.930   8.633   5.462  2.9523 -0.5772  2.9713
  782MOL0     H 5569   5.163   8.789   6.019 -3.2066  0.1337  0.1818
  782MOL0     H 5570   5.384   8.792   6.134 -0.1928 -0.1731 -2.4964
  783MOL0     O 5571   6.997   8.188   2.561  0.2529 -0.1252  0.1952
  783MOL0     C 5572   7.051   8.089   2.509  0.3338  0.5515  0.3067
  783MOL0     O 5573   7.108   8.076   2.389 -0.4086 -0.1282  0.0866
  783MOL0     C 5574   7.148   8.173   2.311 -0.3325  0.2901 -0.1790
  783MOL0     C 5575   7.221   8.136   2.199 -0.4599  0.7643  0.1525
  783MOL0     C 5576   7.273   8.233   2.109  0.0298  0.1209  0.1243
  783MOL0     C 5577   7.257   8.375   2.123  0.3587 -0.9109 -0.5085
  783MOL0     O 5578   7.313   8.466   2.025  0.3478  0.3128 -0.4818
  783MOL0     C 5579   7.252   8.599   2.016  0.2515 -0.0978  0.2556
  783MOL0     C 5580   7.278   8.645   1.865  0.3716 -0.3759 -0.8100
  783MOL0     C 5581   7.165   8.608   1.768 -0.8789 -0.2163 -0.6493
  783MOL0     C 5582   7.161   8.702   1.641 -0.7910  1.4550 -0.0560
  783MOL0     C 5583   7.289   8.726   1.572 -0.3407  0.5332  0.2064
  783MOL0     C 5584   7.253   8.811   1.443 -0.7326 -0.0757  0.4930
  783MOL0     C 5585   7.376   8.820   1.352  1.3639 -0.3018 -0.4036
  783MOL0     C 5586   7.478   8.928   1.395 -0.4977 -0.2924 -0.1786
  783MOL0     N 5587   7.450   9.063   1.348  0.2253 -0.8578 -0.5105
  783MOL0     C 5588   7.487   9.129   1.226  1.1356 -0.8843  0.8581
  783MOL0     C 5589   7.431   9.258   1.235 -0.2116  0.1434  0.5947
  783MOL0     C 5590   7.451   9.366   1.132  0.2529  0.6941  0.1243
  783MOL0     C 5591   7.371   9.348   1.006  0.6047 -0.2277 -0.0246
  783MOL0     C 5592   7.404   9.459   0.907 -0.5124 -0.1137  0.4226
  783MOL0     C 5593   7.390   9.416   0.758  0.1524  0.0951  0.4006
  783MOL0     O 5594   7.374   9.527   0.667 -0.2570  0.2410  0.8008
  783MOL0     C 5595   7.495   9.571   0.620  0.5337 -0.6200 -0.5348
  783MOL0     C 5596   7.563   9.669   0.693 -0.2522  0.5687 -0.0326
  783MOL0     C 5597   7.688   9.717   0.646 -0.4998 -0.1456 -0.5903
  783MOL0     C 5598   7.752   9.816   0.745 -0.6922 -0.6261  0.3280
  783MOL0     C 5599   7.737   9.679   0.519  0.5015 -0.9551  0.4197
  783MOL0     C 5600   7.869   9.720   0.454  0.5606 -0.4995 -0.4681
  783MOL0     O 5601   7.926   9.642   0.365  0.7569  0.0012 -0.3467
  783MOL0     C 5602   8.024   9.693   0.299 -0.7915 -0.5172  0.0726
  783MOL0     C 5603   8.023   9.680   0.156 -1.2282  0.1066  0.6307
  783MOL0     C 5604   8.127   9.713   0.074 -0.0401 -1.2907 -0.7996
  783MOL0     C 5605   8.248   9.765   0.129  0.2772 -0.6765 -0.5663
  783MOL0     O 5606   8.353   9.810   0.043 -0.0196  0.0525 -1.7349
  783MOL0     C 5607   8.498   9.795   0.075  0.1939  0.4925  0.4670
  783MOL0     C 5608   8.560   9.928   0.132  0.6226 -0.3634  0.7351
  783MOL0     C 5609   8.606  10.020   0.021  1.2678  0.6737 -0.5341
  783MOL0     C 5610   8.659  10.152   0.075  0.1543  0.1884 -0.5470
  783MOL0     C 5611   8.668  10.271  -0.023 -0.1248  0.0588  0.6878
  783MOL0     C 5612   8.793  10.256  -0.131  0.6974 -0.6344  0.5490
  783MOL0     C 5613   8.864  10.390  -0.154 -0.3715  0.8434 -0.4580
  783MOL0     C 5614   8.988  10.420  -0.064  0.3679 -0.1605  1.1671
  783MOL0    Cl 5615   9.044  10.587  -0.094 -0.4302 -0.0185 -0.0297
  783MOL0     C 5616   8.252   9.785   0.273 -0.1751 -0.5391  0.4240
  783MOL0     C 5617   8.141   9.741   0.356  0.6132  0.3529  0.4947
  783MOL0     O 5618   7.908   9.834   0.486  0.0820 -0.1880 -1.0845
  783MOL0     C 5619   7.667   9.573   0.451 -0.4821 -0.1656  0.4970
  783MOL0     C 5620   7.550   9.520   0.509 -0.1202  0.7501 -0.7239
  783MOL0     N 5621   7.367   9.267   1.359 -0.4242  0.6095 -0.6537
  783MOL0     N 5622   7.377   9.154   1.422 -0.1702 -0.5252 -0.0633
  783MOL0     C 5623   7.183   8.411   2.238  0.4943 -0.5885 -0.9485
  783MOL0     C 5624   7.129   8.312   2.334  0.5253 -0.5396  0.0043
  783MOL0     C 5625   7.033   7.968   2.593 -0.2821  0.5535  0.3091
  783MOL0     C 5626   6.928   7.946   2.681  0.1947  0.6417  0.6240
  783MOL0     C 5627   6.924   7.829   2.761 -0.5957  0.0458  0.5961
  783MOL0     C 5628   7.018   7.729   2.740 -0.6726 -0.0460 -0.2127
  783MOL0     O 5629   7.017   7.607   2.812 -0.6812 -0.0149  0.5347
  783MOL0     C 5630   6.934   7.579   2.926 -0.1579  0.5792  0.4189
  783MOL0     C 5631   6.796   7.521   2.897 -0.0891  0.6883  0.4275
  783MOL0     C 5632   6.712   7.511   3.020 -0.1534 -0.8896  0.6050
  783MOL0     C 5633   6.648   7.647   3.052  0.6531 -0.8596  0.3265
  783MOL0     C 5634   6.567   7.714   2.952 -0.3675  0.1301  0.2141
  783MOL0     C 5635   6.500   7.751   2.862  0.8817 -1.3454  0.4498
  783MOL0     C 5636   7.111   7.738   2.631  0.2949 -0.1059 -0.2541
  783MOL0     C 5637   7.114   7.854   2.560 -0.1225  0.1794 -0.3259
  783MOL0     H 5638   7.247   8.032   2.182 -0.4834  0.7912 -0.0519
  783MOL0     H 5639   7.330   8.185   2.030 -1.1859 -2.7264  0.8692
  783MOL0     H 5640   7.157   8.617   2.068  1.1709 -2.4017  2.9354
  783MOL0     H 5641   7.317   8.665   2.074  0.6970  0.8208 -1.2328
  783MOL0     H 5642   7.284   8.755   1.864  2.7495 -0.3216  2.3849
  783MOL0     H 5643   7.377   8.620   1.824  0.9263  1.5312 -0.7645
  783MOL0     H 5644   7.205   8.509   1.745  1.2711  0.2570  0.6913
  783MOL0     H 5645   7.070   8.580   1.814  0.2056 -2.5180  0.3884
  783MOL0     H 5646   7.090   8.655   1.573 -0.2466 -0.3922  0.6140
  783MOL0     H 5647   7.120   8.799   1.672 -1.2257  0.2272  3.7199
  783MOL0     H 5648   7.352   8.773   1.648  0.0049 -2.1756  1.7537
  783MOL0     H 5649   7.341   8.639   1.531 -1.1680  0.6294 -1.0930
  783MOL0     H 5650   7.176   8.763   1.382 -0.2115  1.2248 -1.2780
  783MOL0     H 5651   7.224   8.913   1.471  1.3396  0.1052  2.2154
  783MOL0     H 5652   7.430   8.724   1.349  0.9183 -0.5333 -1.1892
  783MOL0     H 5653   7.347   8.844   1.250  3.5613  1.3456 -0.7193
  783MOL0     H 5654   7.569   8.886   1.352  1.2019  1.9732  0.9780
  783MOL0     H 5655   7.494   8.938   1.503  0.6490  0.5195 -0.4095
  783MOL0     H 5656   7.548   9.082   1.150  0.4046 -1.2032  0.4558
  783MOL0     H 5657   7.407   9.456   1.175 -0.6422  2.1946 -3.5427
  783MOL0     H 5658   7.558   9.364   1.109 -0.1455  2.0314 -2.0875
  783MOL0     H 5659   7.265   9.340   1.031  0.9282 -0.7480  1.2691
  783MOL0     H 5660   7.391   9.248   0.965 -3.4229 -1.9725  1.7886
  783MOL0     H 5661   7.506   9.498   0.910  0.1631 -1.4117 -2.3123
  783MOL0     H 5662   7.334   9.540   0.928 -1.6228 -0.8579 -0.3068
  783MOL0     H 5663   7.303   9.351   0.745 -0.1040 -0.0390  2.3904
  783MOL0     H 5664   7.482   9.360   0.740  0.6171  1.0576 -0.3105
  783MOL0     H 5665   7.509   9.709   0.778  0.9271  1.2279  0.4140
  783MOL0     H 5666   7.825   9.771   0.813 -0.2508 -0.7771 -0.2343
  783MOL0     H 5667   7.812   9.896   0.699  0.0535  0.8201  3.5653
  783MOL0     H 5668   7.673   9.879   0.785  0.2000  2.6084 -2.5064
  783MOL0     H 5669   7.935   9.642   0.104  0.6278 -0.6792 -2.2073
  783MOL0     H 5670   8.121   9.711  -0.035  0.3249  2.5188 -1.0313
  783MOL0     H 5671   8.519   9.716   0.148  0.9617 -1.8166 -2.0848
  783MOL0     H 5672   8.552   9.757  -0.012  0.0700  0.5283  0.3741
  783MOL0     H 5673   8.479   9.976   0.189 -0.4532 -1.1083 -0.1368
  783MOL0     H 5674   8.644   9.903   0.198  1.2405 -2.3223 -0.7112
  783MOL0     H 5675   8.528  10.030  -0.055 -1.5845  2.6568  2.3676
  783MOL0     H 5676   8.687   9.964  -0.026  0.8658 -0.9381  0.6179
  783MOL0     H 5677   8.599  10.175   0.164  1.1044 -3.9277  1.3585
  783MOL0     H 5678   8.760  10.134   0.111  1.1083  0.6141 -2.8467
  783MOL0     H 5679   8.697  10.359   0.035  0.0503  0.0417  0.6266
  783MOL0     H 5680   8.577  10.290  -0.080  0.2967  1.2672  0.3841
  783MOL0     H 5681   8.870  10.189  -0.091 -0.3333 -2.5365 -0.5268
  783MOL0     H 5682   8.749  10.223  -0.225  0.5844 -2.7677  1.2890
  783MOL0     H 5683   8.788  10.468  -0.150 -0.6009  0.7024 -1.7266
  783MOL0     H 5684   8.906  10.393  -0.255 -0.8421 -0.4285 -0.7032
  783MOL0     H 5685   9.069  10.352  -0.090  0.9858  0.7464  0.6558
  783MOL0     H 5686   8.954  10.401   0.038  0.9180  0.8372  1.5549
  783MOL0     H 5687   8.340   9.828   0.319  0.6290 -0.2767 -1.2618
  783MOL0     H 5688   8.147   9.744   0.464 -0.6444  3.0761  0.5756
  783MOL0     H 5689   7.709   9.534   0.359  3.2744 -1.0064  2.3573
  783MOL0     H 5690   7.497   9.437   0.464 -0.3283  0.1322  0.6101
  783MOL0     H 5691   7.163   8.516   2.257 -1.4609 -1.0443 -0.3026
  783MOL0     H 5692   7.085   8.350   2.425 -1.1794 -0.2366 -0.9113
  783MOL0     H 5693   6.842   8.013   2.690 -1.1624 -0.1834 -3.5920
  783MOL0     H 5694   6.842   7.807   2.829 -2.1290 -1.0102 -1.4709
  783MOL0     H 5695   6.982   7.502   2.986  1.2533  1.1128  0.0213
  783MOL0     H 5696   6.929   7.662   2.997  0.8152 -0.0461  1.2456
  783MOL0     H 5697   6.809   7.420   2.855 -0.3007  1.7817 -2.4967
  783MOL0     H 5698   6.748   7.588   2.825  1.0783 -0.0101 -1.0695
  783MOL0     H 5699   6.771   7.473   3.104  2.6434  0.7790 -0.4605
  783MOL0     H 5700   6.634   7.440   2.990  1.3317 -1.8816 -1.1080
  783MOL0     H 5701   6.739   7.700   3.081  1.8714 -0.9139 -2.9817
  783MOL0     H 5702   6.583   7.650   3.141 -0.4093  1.6715 -0.4227
  783MOL0     H 5703   6.443   7.788   2.779 -1.7759 -2.5905  1.5870
  783MOL0     H 5704   7.183   7.661   2.602  1.1381  0.9925 -1.1633
  783MOL0     H 5705   7.196   7.868   2.490 -0.0552  0.8715 -0.1189
  784MOL0     O 5706   5.847   8.019  11.225 -0.7562  0.4945 -0.2402
  784MOL0     C 5707   5.881   8.128  11.194 -0.0779 -0.2491  0.5677
  784MOL0     O 5708   5.985   8.194  11.251  0.6663  0.0341 -0.3372
  784MOL0     C 5709   6.068   8.118  11.323 -0.4246  0.9429  0.9405
  784MOL0     C 5710   6.060   8.110  11.460  0.4664 -0.2793 -0.3200
  784MOL0     C 5711   6.143   8.039  11.535 -0.7253  0.3246  0.7900
  784MOL0     C 5712   6.243   7.960  11.476 -0.3396 -0.1333 -1.1845
  784MOL0     O 5713   6.311   7.879  11.565  0.9823  0.5708  0.0750
  784MOL0     C 5714   6.447   7.833  11.516  0.8061  0.3143 -0.2503
  784MOL0     C 5715   6.522   7.822  11.651 -0.1311  0.6670  0.6654
  784MOL0     C 5716   6.673   7.838  11.631 -0.5448  0.4897  0.5725
  784MOL0     C 5717   6.750   7.786  11.748 -0.5973  0.2446 -0.3144
  784MOL0     C 5718   6.900   7.811  11.738 -0.5619  0.4641 -0.1882
  784MOL0     C 5719   6.934   7.957  11.767 -0.4616  0.1267  0.0059
  784MOL0     C 5720   6.929   8.047  11.647  0.2713 -0.5030  0.1370
  784MOL0     C 5721   7.053   8.135  11.628  0.6362 -0.2459 -0.8573
  784MOL0     N 5722   7.075   8.245  11.715  0.4139 -0.0505 -0.8178
  784MOL0     C 5723   7.021   8.374  11.700 -0.7036 -0.2873  0.3369
  784MOL0     C 5724   7.055   8.441  11.812 -0.0812  0.4395  0.3360
  784MOL0     C 5725   7.021   8.581  11.856  0.7148  0.1018  0.3315
  784MOL0     C 5726   6.877   8.609  11.904 -0.7866  0.7440  0.3661
  784MOL0     C 5727   6.829   8.517  12.016  0.0905 -0.2692  1.2875
  784MOL0     C 5728   6.918   8.524  12.147  0.3949  0.6996  0.0088
  784MOL0     O 5729   6.911   8.652  12.210 -0.1783  0.5529 -0.0779
  784MOL0     C 5730   6.825   8.686  12.306 -0.6473  0.7082 -0.1409
  784MOL0     C 5731   6.724   8.606  12.359 -0.2734 -0.1278 -1.3855
  784MOL0     C 5732   6.607   8.661  12.422  0.2466  0.2094  0.6644
  784MOL0     C 5733   6.503   8.559  12.466  0.0173 -0.7597  0.2310
  784MOL0     C 5734   6.606   8.801  12.454 -1.1634 -0.5022  0.2733
  784MOL0     C 5735   6.506   8.864  12.542 -0.8244 -0.1191  1.3579
  784MOL0     O 5736   6.492   9.003  12.538 -0.4082 -0.0173  0.0834
  784MOL0     C 5737   6.407   9.044  12.629  0.3176  0.0139 -0.9924
  784MOL0     C 5738   6.270   9.039  12.602 -0.4701  0.0985 -0.0315
  784MOL0     C 5739   6.163   9.068  12.687  0.3802 -0.2717  0.3397
  784MOL0     C 5740   6.197   9.118  12.812  0.3272  0.1959  0.0447
  784MOL0     O 5741   6.095   9.140  12.905 -0.6867  0.2435  0.2871
  784MOL0     C 5742   6.082   9.266  12.961 -0.0901 -0.7483  0.0754
  784MOL0     C 5743   6.006   9.362  12.878  0.1089  0.1851 -0.3999
  784MOL0     C 5744   5.894   9.425  12.965 -0.6741 -0.5220 -0.3270
  784MOL0     C 5745   5.788   9.330  12.997 -0.9486  1.1947  0.3598
  784MOL0     C 5746   5.699   9.402  13.094 -0.0956  0.1895 -0.3697
  784MOL0     C 5747   5.580   9.320  13.162 -0.3423 -0.6200 -0.4624
  784MOL0     C 5748   5.501   9.395  13.277  0.1974  0.4977  0.0398
  784MOL0     C 5749   5.374   9.322  13.314 -0.5342  0.5368  0.3846
  784MOL0    Cl 5750   5.287   9.420  13.436 -0.3934  0.6617 -0.0814
  784MOL0     C 5751   6.334   9.147  12.835 -0.0488  0.1766 -0.3606
  784MOL0     C 5752   6.440   9.108  12.748 -0.2531 -0.5790  0.0198
  784MOL0     O 5753   6.432   8.791  12.607  0.6848 -0.1612  0.1694
  784MOL0     C 5754   6.706   8.883  12.405  0.0909  0.0938 -0.3162
  784MOL0     C 5755   6.809   8.823  12.333  0.7576 -0.1232 -0.3394
  784MOL0     N 5756   7.129   8.359  11.893  0.8301  0.2498 -0.3115
  784MOL0     N 5757   7.142   8.247  11.837  0.1661  0.2273  0.3150
  784MOL0     C 5758   6.254   7.964  11.337  0.2260  0.3448  0.6730
  784MOL0     C 5759   6.167   8.045  11.254  0.2085 -0.1755 -0.3990
  784MOL0     C 5760   5.803   8.198  11.094  0.4548  0.0193 -0.3209
  784MOL0     C 5761   5.811   8.336  11.100  0.7525  0.1992  1.2227
  784MOL0     C 5762   5.729   8.408  11.006 -0.9398 -1.4208  0.2041
  784MOL0     C 5763   5.649   8.346  10.919  0.2539 -0.8365 -0.5789
  784MOL0     O 5764   5.589   8.430  10.822  0.2162 -0.2376  0.0443
  784MOL0     C 5765   5.529   8.375  10.707  0.7551 -0.4266  0.2200
  784MOL0     C 5766   5.362   8.387  10.708  0.0175  0.2969 -0.2863
  784MOL0     C 5767   5.319   8.531  10.706  0.9575  0.5875  0.0598
  784MOL0     C 5768   5.168   8.537  10.698  0.3790  0.3516  0.6424
  784MOL0     C 5769   5.139   8.674  10.658 -0.9528  0.0368 -1.1897
  784MOL0     C 5770   5.098   8.790  10.632 -0.1297 -0.1605 -0.7080
  784MOL0     C 5771   5.632   8.207  10.921  0.1266 -0.5180 -0.6929
  784MOL0     C 5772   5.722   8.135  11.006  0.5938 -0.1685 -0.0035
  784MOL0     H 5773   5.974   8.167  11.494 -0.8704  0.6660 -4.6510
  784MOL0     H 5774   6.140   8.046  11.643  3.1398 -1.9007  1.2148
  784MOL0     H 5775   6.429   7.741  11.460  0.0427  1.0242 -1.2227
  784MOL0     H 5776   6.483   7.911  11.449 -1.8565  2.5098  0.6511
  784MOL0     H 5777   6.483   7.892  11.725 -1.2653  0.0321  0.6988
  784MOL0     H 5778   6.501   7.717  11.674  1.8343  0.2888  0.9008
  784MOL0     H 5779   6.708   7.802  11.534 -1.2189 -0.0411  0.5194
  784MOL0     H 5780   6.688   7.944  11.608 -1.0556  0.2153 -1.2634
  784MOL0     H 5781   6.710   7.820  11.844 -0.1853 -1.6917  0.5896
  784MOL0     H 5782   6.738   7.678  11.754 -0.2857  0.2859  2.1046
  784MOL0     H 5783   6.948   7.760  11.822  0.8089  1.0154 -0.6065
  784MOL0     H 5784   6.935   7.777  11.640 -0.5828 -0.7583  0.2096
  784MOL0     H 5785   6.876   7.997  11.850  0.5254 -0.5999  1.0780
  784MOL0     H 5786   7.038   7.957  11.799 -0.0260 -0.5515 -1.3119
  784MOL0     H 5787   6.913   7.986  11.558  0.2629 -1.9923  1.1187
  784MOL0     H 5788   6.841   8.111  11.653 -0.7626 -1.4122 -3.2596
  784MOL0     H 5789   7.045   8.173  11.526  0.5890 -0.0096 -0.7668
  784MOL0     H 5790   7.145   8.076  11.639 -0.1749 -1.5337 -0.8174
  784MOL0     H 5791   6.969   8.405  11.610  1.4170 -0.0781 -0.8865
  784MOL0     H 5792   7.093   8.606  11.934  0.7690 -1.9037  0.9866
  784MOL0     H 5793   7.050   8.636  11.766  1.5413 -0.5498  0.1842
  784MOL0     H 5794   6.812   8.598  11.817 -1.2223 -2.4495  0.9600
  784MOL0     H 5795   6.886   8.714  11.935 -0.8291  0.9359 -0.2583
  784MOL0     H 5796   6.831   8.412  11.988  2.0263 -0.1958  1.0290
  784MOL0     H 5797   6.727   8.547  12.040  0.1994  0.2530  1.1230
  784MOL0     H 5798   7.019   8.483  12.139  0.6963 -0.4893  5.6359
  784MOL0     H 5799   6.886   8.445  12.216  0.4726  0.9379  0.3170
  784MOL0     H 5800   6.732   8.498  12.348  4.5672 -0.2651  0.6282
  784MOL0     H 5801   6.530   8.463  12.422  1.6285 -1.1331  1.9533
  784MOL0     H 5802   6.520   8.545  12.573 -0.2087 -2.0329  0.1081
  784MOL0     H 5803   6.400   8.586  12.438  0.1853 -0.5789 -0.2344
  784MOL0     H 5804   6.249   9.014  12.499 -1.4903  0.3269  0.1090
  784MOL0     H 5805   6.059   9.052  12.660  0.4382  1.0702 -0.7709
  784MOL0     H 5806   6.025   9.239  13.051 -0.9028 -3.1414 -1.0699
  784MOL0     H 5807   6.175   9.311  12.998  0.8432 -2.4564 -0.0704
  784MOL0     H 5808   6.066   9.447  12.844  0.2687  0.3581  0.3074
  784MOL0     H 5809   5.951   9.311  12.798 -0.1968  0.0314 -0.0950
  784MOL0     H 5810   5.841   9.500  12.906  0.6845 -1.3281 -2.7208
  784MOL0     H 5811   5.942   9.475  13.049 -0.0696  0.4412 -1.2160
  784MOL0     H 5812   5.731   9.306  12.907 -1.4011 -2.1553  1.3954
  784MOL0     H 5813   5.815   9.242  13.057  0.3292  0.8104 -0.7330
  784MOL0     H 5814   5.651   9.481  13.036  1.9571  0.2448 -2.1170
  784MOL0     H 5815   5.762   9.448  13.171 -2.7599  1.4891  1.1823
  784MOL0     H 5816   5.516   9.302  13.075  1.5000  1.1386 -2.2889
  784MOL0     H 5817   5.626   9.232  13.208 -0.3451 -0.3313  0.1007
  784MOL0     H 5818   5.466   9.489  13.233 -1.5586 -0.6153 -1.0229
  784MOL0     H 5819   5.566   9.414  13.363  1.5221  0.3365 -0.8797
  784MOL0     H 5820   5.392   9.223  13.358 -0.9307  1.4698  2.8052
  784MOL0     H 5821   5.310   9.302  13.228  2.0410  2.2541 -2.0951
  784MOL0     H 5822   6.360   9.169  12.938 -0.2037 -1.4463  0.0646
  784MOL0     H 5823   6.541   9.127  12.781 -1.4836  0.9961  3.4082
  784MOL0     H 5824   6.708   8.990  12.419  2.3381  0.2596 -1.4391
  784MOL0     H 5825   6.896   8.882  12.304  1.4396 -0.7177  0.4460
  784MOL0     H 5826   6.334   7.904  11.295  2.4930  0.8993  3.7668
  784MOL0     H 5827   6.185   8.052  11.147 -0.7060 -1.2662 -0.6381
  784MOL0     H 5828   5.870   8.385  11.176  0.0010  0.2393  1.7902
  784MOL0     H 5829   5.739   8.516  11.010  0.9062 -1.4479 -1.7036
  784MOL0     H 5830   5.567   8.432  10.621  1.2573 -1.0884 -0.0059
  784MOL0     H 5831   5.558   8.270  10.692 -1.4641 -1.4241  2.3129
  784MOL0     H 5832   5.329   8.346  10.804 -0.3535  0.7949 -0.1969
  784MOL0     H 5833   5.316   8.332  10.625  2.4471  1.6938 -2.7329
  784MOL0     H 5834   5.354   8.567  10.609 -2.6717  1.2928 -1.1280
  784MOL0     H 5835   5.350   8.591  10.792  0.0669  2.0379 -0.5875
  784MOL0     H 5836   5.108   8.510  10.786 -0.5444  1.4445  0.3746
  784MOL0     H 5837   5.136   8.474  10.614  1.4569  1.5114 -0.6819
  784MOL0     H 5838   5.069   8.891  10.609 -1.2019 -0.6176 -1.4046
  784MOL0     H 5839   5.567   8.150  10.855 -1.3299  0.7738 -0.4324
  784MOL0     H 5840   5.722   8.028  11.020 -0.0583  0.0836  2.5471
  785MOL0     O 5841  10.201   3.702  10.526  0.1919  0.0496 -0.2860
  785MOL0     C 5842  10.237   3.641  10.628 -0.8999 -0.4588  0.1062
  785MOL0     O 5843  10.377   3.601  10.653  0.2632  0.1788 -0.3421
  785MOL0     C 5844  10.469   3.638  10.562  0.1369 -0.2916  0.3663
  785MOL0     C 5845  10.552   3.540  10.523 -1.3367  0.0871 -0.6399
  785MOL0     C 5846  10.651   3.555  10.425  0.3779 -0.0658 -0.1449
  785MOL0     C 5847  10.663   3.683  10.371  0.2490 -0.6683  0.0010
  785MOL0     O 5848  10.732   3.721  10.256  0.3146  0.5415  0.1448
  785MOL0     C 5849  10.834   3.633  10.199  0.0085 -0.9575  0.0152
  785MOL0     C 5850  10.923   3.726  10.117 -0.2844  0.1282 -0.2983
  785MOL0     C 5851  11.052   3.656  10.053  0.0485 -0.0741  0.7756
  785MOL0     C 5852  11.086   3.729   9.922 -0.3415  0.8343  0.8971
  785MOL0     C 5853  11.192   3.664   9.841  0.1301 -0.2579 -0.2620
  785MOL0     C 5854  11.261   3.767   9.760  0.1569 -0.7043  0.0055
  785MOL0     C 5855  11.367   3.690   9.686 -0.2460 -0.2320 -0.1464
  785MOL0     C 5856  11.465   3.779   9.608 -0.1934 -0.0328  0.0912
  785MOL0     N 5857  11.575   3.717   9.541 -0.1236 -0.3065 -0.1812
  785MOL0     C 5858  11.552   3.613   9.463 -0.8456 -0.0048 -0.8677
  785MOL0     C 5859  11.684   3.574   9.429 -0.0738  0.1755  0.1962
  785MOL0     C 5860  11.727   3.457   9.342 -0.0089 -0.9882 -0.6803
  785MOL0     C 5861  11.768   3.348   9.429  0.6422  0.7786  0.8002
  785MOL0     C 5862  11.922   3.334   9.461  0.6758  0.5471  0.2850
  785MOL0     C 5863  11.943   3.194   9.532  0.1524 -0.0514 -0.4309
  785MOL0     O 5864  11.953   3.079   9.443 -0.0084  0.7053 -0.8973
  785MOL0     C 5865  12.027   2.973   9.504 -0.3864  0.9554 -0.1346
  785MOL0     C 5866  11.981   2.903   9.606  0.2017 -0.0796 -0.7329
  785MOL0     C 5867  12.047   2.790   9.660 -0.2149 -0.2993  0.2043
  785MOL0     C 5868  11.981   2.726   9.775  0.5782  0.1544  0.2281
  785MOL0     C 5869  12.159   2.740   9.596  0.2463  0.1274 -0.2183
  785MOL0     C 5870  12.256   2.639   9.651  0.5615 -0.6226 -0.4619
  785MOL0     O 5871  12.378   2.632   9.584  0.4063 -0.4758  0.2415
  785MOL0     C 5872  12.480   2.549   9.616  0.4435  0.6184  0.4974
  785MOL0     C 5873  12.516   2.514   9.745  0.2903 -0.9056 -0.2509
  785MOL0     C 5874  12.630   2.437   9.767  0.8421 -0.3161  0.2798
  785MOL0     C 5875  12.711   2.388   9.668 -0.3317 -0.5946 -0.1667
  785MOL0     O 5876  12.805   2.292   9.699  0.6289 -0.0011 -0.1312
  785MOL0     C 5877  12.940   2.344   9.694 -0.1584 -0.7492 -0.2291
  785MOL0     C 5878  13.010   2.286   9.576 -0.4804  1.2462 -0.5697
  785MOL0     C 5879  13.004   2.134   9.568 -0.9689  0.3934  0.2170
  785MOL0     C 5880  13.103   2.090   9.459  0.0970 -0.4989 -0.4988
  785MOL0     C 5881  13.071   1.951   9.401  0.5819  0.7263  0.5574
  785MOL0     C 5882  13.189   1.902   9.308  0.0368 -0.6703 -0.0964
  785MOL0     C 5883  13.163   1.759   9.246 -0.4730 -0.3748  0.3567
  785MOL0     C 5884  13.211   1.640   9.330 -0.4310 -0.6670 -1.3448
  785MOL0    Cl 5885  13.075   1.607   9.446  0.3389 -0.0041 -0.1709
  785MOL0     C 5886  12.679   2.424   9.534  0.2270  1.1011 -0.1375
  785MOL0     C 5887  12.557   2.503   9.513 -0.2099 -0.4597  0.0346
  785MOL0     O 5888  12.221   2.567   9.742  0.9749  0.6731 -0.3144
  785MOL0     C 5889  12.204   2.813   9.484  0.4612 -0.3576  0.5262
  785MOL0     C 5890  12.130   2.921   9.432 -0.4309 -0.0317  0.1187
  785MOL0     N 5891  11.775   3.663   9.491 -0.3583 -1.6594 -0.1947
  785MOL0     N 5892  11.708   3.747   9.556  0.0548  0.1213  0.3786
  785MOL0     C 5893  10.591   3.792  10.420 -0.5090 -0.0666  0.3869
  785MOL0     C 5894  10.494   3.766  10.514  0.6223  0.1869 -0.1399
  785MOL0     C 5895  10.144   3.623  10.736 -0.0286  0.1242 -0.9287
  785MOL0     C 5896  10.006   3.661  10.721  0.5695 -0.0589 -0.1488
  785MOL0     C 5897   9.910   3.631  10.813 -0.4877 -0.4909  0.7953
  785MOL0     C 5898   9.953   3.551  10.925  0.0279 -0.2293 -0.6906
  785MOL0     O 5899   9.870   3.530  11.036 -0.6880  0.8813 -0.2616
  785MOL0     C 5900   9.733   3.571  11.038 -1.1955 -0.0893 -1.2350
  785MOL0     C 5901   9.675   3.534  11.179 -0.0140  0.4606 -0.4081
  785MOL0     C 5902   9.624   3.385  11.180 -0.4789  1.3068  0.8405
  785MOL0     C 5903   9.626   3.328  11.325  0.4839  0.7823 -0.8160
  785MOL0     C 5904   9.557   3.413  11.426 -0.2094  0.2473 -0.0791
  785MOL0     C 5905   9.493   3.467  11.516  0.0392 -0.6259 -0.8123
  785MOL0     C 5906  10.092   3.506  10.941  0.4350 -1.2371 -0.3076
  785MOL0     C 5907  10.185   3.548  10.844  0.0202 -0.0768 -0.5734
  785MOL0     H 5908  10.530   3.448  10.576 -0.9001 -1.3966 -2.8569
  785MOL0     H 5909  10.714   3.471  10.396 -0.6793 -1.1886  0.7190
  785MOL0     H 5910  10.901   3.595  10.277 -4.5975 -1.2789  4.2607
  785MOL0     H 5911  10.790   3.557  10.134  1.0510 -2.4240  0.9651
  785MOL0     H 5912  10.865   3.776  10.039  2.3631  0.2472 -2.3389
  785MOL0     H 5913  10.969   3.812  10.167  1.7747 -0.4858 -1.0340
  785MOL0     H 5914  11.136   3.645  10.123  0.9473 -2.9935 -0.6361
  785MOL0     H 5915  11.027   3.555  10.022  0.1624 -0.0254  0.5265
  785MOL0     H 5916  10.994   3.750   9.866  0.5724  2.0730 -0.2215
  785MOL0     H 5917  11.111   3.825   9.969  2.3170  0.3688  0.5864
  785MOL0     H 5918  11.255   3.613   9.914 -2.2726 -2.6450  0.3340
  785MOL0     H 5919  11.142   3.588   9.779 -2.1765  0.8171  0.1907
  785MOL0     H 5920  11.191   3.825   9.699 -0.1615 -0.3757  0.6762
  785MOL0     H 5921  11.308   3.832   9.835  0.1833  0.1307 -0.7166
  785MOL0     H 5922  11.427   3.631   9.755 -0.6432  0.9867  1.3050
  785MOL0     H 5923  11.322   3.616   9.620  1.5456 -1.8735  0.4028
  785MOL0     H 5924  11.507   3.847   9.683  1.9355 -0.5248 -0.6042
  785MOL0     H 5925  11.413   3.833   9.528 -0.8933  0.1763  0.6712
  785MOL0     H 5926  11.455   3.572   9.437 -0.4821 -2.2109  0.9802
  785MOL0     H 5927  11.639   3.427   9.285 -2.8378  3.2276  0.9831
  785MOL0     H 5928  11.806   3.480   9.270  0.1315 -1.5508 -0.7102
  785MOL0     H 5929  11.741   3.254   9.380  1.9487 -0.3230  2.1061
  785MOL0     H 5930  11.710   3.354   9.521 -0.8629 -2.2874  0.1689
  785MOL0     H 5931  11.934   3.417   9.532 -2.2906  0.8266  0.6012
  785MOL0     H 5932  11.990   3.345   9.376 -0.8592 -1.8867 -1.3610
  785MOL0     H 5933  11.867   3.188   9.611 -0.4381  0.9029 -0.9071
  785MOL0     H 5934  12.035   3.212   9.589  0.5836  0.7698 -1.3457
  785MOL0     H 5935  11.889   2.945   9.646  1.5724  3.3585 -0.8224
  785MOL0     H 5936  12.003   2.769   9.873 -0.8128  0.7817  0.2931
  785MOL0     H 5937  11.873   2.727   9.759  0.6502 -1.6924 -0.6026
  785MOL0     H 5938  12.002   2.619   9.773  3.8167  0.6960  0.2741
  785MOL0     H 5939  12.449   2.542   9.825 -0.8563 -2.8501 -0.4735
  785MOL0     H 5940  12.648   2.400   9.867  1.8994 -0.9897 -0.1467
  785MOL0     H 5941  12.940   2.451   9.674 -0.6484 -1.2039 -2.9620
  785MOL0     H 5942  12.993   2.312   9.784  0.4293 -1.7983 -0.9241
  785MOL0     H 5943  12.955   2.316   9.487 -2.7675  0.0991  0.3829
  785MOL0     H 5944  13.111   2.327   9.569 -0.6251  2.3896  2.5951
  785MOL0     H 5945  12.906   2.095   9.539 -1.7330  1.4339  1.3138
  785MOL0     H 5946  13.037   2.096   9.665 -2.6316 -1.4607  0.1372
  785MOL0     H 5947  13.097   2.148   9.367 -2.7300 -0.6352 -0.4790
  785MOL0     H 5948  13.201   2.090   9.508  0.4238 -0.4793 -1.1456
  785MOL0     H 5949  12.975   1.940   9.348 -1.8519  1.5234  4.4404
  785MOL0     H 5950  13.067   1.890   9.492  2.4354  2.8249  2.1560
  785MOL0     H 5951  13.206   1.974   9.227  1.2379 -1.9412 -1.0163
  785MOL0     H 5952  13.287   1.907   9.356 -0.3926  1.9746  0.6947
  785MOL0     H 5953  13.218   1.768   9.152 -0.5575 -1.1869  0.2193
  785MOL0     H 5954  13.063   1.743   9.206  0.3947 -0.2521 -2.0345
  785MOL0     H 5955  13.286   1.679   9.399 -1.2891  0.7336 -1.1801
  785MOL0     H 5956  13.245   1.550   9.278 -2.0821 -0.5644 -2.6996
  785MOL0     H 5957  12.739   2.384   9.453  0.0926 -0.7719  0.6425
  785MOL0     H 5958  12.533   2.537   9.412  1.8888  4.2477  0.8678
  785MOL0     H 5959  12.284   2.780   9.419  0.9022 -0.5792  1.1673
  785MOL0     H 5960  12.147   2.962   9.333 -5.0043  0.7721 -0.5810
  785MOL0     H 5961  10.610   3.891  10.380  2.9088  0.3570  2.6542
  785MOL0     H 5962  10.419   3.838  10.546  1.0494 -0.2691  2.0351
  785MOL0     H 5963   9.990   3.720  10.631 -0.8286  0.7786  0.6000
  785MOL0     H 5964   9.806   3.659  10.800  0.1809  2.7995  1.7964
  785MOL0     H 5965   9.720   3.675  11.008 -2.0918  0.2306  0.1470
  785MOL0     H 5966   9.680   3.507  10.966 -0.9681 -3.1345  1.0677
  785MOL0     H 5967   9.584   3.593  11.193 -0.8100 -0.9264  0.5062
  785MOL0     H 5968   9.749   3.546  11.260  1.8250 -5.4624 -0.6895
  785MOL0     H 5969   9.688   3.320  11.119 -1.6095  1.8461 -1.0142
  785MOL0     H 5970   9.524   3.387  11.137 -0.4192 -0.7954  0.5019
  785MOL0     H 5971   9.729   3.318  11.359 -0.3528  0.1991  1.7794
  785MOL0     H 5972   9.572   3.233  11.322 -4.9354  3.1389  3.1512
  785MOL0     H 5973   9.441   3.526  11.589  0.8990 -0.9272  0.0543
  785MOL0     H 5974  10.127   3.458  11.031 -1.0502 -0.2028  0.8824
  785MOL0     H 5975  10.287   3.512  10.842  0.5454  1.2977 -2.9587
  786MOL0     O 5976   0.257   4.927   2.797  0.4572 -0.2477  0.7057
  786MOL0     C 5977   0.253   5.032   2.860  0.6327 -0.9704  1.0259
  786MOL0     O 5978   0.364   5.089   2.895  0.0650  0.3452 -0.3379
  786MOL0     C 5979   0.479   5.048   2.831 -0.1301 -0.2341 -0.2867
  786MOL0     C 5980   0.571   4.969   2.899  0.0440  0.9195  0.3989
  786MOL0     C 5981   0.688   4.933   2.844 -0.3919 -0.4099 -0.5083
  786MOL0     C 5982   0.718   4.952   2.709 -0.1259 -0.5704  0.1329
  786MOL0     O 5983   0.831   4.900   2.646 -0.0433 -0.6424  0.1564
  786MOL0     C 5984   0.954   4.934   2.716  0.0499 -0.2210  0.7024
  786MOL0     C 5985   1.064   4.970   2.621  1.5679 -0.8846  0.3225
  786MOL0     C 5986   1.027   5.098   2.559 -0.1377  0.5542 -0.4050
  786MOL0     C 5987   1.134   5.147   2.454  0.3985 -0.0584 -0.2901
  786MOL0     C 5988   1.088   5.274   2.381  0.7286  0.0936 -0.8542
  786MOL0     C 5989   0.992   5.230   2.270  0.8324 -1.0902 -0.1598
  786MOL0     C 5990   0.990   5.343   2.170  0.4128  0.1900  0.2382
  786MOL0     C 5991   0.877   5.339   2.061 -0.1008 -0.2838 -0.9459
  786MOL0     N 5992   0.846   5.472   2.012  0.3233 -0.2093 -0.0281
  786MOL0     C 5993   0.758   5.565   2.062  0.3678  1.2112 -1.0489
  786MOL0     C 5994   0.780   5.671   1.985 -0.3728  0.0842  0.3220
  786MOL0     C 5995   0.684   5.790   1.984  0.5312 -0.8713 -0.2736
  786MOL0     C 5996   0.709   5.874   2.111  1.0763 -0.2287  0.2462
  786MOL0     C 5997   0.596   5.845   2.211  0.1492 -0.2065  0.1458
  786MOL0     C 5998   0.589   5.933   2.335  0.2026 -0.2112 -0.2160
  786MOL0     O 5999   0.583   6.069   2.304  0.7056 -0.7006  0.0289
  786MOL0     C 6000   0.619   6.169   2.395 -0.0180  0.0845  0.5128
  786MOL0     C 6001   0.680   6.140   2.516  0.3098 -0.4223 -0.2830
  786MOL0     C 6002   0.724   6.245   2.603  0.3440 -1.0698  0.2665
  786MOL0     C 6003   0.750   6.208   2.740  0.0473  0.2154 -0.3660
  786MOL0     C 6004   0.717   6.382   2.553  0.6068 -1.0369  0.1112
  786MOL0     C 6005   0.771   6.498   2.624  0.4443  0.6334  0.5277
  786MOL0     O 6006   0.682   6.597   2.626  0.2332 -0.4422  0.7048
  786MOL0     C 6007   0.724   6.723   2.623  0.8707 -0.6465  0.2739
  786MOL0     C 6008   0.646   6.817   2.686 -0.1394 -0.3874  0.6532
  786MOL0     C 6009   0.661   6.952   2.652  1.0602 -0.0267  0.9460
  786MOL0     C 6010   0.756   6.994   2.553 -0.0120  0.8140 -0.3853
  786MOL0     O 6011   0.772   7.121   2.506  0.4986  0.4530  0.5100
  786MOL0     C 6012   0.673   7.216   2.543  0.2138  0.0505  0.6971
  786MOL0     C 6013   0.727   7.358   2.529 -0.5730  0.6054  0.1331
  786MOL0     C 6014   0.616   7.461   2.504 -0.8414 -0.3461 -0.1301
  786MOL0     C 6015   0.677   7.599   2.466 -0.4817 -0.2396 -0.1027
  786MOL0     C 6016   0.552   7.688   2.426  0.4382  0.3353 -0.2044
  786MOL0     C 6017   0.609   7.818   2.357 -1.3158 -0.1463 -0.0883
  786MOL0     C 6018   0.498   7.925   2.338  0.4864  0.5295 -0.3372
  786MOL0     C 6019   0.557   8.061   2.297  0.3541  0.0407  0.3678
  786MOL0    Cl 6020   0.440   8.200   2.312 -0.3969 -0.0080 -0.0721
  786MOL0     C 6021   0.840   6.898   2.505 -0.1999  0.1375 -0.3346
  786MOL0     C 6022   0.820   6.769   2.538 -0.4423  1.1820  0.1652
  786MOL0     O 6023   0.892   6.501   2.656 -0.2299 -0.3991  0.1386
  786MOL0     C 6024   0.663   6.410   2.428  0.8536  0.2708  0.5812
  786MOL0     C 6025   0.602   6.304   2.359 -0.2432  0.6361  0.3596
  786MOL0     N 6026   0.881   5.647   1.897 -0.2633 -0.8018  0.0820
  786MOL0     N 6027   0.929   5.533   1.916 -0.6576 -0.4422 -0.2443
  786MOL0     C 6028   0.631   5.034   2.636  0.3004  1.0811  0.1785
  786MOL0     C 6029   0.518   5.090   2.701  0.6119  0.3676  0.1378
  786MOL0     C 6030   0.120   5.094   2.910  0.0354  0.0491 -0.7080
  786MOL0     C 6031   0.105   5.205   3.003  0.2569 -0.7541  0.1485
  786MOL0     C 6032  -0.020   5.250   3.036 -0.1055 -0.3431  0.1744
  786MOL0     C 6033  -0.140   5.209   2.974  0.0068  0.5286 -0.3917
  786MOL0     O 6034  -0.267   5.261   2.996  0.1386 -0.3298 -0.4697
  786MOL0     C 6035  -0.284   5.392   3.070  0.0522 -0.3168 -0.3773
  786MOL0     C 6036  -0.357   5.475   2.966  0.5138 -0.4677 -0.6806
  786MOL0     C 6037  -0.374   5.612   3.044  1.4249  0.3781 -0.3703
  786MOL0     C 6038  -0.484   5.598   3.164 -0.0894  0.4312  0.3476
  786MOL0     C 6039  -0.423   5.653   3.280  0.2077  0.3176 -0.3156
  786MOL0     C 6040  -0.376   5.724   3.373 -0.2327  0.3264  0.1017
  786MOL0     C 6041  -0.125   5.098   2.890 -0.9015  0.1132  0.2266
  786MOL0     C 6042  -0.001   5.044   2.856 -1.1237  0.1134  0.5076
  786MOL0     H 6043   0.562   4.946   3.005  2.7719 -0.2009  0.4641
  786MOL0     H 6044   0.747   4.863   2.902  1.0260  0.2902 -1.0508
  786MOL0     H 6045   0.943   5.012   2.791  0.2921  1.4388 -0.9055
  786MOL0     H 6046   0.997   4.849   2.770 -2.1618 -1.2940  0.8752
  786MOL0     H 6047   1.158   4.966   2.675  1.5324 -1.4921  0.3534
  786MOL0     H 6048   1.069   4.889   2.547  5.0589 -2.6048  2.2059
  786MOL0     H 6049   0.926   5.087   2.517  0.1775 -0.3078 -0.9559
  786MOL0     H 6050   1.018   5.179   2.631 -3.5551  0.2997 -0.3684
  786MOL0     H 6051   1.213   5.185   2.518 -1.0849 -0.8378  2.1113
  786MOL0     H 6052   1.160   5.063   2.388  1.4160  0.7731 -0.9690
  786MOL0     H 6053   1.027   5.340   2.445 -1.5938 -0.1756 -2.6306
  786MOL0     H 6054   1.177   5.328   2.348  0.2973  1.2697 -0.1732
  786MOL0     H 6055   1.016   5.136   2.220 -0.4776 -2.4331  1.6122
  786MOL0     H 6056   0.891   5.202   2.303 -0.1763 -1.2633 -3.0914
  786MOL0     H 6057   0.974   5.434   2.228  0.5863  0.2759  0.1514
  786MOL0     H 6058   1.089   5.342   2.122 -0.1494  0.7137 -0.9797
  786MOL0     H 6059   0.788   5.287   2.097 -0.7432  0.1009 -1.9432
  786MOL0     H 6060   0.921   5.283   1.979  3.4384  2.2306 -1.0004
  786MOL0     H 6061   0.675   5.552   2.131  2.1776 -0.5793  0.9364
  786MOL0     H 6062   0.716   5.870   1.916  0.8224  0.4436  1.3453
  786MOL0     H 6063   0.581   5.755   1.970  0.0148 -0.7414  2.6964
  786MOL0     H 6064   0.706   5.981   2.090 -1.1691 -0.4027 -0.6147
  786MOL0     H 6065   0.807   5.849   2.154  2.2769  1.5271 -1.3144
  786MOL0     H 6066   0.582   5.743   2.248 -5.0963  0.1207 -0.1659
  786MOL0     H 6067   0.502   5.853   2.157  0.1429 -1.7809 -0.1158
  786MOL0     H 6068   0.683   5.919   2.389  0.3065 -3.5060 -1.0422
  786MOL0     H 6069   0.508   5.909   2.403 -0.5362 -0.7611 -1.2600
  786MOL0     H 6070   0.690   6.043   2.564  1.2351  0.4616  1.4087
  786MOL0     H 6071   0.666   6.177   2.803  1.0748 -3.3576 -0.5548
  786MOL0     H 6072   0.811   6.118   2.747  0.8680  0.7081 -0.9307
  786MOL0     H 6073   0.801   6.288   2.794  0.2475  0.4852 -0.9465
  786MOL0     H 6074   0.577   6.773   2.757  2.0046 -1.5337  2.1134
  786MOL0     H 6075   0.584   7.013   2.698 -0.4078 -0.9647 -0.1714
  786MOL0     H 6076   0.580   7.197   2.488 -0.1319 -1.3008  1.6957
  786MOL0     H 6077   0.645   7.195   2.646 -2.9404  1.6799  0.2942
  786MOL0     H 6078   0.805   7.377   2.603 -1.4215 -0.3103  1.3076
  786MOL0     H 6079   0.776   7.362   2.432 -0.3640 -1.0759  0.1350
  786MOL0     H 6080   0.562   7.476   2.598  0.4108 -0.7699  0.6909
  786MOL0     H 6081   0.546   7.424   2.429 -2.2450  3.0533 -0.6953
  786MOL0     H 6082   0.733   7.648   2.546 -0.9998 -0.0033  0.1188
  786MOL0     H 6083   0.747   7.581   2.383  1.6294  1.7866  1.1273
  786MOL0     H 6084   0.497   7.705   2.518 -0.8449 -1.0109 -0.6700
  786MOL0     H 6085   0.488   7.634   2.355 -0.3523  2.4007 -1.1400
  786MOL0     H 6086   0.688   7.862   2.417 -0.0609 -4.2642  1.6375
  786MOL0     H 6087   0.644   7.792   2.256  0.6260 -1.0265  0.7809
  786MOL0     H 6088   0.451   7.943   2.435 -1.6974 -0.4479 -1.1610
  786MOL0     H 6089   0.423   7.892   2.265  0.1950  1.3585 -0.4192
  786MOL0     H 6090   0.587   8.047   2.193  3.9132  0.5927  1.1889
  786MOL0     H 6091   0.633   8.077   2.374 -0.6069  0.9749  1.1373
  786MOL0     H 6092   0.921   6.932   2.442 -0.8112 -2.5239 -2.7967
  786MOL0     H 6093   0.870   6.700   2.472 -0.5903  0.8972  0.3510
  786MOL0     H 6094   0.642   6.507   2.383 -2.9587  0.0966  1.6390
  786MOL0     H 6095   0.564   6.324   2.260 -1.3076 -2.2914  0.0803
  786MOL0     H 6096   0.652   5.053   2.532 -3.1013 -1.9528 -1.3015
  786MOL0     H 6097   0.450   5.154   2.645  0.0175 -0.6286 -0.3161
  786MOL0     H 6098   0.187   5.261   3.048 -0.1689  2.8943 -3.0962
  786MOL0     H 6099  -0.027   5.327   3.112 -2.0580  0.3867 -0.6618
  786MOL0     H 6100  -0.345   5.370   3.158  0.2279  0.3019 -0.0945
  786MOL0     H 6101  -0.193   5.439   3.108  0.5939 -2.5363  1.2835
  786MOL0     H 6102  -0.455   5.429   2.952  0.0541  0.8097 -1.9139
  786MOL0     H 6103  -0.310   5.479   2.867 -2.6959 -1.6383 -2.4094
  786MOL0     H 6104  -0.407   5.692   2.976  2.0874  0.9377 -0.0441
  786MOL0     H 6105  -0.277   5.649   3.079  2.3928 -1.9169 -0.4465
  786MOL0     H 6106  -0.506   5.495   3.194  2.2789 -0.8923 -2.0954
  786MOL0     H 6107  -0.576   5.647   3.131 -0.4576 -0.6980 -0.3692
  786MOL0     H 6108  -0.337   5.796   3.442 -0.4727  1.4893 -0.9291
  786MOL0     H 6109  -0.208   5.055   2.835 -0.4289 -0.4556 -0.0476
  786MOL0     H 6110  -0.002   4.959   2.788 -1.0342  0.3805  0.1721
  787MOL0     O 6111   3.739   8.040   7.362  0.4409 -1.1509  0.6127
  787MOL0     C 6112   3.811   8.040   7.258  0.1037  0.0527 -0.6855
  787MOL0     O 6113   3.811   8.124   7.159  0.0244  0.4401  0.5457
  787MOL0     C 6114   3.727   8.233   7.162  0.7629  0.4534 -1.1619
  787MOL0     C 6115   3.779   8.356   7.138 -0.3187 -0.5358 -0.9098
  787MOL0     C 6116   3.692   8.472   7.128  0.5419  0.3791  0.2904
  787MOL0     C 6117   3.551   8.461   7.160 -1.2044 -0.3172  0.7591
  787MOL0     O 6118   3.459   8.559   7.183  0.0492 -0.0840  0.4499
  787MOL0     C 6119   3.455   8.663   7.087  0.7401  0.2725 -0.2117
  787MOL0     C 6120   3.382   8.597   6.959 -0.2633 -1.0986  0.1705
  787MOL0     C 6121   3.336   8.705   6.871 -0.4976 -0.3347  0.5897
  787MOL0     C 6122   3.260   8.655   6.748  0.0711 -0.2564 -0.2882
  787MOL0     C 6123   3.180   8.774   6.693  0.6296 -0.2993 -0.0610
  787MOL0     C 6124   3.085   8.725   6.583 -0.1161  0.6732 -0.4198
  787MOL0     C 6125   2.991   8.829   6.527 -0.4196  0.1961  0.2843
  787MOL0     C 6126   3.058   8.952   6.478 -0.2574 -1.0439  0.8032
  787MOL0     N 6127   2.967   9.035   6.400  0.4360 -0.3565  0.1186
  787MOL0     C 6128   2.914   9.005   6.272 -0.1178  0.0398 -0.7155
  787MOL0     C 6129   2.844   9.116   6.239 -0.2386 -0.0161  0.1175
  787MOL0     C 6130   2.760   9.122   6.116  0.8267 -0.5881 -0.3086
  787MOL0     C 6131   2.839   9.091   5.989  0.0284  0.0452 -0.5863
  787MOL0     C 6132   2.907   9.219   5.935  0.5941  0.0197 -0.6190
  787MOL0     C 6133   3.028   9.264   6.013  0.1345  0.0646 -0.4088
  787MOL0     O 6134   3.120   9.162   6.049 -0.1653 -0.5684 -0.0982
  787MOL0     C 6135   3.178   9.153   6.166  0.1836 -1.2293 -0.4258
  787MOL0     C 6136   3.258   9.047   6.172 -0.7644 -0.2973 -0.5299
  787MOL0     C 6137   3.367   9.045   6.260  0.2384  0.2603 -0.0951
  787MOL0     C 6138   3.425   8.907   6.288  0.0076  1.3157 -0.7840
  787MOL0     C 6139   3.372   9.145   6.354 -0.3124  0.2637 -0.1604
  787MOL0     C 6140   3.455   9.143   6.470 -0.9374  0.2600  0.4675
  787MOL0     O 6141   3.385   9.153   6.578  0.6972 -0.2535 -0.5777
  787MOL0     C 6142   3.440   9.162   6.704  0.2197  0.2982 -0.1895
  787MOL0     C 6143   3.412   9.070   6.801  0.3032  0.3378 -0.4627
  787MOL0     C 6144   3.471   9.086   6.932 -0.5368  0.6567  0.5767
  787MOL0     C 6145   3.556   9.192   6.961 -0.2852 -0.4990 -0.2262
  787MOL0     O 6146   3.610   9.196   7.084  0.5130  0.3854 -0.4061
  787MOL0     C 6147   3.726   9.280   7.133  0.0530 -0.8421  0.0428
  787MOL0     C 6148   3.801   9.192   7.237 -0.4143  0.1494  0.4245
  787MOL0     C 6149   3.938   9.134   7.189  0.1060 -0.1816 -0.2525
  787MOL0     C 6150   3.907   9.017   7.091 -0.2875  0.2520  1.0854
  787MOL0     C 6151   4.024   8.978   6.993 -0.2082  0.0469 -0.5365
  787MOL0     C 6152   3.983   8.906   6.869 -0.2893  0.2288  0.7308
  787MOL0     C 6153   4.096   8.899   6.766 -0.1325 -0.1929  0.0978
  787MOL0     C 6154   4.080   8.786   6.667  0.6042  0.9863 -0.4654
  787MOL0    Cl 6155   4.239   8.759   6.594 -0.3584 -0.1105  0.2364
  787MOL0     C 6156   3.591   9.282   6.853 -0.7185  0.2120 -0.0032
  787MOL0     C 6157   3.526   9.263   6.729 -1.1156  0.4147 -0.1510
  787MOL0     O 6158   3.574   9.144   6.455 -0.2934  0.1081  0.3203
  787MOL0     C 6159   3.282   9.257   6.355 -0.1783 -0.0045 -1.1632
  787MOL0     C 6160   3.179   9.260   6.265  0.1030 -0.8920  0.0802
  787MOL0     N 6161   2.853   9.206   6.348  0.6671 -0.1686 -0.1101
  787MOL0     N 6162   2.921   9.155   6.449  0.1007 -0.8083 -0.1752
  787MOL0     C 6163   3.507   8.337   7.181 -0.2402  0.4804 -0.2607
  787MOL0     C 6164   3.588   8.230   7.188  0.8742 -0.6619 -0.9280
  787MOL0     C 6165   3.906   7.927   7.239  0.5422 -0.1137 -0.8173
  787MOL0     C 6166   3.920   7.828   7.337 -0.2601  0.2953 -0.2498
  787MOL0     C 6167   4.013   7.725   7.316 -1.5021  0.0843 -0.4179
  787MOL0     C 6168   4.070   7.703   7.187  0.0189  0.1731  0.0800
  787MOL0     O 6169   4.159   7.597   7.156 -0.9773 -0.2934 -0.2832
  787MOL0     C 6170   4.244   7.538   7.259  0.5979  0.0796 -0.2188
  787MOL0     C 6171   4.378   7.515   7.210 -0.3264  0.0706  0.4551
  787MOL0     C 6172   4.408   7.395   7.116 -0.3332 -0.0618  0.3527
  787MOL0     C 6173   4.562   7.383   7.097  0.2325  0.6566 -0.8635
  787MOL0     C 6174   4.582   7.286   6.987 -0.4207 -0.1886 -0.1324
  787MOL0     C 6175   4.590   7.222   6.884  0.4554  0.2921 -0.3804
  787MOL0     C 6176   4.046   7.799   7.083  0.6186  0.3053 -0.6802
  787MOL0     C 6177   3.968   7.914   7.107 -0.2279  0.6606  0.3447
  787MOL0     H 6178   3.884   8.359   7.111 -0.7678  4.0342 -3.1083
  787MOL0     H 6179   3.722   8.573   7.103  1.8424  0.8154  3.2008
  787MOL0     H 6180   3.376   8.730   7.125  0.4864  0.2003 -0.6018
  787MOL0     H 6181   3.549   8.716   7.070  1.6049 -0.2230  2.4871
  787MOL0     H 6182   3.443   8.515   6.921 -1.6293 -2.0312 -0.0514
  787MOL0     H 6183   3.291   8.544   6.988 -2.0488 -0.4387 -3.5944
  787MOL0     H 6184   3.267   8.765   6.931 -1.7133 -1.2175  0.1275
  787MOL0     H 6185   3.418   8.768   6.836 -1.3848  2.6765  3.4114
  787MOL0     H 6186   3.311   8.604   6.666 -0.8817 -1.1631 -0.3532
  787MOL0     H 6187   3.191   8.581   6.791 -0.8045  1.6624  1.8265
  787MOL0     H 6188   3.113   8.807   6.773  0.7036  1.2607 -0.6189
  787MOL0     H 6189   3.237   8.863   6.664 -2.0286  1.1970 -1.1137
  787MOL0     H 6190   3.136   8.688   6.493 -0.6809  0.6511 -0.7332
  787MOL0     H 6191   3.019   8.648   6.625 -0.1854  1.6708  1.4215
  787MOL0     H 6192   2.921   8.789   6.453  1.4715 -2.0747 -0.4221
  787MOL0     H 6193   2.925   8.858   6.609  2.5709  1.0048  2.5819
  787MOL0     H 6194   3.148   8.922   6.424  0.1463 -0.4774  1.1424
  787MOL0     H 6195   3.086   9.019   6.560  0.5325 -1.2494  0.7053
  787MOL0     H 6196   2.917   8.914   6.213 -0.2889 -0.5383  0.1557
  787MOL0     H 6197   2.678   9.052   6.137  0.1052  0.4318  0.3999
  787MOL0     H 6198   2.735   9.228   6.123  2.7092  0.0414 -2.2522
  787MOL0     H 6199   2.764   9.061   5.915  2.1477  1.4601 -3.5276
  787MOL0     H 6200   2.904   9.003   5.989  0.4791  0.3678  0.4101
  787MOL0     H 6201   2.829   9.295   5.936 -1.4028 -1.8612  1.4234
  787MOL0     H 6202   2.938   9.196   5.833  0.0872 -2.0064 -0.3691
  787MOL0     H 6203   2.983   9.315   6.098 -0.8519 -0.7339 -0.4269
  787MOL0     H 6204   3.074   9.345   5.955  2.1529 -0.7707 -0.0777
  787MOL0     H 6205   3.247   8.970   6.096  1.3036  0.2345 -1.4309
  787MOL0     H 6206   3.489   8.911   6.377  1.8377  0.5421 -2.0167
  787MOL0     H 6207   3.358   8.826   6.317  2.0261 -0.3092 -0.3831
  787MOL0     H 6208   3.484   8.870   6.203 -0.9379 -1.0576 -0.4830
  787MOL0     H 6209   3.343   8.988   6.787 -1.4201  1.2841  1.8361
  787MOL0     H 6210   3.453   9.018   7.014 -0.6098 -0.4515 -0.3399
  787MOL0     H 6211   3.792   9.323   7.057 -0.8611 -0.2072 -0.4024
  787MOL0     H 6212   3.683   9.358   7.195 -0.8015 -0.4419 -1.0314
  787MOL0     H 6213   3.827   9.237   7.333  0.8684 -0.1681  0.2443
  787MOL0     H 6214   3.736   9.109   7.268  1.8150 -2.4520 -1.3919
  787MOL0     H 6215   4.004   9.107   7.273  2.7865  0.6846 -1.9519
  787MOL0     H 6216   3.992   9.219   7.147 -1.4735  1.5854  1.1256
  787MOL0     H 6217   3.874   8.931   7.149 -3.7842  0.4361 -0.3735
  787MOL0     H 6218   3.827   9.046   7.022  0.3820 -0.8682 -0.2111
  787MOL0     H 6219   4.096   8.919   7.050 -1.4083 -0.4632  0.4708
  787MOL0     H 6220   4.084   9.065   6.961 -1.1639  0.5224 -1.0797
  787MOL0     H 6221   3.950   8.805   6.895  0.5411  0.4601  2.8442
  787MOL0     H 6222   3.896   8.959   6.828  0.5069 -1.1419 -3.2396
  787MOL0     H 6223   4.183   8.891   6.832 -1.8744  2.3087  3.0055
  787MOL0     H 6224   4.116   8.992   6.712  1.7939  1.1624  2.9109
  787MOL0     H 6225   4.012   8.802   6.583 -2.2974  3.2181  2.1244
  787MOL0     H 6226   4.068   8.690   6.718 -1.6914  2.1362  1.3452
  787MOL0     H 6227   3.654   9.367   6.877 -2.7578  1.5198  0.9534
  787MOL0     H 6228   3.549   9.334   6.650  2.3536  0.0298  0.3755
  787MOL0     H 6229   3.298   9.338   6.425  4.3092 -1.6069  0.0337
  787MOL0     H 6230   3.118   9.349   6.254  0.3603 -0.6708  0.4338
  787MOL0     H 6231   3.401   8.318   7.196 -0.0837 -0.6842 -0.5340
  787MOL0     H 6232   3.528   8.145   7.219  0.0945  0.3069  0.3021
  787MOL0     H 6233   3.868   7.832   7.432 -1.4753 -1.8780 -0.7714
  787MOL0     H 6234   4.033   7.657   7.398 -2.3034 -0.8079 -0.9227
  787MOL0     H 6235   4.237   7.604   7.346  0.6350 -1.5156  1.0422
  787MOL0     H 6236   4.185   7.455   7.298 -3.6694  3.6570  1.8952
  787MOL0     H 6237   4.431   7.514   7.305  1.6738  1.1225 -0.5843
  787MOL0     H 6238   4.406   7.602   7.150 -0.4299 -0.0190  0.2739
  787MOL0     H 6239   4.358   7.400   7.019  3.5209  0.8692 -1.7641
  787MOL0     H 6240   4.373   7.308   7.172  1.4515 -1.1312 -0.1297
  787MOL0     H 6241   4.610   7.352   7.190  0.9910  2.5369 -0.5896
  787MOL0     H 6242   4.598   7.480   7.061 -0.0021  1.3401  0.6422
  787MOL0     H 6243   4.594   7.135   6.821 -0.2208  0.7202 -1.0328
  787MOL0     H 6244   4.096   7.781   6.988 -0.3743  0.1639 -1.1953
  787MOL0     H 6245   3.943   7.986   7.030  2.1230  0.5908 -0.5493
  788MOL0     O 6246   4.045   0.961   1.916 -0.1669  0.6392 -0.4800
  788MOL0     C 6247   4.116   0.859   1.932  0.4855  0.4189  0.1492
  788MOL0     O 6248   4.070   0.733   1.973  0.1325  0.3409 -0.0498
  788MOL0     C 6249   3.947   0.729   2.029 -0.4040  0.2894  0.7050
  788MOL0     C 6250   3.870   0.614   1.991 -0.5074  0.3892 -0.4963
  788MOL0     C 6251   3.741   0.608   2.029 -0.0323 -0.1175  0.0878
  788MOL0     C 6252   3.685   0.702   2.118 -0.0234  0.5083 -1.2708
  788MOL0     O 6253   3.548   0.705   2.140 -0.7175 -0.2817 -0.3984
  788MOL0     C 6254   3.517   0.759   2.275  0.8307  0.3281  0.9051
  788MOL0     C 6255   3.371   0.745   2.321 -0.2094  0.2042  0.0996
  788MOL0     C 6256   3.343   0.833   2.456  0.3008  0.1768 -0.2099
  788MOL0     C 6257   3.191   0.835   2.493  0.8586  0.4245  0.9422
  788MOL0     C 6258   3.107   0.955   2.451  0.1972  0.2983 -0.1604
  788MOL0     C 6259   3.131   1.071   2.546 -0.0584 -0.3309  1.0434
  788MOL0     C 6260   3.083   1.208   2.491 -0.2954 -0.1506  0.0950
  788MOL0     C 6261   3.106   1.321   2.600  0.9255  0.4582 -0.3008
  788MOL0     N 6262   3.026   1.301   2.722 -0.1085 -0.6836 -0.6484
  788MOL0     C 6263   2.902   1.251   2.741  0.3470  0.1124 -0.0341
  788MOL0     C 6264   2.865   1.267   2.871  0.5915  0.2265  0.1726
  788MOL0     C 6265   2.731   1.227   2.932  0.0477  0.0309 -0.6035
  788MOL0     C 6266   2.733   1.227   3.083 -0.2784 -0.8387 -0.3437
  788MOL0     C 6267   2.819   1.122   3.152  0.0645  0.8673 -0.1531
  788MOL0     C 6268   2.894   1.186   3.275  0.6962  1.0603  0.9123
  788MOL0     O 6269   2.942   1.092   3.366  0.5471 -1.0163 -0.5428
  788MOL0     C 6270   2.866   1.054   3.475  1.1179 -0.4385  0.3464
  788MOL0     C 6271   2.727   1.038   3.479 -0.7819 -0.2461  0.6096
  788MOL0     C 6272   2.653   1.012   3.595  0.6408  0.5849 -0.2237
  788MOL0     C 6273   2.501   1.006   3.584  0.6354 -0.5808  0.5554
  788MOL0     C 6274   2.731   0.999   3.720 -0.0049  0.0241 -0.4440
  788MOL0     C 6275   2.658   0.954   3.852 -0.3748 -0.6723  0.0266
  788MOL0     O 6276   2.741   0.905   3.953  0.0487  0.3090 -0.3236
  788MOL0     C 6277   2.690   0.867   4.072 -0.1158  0.3371 -0.6959
  788MOL0     C 6278   2.778   0.903   4.179  0.9675  0.2740  0.3616
  788MOL0     C 6279   2.729   0.862   4.304 -0.1650 -0.4667  0.2302
  788MOL0     C 6280   2.615   0.792   4.332  1.3008  0.0702 -0.2687
  788MOL0     O 6281   2.596   0.757   4.464 -0.4544  0.3561 -0.2628
  788MOL0     C 6282   2.551   0.863   4.546  0.1019 -0.8916 -1.0320
  788MOL0     C 6283   2.503   0.799   4.682  0.5546  0.7662 -0.3492
  788MOL0     C 6284   2.347   0.778   4.696  1.0115 -0.6479  0.1648
  788MOL0     C 6285   2.252   0.859   4.606 -0.3713 -0.5309  0.0611
  788MOL0     C 6286   2.114   0.848   4.662 -0.4958  0.2122 -0.2476
  788MOL0     C 6287   2.016   0.922   4.574 -0.3924 -0.4383  1.0320
  788MOL0     C 6288   1.877   0.882   4.596  0.0829 -0.4807 -0.3760
  788MOL0     C 6289   1.788   0.971   4.520  0.1049  0.8927  0.9962
  788MOL0    Cl 6290   1.796   1.147   4.554  0.3113  0.2496 -0.4179
  788MOL0     C 6291   2.534   0.762   4.222 -0.1752 -0.2908  0.0256
  788MOL0     C 6292   2.574   0.803   4.094  0.4161  1.1822 -0.4568
  788MOL0     O 6293   2.539   0.985   3.868 -0.7352  0.1834 -0.0856
  788MOL0     C 6294   2.872   1.021   3.710 -0.4867 -0.1408  1.0870
  788MOL0     C 6295   2.939   1.043   3.587 -0.1047  0.5374 -0.1039
  788MOL0     N 6296   2.971   1.321   2.938  0.3982  0.0669 -0.2886
  788MOL0     N 6297   3.071   1.323   2.851  0.4602 -0.3726  0.2430
  788MOL0     C 6298   3.773   0.796   2.178  0.7278 -0.5856  1.0250
  788MOL0     C 6299   3.904   0.819   2.124  0.0062 -0.0997 -1.2419
  788MOL0     C 6300   4.259   0.884   1.897  0.0931  0.8623 -0.2746
  788MOL0     C 6301   4.351   0.774   1.908  1.2488 -0.4513  1.0939
  788MOL0     C 6302   4.480   0.784   1.863 -0.2270  0.2358 -0.5184
  788MOL0     C 6303   4.525   0.904   1.803  0.3104 -0.2893  0.0528
  788MOL0     O 6304   4.654   0.905   1.769 -0.1995  0.1035  0.9180
  788MOL0     C 6305   4.716   1.031   1.765 -0.6902  0.3279 -0.1317
  788MOL0     C 6306   4.733   1.049   1.615  0.3612  1.0722 -0.4558
  788MOL0     C 6307   4.811   0.928   1.555  0.7894 -0.1446 -0.5125
  788MOL0     C 6308   4.840   0.944   1.406  0.0558 -0.2884  0.2959
  788MOL0     C 6309   4.939   1.053   1.369 -0.2657  0.5831 -0.8876
  788MOL0     C 6310   5.034   1.128   1.338  1.1087  0.5972  1.0251
  788MOL0     C 6311   4.432   1.011   1.788  0.1349 -0.0505  0.3388
  788MOL0     C 6312   4.296   0.991   1.819 -1.5778  0.1814 -0.1119
  788MOL0     H 6313   3.909   0.537   1.926 -0.1690  1.6910 -1.9081
  788MOL0     H 6314   3.678   0.533   1.981  1.0703  0.4271 -2.3044
  788MOL0     H 6315   3.576   0.708   2.352 -1.4474 -0.6729  2.0744
  788MOL0     H 6316   3.547   0.865   2.280  4.9976 -0.3898 -2.9140
  788MOL0     H 6317   3.305   0.777   2.239  1.1939  0.0834 -1.1242
  788MOL0     H 6318   3.341   0.642   2.339  1.9611 -0.1205  2.3018
  788MOL0     H 6319   3.408   0.798   2.537  2.0602  1.8142 -0.8289
  788MOL0     H 6320   3.365   0.939   2.435  0.3456  0.2615  0.2638
  788MOL0     H 6321   3.136   0.750   2.452 -1.3914  2.3138 -0.1285
  788MOL0     H 6322   3.179   0.841   2.602 -0.5676 -0.9429  0.8894
  788MOL0     H 6323   3.147   0.991   2.356  4.4487  0.8278  1.5987
  788MOL0     H 6324   3.002   0.927   2.437 -0.1098  1.4929 -0.3853
  788MOL0     H 6325   3.082   1.048   2.641 -2.4670 -3.5086 -0.7550
  788MOL0     H 6326   3.237   1.071   2.573  0.4025  3.6132 -0.0718
  788MOL0     H 6327   3.136   1.243   2.402 -2.3407 -0.8492 -1.4861
  788MOL0     H 6328   2.977   1.190   2.470 -0.9182 -2.0975  4.0043
  788MOL0     H 6329   3.080   1.417   2.554  1.3402  0.3773 -0.7057
  788MOL0     H 6330   3.213   1.331   2.620  0.9938  2.7669 -1.4215
  788MOL0     H 6331   2.840   1.197   2.669  1.6694 -0.8072 -0.5147
  788MOL0     H 6332   2.651   1.290   2.890  0.7691  1.9107  0.6983
  788MOL0     H 6333   2.723   1.123   2.900 -1.7415 -0.5436  1.4724
  788MOL0     H 6334   2.629   1.222   3.117 -1.4880  0.3335 -3.4612
  788MOL0     H 6335   2.767   1.328   3.103 -0.7958 -1.0509  1.8266
  788MOL0     H 6336   2.899   1.105   3.080  0.6030  3.6269 -0.3316
  788MOL0     H 6337   2.764   1.035   3.188 -1.6360  1.9680  0.0579
  788MOL0     H 6338   2.830   1.259   3.325 -2.4415  3.3581 -5.3194
  788MOL0     H 6339   2.978   1.238   3.229  1.3264 -1.4541 -1.0525
  788MOL0     H 6340   2.666   1.056   3.391  0.8473 -1.7110 -0.8846
  788MOL0     H 6341   2.463   1.022   3.483 -0.4593  0.5167  1.1063
  788MOL0     H 6342   2.452   0.923   3.636 -0.4380 -0.5140 -0.3071
  788MOL0     H 6343   2.459   1.089   3.641 -0.5425 -0.2019 -0.8111
  788MOL0     H 6344   2.863   0.969   4.167  0.5390  0.5828 -1.1782
  788MOL0     H 6345   2.789   0.889   4.391 -2.1095  1.7734  0.9857
  788MOL0     H 6346   2.625   0.941   4.563 -2.3748  0.7512  4.0180
  788MOL0     H 6347   2.481   0.918   4.482  1.4478 -1.7189 -3.3652
  788MOL0     H 6348   2.554   0.704   4.703 -1.7007 -0.2372  1.0054
  788MOL0     H 6349   2.537   0.861   4.765 -0.0232  0.8463 -0.1726
  788MOL0     H 6350   2.320   0.809   4.797  0.0589  1.3086 -0.6379
  788MOL0     H 6351   2.320   0.673   4.678  0.9753 -0.3710 -1.6058
  788MOL0     H 6352   2.285   0.962   4.599 -0.0840 -0.5524  0.9112
  788MOL0     H 6353   2.248   0.816   4.506 -1.7274  1.8752 -0.9785
  788MOL0     H 6354   2.105   0.887   4.764  2.7331 -0.4123  0.3633
  788MOL0     H 6355   2.096   0.741   4.677  0.1840  0.3576  1.9293
  788MOL0     H 6356   2.030   1.029   4.590  3.2556 -0.4354 -1.0697
  788MOL0     H 6357   2.042   0.906   4.468 -0.1706 -1.5983  1.2472
  788MOL0     H 6358   1.855   0.901   4.702  2.1319 -0.6084  0.1191
  788MOL0     H 6359   1.874   0.774   4.579 -3.9316 -0.6893  0.6678
  788MOL0     H 6360   1.686   0.933   4.521 -0.9558  3.0009 -3.7196
  788MOL0     H 6361   1.817   0.955   4.416 -0.5821  0.2550  0.8933
  788MOL0     H 6362   2.449   0.696   4.234  0.4764 -1.3989 -1.1953
  788MOL0     H 6363   2.527   0.764   4.005 -1.3425 -2.2515  1.7655
  788MOL0     H 6364   2.925   1.010   3.804 -0.7609 -0.3024  1.2246
  788MOL0     H 6365   3.042   1.073   3.597 -0.4474  0.8696  3.8159
  788MOL0     H 6366   3.740   0.862   2.257 -0.2446 -1.2818  1.2187
  788MOL0     H 6367   3.958   0.909   2.152 -1.6605  0.4389  0.4566
  788MOL0     H 6368   4.328   0.698   1.982 -0.7103 -1.4601 -0.4434
  788MOL0     H 6369   4.557   0.711   1.887  0.6331  0.7833 -1.5172
  788MOL0     H 6370   4.666   1.119   1.807  1.0298  2.4130 -2.1731
  788MOL0     H 6371   4.810   1.024   1.821 -0.3067 -1.7665 -0.9445
  788MOL0     H 6372   4.782   1.144   1.591  1.9858  1.1430  2.6256
  788MOL0     H 6373   4.640   1.050   1.557  1.1513  0.8891 -1.7620
  788MOL0     H 6374   4.754   0.835   1.561 -0.8551  0.9152  1.4028
  788MOL0     H 6375   4.910   0.927   1.601  1.0215  4.4308 -0.3848
  788MOL0     H 6376   4.749   0.959   1.346 -0.0342 -2.1981 -0.1052
  788MOL0     H 6377   4.880   0.845   1.382 -1.5330 -1.1175  0.9925
  788MOL0     H 6378   5.111   1.202   1.325 -0.3400  1.9268 -0.3953
  788MOL0     H 6379   4.454   1.084   1.711  0.2385 -1.1545 -0.7193
  788MOL0     H 6380   4.233   1.074   1.791 -0.0917  2.2073  2.1527
  789MOL0     O 6381   9.916   0.898   3.725 -0.3957 -0.2832  0.1073
  789MOL0     C 6382   9.989   0.852   3.824  0.4707  0.3144 -0.3706
  789MOL0     O 6383  10.088   0.765   3.816  0.2291 -0.0268  0.1383
  789MOL0     C 6384  10.139   0.722   3.695 -0.4099 -0.3646  0.0191
  789MOL0     C 6385  10.239   0.636   3.728 -0.4092 -0.3615 -0.8107
  789MOL0     C 6386  10.338   0.587   3.634  0.6694  0.5282  0.0971
  789MOL0     C 6387  10.339   0.647   3.504 -0.5085  0.0127  0.5662
  789MOL0     O 6388  10.429   0.606   3.409  0.3098  0.9875 -0.4560
  789MOL0     C 6389  10.451   0.689   3.298 -0.3057  1.0612 -0.2368
  789MOL0     C 6390  10.544   0.810   3.326  0.7486  0.4225  0.0733
  789MOL0     C 6391  10.680   0.766   3.353  0.5945 -0.0413 -0.1595
  789MOL0     C 6392  10.771   0.891   3.356 -0.4377 -1.2938  0.0193
  789MOL0     C 6393  10.917   0.836   3.389 -0.8763 -0.1097 -0.7780
  789MOL0     C 6394  10.995   0.938   3.462  0.1078  1.4283  0.5599
  789MOL0     C 6395  11.121   0.871   3.523 -0.3447  0.9073  0.3112
  789MOL0     C 6396  11.215   0.992   3.579  0.2521 -0.2090  0.8754
  789MOL0     N 6397  11.324   0.917   3.656 -0.0098  0.4568 -0.1917
  789MOL0     C 6398  11.457   0.934   3.645 -0.1336 -0.2535 -0.3697
  789MOL0     C 6399  11.504   0.869   3.757 -0.2091 -0.2232  0.6259
  789MOL0     C 6400  11.647   0.843   3.771 -0.7716  0.7144 -0.5959
  789MOL0     C 6401  11.736   0.923   3.686  0.7640 -0.7345  0.0659
  789MOL0     C 6402  11.885   0.892   3.718  0.1190  0.3294  1.8360
  789MOL0     C 6403  11.979   0.960   3.610  1.4887 -0.4687 -0.3433
  789MOL0     O 6404  11.967   0.900   3.482  0.7935 -0.4888  0.0767
  789MOL0     C 6405  12.050   0.942   3.378  0.8819 -0.7511 -0.7715
  789MOL0     C 6406  12.041   0.872   3.262 -0.4824  0.4402 -0.1097
  789MOL0     C 6407  12.105   0.892   3.146 -0.0641 -0.5076 -0.0938
  789MOL0     C 6408  12.065   0.810   3.024 -0.3027  0.0209  0.4981
  789MOL0     C 6409  12.197   1.003   3.145  0.1181  0.2321 -0.2682
  789MOL0     C 6410  12.270   1.041   3.030  0.3816 -0.5417 -0.0578
  789MOL0     O 6411  12.352   0.954   2.966  0.3712  0.3991 -0.0023
  789MOL0     C 6412  12.433   1.005   2.872 -0.5450  0.0420  0.9644
  789MOL0     C 6413  12.409   0.990   2.735 -0.9622 -0.2522 -1.0571
  789MOL0     C 6414  12.501   1.029   2.641 -0.8382 -0.2931  0.2414
  789MOL0     C 6415  12.624   1.098   2.670 -0.1309  0.1022  0.3660
  789MOL0     O 6416  12.721   1.139   2.581  0.1473 -0.6316  0.1937
  789MOL0     C 6417  12.685   1.174   2.451  0.4748  0.6415  0.4159
  789MOL0     C 6418  12.803   1.190   2.354 -0.0153  1.3505  0.3292
  789MOL0     C 6419  12.893   1.059   2.358  0.0555  0.2753  0.5741
  789MOL0     C 6420  12.994   1.071   2.247 -0.5231 -0.4182 -0.3512
  789MOL0     C 6421  13.087   0.945   2.242 -0.1817  0.4978 -1.2642
  789MOL0     C 6422  13.172   0.926   2.109  0.1619  0.3407 -0.1838
  789MOL0     C 6423  13.265   1.039   2.090 -0.1529  0.5527 -0.2145
  789MOL0     C 6424  13.281   1.061   1.945 -0.6478  0.5485 -0.1782
  789MOL0    Cl 6425  13.316   0.922   1.839  0.1304  0.1431 -0.0134
  789MOL0     C 6426  12.651   1.103   2.807  0.5585 -0.3790 -0.9509
  789MOL0     C 6427  12.561   1.064   2.908  0.1582  0.1711  0.8495
  789MOL0     O 6428  12.249   1.157   2.992 -0.2180  0.4843 -0.3165
  789MOL0     C 6429  12.209   1.083   3.256  0.8326 -0.3125  0.2887
  789MOL0     C 6430  12.140   1.049   3.376 -0.0489 -0.0211  0.0471
  789MOL0     N 6431  11.403   0.814   3.823  0.0383 -0.5644 -0.1228
  789MOL0     N 6432  11.295   0.851   3.772  0.2765 -0.0604 -0.3828
  789MOL0     C 6433  10.247   0.748   3.484  1.0899  1.5940  0.8313
  789MOL0     C 6434  10.151   0.785   3.571  1.2373  0.1472 -0.2778
  789MOL0     C 6435   9.937   0.881   3.964 -0.3098 -0.0050  0.1946
  789MOL0     C 6436   9.861   0.999   3.981 -0.8610 -0.1805  0.4061
  789MOL0     C 6437   9.789   1.015   4.096  0.2422 -0.4330  0.6265
  789MOL0     C 6438   9.775   0.913   4.185 -0.0089 -1.5184  0.2132
  789MOL0     O 6439   9.681   0.916   4.275 -0.1355  0.5349 -0.8474
  789MOL0     C 6440   9.678   0.815   4.380  0.9123 -0.6817  0.3597
  789MOL0     C 6441   9.773   0.850   4.504  0.0398  0.6293  0.3528
  789MOL0     C 6442   9.693   0.946   4.612 -0.0763 -0.2954  0.9411
  789MOL0     C 6443   9.700   1.108   4.594 -0.0268  0.2557 -0.1095
  789MOL0     C 6444   9.835   1.141   4.557 -0.0588 -0.1103  0.1300
  789MOL0     C 6445   9.951   1.138   4.529  0.5557 -0.6532 -1.0892
  789MOL0     C 6446   9.867   0.804   4.180 -1.2558  0.1169 -0.4488
  789MOL0     C 6447   9.944   0.787   4.064 -0.2128  0.6152 -0.6278
  789MOL0     H 6448  10.238   0.584   3.823 -3.4186 -0.6907 -0.9317
  789MOL0     H 6449  10.397   0.501   3.664 -1.9610 -1.3424  0.2751
  789MOL0     H 6450  10.502   0.615   3.236 -1.9381 -0.3725  0.0429
  789MOL0     H 6451  10.359   0.719   3.247 -0.3405 -2.0536 -2.3105
  789MOL0     H 6452  10.544   0.883   3.244  0.6560 -0.2552 -0.5428
  789MOL0     H 6453  10.516   0.860   3.418  2.3001 -2.5334  2.3311
  789MOL0     H 6454  10.667   0.714   3.448 -0.6277  2.6131  1.2290
  789MOL0     H 6455  10.721   0.698   3.277  0.8619 -0.5475  0.4290
  789MOL0     H 6456  10.766   0.969   3.279  0.3551  1.3250  2.4444
  789MOL0     H 6457  10.737   0.944   3.446  1.0937  1.4240 -0.8767
  789MOL0     H 6458  10.898   0.749   3.453  0.2681 -0.1930 -0.5266
  789MOL0     H 6459  10.984   0.795   3.313  1.6881 -0.0688  1.3076
  789MOL0     H 6460  11.018   1.025   3.399 -1.3149  1.4426  0.0161
  789MOL0     H 6461  10.917   0.970   3.532 -1.5668 -2.2865  0.6471
  789MOL0     H 6462  11.093   0.811   3.610  2.2830 -0.6241  0.2177
  789MOL0     H 6463  11.172   0.806   3.451  0.9169  3.8150 -1.6070
  789MOL0     H 6464  11.141   1.043   3.642  0.6950 -2.0048  2.9785
  789MOL0     H 6465  11.254   1.064   3.506 -0.1315 -1.3470 -0.5012
  789MOL0     H 6466  11.508   0.967   3.555 -1.4510  0.6744 -0.8018
  789MOL0     H 6467  11.673   0.883   3.869  1.7702 -2.2719  0.0906
  789MOL0     H 6468  11.669   0.736   3.771 -0.3545  0.5344  4.6524
  789MOL0     H 6469  11.710   1.027   3.710 -0.2876  0.1029 -3.8824
  789MOL0     H 6470  11.726   0.895   3.581  0.0301 -3.6821  0.8502
  789MOL0     H 6471  11.894   0.784   3.710 -3.4258  0.0232  0.5245
  789MOL0     H 6472  11.919   0.929   3.815  1.5178  1.1849  1.0654
  789MOL0     H 6473  12.085   0.967   3.638  1.3464 -1.5798  0.5629
  789MOL0     H 6474  11.936   1.060   3.602 -2.5856 -1.4657  4.2062
  789MOL0     H 6475  11.963   0.797   3.260 -1.1126  0.9908  1.8105
  789MOL0     H 6476  11.971   0.754   3.028 -1.8227  2.2071 -1.3705
  789MOL0     H 6477  12.045   0.878   2.940 -1.2658 -1.1330 -0.2361
  789MOL0     H 6478  12.140   0.735   2.998  0.4608  0.9708 -0.1197
  789MOL0     H 6479  12.319   0.944   2.696 -2.8845  2.3212  0.0135
  789MOL0     H 6480  12.483   0.995   2.540 -2.2054 -1.7230  0.9289
  789MOL0     H 6481  12.630   1.096   2.398  1.0424  0.3487  0.2481
  789MOL0     H 6482  12.627   1.267   2.457 -2.9202 -1.3119  0.5032
  789MOL0     H 6483  12.769   1.209   2.253  1.4675 -1.0711 -0.7299
  789MOL0     H 6484  12.851   1.283   2.386  1.3738  0.3671  1.2429
  789MOL0     H 6485  12.827   0.976   2.331 -4.1001  3.5253 -0.2358
  789MOL0     H 6486  12.924   1.031   2.459 -1.4572 -0.7096  0.7945
  789MOL0     H 6487  12.958   1.090   2.145  0.2768  0.0350 -0.5565
  789MOL0     H 6488  13.057   1.155   2.276 -0.2455 -1.3391  1.9462
  789MOL0     H 6489  13.027   0.854   2.257  0.2715  0.4540  0.5177
  789MOL0     H 6490  13.158   0.940   2.324 -2.5840 -1.4387  0.8906
  789MOL0     H 6491  13.218   0.829   2.129  1.1659  0.9915  0.7682
  789MOL0     H 6492  13.101   0.895   2.032  1.0175 -2.5235  0.0700
  789MOL0     H 6493  13.359   1.013   2.139 -0.2053 -1.6364 -1.1827
  789MOL0     H 6494  13.228   1.133   2.131  0.4010  0.9140 -0.5249
  789MOL0     H 6495  13.364   1.130   1.932 -1.7744  2.1187  0.6881
  789MOL0     H 6496  13.194   1.112   1.903  0.7675  1.4790 -2.1306
  789MOL0     H 6497  12.747   1.151   2.825  1.3586 -1.3445 -2.4279
  789MOL0     H 6498  12.586   1.070   3.013 -4.3085  2.7533  2.0464
  789MOL0     H 6499  12.277   1.167   3.243 -0.9823  0.9034 -2.2957
  789MOL0     H 6500  12.159   1.105   3.467  0.2583  1.3849 -0.8446
  789MOL0     H 6501  10.251   0.795   3.386  2.6557 -3.3376 -1.8057
  789MOL0     H 6502  10.085   0.867   3.543  0.1485  0.2007  2.1669
  789MOL0     H 6503   9.842   1.084   3.916 -1.8888 -0.2567  0.5865
  789MOL0     H 6504   9.729   1.105   4.112  0.2711 -0.4427  0.7846
  789MOL0     H 6505   9.579   0.792   4.422 -0.1498 -0.4288 -1.8608
  789MOL0     H 6506   9.704   0.717   4.338  2.6831  1.0515 -2.9160
  789MOL0     H 6507   9.865   0.892   4.461  0.1799 -0.8847 -0.8911
  789MOL0     H 6508   9.791   0.749   4.541 -2.5064  0.0678  0.2006
  789MOL0     H 6509   9.743   0.921   4.706  3.8417  1.1380 -0.5710
  789MOL0     H 6510   9.588   0.914   4.612 -0.1737 -0.1350  3.0729
  789MOL0     H 6511   9.669   1.163   4.683 -1.0704  0.4458 -0.5830
  789MOL0     H 6512   9.630   1.151   4.521 -2.4672 -2.2451  0.5754
  789MOL0     H 6513  10.057   1.137   4.513  0.8959 -0.4939  0.8384
  789MOL0     H 6514   9.871   0.734   4.262 -0.9919 -1.0059 -1.3927
  789MOL0     H 6515  10.008   0.700   4.062  0.8815  1.3761  0.0127
  790MOL0     O 6516   3.451   1.463   3.461 -0.0152 -0.2858 -0.1672
  790MOL0     C 6517   3.394   1.574   3.447 -0.8230  1.0117 -0.4279
  790MOL0     O 6518   3.434   1.683   3.512  0.8982  0.5761 -0.1710
  790MOL0     C 6519   3.545   1.687   3.585  0.3671  0.7547 -0.6247
  790MOL0     C 6520   3.535   1.756   3.710  0.4722  0.2369 -0.0149
  790MOL0     C 6521   3.653   1.783   3.773 -0.7411  1.0679  0.3970
  790MOL0     C 6522   3.776   1.748   3.719 -0.2356 -0.4615 -0.4736
  790MOL0     O 6523   3.887   1.796   3.783 -0.2571  0.0331 -0.1980
  790MOL0     C 6524   4.018   1.745   3.762 -0.9321  0.5573 -0.4450
  790MOL0     C 6525   4.109   1.771   3.878 -0.3840 -0.4207 -0.0578
  790MOL0     C 6526   4.225   1.668   3.907  0.6164 -0.2299 -0.8406
  790MOL0     C 6527   4.312   1.642   3.780 -0.0478 -0.5012 -0.4250
  790MOL0     C 6528   4.433   1.560   3.797 -0.5688  0.9729 -0.3249
  790MOL0     C 6529   4.391   1.417   3.807  0.4109 -0.1213  0.1073
  790MOL0     C 6530   4.523   1.320   3.808  0.5349 -0.7715 -0.1631
  790MOL0     C 6531   4.554   1.265   3.673 -0.2962  0.4241 -0.0790
  790MOL0     N 6532   4.676   1.175   3.684 -0.2973  0.0283 -0.5604
  790MOL0     C 6533   4.802   1.218   3.656  0.4916  0.3185 -0.3267
  790MOL0     C 6534   4.883   1.106   3.655  0.3549 -0.3373 -0.2886
  790MOL0     C 6535   5.034   1.105   3.644  0.7809 -0.2907 -0.5293
  790MOL0     C 6536   5.113   1.230   3.707 -0.5273 -0.1920  0.2128
  790MOL0     C 6537   5.172   1.187   3.843  0.6099  0.7298  0.8950
  790MOL0     C 6538   5.243   1.316   3.892  0.0731 -0.7495  0.1324
  790MOL0     O 6539   5.153   1.433   3.904  0.4213  0.8097  1.3864
  790MOL0     C 6540   5.223   1.538   3.948  0.3505 -0.5022 -0.2875
  790MOL0     C 6541   5.144   1.652   3.970 -0.3145  0.5360 -0.0568
  790MOL0     C 6542   5.195   1.772   4.031  0.3238  0.4539 -0.1381
  790MOL0     C 6543   5.100   1.890   4.036 -0.1751 -1.2070  0.6540
  790MOL0     C 6544   5.320   1.773   4.087  1.0686 -0.3646 -0.0756
  790MOL0     C 6545   5.368   1.881   4.181 -0.5050  0.0757 -0.1290
  790MOL0     O 6546   5.315   2.004   4.171 -0.4875  0.3423  0.1953
  790MOL0     C 6547   5.358   2.100   4.256  0.3904  0.3595 -0.1191
  790MOL0     C 6548   5.324   2.103   4.395  0.7984 -0.3547  0.0038
  790MOL0     C 6549   5.370   2.212   4.464 -0.0585 -0.9810 -0.3899
  790MOL0     C 6550   5.461   2.308   4.412 -0.6798 -0.3905  0.5131
  790MOL0     O 6551   5.500   2.416   4.486 -0.1410  0.1514 -0.0127
  790MOL0     C 6552   5.511   2.540   4.413 -0.1406  0.5718 -0.2977
  790MOL0     C 6553   5.466   2.656   4.505 -0.2038  0.0198  0.1608
  790MOL0     C 6554   5.580   2.758   4.514  0.4272 -0.4084 -1.1963
  790MOL0     C 6555   5.537   2.882   4.596  0.0647  0.2038  0.1082
  790MOL0     C 6556   5.645   2.992   4.579  0.4794 -0.1510  1.0559
  790MOL0     C 6557   5.656   3.085   4.711 -0.8657  0.4837  0.2769
  790MOL0     C 6558   5.780   3.182   4.701  0.3012 -0.8129 -0.2994
  790MOL0     C 6559   5.780   3.269   4.825  0.0671  0.3077 -0.4747
  790MOL0    Cl 6560   5.895   3.402   4.798 -0.3903 -0.8785  0.0097
  790MOL0     C 6561   5.493   2.301   4.277 -0.0005  0.3977 -0.0371
  790MOL0     C 6562   5.445   2.187   4.203 -0.4508 -0.5344  0.3471
  790MOL0     O 6563   5.473   1.856   4.245  0.3575  0.0778 -0.1353
  790MOL0     C 6564   5.395   1.658   4.063 -1.1754 -0.4177  0.0916
  790MOL0     C 6565   5.353   1.556   3.982 -0.4781 -0.6714 -1.2336
  790MOL0     N 6566   4.801   0.998   3.678  0.6108  0.0375  0.3618
  790MOL0     N 6567   4.678   1.038   3.696  0.0257 -0.4674  0.4019
  790MOL0     C 6568   3.784   1.674   3.603 -0.8663  0.2838  0.2933
  790MOL0     C 6569   3.671   1.641   3.533 -0.1327 -0.5108  0.7474
  790MOL0     C 6570   3.270   1.581   3.364 -1.1570 -0.8303 -0.8647
  790MOL0     C 6571   3.235   1.479   3.274  0.1508 -0.7288  1.0693
  790MOL0     C 6572   3.133   1.507   3.180 -0.2777  0.8169  0.5193
  790MOL0     C 6573   3.042   1.606   3.203 -0.0753  0.4515  0.1414
  790MOL0     O 6574   2.934   1.612   3.118 -0.3784 -0.4503 -0.9545
  790MOL0     C 6575   2.815   1.672   3.164 -0.2092  0.6371 -0.2520
  790MOL0     C 6576   2.720   1.675   3.047  0.8754  0.0565  0.0915
  790MOL0     C 6577   2.579   1.695   3.105 -0.3857 -0.6857 -0.5444
  790MOL0     C 6578   2.457   1.713   3.017  0.0631 -0.5016 -0.5874
  790MOL0     C 6579   2.454   1.856   2.981  1.3486 -0.2709 -0.3156
  790MOL0     C 6580   2.436   1.970   2.939  1.0136 -0.6261 -0.4637
  790MOL0     C 6581   3.079   1.703   3.296  0.4300 -0.0553 -0.3111
  790MOL0     C 6582   3.195   1.689   3.378 -0.3570  1.0282 -0.7035
  790MOL0     H 6583   3.443   1.778   3.764  1.1222  0.5049  1.0099
  790MOL0     H 6584   3.654   1.841   3.865 -0.2092 -0.2788  1.2753
  790MOL0     H 6585   4.017   1.637   3.741  1.7057  0.2599  0.5680
  790MOL0     H 6586   4.070   1.781   3.673  1.3793 -2.1533 -0.3288
  790MOL0     H 6587   4.147   1.874   3.880 -0.3665 -0.4339  0.3702
  790MOL0     H 6588   4.049   1.768   3.969 -1.6006  2.0859 -0.6811
  790MOL0     H 6589   4.282   1.705   3.993 -2.4272  1.7179  0.5529
  790MOL0     H 6590   4.168   1.585   3.949 -0.3840  1.0981  0.5489
  790MOL0     H 6591   4.254   1.594   3.700  1.6288 -1.6765 -1.0014
  790MOL0     H 6592   4.342   1.737   3.735 -0.2170  0.2127  0.9359
  790MOL0     H 6593   4.497   1.566   3.709 -0.2665 -2.2181 -0.4328
  790MOL0     H 6594   4.480   1.588   3.892 -2.8127 -0.0932  1.1847
  790MOL0     H 6595   4.328   1.392   3.894  2.1960 -1.3607  1.1235
  790MOL0     H 6596   4.331   1.405   3.716  1.0986  2.2283 -0.7220
  790MOL0     H 6597   4.617   1.366   3.842  0.6884  0.0362 -1.5989
  790MOL0     H 6598   4.511   1.236   3.876  4.7836 -1.0042  0.5897
  790MOL0     H 6599   4.576   1.338   3.594  0.1725 -0.2763 -0.6123
  790MOL0     H 6600   4.465   1.216   3.633 -0.5327  0.7562  0.0361
  790MOL0     H 6601   4.825   1.323   3.640 -3.0342  1.0883 -1.0192
  790MOL0     H 6602   5.077   1.014   3.687  0.0515  0.3817  1.7727
  790MOL0     H 6603   5.063   1.106   3.538  1.8850 -0.9934 -0.2475
  790MOL0     H 6604   5.034   1.306   3.712 -1.1528 -0.9019  2.9090
  790MOL0     H 6605   5.181   1.281   3.638 -2.6780  4.4454  1.1386
  790MOL0     H 6606   5.248   1.109   3.839 -0.0110  0.0304  2.1555
  790MOL0     H 6607   5.096   1.151   3.913 -3.0789  0.0974 -3.0101
  790MOL0     H 6608   5.316   1.336   3.813 -2.5164  0.7626 -2.0616
  790MOL0     H 6609   5.276   1.279   3.990 -2.0882  0.1364  1.2619
  790MOL0     H 6610   5.044   1.650   3.928 -0.4517  0.1316  0.2717
  790MOL0     H 6611   5.083   1.924   4.139 -2.9008  0.5850 -0.2725
  790MOL0     H 6612   5.136   1.980   3.985  0.9967 -2.6898 -1.2343
  790MOL0     H 6613   5.001   1.860   4.001  0.0231 -2.1268  0.8569
  790MOL0     H 6614   5.240   2.046   4.434  0.0963 -1.1460 -2.4436
  790MOL0     H 6615   5.345   2.228   4.569 -1.2305 -2.3047 -0.4387
  790MOL0     H 6616   5.618   2.537   4.390  0.1843 -0.8941  1.1805
  790MOL0     H 6617   5.441   2.540   4.329  0.0802  1.6151 -0.4918
  790MOL0     H 6618   5.374   2.703   4.468  1.5267  0.9221 -3.4916
  790MOL0     H 6619   5.447   2.610   4.602 -0.7843 -2.0151 -0.8630
  790MOL0     H 6620   5.620   2.791   4.418  0.4982 -0.6142 -1.2384
  790MOL0     H 6621   5.667   2.712   4.562 -0.4706  1.8994  3.2274
  790MOL0     H 6622   5.443   2.917   4.554  0.6462  1.9310  0.1414
  790MOL0     H 6623   5.529   2.854   4.702  0.3098  1.2144  0.4122
  790MOL0     H 6624   5.633   3.048   4.486  1.4700 -0.9626  0.4198
  790MOL0     H 6625   5.745   2.953   4.560 -0.0849  0.0046 -3.3836
  790MOL0     H 6626   5.569   3.151   4.713 -0.3910  1.2704 -1.8846
  790MOL0     H 6627   5.654   3.019   4.798 -3.8249  1.8598  1.3903
  790MOL0     H 6628   5.765   3.249   4.616  2.2807 -0.1512 -0.1621
  790MOL0     H 6629   5.867   3.118   4.687  0.5373 -0.3930 -0.7663
  790MOL0     H 6630   5.811   3.222   4.919 -1.5301  0.2816  0.0652
  790MOL0     H 6631   5.678   3.302   4.846 -0.2881 -2.0119  2.1167
  790MOL0     H 6632   5.573   2.362   4.235  0.9141 -0.4033  0.4967
  790MOL0     H 6633   5.469   2.193   4.097 -5.5835  2.8038 -0.9962
  790MOL0     H 6634   5.497   1.659   4.099 -1.9895  2.1296  2.6720
  790MOL0     H 6635   5.426   1.482   3.950  2.4435  0.8487  1.2846
  790MOL0     H 6636   3.880   1.665   3.551 -1.0666  0.8160 -0.1793
  790MOL0     H 6637   3.685   1.600   3.434 -0.7571 -2.4324  1.4072
  790MOL0     H 6638   3.283   1.383   3.263 -1.5065 -1.6291  1.2571
  790MOL0     H 6639   3.104   1.438   3.102 -2.8032  0.3836  1.7404
  790MOL0     H 6640   2.778   1.605   3.243 -1.8748 -0.2255 -1.7071
  790MOL0     H 6641   2.824   1.773   3.206 -1.7630  2.4435 -3.8506
  790MOL0     H 6642   2.707   1.581   2.992 -0.6824  0.0196  0.4874
  790MOL0     H 6643   2.766   1.749   2.981 -0.3133 -0.3762 -1.2929
  790MOL0     H 6644   2.597   1.790   3.156 -0.4884 -1.3148  0.7070
  790MOL0     H 6645   2.550   1.627   3.186 -2.5213  1.0765  0.2870
  790MOL0     H 6646   2.370   1.690   3.080 -0.9018  2.9450 -0.4745
  790MOL0     H 6647   2.473   1.650   2.930 -1.1137 -0.7640 -0.6276
  790MOL0     H 6648   2.422   2.066   2.893 -1.4874 -0.7330 -0.0767
  790MOL0     H 6649   3.027   1.798   3.303  3.5725  1.8264 -0.6544
  790MOL0     H 6650   3.202   1.776   3.443 -0.7075 -0.6727  1.7732
  791MOL0     O 6651   7.127   2.533   9.853  0.0493  0.2113 -0.4423
  791MOL0     C 6652   7.230   2.508   9.785  1.0635  0.2224 -0.2656
  791MOL0     O 6653   7.256   2.393   9.717 -1.0374  0.5353 -0.1404
  791MOL0     C 6654   7.183   2.277   9.714 -0.9023  0.6997  0.8822
  791MOL0     C 6655   7.049   2.279   9.705 -0.9680 -0.5683  0.2193
  791MOL0     C 6656   6.984   2.150   9.694  0.7093 -0.8120  0.1562
  791MOL0     C 6657   7.048   2.031   9.664  0.2032 -0.4112 -0.1391
  791MOL0     O 6658   6.974   1.908   9.641  0.4094 -1.0070 -0.0127
  791MOL0     C 6659   7.030   1.800   9.574 -0.5067 -0.1602 -0.0225
  791MOL0     C 6660   7.035   1.806   9.429 -0.3816  0.6203 -0.1252
  791MOL0     C 6661   7.141   1.891   9.355  0.5292  0.1719  0.0100
  791MOL0     C 6662   7.130   1.883   9.196  0.4696 -0.1885  0.3918
  791MOL0     C 6663   7.192   1.759   9.137  0.4650 -0.8352  0.4814
  791MOL0     C 6664   7.189   1.765   8.984 -0.6524 -0.1244 -0.1396
  791MOL0     C 6665   7.243   1.638   8.915  0.1343  0.5832  0.1622
  791MOL0     C 6666   7.382   1.579   8.963  0.7456  0.0938  0.0249
  791MOL0     N 6667   7.442   1.483   8.861 -0.2679  0.6922  0.4332
  791MOL0     C 6668   7.575   1.487   8.807  0.2022 -0.2391 -1.3616
  791MOL0     C 6669   7.582   1.359   8.765 -0.2559  0.5841 -0.1071
  791MOL0     C 6670   7.711   1.305   8.711  0.3333  0.1327 -0.0738
  791MOL0     C 6671   7.750   1.184   8.791  0.3033 -0.4344 -0.4223
  791MOL0     C 6672   7.812   1.212   8.944 -0.4033  0.7999  0.8343
  791MOL0     C 6673   7.970   1.240   8.960 -0.2154  0.6012  0.4108
  791MOL0     O 6674   8.017   1.381   8.959  0.4594  0.6940  0.3554
  791MOL0     C 6675   7.975   1.450   9.066 -0.7117 -0.2419  0.3258
  791MOL0     C 6676   7.886   1.564   9.044 -0.4150 -0.2499 -0.1250
  791MOL0     C 6677   7.830   1.631   9.150  1.4487 -0.0636 -0.2024
  791MOL0     C 6678   7.726   1.738   9.106  0.7599  0.6014 -0.1216
  791MOL0     C 6679   7.861   1.593   9.281 -0.7611 -0.4709  0.1998
  791MOL0     C 6680   7.821   1.666   9.402  0.9082 -0.3545  0.7825
  791MOL0     O 6681   7.750   1.790   9.383 -0.1837 -0.0373 -0.6589
  791MOL0     C 6682   7.688   1.842   9.496 -0.1003 -0.5507  0.5884
  791MOL0     C 6683   7.580   1.773   9.557 -0.2603  0.6037  0.8992
  791MOL0     C 6684   7.532   1.807   9.680  0.4731  0.3649  0.1222
  791MOL0     C 6685   7.571   1.935   9.735 -0.2892  0.0864  0.0839
  791MOL0     O 6686   7.534   1.987   9.858  0.3678 -0.1709  0.1767
  791MOL0     C 6687   7.485   1.894   9.963  0.3719 -0.0632 -0.6850
  791MOL0     C 6688   7.466   1.971  10.093 -0.1895 -0.3331  0.2656
  791MOL0     C 6689   7.445   1.878  10.209 -0.8373 -0.1777 -0.0401
  791MOL0     C 6690   7.398   1.949  10.335  0.0310  0.1776  0.0780
  791MOL0     C 6691   7.467   1.877  10.454 -0.3830 -0.6859  0.4679
  791MOL0     C 6692   7.421   1.928  10.591  0.3064  0.1105 -0.5338
  791MOL0     C 6693   7.510   2.042  10.650 -0.9316 -0.8617  0.5108
  791MOL0     C 6694   7.632   1.991  10.730 -0.0835 -0.7987 -0.3064
  791MOL0    Cl 6695   7.735   2.119  10.799  0.0054  0.0150  0.2901
  791MOL0     C 6696   7.662   2.013   9.669 -1.3577 -0.8493  0.7317
  791MOL0     C 6697   7.730   1.961   9.557  0.4006 -0.6463 -0.1531
  791MOL0     O 6698   7.857   1.626   9.511 -0.5228  0.0639  1.2672
  791MOL0     C 6699   7.954   1.486   9.302  0.4023 -1.3568 -0.3201
  791MOL0     C 6700   8.011   1.420   9.191  0.2163  0.1057 -1.3175
  791MOL0     N 6701   7.473   1.279   8.789 -0.2910  0.6379  0.2665
  791MOL0     N 6702   7.394   1.349   8.854  0.6531 -0.2013  0.1173
  791MOL0     C 6703   7.191   2.038   9.654  0.2142 -0.9444  0.0462
  791MOL0     C 6704   7.254   2.155   9.687 -0.1147 -0.4105  0.0977
  791MOL0     C 6705   7.340   2.616   9.773 -0.5505  0.5101  0.3878
  791MOL0     C 6706   7.315   2.747   9.823 -0.5369 -0.8556  0.0073
  791MOL0     C 6707   7.423   2.843   9.819 -0.7008  0.2057 -0.5724
  791MOL0     C 6708   7.551   2.798   9.774 -1.0318 -0.1901  0.1835
  791MOL0     O 6709   7.648   2.894   9.774  0.6218 -0.3469  0.1039
  791MOL0     C 6710   7.788   2.837   9.791  0.8361  0.0104 -0.1246
  791MOL0     C 6711   7.889   2.933   9.856  0.2470  0.6294  0.5480
  791MOL0     C 6712   7.855   2.976   9.999 -0.0390  0.6755 -0.0060
  791MOL0     C 6713   7.962   3.059  10.073 -0.5601  0.0232  0.4208
  791MOL0     C 6714   8.032   3.157   9.992 -0.5551 -0.3729  0.1406
  791MOL0     C 6715   8.080   3.244   9.924  0.4445  0.0952 -0.1236
  791MOL0     C 6716   7.570   2.669   9.723  0.1553  0.4430  0.8288
  791MOL0     C 6717   7.464   2.582   9.722 -0.1061  0.0582 -0.1068
  791MOL0     H 6718   6.994   2.373   9.709  3.8323  2.5521  2.7313
  791MOL0     H 6719   6.875   2.153   9.689  0.6288  2.9640  1.1613
  791MOL0     H 6720   7.126   1.773   9.617 -1.9856 -0.6290  3.3093
  791MOL0     H 6721   6.963   1.717   9.599 -2.3570  1.4402  0.6043
  791MOL0     H 6722   7.046   1.706   9.385  0.3836  0.5712  0.1619
  791MOL0     H 6723   6.933   1.826   9.393 -1.2712 -1.5349  0.9944
  791MOL0     H 6724   7.131   1.995   9.390 -0.8500 -1.1077  4.0356
  791MOL0     H 6725   7.243   1.855   9.374  0.7741  0.9524  0.2271
  791MOL0     H 6726   7.028   1.894   9.158  1.4047 -0.3451 -2.3578
  791MOL0     H 6727   7.188   1.970   9.165  0.1730  0.4474  1.5570
  791MOL0     H 6728   7.295   1.745   9.169  0.2604 -3.2781  0.2439
  791MOL0     H 6729   7.133   1.670   9.159 -4.6669  1.2258 -3.0275
  791MOL0     H 6730   7.091   1.780   8.938 -1.2413 -0.5798  0.9279
  791MOL0     H 6731   7.260   1.845   8.960 -1.4933  0.1096 -1.9706
  791MOL0     H 6732   7.166   1.568   8.951  0.9413  0.1612  1.1437
  791MOL0     H 6733   7.253   1.656   8.808  0.0811 -0.6860 -0.0748
  791MOL0     H 6734   7.363   1.531   9.060 -1.7715 -1.8031 -1.2941
  791MOL0     H 6735   7.445   1.668   8.971 -4.2830  4.1897 -0.3408
  791MOL0     H 6736   7.640   1.571   8.788  2.8315 -1.7538  0.3503
  791MOL0     H 6737   7.685   1.273   8.610 -2.5249  0.7801  0.3659
  791MOL0     H 6738   7.792   1.378   8.719 -0.0373  0.9179 -2.6201
  791MOL0     H 6739   7.822   1.123   8.737  0.5818 -1.7342  1.3342
  791MOL0     H 6740   7.662   1.124   8.814 -1.7196  3.2783  2.8115
  791MOL0     H 6741   7.784   1.122   8.999 -2.9506  0.5071 -0.7403
  791MOL0     H 6742   7.748   1.289   8.989  0.2433  0.0235  3.2406
  791MOL0     H 6743   8.022   1.196   8.875  0.4277  1.1658  0.5111
  791MOL0     H 6744   8.005   1.184   9.048  2.0266 -1.6821 -1.7855
  791MOL0     H 6745   7.856   1.583   8.942 -1.6063  4.3139  0.8513
  791MOL0     H 6746   7.777   1.832   9.131  2.1594 -0.1731  0.0192
  791MOL0     H 6747   7.697   1.722   9.002  2.9090  0.0391 -0.6876
  791MOL0     H 6748   7.631   1.736   9.160  0.6489 -0.0344 -0.3378
  791MOL0     H 6749   7.534   1.682   9.521 -2.2597  0.6801  3.0235
  791MOL0     H 6750   7.465   1.736   9.727  1.7504 -0.0634  1.3667
  791MOL0     H 6751   7.389   1.852   9.932  1.0280 -3.0951  1.0099
  791MOL0     H 6752   7.553   1.811   9.986  0.0597  0.3791  2.1723
  791MOL0     H 6753   7.555   2.030  10.115  0.7540 -1.1827 -1.1998
  791MOL0     H 6754   7.378   2.037  10.091 -0.0216 -0.0388  1.6308
  791MOL0     H 6755   7.541   1.827  10.222 -0.2233  1.6485  4.3905
  791MOL0     H 6756   7.377   1.797  10.181  1.0504 -1.6119 -0.6668
  791MOL0     H 6757   7.431   2.054  10.329  0.6327 -0.0826 -1.6675
  791MOL0     H 6758   7.290   1.948  10.350 -0.0726  2.0100 -0.3364
  791MOL0     H 6759   7.576   1.889  10.455 -0.3608 -0.5019  2.8639
  791MOL0     H 6760   7.446   1.770  10.464 -1.1631 -0.4327  1.8486
  791MOL0     H 6761   7.316   1.954  10.577  0.4109 -0.8183 -3.8953
  791MOL0     H 6762   7.419   1.852  10.670  0.0761  2.1631  1.5316
  791MOL0     H 6763   7.448   2.114  10.705 -0.7737 -0.1754 -0.1952
  791MOL0     H 6764   7.548   2.103  10.568 -2.6298 -0.1451  0.1969
  791MOL0     H 6765   7.695   1.942  10.655 -0.8929 -1.7305 -0.4049
  791MOL0     H 6766   7.593   1.911  10.795  1.5285 -1.3778 -0.0053
  791MOL0     H 6767   7.697   2.105   9.715 -1.6725 -0.0715 -0.5206
  791MOL0     H 6768   7.815   2.012   9.513 -1.4163  1.9593 -0.8645
  791MOL0     H 6769   7.961   1.457   9.406 -1.3859 -2.0157 -0.3496
  791MOL0     H 6770   8.064   1.333   9.229 -0.3862  0.3275  0.0996
  791MOL0     H 6771   7.236   1.950   9.608  1.0193 -0.9841  0.8933
  791MOL0     H 6772   7.363   2.153   9.690  0.0277  2.8244  0.9203
  791MOL0     H 6773   7.215   2.779   9.851  0.1073  2.6165 -1.1169
  791MOL0     H 6774   7.411   2.943   9.860  0.6307  0.8729 -1.7483
  791MOL0     H 6775   7.790   2.763   9.871  1.9407  0.8715  0.6672
  791MOL0     H 6776   7.825   2.797   9.697  1.2783  0.2336 -0.0452
  791MOL0     H 6777   7.887   3.026   9.798  0.5992  0.4571  0.2580
  791MOL0     H 6778   7.992   2.896   9.857 -0.0913 -0.3231  1.7571
  791MOL0     H 6779   7.844   2.895  10.072  0.3196  3.7346  3.7602
  791MOL0     H 6780   7.765   3.037   9.981 -0.4509 -0.9185 -4.5837
  791MOL0     H 6781   8.044   2.990  10.097 -0.1321 -1.2486 -3.8082
  791MOL0     H 6782   7.914   3.101  10.161 -1.5410 -4.4871  2.2950
  791MOL0     H 6783   8.129   3.312   9.858  0.9074  0.0227  0.1379
  791MOL0     H 6784   7.662   2.632   9.678  0.0791  1.0367  0.1503
  791MOL0     H 6785   7.482   2.478   9.694 -1.1175 -0.4287  0.9576
  792MOL0     O 6786  11.170   3.926   6.232  0.1200  0.3911 -0.1999
  792MOL0     C 6787  11.209   3.899   6.117 -0.0848 -0.6807 -0.3306
  792MOL0     O 6788  11.148   3.937   6.004  0.8625 -0.2103  1.2786
  792MOL0     C 6789  11.019   3.985   6.006 -0.4822 -0.7556  0.4012
  792MOL0     C 6790  10.912   3.912   6.059  0.5046 -0.4459  0.5906
  792MOL0     C 6791  10.790   3.965   6.026 -1.1564  0.0047  0.0732
  792MOL0     C 6792  10.767   4.089   5.953  0.2729  0.5112 -0.8229
  792MOL0     O 6793  10.639   4.142   5.942 -0.4328 -0.5010  0.8070
  792MOL0     C 6794  10.537   4.109   6.036 -0.3749 -0.0723 -1.2043
  792MOL0     C 6795  10.402   4.135   5.972  0.3723  0.5732 -0.2518
  792MOL0     C 6796  10.300   4.145   6.084  0.2477  0.5852 -0.0338
  792MOL0     C 6797  10.156   4.163   6.033 -0.6417 -0.4875  0.1426
  792MOL0     C 6798  10.062   4.190   6.144  0.3098  0.6079 -0.6254
  792MOL0     C 6799   9.923   4.217   6.085 -0.2699  0.0293 -0.6174
  792MOL0     C 6800   9.881   4.090   5.995  0.2718 -0.4452  0.7979
  792MOL0     C 6801   9.745   4.115   5.932 -0.1869  0.0239  0.3707
  792MOL0     N 6802   9.682   3.983   5.885 -0.1407  0.7827  0.0657
  792MOL0     C 6803   9.616   3.898   5.966 -1.0658 -1.2880 -0.1790
  792MOL0     C 6804   9.619   3.774   5.911  0.8743 -0.0897 -0.1386
  792MOL0     C 6805   9.555   3.646   5.955 -0.8768 -0.6315  0.2747
  792MOL0     C 6806   9.660   3.563   6.035 -0.2389 -0.0254 -0.3905
  792MOL0     C 6807   9.778   3.515   5.952  0.1443 -0.4807  0.8671
  792MOL0     C 6808   9.860   3.401   6.011 -0.1349  0.3740  0.7596
  792MOL0     O 6809   9.908   3.437   6.138 -0.7995 -0.6197 -0.5627
  792MOL0     C 6810  10.016   3.519   6.153 -1.1785 -0.8807 -0.0238
  792MOL0     C 6811  10.032   3.586   6.269  0.4643 -0.4212  1.3749
  792MOL0     C 6812  10.147   3.668   6.303 -0.4568 -0.1272  0.0113
  792MOL0     C 6813  10.149   3.726   6.446  0.3264  0.6864 -0.8394
  792MOL0     C 6814  10.249   3.682   6.211 -0.5849 -0.4759  0.7338
  792MOL0     C 6815  10.363   3.776   6.225 -0.3809  0.0117 -0.1169
  792MOL0     O 6816  10.396   3.830   6.347 -0.3017 -0.0932  0.3274
  792MOL0     C 6817  10.494   3.921   6.356  0.4903 -0.1371 -0.5929
  792MOL0     C 6818  10.635   3.876   6.356 -0.3711 -0.0760 -0.3925
  792MOL0     C 6819  10.737   3.972   6.373  0.0065  0.6169 -0.2715
  792MOL0     C 6820  10.723   4.111   6.397 -0.8728 -0.3705 -0.4301
  792MOL0     O 6821  10.826   4.206   6.425 -0.1124  1.0467 -0.3498
  792MOL0     C 6822  10.958   4.187   6.364 -0.9110 -0.4189 -0.5839
  792MOL0     C 6823  11.055   4.287   6.430 -1.3971 -0.3658 -0.2010
  792MOL0     C 6824  11.198   4.261   6.371 -0.1110  0.5092 -0.1607
  792MOL0     C 6825  11.297   4.366   6.423 -0.1340 -0.0150  0.3819
  792MOL0     C 6826  11.345   4.324   6.571 -0.4848 -0.5391  0.4785
  792MOL0     C 6827  11.454   4.212   6.563  0.1802  0.5864 -0.3354
  792MOL0     C 6828  11.597   4.253   6.524 -0.3749 -0.7615  0.1281
  792MOL0     C 6829  11.662   4.342   6.642 -0.1388 -1.0899 -0.6105
  792MOL0    Cl 6830  11.669   4.272   6.809  0.2920  0.2066  0.0199
  792MOL0     C 6831  10.585   4.158   6.392  0.1715  0.1030 -0.7561
  792MOL0     C 6832  10.482   4.058   6.370 -0.6517  0.9115 -0.2661
  792MOL0     O 6833  10.432   3.800   6.124  0.1440 -0.0830  0.0990
  792MOL0     C 6834  10.224   3.624   6.088  0.2830  1.0532 -0.0998
  792MOL0     C 6835  10.116   3.534   6.061  0.0234 -0.1112  0.4521
  792MOL0     N 6836   9.692   3.784   5.796 -0.1053  0.3351 -0.0472
  792MOL0     N 6837   9.723   3.910   5.775 -0.3519  0.0713  0.3734
  792MOL0     C 6838  10.880   4.158   5.902  0.4318  0.1160 -0.2267
  792MOL0     C 6839  11.002   4.102   5.929  0.6027  0.9192  1.2049
  792MOL0     C 6840  11.349   3.857   6.109  0.3508  0.3055  0.2852
  792MOL0     C 6841  11.433   3.835   6.213 -0.2589 -0.1377 -0.5739
  792MOL0     C 6842  11.570   3.804   6.190 -0.1972 -0.1934 -0.2694
  792MOL0     C 6843  11.629   3.795   6.062  0.3229 -0.4370 -0.0511
  792MOL0     O 6844  11.763   3.784   6.039  0.9637  0.0919  0.3105
  792MOL0     C 6845  11.851   3.851   6.114 -0.1508 -1.4445 -0.5058
  792MOL0     C 6846  11.992   3.779   6.088  0.3876 -0.7515  0.4986
  792MOL0     C 6847  12.027   3.683   6.203  0.3510 -0.9105  0.4172
  792MOL0     C 6848  11.942   3.553   6.203 -0.2988  0.1583  0.2707
  792MOL0     C 6849  11.961   3.448   6.102 -0.4079 -0.0597  0.0468
  792MOL0     C 6850  11.957   3.354   6.019  0.0226  0.1584  0.2643
  792MOL0     C 6851  11.547   3.827   5.958  0.4413  0.1657 -0.6395
  792MOL0     C 6852  11.413   3.849   5.985 -0.3449  0.3714 -0.0773
  792MOL0     H 6853  10.913   3.835   6.136  1.1172 -0.4901  0.5439
  792MOL0     H 6854  10.715   3.905   6.075 -1.0479  0.9381  1.4224
  792MOL0     H 6855  10.539   4.010   6.084  0.0448  0.7719  0.6087
  792MOL0     H 6856  10.543   4.178   6.120 -1.7303 -2.1334  0.7270
  792MOL0     H 6857  10.413   4.228   5.916  2.2134 -0.3820 -1.5923
  792MOL0     H 6858  10.370   4.054   5.906 -2.0472  2.3039 -1.3298
  792MOL0     H 6859  10.301   4.049   6.136  0.4979 -0.8802 -2.5546
  792MOL0     H 6860  10.324   4.222   6.158 -1.5595 -0.6243  1.9202
  792MOL0     H 6861  10.136   4.242   5.961 -1.7669  0.8417  1.8308
  792MOL0     H 6862  10.139   4.063   5.991 -0.2816 -1.2596  1.7491
  792MOL0     H 6863  10.075   4.101   6.207  0.4887 -0.2772 -1.8663
  792MOL0     H 6864  10.099   4.281   6.191 -1.0741  0.8056  0.1291
  792MOL0     H 6865   9.852   4.243   6.164 -0.2162 -1.2751 -0.1143
  792MOL0     H 6866   9.933   4.313   6.033  0.9144  0.5364  0.4740
  792MOL0     H 6867   9.954   4.074   5.915 -2.5457  0.1296 -2.0675
  792MOL0     H 6868   9.878   4.004   6.063 -2.1762  0.5722  2.0813
  792MOL0     H 6869   9.765   4.182   5.848  2.1500  0.3200  1.0735
  792MOL0     H 6870   9.666   4.160   5.993 -2.0173  1.2445 -2.7002
  792MOL0     H 6871   9.563   3.930   6.055  1.7757  1.6571  0.6439
  792MOL0     H 6872   9.476   3.673   6.026  0.2720  2.3116  0.5645
  792MOL0     H 6873   9.510   3.591   5.872 -1.6792 -2.0864  1.5963
  792MOL0     H 6874   9.604   3.479   6.078 -0.2055  1.3693  2.5394
  792MOL0     H 6875   9.695   3.610   6.127  0.1246 -0.9531 -0.0416
  792MOL0     H 6876   9.834   3.604   5.922 -1.4241 -0.3726 -2.1389
  792MOL0     H 6877   9.729   3.476   5.863  0.3077  1.9894 -0.3983
  792MOL0     H 6878   9.941   3.386   5.939 -2.2143 -1.5132 -1.3747
  792MOL0     H 6879   9.793   3.315   6.024 -2.0548  1.7646  0.5493
  792MOL0     H 6880   9.945   3.574   6.333 -0.1992 -1.0974  0.3780
  792MOL0     H 6881  10.055   3.702   6.495  0.1666 -0.8903 -1.8520
  792MOL0     H 6882  10.229   3.681   6.506 -1.5673 -0.5059  0.8712
  792MOL0     H 6883  10.162   3.835   6.442  0.7576  0.6125 -2.5552
  792MOL0     H 6884  10.673   3.775   6.342  1.7175  0.8656 -2.0680
  792MOL0     H 6885  10.834   3.927   6.397 -0.2558  0.9822  1.6436
  792MOL0     H 6886  10.999   4.086   6.356  1.2498  0.5012 -2.1024
  792MOL0     H 6887  10.954   4.218   6.259 -2.0013 -1.8989 -1.0017
  792MOL0     H 6888  11.008   4.385   6.415  0.1253  0.6222  1.1401
  792MOL0     H 6889  11.051   4.275   6.539  0.9558  0.0274 -0.0376
  792MOL0     H 6890  11.207   4.278   6.263  1.1246  4.0829  0.3824
  792MOL0     H 6891  11.208   4.153   6.389 -2.9001  0.0619 -0.7846
  792MOL0     H 6892  11.386   4.368   6.360 -0.2369  2.5429  0.2110
  792MOL0     H 6893  11.248   4.462   6.404 -1.8675 -1.0410 -0.5842
  792MOL0     H 6894  11.252   4.286   6.615 -3.7378  0.5812 -4.5988
  792MOL0     H 6895  11.370   4.415   6.627 -1.8165  1.7480 -2.3941
  792MOL0     H 6896  11.448   4.164   6.661 -2.6276 -0.2722 -0.8498
  792MOL0     H 6897  11.437   4.129   6.494  2.1617  0.6382 -0.9440
  792MOL0     H 6898  11.595   4.305   6.428 -1.7189 -2.7516 -0.9862
  792MOL0     H 6899  11.661   4.166   6.513  1.9763  1.1310 -2.4643
  792MOL0     H 6900  11.622   4.443   6.652 -3.9112 -2.5166  0.4447
  792MOL0     H 6901  11.769   4.354   6.622 -0.0502 -1.7933 -0.5824
  792MOL0     H 6902  10.553   4.260   6.413 -1.7052 -0.8853  1.7569
  792MOL0     H 6903  10.383   4.103   6.380  0.4614  3.0294  2.4630
  792MOL0     H 6904  10.294   3.640   6.006  2.7220 -1.0122  1.4099
  792MOL0     H 6905  10.103   3.494   5.961  0.1380 -0.1029  0.4332
  792MOL0     H 6906  10.852   4.249   5.849 -6.7421 -0.8839  0.8499
  792MOL0     H 6907  11.085   4.161   5.892 -0.1983  1.5428  0.3439
  792MOL0     H 6908  11.393   3.845   6.313 -0.8019  1.9947 -0.9511
  792MOL0     H 6909  11.634   3.795   6.278  0.3785 -0.5297 -0.7123
  792MOL0     H 6910  11.847   3.955   6.080 -0.2106 -0.2222  2.8903
  792MOL0     H 6911  11.826   3.852   6.220  1.1630  0.2367 -0.1622
  792MOL0     H 6912  12.069   3.855   6.071 -1.6652  0.9588 -1.8275
  792MOL0     H 6913  11.990   3.723   5.994 -0.0321  2.5268 -1.5914
  792MOL0     H 6914  12.024   3.739   6.298  0.6640 -0.4313  0.1552
  792MOL0     H 6915  12.130   3.647   6.189 -0.7816 -2.9375 -5.2097
  792MOL0     H 6916  11.838   3.575   6.229 -0.0090 -0.4989  2.0933
  792MOL0     H 6917  11.976   3.491   6.286 -1.1212 -0.6395  0.0328
  792MOL0     H 6918  11.986   3.267   5.964 -1.5265 -0.1024 -0.2056
  792MOL0     H 6919  11.579   3.852   5.858 -1.3868 -0.7132 -1.4898
  792MOL0     H 6920  11.365   3.867   5.889 -0.2821 -0.5366 -0.2825
  793MOL0     O 6921   8.902  10.832   8.613 -0.4352  0.4726 -0.0017
  793MOL0     C 6922   8.791  10.863   8.577  0.9711  0.0797  0.1796
  793MOL0     O 6923   8.750  10.986   8.523 -0.8765  0.3588  0.3537
  793MOL0     C 6924   8.861  11.069   8.509 -0.8974  0.3371  0.6534
  793MOL0     C 6925   8.902  11.155   8.605  0.8301 -0.5164 -0.4490
  793MOL0     C 6926   9.014  11.240   8.589  0.0628  0.2598 -0.3991
  793MOL0     C 6927   9.081  11.233   8.467  0.2369  0.6288  0.2341
  793MOL0     O 6928   9.185  11.316   8.438  0.2223 -0.3060  0.6069
  793MOL0     C 6929   9.142  11.442   8.371  0.3649  0.4891  0.7978
  793MOL0     C 6930   9.257  11.539   8.412  0.6967  0.3228  0.0376
  793MOL0     C 6931   9.398  11.490   8.406  0.1469  0.2877  0.6758
  793MOL0     C 6932   9.496  11.590   8.465  0.5041 -1.2079  0.0815
  793MOL0     C 6933   9.640  11.572   8.442  0.5858  0.2358 -0.1579
  793MOL0     C 6934   9.723  11.681   8.490 -1.1765  0.1751  1.0230
  793MOL0     C 6935   9.865  11.664   8.462 -0.5247 -0.8124  0.1929
  793MOL0     C 6936   9.946  11.750   8.566  0.1959 -0.2588 -0.5816
  793MOL0     N 6937   9.933  11.898   8.536  0.2011  0.0764  0.3500
  793MOL0     C 6938   9.980  11.967   8.423  0.0590 -0.5466 -0.4119
  793MOL0     C 6939   9.952  12.096   8.458 -0.6156  0.4707 -0.2300
  793MOL0     C 6940   9.969  12.223   8.371 -0.5242  0.7292 -0.1301
  793MOL0     C 6941   9.858  12.252   8.260 -0.1913 -0.1040 -0.5538
  793MOL0     C 6942   9.908  12.374   8.178 -0.7532 -0.1450  0.2282
  793MOL0     C 6943   9.788  12.433   8.089  0.7278 -0.0189 -0.2996
  793MOL0     O 6944   9.772  12.338   7.984 -0.1518 -0.2083  0.4884
  793MOL0     C 6945   9.653  12.281   7.957  0.6125  0.2427 -0.1709
  793MOL0     C 6946   9.637  12.221   7.842 -0.7653  0.0874 -0.3913
  793MOL0     C 6947   9.518  12.170   7.788 -1.1952  0.2611  0.8216
  793MOL0     C 6948   9.523  12.124   7.644 -0.1504  0.9152 -0.8061
  793MOL0     C 6949   9.403  12.181   7.861  0.0237 -0.1171 -0.0157
  793MOL0     C 6950   9.263  12.149   7.820 -0.0227 -1.1489 -0.9486
  793MOL0     O 6951   9.167  12.227   7.869 -0.1341 -0.3549 -0.5042
  793MOL0     C 6952   9.038  12.197   7.850  0.7587  0.0720  0.1340
  793MOL0     C 6953   8.990  12.073   7.895  0.3852  0.4633  0.6065
  793MOL0     C 6954   8.854  12.051   7.898  0.4251 -0.4761  0.8794
  793MOL0     C 6955   8.763  12.164   7.868  0.1725 -0.9301  0.6671
  793MOL0     O 6956   8.624  12.146   7.867  0.5061 -0.0319 -0.2650
  793MOL0     C 6957   8.565  12.024   7.824 -0.3920  0.4269  0.2685
  793MOL0     C 6958   8.584  11.986   7.683 -0.4466  0.0589 -0.2447
  793MOL0     C 6959   8.603  12.109   7.581 -0.0476 -1.0010 -0.4326
  793MOL0     C 6960   8.528  12.060   7.458  0.5434 -0.1398  1.0959
  793MOL0     C 6961   8.556  12.146   7.333  0.1069  0.1953 -0.3722
  793MOL0     C 6962   8.472  12.079   7.219  0.3559  0.0776  0.2026
  793MOL0     C 6963   8.552  12.107   7.087  0.2115  0.0109  0.8725
  793MOL0     C 6964   8.447  12.116   6.971 -0.0422 -0.9066 -0.2784
  793MOL0    Cl 6965   8.404  11.950   6.931 -0.6072  0.2502 -0.0323
  793MOL0     C 6966   8.813  12.294   7.838 -0.5941 -0.0881  0.1672
  793MOL0     C 6967   8.949  12.307   7.831  0.4576  1.6486  0.2777
  793MOL0     O 6968   9.248  12.043   7.765 -0.0119  0.6062  0.6805
  793MOL0     C 6969   9.422  12.243   7.983  0.3184  0.1385 -0.9073
  793MOL0     C 6970   9.537  12.287   8.032 -0.9363  0.2284  0.5724
  793MOL0     N 6971   9.901  12.098   8.586  0.9698 -0.6883 -0.1706
  793MOL0     N 6972   9.899  11.980   8.639  0.4511 -1.0462  0.5977
  793MOL0     C 6973   9.030  11.146   8.365  0.8745 -0.8368 -0.1723
  793MOL0     C 6974   8.913  11.078   8.380  0.7059 -0.2062  0.4902
  793MOL0     C 6975   8.678  10.767   8.606  0.2425 -0.1700  0.1107
  793MOL0     C 6976   8.549  10.789   8.562 -0.1492 -0.2829  0.2333
  793MOL0     C 6977   8.454  10.690   8.580 -0.4119  0.3129 -0.0010
  793MOL0     C 6978   8.487  10.561   8.632  0.4453  0.3581  0.2429
  793MOL0     O 6979   8.408  10.452   8.650 -0.0685  0.7130 -0.5831
  793MOL0     C 6980   8.280  10.429   8.590  0.0829 -0.0974  0.6396
  793MOL0     C 6981   8.162  10.421   8.685 -0.6362 -0.9132  0.4596
  793MOL0     C 6982   8.031  10.366   8.622 -0.4600  0.4600  0.0342
  793MOL0     C 6983   8.033  10.236   8.541 -0.0236 -0.7564  0.0630
  793MOL0     C 6984   8.115  10.127   8.591  0.6165 -0.0439  0.8294
  793MOL0     C 6985   8.182  10.050   8.652  0.0618 -0.0139 -0.0834
  793MOL0     C 6986   8.620  10.541   8.671 -0.4504  1.1108  0.9524
  793MOL0     C 6987   8.720  10.637   8.666  0.1356  0.5819 -0.6084
  793MOL0     H 6988   8.841  11.165   8.695  1.9399  1.9086  0.1181
  793MOL0     H 6989   9.029  11.311   8.669  0.5693  0.7315 -0.9061
  793MOL0     H 6990   9.163  11.423   8.265  1.6752 -1.9389  1.4075
  793MOL0     H 6991   9.042  11.481   8.389 -0.4008 -0.3022 -1.4664
  793MOL0     H 6992   9.247  11.637   8.364  1.7883  0.5423  0.2342
  793MOL0     H 6993   9.243  11.562   8.518 -0.8415 -0.1258 -0.0495
  793MOL0     H 6994   9.419  11.395   8.457 -0.0338 -0.0766  0.0826
  793MOL0     H 6995   9.442  11.470   8.308  1.6526  0.7093  1.2363
  793MOL0     H 6996   9.479  11.682   8.407  2.3513 -0.6627  0.3504
  793MOL0     H 6997   9.472  11.610   8.570  0.3420  0.1871 -0.1922
  793MOL0     H 6998   9.679  11.490   8.502  1.6584  2.2014  2.0098
  793MOL0     H 6999   9.652  11.541   8.338  0.1680 -0.4180 -0.0164
  793MOL0     H 7000   9.691  11.767   8.431 -1.5115 -2.4027 -2.9849
  793MOL0     H 7001   9.689  11.687   8.593 -3.7774  1.8051  0.1664
  793MOL0     H 7002   9.904  11.563   8.470 -0.7332 -0.9508 -0.4999
  793MOL0     H 7003   9.883  11.701   8.360 -1.9967 -1.0959 -0.1979
  793MOL0     H 7004  10.052  11.723   8.563  0.2234 -2.0511  5.0361
  793MOL0     H 7005   9.904  11.724   8.663  1.6473  1.5525  0.6039
  793MOL0     H 7006  10.029  11.932   8.333  1.5308 -1.3005  0.6306
  793MOL0     H 7007   9.978  12.310   8.437 -0.5247  0.6793 -0.0649
  793MOL0     H 7008  10.070  12.232   8.330 -0.1330 -0.3200  0.5688
  793MOL0     H 7009   9.763  12.269   8.311 -0.7192 -5.0460  0.6690
  793MOL0     H 7010   9.854  12.165   8.192 -0.3623  0.7411 -1.6523
  793MOL0     H 7011   9.991  12.344   8.114  1.0381  1.4400  1.6889
  793MOL0     H 7012   9.934  12.457   8.245  0.2753  2.1742 -2.8128
  793MOL0     H 7013   9.806  12.537   8.059 -0.7679 -0.4658 -3.1586
  793MOL0     H 7014   9.701  12.443   8.154  0.7893 -2.4744  0.2718
  793MOL0     H 7015   9.718  12.221   7.770 -0.3090  0.9746  0.1129
  793MOL0     H 7016   9.539  12.214   7.585 -1.4450  1.3410 -0.5560
  793MOL0     H 7017   9.605  12.054   7.629 -0.3705  0.3907  0.2986
  793MOL0     H 7018   9.435  12.072   7.604  2.1880 -2.3309 -2.1553
  793MOL0     H 7019   9.059  11.994   7.922  0.9983  0.8751  0.2762
  793MOL0     H 7020   8.820  11.949   7.914 -1.3473  0.2880  2.4948
  793MOL0     H 7021   8.600  11.948   7.894 -2.6582  0.5879  1.6741
  793MOL0     H 7022   8.460  12.049   7.840 -0.6693 -0.5584  0.0372
  793MOL0     H 7023   8.682  11.939   7.678 -0.3749  0.2642 -0.7797
  793MOL0     H 7024   8.507  11.912   7.657 -1.3009  0.6583  0.5029
  793MOL0     H 7025   8.708  12.116   7.549 -0.6288 -0.8495 -2.4386
  793MOL0     H 7026   8.566  12.204   7.619  2.4123  0.5410 -1.6253
  793MOL0     H 7027   8.558  11.959   7.430 -1.4261 -0.9647  1.7701
  793MOL0     H 7028   8.419  12.058   7.471  0.3413 -1.1627 -0.5210
  793MOL0     H 7029   8.664  12.138   7.317  0.7287  0.3853  2.9926
  793MOL0     H 7030   8.523  12.248   7.353 -0.4893  0.1922 -1.3015
  793MOL0     H 7031   8.468  11.969   7.219 -0.6177 -0.0506 -3.8881
  793MOL0     H 7032   8.369  12.112   7.204  0.6627  0.5134 -1.1273
  793MOL0     H 7033   8.624  12.027   7.070 -1.3009 -1.1232 -0.4662
  793MOL0     H 7034   8.604  12.203   7.091  1.7490 -0.8079  1.6091
  793MOL0     H 7035   8.501  12.165   6.889  2.0033 -1.0691  0.8956
  793MOL0     H 7036   8.356  12.168   7.000  1.2819 -0.6652  4.2517
  793MOL0     H 7037   8.760  12.385   7.812  4.7954  2.4146 -4.1632
  793MOL0     H 7038   9.004  12.399   7.815 -1.7072  2.7841 -1.1451
  793MOL0     H 7039   9.341  12.229   8.055  0.9889 -0.7724 -0.2924
  793MOL0     H 7040   9.543  12.315   8.137 -0.8647  1.8025  0.1735
  793MOL0     H 7041   9.077  11.152   8.268 -0.4711  0.4126 -0.7772
  793MOL0     H 7042   8.869  11.026   8.296 -0.7312  0.3522  0.8777
  793MOL0     H 7043   8.533  10.887   8.517  0.8742 -0.6556 -1.0037
  793MOL0     H 7044   8.356  10.717   8.543 -0.0669 -1.2381 -2.2539
  793MOL0     H 7045   8.267  10.502   8.509 -0.0635 -1.2911 -0.4603
  793MOL0     H 7046   8.282  10.330   8.543  1.7379 -1.5098  3.4556
  793MOL0     H 7047   8.132  10.525   8.700 -1.8899 -1.3555  1.2456
  793MOL0     H 7048   8.207  10.379   8.776  0.5845 -0.9603 -0.1433
  793MOL0     H 7049   7.994  10.446   8.557  0.0653  1.1449  0.5707
  793MOL0     H 7050   7.968  10.351   8.710  2.2214 -1.1281  1.8164
  793MOL0     H 7051   8.068  10.269   8.442 -2.9311  1.2743 -0.4321
  793MOL0     H 7052   7.928  10.214   8.516 -0.4127  2.7729 -2.1066
  793MOL0     H 7053   8.253   9.979   8.689 -1.1466 -1.7037 -0.8540
  793MOL0     H 7054   8.632  10.436   8.697 -2.8639  0.3832 -0.5631
  793MOL0     H 7055   8.822  10.607   8.686 -0.3845 -1.7586 -1.1002
  794MOL0     O 7056   2.666   8.712  11.064 -1.1651 -0.1365  0.1877
  794MOL0     C 7057   2.688   8.737  10.947 -0.1711  1.1038  0.3678
  794MOL0     O 7058   2.656   8.850  10.883 -0.3050 -0.4378 -0.0638
  794MOL0     C 7059   2.550   8.938  10.930  0.5720 -0.4935 -0.7716
  794MOL0     C 7060   2.576   9.073  10.978  0.1786  0.5679  0.6284
  794MOL0     C 7061   2.476   9.149  11.043 -1.2657  0.0247 -0.2766
  794MOL0     C 7062   2.355   9.091  11.058 -0.0086 -0.3827  0.5647
  794MOL0     O 7063   2.257   9.148  11.127 -0.1928 -0.5338 -0.4565
  794MOL0     C 7064   2.294   9.209  11.259 -0.3866 -0.7605 -0.7883
  794MOL0     C 7065   2.188   9.218  11.359  0.0555 -0.5024 -0.3759
  794MOL0     C 7066   2.183   9.093  11.446 -0.3475  0.9014  0.5014
  794MOL0     C 7067   2.122   9.118  11.585 -0.9880 -0.4474  1.4543
  794MOL0     C 7068   2.076   8.988  11.646 -0.4136  0.2810  0.1119
  794MOL0     C 7069   1.943   8.928  11.597 -0.1306 -0.3289 -0.3416
  794MOL0     C 7070   1.939   8.770  11.633  0.0968 -0.7135  0.0510
  794MOL0     C 7071   1.950   8.750  11.782 -0.6325  0.1785 -0.8644
  794MOL0     N 7072   1.845   8.820  11.862 -0.0277  0.7330 -0.8420
  794MOL0     C 7073   1.715   8.776  11.876 -0.3164  1.0650  0.1409
  794MOL0     C 7074   1.667   8.857  11.974 -0.1268 -0.1821  0.2290
  794MOL0     C 7075   1.525   8.849  12.001  0.1013 -0.7678  0.4544
  794MOL0     C 7076   1.458   8.989  12.012  0.6056  0.1310 -0.2661
  794MOL0     C 7077   1.477   9.078  11.893  0.3320 -0.8632 -0.4654
  794MOL0     C 7078   1.465   9.007  11.756 -0.0462  0.0474 -0.4210
  794MOL0     O 7079   1.440   9.108  11.661  0.2472  0.4972  0.5133
  794MOL0     C 7080   1.311   9.142  11.630 -0.4500 -0.8088  0.2833
  794MOL0     C 7081   1.191   9.121  11.709 -0.1123  0.5025  1.4873
  794MOL0     C 7082   1.067   9.155  11.677  0.0646 -0.0357 -0.3680
  794MOL0     C 7083   0.960   9.116  11.787  0.4314  1.1648  0.8471
  794MOL0     C 7084   1.052   9.225  11.555 -0.1798 -0.6638 -0.3835
  794MOL0     C 7085   0.918   9.295  11.514  0.1740  0.9380 -0.1138
  794MOL0     O 7086   0.923   9.408  11.437 -0.1162 -0.0639 -0.0884
  794MOL0     C 7087   0.804   9.465  11.394 -0.1349 -0.2557 -0.7523
  794MOL0     C 7088   0.708   9.402  11.318 -0.2738  0.5397 -0.0735
  794MOL0     C 7089   0.597   9.471  11.275 -0.9806 -0.6049  0.0047
  794MOL0     C 7090   0.573   9.602  11.308 -0.2873  0.2736  0.2420
  794MOL0     O 7091   0.457   9.665  11.271 -0.2414 -0.1184 -0.2187
  794MOL0     C 7092   0.449   9.799  11.313 -0.2560  0.6357 -0.2676
  794MOL0     C 7093   0.303   9.852  11.303  0.0395  0.4745  0.0436
  794MOL0     C 7094   0.264   9.880  11.155 -0.1994  0.6162 -0.5669
  794MOL0     C 7095   0.125   9.939  11.146 -0.7196  0.7373 -0.5948
  794MOL0     C 7096   0.080   9.915  11.007  0.6742 -0.6894  0.3646
  794MOL0     C 7097  -0.033   9.807  11.009  0.3030  0.6621 -0.8073
  794MOL0     C 7098  -0.078   9.782  10.872  0.6217  1.0817  0.1145
  794MOL0     C 7099  -0.195   9.685  10.869 -0.6583 -0.2140  0.0200
  794MOL0    Cl 7100  -0.239   9.640  10.699  0.1881  0.1323  0.0753
  794MOL0     C 7101   0.680   9.669  11.376  0.5987 -0.1211  0.4873
  794MOL0     C 7102   0.795   9.605  11.413  0.1174  0.7905  0.0736
  794MOL0     O 7103   0.810   9.251  11.561 -1.1043 -0.7526 -0.0484
  794MOL0     C 7104   1.166   9.238  11.465  0.1881 -0.5820  0.4975
  794MOL0     C 7105   1.290   9.196  11.500 -0.6896  0.4270  0.0779
  794MOL0     N 7106   1.758   8.958  12.000 -0.0701 -0.6912 -0.8146
  794MOL0     N 7107   1.869   8.933  11.927  0.5313 -0.4725 -0.8820
  794MOL0     C 7108   2.317   8.977  10.992  0.2968  0.7758  0.7615
  794MOL0     C 7109   2.414   8.900  10.919 -0.6451  1.0227 -0.9660
  794MOL0     C 7110   2.781   8.636  10.879  1.1347  0.1053 -0.1543
  794MOL0     C 7111   2.856   8.545  10.949  0.8133  0.5864  0.4954
  794MOL0     C 7112   2.932   8.436  10.883  0.8271  0.2760 -0.1499
  794MOL0     C 7113   2.912   8.404  10.757 -0.2599 -0.5320  0.0761
  794MOL0     O 7114   2.969   8.290  10.695 -0.0134  0.4326  0.0491
  794MOL0     C 7115   3.059   8.208  10.758  0.3014 -0.6569  0.1193
  794MOL0     C 7116   3.138   8.135  10.654 -0.3442  0.1166  0.7485
  794MOL0     C 7117   3.150   7.994  10.670  0.6188  0.7425  0.8533
  794MOL0     C 7118   3.195   7.909  10.544  0.3850 -0.3140 -0.5918
  794MOL0     C 7119   3.337   7.948  10.505 -0.4459  1.1907 -0.9181
  794MOL0     C 7120   3.456   7.979  10.489  0.1059 -0.1091 -0.1375
  794MOL0     C 7121   2.842   8.498  10.680 -1.4208  0.1892  0.5442
  794MOL0     C 7122   2.780   8.615  10.732 -0.1685  0.7209  0.2036
  794MOL0     H 7123   2.683   9.093  10.970 -0.6418  5.6881 -3.7556
  794MOL0     H 7124   2.505   9.243  11.090  1.4473 -2.0631  2.6406
  794MOL0     H 7125   2.384   9.159  11.296 -0.8059  0.4347  2.1645
  794MOL0     H 7126   2.332   9.310  11.246  2.9457 -2.0089 -1.9165
  794MOL0     H 7127   2.197   9.304  11.426 -0.5138 -1.7335  1.3435
  794MOL0     H 7128   2.087   9.222  11.317  0.3166 -0.1835 -0.9785
  794MOL0     H 7129   2.122   9.028  11.382 -0.1375  1.0362  0.1581
  794MOL0     H 7130   2.281   9.045  11.453  0.0525  0.4080 -4.5148
  794MOL0     H 7131   2.198   9.167  11.645 -2.7759  1.5683  2.2014
  794MOL0     H 7132   2.043   9.194  11.581 -1.3723 -0.8849 -0.4567
  794MOL0     H 7133   2.150   8.914  11.612  0.2933  1.1623 -0.2865
  794MOL0     H 7134   2.070   8.996  11.755  0.9374  2.2570  0.0767
  794MOL0     H 7135   1.857   8.979  11.641  0.3206 -0.0062  0.1854
  794MOL0     H 7136   1.937   8.933  11.488 -0.2719  1.6903 -0.2859
  794MOL0     H 7137   1.837   8.739  11.607 -0.3385  1.3536 -0.8758
  794MOL0     H 7138   2.021   8.721  11.580  3.4491  2.2124  2.0618
  794MOL0     H 7139   2.052   8.775  11.813 -0.5098 -1.0498 -0.2056
  794MOL0     H 7140   1.931   8.645  11.807  0.7142 -0.1826 -1.2744
  794MOL0     H 7141   1.671   8.693  11.822  2.7854  0.2628 -1.3628
  794MOL0     H 7142   1.475   8.804  11.915  0.7813  0.9853 -0.9255
  794MOL0     H 7143   1.509   8.776  12.080  2.4965 -2.7859 -0.7940
  794MOL0     H 7144   1.491   9.037  12.105  1.9816 -0.9402 -0.1747
  794MOL0     H 7145   1.351   8.980  12.032  0.4922  0.4234 -0.7301
  794MOL0     H 7146   1.576   9.125  11.891 -0.1281  0.0879 -2.0360
  794MOL0     H 7147   1.413   9.166  11.911  2.1858  0.4849 -0.1683
  794MOL0     H 7148   1.377   8.942  11.753 -1.3516  1.7812 -1.8599
  794MOL0     H 7149   1.559   8.954  11.744 -1.0437 -1.7817 -0.5529
  794MOL0     H 7150   1.209   9.065  11.800  0.3366  2.5559  2.7485
  794MOL0     H 7151   0.868   9.073  11.747  0.8702  0.0063  1.0211
  794MOL0     H 7152   1.004   9.042  11.856 -2.6628 -1.6154  0.0958
  794MOL0     H 7153   0.936   9.207  11.842  0.4792  0.5215  1.9674
  794MOL0     H 7154   0.711   9.295  11.302  2.2246  0.5254  0.1080
  794MOL0     H 7155   0.530   9.419  11.207  3.0373 -1.5903 -3.6827
  794MOL0     H 7156   0.461   9.807  11.422 -2.0187 -1.2613  0.1134
  794MOL0     H 7157   0.515   9.867  11.258 -1.0327  0.1967 -1.8128
  794MOL0     H 7158   0.230   9.794  11.359  1.4996 -0.1414  1.4049
  794MOL0     H 7159   0.297   9.943  11.364 -2.5159 -0.2983  1.0708
  794MOL0     H 7160   0.244   9.787  11.101 -1.1215  2.2054 -3.1743
  794MOL0     H 7161   0.334   9.938  11.095  0.9566 -0.7041 -0.5374
  794MOL0     H 7162   0.066   9.883  11.219 -1.1892  2.8498  0.7334
  794MOL0     H 7163   0.104  10.044  11.172 -0.7836  0.1766  1.8585
  794MOL0     H 7164   0.163   9.888  10.941  0.3005 -1.0336  0.0279
  794MOL0     H 7165   0.045  10.013  10.973 -1.6305 -1.3264  0.6942
  794MOL0     H 7166   0.003   9.710  11.042 -1.8875 -1.0081 -2.8787
  794MOL0     H 7167  -0.114   9.847  11.072 -0.6715 -1.3773 -0.6886
  794MOL0     H 7168   0.001   9.746  10.805 -0.9477 -0.4604 -0.9942
  794MOL0     H 7169  -0.113   9.879  10.836  0.7916  2.1829  2.6549
  794MOL0     H 7170  -0.289   9.718  10.915 -0.9300  1.1886 -1.4562
  794MOL0     H 7171  -0.154   9.596  10.919  2.4898  2.0514  1.8352
  794MOL0     H 7172   0.679   9.776  11.392  3.5856  0.0807 -0.1033
  794MOL0     H 7173   0.873   9.667  11.458  0.0509  1.1689 -0.3276
  794MOL0     H 7174   1.161   9.273  11.362  1.9596  0.1236  0.6242
  794MOL0     H 7175   1.381   9.208  11.441 -0.9785 -0.8651 -0.6721
  794MOL0     H 7176   2.211   8.951  10.989  0.4324  0.3091 -1.0851
  794MOL0     H 7177   2.398   8.817  10.851  1.2150  1.0416 -1.4672
  794MOL0     H 7178   2.864   8.562  11.056  2.1234  4.6973 -0.0755
  794MOL0     H 7179   2.990   8.368  10.944  0.1205  0.9214  1.2878
  794MOL0     H 7180   3.135   8.257  10.820 -0.3158  0.2881  0.1601
  794MOL0     H 7181   2.994   8.143  10.816  0.3423 -0.2915  0.5762
  794MOL0     H 7182   3.241   8.172  10.651 -0.7352  1.2219 -0.6799
  794MOL0     H 7183   3.091   8.153  10.556 -0.1306 -0.9792  0.4375
  794MOL0     H 7184   3.048   7.956  10.675  1.1873 -1.7602 -2.8175
  794MOL0     H 7185   3.210   7.962  10.756 -0.8660 -0.2001  1.5676
  794MOL0     H 7186   3.131   7.929  10.458 -0.7171  1.3367  0.5417
  794MOL0     H 7187   3.166   7.806  10.567 -1.2328  0.0774 -0.8015
  794MOL0     H 7188   3.556   8.018  10.480 -0.6828  1.5647 -2.6499
  794MOL0     H 7189   2.847   8.487  10.572  3.2612  0.8210  0.4961
  794MOL0     H 7190   2.718   8.673  10.665  0.8414 -1.2378 -2.6098
  795MOL0     O 7191  11.045   7.584   0.365 -0.1257 -0.1588 -0.0318
  795MOL0     C 7192  10.987   7.475   0.357 -0.1280  0.2286 -0.0235
  795MOL0     O 7193  10.951   7.411   0.240  0.4888  1.1998  0.1145
  795MOL0     C 7194  10.978   7.470   0.116 -1.0234 -0.1962 -0.1717
  795MOL0     C 7195  10.876   7.500   0.033  0.6611 -0.5689 -0.3753
  795MOL0     C 7196  10.896   7.566  -0.095  0.2905  0.5648  0.7470
  795MOL0     C 7197  11.030   7.604  -0.126  0.8414  0.1681 -0.1459
  795MOL0     O 7198  11.065   7.674  -0.244  0.2991 -0.4270  0.1465
  795MOL0     C 7199  10.969   7.763  -0.311  0.0156 -0.0314  0.9669
  795MOL0     C 7200  11.060   7.835  -0.404  0.0249  0.1890  1.1928
  795MOL0     C 7201  11.133   7.944  -0.323  0.0239  0.0388  0.6339
  795MOL0     C 7202  11.217   8.024  -0.416 -0.3107  0.6370 -0.8573
  795MOL0     C 7203  11.316   8.109  -0.340 -0.5740 -0.2560  0.1017
  795MOL0     C 7204  11.254   8.181  -0.218 -1.1201 -0.8761 -0.7098
  795MOL0     C 7205  11.329   8.308  -0.168 -0.3132  0.6679 -0.4294
  795MOL0     C 7206  11.480   8.285  -0.156  0.2617  0.1800 -0.2855
  795MOL0     N 7207  11.501   8.187  -0.054 -1.0723  0.0858  0.3239
  795MOL0     C 7208  11.532   8.058  -0.065  1.4289 -0.1566 -0.2112
  795MOL0     C 7209  11.578   8.013   0.060  0.0341 -0.0108  0.5267
  795MOL0     C 7210  11.647   7.891   0.111  0.2256 -0.7804  0.0756
  795MOL0     C 7211  11.585   7.756   0.057  0.9685  1.0962 -0.1606
  795MOL0     C 7212  11.627   7.642   0.153  1.4904  0.1444 -0.1380
  795MOL0     C 7213  11.549   7.631   0.276 -0.7213  0.3210 -0.8244
  795MOL0     O 7214  11.610   7.524   0.354 -0.2999  0.5587 -0.2573
  795MOL0     C 7215  11.583   7.393   0.318 -1.1215  1.0543 -0.1913
  795MOL0     C 7216  11.677   7.306   0.378 -0.1254  0.1016 -0.0168
  795MOL0     C 7217  11.693   7.173   0.335  0.8308 -0.2021 -0.5026
  795MOL0     C 7218  11.810   7.105   0.394 -1.0573 -0.2259 -0.4139
  795MOL0     C 7219  11.610   7.116   0.239 -0.6209 -0.1158 -0.7157
  795MOL0     C 7220  11.606   6.982   0.178 -1.2894 -0.0859  0.3700
  795MOL0     O 7221  11.578   6.972   0.046  0.2032 -0.0095  0.4541
  795MOL0     C 7222  11.621   6.854  -0.015  0.0866  0.5815 -0.0390
  795MOL0     C 7223  11.748   6.835  -0.078  0.6143 -0.2191 -1.1127
  795MOL0     C 7224  11.774   6.718  -0.155  1.2612  0.4334  0.0157
  795MOL0     C 7225  11.687   6.608  -0.173 -0.7603 -0.6372 -0.2365
  795MOL0     O 7226  11.725   6.493  -0.232  0.1643 -0.7520  0.1300
  795MOL0     C 7227  11.862   6.474  -0.258  0.1192 -0.8081 -0.2435
  795MOL0     C 7228  11.885   6.338  -0.318  0.4527 -0.0610 -0.4324
  795MOL0     C 7229  11.841   6.342  -0.464  0.0291  0.6900  1.6519
  795MOL0     C 7230  11.901   6.223  -0.548  0.3623 -0.2081 -0.4241
  795MOL0     C 7231  11.850   6.221  -0.693 -0.0959 -0.5982  0.3104
  795MOL0     C 7232  11.894   6.360  -0.766 -0.1329  0.8436  0.1048
  795MOL0     C 7233  11.845   6.364  -0.906  0.4884 -0.3187  0.2310
  795MOL0     C 7234  11.904   6.486  -0.984 -0.8786 -0.0179 -0.2397
  795MOL0    Cl 7235  11.910   6.648  -0.899 -0.0578 -0.1444  0.1906
  795MOL0     C 7236  11.565   6.623  -0.107  0.5327 -0.1586 -0.0100
  795MOL0     C 7237  11.534   6.736  -0.025 -0.0245  0.0713  0.5922
  795MOL0     O 7238  11.630   6.891   0.250 -0.2298  0.2644 -0.6040
  795MOL0     C 7239  11.507   7.203   0.193 -0.9761  0.4989  0.0387
  795MOL0     C 7240  11.487   7.334   0.236 -0.1096  0.3909  0.7335
  795MOL0     N 7241  11.569   8.122   0.135  1.1136 -0.3818 -0.6899
  795MOL0     N 7242  11.520   8.221   0.070 -0.3338  0.3487  1.1259
  795MOL0     C 7243  11.133   7.574  -0.037 -0.4901  0.0217 -0.1711
  795MOL0     C 7244  11.113   7.506   0.079 -0.9928 -1.1849 -0.2614
  795MOL0     C 7245  10.941   7.410   0.482 -0.4633  0.0078 -0.7562
  795MOL0     C 7246  10.926   7.478   0.604 -0.8080  0.4460 -0.0249
  795MOL0     C 7247  10.883   7.409   0.720 -0.1798  0.9032 -1.1268
  795MOL0     C 7248  10.884   7.265   0.720  0.5015 -0.1309  0.7298
  795MOL0     O 7249  10.855   7.201   0.839 -0.0122 -0.2423  0.0660
  795MOL0     C 7250  10.846   7.058   0.838  0.8995 -0.5288 -0.4367
  795MOL0     C 7251  10.814   7.019   0.987 -0.5595  0.2646 -0.4505
  795MOL0     C 7252  10.677   7.083   1.042  0.7060 -0.9269  0.0837
  795MOL0     C 7253  10.670   7.106   1.193  1.1087 -0.3563  0.3482
  795MOL0     C 7254  10.771   7.193   1.246 -0.2715 -0.0936  0.1443
  795MOL0     C 7255  10.865   7.256   1.290 -1.2759 -0.7991  0.7948
  795MOL0     C 7256  10.895   7.199   0.598 -0.2659  0.9126  0.1298
  795MOL0     C 7257  10.916   7.269   0.479 -0.9047 -0.1819 -0.1264
  795MOL0     H 7258  10.781   7.449   0.048 -0.7704  1.9579 -0.3286
  795MOL0     H 7259  10.815   7.579  -0.165 -0.5012 -0.8450  1.3695
  795MOL0     H 7260  10.904   7.709  -0.380  2.4800  0.0608 -1.6109
  795MOL0     H 7261  10.910   7.823  -0.241 -1.3789 -2.3194  1.8485
  795MOL0     H 7262  11.137   7.769  -0.446  2.7119  2.8357  1.6153
  795MOL0     H 7263  11.004   7.878  -0.488 -4.2322  1.6536  4.4152
  795MOL0     H 7264  11.050   8.000  -0.277 -0.6336 -1.9866  2.0542
  795MOL0     H 7265  11.193   7.893  -0.247 -0.7253  0.9544  1.8819
  795MOL0     H 7266  11.279   7.947  -0.463 -3.5504 -1.3833 -2.2114
  795MOL0     H 7267  11.169   8.071  -0.503  0.0651 -2.8512 -3.1734
  795MOL0     H 7268  11.388   8.033  -0.308  0.4157  0.3307 -0.6824
  795MOL0     H 7269  11.372   8.177  -0.405 -0.3034  0.7954  1.3885
  795MOL0     H 7270  11.154   8.220  -0.240 -1.9603 -1.4106  1.8472
  795MOL0     H 7271  11.233   8.114  -0.135  1.1176  0.1584  0.8043
  795MOL0     H 7272  11.316   8.386  -0.245  0.7682 -0.5545 -1.9196
  795MOL0     H 7273  11.301   8.345  -0.069  0.3693  0.9905 -0.3464
  795MOL0     H 7274  11.520   8.377  -0.114 -0.5386  0.2005  0.4527
  795MOL0     H 7275  11.532   8.257  -0.248  1.2548 -1.8065  0.7898
  795MOL0     H 7276  11.533   7.997  -0.155 -2.0618 -2.4531  1.1126
  795MOL0     H 7277  11.754   7.901   0.089  0.4852 -0.9875  1.1712
  795MOL0     H 7278  11.634   7.900   0.219  2.9859  2.3761  0.3102
  795MOL0     H 7279  11.631   7.725  -0.037  2.5970 -2.3207  1.5873
  795MOL0     H 7280  11.477   7.761   0.041  1.1469  0.8521 -1.5997
  795MOL0     H 7281  11.735   7.643   0.172  1.0481 -0.9760  2.9645
  795MOL0     H 7282  11.609   7.545   0.106  1.1894 -0.5040  1.2956
  795MOL0     H 7283  11.442   7.619   0.255 -1.6147  1.3789  2.5452
  795MOL0     H 7284  11.552   7.719   0.340  3.7908 -0.5220  0.4639
  795MOL0     H 7285  11.749   7.351   0.446 -0.5138 -0.0381  0.4959
  795MOL0     H 7286  11.833   7.154   0.489  0.9053  0.2485 -1.0958
  795MOL0     H 7287  11.810   6.997   0.411  0.5440 -0.6011 -2.3959
  795MOL0     H 7288  11.903   7.129   0.342 -0.4653  0.3887  0.8867
  795MOL0     H 7289  11.822   6.914  -0.072 -0.0745  0.5476 -2.3254
  795MOL0     H 7290  11.869   6.731  -0.207  1.7329  1.4156  1.0774
  795MOL0     H 7291  11.890   6.553  -0.328  1.4687  0.0913  1.2662
  795MOL0     H 7292  11.913   6.483  -0.162 -0.8558 -2.1064  0.4280
  795MOL0     H 7293  11.995   6.338  -0.311  0.5226  3.3754  0.7934
  795MOL0     H 7294  11.840   6.262  -0.254  2.6058  1.1518  2.7978
  795MOL0     H 7295  11.873   6.430  -0.519  0.9414  0.9929  2.6223
  795MOL0     H 7296  11.733   6.333  -0.478 -0.1998  3.7139  0.8143
  795MOL0     H 7297  12.010   6.231  -0.542  0.7589 -3.4637 -1.4921
  795MOL0     H 7298  11.868   6.138  -0.488 -1.4387  0.6334 -0.1507
  795MOL0     H 7299  11.742   6.240  -0.694  0.4354  3.4654 -2.5695
  795MOL0     H 7300  11.875   6.126  -0.741 -1.5378 -0.1043 -1.5098
  795MOL0     H 7301  11.850   6.450  -0.722  0.8679  2.1004 -1.3585
  795MOL0     H 7302  12.001   6.379  -0.771 -0.2670  1.6271  0.1161
  795MOL0     H 7303  11.736   6.371  -0.911  0.5327 -0.1385 -2.9457
  795MOL0     H 7304  11.861   6.277  -0.971  0.5676  0.5891 -1.0083
  795MOL0     H 7305  11.852   6.487  -1.080  3.7015 -1.7718 -3.0629
  795MOL0     H 7306  12.005   6.460  -1.017 -0.7827  0.1806 -0.1055
  795MOL0     H 7307  11.481   6.554  -0.112  1.0716 -0.8118 -0.3105
  795MOL0     H 7308  11.448   6.742   0.041 -1.5366 -1.7741 -1.0373
  795MOL0     H 7309  11.439   7.177   0.112 -0.9320  0.0194  0.1554
  795MOL0     H 7310  11.395   7.380   0.201 -0.0199 -1.3457 -2.1708
  795MOL0     H 7311  11.233   7.609  -0.060  1.5010 -1.7124  4.5103
  795MOL0     H 7312  11.192   7.467   0.143 -0.3599 -1.4063 -1.1552
  795MOL0     H 7313  10.922   7.587   0.605 -0.5355  0.4534  0.4845
  795MOL0     H 7314  10.852   7.464   0.808  2.2139  1.6042 -0.6259
  795MOL0     H 7315  10.757   7.030   0.781  0.7640  0.4148 -0.7167
  795MOL0     H 7316  10.940   7.016   0.802  1.8885  2.0680 -1.1398
  795MOL0     H 7317  10.898   7.056   1.047  0.6168  3.1522 -3.5615
  795MOL0     H 7318  10.809   6.910   0.993 -2.0697  0.3600  1.3621
  795MOL0     H 7319  10.594   7.015   1.021  2.6322 -3.1776 -0.7114
  795MOL0     H 7320  10.651   7.181   1.000  0.6399 -1.0509 -0.1633
  795MOL0     H 7321  10.679   7.014   1.251  2.9546 -0.5617 -0.1919
  795MOL0     H 7322  10.574   7.145   1.225  0.6112  0.2228 -1.7052
  795MOL0     H 7323  10.940   7.323   1.328  0.5681 -1.6612 -1.1261
  795MOL0     H 7324  10.882   7.092   0.588  2.4082  0.7197 -2.7825
  795MOL0     H 7325  10.928   7.200   0.396 -1.4104 -1.9941  1.2425
  796MOL0     O 7326   0.518   2.937   0.958  0.1659  0.1776 -0.8578
  796MOL0     C 7327   0.549   3.034   0.887  0.4788  0.0344  0.1918
  796MOL0     O 7328   0.618   3.030   0.771  0.4040  0.7129  0.4639
  796MOL0     C 7329   0.678   2.911   0.716 -0.0281  0.4004 -0.0258
  796MOL0     C 7330   0.781   2.934   0.620  0.1086  0.1921 -0.1492
  796MOL0     C 7331   0.853   2.822   0.577 -1.1262 -0.1592  0.4006
  796MOL0     C 7332   0.824   2.694   0.622  0.0682 -0.2247  0.3833
  796MOL0     O 7333   0.874   2.574   0.570 -0.3785  0.2423  0.2619
  796MOL0     C 7334   1.007   2.566   0.509 -0.0558  0.1490  0.2485
  796MOL0     C 7335   1.022   2.456   0.403  0.7534  0.0014  0.7785
  796MOL0     C 7336   0.942   2.486   0.269 -0.9062 -0.2125  0.3748
  796MOL0     C 7337   0.969   2.361   0.192 -0.6628  0.1684 -0.2117
  796MOL0     C 7338   0.913   2.373   0.049  0.4341  0.6456  0.1207
  796MOL0     C 7339   0.920   2.234  -0.034  0.2295 -0.4145  0.3738
  796MOL0     C 7340   0.915   2.244  -0.185 -0.6557 -0.4105  0.0331
  796MOL0     C 7341   0.787   2.317  -0.246  0.4381  0.6760  0.0566
  796MOL0     N 7342   0.779   2.335  -0.385  0.1238 -0.7760  0.2100
  796MOL0     C 7343   0.809   2.246  -0.497 -0.9294  0.1204 -0.3739
  796MOL0     C 7344   0.824   2.326  -0.603  0.7764  1.1835 -0.6925
  796MOL0     C 7345   0.878   2.285  -0.737  0.1435 -0.0967  0.3650
  796MOL0     C 7346   1.029   2.240  -0.729  0.0827  0.2179  0.6136
  796MOL0     C 7347   1.095   2.194  -0.862  0.1654  0.0757 -0.6719
  796MOL0     C 7348   1.007   2.106  -0.935 -0.1921 -0.3864  0.0706
  796MOL0     O 7349   0.988   1.980  -0.851 -0.4686 -0.0553 -1.2134
  796MOL0     C 7350   0.886   1.897  -0.881  0.2677  0.6524  0.1812
  796MOL0     C 7351   0.840   1.864  -1.010  0.7180 -0.3629  0.4003
  796MOL0     C 7352   0.749   1.759  -1.032  0.1756 -0.4965  0.2818
  796MOL0     C 7353   0.731   1.702  -1.173 -0.5422 -0.3314  0.7966
  796MOL0     C 7354   0.687   1.693  -0.925 -0.8452  0.3275  0.9189
  796MOL0     C 7355   0.594   1.578  -0.935  0.5543 -0.5072 -1.1488
  796MOL0     O 7356   0.468   1.607  -0.884  0.0774  0.4465  0.3476
  796MOL0     C 7357   0.360   1.534  -0.919 -0.5482  0.1861 -0.2365
  796MOL0     C 7358   0.279   1.572  -1.018  0.2292 -0.5127 -0.4094
  796MOL0     C 7359   0.178   1.486  -1.067 -0.0129  0.1208  0.8450
  796MOL0     C 7360   0.153   1.355  -1.025 -0.9535 -0.3431 -0.4185
  796MOL0     O 7361   0.072   1.259  -1.081 -0.2923 -0.8283  0.2103
  796MOL0     C 7362   0.070   1.273  -1.229  1.0163  0.2847 -0.5279
  796MOL0     C 7363  -0.002   1.153  -1.299  0.5576  1.6372  0.1230
  796MOL0     C 7364  -0.147   1.128  -1.248 -0.5964 -0.3363  0.5406
  796MOL0     C 7365  -0.160   1.000  -1.172  0.5703  0.1412 -0.9256
  796MOL0     C 7366  -0.303   0.996  -1.132  0.1760  0.4472 -0.7367
  796MOL0     C 7367  -0.354   0.850  -1.090  0.6745  0.4423  0.5327
  796MOL0     C 7368  -0.430   0.780  -1.214  0.1959  0.3163  0.7606
  796MOL0     C 7369  -0.461   0.632  -1.182  0.7385 -0.4624  0.1820
  796MOL0    Cl 7370  -0.320   0.522  -1.177 -0.2002  0.1556  0.3920
  796MOL0     C 7371   0.232   1.327  -0.915 -1.1367  0.3132 -0.1606
  796MOL0     C 7372   0.339   1.402  -0.861 -0.6436  0.1023  0.1945
  796MOL0     O 7373   0.630   1.482  -1.002  0.4873  0.1613  0.2629
  796MOL0     C 7374   0.727   1.734  -0.795 -0.2493  1.0646 -0.6827
  796MOL0     C 7375   0.832   1.826  -0.772 -0.7122 -0.7686 -0.6776
  796MOL0     N 7376   0.801   2.454  -0.563 -0.4674 -0.4447  0.7090
  796MOL0     N 7377   0.774   2.460  -0.441  0.1928 -0.9075  0.6486
  796MOL0     C 7378   0.725   2.676   0.715  0.2053 -0.6759 -0.0218
  796MOL0     C 7379   0.655   2.778   0.766  0.2756 -0.5314  1.0176
  796MOL0     C 7380   0.524   3.159   0.962  1.0821  0.4207 -0.1008
  796MOL0     C 7381   0.594   3.280   0.935  1.3832  1.0742  1.1640
  796MOL0     C 7382   0.569   3.393   1.011 -0.6332  0.9930  1.2201
  796MOL0     C 7383   0.490   3.387   1.133 -0.3075 -0.6472  0.2463
  796MOL0     O 7384   0.461   3.489   1.221  0.1236 -0.1900  0.6743
  796MOL0     C 7385   0.549   3.598   1.235 -0.0808  0.0280 -0.7297
  796MOL0     C 7386   0.490   3.716   1.165  1.2531 -0.4468 -0.1116
  796MOL0     C 7387   0.340   3.748   1.192  0.2969 -0.0975 -0.7555
  796MOL0     C 7388   0.253   3.682   1.093  0.2924  0.1505  0.9419
  796MOL0     C 7389   0.116   3.747   1.084 -0.5104  0.3343  0.6656
  796MOL0     C 7390   0.005   3.795   1.064 -0.3445 -0.3283 -0.3766
  796MOL0     C 7391   0.421   3.262   1.164 -0.6149 -0.4728 -0.0288
  796MOL0     C 7392   0.442   3.152   1.075  1.5370 -0.4565  0.3481
  796MOL0     H 7393   0.789   3.036   0.585 -1.3811  0.2564 -0.3627
  796MOL0     H 7394   0.935   2.851   0.513  1.3782  1.8700  4.1420
  796MOL0     H 7395   1.048   2.656   0.463  1.4618 -0.3881  0.5157
  796MOL0     H 7396   1.076   2.538   0.588  2.1862  0.6261 -1.4457
  796MOL0     H 7397   1.129   2.458   0.380  0.5557  1.5637 -0.1179
  796MOL0     H 7398   1.001   2.357   0.446  3.8336 -2.6928 -3.2231
  796MOL0     H 7399   0.838   2.518   0.280 -0.9516 -0.3286  0.2853
  796MOL0     H 7400   0.991   2.568   0.215 -2.7941  0.3982 -0.4798
  796MOL0     H 7401   1.076   2.337   0.190 -0.4499  1.0664 -0.1695
  796MOL0     H 7402   0.911   2.277   0.232 -1.9531 -0.0892 -2.4966
  796MOL0     H 7403   0.809   2.407   0.056  0.4523  0.7839 -0.2542
  796MOL0     H 7404   0.960   2.441  -0.022 -0.3938  0.1743 -0.9021
  796MOL0     H 7405   1.017   2.192  -0.007  1.3213  2.2440  0.8067
  796MOL0     H 7406   0.837   2.167  -0.008 -1.2995  1.6918  1.2012
  796MOL0     H 7407   1.008   2.295  -0.210  1.9709 -2.9606  3.5101
  796MOL0     H 7408   0.944   2.155  -0.241  1.5276  1.7604 -2.5795
  796MOL0     H 7409   0.779   2.418  -0.204  1.4789  1.6708 -1.9801
  796MOL0     H 7410   0.692   2.274  -0.211 -0.9588  1.4520 -2.4858
  796MOL0     H 7411   0.831   2.140  -0.498  1.0412  0.4255  1.9385
  796MOL0     H 7412   0.815   2.208  -0.785  1.4558 -0.1718 -1.3297
  796MOL0     H 7413   0.882   2.370  -0.806 -4.0171 -0.2740 -0.3674
  796MOL0     H 7414   1.042   2.175  -0.643  2.3635  0.3859  0.4395
  796MOL0     H 7415   1.085   2.322  -0.683  0.5484 -0.0755  0.5762
  796MOL0     H 7416   1.186   2.139  -0.835 -1.9139 -3.1655  0.3601
  796MOL0     H 7417   1.123   2.283  -0.919 -2.1956  1.7097  0.5349
  796MOL0     H 7418   1.045   2.074  -1.033  0.8483  2.0388 -0.3802
  796MOL0     H 7419   0.914   2.155  -0.966  2.0247  2.9339 -1.9627
  796MOL0     H 7420   0.890   1.923  -1.086 -1.3991  0.6978 -0.2479
  796MOL0     H 7421   0.625   1.702  -1.198 -1.0800 -1.1383  2.8982
  796MOL0     H 7422   0.776   1.774  -1.242 -0.6235 -1.3524 -0.3628
  796MOL0     H 7423   0.776   1.603  -1.187 -2.1051 -1.0885  0.9731
  796MOL0     H 7424   0.310   1.658  -1.077  1.3598  0.2221  1.1639
  796MOL0     H 7425   0.123   1.532  -1.148  3.1479  0.9579 -0.9899
  796MOL0     H 7426   0.026   1.370  -1.251 -1.0425 -0.3556  0.5418
  796MOL0     H 7427   0.174   1.266  -1.263  0.2582  0.9988 -3.2621
  796MOL0     H 7428   0.003   1.180  -1.405  0.5693  0.6064 -0.1476
  796MOL0     H 7429   0.050   1.057  -1.293 -5.1836 -1.8635  2.5338
  796MOL0     H 7430  -0.216   1.110  -1.331 -2.6212 -3.1946  2.6569
  796MOL0     H 7431  -0.180   1.210  -1.183  0.3395 -1.3942  2.4540
  796MOL0     H 7432  -0.141   0.913  -1.236 -1.2817  0.8973 -2.5930
  796MOL0     H 7433  -0.089   0.996  -1.089 -0.1917  0.3311 -0.2556
  796MOL0     H 7434  -0.356   1.026  -1.223  1.4322 -0.1837 -1.7103
  796MOL0     H 7435  -0.327   1.061  -1.047 -0.4438  1.1827 -1.4516
  796MOL0     H 7436  -0.277   0.784  -1.048  1.3573  0.6531 -0.3595
  796MOL0     H 7437  -0.425   0.872  -1.009  1.4770 -0.4503  1.5178
  796MOL0     H 7438  -0.367   0.790  -1.302  1.2737 -1.0484  1.3463
  796MOL0     H 7439  -0.530   0.822  -1.227 -1.5567 -3.4330  0.8884
  796MOL0     H 7440  -0.520   0.592  -1.265 -0.8329 -2.7252  2.2479
  796MOL0     H 7441  -0.522   0.627  -1.091 -0.0667  0.1275 -0.3164
  796MOL0     H 7442   0.217   1.229  -0.870 -1.9623  1.8499  3.2007
  796MOL0     H 7443   0.396   1.343  -0.790  0.0051 -1.3206 -1.4467
  796MOL0     H 7444   0.701   1.657  -0.722  2.9675 -0.6499 -1.1477
  796MOL0     H 7445   0.864   1.853  -0.672  1.9671  0.2902 -1.7274
  796MOL0     H 7446   0.694   2.574   0.733 -1.3506 -0.1352  0.5477
  796MOL0     H 7447   0.593   2.744   0.848  0.9039  0.7432  2.0574
  796MOL0     H 7448   0.660   3.281   0.850 -0.4108 -0.4998 -0.3431
  796MOL0     H 7449   0.609   3.486   0.971 -0.2326  0.5068  0.4675
  796MOL0     H 7450   0.548   3.624   1.341 -0.0729  1.2659 -1.0091
  796MOL0     H 7451   0.649   3.574   1.198  1.0140  3.4030 -0.3758
  796MOL0     H 7452   0.511   3.704   1.058  0.4506  1.5987 -0.5404
  796MOL0     H 7453   0.535   3.808   1.204 -0.2630 -0.0113  0.6616
  796MOL0     H 7454   0.319   3.855   1.194 -0.8223 -0.2998  1.8962
  796MOL0     H 7455   0.309   3.712   1.290 -0.2965 -0.9406 -1.2395
  796MOL0     H 7456   0.246   3.575   1.117  2.2315 -0.3427 -0.4272
  796MOL0     H 7457   0.299   3.679   0.994 -0.3691  0.3910  0.6281
  796MOL0     H 7458  -0.098   3.825   1.062 -0.1078  0.5939  0.2638
  796MOL0     H 7459   0.352   3.269   1.247  0.7287  0.7947  1.0371
  796MOL0     H 7460   0.386   3.066   1.107 -0.2817  1.2142  1.8694
  797MOL0     O 7461   4.215  11.039   4.646  0.2083  0.0634 -0.5097
  797MOL0     C 7462   4.153  10.939   4.603  0.0641 -0.1420 -0.2703
  797MOL0     O 7463   4.015  10.933   4.570 -0.5115  0.4376 -0.1765
  797MOL0     C 7464   3.930  11.029   4.622 -0.3532  0.1793  0.1568
  797MOL0     C 7465   3.909  11.035   4.759  0.1372  0.1346 -0.0190
  797MOL0     C 7466   3.825  11.137   4.805  0.5596  0.8357 -0.0212
  797MOL0     C 7467   3.752  11.228   4.719 -0.0801  0.7450  0.0555
  797MOL0     O 7468   3.663  11.319   4.766  0.2779 -0.0454 -0.0756
  797MOL0     C 7469   3.601  11.308   4.897 -0.0036  0.3022  0.9004
  797MOL0     C 7470   3.479  11.397   4.918  0.6108  0.2969 -0.7255
  797MOL0     C 7471   3.511  11.535   4.978 -0.3775 -0.2876  1.0466
  797MOL0     C 7472   3.630  11.608   4.910 -0.5522  0.8366  0.0597
  797MOL0     C 7473   3.621  11.750   4.943  0.4872 -0.7507  0.3912
  797MOL0     C 7474   3.728  11.855   4.890  0.1271 -0.1501 -0.7874
  797MOL0     C 7475   3.692  12.011   4.924 -1.3691 -0.1891  0.1974
  797MOL0     C 7476   3.802  12.108   4.870  0.4020  1.3412  0.1654
  797MOL0     N 7477   3.782  12.235   4.932 -1.0186  1.0642 -0.7854
  797MOL0     C 7478   3.858  12.342   4.897  0.1280 -0.5981  0.9260
  797MOL0     C 7479   3.840  12.433   4.991 -0.3892 -0.4925 -1.1049
  797MOL0     C 7480   3.887  12.576   4.985 -0.0399 -0.8923  0.0463
  797MOL0     C 7481   4.041  12.594   4.993  0.1874  0.4774 -0.8402
  797MOL0     C 7482   4.111  12.627   4.862 -0.4917  0.4706 -0.3500
  797MOL0     C 7483   4.033  12.722   4.774 -0.6340 -0.2921  0.5678
  797MOL0     O 7484   3.989  12.831   4.859 -0.4348 -0.0577 -0.3757
  797MOL0     C 7485   3.880  12.904   4.815  0.1048  0.4915  0.3769
  797MOL0     C 7486   3.832  12.912   4.680 -0.5934  0.2888 -0.6851
  797MOL0     C 7487   3.738  13.000   4.639 -0.0369  0.0843  0.7159
  797MOL0     C 7488   3.722  13.018   4.486  0.2558 -0.1549 -0.5499
  797MOL0     C 7489   3.678  13.079   4.732  0.2021  0.5599  0.5980
  797MOL0     C 7490   3.565  13.166   4.708  0.1532  0.2275 -0.3494
  797MOL0     O 7491   3.504  13.226   4.811  0.1914 -0.0385 -1.0585
  797MOL0     C 7492   3.420  13.338   4.798 -0.2430  0.1862 -0.5186
  797MOL0     C 7493   3.343  13.365   4.914  0.4186 -0.2770 -0.1013
  797MOL0     C 7494   3.249  13.467   4.931  0.1923  0.2019  0.9277
  797MOL0     C 7495   3.244  13.566   4.824  0.1766  0.0237 -0.1700
  797MOL0     O 7496   3.150  13.668   4.827  0.4546 -0.4576  0.5769
  797MOL0     C 7497   3.208  13.797   4.788  0.1642  0.9381 -0.7779
  797MOL0     C 7498   3.138  13.923   4.841  0.5969  0.1557  0.4223
  797MOL0     C 7499   3.108  13.930   4.990 -0.9186  1.2858  0.2207
  797MOL0     C 7500   3.051  14.065   5.036 -0.2626  0.7049  0.1469
  797MOL0     C 7501   3.145  14.141   5.127 -0.0283  0.0399  0.3499
  797MOL0     C 7502   3.262  14.204   5.055  0.2867  0.4022 -0.5329
  797MOL0     C 7503   3.342  14.277   5.159 -0.6791  0.7906 -0.0930
  797MOL0     C 7504   3.423  14.380   5.075 -0.2923  0.6610  0.3854
  797MOL0    Cl 7505   3.549  14.451   5.167  0.6821 -0.4364 -0.3172
  797MOL0     C 7506   3.324  13.544   4.708  0.8985 -0.0211  0.0651
  797MOL0     C 7507   3.415  13.443   4.701 -0.0425  0.5504  0.2212
  797MOL0     O 7508   3.530  13.187   4.595  0.4267 -0.7921 -0.1573
  797MOL0     C 7509   3.723  13.073   4.868  0.5170  2.0159  0.8847
  797MOL0     C 7510   3.826  12.987   4.908  0.9455 -0.0889 -1.0202
  797MOL0     N 7511   3.749  12.389   5.082  1.2211 -0.3294 -0.4823
  797MOL0     N 7512   3.711  12.264   5.037  0.4469 -0.2918 -1.2325
  797MOL0     C 7513   3.777  11.218   4.579  0.0870  0.1224 -0.7001
  797MOL0     C 7514   3.866  11.120   4.531  0.9170 -0.5522 -0.6818
  797MOL0     C 7515   4.231  10.820   4.592 -0.0824 -0.0395 -0.4446
  797MOL0     C 7516   4.177  10.699   4.602 -0.1889  0.6248 -0.3559
  797MOL0     C 7517   4.252  10.576   4.595 -0.2209  0.2283  0.2716
  797MOL0     C 7518   4.387  10.577   4.574 -0.0254  1.0434 -1.0669
  797MOL0     O 7519   4.465  10.460   4.583  0.4679  0.2641  0.3298
  797MOL0     C 7520   4.580  10.462   4.495 -0.0692  0.1246  0.1483
  797MOL0     C 7521   4.660  10.337   4.513  0.9690 -0.5927 -0.2056
  797MOL0     C 7522   4.582  10.211   4.465  0.1759  0.9675  0.9786
  797MOL0     C 7523   4.621  10.087   4.557  1.1719 -0.6120 -0.4241
  797MOL0     C 7524   4.536   9.976   4.509  0.4183  0.4454 -0.1738
  797MOL0     C 7525   4.476   9.880   4.454 -0.0436 -0.4776 -0.2160
  797MOL0     C 7526   4.451  10.699   4.576  0.5790  0.1059  0.1281
  797MOL0     C 7527   4.374  10.822   4.570 -0.2469 -0.9214  0.1691
  797MOL0     H 7528   3.975  10.981   4.826  4.3146  2.5385 -1.8085
  797MOL0     H 7529   3.799  11.139   4.910 -1.6614  2.1703 -0.5230
  797MOL0     H 7530   3.573  11.203   4.903  2.5980 -0.4471  1.2687
  797MOL0     H 7531   3.673  11.325   4.978  1.4101 -2.6160  0.3872
  797MOL0     H 7532   3.424  11.409   4.824  1.3170 -2.4633 -1.5665
  797MOL0     H 7533   3.411  11.328   4.969  2.5264 -1.8524 -0.9661
  797MOL0     H 7534   3.428  11.605   4.966 -1.2880 -1.4497  0.4502
  797MOL0     H 7535   3.530  11.515   5.084  2.0986 -0.1506  0.7082
  797MOL0     H 7536   3.730  11.577   4.944 -0.9582 -0.0910  0.4330
  797MOL0     H 7537   3.630  11.583   4.803  2.9266 -0.9183  0.3273
  797MOL0     H 7538   3.520  11.790   4.923  1.2343  0.4047 -1.4034
  797MOL0     H 7539   3.614  11.762   5.051  0.3976  2.5356  0.1252
  797MOL0     H 7540   3.818  11.841   4.951  0.7057  2.2453 -0.9871
  797MOL0     H 7541   3.747  11.832   4.785  2.8071  2.8289 -1.1133
  797MOL0     H 7542   3.601  12.037   4.869 -2.6447 -0.0244  2.2980
  797MOL0     H 7543   3.675  12.022   5.031  0.0974  1.3773  0.3047
  797MOL0     H 7544   3.801  12.113   4.760  4.4849  1.5638  0.0048
  797MOL0     H 7545   3.905  12.081   4.893 -0.2844 -1.5987  0.2171
  797MOL0     H 7546   3.922  12.363   4.812  1.0370  1.1228  1.9818
  797MOL0     H 7547   3.855  12.621   4.891  1.4390 -1.8204 -0.9579
  797MOL0     H 7548   3.826  12.639   5.050 -1.5375 -1.1354 -1.0664
  797MOL0     H 7549   4.085  12.499   5.027 -2.0591  0.0736  1.1427
  797MOL0     H 7550   4.070  12.669   5.068 -1.3282  1.2360 -0.9773
  797MOL0     H 7551   4.125  12.532   4.809  1.0572  0.3025  0.2916
  797MOL0     H 7552   4.210  12.662   4.893 -0.8601  0.3540  1.0595
  797MOL0     H 7553   3.947  12.675   4.726  1.0602 -1.2032 -1.8111
  797MOL0     H 7554   4.098  12.760   4.695  1.6983 -0.9377  2.0375
  797MOL0     H 7555   3.869  12.843   4.605 -0.6955 -0.8145  0.2363
  797MOL0     H 7556   3.623  12.997   4.446  0.8454 -0.0060 -2.1994
  797MOL0     H 7557   3.744  13.124   4.466 -0.3738 -0.1030 -0.9796
  797MOL0     H 7558   3.789  12.945   4.439  0.1607 -2.3219  2.4191
  797MOL0     H 7559   3.355  13.290   4.992  1.0346  0.3401  0.3975
  797MOL0     H 7560   3.190  13.482   5.021  0.3358 -0.7624  1.1973
  797MOL0     H 7561   3.314  13.796   4.815  0.3561  1.1591 -1.5039
  797MOL0     H 7562   3.213  13.808   4.680  4.4744  2.4468 -0.6023
  797MOL0     H 7563   3.198  14.007   4.807 -1.2651  0.6320 -1.9098
  797MOL0     H 7564   3.048  13.941   4.781  0.6433  0.6777  0.5048
  797MOL0     H 7565   3.196  13.909   5.051 -0.0667  0.0922 -1.3363
  797MOL0     H 7566   3.033  13.853   5.010  0.2950  0.8919  4.1158
  797MOL0     H 7567   3.016  14.122   4.949 -1.0806 -0.0671 -0.0421
  797MOL0     H 7568   2.961  14.043   5.093 -1.4333  2.1332 -1.0543
  797MOL0     H 7569   3.194  14.079   5.202  1.8902  0.8356 -0.1897
  797MOL0     H 7570   3.087  14.215   5.183  2.4116  1.7135  0.7993
  797MOL0     H 7571   3.314  14.118   5.013 -2.8689 -3.6803  2.9696
  797MOL0     H 7572   3.223  14.275   4.981  2.1960  0.0790 -1.9195
  797MOL0     H 7573   3.413  14.210   5.209 -1.5673 -0.9097 -1.0176
  797MOL0     H 7574   3.297  14.332   5.242  2.4391 -0.1080  2.3781
  797MOL0     H 7575   3.357  14.459   5.037  1.1544  1.0036 -1.5412
  797MOL0     H 7576   3.469  14.334   4.987 -2.1522 -1.1654  0.2753
  797MOL0     H 7577   3.308  13.618   4.631 -0.7491 -1.7421 -1.3553
  797MOL0     H 7578   3.486  13.432   4.620 -0.0255  1.6057  0.0850
  797MOL0     H 7579   3.674  13.132   4.944 -0.2343  0.0349  2.0083
  797MOL0     H 7580   3.850  12.991   5.014  0.9100 -1.9119 -0.8980
  797MOL0     H 7581   3.715  11.286   4.520  1.6215  1.9500 -0.3184
  797MOL0     H 7582   3.883  11.097   4.426 -1.8038 -1.0860 -1.0691
  797MOL0     H 7583   4.078  10.694   4.648 -1.0750  3.4725 -1.7259
  797MOL0     H 7584   4.194  10.485   4.604  0.2529 -0.0963  0.0495
  797MOL0     H 7585   4.545  10.465   4.391 -1.6169 -0.4442  0.6186
  797MOL0     H 7586   4.651  10.544   4.511  1.2197 -0.6338 -1.4582
  797MOL0     H 7587   4.689  10.335   4.619 -1.6092  1.0382  0.6238
  797MOL0     H 7588   4.756  10.351   4.462  1.2031 -0.7445  0.1874
  797MOL0     H 7589   4.614  10.192   4.363  1.6536  1.1709  1.3904
  797MOL0     H 7590   4.472  10.219   4.467 -0.1635 -0.8067 -2.7690
  797MOL0     H 7591   4.599  10.103   4.663  0.1668 -0.9791 -0.5663
  797MOL0     H 7592   4.729  10.069   4.562  1.2939  0.3315  1.2365
  797MOL0     H 7593   4.427   9.809   4.390  0.4172 -1.0101  0.0118
  797MOL0     H 7594   4.557  10.721   4.563  0.7113  0.6736  1.8672
  797MOL0     H 7595   4.423  10.915   4.544 -0.4243 -0.4449  1.4504
  798MOL0     O 7596  11.341   4.290  10.588  0.7062 -0.2652  0.1751
  798MOL0     C 7597  11.317   4.168  10.586  0.0606  1.1399  0.7332
  798MOL0     O 7598  11.272   4.100  10.481  0.0088  0.8320  0.7442
  798MOL0     C 7599  11.235   4.152  10.360 -1.2309  0.8915 -0.2168
  798MOL0     C 7600  11.118   4.095  10.302 -0.7201 -0.9665 -0.0329
  798MOL0     C 7601  11.092   4.136  10.169 -0.1707  0.2897  0.8412
  798MOL0     C 7602  11.175   4.223  10.091  0.7515 -0.3732 -1.2417
  798MOL0     O 7603  11.162   4.250   9.958  0.4618 -0.6651 -0.7549
  798MOL0     C 7604  11.055   4.186   9.882 -0.0503 -0.3528 -0.0727
  798MOL0     C 7605  11.070   4.245   9.743  0.2906  0.9341 -0.4929
  798MOL0     C 7606  10.949   4.209   9.653  0.0071 -0.6181 -0.6916
  798MOL0     C 7607  10.846   4.307   9.661  0.4923  1.2229  0.0931
  798MOL0     C 7608  10.709   4.244   9.602 -0.6189 -0.1439  0.0235
  798MOL0     C 7609  10.714   4.216   9.449 -0.2347  1.1083 -0.8571
  798MOL0     C 7610  10.707   4.339   9.361 -0.4299  0.5344 -0.3559
  798MOL0     C 7611  10.667   4.301   9.213  0.0350 -1.1062  0.1264
  798MOL0     N 7612  10.765   4.223   9.143  0.2758 -0.3263 -0.0976
  798MOL0     C 7613  10.866   4.279   9.071  0.1491  0.5975  0.6280
  798MOL0     C 7614  10.912   4.173   8.995  0.3225  0.3982  0.4560
  798MOL0     C 7615  11.013   4.162   8.884 -0.3829 -0.8519  0.1838
  798MOL0     C 7616  11.133   4.070   8.924  0.5393 -0.1864  0.7328
  798MOL0     C 7617  11.138   3.949   8.828 -0.0431 -1.0330 -1.0252
  798MOL0     C 7618  11.163   3.967   8.672 -0.0455 -0.0042  0.1009
  798MOL0     O 7619  11.267   4.062   8.636 -0.0195 -0.9077 -0.5644
  798MOL0     C 7620  11.401   4.024   8.629  0.2556 -0.5895 -0.5891
  798MOL0     C 7621  11.482   4.123   8.579  1.0357 -0.2148  0.3681
  798MOL0     C 7622  11.608   4.094   8.547  0.5444 -0.3842  0.2125
  798MOL0     C 7623  11.683   4.212   8.480  0.2501  0.1511  0.6502
  798MOL0     C 7624  11.671   3.976   8.585 -0.1727  0.7456  0.1768
  798MOL0     C 7625  11.814   3.944   8.543  0.0463  0.0010 -0.2687
  798MOL0     O 7626  11.876   3.863   8.625  0.1927 -0.4306 -1.0852
  798MOL0     C 7627  12.009   3.821   8.600 -0.5964 -0.1369 -0.3955
  798MOL0     C 7628  12.031   3.685   8.636  0.2659 -1.1868 -0.3086
  798MOL0     C 7629  12.160   3.623   8.622 -0.1819 -0.2165 -0.0592
  798MOL0     C 7630  12.265   3.700   8.573  0.0875 -0.1569 -0.0329
  798MOL0     O 7631  12.391   3.659   8.550 -0.9219  0.2411  0.5307
  798MOL0     C 7632  12.455   3.584   8.642  0.3815  0.1318 -0.1131
  798MOL0     C 7633  12.597   3.566   8.596  0.8609 -0.5242 -0.2617
  798MOL0     C 7634  12.685   3.508   8.694  0.5938  0.8940  0.3663
  798MOL0     C 7635  12.770   3.606   8.783 -0.7139  0.4852  0.1225
  798MOL0     C 7636  12.841   3.531   8.898 -0.4145 -0.9463 -0.1686
  798MOL0     C 7637  12.930   3.620   8.985 -0.8324  0.3010 -0.4431
  798MOL0     C 7638  12.843   3.716   9.071  0.2773  0.4288 -0.8166
  798MOL0     C 7639  12.935   3.807   9.150  0.0958 -0.9500  0.5529
  798MOL0    Cl 7640  13.041   3.719   9.251  0.2130  0.2592 -0.0671
  798MOL0     C 7641  12.240   3.838   8.543 -0.3259 -0.5651  0.1993
  798MOL0     C 7642  12.112   3.894   8.554 -0.3084  0.7258  0.0463
  798MOL0     O 7643  11.861   3.980   8.433  0.3702  0.0590 -0.0384
  798MOL0     C 7644  11.592   3.887   8.664  0.0946 -0.2647  0.4936
  798MOL0     C 7645  11.456   3.907   8.680 -0.8073 -0.8440 -0.5777
  798MOL0     N 7646  10.856   4.056   9.042 -0.6830 -0.3958  0.2038
  798MOL0     N 7647  10.768   4.088   9.133 -0.1102 -0.2767 -0.5715
  798MOL0     C 7648  11.289   4.269  10.159 -0.6396  0.6215 -0.3409
  798MOL0     C 7649  11.327   4.237  10.294  0.3392  0.9081  0.1944
  798MOL0     C 7650  11.342   4.096  10.712 -0.3117  0.5297 -0.1410
  798MOL0     C 7651  11.299   4.155  10.826 -0.4554  0.6631  0.3535
  798MOL0     C 7652  11.324   4.098  10.944  0.1189  0.4501  0.2924
  798MOL0     C 7653  11.403   3.981  10.958  0.3614 -0.6446 -0.0549
  798MOL0     O 7654  11.430   3.918  11.077  0.0601 -0.3852  0.1155
  798MOL0     C 7655  11.396   3.972  11.205  0.9269 -0.6537 -0.2596
  798MOL0     C 7656  11.246   3.943  11.228  0.3835 -0.8714 -0.2422
  798MOL0     C 7657  11.216   3.796  11.197  0.5308 -0.1385  0.3356
  798MOL0     C 7658  11.275   3.679  11.294  0.2881 -0.9578 -0.2432
  798MOL0     C 7659  11.216   3.675  11.428 -0.7328 -1.0202  0.5402
  798MOL0     C 7660  11.142   3.664  11.528  0.7445 -0.0313 -0.1750
  798MOL0     C 7661  11.448   3.919  10.839 -0.4167 -0.3478 -0.2158
  798MOL0     C 7662  11.409   3.975  10.715  0.6740  0.1555  0.3155
  798MOL0     H 7663  11.050   4.026  10.351  0.2534  0.4839  3.6950
  798MOL0     H 7664  11.013   4.086  10.114 -0.6650  1.7237  0.2024
  798MOL0     H 7665  11.071   4.078   9.886 -0.9628 -0.5065 -0.4300
  798MOL0     H 7666  10.964   4.220   9.932  1.3786  2.5458  0.7957
  798MOL0     H 7667  11.068   4.354   9.757  0.3158  0.7374  1.2694
  798MOL0     H 7668  11.166   4.213   9.701  0.8714  1.2988  0.5079
  798MOL0     H 7669  10.973   4.186   9.548 -1.9962  1.6002 -1.7278
  798MOL0     H 7670  10.912   4.115   9.694 -0.9143  0.7563  1.8475
  798MOL0     H 7671  10.811   4.343   9.758 -0.1694 -1.9940  1.1623
  798MOL0     H 7672  10.887   4.391   9.603  0.7542 -0.8620 -2.9825
  798MOL0     H 7673  10.692   4.143   9.640 -0.8153 -0.6562 -1.3992
  798MOL0     H 7674  10.618   4.298   9.629 -1.5445 -1.4284 -0.4279
  798MOL0     H 7675  10.799   4.150   9.432 -1.7395 -1.5901  1.2446
  798MOL0     H 7676  10.626   4.154   9.427 -2.0032  2.0807  2.7018
  798MOL0     H 7677  10.635   4.413   9.399 -1.9254  0.3994 -2.6753
  798MOL0     H 7678  10.807   4.383   9.363 -0.9944  1.8532 -0.1294
  798MOL0     H 7679  10.661   4.395   9.158 -0.7539 -0.8921  0.5666
  798MOL0     H 7680  10.565   4.263   9.216 -1.1627  1.8735  1.0242
  798MOL0     H 7681  10.890   4.384   9.077 -0.1122  0.6581  0.6211
  798MOL0     H 7682  10.956   4.124   8.798  1.3964 -1.8172 -0.6217
  798MOL0     H 7683  11.043   4.262   8.852  0.3615 -0.4837  1.9411
  798MOL0     H 7684  11.104   4.024   9.019 -0.6137  0.8087  0.8906
  798MOL0     H 7685  11.231   4.118   8.924  0.1683  0.6061  0.2762
  798MOL0     H 7686  11.046   3.890   8.835  0.5832 -1.8213  1.6204
  798MOL0     H 7687  11.216   3.885   8.869 -0.1886 -1.2447 -1.0738
  798MOL0     H 7688  11.075   4.002   8.618 -0.6316 -0.0100  1.0331
  798MOL0     H 7689  11.196   3.875   8.622 -0.1910 -0.9122  1.6090
  798MOL0     H 7690  11.437   4.219   8.556  1.3329 -0.5991 -2.1434
  798MOL0     H 7691  11.615   4.297   8.475  0.5580  1.0528  5.7990
  798MOL0     H 7692  11.771   4.245   8.536  2.4651 -0.6406 -2.1553
  798MOL0     H 7693  11.712   4.182   8.379  3.2813 -0.6703  1.6532
  798MOL0     H 7694  11.945   3.631   8.674 -0.7405  0.9714  0.6429
  798MOL0     H 7695  12.156   3.516   8.644 -1.5817 -0.5137 -1.5280
  798MOL0     H 7696  12.446   3.630   8.741  0.9473  0.8583 -0.3894
  798MOL0     H 7697  12.409   3.485   8.640  1.6870 -0.4825 -0.6821
  798MOL0     H 7698  12.586   3.498   8.511 -3.6500 -1.7310  1.0377
  798MOL0     H 7699  12.637   3.661   8.559  0.4544 -0.5179 -0.7031
  798MOL0     H 7700  12.745   3.437   8.635 -1.1599  2.0178 -3.0154
  798MOL0     H 7701  12.627   3.446   8.764  0.4184  2.9115  2.0986
  798MOL0     H 7702  12.855   3.656   8.736 -2.0299  2.9280  0.1385
  798MOL0     H 7703  12.701   3.682   8.822  0.9152  1.9345  0.2772
  798MOL0     H 7704  12.909   3.454   8.862 -0.4766 -1.3344  0.5460
  798MOL0     H 7705  12.761   3.491   8.961 -1.4829 -1.2110 -1.6432
  798MOL0     H 7706  12.981   3.546   9.047 -0.3384  1.2396  0.2795
  798MOL0     H 7707  13.003   3.674   8.924  0.0964 -0.3613  0.0565
  798MOL0     H 7708  12.776   3.652   9.130 -3.3977  0.7844 -4.1836
  798MOL0     H 7709  12.775   3.773   9.007  0.1399  0.1806 -0.8946
  798MOL0     H 7710  12.885   3.887   9.205  0.0728 -0.3910 -0.2655
  798MOL0     H 7711  12.999   3.858   9.077 -0.0069 -1.0894  0.3634
  798MOL0     H 7712  12.318   3.894   8.493 -0.6596  0.8788  1.2014
  798MOL0     H 7713  12.090   3.995   8.522 -2.1241  2.1340  4.8931
  798MOL0     H 7714  11.624   3.797   8.715  0.0990  0.7396  2.3786
  798MOL0     H 7715  11.397   3.831   8.729 -0.0611 -1.5954 -0.8227
  798MOL0     H 7716  11.351   4.334  10.097  0.9055 -0.3204  0.1645
  798MOL0     H 7717  11.416   4.286  10.333  1.6156  1.9041 -3.5217
  798MOL0     H 7718  11.245   4.249  10.829  1.9494  2.0980  0.8111
  798MOL0     H 7719  11.270   4.149  11.024 -1.4038  0.8462 -0.9331
  798MOL0     H 7720  11.458   3.935  11.287  0.9698  3.2881  1.7731
  798MOL0     H 7721  11.414   4.080  11.205  2.1781 -0.8497 -0.4137
  798MOL0     H 7722  11.179   4.001  11.165  0.6720  0.4304  0.6017
  798MOL0     H 7723  11.223   3.973  11.331 -0.1000 -0.5299 -0.4491
  798MOL0     H 7724  11.261   3.767  11.101  1.0163  0.5068  0.3644
  798MOL0     H 7725  11.109   3.776  11.187  0.1754  0.2354  2.9324
  798MOL0     H 7726  11.382   3.700  11.298  0.1362  0.4347 -2.2229
  798MOL0     H 7727  11.266   3.578  11.253  1.7818 -1.9158  1.6455
  798MOL0     H 7728  11.065   3.647  11.599  1.9967 -4.2917  0.4393
  798MOL0     H 7729  11.499   3.824  10.854 -3.4365 -1.8556  1.6483
  798MOL0     H 7730  11.428   3.918  10.624  3.6892  2.1191 -0.4137
  799MOL0     O 7731   0.931   7.526   5.430 -0.1950  0.1931 -0.6236
  799MOL0     C 7732   0.998   7.432   5.472  0.0181 -0.7569 -0.0577
  799MOL0     O 7733   0.961   7.299   5.451 -0.1118  0.3657 -0.5973
  799MOL0     C 7734   0.842   7.260   5.391 -0.1882 -1.6097  0.1480
  799MOL0     C 7735   0.828   7.127   5.350  0.4734  0.0487 -0.3694
  799MOL0     C 7736   0.708   7.089   5.288 -0.3987 -0.3799  0.2617
  799MOL0     C 7737   0.591   7.169   5.279 -0.2849 -1.3376  0.1541
  799MOL0     O 7738   0.475   7.117   5.221  0.1042 -0.9431  0.6505
  799MOL0     C 7739   0.339   7.164   5.254 -1.0772  0.9880  0.2690
  799MOL0     C 7740   0.220   7.064   5.227 -1.3487  0.0596  0.2112
  799MOL0     C 7741   0.229   6.977   5.102 -0.2732 -0.9251  0.3912
  799MOL0     C 7742   0.096   6.911   5.083 -0.1050  0.2522  1.6487
  799MOL0     C 7743   0.088   6.811   4.959 -0.5301 -0.5140 -0.3692
  799MOL0     C 7744   0.183   6.688   4.973 -0.8613  0.2310  0.3081
  799MOL0     C 7745   0.171   6.589   4.853  0.7961  0.5660  0.2457
  799MOL0     C 7746   0.044   6.496   4.862 -0.7346 -0.5922 -0.5191
  799MOL0     N 7747   0.020   6.407   4.745 -0.2082 -0.0711 -1.3871
  799MOL0     C 7748   0.016   6.438   4.614  0.0884  0.1515  0.2163
  799MOL0     C 7749   0.003   6.315   4.544 -0.7434 -0.2616 -0.5007
  799MOL0     C 7750   0.003   6.290   4.396  0.5980 -0.0876 -0.3821
  799MOL0     C 7751   0.145   6.267   4.333 -0.3582  1.3304  0.6837
  799MOL0     C 7752   0.237   6.386   4.335  0.3587 -1.0530  0.2826
  799MOL0     C 7753   0.330   6.391   4.216 -0.2480 -0.1077 -0.8962
  799MOL0     O 7754   0.419   6.497   4.235 -0.3276  0.0583  0.1963
  799MOL0     C 7755   0.406   6.610   4.157 -0.0840  0.4168 -1.2514
  799MOL0     C 7756   0.278   6.664   4.104 -0.5124 -0.6703 -0.0022
  799MOL0     C 7757   0.268   6.782   4.025  0.4270  0.5877  0.3209
  799MOL0     C 7758   0.130   6.825   3.983 -0.3059  0.0349  0.4289
  799MOL0     C 7759   0.389   6.848   3.981  0.5849  0.4867  0.1013
  799MOL0     C 7760   0.407   6.958   3.881 -0.1314 -0.1205  0.2959
  799MOL0     O 7761   0.534   7.036   3.883  0.7422  0.3021  0.2918
  799MOL0     C 7762   0.550   7.118   3.774 -0.0095  0.3847  0.4009
  799MOL0     C 7763   0.505   7.247   3.769  0.8118 -0.0055 -0.1820
  799MOL0     C 7764   0.546   7.323   3.665 -0.0708 -0.1497  0.1566
  799MOL0     C 7765   0.600   7.267   3.548  0.1926  0.3750  0.4104
  799MOL0     O 7766   0.613   7.348   3.441 -0.5761 -0.1320 -0.1696
  799MOL0     C 7767   0.523   7.341   3.332  0.7646  0.8880 -1.0829
  799MOL0     C 7768   0.538   7.465   3.257  0.5563  0.4298 -0.6343
  799MOL0     C 7769   0.663   7.464   3.177 -0.5267  0.0593  1.0298
  799MOL0     C 7770   0.673   7.571   3.060 -0.0893  0.5260  0.1472
  799MOL0     C 7771   0.820   7.554   2.998  0.3258 -0.0763  1.0486
  799MOL0     C 7772   0.834   7.664   2.877 -0.8789 -0.9378 -0.0684
  799MOL0     C 7773   0.975   7.660   2.811 -0.1181  0.1637 -0.4849
  799MOL0     C 7774   1.023   7.786   2.742  0.3444  0.4417 -0.3620
  799MOL0    Cl 7775   0.911   7.863   2.616  0.0968  0.0046 -0.2885
  799MOL0     C 7776   0.648   7.137   3.543  0.5306 -0.5574  0.1559
  799MOL0     C 7777   0.618   7.063   3.662 -0.0073 -0.9485 -0.6601
  799MOL0     O 7778   0.314   6.980   3.802 -0.5201 -0.3783  0.8302
  799MOL0     C 7779   0.505   6.803   4.054 -0.3589 -0.0383 -0.3467
  799MOL0     C 7780   0.506   6.699   4.149  0.1451 -0.6521  0.2798
  799MOL0     N 7781  -0.013   6.219   4.646  0.1073  0.3658  0.1825
  799MOL0     N 7782  -0.004   6.272   4.769  0.1295  0.6228 -0.2241
  799MOL0     C 7783   0.609   7.295   5.314 -0.2062 -0.5937  0.2949
  799MOL0     C 7784   0.723   7.340   5.382 -0.4425 -0.2325 -0.8065
  799MOL0     C 7785   1.122   7.465   5.547  0.5761 -0.2781  0.9937
  799MOL0     C 7786   1.203   7.371   5.613 -0.0086  0.1540  0.4471
  799MOL0     C 7787   1.336   7.403   5.657  0.2881  0.0172  0.0920
  799MOL0     C 7788   1.394   7.532   5.623  0.6826  0.7074 -0.0930
  799MOL0     O 7789   1.513   7.550   5.671 -0.5817  0.0777 -0.4954
  799MOL0     C 7790   1.586   7.679   5.674 -0.3843  0.2497 -0.5453
  799MOL0     C 7791   1.747   7.672   5.690  0.8521 -0.1545  0.5690
  799MOL0     C 7792   1.762   7.595   5.823  0.6070  0.6984  0.3997
  799MOL0     C 7793   1.909   7.577   5.845 -0.4222 -0.3097 -0.0828
  799MOL0     C 7794   1.934   7.532   5.979 -1.4948  0.5284  0.4601
  799MOL0     C 7795   1.965   7.502   6.094  0.6395  0.2699  0.7220
  799MOL0     C 7796   1.308   7.624   5.556  0.4710  0.3972 -0.0693
  799MOL0     C 7797   1.181   7.587   5.521 -0.5503  0.2157  0.0483
  799MOL0     H 7798   0.907   7.059   5.379  0.7778  0.5984  0.1051
  799MOL0     H 7799   0.713   6.993   5.240  1.9373  0.8251 -2.1812
  799MOL0     H 7800   0.323   7.213   5.350  1.1233  0.5205  0.9276
  799MOL0     H 7801   0.322   7.237   5.174 -2.5539 -0.1739 -0.5230
  799MOL0     H 7802   0.217   6.999   5.316 -1.8294 -1.4642 -0.8823
  799MOL0     H 7803   0.136   7.133   5.218 -0.0562  1.7631  0.5748
  799MOL0     H 7804   0.245   7.032   5.009 -2.6416 -0.1764  0.3674
  799MOL0     H 7805   0.303   6.898   5.120  1.0786  0.1616 -0.1790
  799MOL0     H 7806   0.061   6.846   5.163  1.2257 -3.0022 -0.2338
  799MOL0     H 7807   0.026   6.994   5.068  1.0665  1.0302  0.1428
  799MOL0     H 7808  -0.014   6.778   4.935 -0.7961 -1.9662  2.3901
  799MOL0     H 7809   0.134   6.867   4.877  1.5551 -2.5012 -0.6849
  799MOL0     H 7810   0.287   6.720   4.989 -0.9050  0.8406 -0.5085
  799MOL0     H 7811   0.165   6.636   5.067 -2.0628  0.1043  0.0271
  799MOL0     H 7812   0.167   6.645   4.759  0.1248 -2.9207 -1.9833
  799MOL0     H 7813   0.258   6.524   4.852  0.2509 -0.3306 -3.5435
  799MOL0     H 7814  -0.045   6.559   4.872  1.0695  1.8436  1.1685
  799MOL0     H 7815   0.067   6.425   4.942  1.9913 -0.3919 -1.0546
  799MOL0     H 7816   0.037   6.534   4.566 -0.0810  1.0015  1.7823
  799MOL0     H 7817  -0.050   6.196   4.378 -0.0122 -0.1733  1.6017
  799MOL0     H 7818  -0.060   6.364   4.346  0.2020 -0.3137 -0.2214
  799MOL0     H 7819   0.136   6.227   4.231  2.9354 -0.4395  0.9537
  799MOL0     H 7820   0.192   6.197   4.402  1.1540  0.1616 -1.4176
  799MOL0     H 7821   0.310   6.382   4.416  2.2118  1.6995 -1.0722
  799MOL0     H 7822   0.184   6.482   4.342  0.6360 -0.9908  1.9725
  799MOL0     H 7823   0.273   6.394   4.123 -1.5486  1.5920 -0.0900
  799MOL0     H 7824   0.392   6.301   4.228 -0.7721 -0.3773 -0.0765
  799MOL0     H 7825   0.188   6.608   4.123 -0.9136 -2.1663 -4.8240
  799MOL0     H 7826   0.064   6.838   4.069 -2.8396 -0.3130 -1.3784
  799MOL0     H 7827   0.133   6.924   3.936 -2.2553 -0.1256 -0.0987
  799MOL0     H 7828   0.090   6.753   3.912  0.3612  0.7378 -0.6892
  799MOL0     H 7829   0.459   7.299   3.852  1.8006  0.7063 -0.0593
  799MOL0     H 7830   0.529   7.431   3.667 -0.7511 -0.1912 -1.8681
  799MOL0     H 7831   0.549   7.255   3.269  4.2259  0.0229  1.2078
  799MOL0     H 7832   0.423   7.314   3.367  1.1003 -1.7570 -1.9342
  799MOL0     H 7833   0.446   7.464   3.197 -0.1609 -0.1942  0.4391
  799MOL0     H 7834   0.527   7.551   3.325  0.2838 -0.6310  0.7028
  799MOL0     H 7835   0.678   7.374   3.117  0.3858 -0.0906  1.4630
  799MOL0     H 7836   0.753   7.481   3.237  0.4080 -0.6040 -0.1616
  799MOL0     H 7837   0.599   7.564   2.980 -3.3945  5.0431  2.3188
  799MOL0     H 7838   0.667   7.673   3.102  3.1634  0.6387  0.5972
  799MOL0     H 7839   0.845   7.452   2.967 -1.2133 -0.8953  2.3683
  799MOL0     H 7840   0.887   7.583   3.080 -0.8594  3.3914  0.9738
  799MOL0     H 7841   0.765   7.630   2.799 -3.0415 -1.6658  2.0628
  799MOL0     H 7842   0.807   7.762   2.917  1.4667 -0.2843  0.0437
  799MOL0     H 7843   0.975   7.581   2.736  0.3214 -1.2715  0.9545
  799MOL0     H 7844   1.054   7.626   2.878  1.9791 -1.0553 -3.3625
  799MOL0     H 7845   1.118   7.762   2.695  0.9709  1.0944  0.5369
  799MOL0     H 7846   1.046   7.862   2.817 -1.0373  0.6561 -0.1255
  799MOL0     H 7847   0.697   7.099   3.454 -0.5483 -0.9328 -0.2801
  799MOL0     H 7848   0.634   6.956   3.655 -2.1449 -1.3674 -0.0629
  799MOL0     H 7849   0.602   6.849   4.040  0.2145 -1.3053 -0.6348
  799MOL0     H 7850   0.591   6.665   4.208  1.2724 -0.9115 -1.3866
  799MOL0     H 7851   0.532   7.371   5.310 -1.3528 -1.7797 -2.0214
  799MOL0     H 7852   0.707   7.436   5.429  0.3814  0.6884 -2.3395
  799MOL0     H 7853   1.167   7.269   5.626 -5.2282  1.7169  0.3582
  799MOL0     H 7854   1.390   7.320   5.700  1.0067 -0.2949 -1.3474
  799MOL0     H 7855   1.571   7.736   5.582 -0.5892  0.2684 -0.5016
  799MOL0     H 7856   1.537   7.751   5.740 -1.6117 -0.2593 -0.8671
  799MOL0     H 7857   1.789   7.773   5.695 -0.0614  0.2975 -0.3076
  799MOL0     H 7858   1.795   7.618   5.608 -2.3605 -0.4339 -1.3016
  799MOL0     H 7859   1.710   7.499   5.822  2.8696 -0.6327  2.1886
  799MOL0     H 7860   1.712   7.653   5.901 -1.4554 -1.9371  1.1874
  799MOL0     H 7861   1.960   7.673   5.833  0.2775 -0.4731  1.3834
  799MOL0     H 7862   1.952   7.501   5.779 -0.2292 -1.8831  1.7659
  799MOL0     H 7863   1.981   7.477   6.198  1.3710 -0.6483  0.4055
  799MOL0     H 7864   1.352   7.718   5.527  2.1047 -1.3116 -3.7392
  799MOL0     H 7865   1.117   7.659   5.471 -0.5167  0.2523  0.0583
  800MOL0     O 7866   6.175   6.473   6.562 -0.2932  0.2951  0.3716
  800MOL0     C 7867   6.247   6.460   6.454  0.7715  0.9537 -0.2039
  800MOL0     O 7868   6.194   6.464   6.327 -0.1556  0.2928 -0.0429
  800MOL0     C 7869   6.064   6.441   6.325  0.2858 -0.8938  0.3111
  800MOL0     C 7870   5.970   6.551   6.307  0.4753 -0.6406  0.5848
  800MOL0     C 7871   5.834   6.521   6.309  0.1643 -0.3397  0.0246
  800MOL0     C 7872   5.789   6.386   6.307 -0.0114 -1.6027 -0.4471
  800MOL0     O 7873   5.662   6.345   6.334  0.4435  0.1690  0.1023
  800MOL0     C 7874   5.559   6.442   6.349  0.3282 -0.3367  0.1574
  800MOL0     C 7875   5.509   6.471   6.208 -0.0634  0.6389  0.1104
  800MOL0     C 7876   5.414   6.593   6.219  0.0928  0.2455  0.7790
  800MOL0     C 7877   5.367   6.631   6.088 -0.1771 -0.3590  0.1532
  800MOL0     C 7878   5.269   6.737   6.087  0.0860  0.3373  0.2527
  800MOL0     C 7879   5.190   6.753   5.952 -0.6673  0.1817  0.1787
  800MOL0     C 7880   5.111   6.883   5.942  0.0103 -0.2950 -0.1677
  800MOL0     C 7881   5.197   7.004   5.937  0.4438  1.5107 -0.4410
  800MOL0     N 7882   5.106   7.115   5.914 -1.1294 -0.1727  0.4628
  800MOL0     C 7883   5.057   7.172   5.795  0.7807  1.0615  0.8055
  800MOL0     C 7884   4.965   7.268   5.837  0.3554  0.0901 -0.7736
  800MOL0     C 7885   4.897   7.363   5.751  0.5030  0.4036 -0.2616
  800MOL0     C 7886   4.967   7.499   5.761  0.1727 -0.0604  0.0742
  800MOL0     C 7887   4.925   7.584   5.646 -0.0834  0.0610 -0.6557
  800MOL0     C 7888   5.000   7.715   5.664 -0.0834  0.1055 -0.0942
  800MOL0     O 7889   4.947   7.779   5.786 -0.2335  0.5701  0.0220
  800MOL0     C 7890   5.014   7.883   5.845  0.0467  0.5097 -0.0946
  800MOL0     C 7891   5.106   7.960   5.783 -0.3131 -0.0138 -0.6700
  800MOL0     C 7892   5.179   8.055   5.854 -0.4465 -0.3217 -0.5180
  800MOL0     C 7893   5.300   8.119   5.792 -0.2442 -0.1550 -0.2811
  800MOL0     C 7894   5.147   8.071   5.990 -1.5087 -0.3047  0.5448
  800MOL0     C 7895   5.220   8.174   6.079 -0.0146  0.7575  0.0113
  800MOL0     O 7896   5.312   8.260   6.035 -0.0425 -0.2884  1.1816
  800MOL0     C 7897   5.379   8.331   6.132 -0.4128  0.5656  0.8296
  800MOL0     C 7898   5.333   8.450   6.180  0.2776  0.7463 -0.2313
  800MOL0     C 7899   5.401   8.521   6.277 -0.5949 -1.0805 -0.8232
  800MOL0     C 7900   5.518   8.475   6.329 -0.4512 -0.0133  0.5215
  800MOL0     O 7901   5.590   8.562   6.402  0.2059 -0.2523 -0.8944
  800MOL0     C 7902   5.689   8.493   6.483 -0.5777  0.6084 -0.9006
  800MOL0     C 7903   5.729   8.596   6.593 -0.6272 -0.3132 -0.2716
  800MOL0     C 7904   5.802   8.510   6.707  0.2261 -0.9586 -0.1173
  800MOL0     C 7905   5.835   8.602   6.821 -0.0306 -0.4063  0.0396
  800MOL0     C 7906   5.935   8.535   6.918 -0.6825 -0.7795  0.0121
  800MOL0     C 7907   5.900   8.399   6.973  0.0500 -1.5305  1.0148
  800MOL0     C 7908   5.997   8.335   7.063  0.2525  0.2813 -0.4038
  800MOL0     C 7909   5.965   8.190   7.104 -0.2523 -0.8504 -0.5237
  800MOL0    Cl 7910   5.844   8.193   7.245 -0.2227  0.1664 -0.0326
  800MOL0     C 7911   5.572   8.355   6.275  0.4349 -0.3409 -0.3067
  800MOL0     C 7912   5.498   8.275   6.185 -0.2281  0.4259 -0.6505
  800MOL0     O 7913   5.191   8.173   6.199  0.5315 -0.3794 -0.9490
  800MOL0     C 7914   5.038   8.006   6.050  0.6292 -0.5243  0.7673
  800MOL0     C 7915   4.974   7.905   5.981 -0.7629  0.0222 -0.1368
  800MOL0     N 7916   4.954   7.263   5.979 -0.0424 -0.3973 -0.0119
  800MOL0     N 7917   5.035   7.175   6.017 -0.6037  0.5425 -0.9575
  800MOL0     C 7918   5.878   6.278   6.303 -0.5480  0.3263 -1.3024
  800MOL0     C 7919   6.017   6.307   6.318  1.2870 -0.1531 -0.5573
  800MOL0     C 7920   6.392   6.436   6.483  0.7348  0.3948  0.7929
  800MOL0     C 7921   6.457   6.493   6.589  0.4502  0.4617 -0.0521
  800MOL0     C 7922   6.593   6.484   6.601 -0.3985 -0.2298 -0.1847
  800MOL0     C 7923   6.675   6.414   6.504  0.0311 -0.0342 -0.0680
  800MOL0     O 7924   6.807   6.401   6.515  0.4128 -0.1601  0.1210
  800MOL0     C 7925   6.869   6.368   6.646  0.4920  0.7140  0.4544
  800MOL0     C 7926   6.951   6.491   6.706 -0.6459  0.3558  0.0990
  800MOL0     C 7927   7.078   6.536   6.627  0.4423 -1.0194 -0.1346
  800MOL0     C 7928   7.149   6.668   6.669 -0.2478  0.5406 -0.3283
  800MOL0     C 7929   7.088   6.776   6.590  0.2029 -0.9125  0.1414
  800MOL0     C 7930   7.037   6.882   6.546  0.6297  0.1944 -0.9833
  800MOL0     C 7931   6.610   6.349   6.400  0.4452 -0.7681  0.6574
  800MOL0     C 7932   6.467   6.364   6.388  0.1090  0.6485  0.2471
  800MOL0     H 7933   6.006   6.653   6.311 -0.0016 -0.3017 -2.1294
  800MOL0     H 7934   5.768   6.607   6.313 -0.3266 -0.7498  1.3679
  800MOL0     H 7935   5.476   6.396   6.402  2.2230 -0.0645  3.6977
  800MOL0     H 7936   5.587   6.532   6.406  1.4244 -0.1801 -0.5907
  800MOL0     H 7937   5.595   6.496   6.145 -0.0218 -0.0328 -0.1069
  800MOL0     H 7938   5.456   6.383   6.172 -1.7898  0.9627  1.6638
  800MOL0     H 7939   5.326   6.573   6.281 -0.3590 -1.6911 -0.4154
  800MOL0     H 7940   5.462   6.674   6.275 -0.5459  2.0116 -1.1328
  800MOL0     H 7941   5.450   6.662   6.023 -1.6997  1.1536 -1.1522
  800MOL0     H 7942   5.328   6.549   6.028 -3.4707  1.7007 -0.7307
  800MOL0     H 7943   5.191   6.729   6.163  1.9106 -0.2352  2.1680
  800MOL0     H 7944   5.319   6.826   6.128 -2.6277  2.2106 -0.2357
  800MOL0     H 7945   5.257   6.739   5.867 -0.4145 -0.4386  0.4742
  800MOL0     H 7946   5.129   6.662   5.949 -0.0387 -0.3261  1.7509
  800MOL0     H 7947   5.050   6.882   5.852  0.8435  1.4206 -0.7931
  800MOL0     H 7948   5.042   6.894   6.026 -1.4196  2.1995 -1.5359
  800MOL0     H 7949   5.276   6.988   5.864  0.6300  0.2404  0.0085
  800MOL0     H 7950   5.242   7.003   6.037 -0.6295 -1.9964  0.1634
  800MOL0     H 7951   5.085   7.156   5.692 -1.7043  0.0620  0.2034
  800MOL0     H 7952   4.887   7.325   5.649  0.9962  0.9588 -0.5218
  800MOL0     H 7953   4.796   7.375   5.792 -0.2089 -1.4743 -1.3426
  800MOL0     H 7954   5.075   7.492   5.743  0.4737  0.0586  1.6998
  800MOL0     H 7955   4.940   7.541   5.858  0.0267 -2.8712  1.3450
  800MOL0     H 7956   4.819   7.611   5.645 -0.6591 -0.8771  4.9253
  800MOL0     H 7957   4.952   7.528   5.556  1.1171 -0.2730 -0.1177
  800MOL0     H 7958   4.985   7.783   5.580  0.5686  1.5780  0.9317
  800MOL0     H 7959   5.106   7.694   5.682 -0.4848 -0.3948  1.9889
  800MOL0     H 7960   5.120   7.940   5.677 -1.6193  0.2000 -0.8962
  800MOL0     H 7961   5.315   8.085   5.689 -0.3650 -0.3477 -0.2365
  800MOL0     H 7962   5.293   8.226   5.774 -2.5646 -0.0688  0.8035
  800MOL0     H 7963   5.392   8.091   5.844 -0.3025 -1.0865 -0.6605
  800MOL0     H 7964   5.240   8.483   6.136  1.5933 -2.8662 -7.1252
  800MOL0     H 7965   5.377   8.624   6.302 -0.0148 -0.6551 -1.9597
  800MOL0     H 7966   5.634   8.414   6.534  0.6261  0.4375  0.1842
  800MOL0     H 7967   5.776   8.444   6.438  0.1388  1.7819 -0.8288
  800MOL0     H 7968   5.798   8.668   6.548  2.5913 -1.9246  1.7107
  800MOL0     H 7969   5.645   8.658   6.626 -0.0202  2.0406 -2.7271
  800MOL0     H 7970   5.894   8.463   6.670 -0.3995 -1.6909 -0.8050
  800MOL0     H 7971   5.730   8.439   6.748  1.3649 -0.6732  2.5838
  800MOL0     H 7972   5.896   8.679   6.774  1.4204 -0.3904  1.8384
  800MOL0     H 7973   5.746   8.639   6.873  1.3810  1.7396  1.0874
  800MOL0     H 7974   5.944   8.606   7.000 -3.9436 -0.1913 -0.0016
  800MOL0     H 7975   6.027   8.527   6.859 -0.0275  0.8123  0.7539
  800MOL0     H 7976   5.805   8.427   7.019  0.4417  1.4799  0.1843
  800MOL0     H 7977   5.871   8.333   6.891 -0.5928  0.7641 -0.7091
  800MOL0     H 7978   6.007   8.396   7.153 -2.2914  1.3698 -0.7702
  800MOL0     H 7979   6.091   8.329   7.007  1.1854  0.4646  1.1017
  800MOL0     H 7980   6.055   8.142   7.143  0.1804  1.0378  0.8876
  800MOL0     H 7981   5.927   8.126   7.023 -3.4267 -2.1429  1.7927
  800MOL0     H 7982   5.667   8.314   6.308  0.0495 -1.9051 -1.0481
  800MOL0     H 7983   5.516   8.178   6.141 -2.8271 -0.1721 -0.5401
  800MOL0     H 7984   5.010   8.023   6.153 -2.7497  1.8953 -0.3793
  800MOL0     H 7985   4.885   7.864   6.027 -1.9084  1.8680 -0.6256
  800MOL0     H 7986   5.848   6.174   6.288 -1.4455  0.5541 -1.1451
  800MOL0     H 7987   6.088   6.225   6.316  0.7529 -0.6142 -0.8588
  800MOL0     H 7988   6.384   6.537   6.656 -1.5016  1.0521 -2.4163
  800MOL0     H 7989   6.649   6.526   6.683  1.4181 -2.2913 -0.2721
  800MOL0     H 7990   6.790   6.345   6.718  0.6885 -1.2288  0.1051
  800MOL0     H 7991   6.916   6.270   6.632 -0.4147  0.0771  1.7070
  800MOL0     H 7992   6.990   6.465   6.805 -1.0250 -3.8662 -0.6735
  800MOL0     H 7993   6.879   6.573   6.712 -0.2356  0.9482 -2.2417
  800MOL0     H 7994   7.062   6.550   6.520  0.9450  2.0860  0.0870
  800MOL0     H 7995   7.148   6.453   6.637  0.9126 -0.7134 -0.8291
  800MOL0     H 7996   7.257   6.676   6.657  0.1939 -0.5525  2.1463
  800MOL0     H 7997   7.127   6.702   6.771  3.0674  3.8740 -0.5031
  800MOL0     H 7998   6.986   6.974   6.525 -1.3783 -0.8224 -0.8478
  800MOL0     H 7999   6.678   6.291   6.338 -0.1204 -1.1940  0.4299
  800MOL0     H 8000   6.413   6.296   6.322 -2.3222  1.1317  1.6051
  801MOL0     O 8001   9.533   7.191   5.202  0.1033  0.0975 -0.1993
  801MOL0     C 8002   9.635   7.137   5.179 -0.2676 -0.1880  0.4306
  801MOL0     O 8003   9.717   7.074   5.266 -0.3367 -0.0131  0.9016
  801MOL0     C 8004   9.695   7.057   5.405  0.0467 -0.6450 -0.1097
  801MOL0     C 8005   9.811   7.033   5.483 -0.1600  0.0919 -0.8160
  801MOL0     C 8006   9.800   6.999   5.622 -0.1629  0.5152 -0.4925
  801MOL0     C 8007   9.672   7.004   5.681 -0.3303 -0.1432  0.0418
  801MOL0     O 8008   9.675   6.972   5.811  0.4438 -0.4255  0.1416
  801MOL0     C 8009   9.562   6.997   5.888  0.2010 -0.1209  0.5735
  801MOL0     C 8010   9.588   6.967   6.034  0.1564 -0.6214  0.5687
  801MOL0     C 8011   9.619   6.813   6.072  0.3766 -0.6400  0.0868
  801MOL0     C 8012   9.654   6.783   6.211  0.5975 -0.2332 -0.5710
  801MOL0     C 8013   9.791   6.827   6.250  0.3230  0.2251  0.0254
  801MOL0     C 8014   9.833   6.773   6.385 -0.5682 -0.1032  0.2582
  801MOL0     C 8015   9.940   6.866   6.437 -0.3773  0.5454 -0.3461
  801MOL0     C 8016  10.045   6.790   6.522  0.6749  0.1849 -1.2494
  801MOL0     N 8017  10.113   6.684   6.451  0.1980  0.3477 -0.1013
  801MOL0     C 8018  10.226   6.704   6.375  0.0106 -1.0497 -1.6816
  801MOL0     C 8019  10.244   6.583   6.316  0.4348 -0.8351  0.2166
  801MOL0     C 8020  10.354   6.532   6.238  0.3137 -1.0668  0.0832
  801MOL0     C 8021  10.492   6.577   6.284  0.1800  0.5683  0.4953
  801MOL0     C 8022  10.594   6.484   6.216 -0.5731 -0.0451  0.1648
  801MOL0     C 8023  10.597   6.500   6.070 -0.0872 -0.2123 -0.0195
  801MOL0     O 8024  10.605   6.642   6.036  0.2353  0.0976  0.1093
  801MOL0     C 8025  10.728   6.698   6.006 -0.1196 -0.4258 -0.1643
  801MOL0     C 8026  10.816   6.724   6.112  0.7145 -0.2637 -0.0455
  801MOL0     C 8027  10.944   6.771   6.086  0.9482 -0.7414  0.5401
  801MOL0     C 8028  11.031   6.794   6.218  0.3878  0.4012  0.1825
  801MOL0     C 8029  10.998   6.770   5.953  0.1449 -0.5900 -1.5010
  801MOL0     C 8030  11.148   6.790   5.915  0.5438 -0.5986 -0.2827
  801MOL0     O 8031  11.225   6.842   6.013 -0.6766  0.2229 -1.0066
  801MOL0     C 8032  11.355   6.856   5.981  0.9709 -0.2589  0.4863
  801MOL0     C 8033  11.445   6.751   5.997 -1.3775 -0.3542  0.5899
  801MOL0     C 8034  11.577   6.764   5.960  1.3827 -0.1173 -0.2071
  801MOL0     C 8035  11.623   6.885   5.906 -0.2292  0.3205 -0.1990
  801MOL0     O 8036  11.763   6.906   5.899 -0.4104 -0.4850 -0.4177
  801MOL0     C 8037  11.842   6.862   6.004 -0.2022 -0.0592  0.6756
  801MOL0     C 8038  11.984   6.928   6.007  1.1933 -0.3912  0.0698
  801MOL0     C 8039  12.042   6.940   6.138  0.7037 -0.2747 -1.6465
  801MOL0     C 8040  12.182   6.986   6.135  0.0558 -0.8453 -1.1367
  801MOL0     C 8041  12.254   6.995   6.273  1.2368  0.0615  0.0226
  801MOL0     C 8042  12.188   7.095   6.365 -0.6088 -0.0414  0.3519
  801MOL0     C 8043  12.293   7.147   6.467  1.1854  0.9761 -0.0006
  801MOL0     C 8044  12.236   7.246   6.562  1.1326 -0.5703  0.7189
  801MOL0    Cl 8045  12.358   7.320   6.673  0.0800 -0.1952  0.0292
  801MOL0     C 8046  11.532   6.981   5.872  0.5273 -0.2596 -0.7708
  801MOL0     C 8047  11.395   6.970   5.911  0.2964  0.2354  0.4156
  801MOL0     O 8048  11.182   6.761   5.803 -0.1923  0.1719  0.2077
  801MOL0     C 8049  10.903   6.751   5.855  0.2713 -0.6735 -0.1417
  801MOL0     C 8050  10.768   6.706   5.879 -0.0674 -0.2870  0.0382
  801MOL0     N 8051  10.147   6.494   6.356 -0.3469 -0.0349  0.3028
  801MOL0     N 8052  10.075   6.548   6.451 -0.8096  0.2319 -1.3992
  801MOL0     C 8053   9.557   7.027   5.605 -0.5886 -1.1798  0.1208
  801MOL0     C 8054   9.573   7.051   5.471 -0.0822  0.7021  0.5565
  801MOL0     C 8055   9.662   7.114   5.037 -1.0659 -1.5066  0.5911
  801MOL0     C 8056   9.758   7.030   4.988  0.6155  0.0878  0.0475
  801MOL0     C 8057   9.797   7.026   4.850 -0.0657  0.0265 -0.2187
  801MOL0     C 8058   9.720   7.090   4.756  0.7511 -0.5425 -0.2687
  801MOL0     O 8059   9.732   7.086   4.618 -0.2394 -0.5938 -0.3862
  801MOL0     C 8060   9.817   6.986   4.561 -0.2821 -1.2211 -0.3265
  801MOL0     C 8061   9.855   7.018   4.414  0.5637 -0.6704 -0.0063
  801MOL0     C 8062   9.934   7.147   4.404  0.1036 -0.3671 -0.0131
  801MOL0     C 8063   9.927   7.181   4.259 -0.0155  0.1112 -0.8821
  801MOL0     C 8064  10.014   7.101   4.174  0.1005 -0.2897  0.5566
  801MOL0     C 8065  10.089   7.029   4.109 -0.1950 -0.8923  0.9491
  801MOL0     C 8066   9.617   7.173   4.795  0.2717 -1.3225 -1.2636
  801MOL0     C 8067   9.583   7.187   4.936  0.4540  0.5548 -0.9787
  801MOL0     H 8068   9.905   7.039   5.430 -0.6758 -1.0396 -1.8978
  801MOL0     H 8069   9.886   6.977   5.683 -0.3528 -1.8945 -0.9945
  801MOL0     H 8070   9.521   7.097   5.869 -2.9482 -1.2591  0.8228
  801MOL0     H 8071   9.479   6.936   5.851 -0.5787  1.4828 -0.4881
  801MOL0     H 8072   9.671   7.029   6.070 -1.8563  1.7425  1.3982
  801MOL0     H 8073   9.502   7.001   6.092 -0.9367 -0.8697 -0.8761
  801MOL0     H 8074   9.531   6.757   6.041 -0.9853  2.5863 -2.4737
  801MOL0     H 8075   9.698   6.780   6.004 -0.0818  2.8260 -2.4494
  801MOL0     H 8076   9.575   6.826   6.274  1.3206 -3.6132  2.9940
  801MOL0     H 8077   9.636   6.676   6.224 -0.4403  0.1928  2.2597
  801MOL0     H 8078   9.867   6.797   6.176  2.2506  4.3489  0.0853
  801MOL0     H 8079   9.775   6.935   6.253 -1.7575  0.0178 -1.3257
  801MOL0     H 8080   9.746   6.766   6.452 -0.2758 -0.1119  0.6404
  801MOL0     H 8081   9.875   6.673   6.368  3.6410  1.3871  0.7883
  801MOL0     H 8082   9.994   6.898   6.347  0.2004  1.6898  0.3856
  801MOL0     H 8083   9.906   6.953   6.493  3.6611  0.8798  1.9192
  801MOL0     H 8084   9.999   6.745   6.610 -1.4367 -1.6813 -3.1583
  801MOL0     H 8085  10.127   6.853   6.556  3.7515 -2.8591 -2.4404
  801MOL0     H 8086  10.301   6.783   6.373  0.5236 -1.4805 -0.6327
  801MOL0     H 8087  10.343   6.424   6.253 -2.8396 -0.6542  1.6617
  801MOL0     H 8088  10.339   6.563   6.134 -5.0448 -1.4552  0.4506
  801MOL0     H 8089  10.507   6.572   6.392 -0.2436  0.6391  0.5568
  801MOL0     H 8090  10.511   6.680   6.252 -3.3265  1.6953  1.5959
  801MOL0     H 8091  10.575   6.379   6.242  1.9031 -0.0712  2.3251
  801MOL0     H 8092  10.696   6.505   6.249 -1.0325  2.6852  0.0720
  801MOL0     H 8093  10.505   6.456   6.030 -0.1925 -2.8480  2.6971
  801MOL0     H 8094  10.683   6.449   6.025  0.9338 -0.4242  2.0685
  801MOL0     H 8095  10.781   6.698   6.211 -2.5246 -1.0048 -1.2509
  801MOL0     H 8096  11.072   6.895   6.209  0.1465  0.5471  0.6462
  801MOL0     H 8097  10.963   6.777   6.302 -1.3665  2.5382 -0.7023
  801MOL0     H 8098  11.123   6.738   6.236  0.3410  0.9456  2.4512
  801MOL0     H 8099  11.416   6.654   6.037  1.6580 -0.4297  2.9738
  801MOL0     H 8100  11.647   6.682   5.974  0.4964 -1.4034 -2.6625
  801MOL0     H 8101  11.793   6.885   6.100 -0.1190 -0.5990  0.8517
  801MOL0     H 8102  11.857   6.754   6.005 -0.0957 -0.0446  0.6505
  801MOL0     H 8103  12.050   6.877   5.935 -0.3856  0.0625 -1.7974
  801MOL0     H 8104  11.970   7.030   5.970  3.3657  0.2638  0.8624
  801MOL0     H 8105  12.035   6.843   6.187  2.4828  0.8558  1.1262
  801MOL0     H 8106  11.980   7.005   6.201 -0.0767 -0.8880 -1.7688
  801MOL0     H 8107  12.244   6.921   6.073  1.2115  0.2214 -1.1470
  801MOL0     H 8108  12.187   7.087   6.093 -0.1594  0.1321  1.0441
  801MOL0     H 8109  12.361   7.016   6.268  2.0484 -2.6354  2.7292
  801MOL0     H 8110  12.242   6.897   6.320 -2.4558  0.4937  0.2573
  801MOL0     H 8111  12.146   7.179   6.309  2.1612 -1.5125 -4.4563
  801MOL0     H 8112  12.105   7.041   6.412  0.8851 -3.6152 -0.7877
  801MOL0     H 8113  12.373   7.198   6.411  0.6513  2.3636  0.4411
  801MOL0     H 8114  12.325   7.058   6.521  0.7670  1.4690  1.0928
  801MOL0     H 8115  12.159   7.199   6.623 -2.1771  1.8519 -1.2799
  801MOL0     H 8116  12.193   7.327   6.502  3.5357 -0.2854 -0.7996
  801MOL0     H 8117  11.568   7.076   5.834 -0.4038  1.0402  1.3803
  801MOL0     H 8118  11.319   7.047   5.901 -1.9434 -1.5936  2.1752
  801MOL0     H 8119  10.922   6.776   5.751 -0.8600  0.2044 -0.1566
  801MOL0     H 8120  10.701   6.687   5.796  1.4171 -2.1706 -0.7915
  801MOL0     H 8121   9.461   7.048   5.652 -0.9083 -0.0774 -0.9637
  801MOL0     H 8122   9.481   7.074   5.418 -0.0099 -0.6567 -0.2040
  801MOL0     H 8123   9.824   6.974   5.053  2.8134  1.2087 -1.0914
  801MOL0     H 8124   9.878   6.959   4.821 -0.4417 -1.3127  1.6732
  801MOL0     H 8125   9.907   6.963   4.618 -0.2658 -0.1489  0.0997
  801MOL0     H 8126   9.757   6.894   4.562  0.3714 -1.6724 -1.1059
  801MOL0     H 8127   9.767   7.030   4.350  0.2794 -2.5093 -0.0160
  801MOL0     H 8128   9.910   6.933   4.373  2.1247  2.0354 -4.0798
  801MOL0     H 8129  10.040   7.134   4.429  1.2751  1.1594 -3.6490
  801MOL0     H 8130   9.892   7.231   4.461  2.3530  0.6210  0.2850
  801MOL0     H 8131   9.961   7.283   4.239  2.0164 -0.4668 -0.5320
  801MOL0     H 8132   9.830   7.168   4.210  0.4641 -0.1050 -1.8002
  801MOL0     H 8133  10.141   6.954   4.053 -0.3837  0.5197 -1.2184
  801MOL0     H 8134   9.550   7.215   4.721  0.1552 -0.9779 -0.9693
  801MOL0     H 8135   9.499   7.247   4.969  1.2800  0.1096  2.4021
  802MOL0     O 8136   2.322  10.567   9.147  0.2947  0.1846 -0.5939
  802MOL0     C 8137   2.429  10.615   9.121  0.0348 -0.2863 -0.1307
  802MOL0     O 8138   2.477  10.725   9.177  0.4085 -0.3172 -0.2884
  802MOL0     C 8139   2.387  10.786   9.260 -0.2026 -0.9951 -0.3971
  802MOL0     C 8140   2.360  10.727   9.381  0.4831 -0.1279  0.4731
  802MOL0     C 8141   2.268  10.787   9.469  0.0503 -0.8082  0.2353
  802MOL0     C 8142   2.201  10.910   9.434 -0.4844 -0.6655 -0.5446
  802MOL0     O 8143   2.106  10.977   9.510 -0.4121  0.6199 -0.4079
  802MOL0     C 8144   2.141  10.956   9.657 -0.4411 -0.2863  0.3905
  802MOL0     C 8145   2.068  11.054   9.744 -0.6090 -0.4297  0.0028
  802MOL0     C 8146   2.117  11.198   9.719 -0.6881 -0.2113  1.0023
  802MOL0     C 8147   2.023  11.282   9.798 -0.4747 -0.4289  0.2369
  802MOL0     C 8148   2.062  11.433   9.803 -0.2106  0.5895 -0.2764
  802MOL0     C 8149   1.955  11.510   9.873 -1.0775  0.1832 -0.1000
  802MOL0     C 8150   1.846  11.539   9.773  0.6208 -0.0080 -0.0400
  802MOL0     C 8151   1.725  11.564   9.863  0.9381  0.8658 -0.0703
  802MOL0     N 8152   1.663  11.439   9.918 -1.2724  0.3926 -0.0309
  802MOL0     C 8153   1.688  11.385  10.038  0.2589 -0.3495 -0.5602
  802MOL0     C 8154   1.664  11.253  10.033  0.5167 -0.3950  0.0136
  802MOL0     C 8155   1.706  11.152  10.143  0.2693 -0.5537 -0.4133
  802MOL0     C 8156   1.856  11.136  10.154 -1.0463 -0.2472 -0.2830
  802MOL0     C 8157   1.890  11.164  10.302 -0.3077 -0.3195 -0.1182
  802MOL0     C 8158   2.039  11.150  10.328  0.0242 -0.2104  0.2933
  802MOL0     O 8159   2.128  11.205  10.228 -0.0043  0.2174 -1.4676
  802MOL0     C 8160   2.207  11.127  10.142  0.0670 -0.6915 -0.1210
  802MOL0     C 8161   2.191  10.987  10.134  0.5168  0.3460  0.2694
  802MOL0     C 8162   2.249  10.912  10.034 -0.8193  0.1897  0.2993
  802MOL0     C 8163   2.227  10.768  10.044 -0.0243 -0.0944 -0.4889
  802MOL0     C 8164   2.346  10.971   9.944  0.2382 -0.8900  0.3841
  802MOL0     C 8165   2.434  10.892   9.857  0.6019  0.2766 -0.0575
  802MOL0     O 8166   2.551  10.945   9.821 -0.4491  0.4876 -1.2850
  802MOL0     C 8167   2.626  10.857   9.742  0.3709  0.5949  0.6017
  802MOL0     C 8168   2.712  10.766   9.809  0.4394  1.2186  0.4050
  802MOL0     C 8169   2.783  10.671   9.731 -0.4242  0.0721 -0.5243
  802MOL0     C 8170   2.765  10.663   9.598  0.2358  0.1211  0.5007
  802MOL0     O 8171   2.825  10.553   9.540 -0.0444 -0.4892 -0.8378
  802MOL0     C 8172   2.748  10.481   9.443  0.0322  0.3060 -0.6170
  802MOL0     C 8173   2.830  10.371   9.382 -0.1817 -0.4317  0.4896
  802MOL0     C 8174   2.899  10.279   9.480  0.2946  0.9271 -0.5581
  802MOL0     C 8175   2.978  10.180   9.387  0.8299 -0.6063  0.0566
  802MOL0     C 8176   3.043  10.060   9.454 -0.0244 -0.3952  0.6345
  802MOL0     C 8177   3.155  10.109   9.551 -0.2616 -0.0773 -0.1325
  802MOL0     C 8178   3.219   9.990   9.623 -0.0062 -0.9096  0.7213
  802MOL0     C 8179   3.278  10.034   9.762  0.6050 -0.0924  0.9888
  802MOL0    Cl 8180   3.166  10.077   9.888 -0.0098  0.1101 -0.2209
  802MOL0     C 8181   2.678  10.748   9.535  0.5423 -0.2199  0.6853
  802MOL0     C 8182   2.613  10.842   9.604 -0.6116 -0.6897  0.3674
  802MOL0     O 8183   2.392  10.781   9.821  0.1203 -0.4339 -0.5601
  802MOL0     C 8184   2.360  11.123   9.949  0.4411 -0.2886 -0.1061
  802MOL0     C 8185   2.279  11.186  10.044 -0.0171 -0.1723  0.1139
  802MOL0     N 8186   1.611  11.227   9.913 -0.7175  0.1264 -0.1461
  802MOL0     N 8187   1.605  11.338   9.841 -0.2411 -0.0672 -0.0118
  802MOL0     C 8188   2.222  10.961   9.302  0.8442  0.1377  0.4067
  802MOL0     C 8189   2.325  10.904   9.222  0.8745 -0.1035  0.5838
  802MOL0     C 8190   2.519  10.541   9.034  0.2048 -0.2639 -0.8052
  802MOL0     C 8191   2.660  10.551   9.038 -0.8744 -1.8634  0.1377
  802MOL0     C 8192   2.740  10.474   8.953 -0.6073 -0.3230 -0.4642
  802MOL0     C 8193   2.689  10.379   8.879  1.1616  0.3231  0.8951
  802MOL0     O 8194   2.772  10.299   8.811 -0.7080  0.3505 -0.4178
  802MOL0     C 8195   2.734  10.195   8.718  0.7939 -0.5387 -0.0796
  802MOL0     C 8196   2.851  10.116   8.657  0.0598 -0.6252 -0.0425
  802MOL0     C 8197   2.958  10.206   8.585 -0.3168 -0.0862 -0.7034
  802MOL0     C 8198   2.896  10.288   8.475  0.9235  1.2423 -0.2610
  802MOL0     C 8199   2.828  10.198   8.378 -0.4147  0.8914  0.2112
  802MOL0     C 8200   2.770  10.134   8.301  0.0713 -0.1672  0.6137
  802MOL0     C 8201   2.541  10.366   8.863 -0.2969 -0.8271  0.4931
  802MOL0     C 8202   2.464  10.453   8.939 -0.5702  0.3440 -0.1201
  802MOL0     H 8203   2.403  10.631   9.411 -0.4299 -0.7017  0.0007
  802MOL0     H 8204   2.276  10.745   9.569  2.7560  1.5726  1.1606
  802MOL0     H 8205   2.119  10.853   9.687 -0.8011 -0.4102 -0.2810
  802MOL0     H 8206   2.249  10.967   9.674 -0.7722 -0.0905  2.6344
  802MOL0     H 8207   1.964  11.041   9.712 -1.4058  2.2097  1.2776
  802MOL0     H 8208   2.074  11.023   9.849  0.2178  0.8440  0.3530
  802MOL0     H 8209   2.221  11.216   9.747 -1.3701  0.9537  2.9779
  802MOL0     H 8210   2.100  11.209   9.611 -1.6390 -4.1639  0.6019
  802MOL0     H 8211   1.920  11.268   9.764  0.0122 -0.3675 -1.3697
  802MOL0     H 8212   2.020  11.258   9.905 -0.9946  1.5444  0.7040
  802MOL0     H 8213   2.157  11.454   9.853 -1.0317  1.1472  1.1348
  802MOL0     H 8214   2.088  11.477   9.706  2.3442  1.1518  0.5964
  802MOL0     H 8215   1.916  11.461   9.963  1.7181  0.3116  1.2746
  802MOL0     H 8216   2.002  11.599   9.916  2.0989 -2.5670  2.6483
  802MOL0     H 8217   1.878  11.616   9.702  1.8026  0.8114  1.3266
  802MOL0     H 8218   1.838  11.453   9.706  2.0463 -2.1829  2.4350
  802MOL0     H 8219   1.649  11.598   9.793 -1.3703  0.0934  1.9060
  802MOL0     H 8220   1.736  11.643   9.938  2.3940  1.1615 -0.5804
  802MOL0     H 8221   1.736  11.424  10.128  2.7865 -2.1302 -1.0303
  802MOL0     H 8222   1.660  11.179  10.239  0.0758  0.2983 -0.7379
  802MOL0     H 8223   1.672  11.050  10.124  0.9366 -0.7706 -0.4598
  802MOL0     H 8224   1.924  11.204  10.102  2.1218  0.0723  3.7845
  802MOL0     H 8225   1.878  11.036  10.115 -3.1819  0.7780 -4.8809
  802MOL0     H 8226   1.847  11.104  10.382  0.3011 -0.9346 -0.2388
  802MOL0     H 8227   1.869  11.270  10.318  0.8680 -0.1836  0.6908
  802MOL0     H 8228   2.058  11.050  10.366 -2.2239 -0.2532  1.4592
  802MOL0     H 8229   2.061  11.197  10.424  1.9528 -1.4891  0.5162
  802MOL0     H 8230   2.127  10.924  10.195  1.2234 -2.9786 -2.1519
  802MOL0     H 8231   2.330  10.730  10.046 -1.3848 -4.3392 -1.6391
  802MOL0     H 8232   2.173  10.739  10.134 -0.3833  4.3727  0.9894
  802MOL0     H 8233   2.172  10.738   9.954 -2.7352  1.1259  0.6598
  802MOL0     H 8234   2.734  10.768   9.915  3.8274  2.0993 -0.1953
  802MOL0     H 8235   2.854  10.605   9.780 -1.5316  0.9608  2.4816
  802MOL0     H 8236   2.660  10.428   9.483  0.2932  0.6297  0.4116
  802MOL0     H 8237   2.716  10.556   9.370  0.8476 -0.1616 -1.4759
  802MOL0     H 8238   2.764  10.323   9.310 -0.7539  2.0178 -0.7210
  802MOL0     H 8239   2.911  10.423   9.330  0.9507 -1.2407  1.3998
  802MOL0     H 8240   2.824  10.234   9.545  0.5722  1.1931 -0.0504
  802MOL0     H 8241   2.970  10.339   9.536 -1.7833  4.7182 -1.6324
  802MOL0     H 8242   2.909  10.147   9.309 -1.5925  0.4088  1.6480
  802MOL0     H 8243   3.050  10.244   9.335  0.2523 -0.7022 -0.8684
  802MOL0     H 8244   3.087  10.003   9.371  0.7281  0.6412  0.3002
  802MOL0     H 8245   2.971   9.997   9.507 -0.3850 -2.9705 -2.6114
  802MOL0     H 8246   3.222  10.174   9.493 -0.0591 -0.6931 -0.5924
  802MOL0     H 8247   3.104  10.160   9.633  1.8423 -0.5336  1.5516
  802MOL0     H 8248   3.298   9.956   9.557 -0.7179  1.7712 -1.7125
  802MOL0     H 8249   3.138   9.921   9.649 -1.3162  0.4404  0.3625
  802MOL0     H 8250   3.342  10.120   9.740 -1.0362  0.6536 -1.3167
  802MOL0     H 8251   3.336   9.951   9.804 -0.6711 -0.7723  1.4802
  802MOL0     H 8252   2.648  10.744   9.431 -1.3977  0.5807  1.1630
  802MOL0     H 8253   2.546  10.904   9.545  0.6455 -0.2115 -0.6039
  802MOL0     H 8254   2.424  11.180   9.882  1.5571 -4.7807 -3.3288
  802MOL0     H 8255   2.263  11.293  10.039 -0.9948 -0.2887  0.5577
  802MOL0     H 8256   2.175  11.051   9.264 -0.5947 -0.4541  0.7479
  802MOL0     H 8257   2.346  10.944   9.124 -3.8262  2.0752  0.1814
  802MOL0     H 8258   2.706  10.631   9.095 -1.1184 -1.1100 -0.6865
  802MOL0     H 8259   2.848  10.478   8.959 -0.4397 -2.5295 -1.1571
  802MOL0     H 8260   2.671  10.122   8.770 -0.9890  0.5437 -0.6323
  802MOL0     H 8261   2.674  10.244   8.640 -1.9716  0.3559  2.4198
  802MOL0     H 8262   2.830  10.028   8.595  0.3017 -0.5976 -0.1649
  802MOL0     H 8263   2.907  10.075   8.741  1.0435  0.1443 -0.3009
  802MOL0     H 8264   3.035  10.136   8.550  0.3557 -0.9734  2.2573
  802MOL0     H 8265   3.020  10.269   8.650  2.3084 -1.9008 -1.2719
  802MOL0     H 8266   2.975  10.342   8.422  1.0773 -0.6472 -2.0863
  802MOL0     H 8267   2.826  10.362   8.516  1.3837  0.9192  1.1597
  802MOL0     H 8268   2.726  10.086   8.216 -0.9396  1.9758 -0.1464
  802MOL0     H 8269   2.510  10.298   8.784 -0.4117  0.8982 -1.0330
  802MOL0     H 8270   2.356  10.438   8.943 -0.3343 -1.2740  1.0988
  803MOL0     O 8271   0.401   9.977   2.429 -0.3478  0.4473 -0.6999
  803MOL0     C 8272   0.443  10.073   2.363 -0.0917 -0.2769 -0.7761
  803MOL0     O 8273   0.567  10.087   2.318  0.2185  0.0168 -0.6922
  803MOL0     C 8274   0.659   9.985   2.315  0.2416  1.0983  0.8004
  803MOL0     C 8275   0.639   9.847   2.312 -0.1130  0.7469 -0.0205
  803MOL0     C 8276   0.731   9.749   2.277  0.7911  0.2666 -0.2424
  803MOL0     C 8277   0.860   9.794   2.255  0.1028 -0.3060 -0.0135
  803MOL0     O 8278   0.970   9.724   2.222 -0.8299 -0.4529 -0.1256
  803MOL0     C 8279   0.960   9.591   2.234  0.4875  0.3433  0.3528
  803MOL0     C 8280   1.097   9.532   2.201  0.1988  1.3239 -0.5733
  803MOL0     C 8281   1.105   9.381   2.247 -0.8590  0.2123  0.4141
  803MOL0     C 8282   1.209   9.307   2.159  0.5812  0.1435 -0.2914
  803MOL0     C 8283   1.247   9.168   2.212  0.4874  0.1545 -0.3534
  803MOL0     C 8284   1.271   9.155   2.360 -0.0170  0.5168 -0.9659
  803MOL0     C 8285   1.357   9.029   2.406  0.3087  1.2832 -0.0091
  803MOL0     C 8286   1.306   8.894   2.371  0.8122 -0.5188 -0.4897
  803MOL0     N 8287   1.199   8.862   2.469  0.0471  0.3348  0.6358
  803MOL0     C 8288   1.219   8.771   2.575  0.4800 -0.2675 -0.1969
  803MOL0     C 8289   1.104   8.777   2.642  0.0971 -0.4435  0.4695
  803MOL0     C 8290   1.061   8.698   2.762 -0.2688 -0.3884 -0.3287
  803MOL0     C 8291   1.126   8.758   2.890  0.6127 -0.7142  0.1841
  803MOL0     C 8292   1.098   8.652   3.001 -0.2674  0.1952 -0.1999
  803MOL0     C 8293   0.948   8.634   3.046  0.1240 -0.0482  0.7093
  803MOL0     O 8294   0.946   8.582   3.181  0.1080 -0.7405  0.3723
  803MOL0     C 8295   0.830   8.540   3.231 -0.0838  0.9492 -0.5158
  803MOL0     C 8296   0.700   8.568   3.184 -0.5771 -0.2845 -0.6749
  803MOL0     C 8297   0.583   8.521   3.242 -0.8089  0.2412  0.4149
  803MOL0     C 8298   0.452   8.532   3.167  0.0775 -0.6073  0.5835
  803MOL0     C 8299   0.595   8.442   3.359  0.0155 -0.3247 -0.0851
  803MOL0     C 8300   0.479   8.371   3.429 -0.1668 -0.8746  1.1423
  803MOL0     O 8301   0.367   8.337   3.353 -0.1978  0.0695 -0.5644
  803MOL0     C 8302   0.268   8.270   3.405  0.4898  0.2427 -0.3501
  803MOL0     C 8303   0.257   8.133   3.411  0.4777  0.1757 -0.6460
  803MOL0     C 8304   0.137   8.072   3.476 -0.4767 -0.5091 -0.1594
  803MOL0     C 8305   0.035   8.156   3.531  0.1967 -0.0653 -0.0294
  803MOL0     O 8306  -0.073   8.113   3.602 -0.6214 -0.9323 -0.5216
  803MOL0     C 8307  -0.088   7.980   3.646 -0.9175 -0.9325 -0.5351
  803MOL0     C 8308  -0.172   7.904   3.547  0.5311 -0.4449 -0.5117
  803MOL0     C 8309  -0.192   7.755   3.600  0.3527 -1.3117 -0.2401
  803MOL0     C 8310  -0.287   7.683   3.506  0.3932  0.9595 -0.7041
  803MOL0     C 8311  -0.354   7.560   3.575  0.0878  0.6028 -0.4386
  803MOL0     C 8312  -0.410   7.456   3.480 -0.1050  0.6513 -0.0979
  803MOL0     C 8313  -0.306   7.376   3.391  0.1429  0.1158  0.1929
  803MOL0     C 8314  -0.365   7.380   3.248 -0.1591 -0.4579 -0.4079
  803MOL0    Cl 8315  -0.247   7.291   3.147 -0.0542  0.5064 -0.2124
  803MOL0     C 8316   0.056   8.296   3.522 -0.3436  0.2390  1.3317
  803MOL0     C 8317   0.170   8.350   3.453 -0.6286 -0.0926 -0.1638
  803MOL0     O 8318   0.506   8.340   3.541  0.9268  0.2109 -0.3589
  803MOL0     C 8319   0.717   8.435   3.428 -0.3976  0.9546  0.1868
  803MOL0     C 8320   0.835   8.481   3.361 -0.4025  0.7196  0.2134
  803MOL0     N 8321   1.018   8.853   2.577 -0.1126 -0.0870  0.5017
  803MOL0     N 8322   1.075   8.915   2.474 -0.2133  0.9610 -0.5823
  803MOL0     C 8323   0.890   9.931   2.262 -0.3604 -0.5331 -1.0219
  803MOL0     C 8324   0.789  10.024   2.287 -0.2745 -0.4496 -0.3900
  803MOL0     C 8325   0.358  10.188   2.318 -0.2578 -1.5278  0.2181
  803MOL0     C 8326   0.233  10.192   2.369  0.1996  0.5608  0.0197
  803MOL0     C 8327   0.135  10.282   2.310 -0.4151  0.1585 -0.0608
  803MOL0     C 8328   0.177  10.390   2.224  0.2189  0.9828 -0.3402
  803MOL0     O 8329   0.100  10.488   2.175  0.9072  0.7794 -0.3097
  803MOL0     C 8330  -0.042  10.477   2.188 -0.3094 -1.1605 -0.0492
  803MOL0     C 8331  -0.112  10.616   2.154 -0.6588 -0.1426  0.5269
  803MOL0     C 8332  -0.272  10.610   2.138 -0.4744  0.2448 -0.8787
  803MOL0     C 8333  -0.322  10.493   2.051  0.5634 -0.3633  0.4564
  803MOL0     C 8334  -0.467  10.498   2.050 -0.5654 -0.4759  0.6208
  803MOL0     C 8335  -0.585  10.512   2.058 -0.3242  1.0458 -0.3685
  803MOL0     C 8336   0.307  10.395   2.178  0.8493 -0.6745  0.0898
  803MOL0     C 8337   0.397  10.297   2.219 -0.4811 -0.3687 -0.0798
  803MOL0     H 8338   0.535   9.816   2.315  0.9683 -3.7442 -0.7723
  803MOL0     H 8339   0.694   9.647   2.278 -1.5829  1.0261 -1.6326
  803MOL0     H 8340   0.934   9.568   2.338  4.1478 -1.1536  1.0997
  803MOL0     H 8341   0.880   9.566   2.164 -0.7059  5.6006 -0.5884
  803MOL0     H 8342   1.124   9.541   2.096  1.6953  2.7056 -0.1048
  803MOL0     H 8343   1.172   9.589   2.256  1.8762 -0.7472 -0.6081
  803MOL0     H 8344   1.132   9.384   2.353  0.8563  3.5279  0.0348
  803MOL0     H 8345   1.008   9.331   2.237 -0.3456 -0.7734  0.2531
  803MOL0     H 8346   1.175   9.302   2.055  0.2182 -2.9710 -0.1434
  803MOL0     H 8347   1.300   9.367   2.158 -1.0798  2.8013 -0.7831
  803MOL0     H 8348   1.164   9.100   2.192  2.2832 -2.2800 -0.0607
  803MOL0     H 8349   1.333   9.130   2.156  1.0346 -1.9454  1.7140
  803MOL0     H 8350   1.334   9.241   2.387  3.4845 -1.9236 -0.6744
  803MOL0     H 8351   1.178   9.158   2.418 -0.4143 -2.0012 -1.3789
  803MOL0     H 8352   1.457   9.036   2.361  0.7530  1.6870  1.0128
  803MOL0     H 8353   1.382   9.029   2.512  2.2696 -0.4293 -0.3959
  803MOL0     H 8354   1.382   8.815   2.367 -0.4458 -1.7054 -2.1334
  803MOL0     H 8355   1.261   8.897   2.271 -3.2461  0.9411  1.1635
  803MOL0     H 8356   1.310   8.714   2.593  1.4204  0.0262 -3.3680
  803MOL0     H 8357   0.954   8.696   2.785 -0.0342 -0.1250  0.8407
  803MOL0     H 8358   1.092   8.596   2.739  0.6671 -0.1260 -0.2374
  803MOL0     H 8359   1.075   8.854   2.901  1.4166  0.0336 -1.9685
  803MOL0     H 8360   1.230   8.790   2.883  0.1116  1.0985  0.4678
  803MOL0     H 8361   1.148   8.696   3.089  1.0357  0.5526 -1.0901
  803MOL0     H 8362   1.153   8.560   2.978 -1.9596 -0.7585 -0.5655
  803MOL0     H 8363   0.905   8.557   2.981  0.2182  1.4203 -1.1914
  803MOL0     H 8364   0.891   8.727   3.038  2.6361  1.5869  0.7594
  803MOL0     H 8365   0.700   8.614   3.085 -0.3051 -0.2174 -0.6433
  803MOL0     H 8366   0.359   8.541   3.223  1.5902 -0.8720  3.3212
  803MOL0     H 8367   0.442   8.631   3.123 -9.1497 -0.7755  0.4487
  803MOL0     H 8368   0.430   8.453   3.095 -2.2712  0.6985 -0.2281
  803MOL0     H 8369   0.340   8.078   3.367 -0.9926 -2.3956 -0.4478
  803MOL0     H 8370   0.132   7.964   3.473 -0.3064 -0.5069 -2.8108
  803MOL0     H 8371   0.009   7.930   3.643  0.5089  1.6735 -1.2070
  803MOL0     H 8372  -0.125   7.985   3.749  4.1299 -2.2727  1.6047
  803MOL0     H 8373  -0.271   7.948   3.533  0.0841 -0.3774  2.2952
  803MOL0     H 8374  -0.118   7.914   3.452  1.2192  3.9715  0.1238
  803MOL0     H 8375  -0.250   7.779   3.689  2.5804  0.5946  0.8224
  803MOL0     H 8376  -0.093   7.710   3.613  1.1495 -0.7874 -3.5083
  803MOL0     H 8377  -0.354   7.761   3.467  0.6700  1.8642  0.5884
  803MOL0     H 8378  -0.224   7.641   3.428  0.6266  2.8834 -1.6214
  803MOL0     H 8379  -0.443   7.589   3.632 -1.0889 -2.2290 -0.6581
  803MOL0     H 8380  -0.295   7.507   3.649 -1.1393  0.0118  0.1556
  803MOL0     H 8381  -0.463   7.383   3.542  2.6135 -1.6480 -0.3102
  803MOL0     H 8382  -0.473   7.518   3.416  2.2280  1.8117 -1.3989
  803MOL0     H 8383  -0.303   7.273   3.427 -4.3409  0.1227  1.0462
  803MOL0     H 8384  -0.206   7.421   3.388 -0.7013  2.1174 -2.4705
  803MOL0     H 8385  -0.373   7.484   3.213 -2.2803 -0.5702 -0.3677
  803MOL0     H 8386  -0.466   7.340   3.244 -0.8820  0.8880  2.1666
  803MOL0     H 8387  -0.002   8.370   3.577 -1.4813 -0.1795  0.7389
  803MOL0     H 8388   0.180   8.457   3.437 -0.3062  0.4278  2.9989
  803MOL0     H 8389   0.731   8.399   3.530 -0.4087  4.3597  1.5262
  803MOL0     H 8390   0.935   8.466   3.400 -0.0730  0.3335 -0.7536
  803MOL0     H 8391   0.992   9.963   2.240 -1.0225  2.2383 -0.4328
  803MOL0     H 8392   0.831  10.124   2.284  0.1614 -0.6503 -1.0456
  803MOL0     H 8393   0.200  10.126   2.448 -1.6723  2.9734  1.3909
  803MOL0     H 8394   0.034  10.269   2.348  0.3128 -1.9174  1.2889
  803MOL0     H 8395  -0.078  10.395   2.126 -2.2419  1.5934 -2.9249
  803MOL0     H 8396  -0.069  10.461   2.292  1.2049 -3.8328 -0.0029
  803MOL0     H 8397  -0.075  10.654   2.057 -1.2943  1.6288  0.9347
  803MOL0     H 8398  -0.081  10.695   2.224  0.7767 -1.2515  1.1937
  803MOL0     H 8399  -0.302  10.707   2.097 -1.3543 -0.2591 -1.4713
  803MOL0     H 8400  -0.323  10.596   2.234  4.1574  0.8730  1.9678
  803MOL0     H 8401  -0.282  10.394   2.073  3.7259  1.0132  1.5375
  803MOL0     H 8402  -0.296  10.519   1.948  1.3678 -0.9868  0.4929
  803MOL0     H 8403  -0.685  10.531   2.091 -0.2743  0.8173 -0.0827
  803MOL0     H 8404   0.338  10.481   2.121  4.1305 -1.4174  0.5447
  803MOL0     H 8405   0.495  10.287   2.174 -0.8231  1.6479 -1.4163
  804MOL0     O 8406   6.780   1.230   3.752  0.6652  0.4984  0.3636
  804MOL0     C 8407   6.813   1.230   3.874  0.4213 -1.3357 -0.3338
  804MOL0     O 8408   6.888   1.138   3.927  0.0237  0.1197 -0.3278
  804MOL0     C 8409   6.941   1.035   3.855  0.2046  0.1602  0.4702
  804MOL0     C 8410   6.878   0.914   3.849  0.1847  0.4972 -0.0223
  804MOL0     C 8411   6.910   0.809   3.759  0.1027 -0.1669 -0.2275
  804MOL0     C 8412   7.026   0.827   3.682  0.4942  0.4259 -0.0465
  804MOL0     O 8413   7.059   0.723   3.600  0.4150  0.2794  0.9305
  804MOL0     C 8414   7.183   0.718   3.547 -0.2686  0.0677  0.6850
  804MOL0     C 8415   7.194   0.594   3.459  0.2312  0.9686 -0.6258
  804MOL0     C 8416   7.170   0.461   3.525 -0.8189  0.0575  0.2175
  804MOL0     C 8417   7.201   0.334   3.444 -0.1736  0.0738  0.7040
  804MOL0     C 8418   7.164   0.205   3.518 -0.0106  0.1965  0.0118
  804MOL0     C 8419   7.218   0.091   3.422  0.4066 -0.2849  0.8881
  804MOL0     C 8420   7.098   0.051   3.331 -0.7937  0.2414 -0.5382
  804MOL0     C 8421   7.122  -0.067   3.238 -0.4038 -0.4818 -0.6784
  804MOL0     N 8422   7.221  -0.021   3.131 -0.0603 -0.7348 -0.1822
  804MOL0     C 8423   7.347  -0.062   3.138  0.2656  0.0576 -0.6205
  804MOL0     C 8424   7.408   0.025   3.066  0.2490  0.0411  0.8502
  804MOL0     C 8425   7.554   0.019   3.056 -0.7110  1.0316  0.4179
  804MOL0     C 8426   7.622   0.102   3.162  0.1371  0.9099  0.3721
  804MOL0     C 8427   7.758   0.145   3.123 -0.4435  0.2717 -0.3435
  804MOL0     C 8428   7.858   0.036   3.100 -1.1780  0.4446 -0.2743
  804MOL0     O 8429   7.910  -0.014   3.224  0.5377 -0.2586 -0.0251
  804MOL0     C 8430   7.906  -0.160   3.225 -0.1011  0.2703  0.5046
  804MOL0     C 8431   7.997  -0.236   3.158 -0.5464  0.0818 -0.9854
  804MOL0     C 8432   7.991  -0.381   3.178 -0.4981  0.0928 -0.1613
  804MOL0     C 8433   8.079  -0.459   3.079  0.1924 -0.3574 -0.6357
  804MOL0     C 8434   7.897  -0.441   3.263  0.6073  0.6252  0.3724
  804MOL0     C 8435   7.884  -0.595   3.282  0.3785 -0.5531 -0.9232
  804MOL0     O 8436   7.958  -0.687   3.211 -0.1495 -0.2615  0.3313
  804MOL0     C 8437   7.909  -0.815   3.212 -0.4375 -1.1370  0.8160
  804MOL0     C 8438   8.007  -0.913   3.234 -0.7124 -0.2425 -0.2831
  804MOL0     C 8439   7.982  -1.040   3.270  0.4657  0.7876  0.7127
  804MOL0     C 8440   7.850  -1.083   3.262 -0.0043 -0.0389 -0.6949
  804MOL0     O 8441   7.830  -1.215   3.297  0.6911 -0.3038  0.1125
  804MOL0     C 8442   7.716  -1.279   3.242  0.5726  1.1873  0.2881
  804MOL0     C 8443   7.748  -1.426   3.240  0.6439 -0.5659 -0.6274
  804MOL0     C 8444   7.612  -1.500   3.229 -0.0447  0.1795  0.5644
  804MOL0     C 8445   7.621  -1.651   3.214  1.1988 -0.0954 -0.6437
  804MOL0     C 8446   7.694  -1.721   3.331 -0.2613 -0.4397 -0.0220
  804MOL0     C 8447   7.666  -1.874   3.319  0.1869  0.3579  0.3741
  804MOL0     C 8448   7.752  -1.945   3.210  0.7608  0.0747  0.5708
  804MOL0     C 8449   7.782  -2.084   3.234  0.4819  0.3723  0.0774
  804MOL0    Cl 8450   7.624  -2.174   3.214 -0.0052  0.3778 -0.6806
  804MOL0     C 8451   7.743  -0.995   3.233 -0.6658 -1.3951  1.0755
  804MOL0     C 8452   7.777  -0.857   3.208 -0.9871 -0.3628  0.2699
  804MOL0     O 8453   7.793  -0.626   3.368 -0.2381 -0.1850  0.1748
  804MOL0     C 8454   7.804  -0.354   3.332  0.2913 -0.5947  0.0459
  804MOL0     C 8455   7.819  -0.217   3.310  1.1062  0.5546  1.2089
  804MOL0     N 8456   7.308   0.111   2.999 -0.6597 -0.3206 -0.1824
  804MOL0     N 8457   7.200   0.080   3.039 -0.4478  0.3433  0.0288
  804MOL0     C 8458   7.100   0.952   3.692 -0.2144  1.4956 -0.4672
  804MOL0     C 8459   7.058   1.053   3.775 -0.7648 -0.4578  0.2911
  804MOL0     C 8460   6.775   1.351   3.953  0.3000 -0.6527 -0.3016
  804MOL0     C 8461   6.671   1.432   3.917 -0.1466 -0.4056 -0.6581
  804MOL0     C 8462   6.626   1.533   3.999 -0.0335  0.1132  0.3310
  804MOL0     C 8463   6.686   1.558   4.119 -0.2738 -1.3032  0.2682
  804MOL0     O 8464   6.633   1.653   4.193  0.3709 -1.1375  0.3638
  804MOL0     C 8465   6.612   1.778   4.123 -0.2550  0.7416  0.9144
  804MOL0     C 8466   6.607   1.871   4.243 -0.7147  0.3437  0.1713
  804MOL0     C 8467   6.735   1.876   4.315 -0.0287  0.4806 -1.0034
  804MOL0     C 8468   6.734   1.948   4.455  0.4589  0.3179 -0.7728
  804MOL0     C 8469   6.734   2.087   4.434  0.4941  0.1335  0.0958
  804MOL0     C 8470   6.732   2.207   4.422  0.3109  0.4663 -0.5286
  804MOL0     C 8471   6.791   1.483   4.171  0.5016 -0.7902  0.1268
  804MOL0     C 8472   6.841   1.382   4.084  0.4265  0.1466 -0.4682
  804MOL0     H 8473   6.780   0.892   3.891 -0.2957 -0.0363 -1.3586
  804MOL0     H 8474   6.840   0.728   3.742  1.3145 -0.8761 -2.0440
  804MOL0     H 8475   7.208   0.816   3.506 -1.5573  0.3538  0.5311
  804MOL0     H 8476   7.254   0.712   3.629  1.9001  3.3679 -0.7597
  804MOL0     H 8477   7.133   0.609   3.369 -1.5205 -0.3053  0.2871
  804MOL0     H 8478   7.296   0.597   3.421  0.9678  1.8685  1.3118
  804MOL0     H 8479   7.223   0.461   3.621 -0.9484  0.1378  0.2906
  804MOL0     H 8480   7.064   0.442   3.545  0.1854 -5.3507  2.1035
  804MOL0     H 8481   7.151   0.329   3.347  2.8777  1.9651 -1.1598
  804MOL0     H 8482   7.307   0.329   3.418 -0.6070 -4.4815 -1.0652
  804MOL0     H 8483   7.216   0.203   3.614  0.2420 -0.4583 -0.1311
  804MOL0     H 8484   7.058   0.187   3.535 -0.1102  1.6928  1.1876
  804MOL0     H 8485   7.309   0.107   3.363 -0.3814 -0.7831 -0.5117
  804MOL0     H 8486   7.235  -0.004   3.475 -1.0600 -1.3634 -0.4908
  804MOL0     H 8487   7.009   0.017   3.385 -1.5683 -0.4112 -2.1632
  804MOL0     H 8488   7.059   0.144   3.287 -0.7650  1.7981  2.4689
  804MOL0     H 8489   7.025  -0.092   3.194 -1.5313  1.4283  0.5671
  804MOL0     H 8490   7.169  -0.150   3.291 -1.2030 -1.3315 -1.2691
  804MOL0     H 8491   7.389  -0.148   3.190 -0.6493  1.4143  2.6093
  804MOL0     H 8492   7.588  -0.085   3.055  1.6099  1.6695  2.6416
  804MOL0     H 8493   7.585   0.059   2.959 -1.0720 -4.2083 -2.2070
  804MOL0     H 8494   7.627   0.040   3.252 -2.2438  2.5724  1.7773
  804MOL0     H 8495   7.560   0.187   3.191  1.0134  0.8945  2.4814
  804MOL0     H 8496   7.797   0.213   3.199 -0.9274 -0.8730  0.9919
  804MOL0     H 8497   7.743   0.208   3.035 -0.3613 -0.4114 -0.8569
  804MOL0     H 8498   7.939   0.073   3.036 -0.5256  0.2088  0.4014
  804MOL0     H 8499   7.811  -0.050   3.051 -0.9126  0.3639 -0.3850
  804MOL0     H 8500   8.073  -0.185   3.099  0.2060 -1.2400 -1.1827
  804MOL0     H 8501   8.164  -0.401   3.040  2.2495 -2.6993  0.0852
  804MOL0     H 8502   8.126  -0.545   3.127  2.7984  2.3135  2.0010
  804MOL0     H 8503   8.008  -0.501   3.008  2.2282  0.1850 -3.1623
  804MOL0     H 8504   8.111  -0.884   3.246 -0.3962 -1.0943 -0.8365
  804MOL0     H 8505   8.059  -1.113   3.293  0.7383  1.0185  0.5440
  804MOL0     H 8506   7.627  -1.249   3.298  1.9431  0.2467  3.1559
  804MOL0     H 8507   7.703  -1.240   3.140  4.7635  1.3127 -0.3746
  804MOL0     H 8508   7.815  -1.445   3.156  1.8005  2.6927 -0.6204
  804MOL0     H 8509   7.802  -1.451   3.332 -0.6164 -1.2836 -0.0655
  804MOL0     H 8510   7.562  -1.465   3.138 -1.4817 -2.2285  0.3587
  804MOL0     H 8511   7.557  -1.478   3.321  2.8796  1.8640  2.0713
  804MOL0     H 8512   7.522  -1.697   3.210  0.7609  0.6956  0.6009
  804MOL0     H 8513   7.679  -1.669   3.123 -0.2558  2.3080 -2.1542
  804MOL0     H 8514   7.652  -1.686   3.426  1.1284  1.8017 -0.1918
  804MOL0     H 8515   7.797  -1.689   3.320 -0.8013  0.7730 -2.1569
  804MOL0     H 8516   7.686  -1.915   3.418 -0.1826 -0.7355  0.0077
  804MOL0     H 8517   7.559  -1.880   3.297 -0.0841 -0.4739  1.7729
  804MOL0     H 8518   7.836  -1.877   3.194 -0.1090  1.6088  2.1895
  804MOL0     H 8519   7.709  -1.937   3.110  3.1044 -1.6005 -0.6681
  804MOL0     H 8520   7.814  -2.100   3.338  1.8655  3.8734  0.3426
  804MOL0     H 8521   7.856  -2.121   3.163  1.9211  2.4781  0.3940
  804MOL0     H 8522   7.638  -1.013   3.213 -1.0738  2.6107 -1.6687
  804MOL0     H 8523   7.701  -0.783   3.188 -1.5433 -1.2117 -0.8404
  804MOL0     H 8524   7.726  -0.389   3.398  0.4114 -1.6971 -0.3714
  804MOL0     H 8525   7.757  -0.146   3.364  0.1483  0.0318  0.8184
  804MOL0     H 8526   7.187   0.966   3.629 -1.3293 -1.6467 -3.0222
  804MOL0     H 8527   7.113   1.146   3.788 -0.9676 -0.7057  4.0403
  804MOL0     H 8528   6.617   1.420   3.824  1.9139 -0.8524 -1.8502
  804MOL0     H 8529   6.555   1.597   3.948  1.7214  0.5237 -1.7473
  804MOL0     H 8530   6.693   1.805   4.056  0.3653  1.0963  1.7829
  804MOL0     H 8531   6.515   1.784   4.072  0.3896  2.5801 -0.1738
  804MOL0     H 8532   6.524   1.832   4.303 -0.7603 -0.3086 -0.3127
  804MOL0     H 8533   6.593   1.969   4.196  0.8789  0.2661 -0.5021
  804MOL0     H 8534   6.812   1.914   4.247  0.2764 -1.5824 -1.8730
  804MOL0     H 8535   6.761   1.773   4.342 -0.6630  0.0191 -2.0794
  804MOL0     H 8536   6.820   1.912   4.512 -1.0031 -1.3349  0.5497
  804MOL0     H 8537   6.638   1.931   4.505  0.3483 -2.3779 -1.7287
  804MOL0     H 8538   6.730   2.313   4.409  4.4719  0.9308  1.0351
  804MOL0     H 8539   6.816   1.511   4.273 -2.0463  0.6222  0.4479
  804MOL0     H 8540   6.933   1.332   4.112  0.5575  1.5324  1.8321
  805MOL0     O 8541   8.534   5.892  11.309  0.2214 -0.2182 -0.0852
  805MOL0     C 8542   8.538   5.925  11.424 -1.1671 -0.1231 -0.1372
  805MOL0     O 8543   8.583   5.845  11.524 -0.1944 -0.6397  0.0537
  805MOL0     C 8544   8.603   5.707  11.517  1.2450 -0.1536 -0.0712
  805MOL0     C 8545   8.701   5.647  11.599 -0.5093 -0.6486  0.1592
  805MOL0     C 8546   8.720   5.509  11.592  0.0422  0.1735  0.3720
  805MOL0     C 8547   8.632   5.428  11.520  0.3503  0.0772 -1.1293
  805MOL0     O 8548   8.656   5.296  11.531 -0.6498  0.0878 -0.4087
  805MOL0     C 8549   8.557   5.206  11.552  0.8497  0.8686 -0.0355
  805MOL0     C 8550   8.476   5.208  11.685 -0.6145 -0.3839  0.5685
  805MOL0     C 8551   8.369   5.099  11.697 -0.1188 -0.2280 -0.6126
  805MOL0     C 8552   8.301   5.106  11.838  0.2426  0.0546 -0.4652
  805MOL0     C 8553   8.184   5.005  11.832 -0.1937 -0.0350  0.0323
  805MOL0     C 8554   8.111   4.980  11.967 -0.5025 -0.1503 -0.6191
  805MOL0     C 8555   7.988   4.883  11.942 -0.3455  0.2834  0.1835
  805MOL0     C 8556   7.951   4.801  12.067  0.5018 -0.1130  0.7774
  805MOL0     N 8557   7.877   4.889  12.157 -0.6151  0.5406 -0.0941
  805MOL0     C 8558   7.758   4.944  12.136 -0.4065 -0.8096  0.3856
  805MOL0     C 8559   7.740   5.038  12.227 -0.7051 -0.0480 -0.6554
  805MOL0     C 8560   7.623   5.119  12.237 -0.0708  0.3592  1.1334
  805MOL0     C 8561   7.487   5.056  12.180 -0.1389 -0.2290  0.1498
  805MOL0     C 8562   7.367   5.152  12.211  0.1542  0.5904 -0.2917
  805MOL0     C 8563   7.376   5.289  12.142  0.5410  0.2389 -0.0318
  805MOL0     O 8564   7.235   5.333  12.148 -0.6561  0.8400  0.1965
  805MOL0     C 8565   7.212   5.455  12.090 -0.2987  0.7048  1.1303
  805MOL0     C 8566   7.301   5.532  12.010  0.6338  0.5339  0.4659
  805MOL0     C 8567   7.258   5.653  11.949  0.3045 -0.0932  0.6101
  805MOL0     C 8568   7.358   5.739  11.883  0.1340  0.0294  0.1389
  805MOL0     C 8569   7.124   5.697  11.964  0.3592  0.9185 -0.1032
  805MOL0     C 8570   7.074   5.833  11.922 -0.6319  0.0594 -0.8677
  805MOL0     O 8571   6.944   5.828  11.876  0.1469  0.1171  0.9764
  805MOL0     C 8572   6.902   5.918  11.785  0.2480  0.1200  0.6686
  805MOL0     C 8573   6.766   5.921  11.778 -0.1718 -0.3932 -0.7679
  805MOL0     C 8574   6.687   6.001  11.690  0.3269 -0.8458 -0.8910
  805MOL0     C 8575   6.759   6.087  11.613  1.2035  0.2442 -0.0936
  805MOL0     O 8576   6.701   6.160  11.515  0.2539 -0.2680 -0.1457
  805MOL0     C 8577   6.565   6.190  11.545  0.8967 -1.4209 -0.6565
  805MOL0     C 8578   6.529   6.325  11.474  0.3601  0.5496  0.4542
  805MOL0     C 8579   6.631   6.436  11.490 -1.3722 -0.2149  0.3669
  805MOL0     C 8580   6.580   6.553  11.401 -0.0021 -0.1301  0.5431
  805MOL0     C 8581   6.679   6.672  11.411  0.3843  0.7058  0.3736
  805MOL0     C 8582   6.636   6.790  11.331  0.3164  0.3542 -0.1269
  805MOL0     C 8583   6.647   6.776  11.172 -0.4693 -0.0969 -0.1027
  805MOL0     C 8584   6.633   6.904  11.101  0.1559  0.1331 -0.1457
  805MOL0    Cl 8585   6.773   7.013  11.129 -0.3540 -0.4151  0.0231
  805MOL0     C 8586   6.901   6.098  11.618 -0.2367  0.0347  0.2906
  805MOL0     C 8587   6.974   6.005  11.702 -0.2544 -0.2971  0.7283
  805MOL0     O 8588   7.138   5.933  11.945  0.4679 -0.1868 -0.3375
  805MOL0     C 8589   7.036   5.622  12.034 -0.9621  0.3559  0.8567
  805MOL0     C 8590   7.084   5.507  12.101  0.6152 -0.1492 -0.4276
  805MOL0     N 8591   7.841   5.026  12.319  0.8150  0.6356 -0.1355
  805MOL0     N 8592   7.915   4.925  12.283  0.3923  0.1857  0.7795
  805MOL0     C 8593   8.540   5.483  11.435 -0.2251 -0.2210  0.5222
  805MOL0     C 8594   8.518   5.621  11.435 -0.0508 -0.9319 -1.1408
  805MOL0     C 8595   8.501   6.067  11.458  0.4736  0.9530 -0.7173
  805MOL0     C 8596   8.525   6.121  11.581 -0.4070 -0.6685 -0.6294
  805MOL0     C 8597   8.502   6.256  11.604 -0.5964 -0.6062  1.0014
  805MOL0     C 8598   8.430   6.330  11.510  0.2290  0.5972  0.6855
  805MOL0     O 8599   8.401   6.464  11.524 -0.4301  0.1809  0.6791
  805MOL0     C 8600   8.452   6.539  11.632  0.4535  0.2573  0.3085
  805MOL0     C 8601   8.393   6.675  11.601 -0.0771  0.2437 -0.1920
  805MOL0     C 8602   8.372   6.776  11.718 -0.5142  0.1960 -0.5581
  805MOL0     C 8603   8.368   6.915  11.658  0.5097  1.0514 -0.4908
  805MOL0     C 8604   8.353   7.010  11.763  0.1491 -0.8073 -0.5072
  805MOL0     C 8605   8.333   7.094  11.848  0.0820 -0.7178  0.1451
  805MOL0     C 8606   8.390   6.265  11.392 -0.9057 -0.2345 -0.0158
  805MOL0     C 8607   8.426   6.136  11.360 -0.6609  0.2197  0.5748
  805MOL0     H 8608   8.755   5.719  11.659 -0.5236  0.4173 -1.0530
  805MOL0     H 8609   8.789   5.449  11.652 -0.7063  0.3246  1.4071
  805MOL0     H 8610   8.490   5.217  11.465 -0.2305  1.3645  0.8318
  805MOL0     H 8611   8.593   5.103  11.543  0.1294  0.7188 -1.5768
  805MOL0     H 8612   8.542   5.198  11.772  1.2736  3.4458 -0.2025
  805MOL0     H 8613   8.417   5.301  11.689 -0.3170 -0.0115 -1.9072
  805MOL0     H 8614   8.302   5.129  11.616  1.2229  3.2990 -0.6138
  805MOL0     H 8615   8.412   4.999  11.689  0.7526 -0.0352  1.0966
  805MOL0     H 8616   8.360   5.092  11.929 -0.8678  0.3591  0.3196
  805MOL0     H 8617   8.251   5.203  11.851  0.7613  0.1328  1.1315
  805MOL0     H 8618   8.099   5.042  11.774  0.5078  0.6824 -0.5390
  805MOL0     H 8619   8.218   4.907  11.798  0.0374  0.2617 -0.5981
  805MOL0     H 8620   8.186   4.939  12.036 -0.9003 -1.0448 -0.7049
  805MOL0     H 8621   8.069   5.064  12.022  0.3909 -0.4668  0.6040
  805MOL0     H 8622   7.903   4.943  11.908  0.6145  1.3135 -0.5169
  805MOL0     H 8623   8.006   4.806  11.866 -0.3294  1.6955 -1.3135
  805MOL0     H 8624   8.042   4.758  12.111  2.0089  1.1040 -0.9667
  805MOL0     H 8625   7.887   4.714  12.048 -1.4343  1.0539  1.7592
  805MOL0     H 8626   7.690   4.923  12.053  0.6330  2.4592 -1.4544
  805MOL0     H 8627   7.614   5.141  12.344  2.3317 -1.9360  1.9087
  805MOL0     H 8628   7.642   5.209  12.179 -0.7193 -1.0756 -1.4699
  805MOL0     H 8629   7.462   4.958  12.222  2.3455 -0.0945  2.1537
  805MOL0     H 8630   7.501   5.064  12.071 -0.8133  3.8938  0.2000
  805MOL0     H 8631   7.344   5.160  12.318  0.8364  0.9947 -0.1715
  805MOL0     H 8632   7.278   5.113  12.161  1.9531 -3.2607 -0.8265
  805MOL0     H 8633   7.413   5.284  12.040  2.8096 -1.7139  0.8162
  805MOL0     H 8634   7.443   5.361  12.189  1.0631 -0.6535  0.6157
  805MOL0     H 8635   7.407   5.510  12.007  0.7604  1.1244  0.5346
  805MOL0     H 8636   7.342   5.843  11.912 -2.7007 -0.1872 -0.4181
  805MOL0     H 8637   7.462   5.712  11.905 -0.9471 -3.4194  1.8553
  805MOL0     H 8638   7.341   5.734  11.775 -0.0185  1.7122  0.0673
  805MOL0     H 8639   6.725   5.855  11.854  0.4387  0.8931  0.7403
  805MOL0     H 8640   6.579   5.998  11.684  0.2268  1.9694 -2.0227
  805MOL0     H 8641   6.493   6.114  11.514  0.1548 -0.6125 -0.9694
  805MOL0     H 8642   6.563   6.222  11.649  1.8434  0.9352 -1.2985
  805MOL0     H 8643   6.509   6.309  11.368 -1.3267 -2.1214  1.0992
  805MOL0     H 8644   6.436   6.359  11.519  2.2333  1.9783  3.5890
  805MOL0     H 8645   6.731   6.400  11.464 -1.1768 -1.2797  2.4362
  805MOL0     H 8646   6.653   6.468  11.592  0.6483  2.0827 -0.7029
  805MOL0     H 8647   6.572   6.516  11.298 -0.7375 -0.6682  0.7873
  805MOL0     H 8648   6.480   6.574  11.439 -0.3522 -2.1959  0.8589
  805MOL0     H 8649   6.779   6.633  11.386  0.2675 -0.4473  1.5748
  805MOL0     H 8650   6.678   6.701  11.517 -0.7685  3.1950 -0.2506
  805MOL0     H 8651   6.535   6.822  11.360 -0.5165 -1.5919 -0.6552
  805MOL0     H 8652   6.704   6.870  11.360 -1.1052  1.1355  1.1824
  805MOL0     H 8653   6.576   6.703  11.133  2.5299 -1.7308 -3.0772
  805MOL0     H 8654   6.747   6.733  11.157 -0.0930  0.5968  0.3193
  805MOL0     H 8655   6.541   6.944  11.144  0.7604  0.2090  1.1122
  805MOL0     H 8656   6.617   6.886  10.994  2.5791 -2.3415 -0.2050
  805MOL0     H 8657   6.963   6.175  11.573  2.2139  0.1355  3.4605
  805MOL0     H 8658   7.082   6.012  11.695 -0.3814  0.1248 -2.5986
  805MOL0     H 8659   6.934   5.651  12.057  0.0059  1.8924  3.6860
  805MOL0     H 8660   7.012   5.459  12.167 -1.2732  1.9923 -0.8001
  805MOL0     H 8661   8.487   5.408  11.377  0.7600  0.1948 -0.9685
  805MOL0     H 8662   8.436   5.679  11.394 -0.8768  1.6127  3.3647
  805MOL0     H 8663   8.576   6.060  11.654  0.4601  1.9992  1.1360
  805MOL0     H 8664   8.515   6.289  11.706  0.0715  0.7114  0.5195
  805MOL0     H 8665   8.412   6.489  11.721  1.6565 -1.1953  0.0646
  805MOL0     H 8666   8.560   6.547  11.647  0.4322  1.7448 -0.1658
  805MOL0     H 8667   8.296   6.669  11.551  1.2111  0.7660 -2.8919
  805MOL0     H 8668   8.453   6.730  11.528 -2.1317  3.0454  0.0205
  805MOL0     H 8669   8.464   6.772  11.777 -0.9996  0.0455  0.2116
  805MOL0     H 8670   8.281   6.762  11.777 -0.1575 -3.5367 -0.6455
  805MOL0     H 8671   8.283   6.914  11.589  1.1618 -0.6515 -1.3395
  805MOL0     H 8672   8.456   6.940  11.597 -1.9107  4.3549 -3.0231
  805MOL0     H 8673   8.327   7.167  11.925  1.3976 -0.3096 -0.1170
  805MOL0     H 8674   8.333   6.322  11.319 -1.8764 -0.1134  0.8226
  805MOL0     H 8675   8.394   6.071  11.279  2.4706 -0.5369 -0.1786
  806MOL0     O 8676   5.363   4.036   0.317  0.0494  0.5278  0.0238
  806MOL0     C 8677   5.350   3.913   0.296 -0.1901 -0.2369 -1.2741
  806MOL0     O 8678   5.403   3.851   0.184  0.4260  0.4005  0.1048
  806MOL0     C 8679   5.471   3.922   0.088  0.3804 -0.4008 -0.2263
  806MOL0     C 8680   5.608   3.910   0.089  0.6789  0.8092 -0.2985
  806MOL0     C 8681   5.695   3.986   0.008  0.1527  0.2937 -0.2090
  806MOL0     C 8682   5.636   4.084  -0.066  0.2172  0.8074 -0.0639
  806MOL0     O 8683   5.715   4.163  -0.144  0.5591 -0.1231 -0.3449
  806MOL0     C 8684   5.700   4.302  -0.116  0.3864  0.5487  0.1069
  806MOL0     C 8685   5.837   4.363  -0.139 -0.8608  1.2101 -0.3084
  806MOL0     C 8686   5.963   4.290  -0.072 -0.4627  0.8268  1.6172
  806MOL0     C 8687   6.098   4.362  -0.097  0.0388 -0.3048 -0.3317
  806MOL0     C 8688   6.149   4.344  -0.240 -0.2106  0.3896  0.6057
  806MOL0     C 8689   6.116   4.453  -0.341  0.8333  0.5346 -0.5231
  806MOL0     C 8690   6.152   4.411  -0.487  0.7884 -0.5164 -0.2675
  806MOL0     C 8691   6.107   4.529  -0.573  0.2428 -0.4460  0.4818
  806MOL0     N 8692   5.972   4.535  -0.640  0.5109  0.7511  0.3112
  806MOL0     C 8693   5.877   4.433  -0.645  0.4848 -0.5687 -0.1231
  806MOL0     C 8694   5.769   4.475  -0.707 -0.0341 -0.3876 -0.6952
  806MOL0     C 8695   5.644   4.413  -0.743  0.8054  0.1876 -0.4037
  806MOL0     C 8696   5.539   4.398  -0.629 -1.6733  0.0468  0.7979
  806MOL0     C 8697   5.417   4.321  -0.636  0.3889 -0.1083  0.7778
  806MOL0     C 8698   5.323   4.352  -0.749 -0.3718  0.2640 -0.1112
  806MOL0     O 8699   5.369   4.307  -0.879  0.1054 -0.4253  0.4349
  806MOL0     C 8700   5.304   4.376  -0.980  0.8375  0.1044  0.5750
  806MOL0     C 8701   5.171   4.452  -0.961 -0.5051  0.9812 -0.2406
  806MOL0     C 8702   5.114   4.516  -1.066 -0.4026  0.2050 -0.4030
  806MOL0     C 8703   4.989   4.583  -1.029 -0.3023 -1.3660 -0.3126
  806MOL0     C 8704   5.169   4.498  -1.202  0.2989 -0.6827  0.1014
  806MOL0     C 8705   5.099   4.546  -1.329 -1.2688 -0.6458 -0.5631
  806MOL0     O 8706   5.171   4.548  -1.444  0.2542 -0.4347 -0.2519
  806MOL0     C 8707   5.114   4.615  -1.551 -0.0286  0.5617  0.5675
  806MOL0     C 8708   5.189   4.724  -1.601  0.3736 -0.5728  0.1341
  806MOL0     C 8709   5.143   4.789  -1.718 -0.9145  0.7326  0.1004
  806MOL0     C 8710   5.038   4.727  -1.795 -0.1129  0.2758 -0.1978
  806MOL0     O 8711   5.013   4.783  -1.916  0.4898 -1.3300  0.4781
  806MOL0     C 8712   5.029   4.924  -1.921  0.4943  0.1460 -0.4333
  806MOL0     C 8713   4.945   4.970  -2.041  0.3528 -0.0399 -0.7782
  806MOL0     C 8714   4.912   5.119  -2.015  0.0646 -0.2518  0.5835
  806MOL0     C 8715   5.030   5.215  -1.977  0.2033  0.5518  0.0559
  806MOL0     C 8716   4.971   5.353  -1.947  0.8600  0.1942 -0.1272
  806MOL0     C 8717   5.064   5.459  -1.893 -0.6882  0.5158 -0.8128
  806MOL0     C 8718   4.989   5.585  -1.837  0.5011 -0.1550  0.7688
  806MOL0     C 8719   5.086   5.694  -1.776 -0.2283 -0.4785 -0.3989
  806MOL0    Cl 8720   5.204   5.785  -1.899 -0.4544 -0.0087 -0.0485
  806MOL0     C 8721   4.970   4.612  -1.748 -0.2761  0.4799  0.3683
  806MOL0     C 8722   5.009   4.565  -1.627 -0.4547 -0.2791 -0.4833
  806MOL0     O 8723   4.991   4.603  -1.314  0.4655  0.0213 -0.4835
  806MOL0     C 8724   5.292   4.426  -1.219  0.1197 -0.0004  0.6397
  806MOL0     C 8725   5.357   4.364  -1.104 -0.0893  0.4285  1.1066
  806MOL0     N 8726   5.796   4.607  -0.748 -0.3417  0.2286 -0.3461
  806MOL0     N 8727   5.916   4.634  -0.708  0.0356  1.0340 -0.1274
  806MOL0     C 8728   5.497   4.096  -0.078  0.6460  0.3478 -0.2190
  806MOL0     C 8729   5.406   4.019   0.005 -0.3106 -0.1903 -0.3794
  806MOL0     C 8730   5.285   3.830   0.410  0.0119  0.3382  0.3298
  806MOL0     C 8731   5.228   3.898   0.517  0.6602 -0.6326  0.9971
  806MOL0     C 8732   5.189   3.819   0.625  0.5822  0.4810 -0.3682
  806MOL0     C 8733   5.216   3.682   0.646  0.9894 -0.3002 -0.0719
  806MOL0     O 8734   5.210   3.618   0.768 -0.2269  0.9409 -0.7182
  806MOL0     C 8735   5.121   3.672   0.870  0.7487  0.4470 -1.0238
  806MOL0     C 8736   4.978   3.622   0.856  0.4377 -0.0484  0.5053
  806MOL0     C 8737   4.867   3.697   0.926  0.2321  0.1605 -0.2044
  806MOL0     C 8738   4.861   3.669   1.089 -0.1897 -0.5385  1.0731
  806MOL0     C 8739   4.748   3.732   1.153 -0.7397  0.1917 -0.3628
  806MOL0     C 8740   4.648   3.788   1.184 -0.2432 -0.0746  0.1408
  806MOL0     C 8741   5.285   3.622   0.543 -1.1231 -0.2247  0.1898
  806MOL0     C 8742   5.321   3.692   0.426 -0.5823  0.2035  0.7246
  806MOL0     H 8743   5.663   3.851   0.162 -0.8404  1.0240  1.0627
  806MOL0     H 8744   5.804   3.983   0.007  0.2248  1.6909  0.5581
  806MOL0     H 8745   5.630   4.353  -0.184 -0.1344 -0.0075  0.2210
  806MOL0     H 8746   5.677   4.316  -0.010  1.3420 -1.1184  0.5746
  806MOL0     H 8747   5.844   4.370  -0.248 -0.7372 -1.3397 -0.5329
  806MOL0     H 8748   5.836   4.461  -0.092  4.8835  0.6897  1.6379
  806MOL0     H 8749   5.933   4.302   0.033 -1.0036  2.8396  1.2660
  806MOL0     H 8750   5.979   4.189  -0.111  1.1643  1.2746  1.0687
  806MOL0     H 8751   6.102   4.468  -0.068  2.9471 -0.1860 -0.8605
  806MOL0     H 8752   6.176   4.316  -0.036  2.5275  2.6048 -1.0596
  806MOL0     H 8753   6.256   4.321  -0.235 -0.5881 -2.1087 -0.9592
  806MOL0     H 8754   6.112   4.250  -0.280  0.3259  0.9486 -1.2915
  806MOL0     H 8755   6.009   4.466  -0.323  1.0419  0.4664  0.9017
  806MOL0     H 8756   6.171   4.546  -0.327  1.2638  0.6328 -2.5820
  806MOL0     H 8757   6.261   4.412  -0.482  0.8594  3.5211  1.0579
  806MOL0     H 8758   6.105   4.314  -0.505  0.8191 -0.7916  1.0402
  806MOL0     H 8759   6.184   4.531  -0.650 -1.3605  1.7169 -1.2267
  806MOL0     H 8760   6.126   4.625  -0.525  0.7529 -0.2772 -0.0447
  806MOL0     H 8761   5.891   4.338  -0.595  1.1037 -0.9228 -0.9381
  806MOL0     H 8762   5.586   4.463  -0.821  1.0558  1.8236  0.4130
  806MOL0     H 8763   5.664   4.310  -0.775 -3.4352 -0.9322  0.0372
  806MOL0     H 8764   5.537   4.500  -0.590  2.9935  0.4307  0.6164
  806MOL0     H 8765   5.592   4.349  -0.547 -1.0714 -0.1371  0.3116
  806MOL0     H 8766   5.354   4.351  -0.552 -0.1662  1.2171 -0.0692
  806MOL0     H 8767   5.424   4.212  -0.634 -6.8473 -1.0261  0.5487
  806MOL0     H 8768   5.306   4.460  -0.746 -1.1235  0.1534 -0.2090
  806MOL0     H 8769   5.235   4.296  -0.719 -0.3163  0.2760  0.0734
  806MOL0     H 8770   5.126   4.461  -0.863 -2.4156  1.0668 -1.0852
  806MOL0     H 8771   4.903   4.522  -1.058 -0.1939 -1.6122 -0.1301
  806MOL0     H 8772   4.976   4.608  -0.923 -1.6591 -1.5688 -0.4216
  806MOL0     H 8773   4.982   4.677  -1.084 -0.5250 -1.4612 -0.4440
  806MOL0     H 8774   5.271   4.771  -1.546  1.5404 -1.7379 -0.5689
  806MOL0     H 8775   5.211   4.865  -1.754  0.2302  0.1081  0.8723
  806MOL0     H 8776   4.988   4.963  -1.827  0.7613  0.1601 -0.3235
  806MOL0     H 8777   5.129   4.960  -1.944 -0.2907  1.7739 -1.4600
  806MOL0     H 8778   5.012   4.970  -2.127  2.3560  0.1889  0.7141
  806MOL0     H 8779   4.855   4.912  -2.065  0.8930 -0.8654 -0.8536
  806MOL0     H 8780   4.830   5.120  -1.943  1.6372  0.1813  2.4532
  806MOL0     H 8781   4.866   5.156  -2.107  0.0579 -0.7533  0.3832
  806MOL0     H 8782   5.086   5.191  -1.886 -1.7565  1.0619  1.4770
  806MOL0     H 8783   5.097   5.217  -2.063 -0.7429 -1.6104 -0.7877
  806MOL0     H 8784   4.883   5.341  -1.883  0.1308 -0.9965 -1.2996
  806MOL0     H 8785   4.918   5.393  -2.033 -0.6822  0.9790  1.1304
  806MOL0     H 8786   5.127   5.403  -1.823  1.1519  3.9491  0.5430
  806MOL0     H 8787   5.120   5.494  -1.980 -0.0539 -0.0444 -0.6413
  806MOL0     H 8788   4.923   5.538  -1.764 -0.6728 -0.1018 -0.2219
  806MOL0     H 8789   4.935   5.632  -1.920  1.4471 -1.4360 -0.6299
  806MOL0     H 8790   5.138   5.640  -1.697 -0.8078  0.4092  0.6181
  806MOL0     H 8791   5.030   5.771  -1.722 -1.3693  1.0121 -3.4947
  806MOL0     H 8792   4.892   4.572  -1.813 -0.2797 -1.9298  1.7460
  806MOL0     H 8793   4.973   4.473  -1.582  2.4052 -0.3165  2.1266
  806MOL0     H 8794   5.332   4.410  -1.318 -0.8755  1.6535 -0.0698
  806MOL0     H 8795   5.449   4.308  -1.116 -0.3101  0.0764  1.0548
  806MOL0     H 8796   5.451   4.163  -0.150 -0.9113  1.0392  1.3428
  806MOL0     H 8797   5.298   4.031   0.004 -0.4096 -0.7537  0.8932
  806MOL0     H 8798   5.222   4.004   0.537  1.6205 -0.4411  0.3676
  806MOL0     H 8799   5.118   3.875   0.686 -2.6113  0.7431 -3.9647
  806MOL0     H 8800   5.159   3.644   0.969 -1.8526 -3.7929 -0.9948
  806MOL0     H 8801   5.116   3.781   0.883  0.9412  0.3712 -0.2434
  806MOL0     H 8802   4.981   3.515   0.879 -0.0572  0.1730  1.6340
  806MOL0     H 8803   4.965   3.639   0.749  2.4240 -0.9059  0.0740
  806MOL0     H 8804   4.772   3.659   0.887 -0.1905 -1.0022  1.8325
  806MOL0     H 8805   4.867   3.804   0.904 -2.5405  0.5904  1.4008
  806MOL0     H 8806   4.952   3.702   1.140 -0.6212  1.2639  0.7554
  806MOL0     H 8807   4.849   3.561   1.101 -4.7959 -0.7184 -2.3039
  806MOL0     H 8808   4.558   3.834   1.219  1.4065  4.1815 -0.5626
  806MOL0     H 8809   5.320   3.522   0.568 -1.3719  0.3840  3.4584
  806MOL0     H 8810   5.383   3.627   0.366  1.4654 -1.7741  4.6803
  807MOL0     O 8811   0.660   7.265   5.937 -0.8486 -0.0576 -0.4686
  807MOL0     C 8812   0.688   7.382   5.905 -0.1921  0.4751 -0.5106
  807MOL0     O 8813   0.616   7.467   5.821  0.5596  0.3496 -1.2233
  807MOL0     C 8814   0.503   7.425   5.760  1.3932  0.3390  0.3040
  807MOL0     C 8815   0.399   7.522   5.757  0.6941  0.7777 -0.6770
  807MOL0     C 8816   0.286   7.495   5.673  0.5105 -0.6994  1.3266
  807MOL0     C 8817   0.272   7.369   5.601 -0.1229  0.3134 -0.4500
  807MOL0     O 8818   0.161   7.326   5.532  0.6993 -0.4050  0.1193
  807MOL0     C 8819   0.035   7.370   5.582  0.1033 -0.7470  0.6130
  807MOL0     C 8820  -0.069   7.259   5.589 -0.5612 -0.4516 -0.5738
  807MOL0     C 8821  -0.113   7.194   5.459  0.9634 -0.1581  0.2272
  807MOL0     C 8822  -0.229   7.094   5.478 -1.0175  0.4287 -0.6820
  807MOL0     C 8823  -0.196   6.970   5.558 -0.1867 -0.5935 -0.9283
  807MOL0     C 8824  -0.061   6.899   5.528  0.0240  1.3079  0.4018
  807MOL0     C 8825  -0.053   6.764   5.591 -0.0079 -1.3679 -1.0139
  807MOL0     C 8826   0.068   6.683   5.546 -0.7838 -0.3805 -0.5532
  807MOL0     N 8827   0.046   6.583   5.437  0.0441 -0.2199  1.1880
  807MOL0     C 8828  -0.031   6.466   5.438 -0.9447 -0.9970  0.1618
  807MOL0     C 8829  -0.054   6.433   5.314  0.0288  0.5435  0.4170
  807MOL0     C 8830  -0.148   6.326   5.288 -0.1968 -0.0348 -0.3452
  807MOL0     C 8831  -0.103   6.251   5.159 -0.1061  0.4172 -0.3822
  807MOL0     C 8832  -0.166   6.105   5.167  0.0947  0.1472  0.1035
  807MOL0     C 8833  -0.127   6.033   5.033  0.3411 -0.7129 -0.6796
  807MOL0     O 8834  -0.163   5.895   5.047  0.3896  0.0962 -0.1176
  807MOL0     C 8835  -0.198   5.820   4.936 -0.2640  0.0986 -1.3594
  807MOL0     C 8836  -0.173   5.863   4.811 -0.3949 -0.1769 -0.1504
  807MOL0     C 8837  -0.225   5.799   4.692 -0.7536  0.6080 -0.6218
  807MOL0     C 8838  -0.196   5.870   4.563 -0.2939 -0.7645  0.2314
  807MOL0     C 8839  -0.312   5.683   4.715 -0.2052 -0.8932  0.0506
  807MOL0     C 8840  -0.381   5.593   4.613  0.5331 -0.7453  0.9766
  807MOL0     O 8841  -0.345   5.629   4.482 -0.6985 -0.3967  0.4034
  807MOL0     C 8842  -0.383   5.551   4.381 -0.0038 -1.1634  1.3478
  807MOL0     C 8843  -0.285   5.534   4.279  0.5298  0.0403 -0.0289
  807MOL0     C 8844  -0.309   5.465   4.164  1.2371 -0.1339  0.5422
  807MOL0     C 8845  -0.428   5.391   4.155 -0.5169  0.2307 -0.0400
  807MOL0     O 8846  -0.446   5.327   4.035 -0.7226  0.2309 -0.2558
  807MOL0     C 8847  -0.532   5.214   4.028  0.0712  0.2894 -0.0432
  807MOL0     C 8848  -0.494   5.101   4.123 -0.0135  0.2237  0.9075
  807MOL0     C 8849  -0.573   4.970   4.106  0.1665 -0.0815  0.6584
  807MOL0     C 8850  -0.594   4.892   4.238  0.2522 -0.4613  0.6631
  807MOL0     C 8851  -0.706   4.788   4.223 -0.8563 -0.9227 -0.8098
  807MOL0     C 8852  -0.664   4.689   4.116  0.1869  0.7287 -0.5837
  807MOL0     C 8853  -0.756   4.566   4.108  0.6206  0.0728  0.2670
  807MOL0     C 8854  -0.718   4.463   4.000 -1.0703 -0.0885 -0.0820
  807MOL0    Cl 8855  -0.586   4.352   4.045 -0.0501  0.3470  0.6347
  807MOL0     C 8856  -0.520   5.398   4.260  0.3123 -0.5829 -0.6836
  807MOL0     C 8857  -0.504   5.489   4.372 -0.3483  0.0717 -0.3101
  807MOL0     O 8858  -0.440   5.501   4.644  0.0891  0.2134  0.4320
  807MOL0     C 8859  -0.330   5.637   4.846  0.2841 -0.0760  0.9774
  807MOL0     C 8860  -0.276   5.703   4.946  0.1152  0.3674  0.0310
  807MOL0     N 8861   0.002   6.531   5.241  1.0918  0.1198 -0.0273
  807MOL0     N 8862   0.070   6.623   5.309 -0.4358  0.0492 -0.3898
  807MOL0     C 8863   0.377   7.275   5.608 -0.1075 -0.8631 -0.1787
  807MOL0     C 8864   0.493   7.305   5.692  0.4229 -0.4346 -0.8358
  807MOL0     C 8865   0.826   7.429   5.939 -0.1654 -0.8510  0.1961
  807MOL0     C 8866   0.889   7.378   6.063 -0.2582 -1.1069  0.1963
  807MOL0     C 8867   1.018   7.436   6.092  0.5016  0.3284  0.8939
  807MOL0     C 8868   1.077   7.536   6.009  0.2905  0.2539  0.1118
  807MOL0     O 8869   1.193   7.575   6.062  0.5511 -0.6442  0.4999
  807MOL0     C 8870   1.247   7.698   6.008 -0.2819  0.0048  0.1808
  807MOL0     C 8871   1.347   7.776   6.092 -0.6427 -0.6796 -0.0262
  807MOL0     C 8872   1.480   7.710   6.076 -0.3652  0.1710  0.7306
  807MOL0     C 8873   1.596   7.797   6.120 -0.8760 -0.9102 -1.4735
  807MOL0     C 8874   1.649   7.895   6.030  0.7054 -0.2213  0.3205
  807MOL0     C 8875   1.692   7.978   5.953  1.0029  0.6744 -0.0487
  807MOL0     C 8876   1.020   7.566   5.887 -0.1537  0.4947  0.2270
  807MOL0     C 8877   0.898   7.520   5.851 -0.3524  0.3838  0.1721
  807MOL0     H 8878   0.408   7.622   5.798 -0.6406  0.8355 -0.4857
  807MOL0     H 8879   0.223   7.583   5.665  1.9294  0.3681  1.3307
  807MOL0     H 8880   0.047   7.411   5.683  1.5914 -0.7969  0.4800
  807MOL0     H 8881  -0.000   7.457   5.527 -0.3887 -2.1280 -1.3558
  807MOL0     H 8882  -0.034   7.190   5.665 -0.3383  2.3900  2.0984
  807MOL0     H 8883  -0.158   7.311   5.625 -1.4417 -2.4883  0.3368
  807MOL0     H 8884  -0.158   7.271   5.397 -1.7653 -1.8897 -0.1252
  807MOL0     H 8885  -0.027   7.138   5.420  1.6699  1.9767 -1.4459
  807MOL0     H 8886  -0.324   7.117   5.527 -0.5255 -1.5579  1.3788
  807MOL0     H 8887  -0.247   7.062   5.375 -2.0214 -0.8406 -0.1447
  807MOL0     H 8888  -0.188   7.009   5.660  2.8305 -0.3128 -1.1767
  807MOL0     H 8889  -0.272   6.892   5.552  0.1037 -1.1984  1.9476
  807MOL0     H 8890  -0.059   6.881   5.420 -4.0382  2.1658  0.0220
  807MOL0     H 8891   0.030   6.954   5.555  0.8635 -1.2325  3.3242
  807MOL0     H 8892  -0.059   6.784   5.699 -2.6545  0.8636 -1.4783
  807MOL0     H 8893  -0.147   6.712   5.571  0.4546 -2.8570  0.3906
  807MOL0     H 8894   0.106   6.619   5.626  0.5036 -1.7218 -2.1644
  807MOL0     H 8895   0.146   6.753   5.515 -1.7156  0.1388 -1.8199
  807MOL0     H 8896  -0.065   6.417   5.529 -1.8261  1.9982  1.5698
  807MOL0     H 8897  -0.153   6.251   5.368 -0.2762 -2.4307 -2.4407
  807MOL0     H 8898  -0.245   6.374   5.274 -0.6019 -1.1704 -1.7015
  807MOL0     H 8899   0.007   6.250   5.154  0.1138 -0.2997  2.8399
  807MOL0     H 8900  -0.141   6.307   5.073 -2.1646  1.2208  0.9827
  807MOL0     H 8901  -0.275   6.098   5.175  0.2070 -0.8150  0.9873
  807MOL0     H 8902  -0.120   6.063   5.257  1.2783  0.7612 -0.1863
  807MOL0     H 8903  -0.022   6.043   5.007  1.0556 -2.7000  1.1955
  807MOL0     H 8904  -0.177   6.099   4.961  0.2678 -0.3355 -0.2863
  807MOL0     H 8905  -0.115   5.953   4.796  1.3843 -0.9392  1.7381
  807MOL0     H 8906  -0.127   5.809   4.504  0.5089  1.0826 -0.8407
  807MOL0     H 8907  -0.282   5.865   4.496  0.3795 -1.3239 -0.6129
  807MOL0     H 8908  -0.156   5.972   4.569  0.1274 -0.6995 -2.3748
  807MOL0     H 8909  -0.190   5.587   4.286  1.2963 -1.3474  0.6974
  807MOL0     H 8910  -0.231   5.471   4.089  2.3459  1.4782  1.7329
  807MOL0     H 8911  -0.634   5.248   4.049  0.3040  1.1182 -0.2202
  807MOL0     H 8912  -0.546   5.181   3.924 -0.4993 -0.4755  0.2597
  807MOL0     H 8913  -0.386   5.081   4.130 -0.6891 -5.1433  0.0419
  807MOL0     H 8914  -0.509   5.140   4.224 -1.3266 -2.9498  2.0314
  807MOL0     H 8915  -0.512   4.898   4.050 -0.3193 -0.5034  0.6580
  807MOL0     H 8916  -0.670   4.978   4.054 -0.7798  2.3074  2.6363
  807MOL0     H 8917  -0.505   4.832   4.260 -0.2062 -1.4826 -0.1753
  807MOL0     H 8918  -0.613   4.967   4.315  3.6138  0.7399  0.4548
  807MOL0     H 8919  -0.801   4.839   4.204 -2.0024 -1.9944  1.6349
  807MOL0     H 8920  -0.720   4.740   4.321  2.8079  2.4483  1.6726
  807MOL0     H 8921  -0.667   4.735   4.017 -1.6690  1.0247 -0.4254
  807MOL0     H 8922  -0.566   4.645   4.136  0.4787  0.4320 -2.4400
  807MOL0     H 8923  -0.858   4.599   4.085  1.2370  1.5749 -0.4573
  807MOL0     H 8924  -0.760   4.522   4.208  1.5312  3.1369  1.7726
  807MOL0     H 8925  -0.676   4.518   3.915 -2.2304 -0.6862 -1.0722
  807MOL0     H 8926  -0.806   4.412   3.958  0.4679 -2.6989 -0.3025
  807MOL0     H 8927  -0.620   5.355   4.259 -0.4784  1.1854 -0.6459
  807MOL0     H 8928  -0.582   5.508   4.446  0.5282  0.3361  0.5596
  807MOL0     H 8929  -0.387   5.547   4.866 -3.0164  1.1519 -1.7245
  807MOL0     H 8930  -0.305   5.656   5.040 -0.8736  0.8434 -0.0205
  807MOL0     H 8931   0.354   7.185   5.551 -0.7400 -0.2835 -0.8592
  807MOL0     H 8932   0.573   7.235   5.714 -0.1147  0.0649  3.3715
  807MOL0     H 8933   0.834   7.308   6.126  0.8871 -3.8149 -1.6344
  807MOL0     H 8934   1.066   7.397   6.182  0.1796  0.1158  0.9769
  807MOL0     H 8935   1.285   7.680   5.907 -0.7329 -1.4918  0.2520
  807MOL0     H 8936   1.159   7.762   5.997 -0.4682 -0.3087 -0.1455
  807MOL0     H 8937   1.317   7.780   6.197 -0.8532  0.4003 -0.1213
  807MOL0     H 8938   1.346   7.879   6.056 -0.5345 -0.5187  0.4190
  807MOL0     H 8939   1.494   7.682   5.972  1.5688  0.5757  0.8467
  807MOL0     H 8940   1.482   7.626   6.145 -1.1083  1.4157  2.3466
  807MOL0     H 8941   1.679   7.729   6.142 -0.4333 -0.0329 -0.3576
  807MOL0     H 8942   1.566   7.849   6.211  1.2000  0.1990 -1.3720
  807MOL0     H 8943   1.721   8.070   5.906  2.2447 -0.2379 -1.1465
  807MOL0     H 8944   1.076   7.629   5.818  2.2260 -1.6713  0.0089
  807MOL0     H 8945   0.848   7.555   5.761  1.2817  3.7467  0.4673
  808MOL0     O 8946  10.407  11.305   1.506 -1.0522 -0.2242 -0.1789
  808MOL0     C 8947  10.317  11.384   1.533 -0.8385  0.6678 -0.5775
  808MOL0     O 8948  10.323  11.457   1.654 -0.3166 -0.6371 -0.4307
  808MOL0     C 8949  10.400  11.402   1.754  0.3129 -0.0241 -1.0460
  808MOL0     C 8950  10.537  11.437   1.773 -0.1263  0.2367 -0.6165
  808MOL0     C 8951  10.617  11.366   1.864 -0.1899  0.1177 -0.7596
  808MOL0     C 8952  10.562  11.285   1.963  0.8237  0.4677  0.3933
  808MOL0     O 8953  10.608  11.217   2.071 -1.0053  0.4140  0.6371
  808MOL0     C 8954  10.751  11.223   2.095  0.0806 -0.4151  0.1899
  808MOL0     C 8955  10.768  11.137   2.218  0.1600 -0.7057  0.4290
  808MOL0     C 8956  10.711  11.179   2.347 -0.5435  0.7460 -0.2419
  808MOL0     C 8957  10.719  11.062   2.445 -0.7564  1.5119 -0.5634
  808MOL0     C 8958  10.590  10.979   2.460  0.0149 -0.0584 -0.9949
  808MOL0     C 8959  10.475  11.062   2.521  0.2355 -0.5025 -1.1391
  808MOL0     C 8960  10.366  10.974   2.566 -0.4072  0.4584 -0.3582
  808MOL0     C 8961  10.238  11.047   2.597  0.2044  0.3160  0.3156
  808MOL0     N 8962  10.157  11.093   2.475 -0.7036  0.2422  0.2565
  808MOL0     C 8963  10.113  11.024   2.367 -0.6507 -0.0119  0.2807
  808MOL0     C 8964  10.022  11.103   2.309  0.1972  0.1460  0.0873
  808MOL0     C 8965   9.940  11.068   2.181 -0.1221  0.0167  0.0826
  808MOL0     C 8966   9.793  11.028   2.204 -1.7532 -0.4735 -0.0105
  808MOL0     C 8967   9.773  10.930   2.317 -0.2999  0.8780  0.0309
  808MOL0     C 8968   9.632  10.886   2.331  0.3803  0.4420 -0.1503
  808MOL0     O 8969   9.612  10.802   2.210  0.5218  0.1146  0.4504
  808MOL0     C 8970   9.480  10.774   2.180 -0.4923 -0.8698 -0.1942
  808MOL0     C 8971   9.459  10.742   2.047  0.4417  0.7172  0.2171
  808MOL0     C 8972   9.331  10.720   2.000  0.0709  0.6381 -0.0620
  808MOL0     C 8973   9.338  10.668   1.860  0.0606 -0.9656  0.0281
  808MOL0     C 8974   9.216  10.737   2.078 -0.3315 -0.8051  0.5243
  808MOL0     C 8975   9.078  10.725   2.033 -0.7420 -0.1347 -0.3104
  808MOL0     O 8976   8.986  10.691   2.134  0.2356  0.5746 -0.1447
  808MOL0     C 8977   8.856  10.663   2.103  0.2743 -0.4075 -0.7002
  808MOL0     C 8978   8.820  10.544   2.038 -0.2439  0.5471 -0.3175
  808MOL0     C 8979   8.689  10.519   2.016 -0.2010 -0.2154  0.2963
  808MOL0     C 8980   8.584  10.597   2.060 -1.2740 -0.4131 -0.0513
  808MOL0     O 8981   8.452  10.580   2.030  0.1783 -0.5661 -0.1048
  808MOL0     C 8982   8.401  10.452   2.049  0.3196  0.0411 -0.8083
  808MOL0     C 8983   8.254  10.437   2.014 -0.2546 -0.0740  0.3249
  808MOL0     C 8984   8.226  10.446   1.870  0.3761  0.1026 -0.0664
  808MOL0     C 8985   8.118  10.341   1.811  0.5086 -1.0032 -0.7425
  808MOL0     C 8986   8.124  10.337   1.658 -0.3804 -0.1569 -0.2808
  808MOL0     C 8987   8.140  10.198   1.597  0.5666  0.4555  0.3320
  808MOL0     C 8988   8.133  10.200   1.443  0.0305  0.1329  0.9999
  808MOL0     C 8989   8.253  10.264   1.386 -0.9140 -0.7250  0.0866
  808MOL0    Cl 8990   8.329  10.186   1.248  0.1257  0.0831 -0.4697
  808MOL0     C 8991   8.623  10.719   2.105 -0.6039 -0.0822 -0.7869
  808MOL0     C 8992   8.760  10.757   2.129  0.5808 -0.7667 -0.0052
  808MOL0     O 8993   9.048  10.733   1.916  0.2349 -0.2650 -0.1817
  808MOL0     C 8994   9.241  10.775   2.213  0.0880  0.7365 -0.1209
  808MOL0     C 8995   9.373  10.795   2.268  0.2828 -0.9179  0.0498
  808MOL0     N 8996  10.015  11.220   2.375 -0.1354 -0.3253  0.6646
  808MOL0     N 8997  10.096  11.218   2.471 -0.3651  0.0975 -0.4096
  808MOL0     C 8998  10.419  11.271   1.961 -0.2637 -0.4888  0.1527
  808MOL0     C 8999  10.341  11.324   1.850 -0.7980  0.1664  0.3398
  808MOL0     C 9000  10.201  11.415   1.438 -0.4211  0.8954 -0.5321
  808MOL0     C 9001  10.084  11.480   1.484 -0.5102 -0.8165 -0.2637
  808MOL0     C 9002   9.976  11.507   1.393  0.9765 -0.1663 -0.2298
  808MOL0     C 9003   9.996  11.486   1.255 -0.8053  0.3276  0.1492
  808MOL0     O 9004   9.897  11.530   1.168  0.1105  0.4675  0.1253
  808MOL0     C 9005   9.934  11.650   1.089 -0.4192 -0.8707 -0.7075
  808MOL0     C 9006   9.812  11.729   1.044 -0.1798 -0.1074 -0.2657
  808MOL0     C 9007   9.847  11.831   0.947  0.2632  0.5806  0.3165
  808MOL0     C 9008   9.730  11.926   0.895  0.3113  0.4630  0.1639
  808MOL0     C 9009   9.643  11.970   1.000  0.5639  0.1250 -0.0458
  808MOL0     C 9010   9.607  12.025   1.096 -0.0210  0.1523  1.0499
  808MOL0     C 9011  10.115  11.435   1.211 -1.0539 -0.1364 -0.0267
  808MOL0     C 9012  10.213  11.384   1.299 -0.5740 -1.7380 -0.0980
  808MOL0     H 9013  10.570  11.510   1.699  5.2188 -1.6746 -0.5780
  808MOL0     H 9014  10.724  11.385   1.873  0.4898 -3.8309  1.8229
  808MOL0     H 9015  10.804  11.181   2.009 -1.6657 -0.9784 -0.6697
  808MOL0     H 9016  10.786  11.324   2.119 -1.1996 -0.0283  0.5448
  808MOL0     H 9017  10.741  11.037   2.183  1.6960 -1.6227  1.7172
  808MOL0     H 9018  10.876  11.131   2.236 -0.0904 -0.6392  2.0857
  808MOL0     H 9019  10.765  11.264   2.389 -0.4048  0.6527 -0.2317
  808MOL0     H 9020  10.607  11.210   2.329 -2.0967 -4.2347 -1.5044
  808MOL0     H 9021  10.807  11.001   2.420 -0.2255  1.8497  0.4699
  808MOL0     H 9022  10.734  11.109   2.542  2.2997  0.0055 -0.2003
  808MOL0     H 9023  10.565  10.932   2.364  1.7128 -3.2870 -0.0093
  808MOL0     H 9024  10.600  10.899   2.534 -6.7429 -1.7057 -1.1941
  808MOL0     H 9025  10.516  11.124   2.601  0.5273  1.1473 -2.5157
  808MOL0     H 9026  10.429  11.129   2.448 -2.3205 -0.3081  0.5062
  808MOL0     H 9027  10.339  10.891   2.500 -0.6347  0.6434 -0.4983
  808MOL0     H 9028  10.409  10.925   2.654  0.2205 -0.8657 -1.3674
  808MOL0     H 9029  10.277  11.131   2.656  0.8776 -0.3235  0.8076
  808MOL0     H 9030  10.169  10.986   2.656 -0.1801  2.0585  1.7630
  808MOL0     H 9031  10.130  10.920   2.338  2.6021 -0.3304  2.7157
  808MOL0     H 9032   9.929  11.161   2.124  0.8122 -2.0399 -3.8208
  808MOL0     H 9033   9.992  10.994   2.119 -1.9201 -1.9126  0.7519
  808MOL0     H 9034   9.748  10.987   2.113  0.0172  1.6611 -2.0042
  808MOL0     H 9035   9.739  11.119   2.231 -0.8766 -0.9368  3.9074
  808MOL0     H 9036   9.807  10.975   2.411  0.8399 -0.9313  0.5382
  808MOL0     H 9037   9.833  10.840   2.296 -1.4340  1.0158 -5.0161
  808MOL0     H 9038   9.563  10.971   2.333 -0.2636 -0.0482 -0.7998
  808MOL0     H 9039   9.632  10.832   2.426  0.4812 -0.2575 -0.5399
  808MOL0     H 9040   9.540  10.731   1.976 -0.6135  2.8035 -1.4587
  808MOL0     H 9041   9.248  10.696   1.805 -1.9216  0.4705  3.6481
  808MOL0     H 9042   9.425  10.712   1.810 -0.2086  2.7347  2.3944
  808MOL0     H 9043   9.340  10.559   1.852 -1.4640 -0.8755 -4.2723
  808MOL0     H 9044   8.894  10.470   2.011  1.1183  1.6050  0.4366
  808MOL0     H 9045   8.659  10.428   1.964  0.8049 -0.1620 -0.4144
  808MOL0     H 9046   8.466  10.381   1.998  0.4601 -0.1290 -0.3975
  808MOL0     H 9047   8.413  10.428   2.155 -1.3313 -2.8641 -1.1815
  808MOL0     H 9048   8.211  10.352   2.068 -1.9262 -0.7135 -1.8482
  808MOL0     H 9049   8.211  10.526   2.061 -0.5869  1.0129 -1.9297
  808MOL0     H 9050   8.316  10.422   1.813  1.7130  3.7119  0.2693
  808MOL0     H 9051   8.197  10.545   1.833  0.2728 -0.4746 -1.6257
  808MOL0     H 9052   8.137  10.243   1.854  0.5017 -0.6329  0.1315
  808MOL0     H 9053   8.017  10.367   1.844 -0.2755 -3.3645 -1.1653
  808MOL0     H 9054   8.211  10.384   1.613 -0.3062 -1.4105 -1.5128
  808MOL0     H 9055   8.040  10.393   1.617 -1.5278 -1.7207 -0.1638
  808MOL0     H 9056   8.240  10.163   1.623  0.4035  0.5936  1.1904
  808MOL0     H 9057   8.059  10.133   1.632  0.3319 -1.2109 -3.0011
  808MOL0     H 9058   8.050  10.263   1.411  2.0919  2.2814 -0.4968
  808MOL0     H 9059   8.108  10.105   1.396 -1.9969  1.7448 -1.4696
  808MOL0     H 9060   8.339  10.270   1.453  2.2799 -0.0541 -3.6986
  808MOL0     H 9061   8.208  10.355   1.345 -0.9951 -1.1070 -0.6975
  808MOL0     H 9062   8.558  10.801   2.135 -0.8297 -0.6386  0.2876
  808MOL0     H 9063   8.781  10.856   2.170  0.0788  1.0159 -3.6593
  808MOL0     H 9064   9.164  10.786   2.290  0.9503  2.0459  0.6043
  808MOL0     H 9065   9.381  10.824   2.372  0.5055 -2.3578  0.4431
  808MOL0     H 9066  10.360  11.223   2.039 -0.2829 -3.6195 -1.6315
  808MOL0     H 9067  10.233  11.316   1.863 -1.0506 -3.7699 -2.5125
  808MOL0     H 9068  10.072  11.506   1.589 -3.0877 -1.5169 -0.3069
  808MOL0     H 9069   9.885  11.552   1.431 -0.2897 -0.6086 -2.5494
  808MOL0     H 9070   9.991  11.731   1.135 -1.3009  1.8150 -3.9496
  808MOL0     H 9071   9.999  11.623   1.005  3.7457  0.5644  1.7773
  808MOL0     H 9072   9.780  11.768   1.141 -0.0843 -0.4088 -0.1110
  808MOL0     H 9073   9.728  11.667   1.013 -1.2770  0.6493  1.0691
  808MOL0     H 9074   9.888  11.788   0.856  0.8990  1.6250  0.0841
  808MOL0     H 9075   9.917  11.896   1.002 -1.2571  0.2643  2.7413
  808MOL0     H 9076   9.672  11.874   0.818  0.8595 -2.1014  1.3753
  808MOL0     H 9077   9.782  12.009   0.845  3.0439 -1.2349 -0.0444
  808MOL0     H 9078   9.587  12.078   1.187 -0.3106  1.3874  0.2934
  808MOL0     H 9079  10.123  11.410   1.105  0.8132 -0.8524  0.2577
  808MOL0     H 9080  10.301  11.331   1.263  1.2359  1.1453 -0.2909
  809MOL0     O 9081   4.837   1.290   2.403 -0.2995  0.2896 -0.5314
  809MOL0     C 9082   4.798   1.291   2.282  0.0945 -0.0913 -0.4562
  809MOL0     O 9083   4.877   1.282   2.178 -0.5423 -0.3022  0.2007
  809MOL0     C 9084   5.015   1.263   2.194  0.5368 -0.7841  0.3577
  809MOL0     C 9085   5.106   1.366   2.186 -0.1211  0.1931 -0.4471
  809MOL0     C 9086   5.239   1.324   2.195  0.1036 -0.4082 -0.2884
  809MOL0     C 9087   5.288   1.201   2.238  0.1963  0.5216  0.4949
  809MOL0     O 9088   5.422   1.165   2.241  0.4807  0.8313  0.4797
  809MOL0     C 9089   5.520   1.263   2.191 -0.3694  0.1788 -0.2101
  809MOL0     C 9090   5.583   1.367   2.281  0.2716 -0.2790 -0.3699
  809MOL0     C 9091   5.715   1.421   2.228 -0.1194 -0.4428 -0.5660
  809MOL0     C 9092   5.758   1.545   2.313  0.1716  0.7471  0.2507
  809MOL0     C 9093   5.901   1.580   2.262 -0.4591  0.0493 -0.1191
  809MOL0     C 9094   5.958   1.690   2.360  0.3108  0.0331  0.5465
  809MOL0     C 9095   6.053   1.771   2.292 -0.1032  0.3384 -0.3339
  809MOL0     C 9096   6.177   1.702   2.251 -0.3479 -0.3024 -0.0824
  809MOL0     N 9097   6.257   1.769   2.151 -1.1683  0.0645  0.1567
  809MOL0     C 9098   6.221   1.837   2.039 -0.3893 -0.1840  0.3034
  809MOL0     C 9099   6.334   1.875   1.974  0.3293  0.8298 -0.1520
  809MOL0     C 9100   6.332   1.947   1.842 -0.2245  0.5209 -0.6800
  809MOL0     C 9101   6.251   2.080   1.843 -1.1859  0.3107  0.2286
  809MOL0     C 9102   6.328   2.193   1.910 -0.1985 -1.0414  0.3567
  809MOL0     C 9103   6.248   2.317   1.883  0.2129 -0.6550  0.6396
  809MOL0     O 9104   6.316   2.386   1.785 -0.1597  0.5412 -0.2115
  809MOL0     C 9105   6.251   2.482   1.713 -0.8474  0.3069  0.6844
  809MOL0     C 9106   6.134   2.543   1.760  0.4340 -0.2849  0.1664
  809MOL0     C 9107   6.066   2.645   1.701 -0.5292 -0.2347  0.1360
  809MOL0     C 9108   5.944   2.712   1.761 -0.7073  0.1303  1.2833
  809MOL0     C 9109   6.122   2.686   1.579 -0.5929 -0.3626  0.2904
  809MOL0     C 9110   6.057   2.779   1.500 -0.2611  0.1885 -0.1318
  809MOL0     O 9111   6.132   2.891   1.469 -0.6709 -0.0858 -0.1092
  809MOL0     C 9112   6.059   2.999   1.413 -0.4604  0.3324 -0.0642
  809MOL0     C 9113   6.050   3.124   1.477 -1.0377 -0.4547 -0.8303
  809MOL0     C 9114   6.009   3.238   1.403 -0.5591 -0.4420 -0.3761
  809MOL0     C 9115   5.963   3.223   1.270 -0.6003  0.6487 -0.5183
  809MOL0     O 9116   5.929   3.348   1.219 -0.4017  0.0718 -0.7945
  809MOL0     C 9117   5.798   3.341   1.151 -0.3069  1.1341 -0.1561
  809MOL0     C 9118   5.676   3.325   1.252  0.1862 -0.2910  0.1080
  809MOL0     C 9119   5.637   3.456   1.337 -1.0891  0.0274  0.2775
  809MOL0     C 9120   5.518   3.432   1.411  0.1455 -0.3432  0.2655
  809MOL0     C 9121   5.452   3.566   1.469 -0.3652  0.2045  0.6320
  809MOL0     C 9122   5.340   3.534   1.568  0.0141  0.6625  0.1354
  809MOL0     C 9123   5.256   3.646   1.613  0.0116 -0.4684 -0.8036
  809MOL0     C 9124   5.142   3.678   1.515 -0.6883  0.0838  0.9935
  809MOL0    Cl 9125   5.017   3.563   1.548 -0.0411 -0.1588  0.0264
  809MOL0     C 9126   5.940   3.094   1.219  0.3932 -0.7926  0.5531
  809MOL0     C 9127   5.988   2.988   1.292 -0.4317  0.3528  0.7478
  809MOL0     O 9128   5.947   2.747   1.452  0.2361 -0.0282 -0.6894
  809MOL0     C 9129   6.237   2.630   1.525  0.4403  0.8052  0.1851
  809MOL0     C 9130   6.310   2.540   1.596 -1.1358  0.2792  0.4562
  809MOL0     N 9131   6.436   1.840   2.060  0.0790  0.9096  0.3288
  809MOL0     N 9132   6.389   1.786   2.162 -0.2881 -0.6055 -0.2049
  809MOL0     C 9133   5.196   1.101   2.250  0.1159  0.1653  0.5833
  809MOL0     C 9134   5.061   1.128   2.207 -0.3467  0.0302 -1.7414
  809MOL0     C 9135   4.651   1.300   2.253 -0.4925 -0.0936 -0.8207
  809MOL0     C 9136   4.597   1.251   2.135 -0.5439  0.5141  0.6203
  809MOL0     C 9137   4.456   1.241   2.116 -0.0071  0.2516 -0.5358
  809MOL0     C 9138   4.371   1.289   2.221  0.0757 -0.1842 -0.1841
  809MOL0     O 9139   4.237   1.280   2.208  0.3899 -0.1968 -0.0625
  809MOL0     C 9140   4.170   1.226   2.091 -0.3467  0.5379 -0.9641
  809MOL0     C 9141   4.015   1.253   2.112  0.1925  0.5012 -1.3782
  809MOL0     C 9142   3.993   1.401   2.137  0.0538 -0.5943  0.1365
  809MOL0     C 9143   3.854   1.449   2.094 -0.1383 -0.4565 -0.9444
  809MOL0     C 9144   3.834   1.453   1.953  0.2931  0.3698 -0.5106
  809MOL0     C 9145   3.803   1.452   1.839  0.4604 -0.0268  0.0130
  809MOL0     C 9146   4.431   1.327   2.341 -0.4466 -0.3303 -0.4688
  809MOL0     C 9147   4.571   1.344   2.348  0.2458  0.5051 -0.3825
  809MOL0     H 9148   5.068   1.462   2.151  0.7977  0.6043 -0.3567
  809MOL0     H 9149   5.296   1.414   2.175 -2.7512  1.2770 -1.4440
  809MOL0     H 9150   5.598   1.211   2.135 -0.3843 -1.3178  1.0816
  809MOL0     H 9151   5.483   1.324   2.109  1.9529 -3.2036 -4.1803
  809MOL0     H 9152   5.507   1.445   2.294 -0.5293 -0.9027 -1.1038
  809MOL0     H 9153   5.583   1.318   2.379  1.2751 -3.2518 -1.7264
  809MOL0     H 9154   5.781   1.334   2.232 -2.6555 -2.4462  3.0388
  809MOL0     H 9155   5.722   1.452   2.123 -0.7879 -1.3197 -0.8788
  809MOL0     H 9156   5.692   1.632   2.304 -0.0746  0.8011  2.0850
  809MOL0     H 9157   5.752   1.516   2.419 -0.7418  0.3078  0.0945
  809MOL0     H 9158   5.967   1.494   2.248  1.2544  1.5709 -1.8289
  809MOL0     H 9159   5.900   1.632   2.166  2.5401 -0.9795 -0.8032
  809MOL0     H 9160   5.880   1.759   2.391 -2.3437 -2.4519 -0.1443
  809MOL0     H 9161   6.002   1.641   2.448  2.8974 -1.5891 -1.4958
  809MOL0     H 9162   6.002   1.819   2.208 -2.4380  0.3405  1.0000
  809MOL0     H 9163   6.097   1.841   2.363  0.2919  0.2990 -0.5386
  809MOL0     H 9164   6.171   1.602   2.208 -0.0674 -0.1002 -0.5974
  809MOL0     H 9165   6.243   1.690   2.338  1.3017 -4.1117 -1.6190
  809MOL0     H 9166   6.127   1.840   1.986  1.1852 -1.8365 -2.8968
  809MOL0     H 9167   6.431   1.960   1.799  1.9566 -4.3579  2.0480
  809MOL0     H 9168   6.272   1.881   1.778  0.9479 -2.8741  1.4348
  809MOL0     H 9169   6.155   2.058   1.891 -0.7571  2.1179  2.0719
  809MOL0     H 9170   6.235   2.121   1.743  2.2616  0.2948 -0.4470
  809MOL0     H 9171   6.433   2.202   1.882 -0.1259  0.3815  1.0107
  809MOL0     H 9172   6.327   2.173   2.017  0.6458 -2.0182  0.1952
  809MOL0     H 9173   6.242   2.378   1.973 -2.5543 -2.0834  1.5268
  809MOL0     H 9174   6.142   2.307   1.857 -0.5007  2.5707  1.8748
  809MOL0     H 9175   6.088   2.522   1.856 -0.6316 -2.8142 -0.8059
  809MOL0     H 9176   5.864   2.638   1.759  0.0204 -0.6671  0.4785
  809MOL0     H 9177   5.970   2.729   1.866  1.7901  1.5046  0.5139
  809MOL0     H 9178   5.917   2.806   1.714 -1.8532 -0.5490  0.5298
  809MOL0     H 9179   6.100   3.134   1.573  2.2134 -0.6254 -2.3711
  809MOL0     H 9180   5.998   3.333   1.454 -2.3525 -0.8580  0.0841
  809MOL0     H 9181   5.784   3.421   1.078  1.3279  0.4627 -1.2722
  809MOL0     H 9182   5.786   3.250   1.090 -0.1336 -0.6604  2.3530
  809MOL0     H 9183   5.588   3.308   1.190 -0.8141 -1.0214  1.6674
  809MOL0     H 9184   5.687   3.237   1.316 -3.8245 -0.8947  0.2362
  809MOL0     H 9185   5.638   3.537   1.264 -1.4507 -1.2124 -1.1470
  809MOL0     H 9186   5.711   3.487   1.412  0.0077  0.7670 -1.0605
  809MOL0     H 9187   5.437   3.382   1.357 -0.2950  0.3840  0.2340
  809MOL0     H 9188   5.553   3.371   1.495  1.6605  2.5734  1.9049
  809MOL0     H 9189   5.396   3.603   1.382  1.3717  1.7295  0.1091
  809MOL0     H 9190   5.532   3.634   1.499  0.6936  0.0149 -1.5185
  809MOL0     H 9191   5.289   3.442   1.540  0.4796  0.1095  1.0485
  809MOL0     H 9192   5.392   3.507   1.660  0.3264 -0.3442 -0.3276
  809MOL0     H 9193   5.316   3.737   1.622  1.0058 -1.2045  0.3471
  809MOL0     H 9194   5.207   3.634   1.711 -3.1393 -0.0967 -2.2136
  809MOL0     H 9195   5.176   3.662   1.412 -0.9173 -0.9809  1.0735
  809MOL0     H 9196   5.107   3.780   1.531 -0.9018  0.3709 -0.9844
  809MOL0     H 9197   5.904   3.091   1.117 -0.4064 -2.6924  0.8595
  809MOL0     H 9198   5.964   2.894   1.243 -0.1611  0.4455  0.4339
  809MOL0     H 9199   6.283   2.676   1.438 -0.5460 -0.8932 -1.2792
  809MOL0     H 9200   6.412   2.519   1.563 -2.3183 -0.6506 -3.0003
  809MOL0     H 9201   5.222   0.999   2.274 -2.0452  0.3191  4.3832
  809MOL0     H 9202   4.999   1.040   2.194 -0.3217 -0.1906 -0.4768
  809MOL0     H 9203   4.664   1.219   2.056 -0.9001  1.8100 -0.2330
  809MOL0     H 9204   4.419   1.200   2.022  0.4914  1.1468 -1.1422
  809MOL0     H 9205   4.215   1.285   2.011  2.3694  1.6811  1.2463
  809MOL0     H 9206   4.184   1.118   2.081  0.5122  0.4418  0.8635
  809MOL0     H 9207   3.975   1.203   2.201  0.0211 -0.7247 -2.1288
  809MOL0     H 9208   3.958   1.208   2.030  3.0651  0.6905 -3.6302
  809MOL0     H 9209   4.067   1.467   2.092 -0.0650  1.3166  2.5031
  809MOL0     H 9210   4.010   1.414   2.245  2.5508 -0.4835 -0.1973
  809MOL0     H 9211   3.846   1.551   2.134 -0.5753 -0.4057 -1.1511
  809MOL0     H 9212   3.782   1.387   2.147  0.5560 -0.0903  0.4693
  809MOL0     H 9213   3.769   1.438   1.738 -0.2438  1.2123  0.0541
  809MOL0     H 9214   4.348   1.344   2.409  0.1315 -1.8733  0.6610
  809MOL0     H 9215   4.620   1.377   2.439 -0.5824  0.0610  0.2372
  810MOL0     O 9216   6.495   1.540   9.838  0.1991 -0.4076 -0.2812
  810MOL0     C 9217   6.519   1.658   9.823  0.9983  0.5818 -0.0877
  810MOL0     O 9218   6.444   1.744   9.751  0.2364 -0.6423  0.3875
  810MOL0     C 9219   6.347   1.690   9.674  0.1120  0.3600 -0.3626
  810MOL0     C 9220   6.373   1.600   9.577  0.2190 -0.8710 -0.1738
  810MOL0     C 9221   6.274   1.550   9.496  0.3329 -0.7861 -0.7875
  810MOL0     C 9222   6.140   1.598   9.507  0.6097  0.8111 -0.7503
  810MOL0     O 9223   6.032   1.546   9.436 -0.3726  0.1433 -0.4346
  810MOL0     C 9224   6.050   1.497   9.305 -0.0112 -0.3157  0.4600
  810MOL0     C 9225   5.914   1.478   9.232 -0.0097 -0.8869 -0.3485
  810MOL0     C 9226   5.929   1.470   9.080 -0.1642  0.2528 -0.4782
  810MOL0     C 9227   5.992   1.338   9.040  0.9798  0.0444 -0.3340
  810MOL0     C 9228   5.990   1.318   8.883 -1.4621 -0.0584 -0.8008
  810MOL0     C 9229   6.051   1.190   8.837 -0.0652  0.8944  0.4861
  810MOL0     C 9230   6.068   1.216   8.689 -0.2107  0.1247  0.3118
  810MOL0     C 9231   6.148   1.107   8.628 -0.3275  0.4345 -0.2280
  810MOL0     N 9232   6.184   1.145   8.495  0.2090  0.6444  0.9226
  810MOL0     C 9233   6.214   1.052   8.402 -0.5531 -1.0901  0.0766
  810MOL0     C 9234   6.234   1.114   8.288  0.2688  0.4311 -1.0780
  810MOL0     C 9235   6.239   1.040   8.162 -0.1214  0.2001  0.0294
  810MOL0     C 9236   6.111   1.027   8.084 -0.0113  0.7271  0.3239
  810MOL0     C 9237   6.127   1.078   7.935  0.6016 -0.8400 -1.0089
  810MOL0     C 9238   5.984   1.093   7.863 -0.2374 -0.1923 -0.4979
  810MOL0     O 9239   5.926   0.957   7.853  0.1708 -0.6144 -0.1478
  810MOL0     C 9240   5.826   0.948   7.764  0.6709  1.0676 -0.2262
  810MOL0     C 9241   5.718   1.022   7.782  0.2592  0.0068  0.1043
  810MOL0     C 9242   5.611   1.014   7.693 -0.9408 -1.1057 -0.7170
  810MOL0     C 9243   5.486   1.109   7.717 -0.4330  0.3106 -0.8500
  810MOL0     C 9244   5.622   0.923   7.579  0.8612  1.4235  1.3535
  810MOL0     C 9245   5.515   0.901   7.487  0.3346  0.1378  0.0741
  810MOL0     O 9246   5.552   0.866   7.362 -0.7116  0.1580  0.8470
  810MOL0     C 9247   5.466   0.849   7.260 -0.2135  0.3958 -0.5621
  810MOL0     C 9248   5.347   0.917   7.241  0.3969 -0.0073  0.3145
  810MOL0     C 9249   5.254   0.871   7.139  0.0473 -0.3168  0.4509
  810MOL0     C 9250   5.273   0.756   7.063 -0.1133  0.5830  0.0962
  810MOL0     O 9251   5.179   0.717   6.964 -0.4447  0.3722 -0.5847
  810MOL0     C 9252   5.171   0.570   6.941 -0.1217 -0.2343  0.8304
  810MOL0     C 9253   5.047   0.527   6.864  0.2142  0.2058 -0.2279
  810MOL0     C 9254   5.049   0.570   6.721 -0.5211  1.3342 -0.3791
  810MOL0     C 9255   4.951   0.467   6.649  0.4523 -0.1969 -0.6184
  810MOL0     C 9256   4.944   0.483   6.502  0.5087 -0.8628 -0.2961
  810MOL0     C 9257   5.073   0.476   6.418 -0.0132 -0.9358  0.5138
  810MOL0     C 9258   5.053   0.531   6.272  0.4579  0.0411 -0.1766
  810MOL0     C 9259   4.942   0.453   6.200 -0.9021  0.2796 -0.1643
  810MOL0    Cl 9260   4.959   0.489   6.023  0.1957 -0.3513  0.3136
  810MOL0     C 9261   5.398   0.701   7.078  0.8772 -0.2593 -0.2922
  810MOL0     C 9262   5.493   0.744   7.174 -0.0629  0.0379  0.6068
  810MOL0     O 9263   5.401   0.922   7.514 -0.1799  0.1126  0.2399
  810MOL0     C 9264   5.730   0.835   7.570  0.0809 -0.1574  0.2296
  810MOL0     C 9265   5.835   0.851   7.660  0.3362  0.7970 -0.1537
  810MOL0     N 9266   6.221   1.245   8.310  0.1506 -0.3436  0.0294
  810MOL0     N 9267   6.187   1.260   8.435  0.0569 -0.0312  0.5677
  810MOL0     C 9268   6.112   1.693   9.605  0.0021  0.6323  0.3795
  810MOL0     C 9269   6.214   1.742   9.679  0.2032  0.0942 -0.1447
  810MOL0     C 9270   6.654   1.693   9.881 -0.5249 -0.6852 -0.1623
  810MOL0     C 9271   6.714   1.806   9.840  0.4819  0.5692  0.4106
  810MOL0     C 9272   6.823   1.858   9.912 -0.0423 -0.0584  0.2625
  810MOL0     C 9273   6.881   1.785  10.024  0.8145  0.4026  0.7595
  810MOL0     O 9274   6.984   1.832  10.096 -0.1097  0.1176 -0.4164
  810MOL0     C 9275   7.045   1.960  10.084  0.6847 -0.8682  0.1065
  810MOL0     C 9276   6.979   2.072  10.171 -0.4773 -0.7249 -0.0226
  810MOL0     C 9277   7.010   2.208  10.104 -1.4726  0.6373 -1.2768
  810MOL0     C 9278   7.161   2.255  10.105  0.1019  0.8282  1.2951
  810MOL0     C 9279   7.221   2.282  10.236  0.0998  0.1479 -0.5934
  810MOL0     C 9280   7.267   2.282  10.346  0.7829 -0.0991  0.1605
  810MOL0     C 9281   6.827   1.664  10.056  0.3610 -0.5462  0.4331
  810MOL0     C 9282   6.717   1.614   9.987  0.1993  0.1522 -0.3035
  810MOL0     H 9283   6.474   1.563   9.561  1.4687  2.1327  0.1369
  810MOL0     H 9284   6.297   1.477   9.419 -1.3204 -1.9590 -0.2167
  810MOL0     H 9285   6.109   1.575   9.257 -1.3645 -1.6496 -3.8015
  810MOL0     H 9286   6.108   1.405   9.317 -1.1460 -0.7582  3.5918
  810MOL0     H 9287   5.851   1.400   9.276 -0.5564  1.2036  2.9083
  810MOL0     H 9288   5.859   1.569   9.255  2.8705  1.2883 -1.4760
  810MOL0     H 9289   5.831   1.472   9.031  0.4541 -0.6798 -1.8195
  810MOL0     H 9290   5.979   1.555   9.032  0.1732  1.2002  1.4556
  810MOL0     H 9291   6.097   1.343   9.069  0.5574  4.3167  1.0279
  810MOL0     H 9292   5.933   1.260   9.090 -0.4148  2.7368  2.5864
  810MOL0     H 9293   5.886   1.329   8.849 -0.7697 -2.6105 -4.2037
  810MOL0     H 9294   6.045   1.406   8.850  0.5106 -0.7059  0.5604
  810MOL0     H 9295   6.139   1.149   8.886 -0.2979 -1.8020 -1.1501
  810MOL0     H 9296   5.968   1.119   8.850 -1.9560  2.5290 -1.7124
  810MOL0     H 9297   5.974   1.212   8.634 -1.0561 -1.5783  1.7903
  810MOL0     H 9298   6.109   1.316   8.668 -1.8188  0.5586 -1.0122
  810MOL0     H 9299   6.097   1.011   8.617  0.1859  0.4972 -5.1475
  810MOL0     H 9300   6.239   1.089   8.686  0.9246 -1.2118 -2.5351
  810MOL0     H 9301   6.202   0.945   8.417  3.2247 -1.8139 -0.9902
  810MOL0     H 9302   6.311   1.085   8.093  0.1712  0.9795  0.8269
  810MOL0     H 9303   6.285   0.943   8.183 -3.2248 -2.2560 -3.1618
  810MOL0     H 9304   6.047   1.104   8.127  2.2718  2.4742  0.7837
  810MOL0     H 9305   6.077   0.923   8.096  2.1241  0.0474  0.9040
  810MOL0     H 9306   6.189   1.009   7.877  0.0202 -1.4912 -0.8608
  810MOL0     H 9307   6.175   1.177   7.938  0.7973 -0.9479  1.7206
  810MOL0     H 9308   6.001   1.123   7.759  0.0600 -2.3005 -1.1037
  810MOL0     H 9309   5.920   1.159   7.923 -0.7116 -1.0265 -0.0627
  810MOL0     H 9310   5.721   1.083   7.872  1.4102  0.5478 -0.2893
  810MOL0     H 9311   5.432   1.063   7.802 -1.7335  4.3408  0.7487
  810MOL0     H 9312   5.523   1.210   7.737 -2.5502  1.2395 -1.2644
  810MOL0     H 9313   5.421   1.110   7.629  1.7010 -0.4489 -2.5059
  810MOL0     H 9314   5.315   0.998   7.306  5.1646 -1.2980  4.9501
  810MOL0     H 9315   5.160   0.924   7.127 -0.4114 -1.1679  0.2371
  810MOL0     H 9316   5.256   0.526   6.888 -2.2307  0.6303 -3.7793
  810MOL0     H 9317   5.157   0.529   7.041  3.0028  0.9697  1.8734
  810MOL0     H 9318   5.040   0.422   6.891  0.1445 -0.2137 -1.7974
  810MOL0     H 9319   4.957   0.574   6.904  1.9070  3.2652  0.3938
  810MOL0     H 9320   5.155   0.549   6.706  0.2492  1.0422  4.1047
  810MOL0     H 9321   5.028   0.675   6.700  1.1739  1.8738  0.4319
  810MOL0     H 9322   4.988   0.366   6.669 -0.5500 -0.2955  0.9636
  810MOL0     H 9323   4.847   0.483   6.680  0.8852  2.1561 -0.1833
  810MOL0     H 9324   4.900   0.583   6.491 -3.6543 -2.6609 -1.5625
  810MOL0     H 9325   4.868   0.421   6.454 -0.7579 -0.1410  0.7139
  810MOL0     H 9326   5.153   0.535   6.462 -0.3738 -2.1385  2.9260
  810MOL0     H 9327   5.113   0.374   6.417  2.8057 -0.0156 -2.8490
  810MOL0     H 9328   5.151   0.524   6.224  1.4781 -1.5285  1.9432
  810MOL0     H 9329   5.016   0.633   6.270 -1.2449 -0.5509 -2.3045
  810MOL0     H 9330   4.840   0.473   6.233 -1.7667 -2.0958 -1.1744
  810MOL0     H 9331   4.952   0.344   6.210  0.3245  0.5423  2.2852
  810MOL0     H 9332   5.425   0.619   7.012  0.4963 -0.9105  0.3334
  810MOL0     H 9333   5.586   0.688   7.171 -2.0593 -3.6561 -3.1469
  810MOL0     H 9334   5.733   0.765   7.487 -0.5217  1.7443 -1.4776
  810MOL0     H 9335   5.922   0.788   7.647 -0.5301 -0.8371  1.4665
  810MOL0     H 9336   6.011   1.716   9.636  0.7103  2.3603  1.5218
  810MOL0     H 9337   6.196   1.826   9.746 -1.5880  1.7681 -2.5312
  810MOL0     H 9338   6.677   1.858   9.752  0.0694  1.0604  0.8654
  810MOL0     H 9339   6.856   1.957   9.881 -0.0579 -0.1986 -0.2193
  810MOL0     H 9340   7.150   1.959  10.115  0.7093  2.0680  0.4543
  810MOL0     H 9341   7.050   1.993   9.980 -0.5809  2.0871  0.8744
  810MOL0     H 9342   7.001   2.060  10.277 -0.4025 -0.9246 -0.0609
  810MOL0     H 9343   6.869   2.070  10.169 -0.4624 -1.9484 -0.7455
  810MOL0     H 9344   6.958   2.289  10.157 -2.1441 -0.8580  0.4552
  810MOL0     H 9345   6.976   2.189  10.001  1.3939 -0.0847 -2.1795
  810MOL0     H 9346   7.177   2.347  10.047 -2.8467 -0.6147 -2.1519
  810MOL0     H 9347   7.217   2.176  10.053 -0.5010 -0.2901  2.2997
  810MOL0     H 9348   7.305   2.282  10.446  4.7961 -2.1309 -1.1523
  810MOL0     H 9349   6.866   1.618  10.147 -2.8467 -5.9614 -0.4980
  810MOL0     H 9350   6.668   1.526  10.027 -1.6194  0.8060 -0.9843
  811MOL0     O 9351   0.095   5.418  11.465 -0.2807  0.3536 -0.0229
  811MOL0     C 9352   0.096   5.353  11.354  0.1200 -0.1689 -0.5511
  811MOL0     O 9353   0.195   5.352  11.267  0.1827  0.1739  0.6977
  811MOL0     C 9354   0.318   5.405  11.303  0.1879  1.1133  0.9946
  811MOL0     C 9355   0.389   5.360  11.407  0.4837  1.0821  0.0489
  811MOL0     C 9356   0.528   5.391  11.418 -0.1537 -0.3930  0.3210
  811MOL0     C 9357   0.586   5.489  11.332  0.7056  0.7416  0.0315
  811MOL0     O 9358   0.714   5.535  11.332  0.0147  0.4733  0.1265
  811MOL0     C 9359   0.812   5.476  11.421 -0.2683  0.8549  0.0186
  811MOL0     C 9360   0.958   5.520  11.369 -0.1386 -0.6557 -0.3862
  811MOL0     C 9361   1.070   5.454  11.459  0.7938 -0.0431 -0.8048
  811MOL0     C 9362   1.209   5.476  11.396  1.1087  0.2472 -0.7876
  811MOL0     C 9363   1.324   5.428  11.482  0.0186 -1.0754 -0.4484
  811MOL0     C 9364   1.297   5.276  11.530  0.4010 -0.2493  0.6125
  811MOL0     C 9365   1.416   5.230  11.603 -0.9273  1.2396 -1.0305
  811MOL0     C 9366   1.425   5.071  11.648  0.3663 -0.1878 -0.5315
  811MOL0     N 9367   1.557   5.044  11.708  0.1203  0.4199  0.3516
  811MOL0     C 9368   1.586   4.932  11.794 -0.0986 -0.7695  0.0332
  811MOL0     C 9369   1.716   4.941  11.833  0.4187  0.5359  0.3791
  811MOL0     C 9370   1.794   4.857  11.923 -0.1344 -0.0934  1.0233
  811MOL0     C 9371   1.903   4.931  11.998 -0.6079  0.3460  0.4095
  811MOL0     C 9372   1.973   4.849  12.105  0.3227  0.8782  0.1461
  811MOL0     C 9373   2.089   4.901  12.170  0.7073 -0.6942  0.4002
  811MOL0     O 9374   2.088   4.860  12.306 -0.4860 -0.7929 -0.4923
  811MOL0     C 9375   2.144   4.937  12.402  0.1725 -0.9863 -0.4204
  811MOL0     C 9376   2.139   4.888  12.533 -0.0246 -0.0653 -0.2819
  811MOL0     C 9377   2.217   4.938  12.635  0.9192 -0.2112 -0.2073
  811MOL0     C 9378   2.225   4.850  12.765  0.0516 -0.6039 -0.3177
  811MOL0     C 9379   2.291   5.051  12.612 -0.0132 -0.3000  0.2762
  811MOL0     C 9380   2.381   5.106  12.703  0.0465 -0.3367 -0.4447
  811MOL0     O 9381   2.463   5.020  12.772 -0.2922  0.0714 -0.2392
  811MOL0     C 9382   2.513   5.070  12.893 -0.4550  0.6205  0.2581
  811MOL0     C 9383   2.644   5.032  12.936  0.2873 -0.3459  0.0146
  811MOL0     C 9384   2.703   5.086  13.055 -0.0802  0.2112  0.5183
  811MOL0     C 9385   2.627   5.171  13.138  0.1413 -1.3409 -0.1537
  811MOL0     O 9386   2.677   5.224  13.259  0.4922 -0.0384  0.7910
  811MOL0     C 9387   2.823   5.248  13.259  0.4384  0.3333  0.3342
  811MOL0     C 9388   2.850   5.347  13.369 -0.7938 -0.0249  0.9235
  811MOL0     C 9389   2.823   5.292  13.514 -0.1367 -0.8273  0.0469
  811MOL0     C 9390   2.892   5.398  13.608 -0.4115 -0.3704  0.3295
  811MOL0     C 9391   2.806   5.527  13.609 -0.7569 -0.3371  0.2642
  811MOL0     C 9392   2.857   5.622  13.714  0.7963 -0.1389 -0.2313
  811MOL0     C 9393   2.772   5.748  13.736 -0.0789 -0.7905  0.2437
  811MOL0     C 9394   2.780   5.806  13.881 -0.5389 -0.2246  0.1515
  811MOL0    Cl 9395   2.693   5.711  13.984  0.2947  0.1786  0.0199
  811MOL0     C 9396   2.493   5.186  13.115 -0.1184  0.7997 -0.7755
  811MOL0     C 9397   2.429   5.137  12.993 -0.3542  0.2335 -0.0188
  811MOL0     O 9398   2.385   5.229  12.704  0.7587  0.2702  0.2817
  811MOL0     C 9399   2.277   5.113  12.483  0.4560 -0.0985 -0.0639
  811MOL0     C 9400   2.199   5.066  12.378  0.7233 -0.2974 -0.6341
  811MOL0     N 9401   1.761   5.056  11.766 -0.0072  0.1822  0.0447
  811MOL0     N 9402   1.672   5.118  11.688 -0.6639 -0.6356  0.1332
  811MOL0     C 9403   0.503   5.546  11.232 -0.4239 -0.5753  0.1066
  811MOL0     C 9404   0.370   5.497  11.217  0.1377  0.2871  0.4170
  811MOL0     C 9405  -0.012   5.268  11.317 -0.1222  0.6971 -0.3799
  811MOL0     C 9406  -0.132   5.259  11.386  0.0050 -0.5212  0.4687
  811MOL0     C 9407  -0.245   5.191  11.346  0.3577 -0.1453 -0.3555
  811MOL0     C 9408  -0.242   5.113  11.232  0.0712  0.4798 -0.2641
  811MOL0     O 9409  -0.366   5.057  11.195 -0.0555 -0.5812 -0.8050
  811MOL0     C 9410  -0.370   4.995  11.060 -0.2761  0.4025 -0.6037
  811MOL0     C 9411  -0.511   4.980  11.020 -0.1702 -1.0942 -0.6384
  811MOL0     C 9412  -0.585   4.874  11.119 -0.0026  0.0655  0.0145
  811MOL0     C 9413  -0.548   4.732  11.078  0.2536  0.0685  0.5012
  811MOL0     C 9414  -0.611   4.634  11.179 -0.7283 -0.5362  0.5194
  811MOL0     C 9415  -0.667   4.558  11.262 -0.2385  0.2718 -0.5348
  811MOL0     C 9416  -0.120   5.100  11.173 -0.2931 -0.3842  0.9492
  811MOL0     C 9417  -0.001   5.171  11.210 -0.3261  0.6551  0.4572
  811MOL0     H 9418   0.348   5.293  11.482 -2.3856  3.7535  1.0586
  811MOL0     H 9419   0.592   5.349  11.495  3.1669  2.0836 -0.8376
  811MOL0     H 9420   0.801   5.505  11.526  2.8374 -3.1597  1.7537
  811MOL0     H 9421   0.807   5.367  11.411 -0.4103  0.8623  0.0238
  811MOL0     H 9422   0.963   5.496  11.263 -0.8374 -1.6167 -0.2246
  811MOL0     H 9423   0.970   5.628  11.372 -0.6509 -0.6016  2.2070
  811MOL0     H 9424   1.064   5.516  11.549 -1.6429 -2.4939  0.8986
  811MOL0     H 9425   1.054   5.347  11.475  2.1554 -0.2451 -0.7166
  811MOL0     H 9426   1.211   5.431  11.296  0.9638 -1.0321 -0.2377
  811MOL0     H 9427   1.214   5.582  11.372 -2.1360  0.3713 -1.3739
  811MOL0     H 9428   1.417   5.440  11.427  0.2179 -1.3946 -0.1862
  811MOL0     H 9429   1.330   5.493  11.570 -2.3959  1.4529 -2.0116
  811MOL0     H 9430   1.214   5.274  11.601 -0.4541  1.2941 -0.2787
  811MOL0     H 9431   1.284   5.207  11.446  0.9821  0.3436  0.0266
  811MOL0     H 9432   1.503   5.238  11.537  0.9472 -1.6873  0.8467
  811MOL0     H 9433   1.425   5.290  11.694 -0.1917 -0.9587  0.4207
  811MOL0     H 9434   1.421   5.007  11.559  2.5347  2.6742 -2.8934
  811MOL0     H 9435   1.343   5.056  11.718 -0.2405 -1.2777 -1.4438
  811MOL0     H 9436   1.507   4.867  11.833 -0.1651 -0.2073  0.8571
  811MOL0     H 9437   1.721   4.812  11.990  1.1543  0.4060  2.8544
  811MOL0     H 9438   1.831   4.777  11.858 -1.5745 -1.0426  1.3195
  811MOL0     H 9439   1.840   5.003  12.050 -2.2181 -1.9070  1.7649
  811MOL0     H 9440   1.970   4.972  11.922 -1.2381  2.2991  0.8609
  811MOL0     H 9441   1.988   4.743  12.080 -0.1053  0.9485 -0.4345
  811MOL0     H 9442   1.889   4.850  12.176 -2.4910 -2.9525 -2.6927
  811MOL0     H 9443   2.105   5.007  12.150 -1.1146 -0.3233  0.8020
  811MOL0     H 9444   2.168   4.848  12.115  0.6921  0.6404 -0.9770
  811MOL0     H 9445   2.092   4.792  12.550  0.3697 -0.3496 -0.7434
  811MOL0     H 9446   2.193   4.910  12.851  2.0411 -0.9556  0.7303
  811MOL0     H 9447   2.158   4.764  12.766  1.2234 -1.5721  1.8936
  811MOL0     H 9448   2.324   4.809  12.787 -0.1557 -0.4600  0.9450
  811MOL0     H 9449   2.698   4.957  12.879  0.6939  0.7245 -1.0479
  811MOL0     H 9450   2.807   5.061  13.071 -0.2543 -0.7660  0.1389
  811MOL0     H 9451   2.877   5.157  13.287  0.9093  0.8005  0.9789
  811MOL0     H 9452   2.860   5.281  13.162  2.2434 -2.8061 -0.1971
  811MOL0     H 9453   2.957   5.371  13.363 -0.0848 -0.7151  6.0516
  811MOL0     H 9454   2.792   5.437  13.349 -0.2425  0.1018 -0.1417
  811MOL0     H 9455   2.877   5.199  13.532  3.6603  1.0899 -0.5519
  811MOL0     H 9456   2.716   5.288  13.537 -0.5411  2.8325 -0.5599
  811MOL0     H 9457   2.904   5.351  13.706  2.0676 -0.2726  0.1241
  811MOL0     H 9458   2.994   5.412  13.571  0.6440 -0.1649  3.0337
  811MOL0     H 9459   2.709   5.500  13.652  1.5197 -4.3896  3.5313
  811MOL0     H 9460   2.819   5.578  13.513  0.7204  0.8647  1.0749
  811MOL0     H 9461   2.858   5.571  13.811 -0.2925  1.6270  0.7519
  811MOL0     H 9462   2.960   5.648  13.688  0.7151 -0.6692 -1.1357
  811MOL0     H 9463   2.666   5.738  13.708 -0.9627  2.3579  2.0288
  811MOL0     H 9464   2.824   5.824  13.676  1.0922 -1.4955  0.3480
  811MOL0     H 9465   2.753   5.912  13.875 -0.5798 -0.0599  2.5398
  811MOL0     H 9466   2.880   5.785  13.920 -0.6907 -2.1416 -0.3643
  811MOL0     H 9467   2.426   5.229  13.189  1.5540  0.7268  0.8556
  811MOL0     H 9468   2.326   5.147  12.962 -0.6185 -3.5220 -0.7694
  811MOL0     H 9469   2.313   5.213  12.464 -0.3618 -0.1648 -2.1206
  811MOL0     H 9470   2.181   5.127  12.290  1.1113 -0.5911 -0.9206
  811MOL0     H 9471   0.556   5.609  11.162 -1.1612 -0.5853 -0.4718
  811MOL0     H 9472   0.316   5.517  11.125 -0.9140 -1.6910  0.5336
  811MOL0     H 9473  -0.135   5.315  11.479 -0.4176 -2.8121  1.8960
  811MOL0     H 9474  -0.325   5.210  11.416  1.8542 -1.1937  1.7376
  811MOL0     H 9475  -0.327   5.064  10.987 -2.8046  3.0006  0.1447
  811MOL0     H 9476  -0.324   4.896  11.056 -0.8334  0.1212 -0.2704
  811MOL0     H 9477  -0.522   4.952  10.914  1.3781 -3.6269 -0.1953
  811MOL0     H 9478  -0.564   5.075  11.030  2.2164  0.2216  0.3551
  811MOL0     H 9479  -0.694   4.887  11.124 -0.2297 -1.4479 -0.5546
  811MOL0     H 9480  -0.551   4.872  11.223  2.3943 -3.7832 -0.6367
  811MOL0     H 9481  -0.439   4.722  11.073  0.1807 -0.7878  0.4974
  811MOL0     H 9482  -0.589   4.705  10.981 -0.2653 -1.2800  1.0663
  811MOL0     H 9483  -0.724   4.498  11.330 -0.0397 -1.1274 -1.5824
  811MOL0     H 9484  -0.102   5.030  11.092  1.8617  0.1220  0.9197
  811MOL0     H 9485   0.092   5.157  11.157  1.6273 -1.1998  3.9902
  812MOL0     O 9486   7.788  10.724   4.078 -0.0729  0.3697 -0.0266
  812MOL0     C 9487   7.739  10.814   4.148 -0.2969  0.4248  0.3207
  812MOL0     O 9488   7.625  10.806   4.224 -0.4894 -0.7073  1.3900
  812MOL0     C 9489   7.566  10.691   4.251 -0.2392 -0.4284 -0.2297
  812MOL0     C 9490   7.434  10.669   4.245  0.4126 -0.4010  0.2689
  812MOL0     C 9491   7.382  10.546   4.296  0.6906  0.8767 -0.9760
  812MOL0     C 9492   7.459  10.441   4.365  1.5137  0.1895  0.5338
  812MOL0     O 9493   7.406  10.325   4.413  0.2289 -1.0434 -0.1412
  812MOL0     C 9494   7.263  10.300   4.433  0.2500  0.1149  0.0525
  812MOL0     C 9495   7.248  10.184   4.534 -0.2043  0.5265  0.4321
  812MOL0     C 9496   7.106  10.172   4.579 -0.1775  0.5259 -0.3289
  812MOL0     C 9497   7.011  10.113   4.484 -0.2752  0.6064  0.1040
  812MOL0     C 9498   6.904  10.037   4.565  0.2436  0.0312  0.0211
  812MOL0     C 9499   6.786  10.024   4.469  0.6547  1.0809  0.6001
  812MOL0     C 9500   6.677   9.966   4.545  0.9151 -0.8053  0.1000
  812MOL0     C 9501   6.578   9.891   4.444 -0.6307 -0.6899 -0.4205
  812MOL0     N 9502   6.479   9.810   4.506  0.1661  0.2925 -0.2370
  812MOL0     C 9503   6.381   9.744   4.434  0.5950 -0.6210  0.2605
  812MOL0     C 9504   6.290   9.695   4.524 -1.0434  0.1516  0.2656
  812MOL0     C 9505   6.165   9.612   4.489 -0.0034 -0.7492  0.3010
  812MOL0     C 9506   6.168   9.473   4.567 -0.2178  0.2845 -0.8981
  812MOL0     C 9507   6.097   9.491   4.706 -0.7580 -0.0899 -0.2686
  812MOL0     C 9508   6.008   9.371   4.755  0.3434  0.5157 -0.1892
  812MOL0     O 9509   5.932   9.329   4.645  0.4648 -0.4245  0.8177
  812MOL0     C 9510   5.842   9.217   4.652 -1.7359 -0.1073  0.2551
  812MOL0     C 9511   5.777   9.189   4.525  1.2011 -0.5889  0.1273
  812MOL0     C 9512   5.685   9.086   4.510  0.2126  0.7121 -0.0226
  812MOL0     C 9513   5.621   9.076   4.385  0.7812  0.4020  0.3725
  812MOL0     C 9514   5.667   8.996   4.616  0.0157  0.3164  0.6320
  812MOL0     C 9515   5.579   8.873   4.609  0.0480 -0.1983 -0.2305
  812MOL0     O 9516   5.633   8.760   4.666 -0.3549 -0.2913 -1.8624
  812MOL0     C 9517   5.557   8.662   4.716 -0.7859  0.8903 -0.7884
  812MOL0     C 9518   5.446   8.691   4.795  0.2966 -0.6489  0.5935
  812MOL0     C 9519   5.388   8.592   4.876  0.0887 -0.2646 -0.1111
  812MOL0     C 9520   5.454   8.468   4.898 -0.1703  0.3356  0.1407
  812MOL0     O 9521   5.403   8.382   4.986 -0.0450 -0.0258  0.3297
  812MOL0     C 9522   5.495   8.297   5.058 -0.1569 -0.5784  0.1945
  812MOL0     C 9523   5.426   8.251   5.186 -0.2940  0.0585 -0.6777
  812MOL0     C 9524   5.438   8.350   5.305  0.1045 -0.3213 -0.2284
  812MOL0     C 9525   5.487   8.288   5.442  0.5886  0.2409  0.1501
  812MOL0     C 9526   5.574   8.376   5.539  0.2159 -1.0795 -0.1870
  812MOL0     C 9527   5.499   8.499   5.592  0.4605  0.4171 -0.5540
  812MOL0     C 9528   5.375   8.468   5.677 -0.0890 -0.3981 -0.3893
  812MOL0     C 9529   5.323   8.587   5.756 -0.3617  0.3828 -0.5248
  812MOL0    Cl 9530   5.439   8.622   5.882 -0.4760 -0.1820  0.3993
  812MOL0     C 9531   5.567   8.445   4.817  0.0007 -0.6370 -0.2518
  812MOL0     C 9532   5.611   8.531   4.714  0.7528  0.3591  0.4091
  812MOL0     O 9533   5.470   8.879   4.551  0.2586 -0.0930  0.5498
  812MOL0     C 9534   5.739   9.026   4.732 -0.1344  0.2209 -0.1398
  812MOL0     C 9535   5.817   9.138   4.761 -0.1925  0.4241  0.1908
  812MOL0     N 9536   6.347   9.732   4.652  0.8763 -0.1882  0.6432
  812MOL0     N 9537   6.461   9.792   4.637  0.0102  0.4229  0.2312
  812MOL0     C 9538   7.597  10.475   4.368 -0.3893  0.0600  0.3623
  812MOL0     C 9539   7.652  10.596   4.310 -0.0784 -0.5604 -0.9763
  812MOL0     C 9540   7.810  10.946   4.158 -0.0929 -0.8537 -1.0158
  812MOL0     C 9541   7.740  11.053   4.213 -0.2680 -1.0935 -0.4008
  812MOL0     C 9542   7.785  11.183   4.185  0.0776 -0.1237 -0.1220
  812MOL0     C 9543   7.916  11.201   4.139 -0.0098 -0.6757  0.4142
  812MOL0     O 9544   7.983  11.326   4.123  0.2410 -0.2285 -0.2634
  812MOL0     C 9545   7.910  11.447   4.105  0.2293 -0.2536  0.0694
  812MOL0     C 9546   7.882  11.510   4.239  0.4720 -0.9862 -0.7582
  812MOL0     C 9547   7.829  11.660   4.226 -0.3120  0.2821  0.0998
  812MOL0     C 9548   7.843  11.740   4.358 -0.0256 -0.5305  0.0280
  812MOL0     C 9549   7.832  11.891   4.324  0.0249  0.6181 -0.4038
  812MOL0     C 9550   7.825  12.002   4.276  0.5534  0.0408 -0.1281
  812MOL0     C 9551   7.990  11.087   4.112 -0.4457 -0.2521  0.3056
  812MOL0     C 9552   7.943  10.962   4.115 -0.2529 -0.2583 -0.7157
  812MOL0     H 9553   7.364  10.743   4.206  0.6070 -0.7219 -0.6985
  812MOL0     H 9554   7.275  10.531   4.287  0.6293  2.2919 -6.5964
  812MOL0     H 9555   7.211  10.383   4.482  2.3391  1.5382 -0.0554
  812MOL0     H 9556   7.218  10.266   4.339 -0.9665  1.1355  0.2367
  812MOL0     H 9557   7.267  10.086   4.490  1.9914  1.3509 -0.5644
  812MOL0     H 9558   7.327  10.201   4.608  1.0315  0.8829 -0.9288
  812MOL0     H 9559   7.121  10.097   4.657 -2.1719  2.1099  1.6987
  812MOL0     H 9560   7.066  10.266   4.618 -2.1984 -0.5551  0.3125
  812MOL0     H 9561   6.960  10.201   4.443 -0.1338 -0.2055 -1.9261
  812MOL0     H 9562   7.057  10.062   4.399 -2.2811  0.5401 -0.9993
  812MOL0     H 9563   6.946   9.939   4.590 -0.0533 -0.5337 -1.5507
  812MOL0     H 9564   6.876  10.099   4.650  1.0330 -1.3078  1.2993
  812MOL0     H 9565   6.751  10.126   4.450  0.4518  0.4777 -2.8259
  812MOL0     H 9566   6.802   9.981   4.370 -2.0912  1.2046  0.0149
  812MOL0     H 9567   6.698   9.899   4.629 -2.2617  1.2619  2.8281
  812MOL0     H 9568   6.610  10.044   4.583  2.6172  0.0960  1.3391
  812MOL0     H 9569   6.645   9.834   4.379  2.2374 -0.0875  1.7853
  812MOL0     H 9570   6.528   9.967   4.384  2.8791  2.8049  0.6735
  812MOL0     H 9571   6.370   9.711   4.331 -1.0441 -0.4840  0.3638
  812MOL0     H 9572   6.071   9.666   4.504  0.1727 -0.1193 -0.7755
  812MOL0     H 9573   6.158   9.596   4.381 -1.0760 -1.5095  0.4713
  812MOL0     H 9574   6.275   9.450   4.579 -0.4830  0.1329  1.7130
  812MOL0     H 9575   6.124   9.399   4.500  1.5617 -0.0964 -1.7303
  812MOL0     H 9576   6.025   9.572   4.696  0.2904  1.1667  1.6519
  812MOL0     H 9577   6.174   9.516   4.779 -1.7906  0.8085  0.5322
  812MOL0     H 9578   5.933   9.413   4.824  1.2318  3.3615 -0.7944
  812MOL0     H 9579   6.061   9.292   4.808 -0.3894  0.9269  1.1972
  812MOL0     H 9580   5.800   9.248   4.437 -0.3433 -1.4045 -0.8556
  812MOL0     H 9581   5.610   8.969   4.365  2.6825  0.0273  1.1503
  812MOL0     H 9582   5.518   9.114   4.388  0.1506 -1.2107  0.0766
  812MOL0     H 9583   5.675   9.121   4.301 -1.1746 -1.0631 -1.7738
  812MOL0     H 9584   5.410   8.793   4.793 -0.9669 -1.0152 -2.7684
  812MOL0     H 9585   5.298   8.602   4.936  0.1632  3.6258 -0.4105
  812MOL0     H 9586   5.528   8.217   4.991 -1.6172  0.6182 -2.1124
  812MOL0     H 9587   5.583   8.351   5.094 -1.1716  1.7848 -0.6863
  812MOL0     H 9588   5.319   8.233   5.167 -0.0537  1.1786 -3.5381
  812MOL0     H 9589   5.469   8.157   5.222 -0.2362 -0.7711 -2.7735
  812MOL0     H 9590   5.349   8.414   5.308  2.3066  2.9516  2.1082
  812MOL0     H 9591   5.516   8.420   5.271 -0.3148  0.4058  0.2642
  812MOL0     H 9592   5.401   8.249   5.497  1.9951  1.7919  3.7362
  812MOL0     H 9593   5.546   8.198   5.428 -1.0766 -0.7350 -0.9864
  812MOL0     H 9594   5.647   8.421   5.470 -1.0241  1.7076  0.2004
  812MOL0     H 9595   5.623   8.321   5.620  1.5465 -1.0128 -0.9044
  812MOL0     H 9596   5.565   8.567   5.646 -1.1625  1.3956  0.2489
  812MOL0     H 9597   5.466   8.540   5.496 -1.0506 -0.7386 -0.5783
  812MOL0     H 9598   5.387   8.391   5.754 -1.0969 -0.2134 -0.0228
  812MOL0     H 9599   5.303   8.425   5.607  0.7788  0.1505 -1.6332
  812MOL0     H 9600   5.223   8.570   5.798  0.5902  2.3203  2.8945
  812MOL0     H 9601   5.313   8.670   5.687  0.3286  0.9047 -0.0082
  812MOL0     H 9602   5.628   8.356   4.831  0.0951 -0.7734 -1.4166
  812MOL0     H 9603   5.691   8.511   4.644  0.5418  1.1192 -0.0560
  812MOL0     H 9604   5.716   8.972   4.823  0.3083  2.5609  1.4606
  812MOL0     H 9605   5.871   9.159   4.853  0.8137 -4.1368  0.8906
  812MOL0     H 9606   7.666  10.400   4.405  0.7664  0.5166 -0.8165
  812MOL0     H 9607   7.757  10.623   4.313  0.6006 -3.0383  0.2340
  812MOL0     H 9608   7.640  11.035   4.251  0.0964 -0.7804  0.7276
  812MOL0     H 9609   7.727  11.271   4.211 -0.8590 -0.6442 -0.4006
  812MOL0     H 9610   7.957  11.518   4.036  2.4454 -2.2541 -0.6362
  812MOL0     H 9611   7.818  11.427   4.049 -0.0213  0.3957  0.2483
  812MOL0     H 9612   7.974  11.518   4.298 -1.4523  0.6828  2.2515
  812MOL0     H 9613   7.801  11.457   4.291  1.2567 -1.0637  0.4456
  812MOL0     H 9614   7.733  11.658   4.175 -0.0884 -0.7981 -0.3094
  812MOL0     H 9615   7.892  11.704   4.148  2.6618 -0.3232  1.9957
  812MOL0     H 9616   7.937  11.726   4.410  0.0075  1.7827  0.7068
  812MOL0     H 9617   7.752  11.723   4.417 -3.4465  1.7325 -3.9687
  812MOL0     H 9618   7.832  12.098   4.230 -0.3973  0.4950  0.6586
  812MOL0     H 9619   8.090  11.092   4.070 -0.5838 -1.1516 -0.1569
  812MOL0     H 9620   8.014  10.885   4.088  2.7901  0.3527  4.2880
  813MOL0     O 9621   6.972   0.181   1.548 -0.0675  0.1315  0.0601
  813MOL0     C 9622   7.020   0.173   1.662 -0.4979 -0.8191 -0.5393
  813MOL0     O 9623   7.000   0.278   1.757 -0.1469 -0.0331 -0.6014
  813MOL0     C 9624   6.935   0.391   1.709 -0.8714 -0.0351 -0.0758
  813MOL0     C 9625   6.795   0.411   1.737 -0.2454  0.1299  1.2509
  813MOL0     C 9626   6.735   0.534   1.703 -0.1230  0.3456  0.5167
  813MOL0     C 9627   6.816   0.639   1.660  0.2498  0.4111 -0.4316
  813MOL0     O 9628   6.760   0.759   1.597 -0.4400  0.0409  0.4018
  813MOL0     C 9629   6.625   0.757   1.549 -0.1101 -0.1491  0.2796
  813MOL0     C 9630   6.625   0.690   1.413 -0.5110  0.6683 -0.2294
  813MOL0     C 9631   6.476   0.662   1.365 -0.6594  0.0360 -0.1801
  813MOL0     C 9632   6.475   0.686   1.219  0.7949 -1.6095 -0.5764
  813MOL0     C 9633   6.333   0.663   1.159 -0.6168  0.6055  0.5144
  813MOL0     C 9634   6.357   0.621   1.020  0.1490 -0.1043  0.3172
  813MOL0     C 9635   6.235   0.650   0.932  0.6944  0.4282  0.0677
  813MOL0     C 9636   6.233   0.575   0.796 -0.9325  0.7106 -0.7189
  813MOL0     N 9637   6.206   0.431   0.814  0.3865  0.2368 -0.1773
  813MOL0     C 9638   6.246   0.339   0.723 -0.4838  0.1207  0.3512
  813MOL0     C 9639   6.232   0.219   0.774  0.3402  1.2876 -0.2401
  813MOL0     C 9640   6.247   0.075   0.723 -0.2355 -0.7686  0.1587
  813MOL0     C 9641   6.380   0.046   0.651 -0.4939 -0.3496  0.3750
  813MOL0     C 9642   6.408   0.130   0.527  0.0092 -0.2931  0.5036
  813MOL0     C 9643   6.297   0.144   0.421 -0.0729  0.0942 -0.2244
  813MOL0     O 9644   6.287   0.013   0.367 -0.7530 -0.3049  0.1310
  813MOL0     C 9645   6.171  -0.023   0.316 -0.2095 -0.1265 -0.5194
  813MOL0     C 9646   6.075   0.069   0.279 -0.0281  0.1884  0.6199
  813MOL0     C 9647   5.951   0.036   0.223  0.5494 -0.5319 -0.8816
  813MOL0     C 9648   5.854   0.145   0.183 -0.1789 -0.2248  0.0096
  813MOL0     C 9649   5.920  -0.101   0.205  0.4857 -0.2023  0.9652
  813MOL0     C 9650   5.783  -0.154   0.170 -0.1974  0.0485 -0.9469
  813MOL0     O 9651   5.781  -0.295   0.145  0.0013  0.4774 -0.3680
  813MOL0     C 9652   5.671  -0.379   0.172  0.7189 -0.5117  0.6829
  813MOL0     C 9653   5.583  -0.418   0.070 -0.1631 -0.3690  0.0203
  813MOL0     C 9654   5.477  -0.500   0.080 -0.4086 -0.0959  0.2800
  813MOL0     C 9655   5.440  -0.536   0.208  0.6584  0.1591 -1.1237
  813MOL0     O 9656   5.336  -0.625   0.224 -0.2586 -0.2259  0.9062
  813MOL0     C 9657   5.268  -0.621   0.343 -0.6840 -0.0366 -0.4423
  813MOL0     C 9658   5.167  -0.740   0.344  0.2181  0.5320 -0.1131
  813MOL0     C 9659   5.241  -0.863   0.388 -0.4781  0.1430  0.2377
  813MOL0     C 9660   5.182  -0.989   0.329 -0.1286  0.3884 -0.5021
  813MOL0     C 9661   5.046  -1.028   0.370  1.8580  0.7122  0.3093
  813MOL0     C 9662   5.012  -1.139   0.271 -0.6251 -1.0010 -0.6106
  813MOL0     C 9663   4.891  -1.215   0.326  0.1606 -0.6258  0.2851
  813MOL0     C 9664   4.915  -1.301   0.450 -0.0085 -0.6152 -0.7946
  813MOL0    Cl 9665   5.024  -1.433   0.434 -0.0756 -0.1760  0.1270
  813MOL0     C 9666   5.515  -0.489   0.327  0.8227 -0.9899  0.5890
  813MOL0     C 9667   5.628  -0.402   0.299 -0.1697  0.7221  0.8160
  813MOL0     O 9668   5.679  -0.089   0.185 -0.4568 -0.6738 -1.2139
  813MOL0     C 9669   6.020  -0.197   0.235  0.2018 -0.2763 -0.3504
  813MOL0     C 9670   6.138  -0.155   0.289  0.4126  0.3396  0.4300
  813MOL0     N 9671   6.197   0.240   0.910  1.0391  1.3041 -0.6698
  813MOL0     N 9672   6.178   0.369   0.934  0.1900 -0.1002  0.6122
  813MOL0     C 9673   6.955   0.627   1.652  0.6829 -0.8167 -0.4029
  813MOL0     C 9674   7.010   0.506   1.677 -0.2564 -0.6251  0.3093
  813MOL0     C 9675   7.131   0.078   1.689 -1.1536  0.2998  0.6483
  813MOL0     C 9676   7.171  -0.016   1.594  1.3280 -1.1432 -0.2306
  813MOL0     C 9677   7.265  -0.112   1.628  0.9125  0.5946  0.5061
  813MOL0     C 9678   7.323  -0.114   1.752 -0.3024  0.1746 -0.8539
  813MOL0     O 9679   7.391  -0.216   1.815  0.1160  0.0781 -0.3362
  813MOL0     C 9680   7.526  -0.214   1.803 -0.3308  0.4708  0.1268
  813MOL0     C 9681   7.596  -0.249   1.677 -1.0984  0.2706 -0.3992
  813MOL0     C 9682   7.646  -0.393   1.661 -1.1252 -0.0450 -0.9561
  813MOL0     C 9683   7.542  -0.512   1.656 -0.3849 -0.3994 -1.0462
  813MOL0     C 9684   7.466  -0.514   1.537  0.5192 -1.0173  0.2363
  813MOL0     C 9685   7.409  -0.519   1.424  0.4958  0.1608  0.2723
  813MOL0     C 9686   7.288  -0.023   1.848 -1.0734 -0.6904 -0.2414
  813MOL0     C 9687   7.200   0.079   1.813  1.2318 -0.2551 -1.3407
  813MOL0     H 9688   6.740   0.326   1.776 -0.0394 -0.3796  0.4669
  813MOL0     H 9689   6.629   0.555   1.714  0.0252  1.2402  0.2883
  813MOL0     H 9690   6.551   0.707   1.612 -1.6052  4.2208  2.4176
  813MOL0     H 9691   6.585   0.859   1.549 -2.4504 -0.9863  1.4969
  813MOL0     H 9692   6.690   0.759   1.358  0.8933  1.2235  1.9951
  813MOL0     H 9693   6.682   0.600   1.435 -3.2685 -0.5100  3.0733
  813MOL0     H 9694   6.438   0.560   1.371  1.3551 -0.8674 -1.8397
  813MOL0     H 9695   6.411   0.733   1.418  1.6334  0.6962  1.8929
  813MOL0     H 9696   6.503   0.789   1.199 -2.9171  0.2900  2.5708
  813MOL0     H 9697   6.549   0.619   1.175 -0.8845 -3.3574 -0.9012
  813MOL0     H 9698   6.268   0.594   1.212  0.5542  1.0135  2.5812
  813MOL0     H 9699   6.276   0.756   1.153 -1.9916 -0.0398  2.4475
  813MOL0     H 9700   6.430   0.686   0.972 -2.3250  0.9292 -2.2897
  813MOL0     H 9701   6.386   0.517   1.000 -1.6656 -1.0974  2.3281
  813MOL0     H 9702   6.145   0.622   0.987  1.4724 -1.9645  0.2325
  813MOL0     H 9703   6.240   0.756   0.908  2.5073  0.1584 -0.9412
  813MOL0     H 9704   6.337   0.586   0.764  0.2223 -0.7457  2.1057
  813MOL0     H 9705   6.163   0.618   0.724 -3.0652  0.8483  1.2996
  813MOL0     H 9706   6.260   0.365   0.619 -1.3465 -3.2409 -0.7213
  813MOL0     H 9707   6.249   0.024   0.820 -0.7310 -3.2319 -1.0616
  813MOL0     H 9708   6.163   0.052   0.658  0.7176 -1.9187 -0.7100
  813MOL0     H 9709   6.384  -0.062   0.636  2.3026 -0.2286 -0.3156
  813MOL0     H 9710   6.461   0.056   0.724 -0.2931 -1.0350  0.2524
  813MOL0     H 9711   6.494   0.085   0.475  1.1770 -0.4775  2.4661
  813MOL0     H 9712   6.458   0.222   0.557 -0.2153 -1.1280  3.7695
  813MOL0     H 9713   6.321   0.212   0.339  1.1768  0.5411  0.4895
  813MOL0     H 9714   6.211   0.183   0.476  0.1854 -2.2976  2.0656
  813MOL0     H 9715   6.086   0.177   0.284  1.1442  0.1294 -0.1686
  813MOL0     H 9716   5.835   0.126   0.077 -1.0401 -0.6081  0.2174
  813MOL0     H 9717   5.761   0.139   0.241  0.0741 -0.4959  0.3931
  813MOL0     H 9718   5.904   0.238   0.211  2.2096 -0.4885 -2.9827
  813MOL0     H 9719   5.610  -0.397  -0.034  1.0743 -2.3936 -0.1267
  813MOL0     H 9720   5.450  -0.548  -0.014  4.5710 -1.0937 -0.9413
  813MOL0     H 9721   5.330  -0.633   0.432  0.1282  0.1128 -0.9750
  813MOL0     H 9722   5.218  -0.525   0.360 -1.5588 -1.1581  4.8753
  813MOL0     H 9723   5.085  -0.714   0.412  0.4781  0.2654  0.3095
  813MOL0     H 9724   5.116  -0.753   0.248 -2.5050 -0.3895  1.3442
  813MOL0     H 9725   5.236  -0.876   0.496  2.4884 -2.3726  0.2249
  813MOL0     H 9726   5.344  -0.860   0.351 -0.7761 -1.1034 -0.7671
  813MOL0     H 9727   5.200  -0.973   0.222  0.2192  0.1229 -0.4847
  813MOL0     H 9728   5.257  -1.064   0.358  0.6136  2.2021  2.8281
  813MOL0     H 9729   4.963  -0.956   0.372  0.1623 -1.1388  2.8296
  813MOL0     H 9730   5.039  -1.066   0.473 -0.8302 -0.2731 -0.1347
  813MOL0     H 9731   4.993  -1.106   0.168  0.3491  2.6172  0.2092
  813MOL0     H 9732   5.098  -1.206   0.264 -2.5871 -3.7674 -0.0594
  813MOL0     H 9733   4.841  -1.281   0.254  2.2352 -2.4871  0.4488
  813MOL0     H 9734   4.819  -1.135   0.346  1.6672  0.5969  1.0252
  813MOL0     H 9735   4.816  -1.332   0.484 -0.1979  2.8459  2.4462
  813MOL0     H 9736   4.959  -1.246   0.534 -2.0230 -0.8571  0.4783
  813MOL0     H 9737   5.497  -0.525   0.427  0.2510  1.5481  1.4640
  813MOL0     H 9738   5.690  -0.364   0.379  2.9298 -1.0852 -0.5198
  813MOL0     H 9739   6.006  -0.305   0.235  1.7571 -0.5045 -0.5732
  813MOL0     H 9740   6.208  -0.237   0.301 -0.7395 -0.4173  2.2520
  813MOL0     H 9741   6.999   0.716   1.609 -2.0722  0.8478 -0.0032
  813MOL0     H 9742   7.116   0.490   1.658 -0.8444 -5.1160 -0.2955
  813MOL0     H 9743   7.131  -0.025   1.494  1.0492  1.9176 -0.4875
  813MOL0     H 9744   7.287  -0.181   1.548  2.4340  2.6761 -0.9913
  813MOL0     H 9745   7.565  -0.112   1.817  0.8335  0.1502 -0.5910
  813MOL0     H 9746   7.567  -0.284   1.877 -0.1495 -0.6012 -0.9602
  813MOL0     H 9747   7.677  -0.175   1.673 -3.4250  3.3604  2.8450
  813MOL0     H 9748   7.533  -0.219   1.593 -4.0375 -1.6478  0.9450
  813MOL0     H 9749   7.721  -0.412   1.738 -0.3542 -0.7086 -1.8454
  813MOL0     H 9750   7.703  -0.387   1.568  1.2427  2.6463  0.5120
  813MOL0     H 9751   7.473  -0.522   1.741 -1.2786 -0.9243 -1.8041
  813MOL0     H 9752   7.599  -0.605   1.661  0.9585  0.4176 -0.9266
  813MOL0     H 9753   7.349  -0.548   1.340  2.9661  1.3696 -2.0693
  813MOL0     H 9754   7.340  -0.030   1.943 -1.2033 -1.1447 -0.2014
  813MOL0     H 9755   7.176   0.153   1.889 -0.6027 -1.3221 -0.8153
  814MOL0     O 9756   9.976  10.471   7.523  0.1740 -0.4617  0.3524
  814MOL0     C 9757  10.014  10.378   7.455 -0.8434 -0.4370 -0.2165
  814MOL0     O 9758  10.147  10.355   7.428  0.1494 -0.5195 -0.2971
  814MOL0     C 9759  10.248  10.419   7.508  0.6551  0.3882 -0.0791
  814MOL0     C 9760  10.357  10.474   7.436  0.0461  0.6921 -0.8150
  814MOL0     C 9761  10.466  10.529   7.509 -0.7272  0.3556 -0.3634
  814MOL0     C 9762  10.463  10.545   7.647  0.8531 -0.3962  0.0502
  814MOL0     O 9763  10.567  10.588   7.723 -0.2749  0.1849 -0.1538
  814MOL0     C 9764  10.571  10.734   7.733  1.0692  0.7854 -0.5105
  814MOL0     C 9765  10.713  10.768   7.784  0.1373 -0.4788  0.7883
  814MOL0     C 9766  10.712  10.928   7.790 -0.5096  0.7047 -0.4610
  814MOL0     C 9767  10.836  10.972   7.869 -1.0703 -0.1890  0.0053
  814MOL0     C 9768  10.938  11.058   7.789 -0.2494  0.0175  0.1153
  814MOL0     C 9769  10.974  10.994   7.662  0.0586 -0.5047  0.2576
  814MOL0     C 9770  11.075  11.072   7.572 -1.1102 -0.5516  0.3658
  814MOL0     C 9771  11.031  11.199   7.491 -0.5428 -0.0600  0.0989
  814MOL0     N 9772  11.150  11.271   7.432 -0.4557 -0.2653 -0.7881
  814MOL0     C 9773  11.266  11.286   7.493 -0.1138 -0.1193 -0.3728
  814MOL0     C 9774  11.343  11.350   7.405 -0.4309 -1.1467  0.5409
  814MOL0     C 9775  11.487  11.363   7.425 -0.1538  0.6061 -0.3643
  814MOL0     C 9776  11.552  11.430   7.308  0.8910 -0.1283 -0.8623
  814MOL0     C 9777  11.538  11.329   7.179 -0.4622 -0.7631  0.3236
  814MOL0     C 9778  11.623  11.391   7.063 -0.2541 -0.8993 -0.0410
  814MOL0     O 9779  11.681  11.287   6.980 -0.6833 -0.1446  0.2346
  814MOL0     C 9780  11.749  11.333   6.869  0.4073  0.5642  1.1547
  814MOL0     C 9781  11.789  11.459   6.845 -0.0102 -0.2223  0.8201
  814MOL0     C 9782  11.851  11.484   6.718  0.4349 -0.3212 -0.2705
  814MOL0     C 9783  11.889  11.630   6.696  0.9220 -0.4165  0.7599
  814MOL0     C 9784  11.881  11.381   6.619 -0.0484  0.0145 -0.0615
  814MOL0     C 9785  11.959  11.404   6.499  0.7108  0.8356  0.5927
  814MOL0     O 9786  12.026  11.520   6.480  0.3022 -0.0436  0.9838
  814MOL0     C 9787  12.093  11.534   6.359 -0.1853 -0.0732  0.3696
  814MOL0     C 9788  12.225  11.510   6.331 -0.0639 -0.0298 -0.0288
  814MOL0     C 9789  12.268  11.525   6.198 -0.3466 -0.9943  0.3678
  814MOL0     C 9790  12.189  11.581   6.093 -0.1936  0.1598  0.3492
  814MOL0     O 9791  12.222  11.617   5.964 -0.0448 -0.2819  0.4468
  814MOL0     C 9792  12.356  11.619   5.914 -0.6111  1.0475  0.7050
  814MOL0     C 9793  12.368  11.619   5.763  1.0695  0.2988  0.0762
  814MOL0     C 9794  12.245  11.560   5.689  0.9702  0.2270 -0.2171
  814MOL0     C 9795  12.293  11.508   5.554  0.4670 -0.1739  0.8567
  814MOL0     C 9796  12.176  11.495   5.453  0.2635 -0.3049  0.1553
  814MOL0     C 9797  12.239  11.479   5.308  0.9394  0.9075 -0.9851
  814MOL0     C 9798  12.133  11.414   5.222  0.8365 -0.6032  0.6818
  814MOL0     C 9799  12.201  11.328   5.115  0.6752 -0.2105  0.4114
  814MOL0    Cl 9800  12.235  11.176   5.199 -0.4887 -0.0075  0.6173
  814MOL0     C 9801  12.049  11.589   6.122 -0.6156  0.6011  0.0069
  814MOL0     C 9802  12.010  11.569   6.254  0.9548  0.0521  0.1520
  814MOL0     O 9803  11.962  11.307   6.419 -0.2489 -0.0174 -0.3444
  814MOL0     C 9804  11.825  11.258   6.652 -1.0961 -0.5815 -0.9177
  814MOL0     C 9805  11.769  11.227   6.774  0.5414  0.2692 -0.4275
  814MOL0     N 9806  11.261  11.392   7.307 -0.3981 -0.4476  0.6934
  814MOL0     N 9807  11.142  11.353   7.329 -0.3068 -0.3812 -0.0822
  814MOL0     C 9808  10.349  10.502   7.715  0.1571 -0.1260 -0.0412
  814MOL0     C 9809  10.241  10.457   7.644  0.1091  0.2987  0.4776
  814MOL0     C 9810   9.903  10.304   7.396  1.4766  0.1294  0.8222
  814MOL0     C 9811   9.923  10.250   7.263 -0.1293 -0.4891 -0.6591
  814MOL0     C 9812   9.812  10.199   7.186 -0.2548 -0.5351 -0.8043
  814MOL0     C 9813   9.689  10.197   7.241  0.7108  0.4014 -0.0071
  814MOL0     O 9814   9.567  10.163   7.173 -0.6595 -0.9310 -0.1741
  814MOL0     C 9815   9.573  10.084   7.051 -0.0094 -0.2898 -0.2241
  814MOL0     C 9816   9.449  10.017   7.008  0.2895 -1.0777 -0.5582
  814MOL0     C 9817   9.419  10.037   6.859 -0.2882  0.4150 -1.0576
  814MOL0     C 9818   9.275   9.981   6.835  0.3669 -0.3052 -0.5653
  814MOL0     C 9819   9.216   9.998   6.703  0.7009  0.3900  1.2523
  814MOL0     C 9820   9.175   9.998   6.587  0.7963  0.0212 -0.2585
  814MOL0     C 9821   9.673  10.238   7.369  0.2806 -1.1894 -0.2162
  814MOL0     C 9822   9.772  10.302   7.447 -0.8034 -0.3621 -0.7217
  814MOL0     H 9823  10.368  10.463   7.329  4.2528 -0.1085 -0.4681
  814MOL0     H 9824  10.554  10.553   7.450 -0.9803 -2.2413 -1.9579
  814MOL0     H 9825  10.544  10.798   7.648  1.2466  1.6225  0.0488
  814MOL0     H 9826  10.505  10.768   7.813  1.2015  1.4824 -0.6943
  814MOL0     H 9827  10.731  10.712   7.877  0.7828  2.0736  2.2952
  814MOL0     H 9828  10.772  10.741   7.696 -1.9522 -1.8498 -0.2620
  814MOL0     H 9829  10.706  10.968   7.688  2.8385 -4.4415 -3.1184
  814MOL0     H 9830  10.630  10.961   7.855 -0.1980 -1.8928  1.3850
  814MOL0     H 9831  10.800  11.041   7.946  0.4493 -1.0422  1.5509
  814MOL0     H 9832  10.894  10.888   7.909  3.3000  1.6133 -1.9195
  814MOL0     H 9833  10.902  11.159   7.769  2.6335  1.1930  0.3360
  814MOL0     H 9834  11.030  11.073   7.847  2.3894 -3.4286 -2.6752
  814MOL0     H 9835  11.026  10.906   7.700  0.0704  0.7263  3.4198
  814MOL0     H 9836  10.886  10.968   7.603 -0.6913 -3.5373  2.5005
  814MOL0     H 9837  11.155  11.095   7.644 -2.1444 -0.0955  1.4107
  814MOL0     H 9838  11.112  10.993   7.507 -0.7744  0.1628 -0.3291
  814MOL0     H 9839  10.978  11.267   7.558 -2.3877  0.8598 -2.1396
  814MOL0     H 9840  10.949  11.178   7.421 -1.5170  0.0719  1.1730
  814MOL0     H 9841  11.304  11.240   7.584  0.4737 -2.5936 -1.7946
  814MOL0     H 9842  11.495  11.428   7.512 -0.0685  0.9194 -0.6061
  814MOL0     H 9843  11.514  11.259   7.445 -1.7237  0.1614 -0.3713
  814MOL0     H 9844  11.658  11.433   7.333  2.0092 -3.0697 -4.3606
  814MOL0     H 9845  11.525  11.535   7.292  3.2703  1.0537  1.8951
  814MOL0     H 9846  11.439  11.317   7.134  0.9332 -1.0143 -2.9615
  814MOL0     H 9847  11.576  11.229   7.202 -0.6604 -1.0251 -0.4619
  814MOL0     H 9848  11.700  11.461   7.098 -2.8134  3.0394 -1.5780
  814MOL0     H 9849  11.563  11.452   6.994 -0.5809 -1.8225 -0.5946
  814MOL0     H 9850  11.781  11.550   6.905  2.1561  1.8283 -1.7018
  814MOL0     H 9851  11.845  11.666   6.602  0.6040 -1.2335  0.5923
  814MOL0     H 9852  11.846  11.694   6.773 -1.2668 -0.8456 -0.0450
  814MOL0     H 9853  11.998  11.636   6.702  0.9834 -1.7774  1.3155
  814MOL0     H 9854  12.296  11.469   6.402  1.1463 -0.0744 -1.2247
  814MOL0     H 9855  12.376  11.526   6.184 -0.3964 -2.5527 -0.3080
  814MOL0     H 9856  12.407  11.703   5.962 -0.2050  1.5496 -0.5655
  814MOL0     H 9857  12.392  11.523   5.953 -1.4033  0.4441 -0.0050
  814MOL0     H 9858  12.371  11.725   5.736 -1.6272  0.0293 -1.6933
  814MOL0     H 9859  12.461  11.571   5.732 -0.5006 -1.6469 -1.9698
  814MOL0     H 9860  12.164  11.632   5.673  0.6115 -0.1970 -0.3280
  814MOL0     H 9861  12.193  11.475   5.735  0.6143  0.8036  0.4655
  814MOL0     H 9862  12.358  11.584   5.510 -2.6624  1.3737 -1.4873
  814MOL0     H 9863  12.354  11.418   5.563  1.2084  0.0521 -1.2207
  814MOL0     H 9864  12.115  11.584   5.468 -1.3035 -1.8428  4.1177
  814MOL0     H 9865  12.113  11.408   5.474  1.1543 -1.0270 -0.1049
  814MOL0     H 9866  12.260  11.574   5.259 -4.0140  0.4070 -4.8880
  814MOL0     H 9867  12.328  11.415   5.307  0.4918  0.1705 -4.0030
  814MOL0     H 9868  12.069  11.494   5.185  0.5421  1.8210  5.5374
  814MOL0     H 9869  12.054  11.355   5.269 -0.5030 -0.6011 -1.4456
  814MOL0     H 9870  12.295  11.377   5.088  0.0747  1.4081  1.1101
  814MOL0     H 9871  12.142  11.325   5.023  3.9053  1.8638 -1.9670
  814MOL0     H 9872  11.978  11.615   6.045  0.2804  0.5830 -0.8361
  814MOL0     H 9873  11.905  11.581   6.279  1.0213 -2.3635  2.0728
  814MOL0     H 9874  11.825  11.179   6.579 -1.6364  1.0071 -2.7216
  814MOL0     H 9875  11.733  11.127   6.797 -1.1036  0.7258 -0.9385
  814MOL0     H 9876  10.349  10.513   7.823 -0.3241  0.1100 -0.0601
  814MOL0     H 9877  10.150  10.439   7.700 -1.0932 -0.9486 -1.7331
  814MOL0     H 9878  10.022  10.263   7.222 -0.2992  1.7725 -0.4828
  814MOL0     H 9879   9.829  10.170   7.082  1.9061 -0.7587 -0.4306
  814MOL0     H 9880   9.612  10.145   6.969  2.4239 -1.6232 -0.1765
  814MOL0     H 9881   9.646  10.003   7.068  2.0234  0.5172 -4.0378
  814MOL0     H 9882   9.372  10.069   7.066 -0.0939  0.0517 -2.0272
  814MOL0     H 9883   9.443   9.910   7.029  2.6459 -1.7855 -2.9885
  814MOL0     H 9884   9.489   9.981   6.796 -0.4082 -1.1318  0.1449
  814MOL0     H 9885   9.422  10.140   6.823 -1.8423  0.1575 -1.9925
  814MOL0     H 9886   9.205  10.024   6.906 -0.9537 -2.4479 -0.5069
  814MOL0     H 9887   9.266   9.874   6.854 -3.8950 -0.4515 -2.3286
  814MOL0     H 9888   9.142   9.989   6.485 -0.3688 -0.9593  0.1808
  814MOL0     H 9889   9.570  10.231   7.404 -0.6164 -1.3693 -2.7049
  814MOL0     H 9890   9.741  10.338   7.545 -1.7935 -0.8102 -0.8673
  815MOL0     O 9891   8.636  10.091   8.255  0.2419 -0.1304 -0.4926
  815MOL0     C 9892   8.627   9.971   8.287 -0.6640  0.6534 -0.0125
  815MOL0     O 9893   8.616   9.865   8.201  0.0282 -0.2702  0.0911
  815MOL0     C 9894   8.642   9.892   8.065 -0.4675 -0.0294 -0.5613
  815MOL0     C 9895   8.776   9.862   8.013  0.2805  0.6954  0.0403
  815MOL0     C 9896   8.801   9.876   7.877  0.4886 -0.1957  1.2493
  815MOL0     C 9897   8.703   9.925   7.787  0.5108  0.3118  0.8236
  815MOL0     O 9898   8.751   9.918   7.660 -0.0033  0.4356 -0.2164
  815MOL0     C 9899   8.661   9.873   7.556 -0.6157  0.1740 -0.2996
  815MOL0     C 9900   8.672   9.966   7.430  0.5537 -0.1913 -0.0961
  815MOL0     C 9901   8.655   9.880   7.299  0.7694  0.3197  0.0593
  815MOL0     C 9902   8.527   9.788   7.306 -0.2867  0.2367 -0.7863
  815MOL0     C 9903   8.528   9.681   7.201 -0.4672  0.1125 -0.2239
  815MOL0     C 9904   8.394   9.610   7.204 -0.2796  0.6669 -0.2988
  815MOL0     C 9905   8.350   9.580   7.065 -0.4958  0.0491  0.3958
  815MOL0     C 9906   8.201   9.610   7.060 -0.3557 -0.7551 -0.6799
  815MOL0     N 9907   8.155   9.624   6.914 -0.1097  0.3130 -0.0020
  815MOL0     C 9908   8.191   9.718   6.812 -1.3068 -0.3174 -0.2172
  815MOL0     C 9909   8.119   9.679   6.702  0.2751 -0.4577  0.4290
  815MOL0     C 9910   8.128   9.740   6.559  0.3374  0.0195  0.0073
  815MOL0     C 9911   8.184   9.640   6.450 -0.2195  0.5839  0.5833
  815MOL0     C 9912   8.234   9.695   6.308 -0.1616  0.5491  0.4664
  815MOL0     C 9913   8.360   9.642   6.271 -1.3404  0.4836  0.1856
  815MOL0     O 9914   8.416   9.694   6.156 -0.2124  0.0845 -0.2907
  815MOL0     C 9915   8.526   9.776   6.181  0.5493  0.6359  0.7409
  815MOL0     C 9916   8.518   9.892   6.258 -0.8145  0.3148  1.2805
  815MOL0     C 9917   8.629   9.977   6.261  0.8480 -0.0514  0.6615
  815MOL0     C 9918   8.608  10.109   6.335 -0.0292  0.1023 -0.6251
  815MOL0     C 9919   8.746   9.943   6.189  1.6158  0.0404  0.0984
  815MOL0     C 9920   8.866  10.029   6.190  0.1791 -0.5435  0.3911
  815MOL0     O 9921   8.914  10.072   6.075 -0.2636  0.4052 -0.6670
  815MOL0     C 9922   9.048  10.118   6.054  0.2886 -0.5814 -0.3969
  815MOL0     C 9923   9.064  10.205   5.951  0.1602  0.4855  0.2557
  815MOL0     C 9924   9.190  10.261   5.926  0.5020  0.3561 -0.2999
  815MOL0     C 9925   9.304  10.228   6.008 -1.1550 -1.4681  0.3758
  815MOL0     O 9926   9.440  10.276   5.985 -0.0507 -0.3685 -0.2144
  815MOL0     C 9927   9.470  10.396   5.904 -0.5375 -0.2075 -0.3801
  815MOL0     C 9928   9.461  10.364   5.751  0.8376  0.4657 -0.1770
  815MOL0     C 9929   9.592  10.336   5.670  1.1585 -0.5494  0.2546
  815MOL0     C 9930   9.695  10.449   5.705  0.8125 -0.4381 -1.1136
  815MOL0     C 9931   9.808  10.465   5.602  0.3426 -0.1880  0.8090
  815MOL0     C 9932   9.895  10.594   5.603  1.0455 -0.9011 -0.9772
  815MOL0     C 9933   9.821  10.723   5.562 -0.4917  0.4080 -0.4635
  815MOL0     C 9934   9.918  10.833   5.573 -0.2469  0.3361 -0.3332
  815MOL0    Cl 9935   9.823  10.986   5.576 -0.4640 -0.0993 -0.3530
  815MOL0     C 9936   9.275  10.144   6.110 -0.6568 -0.3857  0.0941
  815MOL0     C 9937   9.153  10.093   6.138  1.0127  0.1729  0.8794
  815MOL0     O 9938   8.916  10.055   6.302 -0.4716  0.3721  0.8556
  815MOL0     C 9939   8.748   9.820   6.108 -0.7569 -0.4906  0.4213
  815MOL0     C 9940   8.632   9.749   6.107  0.7830  0.9782  0.2492
  815MOL0     N 9941   8.063   9.560   6.731 -0.6475 -0.0870  0.1622
  815MOL0     N 9942   8.090   9.529   6.852 -0.5330  0.2482  0.3162
  815MOL0     C 9943   8.578   9.972   7.836  0.0035  0.1417  0.1092
  815MOL0     C 9944   8.550   9.949   7.973  0.2224  0.3928 -0.4670
  815MOL0     C 9945   8.587   9.948   8.429  0.0196 -0.7834  0.0937
  815MOL0     C 9946   8.583  10.056   8.529 -0.0275  0.1893  0.7685
  815MOL0     C 9947   8.545  10.023   8.664 -0.0681  0.5774 -1.7078
  815MOL0     C 9948   8.506   9.892   8.700  0.5562  0.0964 -0.0338
  815MOL0     O 9949   8.460   9.843   8.827 -0.1750 -0.5654  0.5457
  815MOL0     C 9950   8.439   9.940   8.920  0.1049 -0.8403  0.2160
  815MOL0     C 9951   8.360   9.903   9.041 -0.1741 -0.4414 -0.2742
  815MOL0     C 9952   8.224   9.870   8.995 -0.1675 -0.0871 -0.1374
  815MOL0     C 9953   8.125   9.812   9.104 -0.4905 -0.5092  0.1679
  815MOL0     C 9954   7.996   9.867   9.066 -0.0798 -0.0825 -0.2494
  815MOL0     C 9955   7.883   9.917   9.050  0.4899  0.3243 -0.2971
  815MOL0     C 9956   8.498   9.797   8.599 -0.1880 -0.1508  0.7576
  815MOL0     C 9957   8.530   9.825   8.464 -0.3357  0.9426  1.2464
  815MOL0     H 9958   8.855   9.817   8.072 -0.7020  0.4878  1.2308
  815MOL0     H 9959   8.898   9.842   7.841  0.0086 -0.9137  0.6313
  815MOL0     H 9960   8.708   9.780   7.524  3.6620  1.8252  0.5545
  815MOL0     H 9961   8.556   9.875   7.589 -1.2682  1.1573 -2.2810
  815MOL0     H 9962   8.597  10.045   7.441 -0.2362 -0.8271 -0.8178
  815MOL0     H 9963   8.765  10.023   7.426 -0.4445  1.4707 -1.7723
  815MOL0     H 9964   8.640   9.945   7.213 -0.9775 -1.7996 -1.3557
  815MOL0     H 9965   8.745   9.819   7.286  0.4015 -1.4991  4.2513
  815MOL0     H 9966   8.518   9.740   7.404  1.3710  1.4260  0.0115
  815MOL0     H 9967   8.446   9.861   7.297 -0.5937  0.5195  2.8725
  815MOL0     H 9968   8.552   9.718   7.101  2.2800 -4.1269 -1.3764
  815MOL0     H 9969   8.610   9.620   7.237  0.1436 -0.0770 -1.8812
  815MOL0     H 9970   8.401   9.513   7.255 -0.1627 -0.1650 -1.8318
  815MOL0     H 9971   8.324   9.675   7.258 -0.2513 -2.1911  3.6178
  815MOL0     H 9972   8.386   9.658   6.998 -3.3798  0.3492 -0.9546
  815MOL0     H 9973   8.390   9.483   7.032  2.5274  0.8323  1.4428
  815MOL0     H 9974   8.170   9.692   7.124 -1.9756 -2.0944  0.3435
  815MOL0     H 9975   8.154   9.517   7.096 -0.5089 -0.0054  1.1637
  815MOL0     H 9976   8.262   9.800   6.826  0.8409 -2.3999  2.2233
  815MOL0     H 9977   8.029   9.768   6.522 -0.4638 -4.0017 -1.3833
  815MOL0     H 9978   8.190   9.830   6.565 -0.8225  0.9125 -0.9880
  815MOL0     H 9979   8.111   9.561   6.429  0.9193 -0.7905  1.6180
  815MOL0     H 9980   8.265   9.582   6.494  0.7435 -1.2532 -3.1966
  815MOL0     H 9981   8.238   9.804   6.316  0.4988  0.6569 -0.9885
  815MOL0     H 9982   8.169   9.678   6.222  2.1987  0.3337 -1.3856
  815MOL0     H 9983   8.347   9.535   6.251  0.0172  0.7975 -3.1600
  815MOL0     H 9984   8.424   9.660   6.357 -1.3190  2.2887 -0.1654
  815MOL0     H 9985   8.423   9.909   6.308 -0.3785 -1.5506  2.8423
  815MOL0     H 9986   8.525  10.168   6.297  1.0557  2.4022  0.3808
  815MOL0     H 9987   8.592  10.086   6.441  1.2678  0.6756 -0.2789
  815MOL0     H 9988   8.693  10.178   6.328 -0.2050  0.7219  2.3022
  815MOL0     H 9989   8.968  10.222   5.903  1.2312 -0.5890 -2.4485
  815MOL0     H 9990   9.192  10.337   5.849 -1.3142  2.8567  1.9414
  815MOL0     H 9991   9.399  10.476   5.929  2.9004  2.2865  2.3390
  815MOL0     H 9992   9.568  10.435   5.931 -1.6316  3.6755 -1.4553
  815MOL0     H 9993   9.407  10.270   5.735 -1.0206  1.1852  1.4008
  815MOL0     H 9994   9.415  10.444   5.692 -0.3428 -0.1462 -0.1134
  815MOL0     H 9995   9.575  10.339   5.562 -2.1779 -0.7807  0.6614
  815MOL0     H 9996   9.620  10.232   5.691 -0.7625 -1.4285 -1.2645
  815MOL0     H 9997   9.641  10.544   5.703  2.3749  0.5520  0.7877
  815MOL0     H 9998   9.734  10.434   5.806 -1.8879 -0.2252  0.0521
  815MOL0     H 9999   9.762  10.453   5.503 -0.9376 -0.8042  1.4610
  815MOL0     H10000   9.876  10.383   5.626  0.4850 -0.4396 -0.3818
  815MOL0     H10001   9.933  10.612   5.704  0.7849 -0.1929 -0.9992
  815MOL0     H10002   9.982  10.576   5.540 -0.2023 -3.7277 -2.0594
  815MOL0     H10003   9.740  10.741   5.633 -1.7414 -2.4222 -1.0296
  815MOL0     H10004   9.780  10.708   5.462 -1.3412 -2.0978  0.1851
  815MOL0     H10005   9.982  10.830   5.484  1.2624 -2.4219  0.7261
  815MOL0     H10006   9.969  10.812   5.667  1.1997 -0.0726 -1.1837
  815MOL0     H10007   9.361  10.116   6.170 -0.9530 -1.9663 -0.1779
  815MOL0     H10008   9.145  10.033   6.229 -1.9721  0.6651  1.0297
  815MOL0     H10009   8.830   9.792   6.043 -1.2106 -0.8047 -0.0242
  815MOL0     H10010   8.631   9.668   6.035 -1.6656  2.5415 -1.6448
  815MOL0     H10011   8.500  10.009   7.770 -1.5025 -0.5876  1.3765
  815MOL0     H10012   8.447   9.970   7.999 -0.6250 -3.5108 -0.0572
  815MOL0     H10013   8.613  10.159   8.513  1.2103 -0.0971  1.1197
  815MOL0     H10014   8.551  10.097   8.743 -0.1879  0.5059 -1.6330
  815MOL0     H10015   8.528   9.996   8.950 -2.0607  2.0041  1.9002
  815MOL0     H10016   8.378  10.019   8.875 -1.5714 -1.5819  1.0953
  815MOL0     H10017   8.362   9.980   9.119  1.2794 -1.9702  1.2492
  815MOL0     H10018   8.412   9.810   9.065  1.9420  1.3599  2.8151
  815MOL0     H10019   8.228   9.802   8.910  0.0049  0.2152 -0.3677
  815MOL0     H10020   8.189   9.964   8.953 -0.9446  0.1040  0.8943
  815MOL0     H10021   8.152   9.843   9.205  0.9482  0.1225 -0.3794
  815MOL0     H10022   8.127   9.703   9.096  2.9158 -0.6415  1.2222
  815MOL0     H10023   7.792   9.970   9.037 -0.0398 -0.7828 -1.3255
  815MOL0     H10024   8.452   9.702   8.624 -2.1777  0.9321  1.4490
  815MOL0     H10025   8.525   9.745   8.391 -0.3835  1.9926  0.0730
  816MOL0     O10026  11.230   3.807   5.682 -0.7403  0.8212  0.4783
  816MOL0     C10027  11.135   3.877   5.637  0.3291  0.4717  0.2337
  816MOL0     O10028  11.152   3.990   5.565 -0.2500 -0.4623  0.5936
  816MOL0     C10029  11.284   4.037   5.545  1.2784  1.1616  1.0118
  816MOL0     C10030  11.355   3.988   5.427  0.0035 -0.4440  0.9056
  816MOL0     C10031  11.481   4.030   5.403 -1.3032 -0.3543  0.5077
  816MOL0     C10032  11.552   4.094   5.502  0.2020 -0.2609 -0.9117
  816MOL0     O10033  11.687   4.120   5.505  1.3813  0.1990 -0.4454
  816MOL0     C10034  11.767   4.071   5.394  0.2213  1.4796  0.4706
  816MOL0     C10035  11.924   4.097   5.401 -0.6877 -0.3162 -0.7641
  816MOL0     C10036  12.007   4.080   5.273  0.9234 -0.3294 -1.0588
  816MOL0     C10037  11.949   4.193   5.177  0.7133 -0.4026 -0.0350
  816MOL0     C10038  12.073   4.235   5.095 -1.1395 -0.2609  0.5519
  816MOL0     C10039  12.058   4.316   4.963 -0.0440  0.3496  0.0441
  816MOL0     C10040  11.966   4.440   4.978  0.6990  0.8957  0.7821
  816MOL0     C10041  11.828   4.439   4.919  0.3106 -0.2860 -0.4690
  816MOL0     N10042  11.844   4.458   4.768  0.5607  0.2365 -0.8119
  816MOL0     C10043  11.845   4.358   4.676 -0.4344 -1.2426 -0.1555
  816MOL0     C10044  11.910   4.411   4.575  0.1609  0.1859  1.1522
  816MOL0     C10045  11.948   4.344   4.446 -0.6378  0.8351 -0.6113
  816MOL0     C10046  11.833   4.327   4.358 -0.1464 -0.5710  0.4220
  816MOL0     C10047  11.862   4.214   4.249 -0.8550 -0.1813  0.0874
  816MOL0     C10048  11.726   4.143   4.247 -0.9442 -0.5872 -0.1247
  816MOL0     O10049  11.711   4.050   4.359  0.0504  0.9347 -0.7053
  816MOL0     C10050  11.582   3.998   4.385  0.1736 -1.1027  0.7539
  816MOL0     C10051  11.546   3.952   4.505 -0.4080 -0.2896 -0.0099
  816MOL0     C10052  11.425   3.902   4.555  0.0926 -0.2393 -0.0177
  816MOL0     C10053  11.412   3.881   4.702  0.4691 -0.5359 -0.0196
  816MOL0     C10054  11.321   3.878   4.448 -0.0031 -0.4749  0.1242
  816MOL0     C10055  11.181   3.834   4.469 -0.1510 -0.5897  1.3652
  816MOL0     O10056  11.103   3.836   4.348  0.8087  0.2913 -0.7785
  816MOL0     C10057  10.971   3.838   4.340  0.2173 -0.6991  0.3788
  816MOL0     C10058  10.895   3.756   4.406 -0.4899  1.2134 -0.8048
  816MOL0     C10059  10.760   3.748   4.374  0.0665 -0.4289 -0.2317
  816MOL0     C10060  10.705   3.810   4.263  0.2503  0.2870  1.3709
  816MOL0     O10061  10.580   3.785   4.220  0.6503  0.3194 -0.6223
  816MOL0     C10062  10.492   3.709   4.311  0.1381  0.0955  0.3943
  816MOL0     C10063  10.511   3.554   4.289 -0.2700  0.1939 -0.8721
  816MOL0     C10064  10.464   3.512   4.151 -0.6425  0.1121  0.1354
  816MOL0     C10065  10.314   3.478   4.167  1.1611  0.5612 -1.7611
  816MOL0     C10066  10.242   3.475   4.032  0.1671 -0.0292  0.2389
  816MOL0     C10067  10.307   3.380   3.927 -0.3759  0.4285 -0.6671
  816MOL0     C10068  10.310   3.233   3.968 -0.1491 -0.8591 -0.6956
  816MOL0     C10069  10.362   3.155   3.855  0.1414 -0.3468  0.0199
  816MOL0    Cl10070  10.533   3.166   3.840 -0.1094  0.8831  0.0014
  816MOL0     C10071  10.785   3.886   4.191 -0.6327 -0.0974  0.1336
  816MOL0     C10072  10.916   3.906   4.234  0.2898 -0.5235 -0.4777
  816MOL0     O10073  11.146   3.790   4.577  0.3662 -0.3017  1.1658
  816MOL0     C10074  11.362   3.921   4.318  0.7409 -0.4312  0.1094
  816MOL0     C10075  11.488   3.970   4.287  0.7633  0.2370 -0.8242
  816MOL0     N10076  11.919   4.550   4.593  0.0190  0.4560  0.1666
  816MOL0     N10077  11.877   4.578   4.710  0.1985 -1.0092 -0.2351
  816MOL0     C10078  11.487   4.131   5.621 -0.2512  0.4729 -0.1073
  816MOL0     C10079  11.355   4.096   5.645 -0.0944  1.1077 -0.1306
  816MOL0     C10080  10.995   3.817   5.657 -1.4159 -0.0741  0.9282
  816MOL0     C10081  10.980   3.702   5.734  0.4593 -0.2711 -0.4554
  816MOL0     C10082  10.840   3.673   5.756  0.1994  0.4037  0.4455
  816MOL0     C10083  10.732   3.736   5.706  0.9615 -0.3649 -0.2737
  816MOL0     O10084  10.604   3.688   5.737 -0.2958 -1.2284 -0.1186
  816MOL0     C10085  10.506   3.801   5.751 -0.8504 -0.7297  0.8541
  816MOL0     C10086  10.369   3.771   5.694  1.3025  0.0130  0.0717
  816MOL0     C10087  10.369   3.735   5.539  0.4641 -0.4809  0.6101
  816MOL0     C10088  10.247   3.651   5.500 -1.0768 -0.1718 -0.0896
  816MOL0     C10089  10.115   3.698   5.550  0.5286  0.5948  0.1663
  816MOL0     C10090  10.004   3.734   5.590  0.2841  0.2939  0.6332
  816MOL0     C10091  10.759   3.827   5.605 -0.5932  0.6087 -1.3542
  816MOL0     C10092  10.886   3.880   5.593  0.3041  0.3289 -0.8432
  816MOL0     H10093  11.303   3.935   5.347  3.0853 -1.1446 -0.7789
  816MOL0     H10094  11.535   4.001   5.313 -3.0191  0.9488 -1.0136
  816MOL0     H10095  11.749   3.963   5.383  0.8880  1.5642 -2.5510
  816MOL0     H10096  11.734   4.133   5.310 -1.8880  0.7554  0.7166
  816MOL0     H10097  11.930   4.202   5.430 -1.6871 -0.5971  0.5404
  816MOL0     H10098  11.979   4.046   5.480  0.6322  1.2868 -0.5879
  816MOL0     H10099  12.109   4.106   5.304  0.7077 -2.1676  1.5668
  816MOL0     H10100  11.995   3.982   5.226 -0.9464  0.8556 -3.2704
  816MOL0     H10101  11.880   4.154   5.103  1.5902  0.9410 -1.6283
  816MOL0     H10102  11.905   4.283   5.221  2.7766  1.2381 -1.1395
  816MOL0     H10103  12.128   4.294   5.169 -2.2302 -2.9850  3.8041
  816MOL0     H10104  12.147   4.155   5.080 -0.7367 -0.2060  2.1013
  816MOL0     H10105  12.157   4.350   4.931  0.9233 -1.7648  0.5933
  816MOL0     H10106  12.030   4.239   4.890  1.4297 -0.6797  0.5223
  816MOL0     H10107  11.971   4.474   5.082  2.1222  1.0341  0.6858
  816MOL0     H10108  12.025   4.514   4.925  2.3727  0.6453  2.2051
  816MOL0     H10109  11.773   4.526   4.957  0.7117 -0.0290 -0.4669
  816MOL0     H10110  11.770   4.352   4.949 -1.3471  0.7503 -0.5463
  816MOL0     H10111  11.809   4.258   4.699 -1.2576 -0.6978  0.9732
  816MOL0     H10112  12.026   4.394   4.389  2.5132 -2.0134  0.7952
  816MOL0     H10113  11.985   4.244   4.470  0.2601  0.5402 -3.0055
  816MOL0     H10114  11.794   4.424   4.327 -0.9573  0.3614  3.9030
  816MOL0     H10115  11.755   4.298   4.430 -1.3996  2.3422  0.3798
  816MOL0     H10116  11.942   4.147   4.282  1.2663  2.6805  1.1506
  816MOL0     H10117  11.886   4.263   4.154  1.1195 -0.8650  0.1726
  816MOL0     H10118  11.725   4.070   4.165  1.0874 -0.9117  0.0814
  816MOL0     H10119  11.651   4.222   4.239  1.1818  1.3475 -4.0478
  816MOL0     H10120  11.618   3.975   4.583  0.8203  2.1037 -1.7183
  816MOL0     H10121  11.422   3.775   4.727  0.4711 -0.5232  0.0324
  816MOL0     H10122  11.490   3.939   4.753  1.3150 -1.6892  0.0359
  816MOL0     H10123  11.314   3.912   4.738  0.4171 -1.2097  0.4169
  816MOL0     H10124  10.941   3.692   4.482  1.3754 -0.2906 -3.0508
  816MOL0     H10125  10.703   3.681   4.437 -0.3464  2.1649  2.3711
  816MOL0     H10126  10.509   3.743   4.414  0.3272  0.3971  0.2660
  816MOL0     H10127  10.392   3.731   4.273 -0.2827 -1.4141  0.5595
  816MOL0     H10128  10.617   3.529   4.301 -0.4368  0.3738  1.3804
  816MOL0     H10129  10.448   3.494   4.355 -0.2100  2.1163  1.0305
  816MOL0     H10130  10.521   3.421   4.132  0.6517 -0.5986  5.8349
  816MOL0     H10131  10.491   3.593   4.082  3.0822 -0.8332  0.2855
  816MOL0     H10132  10.312   3.377   4.209 -0.7941  1.4224  0.3723
  816MOL0     H10133  10.251   3.531   4.238 -1.6142 -5.5734  1.0731
  816MOL0     H10134  10.248   3.576   3.990  3.7982 -0.1264  0.1539
  816MOL0     H10135  10.139   3.449   4.059  0.6093  2.1384  5.1921
  816MOL0     H10136  10.252   3.393   3.833  1.4031 -2.8031 -2.3401
  816MOL0     H10137  10.411   3.409   3.905  1.3869 -2.6448  2.6069
  816MOL0     H10138  10.205   3.216   3.995  0.2160 -0.9067  0.7668
  816MOL0     H10139  10.365   3.206   4.058  0.9198 -1.7284 -1.5717
  816MOL0     H10140  10.312   3.190   3.764  0.1782  0.9921  0.4809
  816MOL0     H10141  10.334   3.054   3.884  0.0257  0.0736  1.4188
  816MOL0     H10142  10.745   3.928   4.099  1.7282 -1.2082 -1.5130
  816MOL0     H10143  10.978   3.977   4.181  1.1845 -2.3197 -1.9718
  816MOL0     H10144  11.283   3.928   4.244  0.0996  0.8794  0.8782
  816MOL0     H10145  11.509   3.995   4.183 -0.3050 -2.6411 -1.8223
  816MOL0     H10146  11.538   4.197   5.691 -0.2275 -0.0222  0.3426
  816MOL0     H10147  11.296   4.132   5.728  2.3041  3.3984  0.7041
  816MOL0     H10148  11.062   3.640   5.767  2.1822 -0.0346 -3.8420
  816MOL0     H10149  10.824   3.589   5.823 -0.0245  1.6192  1.9500
  816MOL0     H10150  10.506   3.835   5.855 -0.8835  3.1453 -0.2609
  816MOL0     H10151  10.538   3.892   5.699 -0.4419 -0.8228  0.9458
  816MOL0     H10152  10.299   3.855   5.707 -0.8196 -1.3996 -1.4538
  816MOL0     H10153  10.325   3.688   5.751 -2.9793  0.4030 -2.2041
  816MOL0     H10154  10.453   3.667   5.526  0.7421 -0.6102  2.6691
  816MOL0     H10155  10.381   3.826   5.480  2.6873 -0.4323  1.0540
  816MOL0     H10156  10.268   3.555   5.547  0.4971  0.4900  0.6116
  816MOL0     H10157  10.242   3.638   5.391 -2.1657  2.4820 -0.4546
  816MOL0     H10158   9.906   3.758   5.624 -0.7680 -1.2885 -1.1012
  816MOL0     H10159  10.678   3.880   5.556  1.1354  2.0916 -2.7216
  816MOL0     H10160  10.898   3.967   5.529 -0.9721 -0.0118 -1.5898
  817MOL0     O10161   8.847   5.673   1.264 -0.2689  0.5571 -0.2519
  817MOL0     C10162   8.905   5.589   1.329  0.2539  0.3694  0.2509
  817MOL0     O10163   9.039   5.560   1.308 -0.0311  0.3989  0.2080
  817MOL0     C10164   9.125   5.654   1.251 -0.3070  0.7995  0.0968
  817MOL0     C10165   9.147   5.787   1.296 -0.6852  0.4742 -0.6110
  817MOL0     C10166   9.222   5.868   1.210 -0.0541 -0.0535  0.6714
  817MOL0     C10167   9.280   5.836   1.093 -0.0313  0.5695 -0.4179
  817MOL0     O10168   9.349   5.940   1.031  0.3470  0.0453  0.0774
  817MOL0     C10169   9.357   5.941   0.888 -0.2677 -0.0201 -0.7980
  817MOL0     C10170   9.451   6.058   0.842  0.6738  0.9455 -0.6018
  817MOL0     C10171   9.575   6.008   0.773 -0.7156  0.3437 -0.6262
  817MOL0     C10172   9.637   6.110   0.674 -0.0426  0.6711 -0.2189
  817MOL0     C10173   9.664   6.241   0.738 -0.3837 -0.4083  0.0692
  817MOL0     C10174   9.774   6.325   0.667 -0.5957 -0.4987 -0.1262
  817MOL0     C10175   9.736   6.377   0.528  0.3004  0.3318  0.2460
  817MOL0     C10176   9.704   6.534   0.528 -0.2125  0.0215  0.1529
  817MOL0     N10177   9.661   6.584   0.393 -0.4383 -0.3820 -0.2903
  817MOL0     C10178   9.536   6.578   0.348 -0.4054  0.4401 -0.4894
  817MOL0     C10179   9.546   6.605   0.219 -0.6616  0.2330 -0.6599
  817MOL0     C10180   9.432   6.631   0.125  1.3308 -1.0348 -0.1771
  817MOL0     C10181   9.314   6.522   0.119 -0.4184  0.5355 -0.7841
  817MOL0     C10182   9.366   6.384   0.062 -0.3975 -0.2656  0.3764
  817MOL0     C10183   9.273   6.269   0.095 -0.8872  0.2191  0.0524
  817MOL0     O10184   9.289   6.239   0.231  0.2372 -0.3980 -0.2166
  817MOL0     C10185   9.233   6.121   0.272  0.0585 -0.9829 -0.6076
  817MOL0     C10186   9.158   6.033   0.191  0.6141  0.1027 -0.3530
  817MOL0     C10187   9.090   5.933   0.255 -1.4319  0.3380 -0.8189
  817MOL0     C10188   9.011   5.849   0.162  0.4977 -0.4784  0.3904
  817MOL0     C10189   9.125   5.899   0.395  0.3816  0.4610 -0.2158
  817MOL0     C10190   9.063   5.785   0.472  0.4007 -0.1055 -0.6894
  817MOL0     O10191   9.109   5.777   0.595 -0.5388  1.0246 -0.3493
  817MOL0     C10192   9.074   5.669   0.675 -0.9959  0.4699 -0.0292
  817MOL0     C10193   9.147   5.554   0.660  0.7389 -0.2770  0.1509
  817MOL0     C10194   9.118   5.441   0.747  0.1381 -0.8962  0.0485
  817MOL0     C10195   9.023   5.454   0.849 -0.2756 -0.4709 -0.1140
  817MOL0     O10196   8.996   5.350   0.935 -0.4680  0.6659 -0.0771
  817MOL0     C10197   8.878   5.344   1.013  0.1342 -1.3214 -0.1684
  817MOL0     C10198   8.840   5.199   1.040 -0.0294 -0.0608  0.0422
  817MOL0     C10199   8.700   5.190   1.101 -0.3551  0.0339  0.4148
  817MOL0     C10200   8.636   5.048   1.082 -0.8834  0.1854 -0.5381
  817MOL0     C10201   8.505   5.028   1.158 -0.5086 -0.6990  0.0422
  817MOL0     C10202   8.453   4.882   1.138 -0.0685 -0.4133 -0.2662
  817MOL0     C10203   8.433   4.857   0.984 -0.8412 -0.0596  0.0278
  817MOL0     C10204   8.562   4.774   0.937 -0.2048  0.3947  0.4462
  817MOL0    Cl10205   8.524   4.699   0.776 -0.2218 -0.3578  0.6155
  817MOL0     C10206   8.945   5.572   0.858  0.1884 -1.2645 -0.3572
  817MOL0     C10207   8.975   5.678   0.771  0.7291  0.6818 -0.3001
  817MOL0     O10208   8.989   5.706   0.415  0.0304 -0.4742 -0.4507
  817MOL0     C10209   9.222   5.977   0.468 -0.2136 -0.6436  0.9094
  817MOL0     C10210   9.262   6.090   0.404  0.3106  0.7595  0.0459
  817MOL0     N10211   9.684   6.612   0.187 -0.2281 -0.0619  0.1245
  817MOL0     N10212   9.749   6.587   0.295  0.0652 -0.1290 -0.1823
  817MOL0     C10213   9.267   5.707   1.050  0.9092  0.0232 -0.2268
  817MOL0     C10214   9.187   5.617   1.126  0.2674  0.3785  0.4206
  817MOL0     C10215   8.834   5.503   1.432 -0.6398  0.1491 -0.3316
  817MOL0     C10216   8.695   5.514   1.457  0.6548 -0.1450 -0.5899
  817MOL0     C10217   8.620   5.430   1.541  0.0162 -0.3330 -0.5472
  817MOL0     C10218   8.689   5.320   1.599 -0.2983  0.0794  0.9542
  817MOL0     O10219   8.623   5.225   1.676  0.5003 -0.2616 -0.0391
  817MOL0     C10220   8.495   5.256   1.734 -0.5959  0.3334  0.3332
  817MOL0     C10221   8.409   5.182   1.627  0.3583  0.5226 -0.1881
  817MOL0     C10222   8.265   5.224   1.658 -0.9135  0.8621  1.0353
  817MOL0     C10223   8.148   5.165   1.580  0.1740 -1.8190  0.6466
  817MOL0     C10224   8.169   5.203   1.441 -0.3241 -0.0325 -1.1381
  817MOL0     C10225   8.178   5.236   1.326  1.0067 -0.8538 -0.6615
  817MOL0     C10226   8.830   5.304   1.564  0.0019 -0.5710 -0.0689
  817MOL0     C10227   8.897   5.403   1.493 -0.2536  0.7592  0.4839
  817MOL0     H10228   9.095   5.833   1.379 -1.8856 -2.9270  0.7133
  817MOL0     H10229   9.222   5.974   1.234 -1.9292  0.1268  0.0867
  817MOL0     H10230   9.387   5.847   0.841  0.3599  1.3263 -3.3027
  817MOL0     H10231   9.252   5.952   0.860 -0.6948  0.0668  0.7645
  817MOL0     H10232   9.385   6.115   0.776 -1.8945 -1.8438 -0.6938
  817MOL0     H10233   9.478   6.127   0.923  3.3281 -1.1098  0.3885
  817MOL0     H10234   9.651   5.999   0.852  0.1223  1.3065 -1.2928
  817MOL0     H10235   9.570   5.911   0.723  2.6280  0.2670 -1.0644
  817MOL0     H10236   9.731   6.069   0.637  0.1260  0.8866 -0.0356
  817MOL0     H10237   9.575   6.119   0.584  0.7094 -0.0059 -0.8229
  817MOL0     H10238   9.571   6.298   0.745 -0.4670  0.0261 -3.1271
  817MOL0     H10239   9.706   6.216   0.836  3.0952 -4.5126 -2.1276
  817MOL0     H10240   9.792   6.417   0.725 -2.9073  1.5359 -2.3748
  817MOL0     H10241   9.865   6.264   0.666 -1.2875 -1.6539  1.8669
  817MOL0     H10242   9.817   6.375   0.454  2.0066 -0.8703  2.0590
  817MOL0     H10243   9.646   6.328   0.491  1.1776 -0.4617 -0.8905
  817MOL0     H10244   9.791   6.592   0.562 -0.3606 -0.2499  1.0217
  817MOL0     H10245   9.623   6.561   0.596  0.5855  0.9306  0.7806
  817MOL0     H10246   9.440   6.566   0.397 -1.1869  2.7540 -1.3291
  817MOL0     H10247   9.388   6.725   0.161 -2.2004 -2.3606 -0.6832
  817MOL0     H10248   9.464   6.649   0.022 -2.7610  1.1005 -1.3143
  817MOL0     H10249   9.228   6.552   0.059 -0.5282 -0.4880 -1.1567
  817MOL0     H10250   9.280   6.513   0.223  1.9983  0.5935  0.0942
  817MOL0     H10251   9.468   6.362   0.094  0.0006  3.4675  2.1509
  817MOL0     H10252   9.372   6.399  -0.046 -1.5743  1.3805  0.5078
  817MOL0     H10253   9.296   6.192   0.021  1.6684 -0.1724  1.1164
  817MOL0     H10254   9.169   6.297   0.077 -0.7549  2.7090  2.4308
  817MOL0     H10255   9.142   6.068   0.089  1.8051 -0.4454 -0.7442
  817MOL0     H10256   9.083   5.770   0.140  1.4413  0.1572  1.1116
  817MOL0     H10257   8.922   5.799   0.200 -0.2084 -0.5479 -1.3014
  817MOL0     H10258   8.977   5.903   0.073  1.1639 -0.6032  0.0489
  817MOL0     H10259   9.222   5.541   0.583 -0.2974 -0.3742 -0.8561
  817MOL0     H10260   9.178   5.354   0.721  1.0723  0.0095 -0.9383
  817MOL0     H10261   8.901   5.384   1.112 -1.0219  0.8872 -0.7145
  817MOL0     H10262   8.794   5.400   0.970  0.8984 -0.3486 -0.4258
  817MOL0     H10263   8.834   5.148   0.943  0.7532  0.7035 -0.4145
  817MOL0     H10264   8.910   5.156   1.112 -0.4905 -1.8446 -0.5300
  817MOL0     H10265   8.629   5.261   1.057 -1.4225 -1.6351 -0.6834
  817MOL0     H10266   8.699   5.221   1.206 -1.8359  0.2985  0.3440
  817MOL0     H10267   8.627   5.029   0.975 -0.9326  0.6826 -0.6237
  817MOL0     H10268   8.707   4.972   1.115 -1.8199  0.0251  1.2370
  817MOL0     H10269   8.428   5.100   1.128 -1.0525 -2.0869 -2.1199
  817MOL0     H10270   8.530   5.043   1.263  2.6527 -0.2936 -0.6622
  817MOL0     H10271   8.520   4.804   1.178  0.1006 -0.2260 -0.1842
  817MOL0     H10272   8.357   4.867   1.189 -0.1396 -0.7377 -0.4905
  817MOL0     H10273   8.413   4.954   0.939 -1.1164 -0.5165 -0.8620
  817MOL0     H10274   8.348   4.790   0.967 -1.1806  0.6980 -1.3215
  817MOL0     H10275   8.592   4.702   1.014  3.8722 -0.0418 -1.2708
  817MOL0     H10276   8.654   4.832   0.924  1.4803 -2.2858 -0.4289
  817MOL0     H10277   8.866   5.593   0.930  1.1600  0.2212  0.3294
  817MOL0     H10278   8.913   5.766   0.784  1.0351  1.0690 -1.3461
  817MOL0     H10279   9.257   5.975   0.571  0.3043 -0.1691  0.7478
  817MOL0     H10280   9.328   6.164   0.449 -1.1564  2.2671 -0.1600
  817MOL0     H10281   9.304   5.681   0.951  1.8598 -1.2279  0.4360
  817MOL0     H10282   9.166   5.521   1.080 -1.3826  1.8476 -2.1960
  817MOL0     H10283   8.646   5.602   1.416 -1.8596 -0.1986  1.9906
  817MOL0     H10284   8.517   5.461   1.555 -0.2144 -1.2790 -0.0627
  817MOL0     H10285   8.488   5.220   1.837 -0.3201  1.7345  0.8496
  817MOL0     H10286   8.475   5.363   1.738  0.3154  0.5794 -1.0615
  817MOL0     H10287   8.425   5.074   1.632  1.3118  0.7083  1.9497
  817MOL0     H10288   8.425   5.209   1.522  2.2931  0.7262  0.1226
  817MOL0     H10289   8.257   5.333   1.648  1.8448  1.8601  6.0206
  817MOL0     H10290   8.242   5.206   1.763 -0.9139 -1.9736  0.6266
  817MOL0     H10291   8.055   5.215   1.608  0.9804  1.0094 -1.2077
  817MOL0     H10292   8.140   5.058   1.597 -2.5923 -1.7414  0.2917
  817MOL0     H10293   8.145   5.298   1.245  3.4348  2.8072  0.8394
  817MOL0     H10294   8.900   5.231   1.605  1.2488  0.1577 -0.8264
  817MOL0     H10295   9.003   5.380   1.483 -0.6959 -1.2341  0.0764
  818MOL0     O10296   6.531   3.981   0.120 -0.1071  0.6521  0.3206
  818MOL0     C10297   6.448   3.897   0.145  0.5264 -0.2243 -0.2730
  818MOL0     O10298   6.394   3.797   0.060  0.0670  0.8419  0.0331
  818MOL0     C10299   6.458   3.808  -0.062 -0.4147 -0.3119  0.2815
  818MOL0     C10300   6.384   3.852  -0.170 -0.0907 -0.7842  0.4111
  818MOL0     C10301   6.439   3.844  -0.299  0.0454  0.3657  0.0805
  818MOL0     C10302   6.560   3.786  -0.326  1.0622  0.0193  0.0212
  818MOL0     O10303   6.605   3.754  -0.446  0.0800  0.4239 -0.2492
  818MOL0     C10304   6.534   3.786  -0.556  0.9736  0.2522  0.5016
  818MOL0     C10305   6.617   3.725  -0.676  0.5635  0.5452 -0.1641
  818MOL0     C10306   6.678   3.836  -0.769  0.0775  1.2733 -0.4299
  818MOL0     C10307   6.582   3.888  -0.873  0.2514  0.5703 -0.2105
  818MOL0     C10308   6.623   4.016  -0.945  0.2660 -0.4379  1.1361
  818MOL0     C10309   6.759   4.000  -1.017 -0.4549 -0.2843  0.2407
  818MOL0     C10310   6.784   4.112  -1.115  0.9073  1.3096 -0.1372
  818MOL0     C10311   6.924   4.078  -1.195  0.9891  0.2510 -0.5346
  818MOL0     N10312   6.981   4.205  -1.229 -0.0649 -0.3452 -0.1101
  818MOL0     C10313   6.920   4.287  -1.317  1.3514  0.6334 -0.2967
  818MOL0     C10314   7.012   4.382  -1.351 -0.0213  0.1580  0.1416
  818MOL0     C10315   7.007   4.502  -1.439 -0.1673 -0.4702 -0.8804
  818MOL0     C10316   6.903   4.609  -1.411 -0.5937  0.7014  0.6680
  818MOL0     C10317   6.769   4.565  -1.466  0.5740 -0.5139  0.7179
  818MOL0     C10318   6.661   4.661  -1.446  0.2596  0.0522 -0.4505
  818MOL0     O10319   6.671   4.759  -1.558  0.2009  0.3022 -0.8518
  818MOL0     C10320   6.599   4.875  -1.560 -0.3517 -0.7930 -0.1111
  818MOL0     C10321   6.634   4.978  -1.649  0.1121  0.6510 -0.0734
  818MOL0     C10322   6.555   5.089  -1.667 -0.9960 -0.1638  0.2647
  818MOL0     C10323   6.598   5.184  -1.775  0.6143  0.6747  0.8004
  818MOL0     C10324   6.432   5.099  -1.591  0.6216 -0.6340 -0.0965
  818MOL0     C10325   6.335   5.216  -1.601 -0.1305  0.3674 -0.2793
  818MOL0     O10326   6.351   5.310  -1.694 -0.5863 -0.3382  0.4463
  818MOL0     C10327   6.265   5.412  -1.736  0.4922  0.2422  0.1542
  818MOL0     C10328   6.279   5.458  -1.870  0.3980  0.4647  0.1390
  818MOL0     C10329   6.184   5.544  -1.922 -0.3049  0.6220  0.8021
  818MOL0     C10330   6.077   5.597  -1.851 -0.1761 -0.5285 -0.1129
  818MOL0     O10331   5.990   5.691  -1.908  0.4236 -1.0340  0.3771
  818MOL0     C10332   6.019   5.833  -1.895  0.3728  0.7449  0.3154
  818MOL0     C10333   5.889   5.904  -1.899  0.6130 -0.3955  0.5851
  818MOL0     C10334   5.813   5.907  -2.033  0.5194  0.1147  0.1311
  818MOL0     C10335   5.692   6.005  -2.015 -0.2417  0.3947  0.0015
  818MOL0     C10336   5.656   6.057  -2.156  0.3749  0.8436 -1.3492
  818MOL0     C10337   5.549   6.166  -2.142 -0.7761 -0.7094 -0.5492
  818MOL0     C10338   5.582   6.298  -2.066  0.6504  0.5858 -0.5573
  818MOL0     C10339   5.469   6.398  -2.108 -0.1191 -0.6720  0.5396
  818MOL0    Cl10340   5.517   6.469  -2.282 -0.1450 -0.1520 -0.1908
  818MOL0     C10341   6.063   5.551  -1.722  0.1662 -0.5454 -1.1619
  818MOL0     C10342   6.156   5.467  -1.664 -0.0926  0.5505 -0.5247
  818MOL0     O10343   6.252   5.226  -1.509  0.1356  0.5961  1.7641
  818MOL0     C10344   6.395   4.995  -1.499 -0.6649 -0.1706  0.9442
  818MOL0     C10345   6.482   4.896  -1.475 -0.1882  0.9994 -0.2520
  818MOL0     N10346   7.130   4.333  -1.300  0.4313  0.4822 -0.2825
  818MOL0     N10347   7.113   4.234  -1.216  0.8927  0.7017 -0.3581
  818MOL0     C10348   6.640   3.754  -0.218  0.0675  0.1796  0.1072
  818MOL0     C10349   6.589   3.763  -0.085 -0.4058  0.5085  1.2069
  818MOL0     C10350   6.396   3.892   0.286 -0.1762  0.1776  0.1306
  818MOL0     C10351   6.415   3.996   0.377  0.3149 -0.2049 -0.3334
  818MOL0     C10352   6.380   3.973   0.510  0.5708  1.5537 -0.0004
  818MOL0     C10353   6.321   3.852   0.551  0.7614  0.3507 -0.8596
  818MOL0     O10354   6.256   3.859   0.671 -0.4364  0.8056 -0.6854
  818MOL0     C10355   6.320   3.780   0.777  0.1726  0.3439 -0.0162
  818MOL0     C10356   6.268   3.841   0.911  0.1148  0.3256  0.6668
  818MOL0     C10357   6.344   3.758   1.014 -0.8511 -0.6095  0.4383
  818MOL0     C10358   6.307   3.768   1.157  0.0689  0.0206 -0.1608
  818MOL0     C10359   6.174   3.707   1.169 -0.0841 -0.1544 -0.9269
  818MOL0     C10360   6.071   3.652   1.202  0.0690  0.8923  0.2614
  818MOL0     C10361   6.307   3.744   0.460  0.1060  0.3919 -0.7142
  818MOL0     C10362   6.337   3.766   0.324 -0.0069 -1.4260  0.1498
  818MOL0     H10363   6.288   3.901  -0.166  0.7783  1.0074  0.3911
  818MOL0     H10364   6.383   3.896  -0.377  2.0874  5.7411  1.7373
  818MOL0     H10365   6.444   3.723  -0.552  1.5910 -0.6955 -0.2132
  818MOL0     H10366   6.512   3.893  -0.557 -1.4663 -0.1128  2.9413
  818MOL0     H10367   6.695   3.662  -0.632  0.2502  0.1005 -0.2329
  818MOL0     H10368   6.542   3.671  -0.736 -0.1367  2.7258 -1.3702
  818MOL0     H10369   6.701   3.925  -0.710 -2.6816  4.2084 -3.3928
  818MOL0     H10370   6.778   3.805  -0.802  1.0201  1.9980  1.5423
  818MOL0     H10371   6.548   3.818  -0.949 -0.8128  1.5921 -0.7181
  818MOL0     H10372   6.495   3.931  -0.823 -0.1441  0.2185 -0.5935
  818MOL0     H10373   6.552   4.025  -1.028  1.2517  0.0118  0.3147
  818MOL0     H10374   6.618   4.111  -0.891 -0.8248  2.1994 -3.1111
  818MOL0     H10375   6.845   3.985  -0.950 -0.4187 -3.7356 -0.3887
  818MOL0     H10376   6.756   3.911  -1.080 -1.5398 -0.1153  0.0410
  818MOL0     H10377   6.701   4.098  -1.186 -0.6475 -1.2650  1.9989
  818MOL0     H10378   6.773   4.205  -1.060  0.4634  0.0051  2.1047
  818MOL0     H10379   6.909   4.014  -1.283  0.7332 -0.3276 -0.0803
  818MOL0     H10380   6.998   4.021  -1.138 -0.9856 -3.5898 -1.4644
  818MOL0     H10381   6.818   4.276  -1.354  2.0548 -3.9242 -1.5265
  818MOL0     H10382   7.111   4.534  -1.428  0.2339 -2.4149  2.4161
  818MOL0     H10383   6.988   4.453  -1.534  2.7668 -2.7216 -0.4690
  818MOL0     H10384   6.947   4.700  -1.452  0.3401 -0.0874 -0.1101
  818MOL0     H10385   6.880   4.621  -1.304 -0.9088  2.4968  0.4266
  818MOL0     H10386   6.728   4.489  -1.398 -2.6526 -0.5011 -1.0046
  818MOL0     H10387   6.780   4.517  -1.564  1.4698  0.7479  0.1798
  818MOL0     H10388   6.675   4.704  -1.346 -0.3102 -1.2450  0.2126
  818MOL0     H10389   6.561   4.617  -1.444 -0.6010  1.8970  1.7181
  818MOL0     H10390   6.724   4.975  -1.710  2.2178 -3.9788  2.6778
  818MOL0     H10391   6.686   5.158  -1.835 -2.1117  0.4434 -3.6044
  818MOL0     H10392   6.514   5.186  -1.845  0.3509  0.5590  1.1102
  818MOL0     H10393   6.608   5.286  -1.737 -2.2623  0.2521  3.0852
  818MOL0     H10394   6.361   5.417  -1.929 -0.9376  0.1678 -1.5954
  818MOL0     H10395   6.191   5.553  -2.030 -0.3485 -2.7231  0.4094
  818MOL0     H10396   6.068   5.864  -1.802 -1.3792  1.1842  1.1356
  818MOL0     H10397   6.081   5.864  -1.979 -0.4389  6.6830  1.4909
  818MOL0     H10398   5.826   5.858  -1.823  0.4411  3.6292  3.1818
  818MOL0     H10399   5.913   6.006  -1.865 -1.9908  0.3073  0.5360
  818MOL0     H10400   5.795   5.804  -2.066  2.5373  0.2359 -1.5543
  818MOL0     H10401   5.883   5.937  -2.112  2.1394 -1.8259  0.7424
  818MOL0     H10402   5.620   5.952  -1.953  0.1435  1.0523  1.0358
  818MOL0     H10403   5.715   6.092  -1.953 -1.1451  2.0344 -1.8177
  818MOL0     H10404   5.604   5.976  -2.208 -1.3240  1.1863 -0.2601
  818MOL0     H10405   5.742   6.096  -2.211  1.9837 -0.6935 -0.0573
  818MOL0     H10406   5.522   6.205  -2.240 -2.1087  0.8738  0.3919
  818MOL0     H10407   5.462   6.129  -2.088 -0.5328 -1.7914 -0.8663
  818MOL0     H10408   5.681   6.330  -2.100  0.9601  2.5946  1.9716
  818MOL0     H10409   5.583   6.279  -1.958 -2.7902 -1.4266 -0.7280
  818MOL0     H10410   5.476   6.478  -2.034  1.7999 -0.0116 -0.3079
  818MOL0     H10411   5.374   6.346  -2.094 -0.6405 -0.3638 -1.5085
  818MOL0     H10412   5.990   5.594  -1.654 -0.1776 -0.8341 -1.3465
  818MOL0     H10413   6.145   5.430  -1.562 -1.2894  0.8808 -0.5292
  818MOL0     H10414   6.299   4.997  -1.449 -3.1175  1.4310 -3.3158
  818MOL0     H10415   6.462   4.826  -1.394  1.3543  2.5662  1.5530
  818MOL0     H10416   6.743   3.720  -0.228  0.9490  2.3801  0.9840
  818MOL0     H10417   6.648   3.734   0.002  0.2943  1.4258  1.0570
  818MOL0     H10418   6.467   4.081   0.333 -1.9563  1.1455 -0.5891
  818MOL0     H10419   6.392   4.046   0.590  0.9238 -0.2898  1.7089
  818MOL0     H10420   6.288   3.676   0.768 -0.5217  0.4826  0.6646
  818MOL0     H10421   6.428   3.787   0.765  0.2548 -0.1797  0.4030
  818MOL0     H10422   6.162   3.817   0.918  0.5033 -2.4454 -1.1360
  818MOL0     H10423   6.289   3.948   0.906 -1.1900  0.5748  0.2555
  818MOL0     H10424   6.453   3.761   1.007 -0.8117  0.9431  1.2183
  818MOL0     H10425   6.317   3.656   0.986  1.8635 -0.6466 -2.5678
  818MOL0     H10426   6.304   3.871   1.195 -0.4763 -0.0506  0.0068
  818MOL0     H10427   6.370   3.708   1.222 -1.7506 -0.7764  0.9582
  818MOL0     H10428   5.980   3.596   1.218 -0.1757  1.5766  1.3703
  818MOL0     H10429   6.259   3.653   0.494  2.6480 -1.0426 -0.7195
  818MOL0     H10430   6.335   3.676   0.264  2.5664 -0.6362 -1.2541
  819MOL0     O10431   9.497   6.023  10.981  0.0269 -0.3349  0.2535
  819MOL0     C10432   9.578   6.088  11.050  0.6428  0.1090 -0.0687
  819MOL0     O10433   9.594   6.069  11.181 -0.5665 -0.1825 -0.2808
  819MOL0     C10434   9.525   5.983  11.267 -0.2967 -0.5487 -0.3455
  819MOL0     C10435   9.517   6.011  11.404 -0.2643 -0.0464  0.1455
  819MOL0     C10436   9.461   5.928  11.502  0.2538 -0.4534 -0.1265
  819MOL0     C10437   9.412   5.806  11.464  0.5081 -0.1776  0.2452
  819MOL0     O10438   9.366   5.707  11.553  0.2314 -0.2894  0.1927
  819MOL0     C10439   9.432   5.695  11.677  0.2975  0.7928 -0.8316
  819MOL0     C10440   9.431   5.554  11.734 -1.6785 -0.6421  0.9619
  819MOL0     C10441   9.279   5.526  11.761 -0.3398 -0.2334  0.4048
  819MOL0     C10442   9.254   5.381  11.812  0.3271 -0.7712 -0.0897
  819MOL0     C10443   9.109   5.365  11.872  1.0481 -0.1143 -0.1876
  819MOL0     C10444   9.073   5.212  11.863 -0.6666  0.0894 -0.4478
  819MOL0     C10445   9.137   5.121  11.972 -0.4011 -0.5127 -0.0560
  819MOL0     C10446   9.055   4.990  12.005 -0.5760  0.1058 -0.7030
  819MOL0     N10447   9.130   4.910  12.112 -0.0907 -0.7927  0.7534
  819MOL0     C10448   9.148   4.951  12.245  0.7957 -0.2116  0.0066
  819MOL0     C10449   9.250   4.881  12.296  0.4218  0.1569 -0.3005
  819MOL0     C10450   9.310   4.887  12.428  0.7666 -0.6485 -0.1427
  819MOL0     C10451   9.197   4.853  12.523 -0.8589  0.0021  0.2407
  819MOL0     C10452   9.250   4.839  12.668  0.1862  0.1442  0.1656
  819MOL0     C10453   9.135   4.769  12.756 -0.3122  0.6885 -0.8036
  819MOL0     O10454   9.013   4.838  12.736  1.2271 -0.2446 -0.3018
  819MOL0     C10455   8.913   4.802  12.825  1.2591 -0.4246 -0.3822
  819MOL0     C10456   8.884   4.871  12.944 -0.2552 -0.3056  0.5113
  819MOL0     C10457   8.759   4.854  13.005  0.0905  0.4620 -0.2991
  819MOL0     C10458   8.728   4.931  13.138 -0.4471  0.6796 -0.4199
  819MOL0     C10459   8.672   4.758  12.959  0.0584  0.4569  0.3321
  819MOL0     C10460   8.533   4.728  13.026 -0.0655 -0.1202 -0.3121
  819MOL0     O10461   8.501   4.751  13.163 -0.6870 -0.3172  0.2164
  819MOL0     C10462   8.378   4.723  13.210  0.0305 -0.1459  0.2240
  819MOL0     C10463   8.266   4.758  13.144  0.2297  0.1536  0.4493
  819MOL0     C10464   8.141   4.723  13.186  0.6708 -0.0424  0.1246
  819MOL0     C10465   8.121   4.647  13.293  0.6512 -0.0331  0.2767
  819MOL0     O10466   7.997   4.608  13.336 -0.3146  0.1415  0.2327
  819MOL0     C10467   7.926   4.521  13.250  0.9418 -0.3670 -0.5723
  819MOL0     C10468   7.979   4.384  13.242 -0.0953 -0.4539 -0.0256
  819MOL0     C10469   8.009   4.315  13.380  0.1641 -0.1971  0.3678
  819MOL0     C10470   7.885   4.305  13.460 -0.4968 -0.4754  0.5701
  819MOL0     C10471   7.903   4.185  13.556  0.0455  1.0405 -0.9846
  819MOL0     C10472   7.789   4.174  13.661 -0.3669  1.2090 -0.6606
  819MOL0     C10473   7.817   4.044  13.751  0.1552 -0.0267  0.5119
  819MOL0     C10474   7.745   4.019  13.880  0.4141 -0.7569  1.1491
  819MOL0    Cl10475   7.823   3.884  13.961 -0.0158 -0.0829 -0.4949
  819MOL0     C10476   8.234   4.599  13.358  0.1242 -0.1881  0.2062
  819MOL0     C10477   8.363   4.639  13.322  0.3791  0.5114 -0.7698
  819MOL0     O10478   8.452   4.678  12.950  0.5184  0.1816  0.4214
  819MOL0     C10479   8.703   4.683  12.844  0.2944  1.0514 -0.3411
  819MOL0     C10480   8.827   4.704  12.783 -0.4089  0.2127  0.7575
  819MOL0     N10481   9.282   4.789  12.200  0.0291  1.1681 -0.3383
  819MOL0     N10482   9.225   4.816  12.089 -1.1896  0.5780  0.5317
  819MOL0     C10483   9.416   5.776  11.331 -0.0592 -0.8649  0.4014
  819MOL0     C10484   9.475   5.859  11.234 -0.4889 -0.5784 -0.1583
  819MOL0     C10485   9.638   6.201  10.989 -0.5602 -0.5143 -0.0777
  819MOL0     C10486   9.594   6.237  10.863  0.2370 -0.1433 -0.4915
  819MOL0     C10487   9.637   6.356  10.799  0.6236 -0.7059  0.0034
  819MOL0     C10488   9.725   6.441  10.864 -0.8848 -0.8992  1.1323
  819MOL0     O10489   9.792   6.547  10.806  0.4598  0.0423 -0.0075
  819MOL0     C10490   9.721   6.620  10.712  0.3864 -0.1555  0.4833
  819MOL0     C10491   9.808   6.695  10.612  0.1088 -0.9118 -0.6312
  819MOL0     C10492   9.726   6.764  10.503  0.0078 -0.2297  0.5392
  819MOL0     C10493   9.681   6.655  10.406  0.1156 -0.3072  0.6407
  819MOL0     C10494   9.787   6.578  10.341  0.1847 -0.1307  0.0526
  819MOL0     C10495   9.883   6.524  10.284 -0.4287 -0.0469 -0.0881
  819MOL0     C10496   9.776   6.409  10.990 -0.1885 -0.1521  0.0325
  819MOL0     C10497   9.724   6.291  11.054 -0.2839  0.4808 -0.9263
  819MOL0     H10498   9.548   6.109  11.440  1.1212 -0.8500  1.2338
  819MOL0     H10499   9.439   5.952  11.605 -2.7858 -3.5772  0.1275
  819MOL0     H10500   9.540   5.714  11.677  0.3401  0.5662 -1.1761
  819MOL0     H10501   9.376   5.748  11.755 -0.9685  0.1230 -1.2516
  819MOL0     H10502   9.481   5.481  11.670  1.5154 -1.0810  3.6802
  819MOL0     H10503   9.479   5.552  11.833 -1.2179 -3.0311  0.7447
  819MOL0     H10504   9.239   5.600  11.830 -3.8983 -0.5641 -1.0723
  819MOL0     H10505   9.228   5.540  11.665 -0.3553 -0.4197  0.3841
  819MOL0     H10506   9.270   5.315  11.727  1.8948  0.0213 -0.4490
  819MOL0     H10507   9.328   5.344  11.884  2.3137  2.8369 -0.0308
  819MOL0     H10508   9.115   5.402  11.975  2.5110  0.0789 -0.3300
  819MOL0     H10509   9.038   5.429  11.819  3.3728  3.1672  0.3541
  819MOL0     H10510   8.964   5.216  11.870 -0.6203  3.8391  0.3611
  819MOL0     H10511   9.092   5.165  11.766 -0.9006  2.0157 -1.4834
  819MOL0     H10512   9.234   5.081  11.943  0.1956  1.1279 -0.3771
  819MOL0     H10513   9.138   5.189  12.058 -1.4176  0.4951 -0.8113
  819MOL0     H10514   9.032   4.938  11.911 -2.8358  0.4447 -0.3953
  819MOL0     H10515   8.958   5.025  12.042  0.1839  1.4651  0.0764
  819MOL0     H10516   9.095   5.024  12.305  2.2640  2.7335 -2.0559
  819MOL0     H10517   9.399   4.823  12.433  1.2396  0.0348  0.3594
  819MOL0     H10518   9.346   4.987  12.454  0.6530 -1.1001  1.9785
  819MOL0     H10519   9.137   4.767  12.491 -1.8653  0.1007  1.7647
  819MOL0     H10520   9.132   4.941  12.521  1.2882  1.7841 -3.9894
  819MOL0     H10521   9.249   4.938  12.715  2.0880 -0.9235  2.7324
  819MOL0     H10522   9.347   4.790  12.681  0.2521 -0.1049 -1.1315
  819MOL0     H10523   9.167   4.773  12.860 -2.4142  0.7917 -0.1194
  819MOL0     H10524   9.117   4.665  12.727 -3.3048  0.9565 -0.2606
  819MOL0     H10525   8.951   4.949  12.979  1.9523 -1.0012 -1.8367
  819MOL0     H10526   8.634   4.986  13.124 -1.0214 -0.8713 -3.6520
  819MOL0     H10527   8.728   4.866  13.226 -0.1326  1.5435  0.2236
  819MOL0     H10528   8.804   5.007  13.159 -0.4308 -0.1180  3.0309
  819MOL0     H10529   8.280   4.819  13.055  4.3440 -1.3734 -0.1663
  819MOL0     H10530   8.054   4.765  13.135  1.2882  0.2039 -0.7586
  819MOL0     H10531   7.834   4.509  13.309  1.7335 -1.4495  0.4986
  819MOL0     H10532   7.915   4.559  13.148  1.7138 -2.2227 -1.3913
  819MOL0     H10533   7.899   4.331  13.188  0.0521 -1.3375  0.5938
  819MOL0     H10534   8.075   4.392  13.190 -0.1799  0.5896 -0.0350
  819MOL0     H10535   8.089   4.356  13.441  2.6348  0.9258 -3.2803
  819MOL0     H10536   8.038   4.214  13.350 -1.1033  0.3729 -3.4184
  819MOL0     H10537   7.861   4.398  13.512 -0.1292  0.6508 -1.1767
  819MOL0     H10538   7.803   4.278  13.393  1.0722  2.7668 -3.0430
  819MOL0     H10539   7.995   4.193  13.615 -0.2483 -1.2426 -0.1335
  819MOL0     H10540   7.905   4.093  13.498 -3.4624  0.4501 -0.3623
  819MOL0     H10541   7.776   4.264  13.722 -0.5443  0.2602  0.7498
  819MOL0     H10542   7.698   4.138  13.612  1.0146 -0.9554 -1.8069
  819MOL0     H10543   7.924   4.050  13.773  0.2758  4.8147 -0.2142
  819MOL0     H10544   7.792   3.962  13.683 -4.3102 -0.0751  1.8363
  819MOL0     H10545   7.642   3.986  13.863 -0.7057  2.7042  0.5181
  819MOL0     H10546   7.743   4.109  13.941 -3.9780 -0.3262  0.6646
  819MOL0     H10547   8.230   4.556  13.457  0.4631  0.7214  0.6236
  819MOL0     H10548   8.441   4.605  13.390  0.6507  3.0692  0.3063
  819MOL0     H10549   8.645   4.596  12.813  1.4344  0.2176 -0.2025
  819MOL0     H10550   8.860   4.632  12.708  1.3266  1.9061 -0.2205
  819MOL0     H10551   9.388   5.672  11.311 -1.3287 -0.2830 -1.0825
  819MOL0     H10552   9.502   5.810  11.141  2.2234 -1.4953  1.0166
  819MOL0     H10553   9.528   6.162  10.820  1.9117 -2.9288  1.4803
  819MOL0     H10554   9.604   6.358  10.695 -1.4361 -3.8038  0.4375
  819MOL0     H10555   9.658   6.555  10.649  0.6498  0.1952 -0.1510
  819MOL0     H10556   9.646   6.683  10.761  0.2120  0.8052 -0.9533
  819MOL0     H10557   9.896   6.641  10.575  0.2004 -0.8238 -0.5427
  819MOL0     H10558   9.839   6.788  10.659 -3.1045  1.0688 -2.0554
  819MOL0     H10559   9.791   6.841  10.460  0.3686 -0.8224  0.0032
  819MOL0     H10560   9.639   6.815  10.545  1.1755  1.1403  1.3980
  819MOL0     H10561   9.619   6.706  10.332  0.8224  1.6238  1.2993
  819MOL0     H10562   9.621   6.575  10.449  1.0320 -1.1172  0.4475
  819MOL0     H10563   9.971   6.485  10.237 -0.2073  1.5748 -1.0951
  819MOL0     H10564   9.861   6.449  11.044 -0.4534  1.0082 -0.3969
  819MOL0     H10565   9.763   6.263  11.151 -0.4124  0.8470 -0.7699
  820MOL0     O10566   3.602   9.167   8.680  0.5634  0.0539  0.5101
  820MOL0     C10567   3.652   9.148   8.792 -0.7878 -0.9749  0.3231
  820MOL0     O10568   3.591   9.086   8.892  0.0240  0.9840  0.2764
  820MOL0     C10569   3.459   9.057   8.865  0.7350 -0.5149 -0.1202
  820MOL0     C10570   3.365   9.160   8.831 -0.9077 -0.6870  0.6904
  820MOL0     C10571   3.230   9.116   8.809  0.7066 -1.0249 -0.1619
  820MOL0     C10572   3.190   8.991   8.837  0.3399 -0.1598  0.1666
  820MOL0     O10573   3.059   8.958   8.827  0.0846 -0.6451  0.3743
  820MOL0     C10574   3.032   8.823   8.781  0.5561  1.3339  1.3097
  820MOL0     C10575   2.875   8.811   8.762  0.7371  0.9722 -0.8004
  820MOL0     C10576   2.827   8.668   8.728  0.5730 -0.4975 -0.3736
  820MOL0     C10577   2.690   8.660   8.666  0.5582 -0.3661  0.1280
  820MOL0     C10578   2.580   8.705   8.760 -0.2743  0.6133 -0.2580
  820MOL0     C10579   2.440   8.709   8.703  0.1872  1.2588 -0.2219
  820MOL0     C10580   2.341   8.660   8.810 -0.4805 -0.0393  0.5220
  820MOL0     C10581   2.187   8.627   8.761 -0.7653 -0.0987  1.1774
  820MOL0     N10582   2.116   8.752   8.735 -0.1250 -0.1367 -0.2453
  820MOL0     C10583   2.035   8.815   8.829  0.1927  0.9605  0.4213
  820MOL0     C10584   2.009   8.934   8.777 -0.9553  0.6441  0.8401
  820MOL0     C10585   1.922   9.047   8.832  0.1686 -0.8154  0.4619
  820MOL0     C10586   2.000   9.100   8.954 -0.4303  0.4633 -0.0741
  820MOL0     C10587   1.933   9.058   9.082  0.6007 -0.0570 -0.9352
  820MOL0     C10588   2.020   9.108   9.201  0.2786  1.0606  0.2887
  820MOL0     O10589   2.040   9.259   9.202 -0.1566  0.9807 -0.6245
  820MOL0     C10590   2.164   9.305   9.203 -0.0908 -0.2587  0.9218
  820MOL0     C10591   2.260   9.265   9.293  0.2275 -0.2393 -0.2896
  820MOL0     C10592   2.394   9.304   9.284  0.3161  0.3413  0.8066
  820MOL0     C10593   2.494   9.242   9.379  0.1036 -0.3214  0.0786
  820MOL0     C10594   2.421   9.420   9.202 -0.2116 -0.5476  0.9143
  820MOL0     C10595   2.553   9.473   9.168 -0.5847 -0.0193  0.2308
  820MOL0     O10596   2.630   9.378   9.108  0.4934  0.0839 -0.2784
  820MOL0     C10597   2.725   9.430   9.025 -1.1061  1.0875  0.7000
  820MOL0     C10598   2.867   9.409   9.040 -0.5632 -0.4229  0.2020
  820MOL0     C10599   2.962   9.462   8.953  0.1665 -0.2864  0.4186
  820MOL0     C10600   2.920   9.540   8.841 -0.4282  0.9322  0.9160
  820MOL0     O10601   3.007   9.610   8.756  0.4588 -0.4209 -0.1156
  820MOL0     C10602   3.154   9.588   8.776  0.9341 -0.3085  0.5594
  820MOL0     C10603   3.219   9.624   8.647  0.2543  0.4713 -0.0608
  820MOL0     C10604   3.178   9.526   8.541 -0.5792 -0.1621  0.8374
  820MOL0     C10605   3.268   9.543   8.415  0.6071  0.9281 -1.3982
  820MOL0     C10606   3.419   9.507   8.428  0.2184  0.4033  0.1577
  820MOL0     C10607   3.493   9.545   8.301  0.0986  0.1444 -0.0538
  820MOL0     C10608   3.539   9.699   8.306 -0.3677 -0.4632  0.2107
  820MOL0     C10609   3.662   9.722   8.399  0.8173  0.5118  0.3012
  820MOL0    Cl10610   3.805   9.605   8.405  0.0506 -0.2746  0.1531
  820MOL0     C10611   2.783   9.541   8.811  0.3634 -0.6448  0.3402
  820MOL0     C10612   2.686   9.487   8.901  0.0480  0.8264 -0.7424
  820MOL0     O10613   2.589   9.594   9.187  0.1821  0.6006 -0.3341
  820MOL0     C10614   2.319   9.477   9.121  0.2808  0.6578  0.4167
  820MOL0     C10615   2.194   9.413   9.116  0.8262  1.2348 -0.0968
  820MOL0     N10616   2.055   8.944   8.647 -0.5464 -0.4256  0.2156
  820MOL0     N10617   2.121   8.833   8.627 -0.5183  0.3205 -0.6439
  820MOL0     C10618   3.284   8.893   8.863  0.4605  0.2888 -0.6327
  820MOL0     C10619   3.416   8.922   8.878 -0.7238  0.3252 -0.4293
  820MOL0     C10620   3.779   9.221   8.830 -0.4622  0.7133 -1.2452
  820MOL0     C10621   3.826   9.218   8.965  1.1397  0.2212  0.3099
  820MOL0     C10622   3.945   9.271   9.008  0.2064 -0.9591  0.1557
  820MOL0     C10623   4.019   9.345   8.910 -0.1316 -0.0039  0.3515
  820MOL0     O10624   4.129   9.426   8.934  0.2049 -0.8511  0.4294
  820MOL0     C10625   4.187   9.432   9.062 -0.3748 -0.2528  0.2173
  820MOL0     C10626   4.305   9.531   9.071  0.1788  0.3724 -0.5948
  820MOL0     C10627   4.291   9.649   9.179 -0.5221  0.0293  0.2632
  820MOL0     C10628   4.264   9.605   9.318  0.8680 -0.5694  0.0241
  820MOL0     C10629   4.381   9.552   9.381 -0.0418 -1.0063 -0.1331
  820MOL0     C10630   4.481   9.511   9.428 -0.5652  0.0108  0.2680
  820MOL0     C10631   3.985   9.333   8.774 -1.1976  0.4288 -0.0552
  820MOL0     C10632   3.863   9.282   8.728  0.1093  0.0271  0.4691
  820MOL0     H10633   3.388   9.266   8.826 -0.6904 -0.7909 -1.0820
  820MOL0     H10634   3.155   9.189   8.780  1.5166 -1.5152 -3.9948
  820MOL0     H10635   3.074   8.807   8.681 -2.4755  3.1851 -0.4416
  820MOL0     H10636   3.067   8.746   8.850  1.5122  1.1351  0.6095
  820MOL0     H10637   2.804   8.848   8.837 -2.4863 -4.3435 -0.7296
  820MOL0     H10638   2.841   8.862   8.671  0.3178 -0.9170 -1.7396
  820MOL0     H10639   2.893   8.623   8.653 -1.4724 -2.1608 -1.2698
  820MOL0     H10640   2.831   8.619   8.825  1.8663  1.6763  0.7601
  820MOL0     H10641   2.693   8.709   8.568  2.6715 -1.3356 -0.3519
  820MOL0     H10642   2.674   8.555   8.639 -0.9846  0.4018 -2.3138
  820MOL0     H10643   2.581   8.642   8.850 -1.8231  2.6668  1.2872
  820MOL0     H10644   2.602   8.806   8.796 -0.3127 -0.2907  2.5276
  820MOL0     H10645   2.418   8.811   8.672 -0.9208  0.0612 -3.8595
  820MOL0     H10646   2.429   8.640   8.619 -2.1618 -2.5458  2.8724
  820MOL0     H10647   2.371   8.560   8.842 -0.7847 -0.9942 -1.9443
  820MOL0     H10648   2.326   8.730   8.892  0.0953  2.9108 -1.6999
  820MOL0     H10649   2.127   8.575   8.837 -4.9596  2.7494  0.1411
  820MOL0     H10650   2.194   8.564   8.672  1.3262  1.1596  0.3949
  820MOL0     H10651   2.010   8.767   8.923 -2.3151 -1.2662 -1.2194
  820MOL0     H10652   1.916   9.132   8.763 -3.0770 -0.7611  0.6488
  820MOL0     H10653   1.822   9.010   8.855 -1.1247  0.4949 -2.5839
  820MOL0     H10654   1.999   9.209   8.941 -0.2038  0.5859  0.8247
  820MOL0     H10655   2.102   9.063   8.952 -0.2893  0.8571 -1.8029
  820MOL0     H10656   1.927   8.949   9.078  2.3457 -0.3071  1.3073
  820MOL0     H10657   1.830   9.094   9.087 -0.6151 -3.2346 -0.8278
  820MOL0     H10658   2.109   9.044   9.198  0.4240  1.1179  2.0689
  820MOL0     H10659   1.982   9.069   9.296  2.1365  1.4708  1.2616
  820MOL0     H10660   2.213   9.195   9.362  1.1681 -0.2204  0.3890
  820MOL0     H10661   2.597   9.261   9.349  0.9742 -1.0499  2.4405
  820MOL0     H10662   2.495   9.290   9.477  3.0166  2.2159 -1.0248
  820MOL0     H10663   2.477   9.134   9.370  1.9422 -0.8271  1.9666
  820MOL0     H10664   2.903   9.350   9.124 -1.1081  0.4816  1.0869
  820MOL0     H10665   3.068   9.443   8.969  0.0064 -0.9511  0.7237
  820MOL0     H10666   3.207   9.646   8.853  1.5132  1.0950 -0.8410
  820MOL0     H10667   3.174   9.481   8.789 -0.8573 -0.7667 -0.1759
  820MOL0     H10668   3.185   9.720   8.607 -1.8646 -0.5282 -0.7870
  820MOL0     H10669   3.327   9.619   8.663  0.3032  0.7604 -0.2767
  820MOL0     H10670   3.072   9.541   8.520 -0.8417 -0.3407  1.9872
  820MOL0     H10671   3.200   9.424   8.575  0.6363 -0.3186 -0.3312
  820MOL0     H10672   3.227   9.466   8.350  0.7035  0.0610 -0.4501
  820MOL0     H10673   3.255   9.642   8.371 -0.4368  3.2437  3.4227
  820MOL0     H10674   3.412   9.402   8.459 -0.0643 -1.2798 -4.8141
  820MOL0     H10675   3.457   9.566   8.512 -1.2550 -1.1383  2.0326
  820MOL0     H10676   3.587   9.490   8.289 -0.4822 -1.3177  1.7139
  820MOL0     H10677   3.431   9.530   8.212 -1.4281 -0.1741  1.0397
  820MOL0     H10678   3.455   9.766   8.324 -1.0205 -0.6187 -1.9841
  820MOL0     H10679   3.567   9.725   8.204  0.2942 -0.0815  0.4781
  820MOL0     H10680   3.626   9.726   8.502 -1.4375 -1.2300 -0.3475
  820MOL0     H10681   3.702   9.818   8.364 -0.9644  1.4220  0.6855
  820MOL0     H10682   2.749   9.602   8.728  0.4313 -0.1257  0.6867
  820MOL0     H10683   2.584   9.496   8.867 -0.6257  1.4347  1.3010
  820MOL0     H10684   2.320   9.568   9.062  0.9851  0.4734  0.1328
  820MOL0     H10685   2.110   9.453   9.059 -0.8606 -1.3858  0.4080
  820MOL0     H10686   3.259   8.788   8.874  0.0171  0.4786  0.3029
  820MOL0     H10687   3.474   8.839   8.915 -1.5224  0.4042  1.0998
  820MOL0     H10688   3.774   9.154   9.035  1.8553  0.6181  1.2121
  820MOL0     H10689   3.979   9.251   9.109  2.2473 -4.1132 -0.9908
  820MOL0     H10690   4.116   9.478   9.132  0.2090  1.3000 -0.1536
  820MOL0     H10691   4.212   9.329   9.089 -0.0317 -1.8627 -5.1315
  820MOL0     H10692   4.304   9.588   8.978  0.2616 -1.9300 -2.0850
  820MOL0     H10693   4.399   9.476   9.079  0.8816  1.7261  1.0109
  820MOL0     H10694   4.215   9.718   9.143 -0.7349 -0.3546 -0.0298
  820MOL0     H10695   4.384   9.706   9.185 -0.6596  0.1148  4.2120
  820MOL0     H10696   4.175   9.541   9.321  0.7939 -0.5536 -1.1759
  820MOL0     H10697   4.242   9.693   9.379 -1.3113  0.7750 -2.4765
  820MOL0     H10698   4.572   9.459   9.451 -0.0997  0.5564 -0.2774
  820MOL0     H10699   4.049   9.384   8.703 -1.9129  0.0009 -1.0206
  820MOL0     H10700   3.831   9.292   8.625  1.7728  0.7470 -0.0145
  821MOL0     O10701   3.333   1.279   6.126 -0.1635  0.9893 -0.4161
  821MOL0     C10702   3.408   1.288   6.034 -0.4256 -0.3737  0.0005
  821MOL0     O10703   3.380   1.340   5.910  0.3355  0.7939  0.6216
  821MOL0     C10704   3.251   1.341   5.857 -0.6519  0.2852 -0.3931
  821MOL0     C10705   3.128   1.299   5.917  0.3099  0.0626 -0.6628
  821MOL0     C10706   3.006   1.295   5.846 -0.1774 -0.0610  0.3059
  821MOL0     C10707   3.001   1.351   5.714 -0.2187 -0.7601  0.4834
  821MOL0     O10708   2.894   1.381   5.629  0.6490  1.0047 -0.2763
  821MOL0     C10709   2.766   1.341   5.681  0.4658 -0.9447 -0.8991
  821MOL0     C10710   2.653   1.403   5.588 -0.1598  0.8668 -0.6271
  821MOL0     C10711   2.679   1.402   5.432 -0.0653  0.3561  0.0273
  821MOL0     C10712   2.712   1.261   5.384  0.2787  0.1938  0.2477
  821MOL0     C10713   2.700   1.251   5.225 -0.0324  0.1371 -0.3584
  821MOL0     C10714   2.793   1.343   5.155 -0.6425 -0.8643  0.0837
  821MOL0     C10715   2.791   1.331   4.997  0.3110  0.1101 -0.4717
  821MOL0     C10716   2.901   1.224   4.960 -0.5373  0.5960  0.7798
  821MOL0     N10717   2.905   1.180   4.819  0.2671 -0.0122  0.0898
  821MOL0     C10718   3.016   1.172   4.739 -0.3438  0.2356  0.5378
  821MOL0     C10719   2.990   1.086   4.642 -0.2405  0.1492 -0.3209
  821MOL0     C10720   3.083   1.051   4.528  0.5031  0.2096 -1.0880
  821MOL0     C10721   3.137   1.179   4.459  0.0644  0.2612 -0.4502
  821MOL0     C10722   3.036   1.252   4.368 -0.3415  0.0991 -0.1872
  821MOL0     C10723   3.085   1.390   4.308 -0.4440 -0.5881 -0.1800
  821MOL0     O10724   3.154   1.464   4.407 -0.4006  0.4157  0.0550
  821MOL0     C10725   3.079   1.529   4.497  0.3855  0.2158 -0.2138
  821MOL0     C10726   2.946   1.564   4.494  0.4995 -0.3552 -0.3984
  821MOL0     C10727   2.878   1.638   4.597  0.6509  0.2368  0.3869
  821MOL0     C10728   2.737   1.673   4.568 -0.7115 -0.3223  0.1146
  821MOL0     C10729   2.950   1.687   4.706 -0.4616 -0.1906  0.7062
  821MOL0     C10730   2.893   1.773   4.812 -0.1616  0.2696  0.8748
  821MOL0     O10731   2.827   1.706   4.910  0.3131 -0.1446 -0.2048
  821MOL0     C10732   2.786   1.758   5.030 -0.6417 -0.2995 -0.3323
  821MOL0     C10733   2.684   1.689   5.099 -0.9789 -0.4861  0.2475
  821MOL0     C10734   2.629   1.741   5.215 -0.5507 -0.3758  0.0618
  821MOL0     C10735   2.695   1.852   5.275  0.6253 -0.1307  0.1748
  821MOL0     O10736   2.658   1.898   5.393  1.0092 -0.1413  0.3112
  821MOL0     C10737   2.672   1.811   5.506  0.1321 -0.3597  0.9122
  821MOL0     C10738   2.648   1.899   5.636  1.0501 -0.1305  0.3555
  821MOL0     C10739   2.642   1.817   5.764  0.3613 -0.3504  0.5816
  821MOL0     C10740   2.681   1.889   5.888 -0.4307  0.7666  0.5457
  821MOL0     C10741   2.827   1.929   5.895 -0.6417 -0.9168 -0.1671
  821MOL0     C10742   2.858   1.984   6.040 -0.6884  0.4161 -0.7645
  821MOL0     C10743   2.998   2.034   6.054 -0.6578 -0.3819 -0.4817
  821MOL0     C10744   3.030   2.129   6.165 -0.0353  0.4837  0.2478
  821MOL0    Cl10745   2.954   2.294   6.150 -0.5279 -0.0768  0.2179
  821MOL0     C10746   2.801   1.915   5.203 -1.3586 -0.0248  0.6671
  821MOL0     C10747   2.848   1.875   5.080  0.1387 -1.4390 -0.4251
  821MOL0     O10748   2.900   1.896   4.800 -0.6448  0.5100 -0.4607
  821MOL0     C10749   3.085   1.646   4.715  0.3511  0.5434 -0.5295
  821MOL0     C10750   3.143   1.570   4.614 -0.7360 -0.6802  0.2345
  821MOL0     N10751   2.856   1.062   4.659 -0.6621 -0.5736  0.0618
  821MOL0     N10752   2.803   1.116   4.764  0.2219 -0.4765  0.5810
  821MOL0     C10753   3.122   1.376   5.647  0.3179 -0.5622 -0.4246
  821MOL0     C10754   3.246   1.378   5.723  0.1168  0.3321 -0.0164
  821MOL0     C10755   3.546   1.246   6.066 -1.5550 -0.3001  0.5350
  821MOL0     C10756   3.648   1.298   5.983 -0.3727  1.0822  0.0665
  821MOL0     C10757   3.784   1.277   6.016  0.2092  0.0803 -0.4599
  821MOL0     C10758   3.826   1.191   6.120  1.0192 -0.4995 -0.7972
  821MOL0     O10759   3.957   1.151   6.122 -0.2151  0.0301 -0.3033
  821MOL0     C10760   3.975   1.026   6.045  0.4012 -0.2353  0.5268
  821MOL0     C10761   4.094   1.053   5.949 -0.2807  0.3319  1.2075
  821MOL0     C10762   4.230   1.007   5.995  0.8552 -0.1163 -1.4968
  821MOL0     C10763   4.343   1.029   5.903  0.8084  0.1169  0.2712
  821MOL0     C10764   4.376   1.178   5.898 -0.8467 -0.9712 -0.5651
  821MOL0     C10765   4.406   1.294   5.910 -1.2315 -0.1950  0.0536
  821MOL0     C10766   3.721   1.128   6.202  0.2865 -0.5564  0.3113
  821MOL0     C10767   3.590   1.174   6.182 -0.2628  0.4065 -0.3809
  821MOL0     H10768   3.128   1.250   6.014  1.4792  0.8250 -0.2523
  821MOL0     H10769   2.905   1.285   5.884  0.0307  0.1686  0.9363
  821MOL0     H10770   2.752   1.232   5.679  0.6359 -1.0678  1.6090
  821MOL0     H10771   2.748   1.370   5.784  1.7235 -0.6246 -0.7508
  821MOL0     H10772   2.558   1.357   5.618  1.0340 -0.8379  0.7136
  821MOL0     H10773   2.645   1.509   5.616 -5.3791  0.9704 -1.4658
  821MOL0     H10774   2.586   1.432   5.382  2.0364  1.0447 -3.8524
  821MOL0     H10775   2.753   1.477   5.403  0.6634 -1.6427 -4.0584
  821MOL0     H10776   2.814   1.238   5.416  0.1299 -2.1970 -0.7799
  821MOL0     H10777   2.643   1.187   5.426  0.2668  0.1592  0.1659
  821MOL0     H10778   2.721   1.145   5.207  0.7295 -0.3326  2.7963
  821MOL0     H10779   2.601   1.271   5.182  0.4936  2.6724 -0.5872
  821MOL0     H10780   2.771   1.447   5.181 -2.2867 -1.4013  0.9721
  821MOL0     H10781   2.896   1.328   5.188  0.5934 -2.3961 -3.8844
  821MOL0     H10782   2.691   1.310   4.958 -0.0134  1.0346 -0.1675
  821MOL0     H10783   2.814   1.426   4.948  0.8922  0.9741  1.3880
  821MOL0     H10784   2.893   1.139   5.028 -1.2277  1.1689  1.4324
  821MOL0     H10785   3.000   1.267   4.978 -0.3479  1.2519 -1.5325
  821MOL0     H10786   3.107   1.225   4.762  1.4678 -2.1879 -0.5424
  821MOL0     H10787   3.167   1.001   4.575  1.8692  3.0061 -0.3072
  821MOL0     H10788   3.031   0.990   4.453 -0.1536 -1.3917  0.5967
  821MOL0     H10789   3.226   1.151   4.403  0.8291 -1.6742  1.6038
  821MOL0     H10790   3.179   1.241   4.539  2.1486 -0.9457 -0.5364
  821MOL0     H10791   2.938   1.273   4.413 -0.3275 -0.1371 -0.0419
  821MOL0     H10792   3.026   1.172   4.294  3.5379 -2.7602  1.9840
  821MOL0     H10793   2.998   1.443   4.268  0.2785 -0.3888 -1.5478
  821MOL0     H10794   3.162   1.372   4.232  1.8269 -3.3387  2.5279
  821MOL0     H10795   2.888   1.550   4.403 -3.3421 -3.0923  2.1446
  821MOL0     H10796   2.716   1.772   4.609  0.8905 -1.1209  3.1712
  821MOL0     H10797   2.713   1.675   4.461 -0.6981 -1.8710  0.0662
  821MOL0     H10798   2.680   1.602   4.628  0.8387 -2.8330 -1.2298
  821MOL0     H10799   2.639   1.610   5.040  3.4158 -2.7226 -0.4909
  821MOL0     H10800   2.545   1.683   5.252 -0.6927  0.6124  1.3488
  821MOL0     H10801   2.614   1.718   5.496  1.4026 -0.9608 -1.5533
  821MOL0     H10802   2.774   1.772   5.506 -1.0989 -3.9869  0.3808
  821MOL0     H10803   2.738   1.961   5.640 -0.1650  1.6374  1.4159
  821MOL0     H10804   2.556   1.959   5.636  1.1584  0.0663 -1.1274
  821MOL0     H10805   2.697   1.724   5.751  1.2731  0.5239 -2.5475
  821MOL0     H10806   2.539   1.782   5.778 -0.1283 -0.1113 -1.9203
  821MOL0     H10807   2.618   1.978   5.887  1.0924  1.9053 -0.9384
  821MOL0     H10808   2.660   1.820   5.970 -0.0499 -1.8744 -1.4336
  821MOL0     H10809   2.828   2.010   5.821 -1.4497 -1.4912 -0.8353
  821MOL0     H10810   2.903   1.856   5.865  1.1405  0.5668  0.5398
  821MOL0     H10811   2.786   2.055   6.081  0.3366  0.9994  0.0888
  821MOL0     H10812   2.844   1.896   6.103 -1.1890  0.3484 -0.9713
  821MOL0     H10813   3.016   2.085   5.960 -1.7740 -0.0260 -0.5120
  821MOL0     H10814   3.058   1.942   6.060 -0.8773 -0.6225 -1.7397
  821MOL0     H10815   3.138   2.141   6.172 -0.0609 -0.0470  1.7528
  821MOL0     H10816   2.994   2.087   6.259  1.4616 -2.4096 -0.3670
  821MOL0     H10817   2.846   1.998   5.256 -0.7982  1.4297 -1.9074
  821MOL0     H10818   2.921   1.931   5.023 -0.3974 -1.4335 -1.1130
  821MOL0     H10819   3.151   1.675   4.796  1.6931 -2.2398 -0.4906
  821MOL0     H10820   3.251   1.560   4.605 -1.0123 -1.7650 -3.2185
  821MOL0     H10821   3.110   1.400   5.542 -0.6697 -1.0890 -0.4370
  821MOL0     H10822   3.335   1.404   5.666  0.1746 -1.6840 -0.9289
  821MOL0     H10823   3.619   1.345   5.890 -0.6304  0.7672 -0.0139
  821MOL0     H10824   3.857   1.299   5.940 -2.1973 -6.6837 -5.7351
  821MOL0     H10825   3.977   0.938   6.110 -0.7959 -0.1074  0.7637
  821MOL0     H10826   3.891   1.014   5.977 -1.7358  1.4856  2.6938
  821MOL0     H10827   4.097   1.157   5.915 -0.7759 -1.2176 -4.5984
  821MOL0     H10828   4.087   0.992   5.859 -1.2418  0.0661  1.4465
  821MOL0     H10829   4.216   0.900   6.014  1.8001  0.3344  2.4627
  821MOL0     H10830   4.243   1.065   6.086 -0.1622 -0.5187 -1.0766
  821MOL0     H10831   4.312   1.006   5.800  1.9367  0.7600 -0.2303
  821MOL0     H10832   4.427   0.964   5.929  0.9675 -0.2585 -1.1117
  821MOL0     H10833   4.412   1.401   5.906  0.0432 -0.3071 -1.9673
  821MOL0     H10834   3.752   1.059   6.280  1.5405 -0.1449  0.2102
  821MOL0     H10835   3.514   1.152   6.256  2.4890 -1.3259  2.1338
  822MOL0     O10836   0.418   3.953   0.921 -0.2265  0.0234 -0.2602
  822MOL0     C10837   0.418   4.053   0.843 -0.3829 -0.4745 -0.6312
  822MOL0     O10838   0.345   4.061   0.732 -0.8044 -0.1434 -0.3105
  822MOL0     C10839   0.234   3.987   0.713 -0.5651 -0.1917 -0.5098
  822MOL0     C10840   0.224   3.845   0.710  0.5330 -0.2684 -0.2270
  822MOL0     C10841   0.095   3.787   0.701 -0.1770  0.2832 -0.1788
  822MOL0     C10842  -0.013   3.864   0.664  0.1335 -0.8121 -1.1043
  822MOL0     O10843  -0.142   3.828   0.630  0.2672 -0.3913 -0.3142
  822MOL0     C10844  -0.150   3.697   0.579 -0.5162  0.0337 -0.5850
  822MOL0     C10845  -0.088   3.681   0.439  0.5090 -0.5813  0.8809
  822MOL0     C10846  -0.163   3.782   0.346 -0.6520 -0.5018  0.3501
  822MOL0     C10847  -0.109   3.778   0.202  0.0386 -0.0025 -0.1784
  822MOL0     C10848  -0.130   3.899   0.129 -0.5348 -0.4284 -0.5873
  822MOL0     C10849  -0.080   4.024   0.200 -0.2579  0.0819 -0.0326
  822MOL0     C10850  -0.046   4.138   0.099 -0.5147 -0.5759  0.7064
  822MOL0     C10851   0.028   4.254   0.161 -0.0229 -0.4351  0.6944
  822MOL0     N10852   0.009   4.374   0.082 -0.9401 -0.2055  0.3613
  822MOL0     C10853  -0.096   4.452   0.092 -0.2561  1.4911 -0.0223
  822MOL0     C10854  -0.066   4.564   0.023 -0.4978 -0.4497  0.1788
  822MOL0     C10855  -0.156   4.684   0.004  0.5372  0.1726 -0.7537
  822MOL0     C10856  -0.118   4.819   0.055 -0.7502  0.0564 -0.5536
  822MOL0     C10857  -0.005   4.880  -0.032  0.4443 -0.0240 -0.3324
  822MOL0     C10858   0.055   5.001   0.034 -0.7205 -0.0177  0.4514
  822MOL0     O10859   0.138   4.951   0.138 -0.1088  0.1502 -1.0834
  822MOL0     C10860   0.216   5.038   0.213  0.3629 -0.1148  0.3137
  822MOL0     C10861   0.308   4.976   0.293  0.3780 -0.2184 -0.1388
  822MOL0     C10862   0.406   5.041   0.366  0.6399  0.6274 -0.2317
  822MOL0     C10863   0.497   4.948   0.438  0.0905  0.8714  0.4689
  822MOL0     C10864   0.432   5.176   0.349  0.4221  0.0207  0.5504
  822MOL0     C10865   0.532   5.255   0.407 -0.4459  0.2704 -0.3373
  822MOL0     O10866   0.582   5.373   0.345 -0.3467  0.0894 -0.2326
  822MOL0     C10867   0.693   5.437   0.375 -0.2307 -0.7730  0.2887
  822MOL0     C10868   0.823   5.378   0.385 -0.5378  0.0021  0.3630
  822MOL0     C10869   0.944   5.454   0.399 -0.3591  0.6045 -0.4848
  822MOL0     C10870   0.942   5.593   0.380  0.0332 -0.8178 -0.3681
  822MOL0     O10871   1.050   5.675   0.367  0.2984  0.3620  0.0425
  822MOL0     C10872   1.173   5.628   0.424 -0.1521 -0.2796  0.1023
  822MOL0     C10873   1.268   5.743   0.435 -0.3947 -0.6392 -0.5978
  822MOL0     C10874   1.230   5.881   0.501  0.4389 -0.0942 -0.4130
  822MOL0     C10875   1.226   5.856   0.653  1.0964 -0.1252  0.0712
  822MOL0     C10876   1.225   5.986   0.728 -0.1126 -0.2157  0.5197
  822MOL0     C10877   1.220   5.955   0.883 -0.2125 -0.2673  0.1563
  822MOL0     C10878   1.212   6.091   0.965  0.1169  0.1911 -0.3117
  822MOL0     C10879   1.152   6.086   1.101 -0.5118 -0.7159  0.2796
  822MOL0    Cl10880   1.267   6.009   1.219  0.1773 -0.4404  0.1105
  822MOL0     C10881   0.809   5.653   0.378 -0.3565  0.2279  0.2980
  822MOL0     C10882   0.692   5.574   0.375 -0.0241 -0.4191 -0.7730
  822MOL0     O10883   0.589   5.208   0.510 -0.1741 -0.1261 -0.0829
  822MOL0     C10884   0.341   5.242   0.260  0.6361  0.7693 -0.5759
  822MOL0     C10885   0.234   5.176   0.201 -0.2586 -0.0096  0.5994
  822MOL0     N10886   0.064   4.549  -0.032  0.8092  0.2963 -0.2005
  822MOL0     N10887   0.100   4.435  -0.006 -0.0066  0.4848 -0.7430
  822MOL0     C10888   0.003   4.002   0.657  1.0358 -0.9302 -0.0469
  822MOL0     C10889   0.125   4.064   0.674 -1.8187 -0.1702 -1.1766
  822MOL0     C10890   0.522   4.152   0.866 -0.5298 -0.0002 -0.0659
  822MOL0     C10891   0.554   4.252   0.772  0.1503 -0.1599 -1.0222
  822MOL0     C10892   0.661   4.334   0.787 -0.5372  0.0667  1.0198
  822MOL0     C10893   0.750   4.319   0.883 -0.5005 -0.1950  0.0272
  822MOL0     O10894   0.847   4.420   0.887  0.1583  1.4338 -0.1929
  822MOL0     C10895   0.902   4.450   1.010 -0.6606 -0.5173 -0.3055
  822MOL0     C10896   1.041   4.393   1.007 -0.9670  0.1187 -0.7121
  822MOL0     C10897   1.134   4.418   0.885  0.5814 -0.3354 -0.1708
  822MOL0     C10898   1.133   4.560   0.824 -0.4554  0.3045 -0.2058
  822MOL0     C10899   1.190   4.639   0.932  0.7549 -0.3301  0.0532
  822MOL0     C10900   1.261   4.701   1.006 -0.3356 -0.8094  0.2134
  822MOL0     C10901   0.719   4.226   0.986  0.2334  0.1541  1.2726
  822MOL0     C10902   0.605   4.146   0.986  0.4458 -0.2928 -0.0578
  822MOL0     H10903   0.316   3.792   0.732  2.1256  1.5148 -2.1429
  822MOL0     H10904   0.088   3.683   0.731 -1.6363  0.7555  1.2614
  822MOL0     H10905  -0.104   3.627   0.650  0.1686 -0.9071 -1.9128
  822MOL0     H10906  -0.255   3.664   0.574 -0.7049  0.2912  1.2008
  822MOL0     H10907   0.017   3.708   0.451  0.3121  1.0413 -0.5895
  822MOL0     H10908  -0.091   3.577   0.405 -0.7868 -1.0258  2.2373
  822MOL0     H10909  -0.269   3.758   0.334 -0.7194  0.6126 -1.6091
  822MOL0     H10910  -0.144   3.881   0.388 -0.9098 -0.3553  0.1203
  822MOL0     H10911   0.000   3.779   0.198  0.1695  2.3559  1.7362
  822MOL0     H10912  -0.158   3.695   0.149 -3.7733 -0.2664  3.2628
  822MOL0     H10913  -0.077   3.889   0.035  1.0046 -0.3382  0.2403
  822MOL0     H10914  -0.237   3.917   0.112 -0.4752 -0.1417 -0.6552
  822MOL0     H10915  -0.153   4.051   0.276  1.0756 -1.1973  1.7965
  822MOL0     H10916   0.014   3.998   0.250 -0.7322 -0.1227  0.7672
  822MOL0     H10917   0.009   4.102   0.012 -2.3194 -3.2143  0.5284
  822MOL0     H10918  -0.148   4.171   0.074 -1.0634 -0.2493  3.0626
  822MOL0     H10919   0.137   4.238   0.167  0.4382  1.9721 -0.2965
  822MOL0     H10920  -0.009   4.269   0.263  1.3127 -0.0967  1.1537
  822MOL0     H10921  -0.182   4.434   0.156  0.1241 -1.0503 -0.1507
  822MOL0     H10922  -0.149   4.705  -0.103  4.6472 -0.4483 -0.7790
  822MOL0     H10923  -0.259   4.663   0.035  0.3206 -0.1939 -1.6901
  822MOL0     H10924  -0.080   4.825   0.157  0.8331 -1.3828 -1.0026
  822MOL0     H10925  -0.203   4.886   0.042 -0.6428  0.0901 -1.1298
  822MOL0     H10926  -0.059   4.913  -0.121  2.0100  0.0266 -1.3036
  822MOL0     H10927   0.070   4.805  -0.057 -0.5410 -1.9409  2.1262
  822MOL0     H10928  -0.039   5.045   0.068 -0.8377 -1.5183  2.2762
  822MOL0     H10929   0.107   5.068  -0.033  3.8887 -1.1717  2.4655
  822MOL0     H10930   0.307   4.867   0.294  0.6952 -0.2218 -0.1583
  822MOL0     H10931   0.507   4.971   0.545 -1.7403  0.0615  0.8711
  822MOL0     H10932   0.453   4.848   0.450 -1.3473  1.6137  1.7176
  822MOL0     H10933   0.594   4.940   0.389  0.2609 -0.7152  0.9855
  822MOL0     H10934   0.834   5.270   0.376  0.5207  0.0861  0.4666
  822MOL0     H10935   1.040   5.412   0.427 -0.5538  1.2399  1.2605
  822MOL0     H10936   1.150   5.579   0.519  1.4249 -0.6159  0.3424
  822MOL0     H10937   1.220   5.546   0.369 -1.4009 -1.3028  0.4989
  822MOL0     H10938   1.359   5.712   0.489 -0.8764 -0.8398  0.1173
  822MOL0     H10939   1.298   5.775   0.335  0.3643  3.3724  0.7561
  822MOL0     H10940   1.129   5.916   0.478 -0.8720  0.0285  4.4218
  822MOL0     H10941   1.304   5.956   0.471 -0.2646  1.3516  1.2725
  822MOL0     H10942   1.134   5.798   0.665 -0.0000  1.1557 -1.8148
  822MOL0     H10943   1.303   5.788   0.692 -1.2721 -2.6864  0.5925
  822MOL0     H10944   1.140   6.051   0.705 -2.2164 -1.8296  3.1271
  822MOL0     H10945   1.320   6.032   0.702  0.1887 -2.1056 -2.1767
  822MOL0     H10946   1.132   5.893   0.904 -0.9889  0.3500 -1.1573
  822MOL0     H10947   1.306   5.895   0.914  0.9551  1.4975  0.4401
  822MOL0     H10948   1.145   6.164   0.918  1.6401  3.0285  1.6846
  822MOL0     H10949   1.310   6.138   0.956 -0.0603  0.6285  0.0128
  822MOL0     H10950   1.057   6.032   1.109 -3.1927  3.6511  2.2572
  822MOL0     H10951   1.136   6.189   1.135  0.8315 -0.8162  1.3240
  822MOL0     H10952   0.794   5.760   0.368 -1.2714  0.6794  4.5548
  822MOL0     H10953   0.588   5.605   0.375 -0.6661 -2.3683 -2.2569
  822MOL0     H10954   0.353   5.348   0.238  0.6765  0.6981 -0.9032
  822MOL0     H10955   0.178   5.242   0.136 -0.8325  1.7733  2.7909
  822MOL0     H10956  -0.082   4.057   0.620  2.4913  1.8068  0.3854
  822MOL0     H10957   0.123   4.173   0.681 -0.4871 -0.1869 -0.3062
  822MOL0     H10958   0.488   4.264   0.686 -2.0972 -1.4861  0.4231
  822MOL0     H10959   0.655   4.428   0.733 -0.2532 -0.3648  0.2216
  822MOL0     H10960   0.916   4.558   1.022  3.2195 -0.3432 -4.1316
  822MOL0     H10961   0.842   4.416   1.095 -3.1627  0.3638 -1.6162
  822MOL0     H10962   1.032   4.284   1.021  3.2944 -0.1622  1.1797
  822MOL0     H10963   1.096   4.429   1.094 -5.2222  0.1439  2.3076
  822MOL0     H10964   1.094   4.346   0.813 -1.8484  0.4764  0.2520
  822MOL0     H10965   1.239   4.398   0.906 -0.2011 -1.6038  3.1994
  822MOL0     H10966   1.033   4.588   0.789 -0.4286  2.5679  1.2961
  822MOL0     H10967   1.203   4.566   0.740  0.3963  0.3014  0.4909
  822MOL0     H10968   1.322   4.766   1.065  0.8823 -2.0295  0.3631
  822MOL0     H10969   0.789   4.221   1.068 -0.2520  0.5556  1.7166
  822MOL0     H10970   0.604   4.075   1.068  0.2590  0.3426  0.4960
  823MOL0     O10971   1.074   9.400   2.673  1.1801  0.2817 -0.6833
  823MOL0     C10972   1.074   9.282   2.699  0.6746 -0.1470  0.2532
  823MOL0     O10973   0.965   9.198   2.694  0.0580 -0.5833  0.0694
  823MOL0     C10974   0.868   9.244   2.608 -0.1530 -0.3012  0.4554
  823MOL0     C10975   0.766   9.333   2.647 -0.5162  1.0749  0.4481
  823MOL0     C10976   0.670   9.369   2.548  0.2197 -0.4093 -0.2388
  823MOL0     C10977   0.687   9.339   2.409  0.1057 -0.2659 -0.8106
  823MOL0     O10978   0.606   9.396   2.324  0.6520  0.7598 -0.2340
  823MOL0     C10979   0.592   9.343   2.186 -0.2312 -0.4109 -0.7299
  823MOL0     C10980   0.533   9.439   2.083  0.0586  0.4137 -0.7997
  823MOL0     C10981   0.388   9.484   2.127  0.0190 -0.3922  0.3519
  823MOL0     C10982   0.379   9.603   2.222 -0.8842 -1.1486  0.5029
  823MOL0     C10983   0.242   9.637   2.254 -0.0475 -0.0797 -0.1579
  823MOL0     C10984   0.172   9.733   2.144 -1.1590  1.1623 -1.2650
  823MOL0     C10985   0.074   9.831   2.208  0.9571  0.1224 -0.0775
  823MOL0     C10986   0.033   9.940   2.121  1.2798 -0.6777  0.0369
  823MOL0     N10987  -0.116   9.977   2.129 -1.3823 -0.2216 -0.2853
  823MOL0     C10988  -0.215   9.888   2.102 -0.4392 -0.3865 -0.5615
  823MOL0     C10989  -0.315   9.958   2.062  0.4369  0.4044 -0.0340
  823MOL0     C10990  -0.438   9.891   2.005  0.0999 -0.3140  0.7901
  823MOL0     C10991  -0.493   9.981   1.897  0.1226  0.0324  0.0263
  823MOL0     C10992  -0.614   9.926   1.819  0.4554 -0.7769  0.0757
  823MOL0     C10993  -0.659  10.026   1.716 -0.5337  0.7660  0.8151
  823MOL0     O10994  -0.775   9.971   1.658  0.0488 -0.5002  0.4875
  823MOL0     C10995  -0.823  10.039   1.542 -0.1522  0.0302 -0.4295
  823MOL0     C10996  -0.755  10.141   1.471  0.4296  0.2064  0.2226
  823MOL0     C10997  -0.802  10.181   1.354  0.1759 -0.1476  0.7462
  823MOL0     C10998  -0.717  10.274   1.267 -0.8498  1.1024 -0.5980
  823MOL0     C10999  -0.940  10.149   1.314  0.5779  0.1680  0.4928
  823MOL0     C11000  -1.016  10.205   1.203  0.2100 -0.4868  0.6106
  823MOL0     O11001  -1.148  10.215   1.227  0.8438 -0.5686 -0.5505
  823MOL0     C11002  -1.236  10.303   1.165 -0.5947 -0.8736 -0.0043
  823MOL0     C11003  -1.366  10.280   1.166  1.5062  0.0864 -0.2716
  823MOL0     C11004  -1.469  10.356   1.084  0.5347 -0.7964 -0.5258
  823MOL0     C11005  -1.417  10.456   0.999  0.8238 -0.2188 -0.7763
  823MOL0     O11006  -1.496  10.544   0.937  0.3605 -0.9515 -0.2039
  823MOL0     C11007  -1.619  10.490   0.884 -0.7414 -0.7392 -0.0335
  823MOL0     C11008  -1.665  10.603   0.788 -0.0621 -0.0471  0.0233
  823MOL0     C11009  -1.762  10.548   0.682 -0.4585  0.1127 -0.7393
  823MOL0     C11010  -1.897  10.494   0.739  1.6067  0.5442  0.0163
  823MOL0     C11011  -1.976  10.446   0.624  0.0966 -0.5372  0.1715
  823MOL0     C11012  -2.125  10.480   0.628  0.2391 -0.5019 -0.4333
  823MOL0     C11013  -2.169  10.551   0.500 -0.2555  0.1330  0.0573
  823MOL0     C11014  -2.319  10.588   0.503  0.6236  0.0501  0.5137
  823MOL0    Cl11015  -2.344  10.708   0.372  0.3571  0.1935  0.1921
  823MOL0     C11016  -1.280  10.489   1.006  0.6033  0.4724 -0.5339
  823MOL0     C11017  -1.193  10.417   1.079 -0.0717 -0.1386 -0.2347
  823MOL0     O11018  -0.955  10.241   1.102  0.5974  0.4695 -0.1019
  823MOL0     C11019  -1.005  10.046   1.392 -0.4518 -0.4850  0.0848
  823MOL0     C11020  -0.947   9.996   1.509 -0.3753 -0.4749  0.7815
  823MOL0     N11021  -0.291  10.093   2.065 -0.4209  1.2212 -0.2832
  823MOL0     N11022  -0.165  10.101   2.104 -0.3231  0.4690  0.1124
  823MOL0     C11023   0.777   9.247   2.380 -1.5388  0.8910  0.7615
  823MOL0     C11024   0.870   9.199   2.478 -0.4273 -1.1610  0.1527
  823MOL0     C11025   1.195   9.249   2.775 -0.5230  0.0927  0.4741
  823MOL0     C11026   1.295   9.341   2.802  0.7612  1.2185  0.4765
  823MOL0     C11027   1.415   9.306   2.863  0.0045 -0.3462 -0.9816
  823MOL0     C11028   1.436   9.178   2.907  0.6911  1.8085 -0.1952
  823MOL0     O11029   1.550   9.127   2.977 -0.2329 -0.7633 -0.0457
  823MOL0     C11030   1.682   9.161   2.940 -0.3192 -0.1261 -0.6617
  823MOL0     C11031   1.714   9.093   2.806 -0.6899 -0.2813  0.2969
  823MOL0     C11032   1.853   9.130   2.753 -0.5605  0.3592 -0.9597
  823MOL0     C11033   1.892   9.063   2.623 -0.4912  0.0916  0.4393
  823MOL0     C11034   1.820   9.123   2.506  0.8057  1.2238  0.4914
  823MOL0     C11035   1.748   9.135   2.408  0.1140 -0.6933 -0.2157
  823MOL0     C11036   1.341   9.084   2.869 -0.5803  1.3917 -0.4202
  823MOL0     C11037   1.226   9.115   2.806 -0.4615  0.1321  0.0045
  823MOL0     H11038   0.762   9.371   2.749  1.4541 -1.2134  1.4624
  823MOL0     H11039   0.592   9.437   2.579 -0.3948 -1.9118  1.6561
  823MOL0     H11040   0.690   9.316   2.145 -1.6276 -1.6860 -3.4733
  823MOL0     H11041   0.529   9.254   2.190 -2.0794  0.8155 -1.0771
  823MOL0     H11042   0.599   9.526   2.072 -2.1998  2.4369  0.5679
  823MOL0     H11043   0.510   9.390   1.989 -0.8444 -1.1752  0.2051
  823MOL0     H11044   0.338   9.515   2.035 -4.8454  1.2831  3.2123
  823MOL0     H11045   0.349   9.389   2.166  1.4080 -1.6073 -1.0707
  823MOL0     H11046   0.444   9.572   2.305  1.4561  0.1210 -0.7393
  823MOL0     H11047   0.419   9.699   2.188  0.9286 -1.0855  2.5906
  823MOL0     H11048   0.174   9.552   2.269 -0.8978  1.0156  2.9146
  823MOL0     H11049   0.248   9.680   2.354 -0.3327  2.7745 -1.2990
  823MOL0     H11050   0.255   9.788   2.099  1.8777 -1.6217  0.4288
  823MOL0     H11051   0.124   9.665   2.074 -1.2795  0.4866 -0.5415
  823MOL0     H11052  -0.015   9.775   2.238  1.8881 -1.3678 -0.0125
  823MOL0     H11053   0.118   9.868   2.300 -2.6566  0.1312  1.8312
  823MOL0     H11054   0.045   9.907   2.017 -3.7559  2.9208 -2.1138
  823MOL0     H11055   0.097  10.028   2.123  0.2645  0.0682  1.1156
  823MOL0     H11056  -0.216   9.779   2.102 -1.2120 -0.3956  0.3716
  823MOL0     H11057  -0.408   9.804   1.947  2.3788  1.4164 -0.8428
  823MOL0     H11058  -0.515   9.877   2.081  0.4423 -1.5248  0.9319
  823MOL0     H11059  -0.413   9.997   1.824  1.0661  2.6482  1.5077
  823MOL0     H11060  -0.525  10.077   1.938 -0.1292 -0.1835  0.3359
  823MOL0     H11061  -0.697   9.896   1.883 -0.4974  1.7461  0.1229
  823MOL0     H11062  -0.577   9.838   1.766 -3.3696 -1.2358 -2.1579
  823MOL0     H11063  -0.583  10.031   1.638 -1.6499  0.4935 -0.3236
  823MOL0     H11064  -0.672  10.130   1.748 -0.7016  0.7404  0.8284
  823MOL0     H11065  -0.652  10.163   1.497  0.7306 -0.1784 -0.5961
  823MOL0     H11066  -0.638  10.219   1.216  0.1102  1.1472  0.8021
  823MOL0     H11067  -0.763  10.344   1.196  2.4046  2.5165 -1.5004
  823MOL0     H11068  -0.655  10.344   1.323 -1.2583  1.8433 -1.0491
  823MOL0     H11069  -1.396  10.195   1.225 -0.2265  1.8692  1.5595
  823MOL0     H11070  -1.574  10.333   1.096 -0.3421  2.4804 -1.0684
  823MOL0     H11071  -1.605  10.391   0.840  1.1389 -1.9469  2.9576
  823MOL0     H11072  -1.691  10.495   0.966 -0.5896  0.9398  0.0350
  823MOL0     H11073  -1.697  10.690   0.845  0.8609 -0.2496  0.8902
  823MOL0     H11074  -1.570  10.632   0.742  0.7552  0.6531  2.0537
  823MOL0     H11075  -1.711  10.470   0.625  0.2285  2.0587 -2.9145
  823MOL0     H11076  -1.771  10.629   0.610 -1.2662 -1.1617 -2.1472
  823MOL0     H11077  -1.875  10.410   0.805 -0.7754 -1.9707 -2.1680
  823MOL0     H11078  -1.956  10.569   0.794  1.9666 -0.2976  1.6280
  823MOL0     H11079  -1.972  10.339   0.601 -2.3804 -0.6094 -0.1975
  823MOL0     H11080  -1.948  10.504   0.536  1.1212 -0.9179  0.2411
  823MOL0     H11081  -2.180  10.387   0.645  0.5887 -0.1629  3.3905
  823MOL0     H11082  -2.149  10.535   0.719  0.0857 -1.6338  0.2322
  823MOL0     H11083  -2.138  10.491   0.413  5.8799  0.1936  1.7193
  823MOL0     H11084  -2.114  10.645   0.506  0.4535 -0.3052  0.6651
  823MOL0     H11085  -2.341  10.630   0.601  0.9940 -1.0690  1.0841
  823MOL0     H11086  -2.394  10.510   0.487 -1.3811  1.9449  0.1336
  823MOL0     H11087  -1.239  10.575   0.954  0.3868 -0.3428 -2.0825
  823MOL0     H11088  -1.085  10.430   1.074 -0.1155  2.2067  2.5615
  823MOL0     H11089  -1.108  10.021   1.366 -0.6598  0.0888  0.3272
  823MOL0     H11090  -1.003   9.918   1.560 -2.3832 -1.5830 -2.7836
  823MOL0     H11091   0.791   9.210   2.279 -0.4419 -0.2579  1.3175
  823MOL0     H11092   0.920   9.105   2.456  1.2625 -0.4011  0.5986
  823MOL0     H11093   1.287   9.447   2.779  1.5245  0.6646 -2.8652
  823MOL0     H11094   1.484   9.390   2.873 -0.8979  0.1463  1.8681
  823MOL0     H11095   1.689   9.270   2.950  4.2226 -0.3984  1.6141
  823MOL0     H11096   1.754   9.112   3.006 -2.6675 -0.9418  1.4542
  823MOL0     H11097   1.643   9.132   2.733 -0.1106  0.6647  0.2273
  823MOL0     H11098   1.699   8.985   2.813  3.7772 -1.1407  0.0222
  823MOL0     H11099   1.934   9.113   2.825 -0.0979  2.8032 -0.8141
  823MOL0     H11100   1.873   9.237   2.742  1.2057  0.6357  2.9848
  823MOL0     H11101   1.885   8.954   2.630 -0.0897 -0.0412 -0.8404
  823MOL0     H11102   1.994   9.098   2.602 -2.2255  3.6782 -3.4774
  823MOL0     H11103   1.688   9.160   2.323 -0.7397 -1.4162  0.1519
  823MOL0     H11104   1.359   8.978   2.881 -1.7185  1.0999 -1.1432
  823MOL0     H11105   1.159   9.036   2.774 -0.8741  0.1060  0.9060
  824MOL0     O11106   8.845   4.050   7.375 -0.1379  0.0809  0.1027
  824MOL0     C11107   8.780   3.949   7.344 -0.9596 -0.2809 -0.0300
  824MOL0     O11108   8.813   3.826   7.374  0.1576  1.2127 -0.5554
  824MOL0     C11109   8.916   3.823   7.467 -0.1314 -0.5037 -0.0917
  824MOL0     C11110   9.048   3.784   7.438  0.1184  0.4567 -1.1611
  824MOL0     C11111   9.143   3.769   7.548  0.2897 -0.1219 -0.2835
  824MOL0     C11112   9.107   3.806   7.678 -0.4711  0.5524  0.7790
  824MOL0     O11113   9.197   3.806   7.780 -0.7895 -0.1454  0.0519
  824MOL0     C11114   9.226   3.670   7.821  1.0692  0.5043  0.2746
  824MOL0     C11115   9.267   3.668   7.971 -0.3464  0.0860 -0.2657
  824MOL0     C11116   9.378   3.562   8.007 -0.3786  0.0802  0.1461
  824MOL0     C11117   9.335   3.423   8.000  0.0095  0.2059 -0.4749
  824MOL0     C11118   9.439   3.311   8.040 -0.4590 -0.3962  0.1326
  824MOL0     C11119   9.568   3.313   7.942 -0.1519 -0.6855 -0.6857
  824MOL0     C11120   9.631   3.170   7.934  0.0241 -0.0887 -0.0900
  824MOL0     C11121   9.690   3.130   8.068 -0.1968  0.1629  0.3851
  824MOL0     N11122   9.766   3.000   8.075 -0.0461 -0.2977  0.1313
  824MOL0     C11123   9.853   2.959   7.987 -1.3664 -0.2648  0.6072
  824MOL0     C11124   9.855   2.823   7.994 -0.1814 -0.0074 -1.1628
  824MOL0     C11125   9.927   2.718   7.917  0.0428  0.5295 -0.2584
  824MOL0     C11126   9.844   2.601   7.862  0.2696 -0.4027  0.6973
  824MOL0     C11127   9.919   2.483   7.818 -0.3004  1.0299  0.3992
  824MOL0     C11128  10.023   2.489   7.705  0.4975 -0.7495 -0.6735
  824MOL0     O11129  10.052   2.356   7.668 -0.1036 -0.1386  0.2493
  824MOL0     C11130  10.131   2.288   7.757 -0.6603  1.2625  0.6784
  824MOL0     C11131  10.092   2.172   7.804  0.0354 -0.1136  0.0375
  824MOL0     C11132  10.175   2.087   7.871  0.1106  0.1621  0.0131
  824MOL0     C11133  10.109   1.953   7.930  1.1593  0.5496 -0.0026
  824MOL0     C11134  10.307   2.120   7.903  0.6194 -0.5759  0.8562
  824MOL0     C11135  10.398   2.036   7.977  0.2152  0.2433  0.1724
  824MOL0     O11136  10.496   2.087   8.059  0.6334  0.5848 -0.3442
  824MOL0     C11137  10.582   1.996   8.107  0.2086  0.0607  0.5360
  824MOL0     C11138  10.573   1.969   8.242 -0.3580 -0.4397  0.3501
  824MOL0     C11139  10.664   1.894   8.312 -0.1875 -0.5274  0.3566
  824MOL0     C11140  10.781   1.844   8.242  0.0547  0.4181  0.3178
  824MOL0     O11141  10.872   1.773   8.307 -0.5743 -0.4911 -0.2579
  824MOL0     C11142  11.008   1.793   8.263 -0.5189  0.0534 -0.0393
  824MOL0     C11143  11.106   1.723   8.365  0.6234  1.0421  0.0089
  824MOL0     C11144  11.258   1.734   8.323  0.4755  0.5023  0.4036
  824MOL0     C11145  11.358   1.666   8.415  0.1068 -0.4020  0.1813
  824MOL0     C11146  11.350   1.515   8.419 -0.3850  0.0400  0.1821
  824MOL0     C11147  11.471   1.461   8.496  0.0200  0.4406  0.3077
  824MOL0     C11148  11.464   1.310   8.512 -0.2586 -1.0588 -0.0343
  824MOL0     C11149  11.580   1.238   8.575  0.1979  0.9571 -0.3062
  824MOL0    Cl11150  11.602   1.304   8.741 -0.2598 -0.0321 -0.1339
  824MOL0     C11151  10.788   1.868   8.105 -0.0121 -0.1401  0.2454
  824MOL0     C11152  10.689   1.942   8.035  0.1220 -0.1756  0.6629
  824MOL0     O11153  10.395   1.921   7.939 -0.6798  0.1717 -0.1760
  824MOL0     C11154  10.356   2.238   7.838  0.1536 -0.2675 -0.8679
  824MOL0     C11155  10.271   2.328   7.778  0.1979  0.6512  0.2155
  824MOL0     N11156   9.782   2.796   8.111 -0.5029 -0.4529  0.9305
  824MOL0     N11157   9.725   2.896   8.155 -0.2048  0.0561 -0.2916
  824MOL0     C11158   8.975   3.854   7.702  0.6419  0.5567 -0.6046
  824MOL0     C11159   8.883   3.858   7.598  0.2463  0.1213 -0.0570
  824MOL0     C11160   8.656   3.967   7.262  1.5887 -1.3292 -0.1293
  824MOL0     C11161   8.599   4.103   7.229  0.1732 -0.0312 -0.1473
  824MOL0     C11162   8.475   4.118   7.155 -0.6269 -0.3680 -1.5249
  824MOL0     C11163   8.420   4.005   7.099  0.1024  0.3053  0.3193
  824MOL0     O11164   8.313   4.007   7.011 -0.2463 -0.2352 -0.0323
  824MOL0     C11165   8.215   4.114   7.037  0.7214  0.2317  0.5488
  824MOL0     C11166   8.077   4.070   6.976  0.0388 -0.1105 -0.2634
  824MOL0     C11167   7.973   4.185   7.001 -0.5256  0.2496  0.3992
  824MOL0     C11168   7.992   4.308   6.915 -0.4401 -0.1714  1.0683
  824MOL0     C11169   7.988   4.288   6.771  0.2089  1.0098 -0.8639
  824MOL0     C11170   7.983   4.271   6.657 -0.2019  0.0921  0.9334
  824MOL0     C11171   8.471   3.880   7.120  0.4739 -0.9880 -0.4903
  824MOL0     C11172   8.586   3.860   7.203  0.3404  0.1453  0.7671
  824MOL0     H11173   9.071   3.746   7.339 -0.1882 -1.2136 -0.6299
  824MOL0     H11174   9.243   3.735   7.523  1.8856  3.3680  0.7132
  824MOL0     H11175   9.134   3.613   7.806 -1.4444  3.4806  2.8615
  824MOL0     H11176   9.309   3.639   7.756  0.8329  0.3427  0.0479
  824MOL0     H11177   9.307   3.763   8.005 -0.7245 -0.3083  1.3678
  824MOL0     H11178   9.183   3.654   8.040  1.1986  0.8625  1.8699
  824MOL0     H11179   9.469   3.572   7.948 -0.2221 -0.6197  0.2634
  824MOL0     H11180   9.408   3.583   8.110 -3.7840  1.6791  0.9752
  824MOL0     H11181   9.253   3.417   8.072  0.1593  0.2840 -0.2952
  824MOL0     H11182   9.308   3.406   7.895  3.5315 -0.8640 -1.3571
  824MOL0     H11183   9.472   3.326   8.143  2.0214 -1.4575 -0.4392
  824MOL0     H11184   9.392   3.212   8.035  1.1567 -1.3816  2.5651
  824MOL0     H11185   9.540   3.342   7.841  0.1095 -0.5078 -0.7076
  824MOL0     H11186   9.640   3.378   7.992 -0.8697 -0.9651  0.7724
  824MOL0     H11187   9.565   3.085   7.915  2.2886 -2.2021  0.8775
  824MOL0     H11188   9.708   3.185   7.857 -0.5587  3.3189 -0.1626
  824MOL0     H11189   9.604   3.110   8.133  0.3142  0.0083  1.0287
  824MOL0     H11190   9.751   3.209   8.113 -1.5060  0.8650  0.9794
  824MOL0     H11191   9.914   3.020   7.922 -0.3711 -3.5577 -1.8505
  824MOL0     H11192   9.971   2.770   7.831 -3.2010  1.9578 -1.2243
  824MOL0     H11193  10.004   2.682   7.986 -0.0371 -0.6384 -0.7539
  824MOL0     H11194   9.778   2.629   7.780  0.7854 -0.3388  0.2953
  824MOL0     H11195   9.772   2.567   7.937  0.9051  3.0862  3.1312
  824MOL0     H11196   9.856   2.408   7.769  3.1696 -1.1458 -1.1330
  824MOL0     H11197   9.952   2.428   7.906 -0.2625 -2.2528 -1.4822
  824MOL0     H11198  10.109   2.547   7.741  0.4827 -1.5821  0.7791
  824MOL0     H11199   9.980   2.534   7.615  1.0672 -1.1092 -1.1323
  824MOL0     H11200   9.987   2.154   7.787  0.1845 -0.7386 -0.2368
  824MOL0     H11201  10.155   1.857   7.905 -0.8170 -1.3165  2.9503
  824MOL0     H11202  10.109   1.966   8.038  0.7822  1.4122 -0.0988
  824MOL0     H11203  10.003   1.946   7.905  0.3795  0.3398  3.0420
  824MOL0     H11204  10.481   2.003   8.290 -2.8683 -2.7967 -2.3471
  824MOL0     H11205  10.646   1.865   8.415  2.0257 -2.2496  0.3330
  824MOL0     H11206  11.026   1.755   8.162  0.2480 -3.0107  1.1222
  824MOL0     H11207  11.044   1.895   8.249 -0.4109  0.4409  2.5697
  824MOL0     H11208  11.102   1.752   8.470  0.7185  0.4124  0.1873
  824MOL0     H11209  11.075   1.618   8.370  0.2908  1.0067 -1.8779
  824MOL0     H11210  11.294   1.837   8.309  0.1090  0.3713 -1.8891
  824MOL0     H11211  11.270   1.681   8.228  1.5320 -0.4889  1.0751
  824MOL0     H11212  11.454   1.692   8.369 -0.2255 -0.7290 -0.7188
  824MOL0     H11213  11.371   1.713   8.513  3.1518 -4.8370  2.2187
  824MOL0     H11214  11.353   1.477   8.317  2.9543  0.5479 -0.0174
  824MOL0     H11215  11.260   1.478   8.469  0.6567 -0.3972  1.8036
  824MOL0     H11216  11.568   1.478   8.448 -0.4149  0.9568 -0.4263
  824MOL0     H11217  11.477   1.497   8.599 -2.6028 -1.6362  1.3052
  824MOL0     H11218  11.453   1.275   8.409 -3.1040 -0.5084  0.0189
  824MOL0     H11219  11.374   1.290   8.569  0.4644 -1.1737  1.0979
  824MOL0     H11220  11.664   1.244   8.506 -0.5635  2.5316 -1.1549
  824MOL0     H11221  11.558   1.133   8.591 -0.1849  1.3494  2.1299
  824MOL0     H11222  10.862   1.817   8.045  0.1753  0.1592  0.2204
  824MOL0     H11223  10.691   1.989   7.937 -0.0479 -0.1680  0.6627
  824MOL0     H11224  10.459   2.271   7.846 -0.0970  0.2180  0.6826
  824MOL0     H11225  10.312   2.415   7.727  1.4592 -0.3764 -0.5956
  824MOL0     H11226   8.946   3.877   7.805 -4.4166 -0.8114 -1.4449
  824MOL0     H11227   8.779   3.875   7.620  0.5191 -1.7201  3.4136
  824MOL0     H11228   8.656   4.190   7.260 -0.7299 -0.3400  2.5814
  824MOL0     H11229   8.440   4.218   7.131 -3.7408 -1.7476 -3.2566
  824MOL0     H11230   8.212   4.133   7.145 -1.2671  1.0487  0.3923
  824MOL0     H11231   8.247   4.213   7.003 -1.3082  1.9879  3.2785
  824MOL0     H11232   8.041   3.976   7.017 -1.7750  0.4395 -0.5010
  824MOL0     H11233   8.096   4.045   6.872  0.1657  3.1053 -1.1371
  824MOL0     H11234   7.979   4.223   7.104 -1.1245  1.2043  0.0940
  824MOL0     H11235   7.871   4.147   6.996 -0.5293  0.1927  0.8524
  824MOL0     H11236   8.084   4.362   6.939  1.8638 -3.1755 -0.3075
  824MOL0     H11237   7.900   4.358   6.947 -2.8693 -3.3817 -0.3745
  824MOL0     H11238   7.967   4.275   6.551  0.9319  4.7242  0.6981
  824MOL0     H11239   8.423   3.790   7.082 -2.4070  1.3659 -2.9401
  824MOL0     H11240   8.626   3.762   7.227  1.2545  0.0356 -1.0150
  825MOL0     O11241   5.644   0.814   3.815 -0.3805  0.3204 -0.1782
  825MOL0     C11242   5.751   0.785   3.863  0.0767  0.7321  0.8143
  825MOL0     O11243   5.813   0.665   3.835 -0.9580 -0.3570 -0.2253
  825MOL0     C11244   5.789   0.574   3.739 -0.0794 -0.5516  0.9647
  825MOL0     C11245   5.844   0.447   3.732 -0.0787 -0.5039 -0.1697
  825MOL0     C11246   5.857   0.363   3.620 -0.2266  0.9551  0.8281
  825MOL0     C11247   5.795   0.393   3.505  0.2928 -0.4138  0.6281
  825MOL0     O11248   5.783   0.306   3.401  0.1697  0.6170 -0.0876
  825MOL0     C11249   5.655   0.296   3.330 -0.8047 -0.6270  0.0739
  825MOL0     C11250   5.682   0.235   3.198  0.3971 -0.4879 -0.1215
  825MOL0     C11251   5.659   0.079   3.196  0.0904  0.4675 -0.2163
  825MOL0     C11252   5.656   0.029   3.044 -0.2846 -0.3088 -0.1598
  825MOL0     C11253   5.633  -0.124   3.053 -0.2934 -0.0419  0.3684
  825MOL0     C11254   5.618  -0.188   2.908  0.0314  0.4053 -0.8079
  825MOL0     C11255   5.561  -0.323   2.918 -0.8714  0.6798 -1.1555
  825MOL0     C11256   5.588  -0.423   2.814  0.2367  0.3404  0.2978
  825MOL0     N11257   5.514  -0.381   2.693  0.6612 -0.7264  0.2841
  825MOL0     C11258   5.425  -0.458   2.611 -0.6609  0.5003  0.2517
  825MOL0     C11259   5.413  -0.383   2.502 -1.0645 -0.1762 -0.2112
  825MOL0     C11260   5.339  -0.396   2.375 -0.4183  0.0322  0.2103
  825MOL0     C11261   5.226  -0.290   2.366 -0.2159  0.8421 -0.4898
  825MOL0     C11262   5.285  -0.154   2.332 -1.2172 -0.4031  0.1211
  825MOL0     C11263   5.178  -0.045   2.297  0.8220 -0.9376  0.6038
  825MOL0     O11264   5.124  -0.080   2.166 -0.0531  0.9755  0.2853
  825MOL0     C11265   5.057   0.013   2.091  0.3737  0.5491 -0.2835
  825MOL0     C11266   5.048  -0.018   1.957 -0.6112 -0.4890  0.9246
  825MOL0     C11267   4.967   0.054   1.868  0.2693  0.4264  0.1301
  825MOL0     C11268   4.953   0.000   1.728  0.0730  0.3654 -0.5238
  825MOL0     C11269   4.891   0.166   1.921 -0.0336  1.2157  0.3170
  825MOL0     C11270   4.798   0.252   1.827  1.0645 -0.0734 -0.4243
  825MOL0     O11271   4.732   0.203   1.720 -0.0136 -0.9303  0.3961
  825MOL0     C11272   4.645   0.280   1.650  0.4409 -0.0265  0.4021
  825MOL0     C11273   4.649   0.421   1.638  0.4834  0.1939 -0.6609
  825MOL0     C11274   4.549   0.477   1.553 -0.2368  0.5769 -0.3428
  825MOL0     C11275   4.450   0.409   1.485 -0.2304 -0.0860  0.1623
  825MOL0     O11276   4.372   0.488   1.408  0.1886 -0.2399 -0.2945
  825MOL0     C11277   4.297   0.422   1.310  0.1519  0.2706 -1.0495
  825MOL0     C11278   4.221   0.509   1.209  0.4845 -0.9382 -0.0725
  825MOL0     C11279   4.301   0.616   1.150  0.2601 -0.4595  0.7971
  825MOL0     C11280   4.226   0.690   1.035 -0.5279  0.9351 -0.7531
  825MOL0     C11281   4.323   0.784   0.973  0.7294 -0.3122 -0.7922
  825MOL0     C11282   4.256   0.867   0.865  0.1022  0.0003  0.9163
  825MOL0     C11283   4.170   0.987   0.927 -0.0974  0.6517  0.1878
  825MOL0     C11284   4.161   1.107   0.840 -1.0626 -0.4583 -0.1428
  825MOL0    Cl11285   4.051   1.230   0.893  0.0764 -0.2487 -0.3951
  825MOL0     C11286   4.450   0.267   1.496  0.0221 -0.8587  0.4851
  825MOL0     C11287   4.545   0.211   1.582  0.6012  1.3978  0.5066
  825MOL0     O11288   4.801   0.370   1.861  0.8083  1.2686  0.0469
  825MOL0     C11289   4.920   0.205   2.062  0.7955 -0.2556  1.2144
  825MOL0     C11290   4.996   0.130   2.136 -0.4113 -0.3486 -0.7521
  825MOL0     N11291   5.497  -0.278   2.518  0.3920  0.3901 -0.2865
  825MOL0     N11292   5.562  -0.275   2.626  0.9145  0.7432  0.1754
  825MOL0     C11293   5.743   0.519   3.496 -0.4646  0.6505 -0.5152
  825MOL0     C11294   5.738   0.609   3.608  0.8829  0.0151  0.2597
  825MOL0     C11295   5.812   0.866   3.970 -0.8375  0.0841 -0.0201
  825MOL0     C11296   5.942   0.851   4.004 -0.0153 -0.0246  0.0339
  825MOL0     C11297   5.997   0.904   4.129  0.3091 -0.2782 -0.2715
  825MOL0     C11298   5.914   0.998   4.193  0.2530 -0.0582 -0.1521
  825MOL0     O11299   5.943   1.065   4.303  0.2623  0.0514 -0.5564
  825MOL0     C11300   6.062   1.047   4.377  0.6245 -0.5307  0.1954
  825MOL0     C11301   6.077   0.923   4.458 -0.5440 -0.0776 -0.0272
  825MOL0     C11302   5.987   0.926   4.580  0.7302  0.2421 -0.5032
  825MOL0     C11303   6.005   0.804   4.664 -0.4085  0.3164 -0.3012
  825MOL0     C11304   5.934   0.836   4.792 -0.1059 -0.0381  0.1139
  825MOL0     C11305   5.880   0.872   4.896 -0.1219 -1.1882  0.8330
  825MOL0     C11306   5.783   1.021   4.150 -0.2315  0.1398 -0.0564
  825MOL0     C11307   5.736   0.954   4.047  0.2097 -0.5381  0.8774
  825MOL0     H11308   5.880   0.418   3.830 -0.1332 -2.8691 -0.7897
  825MOL0     H11309   5.882   0.260   3.639  0.9982  1.7152  3.8685
  825MOL0     H11310   5.589   0.227   3.383 -1.5697 -0.7309 -0.9894
  825MOL0     H11311   5.607   0.392   3.308  0.9707 -0.0135 -1.4577
  825MOL0     H11312   5.626   0.286   3.120  0.2000  0.7651  0.8101
  825MOL0     H11313   5.787   0.256   3.175 -0.1858 -1.2381 -4.1464
  825MOL0     H11314   5.744   0.029   3.244  1.6809 -0.5058 -3.7300
  825MOL0     H11315   5.559   0.063   3.239  1.0062 -0.8980  1.5765
  825MOL0     H11316   5.580   0.078   2.982 -1.3703  1.2120  2.2207
  825MOL0     H11317   5.752   0.056   3.000 -0.4216 -0.4581 -0.5535
  825MOL0     H11318   5.720  -0.176   3.093  0.4879  0.4415 -0.6321
  825MOL0     H11319   5.542  -0.146   3.110  0.1235 -1.3133  0.5616
  825MOL0     H11320   5.534  -0.137   2.859  0.3484  0.8311 -0.9122
  825MOL0     H11321   5.715  -0.187   2.856 -0.9473 -1.8237 -2.8978
  825MOL0     H11322   5.608  -0.362   3.008 -2.0737  2.8267  0.4878
  825MOL0     H11323   5.453  -0.310   2.932 -0.9590 -1.5856  0.9723
  825MOL0     H11324   5.579  -0.529   2.842 -1.9617  0.6959  1.1748
  825MOL0     H11325   5.696  -0.415   2.800  0.1196  2.5449  0.3393
  825MOL0     H11326   5.382  -0.556   2.632 -2.0524  1.2910  1.2730
  825MOL0     H11327   5.403  -0.382   2.288  0.3529  1.5505  0.9787
  825MOL0     H11328   5.274  -0.484   2.381 -1.3862  0.6010 -1.2835
  825MOL0     H11329   5.181  -0.303   2.465 -1.1570 -2.5807 -1.2509
  825MOL0     H11330   5.153  -0.316   2.289 -0.1178  0.8310 -0.5789
  825MOL0     H11331   5.358  -0.170   2.251  0.6744  1.3756  1.3739
  825MOL0     H11332   5.330  -0.130   2.428 -1.6348  0.4009  0.1187
  825MOL0     H11333   5.223   0.054   2.285  0.4050 -0.8398 -0.2620
  825MOL0     H11334   5.103  -0.035   2.376 -0.3129 -0.5573 -0.4908
  825MOL0     H11335   5.107  -0.105   1.928  1.6816  0.6749  1.8360
  825MOL0     H11336   5.013   0.072   1.671  1.4674 -0.8285 -0.6108
  825MOL0     H11337   4.988  -0.103   1.717 -1.6140 -0.0073 -3.4365
  825MOL0     H11338   4.848  -0.004   1.700 -0.1891  0.9635  0.3174
  825MOL0     H11339   4.714   0.498   1.679 -2.7263  1.6663  2.2115
  825MOL0     H11340   4.544   0.584   1.535  4.8455  0.7906 -1.8681
  825MOL0     H11341   4.367   0.361   1.252  0.5931  0.6224 -0.8950
  825MOL0     H11342   4.229   0.345   1.347  0.6267  0.1974 -0.3047
  825MOL0     H11343   4.191   0.448   1.124  2.9881 -1.5703 -0.5887
  825MOL0     H11344   4.131   0.556   1.248  2.3138  2.1521  0.8416
  825MOL0     H11345   4.381   0.575   1.088  0.6729  0.5313  0.6565
  825MOL0     H11346   4.330   0.678   1.235 -2.3805 -1.2738  2.4050
  825MOL0     H11347   4.196   0.615   0.961  0.4668  0.9645 -1.2003
  825MOL0     H11348   4.141   0.746   1.075  0.1230  1.4096 -0.0133
  825MOL0     H11349   4.411   0.741   0.924  0.2249 -2.4920  0.1136
  825MOL0     H11350   4.370   0.848   1.049 -0.6936 -0.9318  0.6407
  825MOL0     H11351   4.339   0.913   0.811  0.4275 -0.8528  0.6671
  825MOL0     H11352   4.195   0.798   0.806  2.6140 -0.7507 -0.9743
  825MOL0     H11353   4.227   1.015   1.016  0.7884 -0.7516  0.0872
  825MOL0     H11354   4.084   0.941   0.977  0.0880  1.0405  0.8801
  825MOL0     H11355   4.122   1.090   0.739 -1.6242 -0.0646  0.0090
  825MOL0     H11356   4.257   1.156   0.825 -3.2078  3.1648 -4.0408
  825MOL0     H11357   4.381   0.194   1.456 -0.5384 -0.3588  0.5195
  825MOL0     H11358   4.541   0.103   1.589 -1.6928  1.4501  0.6000
  825MOL0     H11359   4.875   0.295   2.102  1.2990 -0.3893  2.1009
  825MOL0     H11360   5.017   0.158   2.238  0.5224 -1.7492 -0.5310
  825MOL0     H11361   5.694   0.563   3.410  1.4728  0.1942 -1.8923
  825MOL0     H11362   5.684   0.702   3.594 -0.4782 -0.7539  0.2173
  825MOL0     H11363   6.006   0.781   3.951 -2.1016 -2.3592  0.3425
  825MOL0     H11364   6.098   0.874   4.156  1.0671  0.2690 -2.3135
  825MOL0     H11365   6.148   1.059   4.310 -0.7251  0.0695 -1.4977
  825MOL0     H11366   6.065   1.134   4.442 -3.4707 -1.0013  1.2713
  825MOL0     H11367   6.176   0.914   4.504 -0.1186 -3.6459 -1.3384
  825MOL0     H11368   6.068   0.834   4.395  2.7925 -1.0482  0.6629
  825MOL0     H11369   5.881   0.931   4.554  0.1918 -1.3015  1.2231
  825MOL0     H11370   6.003   1.018   4.638 -0.6335  2.2054 -2.9938
  825MOL0     H11371   6.110   0.782   4.682 -0.8005 -1.2420  0.2127
  825MOL0     H11372   5.965   0.710   4.626  0.3327 -0.3424  0.5091
  825MOL0     H11373   5.824   0.893   4.985  0.0646  1.1023  0.4641
  825MOL0     H11374   5.722   1.086   4.212  3.5705  1.8230  2.2987
  825MOL0     H11375   5.638   0.972   4.004  0.1069 -0.6149  1.0771
  826MOL0     O11376   9.553  10.343  10.084  0.4034  0.2723  0.6098
  826MOL0     C11377   9.469  10.316   9.993 -0.6218  0.3348  0.4371
  826MOL0     O11378   9.442  10.197   9.938  0.3440 -0.1425  0.5696
  826MOL0     C11379   9.520  10.088   9.965  0.0973  0.5445 -0.8236
  826MOL0     C11380   9.656  10.095   9.999  0.2230 -0.6497  0.5713
  826MOL0     C11381   9.729   9.983  10.030  0.4111 -0.4575  0.2149
  826MOL0     C11382   9.673   9.854  10.018  0.1231 -0.2638 -0.4136
  826MOL0     O11383   9.735   9.745  10.075  0.2818  0.4347  0.5459
  826MOL0     C11384   9.876   9.750  10.094 -0.1977  0.6315 -0.6435
  826MOL0     C11385   9.908   9.602  10.134 -0.2311 -0.9670 -0.3917
  826MOL0     C11386   9.839   9.569  10.275  0.1396 -0.0199 -0.5897
  826MOL0     C11387   9.866   9.421  10.307 -0.7565 -0.4679 -0.2642
  826MOL0     C11388   9.826   9.374  10.444 -0.2860  0.1629 -0.3522
  826MOL0     C11389   9.827   9.486  10.549  0.2281  0.5187 -0.4561
  826MOL0     C11390   9.856   9.448  10.699 -0.1124 -0.5935  0.4479
  826MOL0     C11391   9.885   9.569  10.793  0.3443 -0.2588  0.0266
  826MOL0     N11392   9.764   9.616  10.860  0.7696 -1.1247 -0.4914
  826MOL0     C11393   9.683   9.709  10.799 -0.0681  1.2426  0.6985
  826MOL0     C11394   9.581   9.737  10.885  0.0649  0.5584 -0.3000
  826MOL0     C11395   9.466   9.831  10.869  0.4790 -0.1504  0.5162
  826MOL0     C11396   9.345   9.778  10.793 -0.0002 -0.5226  0.4079
  826MOL0     C11397   9.267   9.664  10.864 -0.3331  0.5842  0.3054
  826MOL0     C11398   9.162   9.711  10.958  0.2219 -0.5405 -1.2072
  826MOL0     O11399   9.074   9.602  10.989 -0.0928  0.3371 -0.0454
  826MOL0     C11400   9.023   9.597  11.117 -0.0922 -0.4185 -0.0242
  826MOL0     C11401   9.048   9.693  11.217  0.9111  0.7156 -0.2875
  826MOL0     C11402   8.975   9.699  11.334  0.7254  0.8589 -0.5294
  826MOL0     C11403   8.998   9.810  11.422  0.0349 -0.0347 -1.6873
  826MOL0     C11404   8.878   9.602  11.351  0.1485 -0.7205  0.5476
  826MOL0     C11405   8.788   9.592  11.467  0.1547  0.0244 -0.0873
  826MOL0     O11406   8.659   9.547  11.437 -0.9914  0.1611 -0.2358
  826MOL0     C11407   8.579   9.485  11.527  0.0257 -0.2465 -0.4006
  826MOL0     C11408   8.614   9.429  11.646  0.7396  0.3813  0.5669
  826MOL0     C11409   8.524   9.370  11.732  0.1267 -0.2958  0.3401
  826MOL0     C11410   8.391   9.357  11.692  0.7010 -0.7531  0.9054
  826MOL0     O11411   8.305   9.300  11.780  0.3661 -0.2537 -0.2978
  826MOL0     C11412   8.216   9.393  11.842 -0.1493  0.4051 -0.2817
  826MOL0     C11413   8.203   9.362  11.993  0.7319 -0.6272  0.2922
  826MOL0     C11414   8.081   9.420  12.058 -0.5087 -0.1007 -0.5749
  826MOL0     C11415   8.065   9.352  12.195 -0.2890  0.2805  0.4627
  826MOL0     C11416   7.941   9.406  12.276  0.3267 -0.3670  0.7484
  826MOL0     C11417   7.921   9.359  12.422 -0.0367  0.7032  0.9787
  826MOL0     C11418   8.042   9.382  12.509 -1.1184 -0.8814  1.0140
  826MOL0     C11419   8.022   9.354  12.660 -0.4819  0.7814 -0.5749
  826MOL0    Cl11420   8.159   9.247  12.727  0.2066  0.0600  0.1400
  826MOL0     C11421   8.343   9.412  11.568 -0.3253 -0.4202 -0.4493
  826MOL0     C11422   8.439   9.482  11.495  0.0954  0.4692 -0.5311
  826MOL0     O11423   8.831   9.621  11.582  0.5454 -0.4487  0.8143
  826MOL0     C11424   8.855   9.498  11.262 -0.0021  0.5265  0.1587
  826MOL0     C11425   8.922   9.501  11.139  0.1904  0.1090 -0.6279
  826MOL0     N11426   9.614   9.669  11.002  0.6711  0.5891  0.1389
  826MOL0     N11427   9.719   9.600  10.982  0.9277 -0.0284  0.0537
  826MOL0     C11428   9.545   9.848   9.972 -0.0820  0.1472  0.4686
  826MOL0     C11429   9.466   9.965   9.940  0.1512  1.0820 -0.2605
  826MOL0     C11430   9.386  10.429   9.952  0.5241  0.1714  0.2281
  826MOL0     C11431   9.283  10.416   9.853  0.4929 -0.1012 -0.3238
  826MOL0     C11432   9.225  10.532   9.792  0.6385 -0.3766 -0.2642
  826MOL0     C11433   9.256  10.657   9.834  0.8003 -1.1165  0.3607
  826MOL0     O11434   9.193  10.770   9.789 -0.0369 -0.9885 -0.9980
  826MOL0     C11435   9.090  10.762   9.686  0.6157 -0.2166 -0.0937
  826MOL0     C11436   9.026  10.900   9.663 -0.2185  0.4131 -0.5228
  826MOL0     C11437   8.968  10.902   9.521  0.2665  0.3659  0.6062
  826MOL0     C11438   8.860  11.005   9.486 -0.0658  0.0006 -0.0297
  826MOL0     C11439   8.734  10.968   9.560  0.0733 -2.0146  0.0816
  826MOL0     C11440   8.638  10.937   9.631  1.0078 -0.8981  0.4934
  826MOL0     C11441   9.340  10.670   9.941 -0.5117  0.5481 -0.2814
  826MOL0     C11442   9.411  10.555  10.003  0.0088 -0.1467 -0.0619
  826MOL0     H11443   9.714  10.186   9.995 -1.6092  0.7717  3.0756
  826MOL0     H11444   9.828  10.001  10.070  0.6486 -3.2275  1.0860
  826MOL0     H11445   9.933   9.769  10.003  1.5924 -0.9332  0.0645
  826MOL0     H11446   9.916   9.819  10.169 -1.1940  0.1320  0.3792
  826MOL0     H11447   9.868   9.537  10.056 -0.6003 -1.3578  0.1201
  826MOL0     H11448  10.015   9.581  10.128 -0.2444 -1.1672  0.0105
  826MOL0     H11449   9.883   9.632  10.353 -1.7585 -0.7137  1.1138
  826MOL0     H11450   9.732   9.590  10.281  0.6167  2.3827  0.5237
  826MOL0     H11451   9.808   9.358  10.238  0.7089 -0.4276 -1.6121
  826MOL0     H11452   9.971   9.395  10.291 -0.3494  0.0020  1.4765
  826MOL0     H11453   9.718   9.356  10.443 -0.0316 -1.5144 -0.5285
  826MOL0     H11454   9.873   9.278  10.467 -1.1343 -0.4589 -1.1111
  826MOL0     H11455   9.913   9.549  10.523  0.5919 -0.1115 -0.7912
  826MOL0     H11456   9.735   9.546  10.552 -0.1712 -0.1055  2.1755
  826MOL0     H11457   9.787   9.375  10.742 -0.6735  0.2398  0.9946
  826MOL0     H11458   9.949   9.391  10.711 -0.2473 -0.9220 -0.0345
  826MOL0     H11459   9.921   9.653  10.733  4.7832 -1.1052  1.1132
  826MOL0     H11460   9.960   9.541  10.868 -0.4707  1.1960  1.4700
  826MOL0     H11461   9.693   9.757  10.703  0.2300  0.2251  0.2111
  826MOL0     H11462   9.442   9.848  10.974  2.0987  1.1880  0.7070
  826MOL0     H11463   9.501   9.917  10.812  1.1154 -1.0975 -0.5755
  826MOL0     H11464   9.384   9.744  10.697  5.1141 -0.1548  2.0699
  826MOL0     H11465   9.288   9.871  10.780 -2.7157 -2.0585  0.4968
  826MOL0     H11466   9.320   9.592  10.926 -0.4254  2.4432  2.6622
  826MOL0     H11467   9.216   9.609  10.784  0.3615 -1.6802  1.3503
  826MOL0     H11468   9.100   9.798  10.932 -0.3803 -0.1228  1.3246
  826MOL0     H11469   9.220   9.745  11.044 -0.5840  0.9388 -1.2129
  826MOL0     H11470   9.119   9.773  11.198  0.6015  0.6209 -2.0047
  826MOL0     H11471   9.081   9.879  11.402  0.1498 -0.2711 -2.0276
  826MOL0     H11472   8.903   9.863  11.437 -0.0921 -0.9142  1.4113
  826MOL0     H11473   9.030   9.767  11.517 -1.7842  0.3023 -0.8784
  826MOL0     H11474   8.719   9.433  11.674  0.2660  0.7882  2.4391
  826MOL0     H11475   8.553   9.328  11.827 -1.3532  0.3203  1.0863
  826MOL0     H11476   8.253   9.495  11.845 -0.6181  0.5587  1.0911
  826MOL0     H11477   8.120   9.385  11.791 -1.8119  0.9209  2.5632
  826MOL0     H11478   8.199   9.253  11.993 -2.3356 -0.8566 -4.6298
  826MOL0     H11479   8.288   9.417  12.033 -1.2945  3.7690 -0.8010
  826MOL0     H11480   7.995   9.415  11.990  1.5080  0.9088 -3.3847
  826MOL0     H11481   8.090   9.528  12.073 -3.5001  0.3004 -1.1238
  826MOL0     H11482   8.064   9.243  12.191  4.0706  0.0575  0.4724
  826MOL0     H11483   8.150   9.377  12.259 -1.6528  0.7208  2.2076
  826MOL0     H11484   7.851   9.370  12.226 -0.6113  1.2320  1.2069
  826MOL0     H11485   7.925   9.514  12.277 -3.2556 -0.7986  1.6540
  826MOL0     H11486   7.825   9.396  12.461 -0.1427  0.2820  1.1119
  826MOL0     H11487   7.913   9.250  12.418 -2.2131  0.7923  1.6078
  826MOL0     H11488   8.075   9.487  12.505 -1.3801 -0.8338 -0.6409
  826MOL0     H11489   8.126   9.319  12.476 -1.4769 -1.9824  2.1498
  826MOL0     H11490   7.925   9.306  12.680 -1.3369  2.0026 -1.5989
  826MOL0     H11491   8.037   9.447  12.715 -0.4750  0.1552  0.5048
  826MOL0     H11492   8.240   9.405  11.536 -1.5469  0.9245  2.7815
  826MOL0     H11493   8.406   9.528  11.403  0.6785  2.1518  0.0610
  826MOL0     H11494   8.778   9.422  11.263 -0.6979  1.1745 -1.1026
  826MOL0     H11495   8.886   9.435  11.061  1.4883 -3.0157  1.1883
  826MOL0     H11496   9.517   9.744   9.963  1.1905 -0.1129 -0.8145
  826MOL0     H11497   9.367   9.946   9.901 -0.9124  2.8439  1.3931
  826MOL0     H11498   9.278  10.312   9.820  0.8726 -0.5545  0.9960
  826MOL0     H11499   9.155  10.521   9.710 -0.3827 -0.5659  0.6112
  826MOL0     H11500   9.132  10.732   9.589 -1.1809 -0.8066 -0.7292
  826MOL0     H11501   9.005  10.699   9.712 -1.1231  2.1229  0.1548
  826MOL0     H11502   9.103  10.975   9.680  2.3592 -2.4004  1.2220
  826MOL0     H11503   8.950  10.887   9.741 -0.3065 -0.7991 -0.7823
  826MOL0     H11504   8.925  10.803   9.502  0.6483  0.3767 -0.3945
  826MOL0     H11505   9.051  10.922   9.452 -0.8911  1.0097 -0.6387
  826MOL0     H11506   8.850  11.001   9.377 -1.0087 -2.3761  0.0856
  826MOL0     H11507   8.903  11.100   9.517  1.2961 -1.3354  2.5133
  826MOL0     H11508   8.554  10.900   9.685  1.0396 -0.2330  1.0068
  826MOL0     H11509   9.362  10.769   9.980  0.3790  0.6344 -0.9965
  826MOL0     H11510   9.479  10.585  10.081 -1.6282  2.3489  0.5015
  827MOL0     O11511   3.213   1.055  10.490 -0.3132 -0.3741  0.0259
  827MOL0     C11512   3.320   1.115  10.501  0.1138 -0.0267 -0.0154
  827MOL0     O11513   3.399   1.146  10.393 -0.1993 -1.0385  0.1139
  827MOL0     C11514   3.372   1.097  10.269  0.4760  0.4258 -0.2791
  827MOL0     C11515   3.358   0.962  10.240  0.4782 -0.3152  0.3312
  827MOL0     C11516   3.332   0.916  10.113 -0.1592 -0.5411 -0.3210
  827MOL0     C11517   3.336   1.007  10.009 -0.6119 -0.9741  0.6231
  827MOL0     O11518   3.333   0.954   9.886 -0.0424  0.1067 -0.3646
  827MOL0     C11519   3.452   0.988   9.803  0.0194 -1.1422 -0.4764
  827MOL0     C11520   3.426   0.947   9.656 -1.3431  0.0492  0.2615
  827MOL0     C11521   3.281   0.959   9.607 -0.8174 -0.1091 -0.4594
  827MOL0     C11522   3.271   0.932   9.455  0.6683  1.0264  0.0899
  827MOL0     C11523   3.131   0.925   9.401  1.0712 -0.0623  1.2511
  827MOL0     C11524   3.133   0.920   9.246 -0.6231 -0.1153  0.1475
  827MOL0     C11525   3.008   0.895   9.168 -0.6752 -0.3229  0.7266
  827MOL0     C11526   2.974   0.743   9.168  0.5214  0.0095  1.0003
  827MOL0     N11527   3.056   0.661   9.065  0.3947  1.0719 -0.2787
  827MOL0     C11528   3.037   0.638   8.932  0.8856  0.4790  0.8823
  827MOL0     C11529   3.145   0.584   8.880  0.2968 -0.2365  0.3166
  827MOL0     C11530   3.157   0.564   8.735  0.0478 -0.3152 -0.2285
  827MOL0     C11531   3.144   0.426   8.678  0.7260 -1.1278  0.5977
  827MOL0     C11532   3.189   0.413   8.531 -0.2799 -0.3376  0.7639
  827MOL0     C11533   3.111   0.494   8.427 -0.8183 -0.5424  0.5029
  827MOL0     O11534   3.150   0.442   8.297 -0.7668  0.5014  0.3659
  827MOL0     C11535   3.281   0.459   8.253 -0.3951  0.1082  0.2076
  827MOL0     C11536   3.324   0.342   8.194 -0.4460  0.9087 -0.0845
  827MOL0     C11537   3.445   0.334   8.125  0.2017 -0.6869 -0.5885
  827MOL0     C11538   3.487   0.206   8.057  0.2774 -0.6767 -0.3054
  827MOL0     C11539   3.528   0.445   8.121 -0.7341 -0.5430 -1.1649
  827MOL0     C11540   3.662   0.446   8.061 -0.1519  0.2280 -0.1826
  827MOL0     O11541   3.677   0.508   7.945 -0.2255 -0.9795 -0.1161
  827MOL0     C11542   3.801   0.547   7.893  1.1049  0.4698  0.5571
  827MOL0     C11543   3.801   0.600   7.760  0.5592 -0.2178 -0.2331
  827MOL0     C11544   3.910   0.637   7.691 -0.3319 -0.7153  0.0689
  827MOL0     C11545   4.038   0.590   7.739 -0.0869  0.4642  0.6074
  827MOL0     O11546   4.159   0.613   7.660 -1.1017  0.8253 -0.8044
  827MOL0     C11547   4.247   0.491   7.645  0.5252 -0.0028  0.7942
  827MOL0     C11548   4.385   0.529   7.596  0.6196 -0.4827 -0.7026
  827MOL0     C11549   4.486   0.559   7.704  1.3243 -0.1785 -0.3338
  827MOL0     C11550   4.442   0.687   7.777  0.6688 -0.0175  0.0959
  827MOL0     C11551   4.537   0.718   7.901 -0.4704 -0.6927  0.2475
  827MOL0     C11552   4.519   0.618   8.009  0.4807  0.3332 -0.4576
  827MOL0     C11553   4.603   0.682   8.129 -0.4824 -0.5791 -0.0269
  827MOL0     C11554   4.621   0.570   8.232  0.2361 -1.2548  0.2754
  827MOL0    Cl11555   4.743   0.453   8.182 -0.1628  0.0086  0.1695
  827MOL0     C11556   4.043   0.533   7.867  0.4027  0.4303  0.8034
  827MOL0     C11557   3.928   0.523   7.948  0.3154 -0.0906 -0.1894
  827MOL0     O11558   3.750   0.373   8.112  0.3100 -0.6213 -0.3608
  827MOL0     C11559   3.474   0.565   8.182 -0.4637 -0.0763 -0.0051
  827MOL0     C11560   3.362   0.570   8.254  0.2990 -0.6356  0.6908
  827MOL0     N11561   3.244   0.572   8.979  0.2196  0.5425 -0.4540
  827MOL0     N11562   3.183   0.605   9.087  0.7014 -0.3169  0.1354
  827MOL0     C11563   3.361   1.142  10.036  0.7846  0.3849  0.0283
  827MOL0     C11564   3.371   1.187  10.167 -0.1889  0.5748 -0.3800
  827MOL0     C11565   3.367   1.160  10.630  0.8410 -0.0419  0.1093
  827MOL0     C11566   3.317   1.103  10.749 -0.2843  0.4618 -0.3446
  827MOL0     C11567   3.376   1.149  10.869 -0.8293  0.3975  0.7869
  827MOL0     C11568   3.459   1.261  10.875  0.9521 -0.0602  0.9702
  827MOL0     O11569   3.517   1.295  10.998  0.2396 -0.9734  0.5402
  827MOL0     C11570   3.622   1.387  11.023 -0.6286  0.3563 -0.0817
  827MOL0     C11571   3.609   1.413  11.170 -0.0693  0.3598 -0.8678
  827MOL0     C11572   3.478   1.468  11.224 -0.1226 -0.1139 -0.0826
  827MOL0     C11573   3.500   1.550  11.343 -0.1203  0.3849 -0.0102
  827MOL0     C11574   3.553   1.464  11.451 -1.0089  0.5187  0.0810
  827MOL0     C11575   3.621   1.407  11.538  0.6117 -0.0556  0.8504
  827MOL0     C11576   3.491   1.323  10.759 -0.6585  0.4511 -0.4518
  827MOL0     C11577   3.451   1.279  10.634 -0.4025  0.6365 -0.2066
  827MOL0     H11578   3.351   0.888  10.320 -1.6181  0.8407  1.2993
  827MOL0     H11579   3.317   0.809  10.100  1.3204 -0.7439 -0.5729
  827MOL0     H11580   3.469   1.096   9.796 -1.2873 -1.0006 -2.5766
  827MOL0     H11581   3.541   0.940   9.845  1.2483  4.1022  4.0309
  827MOL0     H11582   3.483   1.017   9.594  0.5931  0.0224  1.9156
  827MOL0     H11583   3.465   0.847   9.632  0.1065  1.0384 -1.8997
  827MOL0     H11584   3.218   0.886   9.658  1.2001 -1.2708  0.4716
  827MOL0     H11585   3.242   1.057   9.637 -1.7227 -0.4043 -0.6350
  827MOL0     H11586   3.324   1.007   9.396  0.4765  2.3767  1.5817
  827MOL0     H11587   3.311   0.834   9.427 -0.2166  0.4786  0.6956
  827MOL0     H11588   3.064   0.857   9.453 -1.8963  0.6489 -1.3082
  827MOL0     H11589   3.088   1.022   9.427 -1.2482 -0.8278  0.4852
  827MOL0     H11590   3.176   1.019   9.224  2.0961 -0.6971  2.2912
  827MOL0     H11591   3.214   0.852   9.218  2.9520  2.5690  2.8998
  827MOL0     H11592   2.923   0.943   9.217 -2.2186 -0.9897 -1.1442
  827MOL0     H11593   3.025   0.939   9.069  0.4261 -2.7490 -0.2391
  827MOL0     H11594   2.866   0.740   9.149  0.2075  5.5026  0.0478
  827MOL0     H11595   2.987   0.706   9.270  1.2013 -1.4925  0.3775
  827MOL0     H11596   2.949   0.667   8.875  1.6317 -0.4424 -0.7936
  827MOL0     H11597   3.075   0.621   8.690  0.0270 -0.0910  0.0931
  827MOL0     H11598   3.250   0.610   8.703 -0.0428  0.3151  0.4017
  827MOL0     H11599   3.035   0.421   8.685  0.1458  3.4604 -1.8604
  827MOL0     H11600   3.203   0.358   8.741  1.2859 -1.2271 -0.0298
  827MOL0     H11601   3.173   0.307   8.510 -1.9795  0.0416 -0.0271
  827MOL0     H11602   3.297   0.430   8.523 -0.4231  0.1680 -0.3341
  827MOL0     H11603   3.128   0.602   8.427 -4.3289  0.1209  0.4120
  827MOL0     H11604   3.004   0.471   8.429 -0.2835 -3.7970 -1.2305
  827MOL0     H11605   3.259   0.256   8.201 -0.1249  0.8060  2.5703
  827MOL0     H11606   3.433   0.119   8.096 -0.3254  0.3260  1.1625
  827MOL0     H11607   3.479   0.213   7.948 -0.8730  0.9652 -0.1501
  827MOL0     H11608   3.592   0.177   8.068  0.7080 -1.3559 -4.5513
  827MOL0     H11609   3.704   0.636   7.727 -0.3863  1.1716  3.4838
  827MOL0     H11610   3.897   0.691   7.598  2.4136 -1.8353 -1.0796
  827MOL0     H11611   4.265   0.428   7.733  2.1866  2.0596  2.0068
  827MOL0     H11612   4.194   0.434   7.568 -0.4257  1.2857  0.4602
  827MOL0     H11613   4.408   0.429   7.558  0.0198 -1.1043  0.4890
  827MOL0     H11614   4.398   0.610   7.524  1.6238  1.8368  1.8891
  827MOL0     H11615   4.589   0.575   7.672  1.7044  0.4353  1.1278
  827MOL0     H11616   4.491   0.472   7.769  0.7694 -0.4096 -0.5917
  827MOL0     H11617   4.446   0.770   7.706  0.5413  1.4312  1.7014
  827MOL0     H11618   4.336   0.679   7.802  0.8906 -0.1701  1.0185
  827MOL0     H11619   4.507   0.817   7.937 -2.2056 -1.2176  0.3443
  827MOL0     H11620   4.640   0.714   7.866 -0.6923  0.1983 -0.5451
  827MOL0     H11621   4.417   0.611   8.048  1.8582  2.3472  4.1874
  827MOL0     H11622   4.560   0.520   7.983 -2.2745 -1.5456  1.7056
  827MOL0     H11623   4.535   0.762   8.161 -3.0368 -2.0698 -1.3385
  827MOL0     H11624   4.695   0.733   8.099 -0.1797  0.9520  3.1352
  827MOL0     H11625   4.525   0.518   8.241 -0.2133 -0.9117 -1.8952
  827MOL0     H11626   4.671   0.614   8.319 -0.5007 -1.0528  0.6055
  827MOL0     H11627   4.146   0.522   7.899  1.5435  0.6124 -2.5329
  827MOL0     H11628   3.941   0.497   8.053  2.5669  0.6764 -0.2226
  827MOL0     H11629   3.529   0.658   8.174 -1.9047  0.9257  1.2424
  827MOL0     H11630   3.327   0.662   8.300 -0.0121 -1.1636  1.5191
  827MOL0     H11631   3.357   1.208   9.950 -0.8118  1.5118  0.9054
  827MOL0     H11632   3.394   1.290  10.191 -0.6547  0.9859 -1.5927
  827MOL0     H11633   3.245   1.022  10.749  0.5206 -0.2819  0.5767
  827MOL0     H11634   3.340   1.100  10.958  2.2004 -0.2121  1.8005
  827MOL0     H11635   3.720   1.348  10.993 -0.5080  0.5316  0.0833
  827MOL0     H11636   3.604   1.480  10.969 -1.9757  0.7999  1.0775
  827MOL0     H11637   3.680   1.494  11.189  0.7388 -0.8185  1.6539
  827MOL0     H11638   3.639   1.318  11.215  0.9173  1.3041  0.5501
  827MOL0     H11639   3.407   1.389  11.249 -0.9348  0.5163 -0.3436
  827MOL0     H11640   3.424   1.520  11.144  0.8039 -2.1850 -2.1552
  827MOL0     H11641   3.397   1.578  11.368 -0.2364 -1.4045  1.7974
  827MOL0     H11642   3.570   1.632  11.324 -2.6077  2.2399 -1.8427
  827MOL0     H11643   3.673   1.355  11.616  2.6314  1.2309  0.4312
  827MOL0     H11644   3.561   1.405  10.763 -1.6873  1.2850  1.6199
  827MOL0     H11645   3.487   1.327  10.544  2.8254 -2.3804 -0.7619
  828MOL0     O11646   7.963   7.416   1.318 -0.7269  0.3405 -0.9571
  828MOL0     C11647   7.947   7.536   1.330 -0.5392  0.4326 -0.9523
  828MOL0     O11648   8.019   7.609   1.419  1.1206 -0.1457  0.7791
  828MOL0     C11649   8.091   7.534   1.508 -0.9722 -0.3419  0.5755
  828MOL0     C11650   8.227   7.527   1.476  0.4680  0.2341  0.0929
  828MOL0     C11651   8.305   7.471   1.571 -0.4215  0.5697 -0.2209
  828MOL0     C11652   8.272   7.421   1.701  0.2638 -0.2143  0.3589
  828MOL0     O11653   8.350   7.347   1.793  0.6964  0.0127 -0.3074
  828MOL0     C11654   8.491   7.368   1.804  0.8973 -0.1082  0.7951
  828MOL0     C11655   8.546   7.354   1.944 -0.7871 -0.8781  0.4792
  828MOL0     C11656   8.493   7.471   2.037 -1.3129  0.2493 -0.6361
  828MOL0     C11657   8.572   7.485   2.165 -0.5275 -0.7695 -0.3856
  828MOL0     C11658   8.547   7.365   2.262  1.0076  0.8641  0.5203
  828MOL0     C11659   8.540   7.395   2.407 -0.7404 -0.8427  0.6200
  828MOL0     C11660   8.416   7.468   2.460 -0.1066 -0.0686  0.0582
  828MOL0     C11661   8.425   7.531   2.603 -0.0887 -0.4202  0.7793
  828MOL0     N11662   8.395   7.431   2.712 -0.3510 -0.2513 -0.3423
  828MOL0     C11663   8.301   7.333   2.711  1.1390 -0.5067 -0.9129
  828MOL0     C11664   8.308   7.295   2.842  0.3861  0.5224 -0.5085
  828MOL0     C11665   8.225   7.195   2.909 -0.6213 -0.7223 -0.0991
  828MOL0     C11666   8.299   7.056   2.900  0.7093  0.0670  0.4929
  828MOL0     C11667   8.383   7.027   3.025 -0.3644 -0.8443  0.2452
  828MOL0     C11668   8.446   6.885   3.016 -0.4744  0.0656 -0.5476
  828MOL0     O11669   8.514   6.859   3.147  0.6010  0.2859  1.0529
  828MOL0     C11670   8.582   6.741   3.161 -0.0003 -0.6832 -1.5168
  828MOL0     C11671   8.572   6.628   3.084 -0.0142 -0.8245 -0.3128
  828MOL0     C11672   8.624   6.500   3.121 -0.7091  0.6913  0.0107
  828MOL0     C11673   8.584   6.391   3.014  0.2992 -0.6603 -0.1930
  828MOL0     C11674   8.696   6.492   3.245 -0.5716  0.3543 -0.2977
  828MOL0     C11675   8.741   6.357   3.302 -0.0480 -0.5682 -1.0803
  828MOL0     O11676   8.690   6.244   3.248  0.0579  0.4720 -0.9108
  828MOL0     C11677   8.714   6.129   3.319  0.1555  0.0623  0.2594
  828MOL0     C11678   8.825   6.053   3.294 -0.0528 -0.4160  0.4941
  828MOL0     C11679   8.863   5.948   3.377  0.0370 -0.4079 -0.6136
  828MOL0     C11680   8.790   5.907   3.488 -0.1840  0.8530  0.1703
  828MOL0     O11681   8.816   5.802   3.575 -0.4026  0.8585 -0.9577
  828MOL0     C11682   8.943   5.792   3.639  1.0613  0.2761 -0.8580
  828MOL0     C11683   8.952   5.887   3.762 -0.2060  0.0774 -0.1220
  828MOL0     C11684   8.852   5.842   3.872 -0.2069 -0.6710 -0.5171
  828MOL0     C11685   8.895   5.894   4.005  0.1832  0.5048 -0.4334
  828MOL0     C11686   8.917   6.045   4.012  0.3004 -0.1284 -0.4845
  828MOL0     C11687   8.793   6.136   3.975 -0.0265 -0.3955  0.4799
  828MOL0     C11688   8.840   6.284   3.965 -0.5922 -0.1644  1.0220
  828MOL0     C11689   8.731   6.386   3.964  0.0264  0.2458  0.0848
  828MOL0    Cl11690   8.630   6.362   3.813  0.0638  0.3431 -0.3205
  828MOL0     C11691   8.676   5.987   3.517  0.4296 -0.6474  0.1615
  828MOL0     C11692   8.638   6.097   3.433  0.0618 -0.4986 -0.0707
  828MOL0     O11693   8.822   6.365   3.397 -0.0791 -0.1792  0.4899
  828MOL0     C11694   8.714   6.613   3.320 -0.1878  0.6765  0.6382
  828MOL0     C11695   8.655   6.726   3.275 -0.4069 -0.0598  0.4337
  828MOL0     N11696   8.395   7.374   2.917 -0.2607  0.6452 -0.1105
  828MOL0     N11697   8.452   7.454   2.836  0.9523  0.0168 -0.4439
  828MOL0     C11698   8.135   7.446   1.730  0.1623 -0.3111  0.3471
  828MOL0     C11699   8.037   7.496   1.635  0.0991  0.5177 -0.1793
  828MOL0     C11700   7.858   7.604   1.246  0.2880  1.0507  0.5055
  828MOL0     C11701   7.783   7.537   1.141  0.2158 -0.0140 -0.9492
  828MOL0     C11702   7.682   7.597   1.053  0.6718  0.3395 -0.7235
  828MOL0     C11703   7.661   7.732   1.081 -0.6441 -0.1484 -0.3919
  828MOL0     O11704   7.578   7.811   0.998 -1.0233 -0.1132  0.3415
  828MOL0     C11705   7.500   7.753   0.890  0.1231  0.1586 -0.1618
  828MOL0     C11706   7.422   7.861   0.815 -0.2068  0.0919  0.1035
  828MOL0     C11707   7.504   7.980   0.760  0.3125 -1.1735  0.3839
  828MOL0     C11708   7.424   8.083   0.683  0.0946  0.2522 -0.4346
  828MOL0     C11709   7.352   8.024   0.571 -0.2318  0.2782 -0.0240
  828MOL0     C11710   7.293   7.976   0.479  0.4752 -0.3442 -0.0555
  828MOL0     C11711   7.728   7.792   1.195 -0.3511 -0.5267 -0.9287
  828MOL0     C11712   7.819   7.736   1.281  0.4172  0.4800  0.3301
  828MOL0     H11713   8.267   7.565   1.382  0.1250  0.4449  0.0322
  828MOL0     H11714   8.411   7.458   1.549 -0.7042 -1.7489 -0.4819
  828MOL0     H11715   8.540   7.295   1.739  0.3574 -0.1301  0.4024
  828MOL0     H11716   8.514   7.470   1.770  2.1513 -0.8023 -0.5862
  828MOL0     H11717   8.522   7.258   1.991  1.4090 -0.4373  2.7043
  828MOL0     H11718   8.653   7.374   1.947 -1.0507  0.5688  2.6057
  828MOL0     H11719   8.501   7.565   1.980 -1.6270  0.5916 -0.1277
  828MOL0     H11720   8.387   7.477   2.064 -0.6041  3.0725  2.1398
  828MOL0     H11721   8.677   7.490   2.133 -0.1797 -1.3863  0.6417
  828MOL0     H11722   8.537   7.576   2.213  0.3148 -0.4598 -0.3351
  828MOL0     H11723   8.447   7.323   2.247  2.2711 -2.3392  0.3550
  828MOL0     H11724   8.619   7.285   2.244  1.9396  1.3387  1.9860
  828MOL0     H11725   8.536   7.297   2.455 -0.6800 -1.5512 -0.7716
  828MOL0     H11726   8.631   7.441   2.445 -0.3044  0.8030 -2.1258
  828MOL0     H11727   8.401   7.552   2.391  0.7850  0.6815  0.7346
  828MOL0     H11728   8.321   7.418   2.442  0.4656 -1.0195 -0.4099
  828MOL0     H11729   8.356   7.615   2.611  1.8392  1.4452 -0.9176
  828MOL0     H11730   8.523   7.578   2.615  0.3847 -1.3895  0.7923
  828MOL0     H11731   8.252   7.275   2.634  0.3806 -1.2377  0.1033
  828MOL0     H11732   8.200   7.216   3.014  1.8516 -0.3537  0.4719
  828MOL0     H11733   8.130   7.195   2.854 -1.4871  0.7423  1.2877
  828MOL0     H11734   8.370   7.052   2.817  0.5598 -0.5132  0.3950
  828MOL0     H11735   8.227   6.974   2.901 -0.6834  1.2325  0.5557
  828MOL0     H11736   8.333   7.038   3.121 -0.5609  3.7703 -0.2017
  828MOL0     H11737   8.472   7.091   3.025  0.4008 -1.8729  0.7921
  828MOL0     H11738   8.512   6.884   2.929  0.9481 -1.0444  0.4825
  828MOL0     H11739   8.364   6.817   2.995 -1.3693  1.4709 -1.7726
  828MOL0     H11740   8.510   6.646   2.997  0.2432 -0.4721 -0.4280
  828MOL0     H11741   8.640   6.298   3.027 -1.5953 -1.8282 -0.0943
  828MOL0     H11742   8.481   6.358   3.032  0.3606 -1.3586 -1.0436
  828MOL0     H11743   8.586   6.426   2.910  0.0678 -1.9566 -0.6566
  828MOL0     H11744   8.891   6.084   3.213 -0.7508  1.1308  0.4880
  828MOL0     H11745   8.957   5.904   3.345  0.2348 -0.8705  0.5674
  828MOL0     H11746   8.967   5.691   3.675  2.3355  0.6603 -0.5563
  828MOL0     H11747   9.011   5.823   3.559 -1.5023 -2.5549 -4.4418
  828MOL0     H11748   9.048   5.873   3.814 -0.0206  1.9133  0.0819
  828MOL0     H11749   8.934   5.989   3.729 -1.1222 -0.5155 -1.5418
  828MOL0     H11750   8.851   5.733   3.871 -2.1850 -0.7121  0.5194
  828MOL0     H11751   8.746   5.863   3.855 -0.3828 -0.3484  0.8687
  828MOL0     H11752   8.824   5.862   4.082  2.4799 -1.3034  1.0811
  828MOL0     H11753   8.983   5.837   4.037 -1.0320 -0.8123  0.7104
  828MOL0     H11754   9.000   6.081   3.950  0.8116  0.3788  0.4759
  828MOL0     H11755   8.947   6.064   4.115 -0.5475 -0.4525 -0.1754
  828MOL0     H11756   8.748   6.115   3.877 -3.7260  4.2467  0.7770
  828MOL0     H11757   8.718   6.105   4.049 -0.2876 -2.8945 -0.7333
  828MOL0     H11758   8.898   6.308   3.875 -0.7171  1.5602  1.3823
  828MOL0     H11759   8.892   6.290   4.060  0.0716 -0.8173  0.7136
  828MOL0     H11760   8.779   6.484   3.956  1.0416 -0.3898 -3.1885
  828MOL0     H11761   8.669   6.385   4.054  0.6216  3.9286  0.7028
  828MOL0     H11762   8.597   5.976   3.591  1.2065  2.0403  1.5225
  828MOL0     H11763   8.546   6.150   3.454  0.5860  0.3720  0.1016
  828MOL0     H11764   8.775   6.609   3.409  1.5731  0.7352 -0.5208
  828MOL0     H11765   8.672   6.806   3.346 -1.7258 -1.0587  1.9292
  828MOL0     H11766   8.089   7.426   1.826  0.5364  0.7669  0.7583
  828MOL0     H11767   7.938   7.515   1.674  0.8237  1.0836  1.4901
  828MOL0     H11768   7.792   7.429   1.136  2.8644 -0.1155  2.0174
  828MOL0     H11769   7.636   7.539   0.974  0.7196 -0.7002  0.0009
  828MOL0     H11770   7.564   7.703   0.816  1.0578  0.5272  0.3849
  828MOL0     H11771   7.438   7.677   0.938 -0.7111  1.1559  0.3727
  828MOL0     H11772   7.347   7.911   0.877  0.6565  2.6329 -0.7650
  828MOL0     H11773   7.379   7.816   0.725  4.9063 -2.1480 -1.5957
  828MOL0     H11774   7.567   7.933   0.685 -1.5205 -1.2420 -1.1863
  828MOL0     H11775   7.565   8.025   0.839  0.5607  0.5258 -0.7251
  828MOL0     H11776   7.484   8.168   0.649  0.3363  1.1602  2.0472
  828MOL0     H11777   7.344   8.123   0.746 -0.7504  0.6497 -1.7100
  828MOL0     H11778   7.239   7.950   0.390 -1.5534  1.5078  0.5506
  828MOL0     H11779   7.705   7.897   1.207  0.1640 -0.6248  1.6730
  828MOL0     H11780   7.862   7.781   1.370 -1.8458  0.2740  1.5913
  829MOL0     O11781   4.309   8.196   5.666  0.5739 -0.3845 -0.6931
  829MOL0     C11782   4.411   8.271   5.671  0.1697  0.7385 -0.2314
  829MOL0     O11783   4.538   8.236   5.625 -0.4435 -0.0447  0.2652
  829MOL0     C11784   4.552   8.100   5.618 -0.8117 -0.9304 -1.0512
  829MOL0     C11785   4.572   8.023   5.724  0.2424  0.4409  0.5109
  829MOL0     C11786   4.576   7.882   5.720  0.7282  0.4378 -0.5990
  829MOL0     C11787   4.561   7.819   5.590 -0.8953  0.1379  0.2306
  829MOL0     O11788   4.569   7.678   5.565  0.1071 -0.2246 -0.4859
  829MOL0     C11789   4.493   7.602   5.663  0.4588 -0.6079 -0.0740
  829MOL0     C11790   4.423   7.499   5.576  0.4278  0.8983  0.1496
  829MOL0     C11791   4.521   7.404   5.514  0.4072  0.2378 -0.0942
  829MOL0     C11792   4.575   7.444   5.373 -0.7579 -0.6125 -1.0948
  829MOL0     C11793   4.663   7.333   5.308 -1.0936  0.5309  0.6141
  829MOL0     C11794   4.697   7.355   5.155  0.1704 -0.3761 -0.8774
  829MOL0     C11795   4.798   7.469   5.132  1.0461 -0.5827  0.7800
  829MOL0     C11796   4.817   7.498   4.990 -0.0839 -0.6381  0.5197
  829MOL0     N11797   4.855   7.382   4.915  0.4640 -0.4054  0.0215
  829MOL0     C11798   4.778   7.333   4.805  0.1735 -0.4030 -0.6309
  829MOL0     C11799   4.848   7.216   4.776  0.6869  0.2144  0.4926
  829MOL0     C11800   4.826   7.147   4.639  0.2257  0.0574 -0.1436
  829MOL0     C11801   4.919   7.227   4.544 -0.0065 -0.8486  0.5109
  829MOL0     C11802   4.860   7.234   4.393 -0.1694  0.0857 -0.6067
  829MOL0     C11803   4.967   7.242   4.286 -0.6793 -0.3248  0.6154
  829MOL0     O11804   5.072   7.340   4.317  0.2855 -0.5575  0.0763
  829MOL0     C11805   5.037   7.472   4.288  0.6459 -0.0420 -0.0410
  829MOL0     C11806   5.030   7.518   4.161 -1.0960 -0.1041 -0.9022
  829MOL0     C11807   4.994   7.650   4.132 -0.1354 -1.2658  0.5514
  829MOL0     C11808   5.010   7.695   3.999  0.9449  0.2164 -0.3191
  829MOL0     C11809   4.965   7.738   4.240  0.8694 -0.3469  0.6765
  829MOL0     C11810   4.911   7.876   4.209 -0.7808 -0.2668  0.4055
  829MOL0     O11811   4.941   7.983   4.294  0.6571  0.6501  0.6283
  829MOL0     C11812   4.908   8.113   4.263  0.1063  0.8495  0.3180
  829MOL0     C11813   4.881   8.167   4.135  0.6522 -0.2599  0.4944
  829MOL0     C11814   4.840   8.298   4.127 -0.3137 -0.2365  0.2883
  829MOL0     C11815   4.820   8.383   4.240  0.6214 -0.7339  1.0473
  829MOL0     O11816   4.770   8.514   4.221  0.5803  0.9844 -0.0355
  829MOL0     C11817   4.760   8.595   4.347  1.2322 -0.9188  1.0543
  829MOL0     C11818   4.697   8.736   4.315 -0.3953 -0.4393 -0.2804
  829MOL0     C11819   4.544   8.733   4.295  0.4790  0.0427 -0.5190
  829MOL0     C11820   4.490   8.880   4.298  0.3626  0.1958  0.0740
  829MOL0     C11821   4.334   8.894   4.284  0.3311 -0.5066  0.0949
  829MOL0     C11822   4.264   8.853   4.149 -0.5025 -0.3703  0.0303
  829MOL0     C11823   4.113   8.895   4.137  0.1968 -0.5442 -0.0387
  829MOL0     C11824   4.076   8.912   3.988  0.9531  0.2463  0.1111
  829MOL0    Cl11825   4.008   8.751   3.942  0.2349 -0.1119 -0.0416
  829MOL0     C11826   4.866   8.334   4.363 -0.0454 -0.0653  0.1149
  829MOL0     C11827   4.905   8.200   4.370 -0.3656 -0.3133 -1.6757
  829MOL0     O11828   4.817   7.877   4.126  0.8100  0.7470  0.3339
  829MOL0     C11829   4.968   7.690   4.372  0.1894 -0.6062  0.0890
  829MOL0     C11830   5.003   7.559   4.393 -0.8714  0.1187 -0.3295
  829MOL0     N11831   4.941   7.187   4.868  0.0187 -0.2115 -0.0782
  829MOL0     N11832   4.945   7.289   4.941 -0.0571  0.3385 -0.8154
  829MOL0     C11833   4.549   7.907   5.477  0.5408 -0.6252 -0.0060
  829MOL0     C11834   4.541   8.047   5.492  0.3534  1.0051 -0.8272
  829MOL0     C11835   4.391   8.390   5.748 -0.3893  0.9459 -0.2400
  829MOL0     C11836   4.265   8.427   5.796 -0.1307  0.5881  0.4309
  829MOL0     C11837   4.247   8.546   5.859 -1.0500 -0.6432 -0.6950
  829MOL0     C11838   4.359   8.625   5.898  0.1530 -0.2919 -0.4752
  829MOL0     O11839   4.329   8.731   5.982  1.3552 -0.1005  0.8363
  829MOL0     C11840   4.439   8.811   6.048  0.0977 -0.2083 -0.1730
  829MOL0     C11841   4.520   8.731   6.145 -0.0721 -0.6497  0.1401
  829MOL0     C11842   4.449   8.697   6.272  0.5440 -0.3306 -0.1933
  829MOL0     C11843   4.529   8.611   6.363 -0.3980 -0.9657  0.7661
  829MOL0     C11844   4.560   8.480   6.309 -0.2284 -0.0240  0.2837
  829MOL0     C11845   4.599   8.367   6.281  0.6134  0.2234  0.1253
  829MOL0     C11846   4.479   8.576   5.863 -0.2129 -0.3093 -0.1020
  829MOL0     C11847   4.499   8.463   5.789  0.5894 -0.1192  0.0335
  829MOL0     H11848   4.581   8.071   5.821  0.1515 -0.9732  1.2565
  829MOL0     H11849   4.578   7.815   5.805  0.2573 -2.0249 -2.4114
  829MOL0     H11850   4.553   7.543   5.733 -1.4595 -3.5948 -0.7454
  829MOL0     H11851   4.428   7.670   5.719  0.1696 -0.0843 -1.0186
  829MOL0     H11852   4.373   7.421   5.634  0.2203 -1.5883 -3.1131
  829MOL0     H11853   4.351   7.547   5.509 -0.7451  2.8242  2.6185
  829MOL0     H11854   4.600   7.379   5.587  0.1126  1.0791  0.5260
  829MOL0     H11855   4.472   7.307   5.505  1.1097 -0.0601 -0.7838
  829MOL0     H11856   4.485   7.452   5.312 -0.3222 -4.6436 -2.5928
  829MOL0     H11857   4.612   7.547   5.369 -3.3607  0.8319  3.7808
  829MOL0     H11858   4.758   7.327   5.361 -0.2582  2.0016 -0.6076
  829MOL0     H11859   4.617   7.234   5.316  0.0390 -0.1708 -0.9739
  829MOL0     H11860   4.721   7.255   5.118 -2.3866 -1.4591  0.1026
  829MOL0     H11861   4.599   7.380   5.113 -1.0312  1.3473  2.5561
  829MOL0     H11862   4.753   7.560   5.172  0.6848 -0.4213  0.0321
  829MOL0     H11863   4.893   7.441   5.178  2.1204  0.6907 -0.5765
  829MOL0     H11864   4.887   7.580   4.968 -2.0425  1.0386  0.2057
  829MOL0     H11865   4.720   7.529   4.952 -0.6453 -0.6893  1.8595
  829MOL0     H11866   4.692   7.379   4.757  1.9748 -0.5238 -4.3660
  829MOL0     H11867   4.848   7.039   4.636  0.7330 -0.0261  2.9549
  829MOL0     H11868   4.720   7.164   4.622 -1.2847 -0.5313  6.1818
  829MOL0     H11869   5.015   7.175   4.558  1.3107  0.5485 -2.5291
  829MOL0     H11870   4.923   7.330   4.581  0.6222 -0.2748 -1.0648
  829MOL0     H11871   4.797   7.323   4.396 -0.4813 -0.1564  0.4345
  829MOL0     H11872   4.797   7.145   4.385  1.0052 -0.9652  1.1303
  829MOL0     H11873   4.936   7.254   4.182  1.3995 -0.0327 -0.0038
  829MOL0     H11874   5.002   7.139   4.293 -2.2343 -1.0564 -1.4010
  829MOL0     H11875   5.036   7.438   4.088  0.0578 -1.9130  1.0666
  829MOL0     H11876   5.037   7.625   3.920 -3.1693  1.5069 -3.1942
  829MOL0     H11877   4.909   7.719   3.965  0.0526 -1.4735  0.9298
  829MOL0     H11878   5.063   7.790   4.000  4.0540 -1.3325  3.1010
  829MOL0     H11879   4.895   8.113   4.043 -0.8387 -0.4994  0.3792
  829MOL0     H11880   4.800   8.344   4.037  0.5219  0.3400  0.1989
  829MOL0     H11881   4.693   8.536   4.409  1.0808 -2.2743 -0.3211
  829MOL0     H11882   4.858   8.607   4.394  1.7156 -2.2708  0.4576
  829MOL0     H11883   4.719   8.795   4.405 -2.2591  0.2092 -0.1935
  829MOL0     H11884   4.756   8.773   4.230  2.2867 -3.8453 -0.0987
  829MOL0     H11885   4.499   8.663   4.367  1.3350 -0.3815 -0.3801
  829MOL0     H11886   4.526   8.704   4.191  4.2604  0.9050 -1.5463
  829MOL0     H11887   4.517   8.929   4.392 -2.9905 -0.6839  1.6657
  829MOL0     H11888   4.527   8.935   4.211  1.7974 -1.1782 -0.2166
  829MOL0     H11889   4.299   8.995   4.304  0.1127 -0.5065 -0.2886
  829MOL0     H11890   4.292   8.834   4.366  1.8583  1.3810  2.4156
  829MOL0     H11891   4.318   8.896   4.064 -3.1949  1.7977 -0.7281
  829MOL0     H11892   4.265   8.744   4.133  0.5657 -0.3491 -0.1174
  829MOL0     H11893   4.112   8.992   4.188  1.1576 -1.1650  1.2319
  829MOL0     H11894   4.047   8.832   4.197 -0.8351  0.2349 -0.3344
  829MOL0     H11895   4.164   8.925   3.925  2.2805  0.7185  1.9774
  829MOL0     H11896   4.007   8.995   3.975  1.4599  0.5584 -0.6537
  829MOL0     H11897   4.879   8.402   4.447 -0.5129  0.0405  0.1059
  829MOL0     H11898   4.923   8.156   4.467 -0.5104 -0.2559 -1.6209
  829MOL0     H11899   4.959   7.766   4.449  2.0685  0.0472 -0.2645
  829MOL0     H11900   5.002   7.527   4.497  1.1224  2.0584  0.3770
  829MOL0     H11901   4.551   7.858   5.380  3.7040  1.0688 -0.9123
  829MOL0     H11902   4.518   8.102   5.401 -2.2174 -1.3925 -1.7681
  829MOL0     H11903   4.185   8.357   5.775  0.7223  0.2452 -2.1103
  829MOL0     H11904   4.150   8.576   5.896 -0.5852  1.2680 -0.9400
  829MOL0     H11905   4.508   8.867   5.984  0.3252  1.4523  1.4417
  829MOL0     H11906   4.396   8.893   6.105 -0.0292 -0.8226  0.6343
  829MOL0     H11907   4.610   8.789   6.169  0.5950 -1.5948 -0.0032
  829MOL0     H11908   4.554   8.635   6.106 -1.1696 -1.4150  0.9905
  829MOL0     H11909   4.367   8.635   6.236  1.6377 -0.8983 -1.8320
  829MOL0     H11910   4.418   8.784   6.331  0.2805  1.3965 -2.7018
  829MOL0     H11911   4.465   8.606   6.451 -1.8502  0.7335 -0.1404
  829MOL0     H11912   4.624   8.646   6.405  1.5202 -0.4467 -3.4984
  829MOL0     H11913   4.637   8.270   6.259 -0.3017 -0.1154 -0.0185
  829MOL0     H11914   4.567   8.626   5.904 -0.2704 -1.0687  0.9899
  829MOL0     H11915   4.596   8.430   5.753 -0.1090 -1.2952 -0.8458
  830MOL0     O11916   7.570   5.571   8.075  0.2095  1.2547 -0.4263
  830MOL0     C11917   7.518   5.606   8.185 -0.2923  0.5158 -0.5641
  830MOL0     O11918   7.486   5.516   8.281  0.6620  0.9974  0.1675
  830MOL0     C11919   7.475   5.387   8.234  0.1182  0.5151  0.1045
  830MOL0     C11920   7.353   5.342   8.176 -0.9505 -0.2277  0.3176
  830MOL0     C11921   7.345   5.207   8.143  0.4501  0.4394  0.5060
  830MOL0     C11922   7.451   5.126   8.152 -1.2787 -0.3594 -0.0090
  830MOL0     O11923   7.451   4.989   8.116 -0.3158 -0.0915 -0.0367
  830MOL0     C11924   7.332   4.914   8.108 -0.0173  0.7782  0.7919
  830MOL0     C11925   7.357   4.771   8.073 -0.0792  0.2986 -0.2091
  830MOL0     C11926   7.464   4.724   8.165  1.2275 -0.1431 -0.6896
  830MOL0     C11927   7.490   4.572   8.164  0.1010 -0.2881  1.0393
  830MOL0     C11928   7.610   4.526   8.251  0.4008  0.9679  0.1774
  830MOL0     C11929   7.623   4.378   8.281  0.0933 -0.1033 -0.9935
  830MOL0     C11930   7.514   4.346   8.383  0.0901  0.7040  0.7882
  830MOL0     C11931   7.507   4.200   8.411 -0.3516 -0.0269 -0.4636
  830MOL0     N11932   7.400   4.156   8.501 -0.2749 -0.1649 -0.2955
  830MOL0     C11933   7.277   4.099   8.468  0.4828  1.0638  0.6320
  830MOL0     C11934   7.218   4.058   8.583  0.8113  0.4064  0.0541
  830MOL0     C11935   7.095   3.984   8.592  1.4385  0.4643 -0.5960
  830MOL0     C11936   6.988   4.085   8.561  0.8976  0.9828 -0.1969
  830MOL0     C11937   6.955   4.175   8.683 -0.3439  0.1071 -0.0327
  830MOL0     C11938   6.836   4.269   8.652  0.6749 -0.8491 -0.2299
  830MOL0     O11939   6.749   4.279   8.766  0.1054  0.3164 -0.1605
  830MOL0     C11940   6.659   4.383   8.764  0.1869 -0.0034 -0.3964
  830MOL0     C11941   6.568   4.410   8.660  0.5222  0.8012 -0.0323
  830MOL0     C11942   6.487   4.522   8.649 -0.7218  0.1466 -1.2654
  830MOL0     C11943   6.395   4.525   8.531 -0.5578 -0.5920 -0.2286
  830MOL0     C11944   6.494   4.618   8.762 -0.3845  0.6773  0.9492
  830MOL0     C11945   6.416   4.743   8.756 -0.6237  0.2238  0.0997
  830MOL0     O11946   6.394   4.807   8.875 -0.5808 -0.7411 -0.1722
  830MOL0     C11947   6.321   4.921   8.879  0.4718 -0.0379  0.1967
  830MOL0     C11948   6.245   4.928   9.002 -0.2394 -0.7261 -0.1995
  830MOL0     C11949   6.181   5.041   9.031 -0.1004 -0.0448  0.4485
  830MOL0     C11950   6.187   5.164   8.950 -0.7987  1.2606  0.5526
  830MOL0     O11951   6.147   5.289   8.993  0.8401 -0.1308  0.9185
  830MOL0     C11952   6.088   5.374   8.885 -0.2869 -0.0543  0.2384
  830MOL0     C11953   5.938   5.335   8.856  0.0596  0.2836  0.2962
  830MOL0     C11954   5.876   5.394   8.728  0.1212  0.1126 -0.3157
  830MOL0     C11955   5.916   5.543   8.686  0.6978  0.9153  0.2967
  830MOL0     C11956   5.824   5.589   8.564 -0.0278 -0.3417 -0.2085
  830MOL0     C11957   5.809   5.743   8.577  0.4277  0.8494  1.0477
  830MOL0     C11958   5.731   5.800   8.457  0.5030  0.1622  0.8988
  830MOL0     C11959   5.725   5.952   8.453 -0.4810 -0.4784  0.1544
  830MOL0    Cl11960   5.595   6.001   8.340 -0.4054 -0.3578  0.0525
  830MOL0     C11961   6.263   5.152   8.830  0.2081 -0.0446 -0.6383
  830MOL0     C11962   6.324   5.031   8.797  0.0297 -1.0832 -0.6892
  830MOL0     O11963   6.376   4.781   8.643  0.7259 -0.1017 -0.2255
  830MOL0     C11964   6.569   4.593   8.872 -0.4614 -1.0530 -0.1849
  830MOL0     C11965   6.660   4.479   8.867 -0.3811 -0.1902  0.2672
  830MOL0     N11966   7.297   4.102   8.689 -0.1546 -0.5993  0.8309
  830MOL0     N11967   7.408   4.154   8.642 -0.1217 -0.8240  0.0452
  830MOL0     C11968   7.568   5.174   8.211 -0.0461 -0.1726 -0.0916
  830MOL0     C11969   7.584   5.306   8.263 -0.3646 -0.1836 -0.2854
  830MOL0     C11970   7.530   5.747   8.218  0.8045 -0.1324 -0.8037
  830MOL0     C11971   7.465   5.790   8.339 -0.0767 -0.0470  0.3278
  830MOL0     C11972   7.476   5.919   8.389 -0.0649  0.2193  0.8410
  830MOL0     C11973   7.531   6.016   8.297  1.2194  0.0099  0.3476
  830MOL0     O11974   7.523   6.156   8.329  0.7004 -0.8397 -0.1807
  830MOL0     C11975   7.475   6.198   8.455 -0.5864  0.2858  0.3859
  830MOL0     C11976   7.494   6.351   8.486 -0.0531 -0.9120  0.0199
  830MOL0     C11977   7.635   6.402   8.448  0.4140 -0.3458 -0.3411
  830MOL0     C11978   7.631   6.550   8.421 -0.6517 -1.1158 -0.2504
  830MOL0     C11979   7.761   6.607   8.421  0.6394  1.3668 -0.5141
  830MOL0     C11980   7.857   6.667   8.419  0.0254 -0.2897  0.8360
  830MOL0     C11981   7.573   5.982   8.165  0.0619  0.2904 -0.9906
  830MOL0     C11982   7.580   5.848   8.128 -0.3119  0.2691  0.5584
  830MOL0     H11983   7.267   5.399   8.142  0.4648  0.4728 -2.3191
  830MOL0     H11984   7.263   5.147   8.105  1.9015 -1.0952 -0.3590
  830MOL0     H11985   7.263   4.920   8.193 -2.0981 -1.7597 -0.5542
  830MOL0     H11986   7.278   4.950   8.020  1.9493 -1.9834 -1.7291
  830MOL0     H11987   7.271   4.708   8.096  0.7618 -1.0277 -0.5260
  830MOL0     H11988   7.374   4.765   7.964  2.8697  2.3776  0.0109
  830MOL0     H11989   7.557   4.780   8.149  1.1074  0.1945 -0.2097
  830MOL0     H11990   7.428   4.743   8.266 -0.4323 -1.2281 -1.0407
  830MOL0     H11991   7.395   4.525   8.191 -0.3193  0.3087  0.6119
  830MOL0     H11992   7.509   4.556   8.058 -0.6722  0.2640  0.8109
  830MOL0     H11993   7.706   4.558   8.210  1.9743 -3.6350 -0.2591
  830MOL0     H11994   7.596   4.567   8.351 -4.3155 -1.7237  0.9055
  830MOL0     H11995   7.621   4.308   8.197 -0.2641 -0.5259 -0.6389
  830MOL0     H11996   7.722   4.358   8.323 -0.9305 -1.6611  0.8680
  830MOL0     H11997   7.549   4.390   8.477  1.1266 -1.2137  1.3547
  830MOL0     H11998   7.413   4.375   8.353  0.4765  2.9730  1.5292
  830MOL0     H11999   7.601   4.171   8.458 -0.7164 -3.5693 -1.6622
  830MOL0     H12000   7.493   4.142   8.319  1.5055  2.2296 -2.2973
  830MOL0     H12001   7.243   4.089   8.366  1.0901  2.2271  0.3125
  830MOL0     H12002   7.085   3.906   8.516  3.3696  1.0524 -1.5148
  830MOL0     H12003   7.089   3.946   8.694 -1.9978 -0.7547 -1.0938
  830MOL0     H12004   6.900   4.027   8.529  2.8005 -0.5728 -3.0617
  830MOL0     H12005   7.012   4.146   8.473  0.5641 -0.8827 -1.6573
  830MOL0     H12006   7.042   4.233   8.714 -0.9337  2.5418 -2.4692
  830MOL0     H12007   6.928   4.110   8.767 -2.1704 -0.3205 -0.8975
  830MOL0     H12008   6.793   4.228   8.560 -2.4073  1.4773 -0.0185
  830MOL0     H12009   6.867   4.367   8.615  0.1858  0.5142  2.6772
  830MOL0     H12010   6.559   4.340   8.578 -0.9081  0.9884 -0.0600
  830MOL0     H12011   6.296   4.551   8.570 -0.8423 -4.1537  1.8690
  830MOL0     H12012   6.438   4.600   8.464  1.9732 -0.6646  1.1833
  830MOL0     H12013   6.401   4.436   8.468  2.0588 -2.2070  2.0436
  830MOL0     H12014   6.229   4.845   9.070 -0.5516  0.5107  1.3096
  830MOL0     H12015   6.119   5.040   9.119  1.3474 -3.1765  1.5975
  830MOL0     H12016   6.097   5.476   8.924  2.3828 -1.0410  2.5692
  830MOL0     H12017   6.157   5.374   8.800  0.7108 -2.3138  0.9803
  830MOL0     H12018   5.947   5.227   8.844  0.1802  0.4582 -1.4675
  830MOL0     H12019   5.890   5.368   8.948  2.6591  0.8468  1.5486
  830MOL0     H12020   5.768   5.390   8.741  0.4074 -1.2286  2.3612
  830MOL0     H12021   5.903   5.325   8.647 -0.4354 -0.2788 -0.1730
  830MOL0     H12022   5.913   5.616   8.767  3.5366  1.0963  0.3511
  830MOL0     H12023   6.020   5.545   8.650  0.3339 -2.2398 -1.2223
  830MOL0     H12024   5.726   5.543   8.574 -0.1668  0.1362  0.7147
  830MOL0     H12025   5.863   5.581   8.462  0.8140  2.8488 -0.2400
  830MOL0     H12026   5.760   5.757   8.674 -0.9497  3.1715  0.0986
  830MOL0     H12027   5.911   5.783   8.580  0.2606  1.4580 -0.4657
  830MOL0     H12028   5.627   5.768   8.467 -0.2016  1.4906 -1.4990
  830MOL0     H12029   5.777   5.775   8.360 -1.5531 -0.4836  0.0438
  830MOL0     H12030   5.824   5.992   8.428 -0.9375  1.0912  0.7299
  830MOL0     H12031   5.708   5.990   8.554 -1.5190 -0.3028 -0.0823
  830MOL0     H12032   6.291   5.229   8.758 -3.0151  3.7819  1.7812
  830MOL0     H12033   6.380   5.023   8.704 -0.3887 -0.7046 -0.9764
  830MOL0     H12034   6.573   4.672   8.946 -0.9453  0.6385 -1.8834
  830MOL0     H12035   6.728   4.458   8.949 -0.0710 -4.6681 -0.8761
  830MOL0     H12036   7.653   5.110   8.234  0.0224 -0.4862 -1.1335
  830MOL0     H12037   7.677   5.333   8.313  0.5799 -1.7689 -1.0892
  830MOL0     H12038   7.408   5.724   8.404 -1.6925  3.7082  3.0689
  830MOL0     H12039   7.446   5.951   8.489  0.8110 -1.4007  1.6553
  830MOL0     H12040   7.370   6.168   8.468 -0.0731 -1.5680  0.4397
  830MOL0     H12041   7.530   6.144   8.532  0.3002  0.1670 -0.3144
  830MOL0     H12042   7.475   6.377   8.591 -0.6650 -0.2227 -0.2542
  830MOL0     H12043   7.425   6.414   8.430  0.1122 -2.1511 -1.6552
  830MOL0     H12044   7.679   6.341   8.368  0.0213  0.1085 -0.9110
  830MOL0     H12045   7.705   6.373   8.527 -0.4085 -2.1783 -0.2071
  830MOL0     H12046   7.576   6.607   8.498  1.0336  1.3689 -0.7564
  830MOL0     H12047   7.584   6.552   8.323  0.9716  1.9663 -1.0816
  830MOL0     H12048   7.929   6.746   8.409  0.6847 -0.9600  0.1064
  830MOL0     H12049   7.609   6.053   8.092  1.9030  1.1673  0.6636
  830MOL0     H12050   7.606   5.835   8.024  1.6249  1.2611  0.8824
  831MOL0     O12051   3.768   1.027   9.291  0.2101  0.1854  0.8540
  831MOL0     C12052   3.849   1.071   9.376  0.1877  0.9066  0.4609
  831MOL0     O12053   3.980   1.032   9.397 -0.5129 -0.1164 -0.5357
  831MOL0     C12054   4.014   0.905   9.348 -0.2318 -1.0033  0.0370
  831MOL0     C12055   4.099   0.881   9.235  0.0605  0.8639  0.4935
  831MOL0     C12056   4.116   0.748   9.193 -0.3367  0.7303 -1.1579
  831MOL0     C12057   4.043   0.642   9.261  0.1177  0.1173 -0.2023
  831MOL0     O12058   4.064   0.513   9.206 -0.2945 -0.5242 -0.6743
  831MOL0     C12059   4.035   0.399   9.290  0.6950  0.2676  0.3809
  831MOL0     C12060   4.036   0.272   9.200 -0.2506  0.3563  0.6456
  831MOL0     C12061   3.906   0.274   9.109  0.5091  1.0552 -0.2551
  831MOL0     C12062   3.904   0.139   9.033  0.7726  0.0361  0.1602
  831MOL0     C12063   3.794   0.128   8.919 -0.3196  0.1831  0.3337
  831MOL0     C12064   3.794  -0.012   8.865  0.3474  0.1194  0.5112
  831MOL0     C12065   3.700  -0.024   8.751 -1.3491 -0.3222  0.7242
  831MOL0     C12066   3.762  -0.124   8.650 -0.1782 -0.0138 -0.6238
  831MOL0     N12067   3.667  -0.214   8.581  0.0319 -0.4013  0.8727
  831MOL0     C12068   3.614  -0.186   8.459  0.1161  0.7973 -0.3554
  831MOL0     C12069   3.521  -0.279   8.434  0.4081 -0.6249 -0.2803
  831MOL0     C12070   3.444  -0.292   8.298  0.4768  0.8092  0.7129
  831MOL0     C12071   3.293  -0.258   8.327 -0.7165  0.2772 -0.5812
  831MOL0     C12072   3.203  -0.322   8.217 -0.1592  0.2063 -0.2344
  831MOL0     C12073   3.055  -0.279   8.245 -0.3994  0.0186  0.5651
  831MOL0     O12074   3.048  -0.136   8.218  0.8046 -0.0075  0.0044
  831MOL0     C12075   2.927  -0.086   8.248 -0.5937  0.4735 -0.0635
  831MOL0     C12076   2.928   0.048   8.277 -1.0886  0.6768  0.5630
  831MOL0     C12077   2.816   0.125   8.287  0.0911  0.9125  0.2999
  831MOL0     C12078   2.846   0.277   8.279 -0.6054  0.4236 -0.6264
  831MOL0     C12079   2.691   0.059   8.272  0.0584 -0.3389  0.6696
  831MOL0     C12080   2.572   0.138   8.272 -0.7715 -0.8507  0.0041
  831MOL0     O12081   2.466   0.097   8.345 -0.3306  0.1062  0.4103
  831MOL0     C12082   2.348   0.166   8.339 -0.1873 -0.4343  0.5065
  831MOL0     C12083   2.316   0.271   8.428 -0.2528 -0.2826  0.8836
  831MOL0     C12084   2.196   0.338   8.418 -0.4614  0.0542  0.1210
  831MOL0     C12085   2.098   0.292   8.329 -0.6134 -0.8801  0.0874
  831MOL0     O12086   1.960   0.333   8.320 -0.9940 -0.5605  0.0455
  831MOL0     C12087   1.909   0.421   8.412 -0.2940  0.2261 -1.4625
  831MOL0     C12088   1.748   0.418   8.405 -0.3016 -0.8812 -0.5340
  831MOL0     C12089   1.662   0.534   8.466 -0.7162  0.3839  0.2981
  831MOL0     C12090   1.686   0.566   8.609  0.0937  0.3057  0.0097
  831MOL0     C12091   1.597   0.672   8.661 -1.0512  0.0703 -0.2493
  831MOL0     C12092   1.598   0.679   8.808  0.2631 -0.0651  0.5712
  831MOL0     C12093   1.483   0.774   8.848  0.5317  0.1815 -0.1511
  831MOL0     C12094   1.453   0.777   9.000  0.2333  0.1196 -0.2255
  831MOL0    Cl12095   1.285   0.825   9.042  0.4255 -0.6252 -0.0464
  831MOL0     C12096   2.138   0.189   8.242  0.1426 -0.2655  0.1488
  831MOL0     C12097   2.260   0.125   8.242  0.3635 -0.6251 -0.1802
  831MOL0     O12098   2.568   0.231   8.186  0.1984  0.1675 -0.5028
  831MOL0     C12099   2.691  -0.074   8.251 -0.2229 -0.2095  0.7494
  831MOL0     C12100   2.807  -0.150   8.246  0.5104 -0.7317 -0.7377
  831MOL0     N12101   3.536  -0.373   8.541 -0.7183  0.1642 -0.6229
  831MOL0     N12102   3.606  -0.322   8.636  0.1140  0.1414  0.1355
  831MOL0     C12103   3.970   0.670   9.385  0.3881  0.6433 -0.4299
  831MOL0     C12104   3.953   0.801   9.422  0.4183  0.0828  0.8096
  831MOL0     C12105   3.798   1.182   9.453 -0.5036  0.4873 -0.8504
  831MOL0     C12106   3.892   1.254   9.537  0.8502 -0.3081  0.5581
  831MOL0     C12107   3.849   1.343   9.632  0.5246 -0.0511 -0.8831
  831MOL0     C12108   3.715   1.377   9.633 -1.4851 -0.0093 -0.2445
  831MOL0     O12109   3.665   1.469   9.716  0.3380  0.4495  0.2895
  831MOL0     C12110   3.624   1.415   9.845 -0.3598  0.6866 -0.0388
  831MOL0     C12111   3.598   1.534   9.934  0.2722  0.4509 -0.1811
  831MOL0     C12112   3.542   1.483  10.064  0.1442 -0.4056 -0.3334
  831MOL0     C12113   3.515   1.602  10.156 -0.3419 -0.0746  0.4308
  831MOL0     C12114   3.475   1.565  10.290  0.4297  0.3595 -0.4311
  831MOL0     C12115   3.441   1.554  10.408  0.9670  0.1295  0.1785
  831MOL0     C12116   3.624   1.324   9.531  0.3571  0.5671 -0.2856
  831MOL0     C12117   3.659   1.216   9.451  0.4895 -0.6662  0.0627
  831MOL0     H12118   4.159   0.955   9.183  2.6513 -0.8187  0.8778
  831MOL0     H12119   4.181   0.730   9.108  1.4255  2.3654 -0.2286
  831MOL0     H12120   4.120   0.384   9.357  1.7658  0.1436 -0.9498
  831MOL0     H12121   3.939   0.404   9.341 -1.1747  0.9701 -2.9184
  831MOL0     H12122   4.130   0.264   9.146 -0.3079  1.7238  0.3011
  831MOL0     H12123   4.032   0.183   9.263 -1.6935 -0.6869 -0.8324
  831MOL0     H12124   3.820   0.281   9.175  1.8884  3.7058  1.4701
  831MOL0     H12125   3.918   0.357   9.038  1.6646  1.8093  0.7683
  831MOL0     H12126   4.002   0.116   8.991  0.6762  1.2352 -0.7806
  831MOL0     H12127   3.876   0.060   9.104 -0.7478  1.3507  1.0874
  831MOL0     H12128   3.695   0.140   8.962  0.0831  1.2191  0.9992
  831MOL0     H12129   3.808   0.192   8.831  3.0124 -2.2903 -1.1845
  831MOL0     H12130   3.893  -0.036   8.824  0.9561 -0.0118  1.9915
  831MOL0     H12131   3.771  -0.087   8.941  2.6620 -0.5748  0.6113
  831MOL0     H12132   3.606  -0.064   8.790 -1.6960 -1.4659 -1.1293
  831MOL0     H12133   3.691   0.070   8.696  0.5132 -0.1063  0.7333
  831MOL0     H12134   3.825  -0.195   8.705 -0.6055  0.7170  0.8594
  831MOL0     H12135   3.832  -0.076   8.581  1.1811 -0.2231  0.5470
  831MOL0     H12136   3.629  -0.097   8.399  0.4427 -0.2910 -1.9811
  831MOL0     H12137   3.482  -0.227   8.219  2.1210 -0.8891  0.0402
  831MOL0     H12138   3.442  -0.395   8.263 -1.5168  1.2131 -0.5287
  831MOL0     H12139   3.266  -0.152   8.320  2.1179  1.0652 -0.8419
  831MOL0     H12140   3.269  -0.298   8.426 -2.4897  1.4171 -0.4949
  831MOL0     H12141   3.209  -0.430   8.207  0.6045  0.3664 -1.9987
  831MOL0     H12142   3.233  -0.272   8.124  0.8604  0.4209  0.1898
  831MOL0     H12143   3.038  -0.290   8.353  0.3079  1.6345  0.8636
  831MOL0     H12144   2.985  -0.348   8.196  0.9829 -0.7417 -0.3801
  831MOL0     H12145   3.019   0.108   8.274  0.9168 -2.1483  0.1892
  831MOL0     H12146   2.941   0.310   8.322  0.8491 -1.4930 -2.1582
  831MOL0     H12147   2.846   0.318   8.177  2.3991 -0.2096 -0.9636
  831MOL0     H12148   2.769   0.326   8.339 -1.0213 -0.1038 -0.7207
  831MOL0     H12149   2.396   0.283   8.499  0.6713 -0.8651 -0.0309
  831MOL0     H12150   2.171   0.416   8.489 -1.6010 -0.2108  0.0286
  831MOL0     H12151   1.941   0.374   8.505 -0.6571 -0.3310 -1.6153
  831MOL0     H12152   1.958   0.519   8.414 -1.4533  0.8171 -1.4268
  831MOL0     H12153   1.711   0.402   8.303 -4.1045  0.2697  0.4939
  831MOL0     H12154   1.719   0.333   8.467  1.4244 -0.7141  0.5627
  831MOL0     H12155   1.555   0.515   8.450 -0.3513 -1.3788 -0.2707
  831MOL0     H12156   1.672   0.627   8.409 -0.8528 -0.5006 -1.2125
  831MOL0     H12157   1.657   0.479   8.669  0.2393 -1.6398 -2.5850
  831MOL0     H12158   1.787   0.606   8.624  0.8086 -1.0896 -0.8537
  831MOL0     H12159   1.497   0.654   8.619 -0.7625 -0.1733 -0.8597
  831MOL0     H12160   1.632   0.766   8.618  0.5750  0.8984  2.6897
  831MOL0     H12161   1.566   0.587   8.859 -1.9928  1.0433  1.2937
  831MOL0     H12162   1.694   0.712   8.850 -0.0911  0.7567  0.7399
  831MOL0     H12163   1.401   0.727   8.791 -0.3152  0.3753  0.8707
  831MOL0     H12164   1.495   0.878   8.817  2.1745 -1.0516 -4.3015
  831MOL0     H12165   1.533   0.836   9.046 -1.3130  2.0800  0.0419
  831MOL0     H12166   1.455   0.676   9.044 -0.6273 -1.0371 -2.6781
  831MOL0     H12167   2.069   0.146   8.170  2.7499 -2.5536 -1.1199
  831MOL0     H12168   2.295   0.055   8.167  4.1071  0.6938  0.1475
  831MOL0     H12169   2.595  -0.125   8.253  0.3732 -1.4347 -0.3414
  831MOL0     H12170   2.791  -0.256   8.228 -1.1251 -1.0629  1.9811
  831MOL0     H12171   3.929   0.595   9.452 -0.5605 -0.2025 -1.9176
  831MOL0     H12172   3.889   0.827   9.506 -0.5625  0.8061 -0.1366
  831MOL0     H12173   3.999   1.238   9.524  0.7795 -0.0424 -0.3967
  831MOL0     H12174   3.915   1.394   9.701  0.0755  0.5204 -0.8686
  831MOL0     H12175   3.538   1.348   9.834 -0.6298  0.7691  1.4634
  831MOL0     H12176   3.697   1.350   9.893  0.3864  0.6838 -1.1325
  831MOL0     H12177   3.518   1.601   9.902 -0.3401 -1.0926 -2.0982
  831MOL0     H12178   3.684   1.602   9.942 -1.2207  2.1649  2.4695
  831MOL0     H12179   3.620   1.423  10.110 -0.1700 -0.2015  0.4737
  831MOL0     H12180   3.454   1.419  10.050 -0.9857  0.9657  0.2268
  831MOL0     H12181   3.442   1.662  10.100  4.1636  2.1765 -3.7695
  831MOL0     H12182   3.599   1.670  10.168  0.7181 -1.4257  0.9024
  831MOL0     H12183   3.413   1.552  10.512 -0.7993 -2.1857 -0.2653
  831MOL0     H12184   3.518   1.346   9.521  0.6399  1.3959 -1.7841
  831MOL0     H12185   3.602   1.160   9.377  5.1576 -2.3593 -2.6794
  832MOL0     O12186   8.527   9.963   2.754  0.0786  0.0892 -0.0915
  832MOL0     C12187   8.569  10.013   2.860  0.1213 -0.4585  0.1744
  832MOL0     O12188   8.686  10.076   2.871 -0.8288  0.2352  1.0131
  832MOL0     C12189   8.784  10.063   2.766  0.7284 -0.3719 -0.2437
  832MOL0     C12190   8.810   9.957   2.679  0.3895  0.4666 -0.2247
  832MOL0     C12191   8.912   9.958   2.578 -0.1624 -0.1712 -0.0851
  832MOL0     C12192   9.000  10.069   2.569 -0.2124 -0.3127  0.6733
  832MOL0     O12193   9.116  10.057   2.495 -0.0643 -0.3115 -0.0490
  832MOL0     C12194   9.125   9.962   2.386  0.1753 -0.2456 -0.3399
  832MOL0     C12195   9.261   9.975   2.310  0.1353 -0.8634 -0.3985
  832MOL0     C12196   9.390   9.925   2.389  0.8753 -0.6229 -0.2194
  832MOL0     C12197   9.405   9.775   2.377 -0.0530 -1.1022 -0.5447
  832MOL0     C12198   9.437   9.715   2.243 -0.2409 -0.6035 -0.0999
  832MOL0     C12199   9.562   9.764   2.175 -0.3400 -0.3538  0.3147
  832MOL0     C12200   9.594   9.678   2.048 -0.1900 -0.3123  0.0780
  832MOL0     C12201   9.518   9.685   1.916 -0.2702 -0.7182 -0.7968
  832MOL0     N12202   9.580   9.600   1.803 -0.9835 -0.7458 -0.5317
  832MOL0     C12203   9.680   9.499   1.803  0.8533 -0.8566 -0.2338
  832MOL0     C12204   9.698   9.466   1.670 -0.1780 -0.5447 -0.9125
  832MOL0     C12205   9.799   9.365   1.623  0.6547 -0.3857  0.3742
  832MOL0     C12206   9.761   9.331   1.475  0.4337 -0.5205  0.5742
  832MOL0     C12207   9.833   9.425   1.370  0.0395 -0.0968 -0.2513
  832MOL0     C12208   9.811   9.381   1.228 -0.1292  0.5317 -0.3136
  832MOL0     O12209   9.865   9.251   1.211 -0.3600  0.3083  0.5303
  832MOL0     C12210   9.831   9.182   1.097  0.7526  0.0408 -0.2047
  832MOL0     C12211   9.787   9.232   0.972 -0.3619 -0.5546 -0.1298
  832MOL0     C12212   9.776   9.166   0.846 -0.3537  0.2707 -1.2275
  832MOL0     C12213   9.725   9.253   0.738  0.0292 -0.7262  0.2954
  832MOL0     C12214   9.795   9.027   0.845  0.2540 -0.4574 -0.7387
  832MOL0     C12215   9.769   8.929   0.733 -0.4415  0.6062 -0.1430
  832MOL0     O12216   9.757   8.790   0.765  0.0574  0.2313 -0.2193
  832MOL0     C12217   9.734   8.700   0.661  0.0071  1.1419 -0.5464
  832MOL0     C12218   9.621   8.728   0.578 -0.4197 -0.1322  0.4898
  832MOL0     C12219   9.581   8.644   0.471 -0.5234 -0.4067 -0.0172
  832MOL0     C12220   9.651   8.523   0.457  0.3032  0.5070  0.3105
  832MOL0     O12221   9.613   8.433   0.355 -1.1177 -0.4659 -0.3462
  832MOL0     C12222   9.595   8.300   0.415  0.3539  0.2963 -0.0653
  832MOL0     C12223   9.448   8.271   0.426  0.7065  0.0928  0.8303
  832MOL0     C12224   9.423   8.117   0.450  0.3114  0.0488  0.4652
  832MOL0     C12225   9.429   8.048   0.313 -0.3591 -0.1692 -0.5321
  832MOL0     C12226   9.312   8.059   0.220  0.3339 -0.4612  0.2868
  832MOL0     C12227   9.318   7.965   0.088 -0.5610 -0.1067  0.3633
  832MOL0     C12228   9.400   8.015  -0.028  0.3665  0.0783  1.0733
  832MOL0     C12229   9.334   8.008  -0.169  1.8334 -0.7443 -0.1070
  832MOL0    Cl12230   9.433   8.106  -0.278  0.1202 -0.0429 -0.3565
  832MOL0     C12231   9.759   8.494   0.534  0.2237  0.1310 -0.2766
  832MOL0     C12232   9.801   8.574   0.637 -0.7556 -0.6257 -0.3209
  832MOL0     O12233   9.762   8.977   0.621  0.2371 -0.9586 -0.6252
  832MOL0     C12234   9.835   8.975   0.970  0.8300 -0.4801 -0.1633
  832MOL0     C12235   9.845   9.043   1.094  0.0070 -1.0861 -0.4462
  832MOL0     N12236   9.632   9.567   1.600 -0.4413 -0.3751 -0.5258
  832MOL0     N12237   9.568   9.642   1.679  0.2270  0.5583  1.0645
  832MOL0     C12238   8.984  10.174   2.661  1.1008 -0.3295  1.1365
  832MOL0     C12239   8.877  10.170   2.758 -0.2111  0.3542  0.4206
  832MOL0     C12240   8.485  10.011   2.975 -0.3279 -1.5493  1.3533
  832MOL0     C12241   8.348  10.029   2.958  0.1092  0.0440  0.5206
  832MOL0     C12242   8.275  10.045   3.082  1.0286 -0.0657  0.0691
  832MOL0     C12243   8.328  10.014   3.212  0.0046 -0.4878  0.6473
  832MOL0     O12244   8.266  10.051   3.324  0.9507 -0.6030 -0.8837
  832MOL0     C12245   8.149  10.140   3.316  0.9076 -0.2865 -0.1264
  832MOL0     C12246   8.114  10.170   3.455 -0.1038  0.2886 -0.1388
  832MOL0     C12247   8.071  10.038   3.524 -0.1973  0.1552  0.4547
  832MOL0     C12248   8.041  10.059   3.667 -0.2913  0.1599  0.3780
  832MOL0     C12249   7.987   9.936   3.718  0.8474 -0.3085  0.0461
  832MOL0     C12250   7.943   9.831   3.741  0.3193  0.4616 -0.3470
  832MOL0     C12251   8.461   9.979   3.211  0.4730 -0.0942 -0.4488
  832MOL0     C12252   8.540   9.986   3.098  0.4167  0.6512  0.3902
  832MOL0     H12253   8.744   9.873   2.700 -2.0292  2.9807  3.4704
  832MOL0     H12254   8.918   9.875   2.508  0.4650 -0.7827  0.6627
  832MOL0     H12255   9.110   9.867   2.439 -4.0784  2.0497  3.3611
  832MOL0     H12256   9.040   9.984   2.320 -0.3126 -1.2542 -0.0790
  832MOL0     H12257   9.258   9.915   2.219  0.2698 -3.3404  1.1255
  832MOL0     H12258   9.273  10.081   2.289 -1.3377  0.3636  3.8829
  832MOL0     H12259   9.477   9.976   2.345  1.8872 -2.0927 -0.0046
  832MOL0     H12260   9.366   9.952   2.492 -1.4315  1.7290 -1.2553
  832MOL0     H12261   9.485   9.749   2.447  0.2781  2.1614  0.4538
  832MOL0     H12262   9.312   9.726   2.405 -0.8533 -0.0694 -1.2933
  832MOL0     H12263   9.453   9.609   2.265  1.6374 -0.0030  1.8578
  832MOL0     H12264   9.348   9.726   2.181 -0.3076 -2.3471 -0.3796
  832MOL0     H12265   9.545   9.868   2.146  0.2099  0.0990  1.5378
  832MOL0     H12266   9.642   9.751   2.248 -2.3157  0.0987  2.7221
  832MOL0     H12267   9.698   9.692   2.017  0.4992  1.0311  2.6957
  832MOL0     H12268   9.585   9.575   2.083 -0.2731 -1.0765 -2.0359
  832MOL0     H12269   9.504   9.789   1.885 -2.6776 -0.7196  0.1022
  832MOL0     H12270   9.416   9.651   1.933 -0.1770 -1.3767 -1.5418
  832MOL0     H12271   9.717   9.453   1.894 -2.8412  0.6944  2.3297
  832MOL0     H12272   9.898   9.410   1.612  0.7614  0.0595  2.7103
  832MOL0     H12273   9.802   9.273   1.681 -2.0580 -0.7608  0.0378
  832MOL0     H12274   9.654   9.345   1.458  1.0237  6.2390 -0.7879
  832MOL0     H12275   9.788   9.227   1.457 -1.2198 -0.8485 -0.1305
  832MOL0     H12276   9.940   9.412   1.383 -0.1998 -0.0466  2.4946
  832MOL0     H12277   9.808   9.531   1.381  1.9808  0.5148 -1.2840
  832MOL0     H12278   9.872   9.447   1.165  1.2574 -0.2769  0.1343
  832MOL0     H12279   9.705   9.379   1.199 -0.2235 -2.1732 -0.0284
  832MOL0     H12280   9.768   9.339   0.961 -2.2880 -0.8461  0.0150
  832MOL0     H12281   9.809   9.309   0.696  1.0089 -2.4194 -0.1062
  832MOL0     H12282   9.661   9.205   0.663 -0.9927  0.9730  0.0309
  832MOL0     H12283   9.659   9.330   0.780 -2.9817 -0.7349 -3.7779
  832MOL0     H12284   9.552   8.811   0.588  1.2933  1.4729 -0.5309
  832MOL0     H12285   9.496   8.672   0.410 -0.0040  0.2631 -0.4483
  832MOL0     H12286   9.641   8.226   0.349 -3.8344 -1.4935 -1.3195
  832MOL0     H12287   9.637   8.293   0.515 -0.4571 -1.3733  0.1888
  832MOL0     H12288   9.412   8.332   0.510 -0.1296  2.0726 -0.8933
  832MOL0     H12289   9.395   8.291   0.333  1.9945 -1.1734 -0.2144
  832MOL0     H12290   9.318   8.109   0.481 -0.0469 -1.2759 -0.9236
  832MOL0     H12291   9.497   8.069   0.515  3.7790  4.0670 -0.1238
  832MOL0     H12292   9.516   8.073   0.251  0.0654 -2.1372 -0.7859
  832MOL0     H12293   9.433   7.942   0.339 -0.0998  0.0399  0.3155
  832MOL0     H12294   9.298   8.159   0.179  4.8110  0.2293 -0.0944
  832MOL0     H12295   9.220   8.031   0.273  0.1738 -1.3030 -0.4186
  832MOL0     H12296   9.360   7.877   0.138 -2.5035  0.0672  2.4982
  832MOL0     H12297   9.220   7.938   0.048 -0.3253  0.1467 -0.3936
  832MOL0     H12298   9.485   7.946  -0.022 -1.2733 -2.3459 -0.9147
  832MOL0     H12299   9.427   8.119  -0.011 -2.0031  1.3291 -1.8285
  832MOL0     H12300   9.233   8.048  -0.158  3.4146  3.6137  0.3084
  832MOL0     H12301   9.321   7.910  -0.215 -1.7540 -0.4108 -0.0940
  832MOL0     H12302   9.817   8.404   0.520  3.0520  0.7974  4.7695
  832MOL0     H12303   9.887   8.539   0.693 -0.6048 -0.1305 -0.2408
  832MOL0     H12304   9.846   8.867   0.966 -1.8244 -0.8133 -0.3149
  832MOL0     H12305   9.855   8.987   1.187  0.4598  3.1847  2.3390
  832MOL0     H12306   9.043  10.264   2.669 -0.6705  1.0735 -0.6407
  832MOL0     H12307   8.864  10.259   2.818 -0.2726 -0.8295  2.2377
  832MOL0     H12308   8.300  10.050   2.863  2.0343  1.4177 -0.2322
  832MOL0     H12309   8.168  10.064   3.074  0.8661 -0.6726  0.6752
  832MOL0     H12310   8.176  10.224   3.252  0.5161  0.2586  0.4040
  832MOL0     H12311   8.059  10.097   3.271 -0.8144  3.2012 -0.3364
  832MOL0     H12312   8.022  10.229   3.460 -0.6796 -0.6140  0.1325
  832MOL0     H12313   8.196  10.219   3.509 -0.0724 -0.1982  0.2637
  832MOL0     H12314   8.134   9.951   3.508 -2.9799 -1.6304 -1.8086
  832MOL0     H12315   7.979  10.022   3.467  0.6943  1.2333 -1.3775
  832MOL0     H12316   7.981  10.149   3.682  0.5252  1.2401 -2.2275
  832MOL0     H12317   8.131  10.083   3.725  0.3882 -1.1706 -0.0718
  832MOL0     H12318   7.924   9.726   3.753 -0.3021  0.6760  0.6818
  832MOL0     H12319   8.510   9.954   3.304  0.2886 -0.4517 -0.4453
  832MOL0     H12320   8.647   9.982   3.118  1.1425  3.0491 -2.3923
  833MOL0     O12321   7.763   8.557   0.311 -0.0426  0.1189  0.1653
  833MOL0     C12322   7.819   8.495   0.405  0.0876  0.0029 -0.0678
  833MOL0     O12323   7.950   8.443   0.409  0.3778  0.3190  0.3113
  833MOL0     C12324   8.037   8.452   0.307  0.9274 -0.0430  0.3857
  833MOL0     C12325   8.011   8.487   0.170 -0.6716 -0.9094  0.0494
  833MOL0     C12326   8.125   8.507   0.082  0.8915  0.3527  0.0337
  833MOL0     C12327   8.257   8.492   0.136 -0.5947 -0.1418  0.3144
  833MOL0     O12328   8.358   8.529   0.057 -0.4027 -0.1444  0.3673
  833MOL0     C12329   8.438   8.641   0.069  0.2759  0.7088 -0.8662
  833MOL0     C12330   8.437   8.707  -0.072  0.3661  0.1436  0.1507
  833MOL0     C12331   8.299   8.744  -0.119  0.1085  0.4588  0.4602
  833MOL0     C12332   8.299   8.830  -0.241 -0.3116  0.0687  0.0378
  833MOL0     C12333   8.317   8.977  -0.203  0.4284  0.7662 -0.9545
  833MOL0     C12334   8.180   9.033  -0.178  0.1744 -0.5133 -0.7963
  833MOL0     C12335   8.181   9.167  -0.101  0.1519 -0.0848 -0.7831
  833MOL0     C12336   8.042   9.226  -0.046  0.0083  0.2698  0.9824
  833MOL0     N12337   7.953   9.249  -0.161 -0.1086 -0.8741 -0.2661
  833MOL0     C12338   7.835   9.189  -0.186  0.0182  0.0151 -0.7593
  833MOL0     C12339   7.798   9.232  -0.313 -0.4180 -1.4508 -0.4664
  833MOL0     C12340   7.678   9.173  -0.396 -1.4079 -1.0818 -0.0929
  833MOL0     C12341   7.715   9.038  -0.454  0.0095  0.2405  0.6516
  833MOL0     C12342   7.797   9.048  -0.583 -0.2124  0.2203 -0.1765
  833MOL0     C12343   7.851   8.910  -0.642  0.4093 -0.0317 -0.9715
  833MOL0     O12344   7.936   8.854  -0.539 -0.0278  0.6060  0.6154
  833MOL0     C12345   7.995   8.740  -0.580  0.1591  0.5115 -0.6982
  833MOL0     C12346   8.131   8.739  -0.597  0.3720 -0.1370 -0.0732
  833MOL0     C12347   8.196   8.627  -0.653 -0.9066  0.3188  0.5430
  833MOL0     C12348   8.347   8.622  -0.639 -0.0040 -0.7157 -0.6464
  833MOL0     C12349   8.119   8.507  -0.688 -0.1338  0.4097  0.8629
  833MOL0     C12350   8.181   8.392  -0.763  0.4666 -0.5374  0.8647
  833MOL0     O12351   8.121   8.265  -0.765 -0.5076 -0.3065 -0.1696
  833MOL0     C12352   8.153   8.168  -0.859 -1.3302 -0.1134 -0.3318
  833MOL0     C12353   8.040   8.136  -0.943  1.0659 -0.3968 -0.8033
  833MOL0     C12354   8.062   8.040  -1.050  0.6067 -0.8916 -0.3644
  833MOL0     C12355   8.187   7.986  -1.080  0.5225  0.0788  0.6175
  833MOL0     O12356   8.194   7.909  -1.188 -0.6353 -0.3706  0.7582
  833MOL0     C12357   8.297   7.799  -1.197 -0.2308  0.0839  0.3781
  833MOL0     C12358   8.260   7.679  -1.099 -0.0260 -0.2301  0.2129
  833MOL0     C12359   8.316   7.550  -1.150 -0.0641 -0.0078 -0.3250
  833MOL0     C12360   8.263   7.433  -1.057  0.5329 -0.0437  0.1070
  833MOL0     C12361   8.352   7.306  -1.076  0.2997  0.4307 -1.2948
  833MOL0     C12362   8.291   7.179  -0.997 -0.1969 -0.0255  0.1895
  833MOL0     C12363   8.399   7.065  -0.983 -0.4665  0.2333 -0.2530
  833MOL0     C12364   8.371   6.967  -1.086  0.1361  0.2909  0.2484
  833MOL0    Cl12365   8.219   6.871  -1.046 -0.3159 -0.5482  0.2629
  833MOL0     C12366   8.295   8.017  -0.991 -1.6463 -1.2284  0.2830
  833MOL0     C12367   8.276   8.107  -0.880  0.5007  0.5846  0.6332
  833MOL0     O12368   8.269   8.424  -0.838 -0.0787  0.3829  0.1293
  833MOL0     C12369   7.978   8.508  -0.662 -0.0099 -0.0826  0.1962
  833MOL0     C12370   7.921   8.623  -0.611 -0.2842 -0.2418  1.2779
  833MOL0     N12371   7.899   9.315  -0.357  0.1120  0.6987 -0.5740
  833MOL0     N12372   7.992   9.326  -0.267 -0.1466  0.0708 -0.5736
  833MOL0     C12373   8.276   8.452   0.271 -0.4309  0.2574 -0.2667
  833MOL0     C12374   8.166   8.429   0.349 -0.9650 -0.9788 -1.1322
  833MOL0     C12375   7.741   8.475   0.526  0.4321  0.5811  0.2765
  833MOL0     C12376   7.611   8.514   0.526 -0.1231 -0.0486  0.8147
  833MOL0     C12377   7.525   8.479   0.634  0.0836 -0.2097 -0.0539
  833MOL0     C12378   7.580   8.419   0.751 -0.6576 -0.3030 -0.1737
  833MOL0     O12379   7.517   8.371   0.871 -0.5825  0.6940 -0.0184
  833MOL0     C12380   7.377   8.397   0.865 -1.2254  0.2492  0.1794
  833MOL0     C12381   7.304   8.388   0.997  0.6320  0.6003 -0.4403
  833MOL0     C12382   7.158   8.445   1.010 -0.6565 -0.6481  0.1627
  833MOL0     C12383   7.071   8.363   1.110  0.5397  0.7845 -0.4170
  833MOL0     C12384   6.922   8.375   1.099 -0.1857 -0.7016  0.7084
  833MOL0     C12385   6.802   8.384   1.073 -1.1999 -0.1641  0.2667
  833MOL0     C12386   7.723   8.403   0.758 -0.9227 -0.0666  0.5854
  833MOL0     C12387   7.801   8.426   0.647  0.1903  0.1508  0.0968
  833MOL0     H12388   7.912   8.500   0.129 -0.8694  2.6719  1.3494
  833MOL0     H12389   8.100   8.544  -0.017 -1.3867 -2.0298 -0.3611
  833MOL0     H12390   8.391   8.701   0.148  2.4982 -2.1953  3.0267
  833MOL0     H12391   8.539   8.614   0.103 -0.2245  0.3616  0.3992
  833MOL0     H12392   8.503   8.793  -0.056  0.5725 -0.4838  3.3508
  833MOL0     H12393   8.472   8.635  -0.146  1.5036 -0.2046  0.9960
  833MOL0     H12394   8.249   8.652  -0.151  2.3995 -0.3147 -1.1839
  833MOL0     H12395   8.240   8.785  -0.037 -0.4407 -2.1662  1.4894
  833MOL0     H12396   8.385   8.801  -0.302 -0.6010 -1.5545  0.3587
  833MOL0     H12397   8.212   8.819  -0.307 -0.0720  1.2793 -0.5030
  833MOL0     H12398   8.377   8.982  -0.112  0.4251 -1.3925 -0.7938
  833MOL0     H12399   8.371   9.034  -0.279  3.0792  0.2346  0.4386
  833MOL0     H12400   8.131   9.041  -0.276 -1.7848 -1.3929  0.0492
  833MOL0     H12401   8.115   8.969  -0.118  1.7304 -0.9385  0.5239
  833MOL0     H12402   8.240   9.169  -0.008 -0.1969  1.6612 -0.5803
  833MOL0     H12403   8.223   9.242  -0.168  1.6888  1.2862  1.5818
  833MOL0     H12404   8.052   9.321   0.007  2.1893  1.3219 -1.1245
  833MOL0     H12405   7.993   9.154   0.021  0.6261  2.3138  3.8323
  833MOL0     H12406   7.795   9.125  -0.108  4.4111  1.1696  2.8410
  833MOL0     H12407   7.589   9.163  -0.334 -2.9807  3.1421 -1.2897
  833MOL0     H12408   7.655   9.245  -0.476 -2.9895  0.1688  1.4051
  833MOL0     H12409   7.627   8.974  -0.463  1.9079 -2.3636 -1.2182
  833MOL0     H12410   7.776   8.987  -0.378 -1.2911 -0.1074  1.4876
  833MOL0     H12411   7.882   9.113  -0.559 -1.0572  1.5525 -0.7333
  833MOL0     H12412   7.744   9.093  -0.666  0.0838 -0.8449 -0.9676
  833MOL0     H12413   7.911   8.936  -0.731 -1.1086 -1.4489 -2.4935
  833MOL0     H12414   7.764   8.852  -0.672  0.5124  0.0924 -1.5424
  833MOL0     H12415   8.193   8.817  -0.554  0.6464  0.3516 -1.3040
  833MOL0     H12416   8.381   8.610  -0.742  0.2287 -0.7979 -0.5579
  833MOL0     H12417   8.380   8.724  -0.618  0.0708 -0.8282 -0.2049
  833MOL0     H12418   8.371   8.545  -0.565 -3.9646  0.0168  1.7423
  833MOL0     H12419   7.943   8.185  -0.949  1.4261  0.1476 -3.1632
  833MOL0     H12420   7.970   8.021  -1.104 -0.3597 -0.5843  1.1024
  833MOL0     H12421   8.287   7.756  -1.297 -1.6155 -1.4253  1.1110
  833MOL0     H12422   8.401   7.830  -1.183  0.4877 -2.7553  2.4938
  833MOL0     H12423   8.301   7.699  -0.999  0.5905  2.1431 -0.4465
  833MOL0     H12424   8.151   7.674  -1.104  0.0589 -0.7495 -2.2745
  833MOL0     H12425   8.424   7.534  -1.141 -0.1959 -2.0146 -1.7166
  833MOL0     H12426   8.280   7.534  -1.252 -0.4554  0.0054 -0.1906
  833MOL0     H12427   8.259   7.461  -0.952 -5.0420 -1.9822  0.7793
  833MOL0     H12428   8.158   7.409  -1.078  0.8000 -0.3412 -0.9557
  833MOL0     H12429   8.452   7.332  -1.040  0.2217  2.4972 -2.3828
  833MOL0     H12430   8.363   7.276  -1.180 -0.7449 -1.6527 -0.8518
  833MOL0     H12431   8.275   7.211  -0.894  2.9374  1.7718  0.2594
  833MOL0     H12432   8.190   7.151  -1.028 -0.2020  0.6580 -0.4295
  833MOL0     H12433   8.386   7.015  -0.886 -1.5654  1.0734  0.0526
  833MOL0     H12434   8.501   7.106  -0.975 -0.2699 -0.5423  2.1232
  833MOL0     H12435   8.452   6.894  -1.096  1.1592  1.7284 -3.9864
  833MOL0     H12436   8.363   7.020  -1.181 -2.2864  2.0034  1.3030
  833MOL0     H12437   8.391   7.972  -1.011 -3.3581 -4.9682 -0.3848
  833MOL0     H12438   8.358   8.144  -0.818  1.4142  1.0987 -0.8278
  833MOL0     H12439   7.921   8.416  -0.671  0.1492  0.0127 -3.8590
  833MOL0     H12440   7.813   8.629  -0.606 -0.2419  0.0820  1.9180
  833MOL0     H12441   8.370   8.432   0.322 -0.0496 -3.7572 -2.1877
  833MOL0     H12442   8.195   8.392   0.447  0.6259  1.7914 -0.4555
  833MOL0     H12443   7.553   8.566   0.450 -2.2518 -1.4338  1.4038
  833MOL0     H12444   7.418   8.494   0.630  0.1828  0.4996 -0.1368
  833MOL0     H12445   7.367   8.501   0.835  2.5793  0.2631 -1.7006
  833MOL0     H12446   7.334   8.339   0.783  0.8947 -1.0546 -0.0800
  833MOL0     H12447   7.364   8.442   1.071  0.3134  0.6441 -0.2119
  833MOL0     H12448   7.305   8.285   1.033  0.9726  0.2167 -1.5211
  833MOL0     H12449   7.109   8.445   0.913 -0.7470 -0.1615  0.2026
  833MOL0     H12450   7.172   8.544   1.056 -0.8654 -0.0619 -1.0145
  833MOL0     H12451   7.089   8.406   1.208  3.9968 -0.5784 -0.3300
  833MOL0     H12452   7.102   8.258   1.100  0.0144  0.7993 -2.8711
  833MOL0     H12453   6.703   8.394   1.034 -1.1062  0.0252  0.0790
  833MOL0     H12454   7.764   8.351   0.844 -0.6557 -1.7683 -0.5336
  833MOL0     H12455   7.902   8.386   0.641  0.1234  0.1775 -2.1002
  834MOL0     O12456   8.923  10.151   0.465 -0.6473 -0.0851  0.9701
  834MOL0     C12457   8.810  10.154   0.501 -0.7237 -0.2102 -1.0233
  834MOL0     O12458   8.740  10.257   0.557  0.1368 -0.9503 -0.1080
  834MOL0     C12459   8.798  10.363   0.614  0.4775  0.6812 -0.4558
  834MOL0     C12460   8.823  10.373   0.752 -0.3591  0.2669 -0.4580
  834MOL0     C12461   8.883  10.488   0.800 -0.7786 -0.1563  0.9772
  834MOL0     C12462   8.920  10.588   0.711  0.0063 -1.0479 -0.2024
  834MOL0     O12463   8.953  10.705   0.761 -0.2627  0.3612 -0.1982
  834MOL0     C12464   9.045  10.710   0.876 -0.2753  0.0962  0.9816
  834MOL0     C12465   9.123  10.845   0.887  0.5052  0.3466 -0.4646
  834MOL0     C12466   9.056  10.966   0.956  0.5160  0.9977  0.3022
  834MOL0     C12467   9.127  11.095   0.947  0.4313 -0.4647 -0.8086
  834MOL0     C12468   9.055  11.221   0.995  0.2291  0.5587 -0.5688
  834MOL0     C12469   9.012  11.220   1.141 -0.5339 -0.7846  0.3353
  834MOL0     C12470   8.956  11.359   1.168 -1.5788  0.3578  1.9283
  834MOL0     C12471   8.871  11.354   1.286 -0.0134  0.1376  0.6706
  834MOL0     N12472   8.778  11.458   1.302  0.4351 -0.8559 -0.2676
  834MOL0     C12473   8.659  11.483   1.245  0.5995  0.1349 -0.2719
  834MOL0     C12474   8.633  11.608   1.296  0.2710  1.0861  0.2826
  834MOL0     C12475   8.505  11.690   1.279  0.0175 -0.5141  0.4272
  834MOL0     C12476   8.402  11.655   1.400  1.0673  0.1199 -0.3151
  834MOL0     C12477   8.293  11.764   1.406 -0.0753  0.0549  0.2697
  834MOL0     C12478   8.213  11.777   1.282  0.5799 -0.2957 -0.0336
  834MOL0     O12479   8.279  11.849   1.180  0.1594  0.1423  0.1013
  834MOL0     C12480   8.268  11.985   1.181  0.9325 -0.1166 -0.1788
  834MOL0     C12481   8.370  12.059   1.227  0.2199 -0.2385 -0.4556
  834MOL0     C12482   8.369  12.200   1.210  0.0949 -0.3322 -0.1067
  834MOL0     C12483   8.488  12.275   1.257 -0.6498  1.5088 -0.2221
  834MOL0     C12484   8.248  12.258   1.155  1.1713 -0.6124  0.0482
  834MOL0     C12485   8.234  12.398   1.139 -0.5679 -0.2559  1.0169
  834MOL0     O12486   8.181  12.442   1.020  0.2443  0.1931 -0.1075
  834MOL0     C12487   8.098  12.553   1.026 -0.6906 -0.5993 -0.0688
  834MOL0     C12488   8.120  12.657   0.943  0.4486 -0.5091  0.6740
  834MOL0     C12489   8.041  12.773   0.941  0.1505 -1.0669  0.5808
  834MOL0     C12490   7.938  12.797   1.025 -0.0846  0.7882 -0.2069
  834MOL0     O12491   7.869  12.912   1.008  0.3774  0.1185  0.3319
  834MOL0     C12492   7.840  12.984   1.133  0.6252  0.0771  0.3976
  834MOL0     C12493   7.800  13.122   1.078  0.3220  0.0520  0.7546
  834MOL0     C12494   7.672  13.128   1.004  0.4479  0.1144  0.0593
  834MOL0     C12495   7.704  13.112   0.857  0.7138  0.3710 -0.1634
  834MOL0     C12496   7.585  13.117   0.764  0.3122 -0.4852  0.4791
  834MOL0     C12497   7.618  13.087   0.616 -0.3729 -0.6513 -0.8947
  834MOL0     C12498   7.513  13.160   0.522  0.2392 -0.0263  0.4619
  834MOL0     C12499   7.533  13.112   0.378 -1.0298  0.5674  0.8611
  834MOL0    Cl12500   7.461  12.941   0.375  0.0214  0.1217  0.5417
  834MOL0     C12501   7.916  12.689   1.116 -0.1426 -0.0177 -0.8038
  834MOL0     C12502   7.985  12.568   1.119  0.0596  1.4580  0.6788
  834MOL0     O12503   8.251  12.463   1.236 -0.3039 -0.5610 -0.8043
  834MOL0     C12504   8.138  12.179   1.115  0.2243  0.5789  0.5390
  834MOL0     C12505   8.148  12.040   1.131 -0.0829 -0.6842  0.6344
  834MOL0     N12506   8.737  11.651   1.375  0.3615 -0.5847 -0.0961
  834MOL0     N12507   8.831  11.558   1.377 -0.1861 -0.4600  0.3194
  834MOL0     C12508   8.906  10.579   0.568  0.0727 -0.3032 -0.0471
  834MOL0     C12509   8.839  10.458   0.524 -0.7620 -1.0458  0.0383
  834MOL0     C12510   8.739  10.031   0.488  1.0505 -0.2698 -0.6399
  834MOL0     C12511   8.793   9.932   0.407  0.0498  0.0145  0.3280
  834MOL0     C12512   8.735   9.810   0.395  0.5100  0.6773 -0.1121
  834MOL0     C12513   8.622   9.775   0.473 -0.1159 -0.0457 -0.0694
  834MOL0     O12514   8.583   9.649   0.462  0.4493 -0.8235  0.6259
  834MOL0     C12515   8.520   9.581   0.567 -0.7528  0.4829 -0.3351
  834MOL0     C12516   8.584   9.587   0.699  0.6156 -0.1298  0.4005
  834MOL0     C12517   8.494   9.525   0.800  0.9936 -0.7072  0.1572
  834MOL0     C12518   8.592   9.472   0.910  0.5415  0.4583  0.1550
  834MOL0     C12519   8.515   9.467   1.030 -0.8505  0.3842 -0.0905
  834MOL0     C12520   8.452   9.454   1.136  0.3586  0.0901 -0.3178
  834MOL0     C12521   8.558   9.868   0.552 -0.2848 -0.0829  0.2232
  834MOL0     C12522   8.616  10.000   0.559  0.7852 -0.0827 -0.6663
  834MOL0     H12523   8.791  10.290   0.814 -0.5799  1.3979  1.0227
  834MOL0     H12524   8.903  10.493   0.907  0.1109 -0.4576  0.8318
  834MOL0     H12525   9.001  10.702   0.977  0.4220 -0.9195  1.2171
  834MOL0     H12526   9.117  10.630   0.859 -0.2888 -0.2079  2.2388
  834MOL0     H12527   9.214  10.825   0.943  2.0045  1.1599 -2.4699
  834MOL0     H12528   9.161  10.882   0.791  3.2635 -0.7795  0.1004
  834MOL0     H12529   8.958  10.976   0.910  2.0768  2.1266 -3.1837
  834MOL0     H12530   9.035  10.939   1.059 -0.9461 -0.2024 -0.2791
  834MOL0     H12531   9.220  11.093   1.004 -1.4702 -1.2415  2.5124
  834MOL0     H12532   9.161  11.112   0.844  1.8570 -1.1152 -0.4642
  834MOL0     H12533   9.112  11.314   0.983  0.2323  0.7243  0.5950
  834MOL0     H12534   8.974  11.242   0.925  0.1651  2.4377  0.0141
  834MOL0     H12535   8.932  11.147   1.155 -1.0412 -0.0672  1.3830
  834MOL0     H12536   9.099  11.211   1.206  0.6765  3.2102 -0.4457
  834MOL0     H12537   9.029  11.440   1.163  0.1945 -1.2221 -1.0621
  834MOL0     H12538   8.879  11.385   1.095 -0.5628  0.2273  0.7792
  834MOL0     H12539   8.932  11.347   1.377 -0.8416  0.0269  1.2225
  834MOL0     H12540   8.815  11.261   1.297  0.7771 -0.6534 -1.4224
  834MOL0     H12541   8.601  11.415   1.183 -0.2321 -0.2958  0.9345
  834MOL0     H12542   8.538  11.794   1.276 -2.3594  0.2842 -1.6675
  834MOL0     H12543   8.454  11.670   1.184  0.0750  2.1845 -0.2363
  834MOL0     H12544   8.457  11.646   1.494 -1.7625  2.0649  1.6674
  834MOL0     H12545   8.364  11.554   1.381 -0.2196  0.8601 -1.9917
  834MOL0     H12546   8.342  11.862   1.415  3.4297 -1.5879  0.8295
  834MOL0     H12547   8.236  11.753   1.499 -1.1095 -1.0319 -0.4749
  834MOL0     H12548   8.130  11.844   1.303  0.5714 -0.5504  0.7675
  834MOL0     H12549   8.172  11.678   1.260 -0.0207 -0.7022  2.5864
  834MOL0     H12550   8.455  12.016   1.279 -0.1294 -0.1992  0.1460
  834MOL0     H12551   8.514  12.342   1.174  2.9954  0.6231  0.0622
  834MOL0     H12552   8.490  12.333   1.350 -0.8649  3.1867 -1.2269
  834MOL0     H12553   8.562  12.195   1.257 -4.8115 -2.7493 -0.0975
  834MOL0     H12554   8.197  12.659   0.867 -2.1167  1.7960 -2.1623
  834MOL0     H12555   8.069  12.864   0.888 -4.5242 -0.1191 -0.7457
  834MOL0     H12556   7.759  12.932   1.184  0.1787  0.8841  0.5289
  834MOL0     H12557   7.927  12.981   1.200  0.3912 -1.1095  0.6700
  834MOL0     H12558   7.802  13.164   1.179  5.0727  2.9259 -0.2114
  834MOL0     H12559   7.881  13.163   1.017 -1.4088  0.1455 -1.6010
  834MOL0     H12560   7.616  13.218   1.029 -4.0181 -1.9555 -1.3499
  834MOL0     H12561   7.606  13.045   1.033  0.6026  0.2571  0.8399
  834MOL0     H12562   7.767  13.191   0.818 -0.6505 -0.0524 -3.5872
  834MOL0     H12563   7.759  13.018   0.845  1.4912  0.6481  1.0566
  834MOL0     H12564   7.538  13.214   0.782  0.7922  0.1251 -1.3881
  834MOL0     H12565   7.509  13.046   0.798 -1.2414  0.9779  0.2005
  834MOL0     H12566   7.710  13.140   0.591 -0.3488  0.1212  0.7046
  834MOL0     H12567   7.629  12.983   0.584 -2.3749 -0.7804 -1.3110
  834MOL0     H12568   7.517  13.270   0.517 -1.9979  0.0802 -3.3776
  834MOL0     H12569   7.409  13.140   0.550  0.2725 -1.5107 -0.3799
  834MOL0     H12570   7.638  13.102   0.347 -1.6363  0.1492 -1.1756
  834MOL0     H12571   7.478  13.171   0.304  0.0073  0.1005 -0.3142
  834MOL0     H12572   7.847  12.713   1.197  0.8267  2.8665 -0.7497
  834MOL0     H12573   7.955  12.501   1.199  0.6791 -1.6738 -1.5355
  834MOL0     H12574   8.053  12.229   1.068 -0.0964  0.5675  1.0971
  834MOL0     H12575   8.072  11.971   1.098  1.2079 -1.6033 -0.5131
  834MOL0     H12576   8.946  10.651   0.498  1.7786 -1.7368 -0.6296
  834MOL0     H12577   8.816  10.465   0.418 -1.2220  2.7071  0.2508
  834MOL0     H12578   8.885   9.949   0.352 -0.8683 -1.0167 -1.6191
  834MOL0     H12579   8.771   9.741   0.319  0.7058  2.2358 -1.4767
  834MOL0     H12580   8.415   9.613   0.571 -0.7903  0.3295  3.7973
  834MOL0     H12581   8.507   9.482   0.524 -2.6974 -0.6129  2.4563
  834MOL0     H12582   8.623   9.684   0.732  0.6869  0.3716 -1.0678
  834MOL0     H12583   8.675   9.528   0.686 -0.3283 -2.3012  2.9041
  834MOL0     H12584   8.446   9.438   0.756 -0.5095  0.8774 -1.5222
  834MOL0     H12585   8.418   9.596   0.834 -0.2975 -1.3818 -1.1975
  834MOL0     H12586   8.679   9.536   0.928  0.4299  0.9246 -0.8681
  834MOL0     H12587   8.618   9.367   0.893  0.4413  0.5644 -0.6986
  834MOL0     H12588   8.388   9.435   1.220  2.2899 -0.9312  1.0032
  834MOL0     H12589   8.467   9.839   0.604  0.0656 -3.0763 -0.6956
  834MOL0     H12590   8.570  10.079   0.617 -0.9835 -0.3531 -1.6411
  835MOL0     O12591   8.476   2.432  11.125  0.7675  0.8950  0.0058
  835MOL0     C12592   8.533   2.400  11.234  0.2591 -0.3596 -0.1026
  835MOL0     O12593   8.651   2.340  11.243  0.4613 -0.4052 -0.0416
  835MOL0     C12594   8.703   2.283  11.134  0.2556  0.1181 -0.1482
  835MOL0     C12595   8.824   2.329  11.079 -0.0816 -0.5025 -0.3267
  835MOL0     C12596   8.885   2.270  10.969  0.5571 -1.0663  0.1133
  835MOL0     C12597   8.825   2.164  10.910  0.2665  1.2123  0.2259
  835MOL0     O12598   8.871   2.094  10.802 -0.1828 -0.2167 -0.3377
  835MOL0     C12599   9.012   2.092  10.770 -0.1785 -1.1157 -0.6857
  835MOL0     C12600   9.052   1.989  10.669 -0.6047  0.7920  0.1913
  835MOL0     C12601   9.020   1.846  10.716 -0.0234 -0.1670 -0.1798
  835MOL0     C12602   9.133   1.784  10.802  0.5212 -0.6132  0.3873
  835MOL0     C12603   9.115   1.635  10.852  0.3241 -0.0424 -0.2572
  835MOL0     C12604   9.208   1.600  10.964 -0.4397 -0.1596  0.3922
  835MOL0     C12605   9.255   1.444  10.965  0.5914 -0.7420  0.4586
  835MOL0     C12606   9.143   1.357  11.011  0.0978  0.3690 -0.2543
  835MOL0     N12607   9.179   1.217  11.005  0.7886  0.0581 -0.1457
  835MOL0     C12608   9.175   1.140  10.890  0.3287  0.5684  0.2181
  835MOL0     C12609   9.210   1.021  10.940 -0.0484 -0.1171  0.9293
  835MOL0     C12610   9.222   0.887  10.865  0.5397 -0.3640 -1.0277
  835MOL0     C12611   9.185   0.891  10.715 -0.5126  0.5313  0.5643
  835MOL0     C12612   9.197   0.759  10.643 -0.2186  0.3347 -0.0921
  835MOL0     C12613   9.160   0.764  10.490  0.2868 -0.6100 -0.4981
  835MOL0     O12614   9.171   0.627  10.469 -0.0722 -0.3903  0.4363
  835MOL0     C12615   9.139   0.588  10.336 -0.6099  1.4132 -0.7538
  835MOL0     C12616   9.050   0.654  10.250 -1.0352 -0.3910  0.0080
  835MOL0     C12617   9.032   0.624  10.116 -0.5082  0.3157 -0.8485
  835MOL0     C12618   8.924   0.692  10.046 -0.5509 -1.1762 -0.3391
  835MOL0     C12619   9.104   0.503  10.078  0.5834  0.4798  0.3064
  835MOL0     C12620   9.084   0.426   9.958  0.5069 -0.4337 -0.2645
  835MOL0     O12621   8.984   0.473   9.875  0.3865  0.2461  1.3354
  835MOL0     C12622   8.921   0.389   9.786  0.5785 -0.3878 -0.1994
  835MOL0     C12623   8.815   0.313   9.827 -0.3105 -0.6066 -0.4704
  835MOL0     C12624   8.765   0.209   9.744 -0.4341 -0.3652  0.2092
  835MOL0     C12625   8.827   0.186   9.613 -0.9566 -0.1767  0.5245
  835MOL0     O12626   8.797   0.082   9.530  0.0632 -0.6164  0.5898
  835MOL0     C12627   8.686   0.003   9.570 -0.0646 -0.1042 -0.3946
  835MOL0     C12628   8.690  -0.128   9.489  0.2646 -1.3979  0.0387
  835MOL0     C12629   8.616  -0.114   9.353 -0.1546 -0.3734 -1.2875
  835MOL0     C12630   8.596  -0.240   9.271 -0.2126 -0.2045 -0.6768
  835MOL0     C12631   8.541  -0.194   9.139 -0.9657 -0.6644 -0.0483
  835MOL0     C12632   8.393  -0.198   9.134 -0.4131 -0.8959 -0.0325
  835MOL0     C12633   8.331  -0.125   9.014 -0.0518  0.2166 -0.5562
  835MOL0     C12634   8.175  -0.133   9.005 -0.6923 -0.4798 -0.0328
  835MOL0    Cl12635   8.138  -0.081   8.831 -0.1397  0.0094 -0.2576
  835MOL0     C12636   8.933   0.263   9.575  0.3771 -0.5359  0.4378
  835MOL0     C12637   8.969   0.372   9.655  1.0839 -0.6367  0.3550
  835MOL0     O12638   9.138   0.320   9.934 -0.2742  0.0401 -0.4877
  835MOL0     C12639   9.196   0.435  10.166  0.4524 -0.0054  0.5208
  835MOL0     C12640   9.219   0.477  10.297 -0.0138  0.2816 -0.9429
  835MOL0     N12641   9.232   1.023  11.071  0.5156  0.0423 -0.2875
  835MOL0     N12642   9.207   1.137  11.116  1.6814  0.0135  0.4651
  835MOL0     C12643   8.700   2.125  10.962  0.0026  0.7146 -1.4084
  835MOL0     C12644   8.644   2.181  11.077  0.1981 -1.4790  0.8537
  835MOL0     C12645   8.456   2.428  11.352  0.5898 -0.2346 -1.2940
  835MOL0     C12646   8.313   2.443  11.347  0.5239  0.3898  1.1954
  835MOL0     C12647   8.248   2.497  11.455  0.5370 -0.7083 -0.1430
  835MOL0     C12648   8.315   2.539  11.572 -0.9987  0.9094  0.3739
  835MOL0     O12649   8.251   2.596  11.683  0.3511  0.1598  0.0105
  835MOL0     C12650   8.120   2.649  11.663 -0.2130 -0.6249  0.0820
  835MOL0     C12651   8.087   2.750  11.771  0.0537  0.1374 -0.1932
  835MOL0     C12652   8.116   2.713  11.916  0.0900 -0.4834  0.2957
  835MOL0     C12653   8.033   2.602  11.973 -0.3570  0.3167 -1.0074
  835MOL0     C12654   7.890   2.605  11.941 -0.6925  0.9602  0.3279
  835MOL0     C12655   7.768   2.611  11.940  0.3335 -0.0722 -0.2236
  835MOL0     C12656   8.450   2.510  11.580  0.2996 -0.3651 -0.2405
  835MOL0     C12657   8.520   2.450  11.478  0.3203 -0.4661  0.8920
  835MOL0     H12658   8.874   2.418  11.116  0.3934 -1.0403  0.3394
  835MOL0     H12659   8.988   2.301  10.957  0.2712 -0.7122 -1.9067
  835MOL0     H12660   9.037   2.197  10.748 -2.2178  0.6222  3.9642
  835MOL0     H12661   9.069   2.075  10.861 -0.4184  0.0557 -0.2938
  835MOL0     H12662   8.988   2.004  10.581 -3.3145  2.1831  2.2291
  835MOL0     H12663   9.156   1.995  10.637 -0.6691 -5.5644 -2.6347
  835MOL0     H12664   8.925   1.843  10.769  0.1983 -1.6265  0.1756
  835MOL0     H12665   9.005   1.784  10.628  2.0604 -1.4584  0.2932
  835MOL0     H12666   9.225   1.795  10.743 -0.4842  1.1203 -0.9194
  835MOL0     H12667   9.130   1.853  10.886 -0.5591  0.0542 -0.1910
  835MOL0     H12668   9.012   1.626  10.885  0.6208 -1.2002  0.4142
  835MOL0     H12669   9.125   1.565  10.769  2.2102  1.8409 -1.7376
  835MOL0     H12670   9.291   1.669  10.944 -1.3517  1.0486  0.6201
  835MOL0     H12671   9.152   1.625  11.055  1.1432 -1.5651  1.8090
  835MOL0     H12672   9.278   1.418  10.861 -2.0787  1.3369 -0.7777
  835MOL0     H12673   9.339   1.428  11.032  1.8008  0.5483 -0.6749
  835MOL0     H12674   9.053   1.373  10.951 -0.5412 -0.9728  0.3061
  835MOL0     H12675   9.102   1.391  11.107 -0.2234  2.0674 -0.9565
  835MOL0     H12676   9.143   1.162  10.788  3.3383  0.0987 -0.9384
  835MOL0     H12677   9.325   0.856  10.884 -0.6495 -1.8424  4.8909
  835MOL0     H12678   9.162   0.815  10.920  3.2969 -0.5401  2.0384
  835MOL0     H12679   9.240   0.968  10.659  0.1985 -0.9473 -0.8927
  835MOL0     H12680   9.079   0.914  10.707 -0.8208 -0.1571  2.3077
  835MOL0     H12681   9.131   0.683  10.686 -0.9609  0.3096 -1.2355
  835MOL0     H12682   9.298   0.720  10.661 -0.9591 -0.6970  2.1473
  835MOL0     H12683   9.220   0.830  10.428 -1.9471 -1.2836 -3.6103
  835MOL0     H12684   9.057   0.801  10.479  0.8802  2.4366  2.4593
  835MOL0     H12685   8.991   0.732  10.298  0.0269 -0.5913  1.7296
  835MOL0     H12686   8.964   0.714   9.946 -4.2301 -1.2219 -1.9602
  835MOL0     H12687   8.833   0.632  10.041 -0.9016 -0.7612  0.7938
  835MOL0     H12688   8.903   0.784  10.101  1.8453 -1.6735  1.5908
  835MOL0     H12689   8.781   0.332   9.928  0.3871 -1.0482 -0.1449
  835MOL0     H12690   8.692   0.142   9.789  0.4249 -2.5093 -1.4058
  835MOL0     H12691   8.704  -0.042   9.668  0.9174 -3.2511 -1.8861
  835MOL0     H12692   8.591   0.057   9.564  0.4096  0.6811 -0.9227
  835MOL0     H12693   8.796  -0.142   9.468  1.4008  2.9621  1.7232
  835MOL0     H12694   8.647  -0.209   9.549 -0.5443 -0.7171  0.3911
  835MOL0     H12695   8.672  -0.045   9.289  3.0981 -1.8786 -0.2900
  835MOL0     H12696   8.510  -0.088   9.359 -0.9365 -3.0606 -1.8317
  835MOL0     H12697   8.699  -0.276   9.270 -0.2809 -0.3818 -1.7780
  835MOL0     H12698   8.538  -0.319   9.320  1.4887 -0.5222  0.9365
  835MOL0     H12699   8.590  -0.248   9.057  1.1857 -0.4320  0.9998
  835MOL0     H12700   8.563  -0.088   9.123 -4.0746 -0.3803 -4.3289
  835MOL0     H12701   8.361  -0.303   9.124 -0.2709 -0.7861 -2.1504
  835MOL0     H12702   8.352  -0.154   9.225  2.7676  2.1231  0.1442
  835MOL0     H12703   8.369  -0.148   8.914 -1.1575  6.1499 -2.7159
  835MOL0     H12704   8.368  -0.023   9.013  1.1957 -0.2201 -0.4358
  835MOL0     H12705   8.120  -0.073   9.078 -0.5277  1.2823 -1.3009
  835MOL0     H12706   8.140  -0.236   9.012  3.6753 -2.1439  0.5308
  835MOL0     H12707   8.990   0.252   9.484  3.9837  3.7349  1.8186
  835MOL0     H12708   9.046   0.434   9.612 -0.4255 -0.1021 -1.7852
  835MOL0     H12709   9.256   0.349  10.139  0.7278  0.8300 -1.7086
  835MOL0     H12710   9.281   0.437  10.376 -1.9382  0.5279  0.7659
  835MOL0     H12711   8.651   2.042  10.912  0.3637  0.3988 -1.2422
  835MOL0     H12712   8.544   2.150  11.104 -0.9532  0.1712 -1.1761
  835MOL0     H12713   8.262   2.402  11.260 -0.9710  2.3753  1.0779
  835MOL0     H12714   8.141   2.515  11.449  0.9057  1.5797 -1.1558
  835MOL0     H12715   8.114   2.704  11.570  4.1381  1.0913  0.5713
  835MOL0     H12716   8.042   2.572  11.656 -1.4668  0.5886  0.2020
  835MOL0     H12717   7.988   2.797  11.764  0.6957  1.5734  0.0207
  835MOL0     H12718   8.159   2.831  11.755  1.4516 -1.4124 -2.3435
  835MOL0     H12719   8.077   2.804  11.962 -4.7856 -2.4294  0.6167
  835MOL0     H12720   8.222   2.686  11.921  1.3441  3.0284 -2.7109
  835MOL0     H12721   8.034   2.602  12.082  4.1591  1.2038 -0.8405
  835MOL0     H12722   8.076   2.505  11.946  0.8998  0.1994  1.2660
  835MOL0     H12723   7.665   2.597  11.966  0.8727 -2.8126  0.7536
  835MOL0     H12724   8.503   2.526  11.673 -0.7524 -2.2544  0.7456
  835MOL0     H12725   8.628   2.441  11.483  0.4931  1.4947  1.3965
  836MOL0     O12726   0.300  10.100   1.940 -0.4376 -0.4284  0.1604
  836MOL0     C12727   0.296  10.216   1.894  0.7974 -0.4491 -0.5689
  836MOL0     O12728   0.402  10.303   1.885  0.2845  0.5315 -0.0232
  836MOL0     C12729   0.530  10.265   1.911 -0.1767 -0.1084 -0.4578
  836MOL0     C12730   0.589  10.149   1.960 -0.0059 -0.4864 -0.0779
  836MOL0     C12731   0.727  10.144   1.990 -0.5814 -0.1880  0.1687
  836MOL0     C12732   0.803  10.263   1.964 -0.0881 -0.3363  0.2360
  836MOL0     O12733   0.944  10.249   1.982  0.3921 -0.2593 -0.5970
  836MOL0     C12734   0.994  10.344   2.074  0.5653  0.5401 -0.4211
  836MOL0     C12735   1.073  10.439   1.981 -0.6084 -1.0643  0.0071
  836MOL0     C12736   1.113  10.570   2.041 -0.0625 -0.1504 -0.1671
  836MOL0     C12737   1.155  10.565   2.186 -0.0186  0.5550 -0.6835
  836MOL0     C12738   1.227  10.699   2.232 -0.0332  0.9218  0.0284
  836MOL0     C12739   1.141  10.807   2.268  0.0071 -0.8807 -0.7347
  836MOL0     C12740   1.223  10.926   2.322 -1.1678 -0.7525 -0.3409
  836MOL0     C12741   1.142  11.001   2.436 -0.1329  0.1612 -0.4202
  836MOL0     N12742   1.016  11.061   2.380  0.3620  0.0090  0.5360
  836MOL0     C12743   1.001  11.162   2.290  0.7533  1.0651  0.5843
  836MOL0     C12744   0.866  11.182   2.273 -0.6349 -0.0054 -0.6841
  836MOL0     C12745   0.787  11.279   2.183  0.1351 -0.6740  0.7044
  836MOL0     C12746   0.676  11.202   2.114 -0.3791 -0.5154  0.1739
  836MOL0     C12747   0.632  11.254   1.975 -0.1297  0.1810 -0.5269
  836MOL0     C12748   0.572  11.397   1.989  0.3693  0.2582 -0.8591
  836MOL0     O12749   0.537  11.423   1.851  0.1735 -0.1041 -1.2472
  836MOL0     C12750   0.408  11.379   1.820 -0.1114 -1.1310  0.0689
  836MOL0     C12751   0.368  11.429   1.699 -0.6362  0.4618 -0.0907
  836MOL0     C12752   0.246  11.390   1.638 -0.2292  0.0605 -0.1445
  836MOL0     C12753   0.213  11.460   1.504 -0.3279  0.0110 -0.3948
  836MOL0     C12754   0.168  11.296   1.711 -0.1484 -0.4147 -0.2162
  836MOL0     C12755   0.023  11.272   1.674 -0.1411 -0.3210  0.0436
  836MOL0     O12756   0.007  11.243   1.546 -0.2583  0.1768  0.3118
  836MOL0     C12757  -0.100  11.199   1.491 -1.0078  0.4400  0.4321
  836MOL0     C12758  -0.182  11.104   1.547  0.2691  0.3530  0.7328
  836MOL0     C12759  -0.302  11.066   1.481 -0.0101  0.3454  0.1789
  836MOL0     C12760  -0.334  11.113   1.353 -0.1163  0.2571 -0.4956
  836MOL0     O12761  -0.436  11.072   1.273 -0.5019  0.2281  0.0994
  836MOL0     C12762  -0.515  10.964   1.335 -0.0834 -0.4205  1.4425
  836MOL0     C12763  -0.654  10.957   1.257 -1.3461 -0.5964 -0.2495
  836MOL0     C12764  -0.660  10.908   1.109 -0.3993 -0.1612 -0.8705
  836MOL0     C12765  -0.748  10.790   1.088  0.0998  0.1380  0.3699
  836MOL0     C12766  -0.763  10.767   0.936  0.3850  1.0003 -0.1353
  836MOL0     C12767  -0.851  10.644   0.910  0.0607 -0.4314  0.0291
  836MOL0     C12768  -0.872  10.626   0.767 -0.2685  0.6006 -0.3013
  836MOL0     C12769  -0.983  10.524   0.729  0.5732 -0.2477 -0.1937
  836MOL0    Cl12770  -0.965  10.491   0.551 -0.2206  0.1399  0.1242
  836MOL0     C12771  -0.251  11.204   1.297 -0.6056 -0.3211 -0.2459
  836MOL0     C12772  -0.130  11.242   1.360 -0.2156  0.1600 -0.3677
  836MOL0     O12773  -0.064  11.273   1.758  0.1416  0.1418  1.0174
  836MOL0     C12774   0.206  11.245   1.841 -0.0203 -0.3418 -0.5231
  836MOL0     C12775   0.323  11.296   1.893 -0.5405  0.5341  0.1413
  836MOL0     N12776   0.797  11.092   2.361 -0.1987 -0.8337 -0.0783
  836MOL0     N12777   0.894  11.029   2.433  1.0601  0.4267  0.8024
  836MOL0     C12778   0.748  10.377   1.905  0.3751  0.5923  0.4311
  836MOL0     C12779   0.615  10.370   1.876  0.6355  0.1401 -0.6018
  836MOL0     C12780   0.165  10.255   1.836 -0.0978  0.2219 -0.3229
  836MOL0     C12781   0.093  10.160   1.763 -0.1130  0.1727 -0.0441
  836MOL0     C12782  -0.037  10.193   1.721 -0.3924  0.6507  1.3356
  836MOL0     C12783  -0.099  10.316   1.740 -0.8803 -0.0840 -0.0101
  836MOL0     O12784  -0.215  10.362   1.683  0.1009  0.2068  0.3719
  836MOL0     C12785  -0.342  10.323   1.738  0.0428 -0.5403  0.3443
  836MOL0     C12786  -0.458  10.422   1.697  0.3685  0.4496  0.9528
  836MOL0     C12787  -0.493  10.409   1.554 -0.5847 -0.7671 -0.0249
  836MOL0     C12788  -0.395  10.483   1.460  0.3699  0.1522 -0.4509
  836MOL0     C12789  -0.389  10.409   1.339 -0.3120  0.3464 -0.0204
  836MOL0     C12790  -0.374  10.356   1.229  0.8033  0.3354 -1.2364
  836MOL0     C12791  -0.016  10.418   1.801 -0.4116 -0.0092 -0.0253
  836MOL0     C12792   0.114  10.389   1.841  1.0499  0.0173 -0.2092
  836MOL0     H12793   0.525  10.064   1.984  1.6852 -1.5777  0.7251
  836MOL0     H12794   0.773  10.057   2.033  3.0246 -1.5240 -5.3826
  836MOL0     H12795   0.916  10.391   2.134  0.6793 -0.0283  0.1807
  836MOL0     H12796   1.048  10.281   2.145 -1.1186  0.4099  0.8040
  836MOL0     H12797   1.173  10.401   1.960 -1.2262 -1.6305 -2.1855
  836MOL0     H12798   1.018  10.461   1.889 -1.6728  1.5574  1.1794
  836MOL0     H12799   1.200  10.600   1.981  1.0403 -4.0055 -0.8178
  836MOL0     H12800   1.033  10.643   2.026  1.1038  0.8065 -2.1662
  836MOL0     H12801   1.078  10.538   2.258  1.6641 -0.8588  0.6738
  836MOL0     H12802   1.231  10.489   2.204  0.2111  1.0005  0.2708
  836MOL0     H12803   1.274  10.673   2.328 -1.3592  0.9613  0.7048
  836MOL0     H12804   1.305  10.731   2.163  2.4010 -4.8762 -0.5230
  836MOL0     H12805   1.079  10.847   2.187  0.2206 -1.0107 -0.9635
  836MOL0     H12806   1.067  10.780   2.343 -0.3935 -1.0001 -1.1716
  836MOL0     H12807   1.318  10.889   2.361 -2.1460 -0.3272  2.7854
  836MOL0     H12808   1.253  10.994   2.242  0.0352 -2.3303 -1.2959
  836MOL0     H12809   1.199  11.078   2.489 -1.1436  1.2158 -0.8053
  836MOL0     H12810   1.120  10.921   2.507 -1.1972 -2.0508 -3.0622
  836MOL0     H12811   1.077  11.224   2.243  0.2530  2.7113  1.8359
  836MOL0     H12812   0.736  11.351   2.247 -1.6143 -2.8987  1.9681
  836MOL0     H12813   0.854  11.337   2.119 -0.6436  1.5883  1.8605
  836MOL0     H12814   0.587  11.190   2.177 -1.6802  2.1140 -0.9928
  836MOL0     H12815   0.715  11.102   2.094 -0.0108 -1.1212  3.3652
  836MOL0     H12816   0.558  11.186   1.931  0.0889 -0.1434 -0.3978
  836MOL0     H12817   0.718  11.254   1.907  0.1809 -1.7123 -0.1922
  836MOL0     H12818   0.649  11.469   2.017  1.6584 -1.9144  1.6400
  836MOL0     H12819   0.488  11.410   2.058  2.2923 -1.0814  1.9362
  836MOL0     H12820   0.427  11.511   1.660 -2.9474  1.0314 -2.7071
  836MOL0     H12821   0.285  11.541   1.493  2.5146 -2.2023  0.6269
  836MOL0     H12822   0.224  11.392   1.418 -0.3751  2.3977 -2.4101
  836MOL0     H12823   0.111  11.501   1.502 -0.0276  0.7609 -0.5418
  836MOL0     H12824  -0.162  11.079   1.651  2.9880  1.7978  0.6494
  836MOL0     H12825  -0.371  11.010   1.543  1.1690  0.6064  1.7829
  836MOL0     H12826  -0.451  10.875   1.332  1.9192  0.8897 -2.5137
  836MOL0     H12827  -0.558  10.985   1.433 -2.1210  0.8121  0.3710
  836MOL0     H12828  -0.723  10.893   1.314 -0.0552 -2.3105 -0.5491
  836MOL0     H12829  -0.690  11.060   1.245 -0.5081 -0.0768  1.2937
  836MOL0     H12830  -0.555  10.888   1.087  0.8728  1.6737  2.8056
  836MOL0     H12831  -0.706  10.989   1.052  1.8483  3.0174  1.5149
  836MOL0     H12832  -0.701  10.703   1.135 -0.7714 -0.5396  0.0037
  836MOL0     H12833  -0.847  10.810   1.128 -0.0863  0.7181 -0.3647
  836MOL0     H12834  -0.659  10.764   0.901 -0.0064 -0.4965 -1.3112
  836MOL0     H12835  -0.808  10.851   0.882  0.7585  1.1117 -0.2739
  836MOL0     H12836  -0.807  10.565   0.971 -0.7041 -0.9470 -0.0703
  836MOL0     H12837  -0.947  10.662   0.960  0.3062  0.2808  0.2638
  836MOL0     H12838  -0.785  10.612   0.703  1.0846  2.5156  1.0252
  836MOL0     H12839  -0.909  10.727   0.746  3.5410  2.2571  0.1199
  836MOL0     H12840  -1.079  10.574   0.745  0.4211 -0.5303 -0.2329
  836MOL0     H12841  -0.993  10.434   0.790 -2.6741 -0.4454 -0.8543
  836MOL0     H12842  -0.277  11.233   1.195 -2.8185  0.1267  0.3844
  836MOL0     H12843  -0.062  11.316   1.319  0.9883 -0.3947  0.5454
  836MOL0     H12844   0.166  11.157   1.890  2.2664 -0.9984  0.3252
  836MOL0     H12845   0.353  11.261   1.992  2.7385  0.5752 -0.7280
  836MOL0     H12846   0.815  10.460   1.885  1.1718 -0.1416 -0.0666
  836MOL0     H12847   0.580  10.468   1.847  2.4947  0.7943 -0.6952
  836MOL0     H12848   0.129  10.058   1.751  1.6473  0.9038 -1.2800
  836MOL0     H12849  -0.095  10.118   1.668 -0.9427  0.1787  2.5652
  836MOL0     H12850  -0.362  10.220   1.706 -0.9506  0.2328 -1.7411
  836MOL0     H12851  -0.332  10.317   1.847 -1.3856 -0.7437  0.4873
  836MOL0     H12852  -0.427  10.525   1.717  3.3426 -0.5529  2.0476
  836MOL0     H12853  -0.545  10.403   1.761 -0.7247  2.1067  0.0506
  836MOL0     H12854  -0.591  10.457   1.546 -0.8581 -0.8729  2.0913
  836MOL0     H12855  -0.506  10.307   1.516 -1.1351 -0.3278 -1.0853
  836MOL0     H12856  -0.292  10.490   1.497  2.2997  3.1003 -5.3053
  836MOL0     H12857  -0.430  10.583   1.434  0.8419  0.4598  0.0673
  836MOL0     H12858  -0.349  10.303   1.138 -0.4223 -2.1081 -0.2461
  836MOL0     H12859  -0.057  10.518   1.799 -4.5274 -1.5336 -0.6819
  836MOL0     H12860   0.169  10.468   1.891  0.6169  1.0267 -1.2839
  837MOL0     O12861   9.404   7.425   9.119  0.1104  0.2301 -0.8642
  837MOL0     C12862   9.380   7.330   9.046 -0.4854  0.8913  0.2612
  837MOL0     O12863   9.357   7.203   9.097 -0.4707  0.3477  0.5420
  837MOL0     C12864   9.356   7.167   9.227 -0.0318 -0.3517  0.1035
  837MOL0     C12865   9.395   7.036   9.247  0.8890  0.4916  0.3482
  837MOL0     C12866   9.404   6.985   9.375  0.3083  1.0194  0.8229
  837MOL0     C12867   9.376   7.064   9.481 -0.0462 -0.1646 -0.0045
  837MOL0     O12868   9.393   7.003   9.602 -0.2683 -1.0301  0.8082
  837MOL0     C12869   9.393   7.086   9.719 -1.1460  1.3110 -0.4761
  837MOL0     C12870   9.466   7.002   9.827  0.3885  0.1969  0.0993
  837MOL0     C12871   9.618   7.013   9.838 -0.3752 -0.2253  0.4167
  837MOL0     C12872   9.682   6.904   9.926  0.3736  0.3783 -0.3908
  837MOL0     C12873   9.825   6.937   9.943  0.5772 -1.1735  0.4956
  837MOL0     C12874   9.910   6.825  10.022  0.8609  0.3872 -0.1370
  837MOL0     C12875  10.056   6.842  10.025  0.3894  0.3322 -0.2744
  837MOL0     C12876  10.122   6.752  10.130 -0.5991 -0.2137  0.4984
  837MOL0     N12877  10.266   6.780  10.123 -0.3291  0.2107 -1.0826
  837MOL0     C12878  10.350   6.738  10.033  1.2147 -0.4677  0.9729
  837MOL0     C12879  10.462   6.825  10.042  0.6544 -0.9306 -0.3618
  837MOL0     C12880  10.574   6.834   9.950 -0.7368 -0.2186 -0.2323
  837MOL0     C12881  10.552   6.960   9.864  0.1679 -0.3488  0.0468
  837MOL0     C12882  10.437   6.956   9.772 -0.8641  1.4472  0.0993
  837MOL0     C12883  10.402   7.097   9.746 -0.0751  0.0722  0.0938
  837MOL0     O12884  10.263   7.083   9.708 -0.3042  0.2518 -0.6686
  837MOL0     C12885  10.184   7.195   9.700 -0.1345 -0.3609  0.4312
  837MOL0     C12886  10.110   7.245   9.807 -0.3691 -0.2644  0.1126
  837MOL0     C12887  10.030   7.362   9.781 -0.5047  0.2582  0.0985
  837MOL0     C12888   9.923   7.397   9.879 -0.3961  0.3747  0.2831
  837MOL0     C12889  10.055   7.437   9.656 -0.1746  0.7196  0.1193
  837MOL0     C12890  10.010   7.576   9.623 -0.5129  0.3246 -0.7447
  837MOL0     O12891  10.094   7.656   9.552 -0.0478  0.5826 -0.0297
  837MOL0     C12892  10.042   7.782   9.518  0.2620  1.0252  0.2501
  837MOL0     C12893  10.061   7.890   9.608 -0.8833  0.7955 -0.5528
  837MOL0     C12894  10.025   8.022   9.567 -0.3181 -0.3200  0.6460
  837MOL0     C12895   9.968   8.046   9.434  0.2839 -0.2620 -0.4450
  837MOL0     O12896   9.923   8.168   9.388  0.3021 -0.6778 -0.1665
  837MOL0     C12897  10.023   8.254   9.338 -0.7433  0.6213 -0.5015
  837MOL0     C12898   9.958   8.378   9.289 -0.0343  0.2295  0.0808
  837MOL0     C12899   9.866   8.449   9.397  0.2948 -0.2757  0.3352
  837MOL0     C12900   9.861   8.600   9.360  0.9695 -0.1559 -0.8544
  837MOL0     C12901   9.763   8.676   9.446  0.8307 -0.5121 -0.4827
  837MOL0     C12902   9.755   8.633   9.593 -1.0340  0.2545  1.1918
  837MOL0     C12903   9.692   8.736   9.680 -0.2709 -0.2786  0.8419
  837MOL0     C12904   9.545   8.773   9.641 -0.1482 -0.1870  0.2857
  837MOL0    Cl12905   9.494   8.858   9.778 -0.0509 -0.9309 -0.3669
  837MOL0     C12906   9.966   7.938   9.344  0.8167 -0.1783 -0.4259
  837MOL0     C12907  10.008   7.805   9.385  0.3930 -0.6945  0.3486
  837MOL0     O12908   9.907   7.611   9.678  0.9647 -0.0469 -0.1313
  837MOL0     C12909  10.127   7.378   9.554 -0.0851  0.4096  0.1255
  837MOL0     C12910  10.182   7.247   9.575  0.1440 -0.1440  0.0851
  837MOL0     N12911  10.438   6.898  10.155 -0.9014 -0.0948  0.5668
  837MOL0     N12912  10.325   6.881  10.198 -0.2245  0.2094 -0.1388
  837MOL0     C12913   9.330   7.194   9.463  0.3841  0.3474  0.7971
  837MOL0     C12914   9.332   7.245   9.336  0.0699 -0.2891  1.0116
  837MOL0     C12915   9.360   7.347   8.900  0.0775  0.0148 -0.1874
  837MOL0     C12916   9.388   7.479   8.857  0.4716  0.6543  0.4944
  837MOL0     C12917   9.379   7.507   8.717  0.2239  0.5241  0.7721
  837MOL0     C12918   9.336   7.406   8.626  0.7293  1.0088 -0.8396
  837MOL0     O12919   9.330   7.418   8.488  0.0903  0.4079 -0.0665
  837MOL0     C12920   9.394   7.534   8.427 -0.5195  0.7915  0.5044
  837MOL0     C12921   9.549   7.526   8.420  0.6509 -0.9863 -0.0049
  837MOL0     C12922   9.583   7.401   8.335 -0.5624  0.2652 -0.0489
  837MOL0     C12923   9.734   7.395   8.323 -0.6254  0.4533  0.2577
  837MOL0     C12924   9.796   7.498   8.230  1.0092  0.8913  0.7266
  837MOL0     C12925   9.827   7.597   8.171  0.4769 -0.3264  0.5902
  837MOL0     C12926   9.298   7.282   8.677  0.5493  0.0711  0.5054
  837MOL0     C12927   9.299   7.256   8.809  0.0203  0.5071  0.0376
  837MOL0     H12928   9.408   6.970   9.161 -2.1692  1.0629 -0.6865
  837MOL0     H12929   9.438   6.882   9.379 -3.1280 -0.2756  0.4895
  837MOL0     H12930   9.448   7.180   9.708 -0.0647  0.9186  1.1984
  837MOL0     H12931   9.292   7.106   9.758 -0.6193 -0.9851  2.4280
  837MOL0     H12932   9.420   7.023   9.924  1.9167  2.4143  0.4179
  837MOL0     H12933   9.447   6.896   9.808  1.1972  0.2542 -1.1014
  837MOL0     H12934   9.670   7.014   9.742  0.6587  2.7821  0.9219
  837MOL0     H12935   9.642   7.114   9.870  0.8653  0.5221 -2.5147
  837MOL0     H12936   9.620   6.888  10.015  1.3220  0.7368  0.3536
  837MOL0     H12937   9.682   6.807   9.876 -0.3433  0.6848 -0.9902
  837MOL0     H12938   9.866   6.964   9.845 -2.1338 -2.0635 -1.0120
  837MOL0     H12939   9.824   7.035   9.990  4.6316  0.3807 -2.1499
  837MOL0     H12940   9.872   6.829  10.124  0.4767 -2.4865 -0.0785
  837MOL0     H12941   9.886   6.727   9.980  1.7483  0.6961 -1.4442
  837MOL0     H12942  10.093   6.830   9.923  0.9928  1.3214 -0.1869
  837MOL0     H12943  10.075   6.941  10.068 -0.0759 -0.2902  1.4303
  837MOL0     H12944  10.094   6.649  10.105  1.1387 -0.9061  1.2120
  837MOL0     H12945  10.093   6.778  10.232 -2.1938  2.5634 -0.5453
  837MOL0     H12946  10.344   6.659   9.958  1.3106  0.1169  0.3404
  837MOL0     H12947  10.670   6.855   9.997  1.2719  0.3100 -4.1670
  837MOL0     H12948  10.576   6.746   9.886  2.8617  1.0788 -2.1704
  837MOL0     H12949  10.643   6.970   9.804 -0.4639 -1.3225 -1.1341
  837MOL0     H12950  10.551   7.051   9.924 -1.3614 -0.8018  0.7506
  837MOL0     H12951  10.359   6.891   9.815  0.7286 -0.4741  0.2497
  837MOL0     H12952  10.467   6.897   9.685 -0.0729  1.5142  0.3225
  837MOL0     H12953  10.453   7.139   9.659  0.7762  1.2812  1.1493
  837MOL0     H12954  10.413   7.159   9.836  0.7391  0.9727 -0.6037
  837MOL0     H12955  10.092   7.173   9.886  0.9230 -0.9565 -0.1842
  837MOL0     H12956   9.955   7.477   9.945  2.2953 -0.5683  0.2548
  837MOL0     H12957   9.830   7.426   9.830 -2.2167 -1.3030  2.5176
  837MOL0     H12958   9.904   7.312   9.945 -1.3178  1.1423  1.0217
  837MOL0     H12959  10.111   7.863   9.700  0.5477 -0.8843 -1.7489
  837MOL0     H12960  10.035   8.100   9.641  1.0627 -1.0436  1.2622
  837MOL0     H12961  10.085   8.286   9.422 -0.7920  0.5975 -0.4564
  837MOL0     H12962  10.080   8.214   9.254 -0.9023  3.2842 -1.9877
  837MOL0     H12963  10.031   8.449   9.250 -0.3186  0.2442 -0.4239
  837MOL0     H12964   9.901   8.343   9.203 -4.4264 -1.9997  3.4837
  837MOL0     H12965   9.901   8.431   9.499  1.1788  2.6737  0.6357
  837MOL0     H12966   9.763   8.413   9.396 -0.1867  1.0044 -1.0571
  837MOL0     H12967   9.955   8.654   9.352  1.5300 -1.0321 -0.3467
  837MOL0     H12968   9.828   8.594   9.256  0.2277  0.5268 -0.6677
  837MOL0     H12969   9.664   8.656   9.402  2.2403 -3.8542 -2.5474
  837MOL0     H12970   9.806   8.776   9.437  2.1218 -0.9406  0.5626
  837MOL0     H12971   9.703   8.538   9.609 -3.0454  1.2624  0.9936
  837MOL0     H12972   9.860   8.621   9.621  0.1338 -0.8118 -2.9390
  837MOL0     H12973   9.762   8.821   9.678  1.1004 -1.3635  1.1365
  837MOL0     H12974   9.691   8.711   9.786 -2.5767 -2.9852  0.3113
  837MOL0     H12975   9.472   8.695   9.620 -1.1982  0.7480  0.4002
  837MOL0     H12976   9.559   8.830   9.549  2.1593 -1.4011 -0.1933
  837MOL0     H12977   9.922   7.962   9.247 -2.8095 -2.7431  0.3688
  837MOL0     H12978  10.007   7.723   9.314  0.4217 -1.2527  0.9857
  837MOL0     H12979  10.128   7.417   9.453  0.8940  0.1761  0.0365
  837MOL0     H12980  10.228   7.197   9.490 -3.5814 -2.7475 -0.6519
  837MOL0     H12981   9.305   7.258   9.546 -2.1036  0.2066  0.2117
  837MOL0     H12982   9.308   7.351   9.335 -0.0416 -0.2739  2.4549
  837MOL0     H12983   9.433   7.549   8.927  2.9296 -0.9141  0.6425
  837MOL0     H12984   9.411   7.597   8.664  1.4805 -0.7786 -0.7787
  837MOL0     H12985   9.362   7.534   8.323  2.7281 -4.4177 -0.8902
  837MOL0     H12986   9.390   7.632   8.475  3.9228  1.5769 -0.2587
  837MOL0     H12987   9.589   7.499   8.519 -1.5392 -2.7837  0.4765
  837MOL0     H12988   9.599   7.606   8.364 -1.9352 -0.7329 -2.1531
  837MOL0     H12989   9.548   7.418   8.232  4.7181  1.9151 -1.9363
  837MOL0     H12990   9.553   7.308   8.382  3.7838 -0.7805  1.1324
  837MOL0     H12991   9.768   7.293   8.302 -0.1734  0.3721  1.3067
  837MOL0     H12992   9.770   7.401   8.426  1.7049 -0.1504 -0.4437
  837MOL0     H12993   9.865   7.688   8.127 -0.1582 -1.5163 -2.6529
  837MOL0     H12994   9.265   7.207   8.606  0.9919 -1.2994  1.6980
  837MOL0     H12995   9.272   7.156   8.844 -0.9415  0.1331 -1.6509
  838MOL0     O12996   6.891   9.571   8.168 -0.0879  0.1723 -0.5511
  838MOL0     C12997   6.858   9.563   8.290  0.1766 -0.3421  0.4085
  838MOL0     O12998   6.739   9.550   8.335 -0.5917  0.1971 -0.5747
  838MOL0     C12999   6.630   9.548   8.258  0.4226 -0.6305 -1.5506
  838MOL0     C13000   6.618   9.458   8.149  0.3279  0.7606  0.0128
  838MOL0     C13001   6.493   9.449   8.082  0.3515 -1.1285 -0.2858
  838MOL0     C13002   6.377   9.512   8.130  0.7396 -0.3545 -0.6489
  838MOL0     O13003   6.242   9.499   8.084 -0.7762  0.0136 -0.3765
  838MOL0     C13004   6.223   9.419   7.970  0.6352  0.2752  0.3278
  838MOL0     C13005   6.076   9.410   7.927 -0.5134  0.0574  0.8734
  838MOL0     C13006   6.045   9.295   7.837 -0.0073 -0.6511 -0.5615
  838MOL0     C13007   5.893   9.266   7.843 -0.4602 -0.6934  0.6271
  838MOL0     C13008   5.854   9.140   7.772  0.0403 -0.2514  0.0108
  838MOL0     C13009   5.704   9.108   7.777  0.5867 -0.3864  0.6323
  838MOL0     C13010   5.660   8.993   7.683 -0.6755  0.4739  0.0420
  838MOL0     C13011   5.511   8.992   7.643  1.3050 -0.9395  0.4012
  838MOL0     N13012   5.431   8.932   7.752 -0.3987  0.0745  0.1550
  838MOL0     C13013   5.454   8.808   7.805  0.1731  0.5741 -0.1539
  838MOL0     C13014   5.383   8.814   7.921 -0.1710  0.5888  0.1444
  838MOL0     C13015   5.358   8.705   8.004  0.4311 -0.5824 -0.2130
  838MOL0     C13016   5.470   8.681   8.102 -0.3949 -0.4903 -0.5963
  838MOL0     C13017   5.449   8.562   8.201 -0.5410  0.9552 -1.0212
  838MOL0     C13018   5.345   8.600   8.305 -0.0584  0.8516  0.9308
  838MOL0     O13019   5.294   8.492   8.384  0.0785  0.8027 -0.1651
  838MOL0     C13020   5.241   8.378   8.319 -0.6867  0.0908 -0.6203
  838MOL0     C13021   5.168   8.370   8.202 -0.1079  0.0620  0.0315
  838MOL0     C13022   5.109   8.252   8.162 -0.0147  0.0883 -0.4488
  838MOL0     C13023   5.028   8.260   8.033 -0.5194  0.4627 -0.0143
  838MOL0     C13024   5.125   8.136   8.245  0.4040  1.4907 -0.0461
  838MOL0     C13025   5.067   8.012   8.196 -0.1663 -0.3017  1.1361
  838MOL0     O13026   4.999   7.957   8.294  0.6175 -0.6069 -0.4429
  838MOL0     C13027   4.899   7.860   8.262 -0.8862  0.1783  0.2111
  838MOL0     C13028   4.811   7.873   8.148  0.8391  0.3837 -1.1142
  838MOL0     C13029   4.737   7.755   8.106  0.0634 -0.5878 -0.0107
  838MOL0     C13030   4.733   7.640   8.186 -0.4085  0.4475  1.5130
  838MOL0     O13031   4.674   7.524   8.157 -0.3121  0.1693 -0.2664
  838MOL0     C13032   4.588   7.515   8.046 -0.1297 -0.6736 -0.0045
  838MOL0     C13033   4.450   7.570   8.064  0.2459 -0.6106  0.1354
  838MOL0     C13034   4.360   7.495   8.165  0.2410 -0.4925  0.6685
  838MOL0     C13035   4.309   7.355   8.112  0.1035  0.5123 -0.3710
  838MOL0     C13036   4.211   7.279   8.210  0.2591  0.0617  0.9228
  838MOL0     C13037   4.272   7.274   8.348 -0.3477 -0.4185  0.3008
  838MOL0     C13038   4.395   7.183   8.367  0.3800 -0.6065  0.4138
  838MOL0     C13039   4.359   7.040   8.352 -0.7024 -0.0085  0.4459
  838MOL0    Cl13040   4.483   6.933   8.277  0.4893  0.4354  0.0278
  838MOL0     C13041   4.823   7.634   8.291 -0.2608  0.8803  0.8282
  838MOL0     C13042   4.914   7.734   8.335  0.0731  0.4875  1.1684
  838MOL0     O13043   5.081   7.972   8.081 -0.2656 -0.2105  0.6654
  838MOL0     C13044   5.193   8.137   8.361  0.7296  0.9968  0.0583
  838MOL0     C13045   5.255   8.257   8.393 -1.3130  0.7282  0.9846
  838MOL0     N13046   5.306   8.931   7.935  0.1393  0.0887 -0.3440
  838MOL0     N13047   5.347   8.998   7.839 -0.7573  1.0544 -1.3936
  838MOL0     C13048   6.392   9.593   8.241  0.5779 -0.4585  0.9781
  838MOL0     C13049   6.513   9.606   8.303 -0.9611 -0.8074 -0.2214
  838MOL0     C13050   6.973   9.564   8.389  0.6759 -0.2883 -0.2589
  838MOL0     C13051   7.104   9.580   8.348 -0.2333 -1.2483 -0.2674
  838MOL0     C13052   7.211   9.580   8.438 -0.6793 -0.4870 -0.6281
  838MOL0     C13053   7.187   9.573   8.568 -0.5238  0.2408 -0.2927
  838MOL0     O13054   7.302   9.581   8.647 -0.6401  0.4837 -0.4448
  838MOL0     C13055   7.292   9.562   8.789 -0.8994  0.0893 -0.0718
  838MOL0     C13056   7.433   9.571   8.838 -0.1508  0.7434 -0.9825
  838MOL0     C13057   7.528   9.467   8.760  0.7817  0.4489  0.2023
  838MOL0     C13058   7.624   9.407   8.860 -0.6267  0.5167  0.0826
  838MOL0     C13059   7.692   9.514   8.929  0.3750  0.6943 -0.0174
  838MOL0     C13060   7.754   9.590   9.005  0.3908  0.5154  0.5256
  838MOL0     C13061   7.056   9.555   8.619  0.6454  0.0266  0.7083
  838MOL0     C13062   6.950   9.542   8.531  0.1714  0.1462 -0.1704
  838MOL0     H13063   6.711   9.402   8.136 -0.2462  0.0617 -1.1831
  838MOL0     H13064   6.476   9.387   7.994 -0.9520 -0.6487 -0.3879
  838MOL0     H13065   6.284   9.449   7.885  1.2557 -1.0809  0.2635
  838MOL0     H13066   6.253   9.314   7.978 -0.3643 -0.3178 -2.6658
  838MOL0     H13067   6.024   9.394   8.021  0.2553 -0.2444  1.2538
  838MOL0     H13068   6.046   9.506   7.884  4.3799  1.4691 -0.0917
  838MOL0     H13069   6.083   9.315   7.737  2.8619  4.5459  1.1600
  838MOL0     H13070   6.101   9.212   7.880  1.1458  0.2571 -0.2471
  838MOL0     H13071   5.850   9.270   7.943 -2.5245 -2.6179 -0.0911
  838MOL0     H13072   5.848   9.350   7.789  2.9765 -0.1586 -1.7288
  838MOL0     H13073   5.882   9.160   7.669 -4.2880  4.9482 -0.6134
  838MOL0     H13074   5.905   9.053   7.814 -1.4939 -1.0724  0.2464
  838MOL0     H13075   5.689   9.094   7.885  0.6357  3.4433  1.2656
  838MOL0     H13076   5.642   9.194   7.749 -2.7272 -3.0804 -0.9990
  838MOL0     H13077   5.718   9.025   7.596 -1.2962  1.9723  0.1613
  838MOL0     H13078   5.705   8.895   7.700  1.2775  1.4209  0.5805
  838MOL0     H13079   5.501   8.918   7.563  2.1421 -0.3911 -0.2277
  838MOL0     H13080   5.472   9.091   7.621  1.0130 -0.3949  2.9936
  838MOL0     H13081   5.512   8.723   7.770 -2.3761 -2.2167  1.8671
  838MOL0     H13082   5.260   8.724   8.050  1.2066  1.3662  0.7366
  838MOL0     H13083   5.327   8.616   7.949 -2.3029 -1.0150  1.7590
  838MOL0     H13084   5.471   8.771   8.165 -0.5214 -0.2976 -0.8692
  838MOL0     H13085   5.567   8.674   8.052  0.5824  0.8581  1.0197
  838MOL0     H13086   5.538   8.535   8.258 -1.1178 -0.7765 -0.8748
  838MOL0     H13087   5.410   8.477   8.143  1.6062 -0.1805 -0.9291
  838MOL0     H13088   5.256   8.630   8.248  0.7112 -0.4870 -1.1149
  838MOL0     H13089   5.371   8.678   8.377 -0.9316  1.1148  0.9755
  838MOL0     H13090   5.162   8.467   8.153 -1.9294  0.7425  1.4828
  838MOL0     H13091   5.097   8.232   7.953 -0.8105  4.7101 -2.0524
  838MOL0     H13092   4.932   8.209   8.040 -1.0789  1.5386  0.4425
  838MOL0     H13093   5.015   8.365   8.003  2.1456  0.3208 -1.9971
  838MOL0     H13094   4.795   7.974   8.111 -0.3265  1.3250  1.6395
  838MOL0     H13095   4.683   7.760   8.012 -0.1345  3.5916  0.1393
  838MOL0     H13096   4.638   7.563   7.961 -0.0607  1.6313  1.2518
  838MOL0     H13097   4.577   7.408   8.026 -0.0868 -0.6357 -0.2306
  838MOL0     H13098   4.459   7.675   8.092 -0.8108 -0.5379  0.2410
  838MOL0     H13099   4.393   7.570   7.971 -1.1537  0.7212  0.9553
  838MOL0     H13100   4.283   7.567   8.193  0.9838  0.9961 -1.0015
  838MOL0     H13101   4.430   7.483   8.249  0.1601  1.2663  1.0155
  838MOL0     H13102   4.260   7.372   8.016 -0.3844  1.1557 -0.0150
  838MOL0     H13103   4.383   7.282   8.080  1.0439 -0.0165  2.7014
  838MOL0     H13104   4.200   7.176   8.175  1.7168 -0.0659  0.7818
  838MOL0     H13105   4.117   7.336   8.211  0.5622  0.6501 -0.9316
  838MOL0     H13106   4.298   7.376   8.379  1.0877 -0.7555  0.2703
  838MOL0     H13107   4.186   7.239   8.407 -0.3158  1.0049  1.2355
  838MOL0     H13108   4.432   7.204   8.468 -0.1541 -1.3305  0.7740
  838MOL0     H13109   4.478   7.207   8.301  1.2738 -2.8819  0.5914
  838MOL0     H13110   4.270   7.023   8.290  0.0187 -2.2364 -0.0580
  838MOL0     H13111   4.333   6.999   8.450  1.0999 -0.0365  0.9469
  838MOL0     H13112   4.826   7.540   8.344  1.4210  1.0774  1.1334
  838MOL0     H13113   4.986   7.698   8.408  0.8408  3.1163  1.7952
  838MOL0     H13114   5.220   8.048   8.416  2.1330  0.7327 -0.9876
  838MOL0     H13115   5.326   8.264   8.475  0.5246  1.6245 -0.5926
  838MOL0     H13116   6.313   9.656   8.283  2.9430  4.2067 -0.7976
  838MOL0     H13117   6.531   9.662   8.394  3.8027  1.2212 -2.0954
  838MOL0     H13118   7.126   9.592   8.242  3.3651 -1.5055  0.3211
  838MOL0     H13119   7.307   9.580   8.386 -0.8243 -2.0054 -0.9398
  838MOL0     H13120   7.233   9.638   8.841 -1.0669 -1.1518  1.6268
  838MOL0     H13121   7.252   9.461   8.804 -0.5630 -0.0504 -0.1140
  838MOL0     H13122   7.420   9.541   8.942 -1.6752  3.4592 -0.2903
  838MOL0     H13123   7.474   9.672   8.826 -1.4446  1.4249  0.1137
  838MOL0     H13124   7.569   9.507   8.667  0.2060 -0.6450 -0.5525
  838MOL0     H13125   7.465   9.382   8.732 -0.0143  0.4605  1.8647
  838MOL0     H13126   7.695   9.348   8.800 -0.2112  1.6994 -0.6268
  838MOL0     H13127   7.578   9.346   8.938  1.2194 -0.0785  0.7638
  838MOL0     H13128   7.793   9.652   9.083 -3.0257 -0.6106  3.3616
  838MOL0     H13129   7.048   9.552   8.728  0.0838 -1.9621  0.6526
  838MOL0     H13130   6.845   9.526   8.554  0.2537  1.2807  1.1560
  839MOL0     O13131   4.719   5.419   3.731  0.0321  1.0883 -0.3830
  839MOL0     C13132   4.702   5.500   3.646 -0.1392 -0.2776  0.3224
  839MOL0     O13133   4.786   5.529   3.543 -0.4240  0.3797  0.1096
  839MOL0     C13134   4.900   5.457   3.537  0.1740 -0.4330  0.6440
  839MOL0     C13135   4.908   5.316   3.535  0.3388  0.4180  0.8122
  839MOL0     C13136   5.015   5.239   3.513  0.0035  0.0198  0.0841
  839MOL0     C13137   5.145   5.308   3.502 -0.4817  0.4391  0.4025
  839MOL0     O13138   5.267   5.241   3.488 -0.0190 -0.1865 -0.4257
  839MOL0     C13139   5.277   5.111   3.433 -0.7873 -0.3099 -0.8544
  839MOL0     C13140   5.408   5.061   3.481 -1.0974  0.4249 -0.2840
  839MOL0     C13141   5.402   4.990   3.616  0.2063  0.5117 -0.6809
  839MOL0     C13142   5.542   4.955   3.663 -0.0039 -0.4973  1.5607
  839MOL0     C13143   5.522   4.873   3.790 -0.4650 -1.5306  1.0969
  839MOL0     C13144   5.660   4.870   3.860  0.8837  1.5077  0.2164
  839MOL0     C13145   5.772   4.840   3.768 -0.5274 -0.1104 -0.9740
  839MOL0     C13146   5.907   4.839   3.851  0.0980 -0.1113  0.7260
  839MOL0     N13147   5.945   4.716   3.919  0.6405 -0.1644  0.2400
  839MOL0     C13148   5.912   4.675   4.044 -0.7658  0.4383 -0.7546
  839MOL0     C13149   5.945   4.547   4.052 -0.0151 -0.3098 -0.3277
  839MOL0     C13150   5.950   4.457   4.172  0.8156 -1.1233  0.6795
  839MOL0     C13151   5.839   4.345   4.177  0.7310  1.0270 -0.4329
  839MOL0     C13152   5.689   4.402   4.171 -0.3712  0.0088 -0.2625
  839MOL0     C13153   5.576   4.304   4.153  0.0996 -0.2299  0.0432
  839MOL0     O13154   5.597   4.222   4.036  0.0588  0.6301 -0.2816
  839MOL0     C13155   5.488   4.141   3.996 -1.1657  0.4057  0.0130
  839MOL0     C13156   5.531   4.045   3.905 -0.5905  0.5564  0.4861
  839MOL0     C13157   5.449   3.933   3.864 -0.1235  0.3794 -0.9934
  839MOL0     C13158   5.500   3.823   3.771  0.0767  0.3546 -0.1600
  839MOL0     C13159   5.317   3.923   3.925  0.2031 -0.6605 -0.6440
  839MOL0     C13160   5.219   3.819   3.888 -0.4562  0.2293  0.2861
  839MOL0     O13161   5.162   3.733   3.980 -0.2089 -0.5658  0.0650
  839MOL0     C13162   5.086   3.620   3.947 -0.2381 -0.3426  0.8845
  839MOL0     C13163   5.016   3.556   4.054  0.0640 -0.0079  0.0058
  839MOL0     C13164   4.942   3.440   4.035  0.9504 -0.3072  0.2335
  839MOL0     C13165   4.935   3.374   3.910 -0.5077  0.5882 -0.1410
  839MOL0     O13166   4.866   3.262   3.899 -0.4715  0.0368 -0.1208
  839MOL0     C13167   4.732   3.267   3.846  0.0497 -1.2157 -0.3794
  839MOL0     C13168   4.622   3.314   3.945 -0.5343  0.9622  0.3075
  839MOL0     C13169   4.633   3.227   4.078  0.5612 -0.7902 -0.1272
  839MOL0     C13170   4.524   3.272   4.176 -0.5793  0.1853  0.4489
  839MOL0     C13171   4.541   3.225   4.319  0.4220 -0.2644 -1.1359
  839MOL0     C13172   4.482   3.083   4.333 -0.3575  0.3385 -0.3364
  839MOL0     C13173   4.342   3.063   4.292 -0.6869  0.2977  0.5046
  839MOL0     C13174   4.281   2.936   4.353  0.9557  0.6834  0.6110
  839MOL0    Cl13175   4.314   2.798   4.240 -0.2624  0.2403 -0.2404
  839MOL0     C13176   5.013   3.431   3.804  0.3478 -0.0193 -0.4042
  839MOL0     C13177   5.079   3.552   3.827  0.2684 -0.7477  0.4147
  839MOL0     O13178   5.192   3.820   3.767 -0.5115 -0.2787 -0.0024
  839MOL0     C13179   5.271   4.030   4.011 -0.1692  0.1285  0.8048
  839MOL0     C13180   5.359   4.130   4.050  0.3143 -0.4599  1.3007
  839MOL0     N13181   6.027   4.516   3.940  0.1959 -0.1526 -0.2629
  839MOL0     N13182   6.004   4.610   3.853 -0.1993 -0.0668 -0.8631
  839MOL0     C13183   5.140   5.447   3.503  0.1066 -0.6370 -0.2198
  839MOL0     C13184   5.024   5.521   3.524 -0.0129 -0.3899  0.1516
  839MOL0     C13185   4.578   5.588   3.659 -0.0764 -0.3828  0.0497
  839MOL0     C13186   4.552   5.671   3.558  0.1840 -0.8677  0.2060
  839MOL0     C13187   4.437   5.756   3.567  0.5873  0.0154 -0.8700
  839MOL0     C13188   4.355   5.762   3.685  0.5627 -0.4372  1.0272
  839MOL0     O13189   4.234   5.829   3.691  0.0231  0.0380 -0.3411
  839MOL0     C13190   4.179   5.866   3.562 -0.5861  0.0250 -1.0832
  839MOL0     C13191   4.208   6.017   3.563 -0.4117 -0.2964 -0.2904
  839MOL0     C13192   4.146   6.093   3.448 -0.0578 -0.0907  0.0720
  839MOL0     C13193   4.236   6.169   3.362  0.6969  0.1201  0.0869
  839MOL0     C13194   4.333   6.085   3.305 -0.0435  0.1767 -0.1809
  839MOL0     C13195   4.416   6.000   3.272 -0.3207 -0.0631 -0.3226
  839MOL0     C13196   4.405   5.702   3.795 -0.0685  0.3597 -0.0040
  839MOL0     C13197   4.509   5.607   3.787 -0.2133  0.6015  0.9303
  839MOL0     H13198   4.816   5.262   3.556  0.5470 -0.2415  0.0835
  839MOL0     H13199   5.008   5.130   3.509 -1.2426  0.0776  0.2008
  839MOL0     H13200   5.207   5.037   3.474  0.9219  0.0374  3.0784
  839MOL0     H13201   5.276   5.112   3.323 -1.1621 -1.7783 -0.8884
  839MOL0     H13202   5.449   4.991   3.408 -0.1234  1.6974 -1.0167
  839MOL0     H13203   5.479   5.144   3.489 -0.3498 -0.2928  0.8568
  839MOL0     H13204   5.334   5.044   3.683 -2.1179 -2.7940 -0.0999
  839MOL0     H13205   5.346   4.896   3.612  2.8301 -1.2347  0.5101
  839MOL0     H13206   5.594   4.906   3.581 -2.9430 -0.4247 -0.4971
  839MOL0     H13207   5.586   5.050   3.693 -0.4622  0.2685 -0.1021
  839MOL0     H13208   5.462   4.924   3.866  3.9483  2.1796  2.5460
  839MOL0     H13209   5.482   4.774   3.768 -2.5664 -0.3013 -1.1186
  839MOL0     H13210   5.686   4.961   3.915  0.6808  1.2196  0.8030
  839MOL0     H13211   5.644   4.789   3.931  1.1652  2.2633  1.1704
  839MOL0     H13212   5.764   4.738   3.729  3.5514 -2.0143  2.2995
  839MOL0     H13213   5.786   4.914   3.689  1.6831 -0.8992 -1.4119
  839MOL0     H13214   5.903   4.911   3.934  0.9709 -0.3976  1.0320
  839MOL0     H13215   5.977   4.868   3.772 -2.0258 -1.6369 -1.8631
  839MOL0     H13216   5.862   4.731   4.122 -1.8048  0.8552 -1.6982
  839MOL0     H13217   6.051   4.415   4.172  1.1328 -0.5682 -2.0579
  839MOL0     H13218   5.932   4.519   4.261  0.1061  2.2850 -1.6307
  839MOL0     H13219   5.851   4.286   4.268  0.0287 -0.9672 -1.5846
  839MOL0     H13220   5.863   4.266   4.106  0.0972  1.5951 -1.2903
  839MOL0     H13221   5.678   4.489   4.104 -1.2825  0.9280  1.0265
  839MOL0     H13222   5.676   4.443   4.271 -2.1055 -2.6674  0.7173
  839MOL0     H13223   5.480   4.355   4.141  1.7752  2.7995 -1.7442
  839MOL0     H13224   5.578   4.246   4.246 -2.2514  3.7851  2.9055
  839MOL0     H13225   5.626   4.074   3.860 -1.6137  3.0070 -0.2273
  839MOL0     H13226   5.467   3.830   3.667  1.4581 -0.6950 -0.7017
  839MOL0     H13227   5.609   3.829   3.759  0.1007 -0.6482 -0.5340
  839MOL0     H13228   5.488   3.719   3.805  2.6479  1.2489  4.2493
  839MOL0     H13229   5.016   3.614   4.146 -1.6255  0.8255 -0.4872
  839MOL0     H13230   4.878   3.405   4.115 -1.1052 -0.5858 -1.4256
  839MOL0     H13231   4.722   3.336   3.761 -3.3064  0.5804  1.2502
  839MOL0     H13232   4.706   3.167   3.811  0.4389 -0.2991 -3.5925
  839MOL0     H13233   4.623   3.423   3.951  0.9665  0.8791  2.5552
  839MOL0     H13234   4.524   3.282   3.906 -0.2416 -0.5959  0.7878
  839MOL0     H13235   4.732   3.218   4.124  0.5135 -1.0237 -0.0737
  839MOL0     H13236   4.608   3.125   4.048 -2.0459  0.0015 -0.9291
  839MOL0     H13237   4.534   3.380   4.189 -0.7988  0.5977 -2.3424
  839MOL0     H13238   4.424   3.261   4.135  0.4861  1.0827 -2.6570
  839MOL0     H13239   4.473   3.288   4.376  2.1357 -0.9531  1.8561
  839MOL0     H13240   4.639   3.243   4.362 -0.0025 -2.4906  1.0354
  839MOL0     H13241   4.531   3.018   4.261 -0.7771 -0.3420 -0.0249
  839MOL0     H13242   4.495   3.044   4.434 -3.6632  0.4392  0.2473
  839MOL0     H13243   4.348   3.058   4.183  2.0294 -0.5435  0.6022
  839MOL0     H13244   4.287   3.150   4.329 -0.4534  1.6724 -2.1478
  839MOL0     H13245   4.173   2.952   4.354  0.7961 -0.2144  2.3149
  839MOL0     H13246   4.309   2.910   4.456 -1.5753  3.8825  2.2606
  839MOL0     H13247   5.022   3.391   3.703  3.9666 -2.3960  0.6680
  839MOL0     H13248   5.143   3.589   3.747 -0.1052  2.0825  1.3015
  839MOL0     H13249   5.172   4.031   4.056 -0.5496 -0.6988  0.0217
  839MOL0     H13250   5.325   4.189   4.135  0.0919  3.7060 -1.3751
  839MOL0     H13251   5.237   5.492   3.483  0.4415 -0.9235  0.6779
  839MOL0     H13252   5.029   5.629   3.518  1.6337 -0.3754  1.1442
  839MOL0     H13253   4.597   5.662   3.460  1.6266  1.4349  0.5597
  839MOL0     H13254   4.424   5.828   3.486 -1.4993 -0.0698 -0.6460
  839MOL0     H13255   4.215   5.820   3.470 -0.7025 -0.5451 -0.8484
  839MOL0     H13256   4.072   5.841   3.561 -1.3721  2.9011 -0.1011
  839MOL0     H13257   4.316   6.031   3.579 -0.5689 -1.2760  2.1061
  839MOL0     H13258   4.164   6.062   3.652 -0.9143  1.5269 -1.4044
  839MOL0     H13259   4.083   6.162   3.506  1.6706  1.2535  0.4583
  839MOL0     H13260   4.070   6.040   3.391  0.2638 -0.6510  0.1618
  839MOL0     H13261   4.281   6.243   3.429  1.4373  0.7879 -1.1118
  839MOL0     H13262   4.188   6.230   3.284  2.4110  2.3999  0.7114
  839MOL0     H13263   4.498   5.934   3.256 -0.2604  0.0883 -0.6493
  839MOL0     H13264   4.351   5.704   3.890 -0.0911 -3.0355  0.1613
  839MOL0     H13265   4.523   5.559   3.883  1.2392  0.1019  0.4937
  840MOL0     O13266   1.611   6.892   9.552  0.6496  0.0970 -0.2300
  840MOL0     C13267   1.705   6.946   9.596  0.2844  0.4997 -0.3974
  840MOL0     O13268   1.821   6.981   9.527  0.3956 -1.1177  0.2938
  840MOL0     C13269   1.829   6.971   9.391  0.6040 -0.0701 -0.0244
  840MOL0     C13270   1.832   7.078   9.301  0.7709  0.0191 -0.7012
  840MOL0     C13271   1.829   7.057   9.155 -0.0107 -0.0267 -0.6038
  840MOL0     C13272   1.786   6.931   9.117 -0.2298  0.5268 -0.5638
  840MOL0     O13273   1.777   6.893   8.986  0.3315  0.1852 -0.1382
  840MOL0     C13274   1.783   6.996   8.886  0.4123 -0.9325 -0.5998
  840MOL0     C13275   1.744   6.934   8.761  0.4372  0.1290  0.4551
  840MOL0     C13276   1.834   6.818   8.721  0.9778 -0.2544  0.5957
  840MOL0     C13277   1.948   6.859   8.632  0.8616  0.6815  0.2216
  840MOL0     C13278   1.891   6.914   8.497  0.2882  0.0172 -0.4836
  840MOL0     C13279   1.993   6.906   8.384 -0.1888  0.0041 -0.1618
  840MOL0     C13280   1.934   6.944   8.254 -0.8172  0.0524 -0.1036
  840MOL0     C13281   2.034   6.905   8.143 -0.2178  0.2975 -0.0744
  840MOL0     N13282   1.983   6.916   8.009 -0.3231  0.3434 -0.1699
  840MOL0     C13283   1.954   7.034   7.946  0.0688 -0.2111  0.0803
  840MOL0     C13284   1.903   6.998   7.827  0.4920 -0.5015 -0.1672
  840MOL0     C13285   1.869   7.097   7.729  0.1962 -0.4973  0.2574
  840MOL0     C13286   1.721   7.128   7.727  0.2579 -0.1526 -1.2521
  840MOL0     C13287   1.680   7.223   7.617  0.2635 -0.1900  1.0527
  840MOL0     C13288   1.528   7.235   7.607  0.2013  0.1598  0.1981
  840MOL0     O13289   1.482   7.317   7.500 -0.1567 -0.1072 -0.4671
  840MOL0     C13290   1.481   7.453   7.521  0.4998 -0.1584  0.4452
  840MOL0     C13291   1.462   7.527   7.643 -0.8880  0.2348 -0.5956
  840MOL0     C13292   1.505   7.660   7.650  0.3603  0.1004  0.5865
  840MOL0     C13293   1.512   7.718   7.783  1.6581 -0.5422  0.1542
  840MOL0     C13294   1.530   7.725   7.526  0.0196 -0.4988 -0.2680
  840MOL0     C13295   1.576   7.867   7.536 -0.5581  0.1818  0.6777
  840MOL0     O13296   1.505   7.945   7.613  0.0558  0.6138 -0.1734
  840MOL0     C13297   1.549   8.074   7.640  0.3433  0.3215 -0.1442
  840MOL0     C13298   1.445   8.161   7.673  0.3325 -0.2686 -0.0914
  840MOL0     C13299   1.480   8.291   7.701 -0.5986 -0.6677  0.1728
  840MOL0     C13300   1.613   8.346   7.705  0.3696 -0.2777  0.2020
  840MOL0     O13301   1.641   8.477   7.739  0.0764 -0.7218  0.1493
  840MOL0     C13302   1.762   8.527   7.685 -1.1602  0.2553  0.1948
  840MOL0     C13303   1.870   8.540   7.790  0.3140  0.6414  0.5699
  840MOL0     C13304   1.817   8.624   7.906 -0.3412 -0.2359 -0.4058
  840MOL0     C13305   1.907   8.641   8.033 -1.0064 -0.5350  0.1753
  840MOL0     C13306   2.008   8.756   7.999 -0.0012  0.6171 -0.5837
  840MOL0     C13307   2.115   8.770   8.108  0.0708  0.9912  0.4687
  840MOL0     C13308   2.225   8.856   8.060 -0.3806 -0.4933  0.5159
  840MOL0     C13309   2.333   8.865   8.162  0.1627  0.4115 -1.2578
  840MOL0    Cl13310   2.419   8.706   8.197 -0.0165 -0.1220 -0.2944
  840MOL0     C13311   1.706   8.243   7.703 -0.4245  0.8411 -0.0104
  840MOL0     C13312   1.679   8.112   7.655  0.0129  0.1489 -0.2046
  840MOL0     O13313   1.679   7.903   7.462  0.7712 -0.7140 -0.0058
  840MOL0     C13314   1.519   7.655   7.399  0.3365  0.2451  0.2468
  840MOL0     C13315   1.488   7.523   7.400 -0.2994  0.8115 -0.0445
  840MOL0     N13316   1.888   6.862   7.818  0.6944  0.2130  0.4499
  840MOL0     N13317   1.943   6.816   7.925  0.2336  0.4234  0.9053
  840MOL0     C13318   1.771   6.827   9.217  0.4478 -0.3811  1.0552
  840MOL0     C13319   1.797   6.845   9.348 -0.5312 -0.0300  0.7038
  840MOL0     C13320   1.717   6.959   9.746 -0.2052  0.1217 -0.0898
  840MOL0     C13321   1.841   6.978   9.804  0.7254 -0.5654 -0.7395
  840MOL0     C13322   1.863   6.959   9.941 -0.4431 -0.2255 -0.1300
  840MOL0     C13323   1.758   6.923  10.021  0.2899  0.5459 -0.0623
  840MOL0     O13324   1.749   6.908  10.157  0.4355  0.1511 -0.0923
  840MOL0     C13325   1.864   6.897  10.243 -0.5873 -0.2693 -1.0652
  840MOL0     C13326   1.819   6.842  10.384  0.1847 -0.2216 -0.7411
  840MOL0     C13327   1.940   6.823  10.478  0.3655  0.5724 -0.2017
  840MOL0     C13328   1.898   6.800  10.620  0.1864  0.8235 -0.7793
  840MOL0     C13329   1.833   6.665  10.625  0.8224 -0.1385  0.1457
  840MOL0     C13330   1.784   6.553  10.643 -0.0587  0.3311 -1.5841
  840MOL0     C13331   1.634   6.909   9.965  0.3333 -0.5852 -1.2161
  840MOL0     C13332   1.614   6.915   9.827 -0.7097 -0.0152  0.5428
  840MOL0     H13333   1.849   7.183   9.324 -0.9848  0.3896 -0.9416
  840MOL0     H13334   1.858   7.139   9.089  0.1078  1.2055  0.9318
  840MOL0     H13335   1.710   7.074   8.908 -2.9024 -3.1487 -2.7931
  840MOL0     H13336   1.880   7.044   8.871 -0.4699  1.0084 -0.2657
  840MOL0     H13337   1.639   6.910   8.776  0.7811 -1.0386  1.0967
  840MOL0     H13338   1.742   7.024   8.698  0.4882  0.4654  0.9291
  840MOL0     H13339   1.877   6.773   8.811  3.5843  1.6055  0.3702
  840MOL0     H13340   1.761   6.750   8.675  0.9809  0.1571 -0.0265
  840MOL0     H13341   2.006   6.937   8.680 -0.3947  1.8565 -0.1073
  840MOL0     H13342   2.015   6.774   8.613  2.8400  2.0842  0.5924
  840MOL0     H13343   1.803   6.855   8.468  1.1863 -1.6420  0.0809
  840MOL0     H13344   1.864   7.019   8.512  0.1496  0.0320 -0.8353
  840MOL0     H13345   2.076   6.970   8.414  0.6489 -0.8957 -0.4924
  840MOL0     H13346   2.034   6.806   8.368 -2.6118 -0.9575 -0.6623
  840MOL0     H13347   1.841   6.889   8.238 -0.5080 -0.0430 -1.7990
  840MOL0     H13348   1.911   7.051   8.258 -0.2451  0.1482  0.8637
  840MOL0     H13349   2.056   6.801   8.169  0.1173  0.0144 -1.4172
  840MOL0     H13350   2.123   6.965   8.161  0.0646 -0.2063  0.2535
  840MOL0     H13351   1.951   7.138   7.977  1.2697  0.8412 -2.9627
  840MOL0     H13352   1.923   7.191   7.741 -0.3023  0.0529 -1.4778
  840MOL0     H13353   1.895   7.060   7.629  0.1587 -1.3801  0.5651
  840MOL0     H13354   1.696   7.163   7.828 -2.0589 -4.6074 -0.0152
  840MOL0     H13355   1.668   7.035   7.704 -1.3341  0.2699  0.5194
  840MOL0     H13356   1.715   7.185   7.520 -2.1098 -0.2763  0.1582
  840MOL0     H13357   1.719   7.324   7.634  3.0852 -0.6128 -1.8757
  840MOL0     H13358   1.488   7.265   7.705 -2.1292 -2.1200  0.0501
  840MOL0     H13359   1.483   7.138   7.585  2.8857 -0.8956 -1.0514
  840MOL0     H13360   1.443   7.470   7.734  0.1790 -1.4689 -1.3832
  840MOL0     H13361   1.601   7.777   7.807  1.9643 -0.2008 -1.6585
  840MOL0     H13362   1.428   7.782   7.810  3.2024  2.1327 -1.0478
  840MOL0     H13363   1.489   7.641   7.857 -0.3175 -0.1580 -0.0161
  840MOL0     H13364   1.346   8.121   7.692  0.4354  0.0392  1.1605
  840MOL0     H13365   1.405   8.364   7.730 -0.2018 -0.0844 -0.2439
  840MOL0     H13366   1.804   8.467   7.603  2.2314  2.1257  0.3959
  840MOL0     H13367   1.739   8.622   7.637  0.3233  0.2696 -0.5531
  840MOL0     H13368   1.898   8.445   7.836  1.1277  0.7425  0.3040
  840MOL0     H13369   1.955   8.577   7.733  0.6407 -0.1149  0.5552
  840MOL0     H13370   1.727   8.575   7.944 -0.6550 -0.5867 -1.5718
  840MOL0     H13371   1.780   8.721   7.871 -1.2350 -0.3121  0.2998
  840MOL0     H13372   1.848   8.673   8.120 -3.5168  4.1635 -2.7987
  840MOL0     H13373   1.949   8.543   8.057  0.7190 -0.0037 -0.5253
  840MOL0     H13374   1.951   8.849   7.993 -2.0865 -0.7056 -2.7216
  840MOL0     H13375   2.047   8.742   7.898  1.2597 -0.5067  0.0335
  840MOL0     H13376   2.070   8.805   8.201 -2.0953 -3.3643  1.3254
  840MOL0     H13377   2.154   8.672   8.137 -1.9669 -0.8807 -2.5088
  840MOL0     H13378   2.196   8.954   8.019 -1.3103 -0.6510  0.8005
  840MOL0     H13379   2.265   8.803   7.973  1.8445  0.6003  0.7996
  840MOL0     H13380   2.300   8.906   8.257  1.0945 -1.6230  0.0058
  840MOL0     H13381   2.406   8.945   8.142  1.9018 -0.2014  1.9898
  840MOL0     H13382   1.813   8.261   7.704 -0.1080 -0.4426 -2.2286
  840MOL0     H13383   1.765   8.046   7.647 -1.4902 -1.9153 -0.2798
  840MOL0     H13384   1.533   7.715   7.309 -1.5033 -0.7981 -0.8103
  840MOL0     H13385   1.484   7.461   7.311  0.8594  0.6600  0.0025
  840MOL0     H13386   1.748   6.730   9.174  0.5446  0.3533 -0.7486
  840MOL0     H13387   1.778   6.759   9.413 -0.5790  0.0600  0.8099
  840MOL0     H13388   1.922   7.018   9.744  1.8872 -0.4735  0.8212
  840MOL0     H13389   1.969   6.969   9.964 -0.6561  2.3981  0.0259
  840MOL0     H13390   1.935   6.831  10.192  1.8448  2.0380 -0.8545
  840MOL0     H13391   1.899   7.000  10.255 -1.1985  0.0446 -1.9143
  840MOL0     H13392   1.754   6.756  10.371 -0.6712  0.4336 -0.8711
  840MOL0     H13393   1.754   6.919  10.427 -2.3542 -2.0159 -1.1631
  840MOL0     H13394   1.991   6.920  10.474 -2.7499  2.2868 -1.7053
  840MOL0     H13395   2.008   6.744  10.446  0.0282  0.1595  0.1000
  840MOL0     H13396   1.836   6.881  10.658 -0.3753  0.2787 -0.5153
  840MOL0     H13397   1.974   6.792  10.698 -0.2443  0.2651 -0.4050
  840MOL0     H13398   1.738   6.464  10.679  0.9966  0.3578 -0.0709
  840MOL0     H13399   1.547   6.885  10.024  1.0210  0.7862  0.4210
  840MOL0     H13400   1.522   6.875   9.786  0.7638 -4.2772  0.8504
  841MOL0     O13401   9.770   9.137   4.890 -0.8933 -0.8850  0.9432
  841MOL0     C13402   9.853   9.122   4.985  0.4411 -0.9678  0.2194
  841MOL0     O13403   9.895   9.217   5.069 -0.3052  0.3579  0.1060
  841MOL0     C13404   9.888   9.352   5.037 -0.4601  1.1497  0.0586
  841MOL0     C13405   9.917   9.404   4.908  0.4214  0.4677  0.1059
  841MOL0     C13406   9.924   9.539   4.881 -0.1185  0.9534 -0.0893
  841MOL0     C13407   9.895   9.625   4.992 -0.4459 -0.1132 -0.3081
  841MOL0     O13408   9.909   9.763   4.975 -0.4603  0.3192 -0.0842
  841MOL0     C13409  10.002   9.811   4.872  0.4714 -1.2833 -0.5558
  841MOL0     C13410  10.048   9.952   4.916 -0.5367  0.2394  0.2533
  841MOL0     C13411  10.118  10.037   4.810 -0.2444 -0.8429  0.2899
  841MOL0     C13412  10.207   9.969   4.706  0.8845  0.0273  1.0279
  841MOL0     C13413  10.274  10.077   4.627 -0.9233 -0.6180  0.0473
  841MOL0     C13414  10.370  10.019   4.524  0.0411  0.7886 -0.0685
  841MOL0     C13415  10.425  10.126   4.431  0.4396 -0.6047  0.0548
  841MOL0     C13416  10.455  10.253   4.509  0.0620  0.0813  0.0873
  841MOL0     N13417  10.525  10.361   4.429  0.1397 -0.1835 -0.7605
  841MOL0     C13418  10.454  10.456   4.351  0.6595  0.7457 -0.3997
  841MOL0     C13419  10.555  10.535   4.307 -0.3177  0.9717  0.3115
  841MOL0     C13420  10.545  10.643   4.208 -0.2824 -0.0389  0.0510
  841MOL0     C13421  10.520  10.779   4.282  0.6370  0.0667  0.7257
  841MOL0     C13422  10.536  10.899   4.195 -0.0179  0.2486  0.7405
  841MOL0     C13423  10.490  11.035   4.254 -1.0082 -0.1508  0.1830
  841MOL0     O13424  10.604  11.130   4.260 -0.6839  0.7737  0.8595
  841MOL0     C13425  10.576  11.261   4.278 -0.6017 -0.7332  0.5764
  841MOL0     C13426  10.446  11.318   4.294 -0.1759 -0.3130  0.7987
  841MOL0     C13427  10.436  11.444   4.334 -0.7699 -1.4470  0.2405
  841MOL0     C13428  10.292  11.485   4.363  0.4423 -0.4956  0.5665
  841MOL0     C13429  10.557  11.540   4.331  1.2871 -0.0181 -0.8452
  841MOL0     C13430  10.551  11.687   4.353 -0.0787 -1.0542 -0.3079
  841MOL0     O13431  10.671  11.750   4.346 -0.0416 -0.2528  0.3221
  841MOL0     C13432  10.673  11.876   4.290  0.2393 -0.2084 -0.8786
  841MOL0     C13433  10.676  11.888   4.151 -0.1931  0.6106  0.0213
  841MOL0     C13434  10.692  12.010   4.091  0.2820 -0.4983 -0.2491
  841MOL0     C13435  10.729  12.128   4.167 -0.2652  0.2676 -0.4050
  841MOL0     O13436  10.764  12.245   4.113 -0.4526 -0.1200  0.4266
  841MOL0     C13437  10.869  12.327   4.174 -0.0032  0.0626  0.3429
  841MOL0     C13438  10.969  12.385   4.077  0.3535  0.1054 -0.1763
  841MOL0     C13439  11.052  12.503   4.139 -0.0422  0.1745 -0.4617
  841MOL0     C13440  11.151  12.555   4.037  0.4742 -0.1959  0.0452
  841MOL0     C13441  11.227  12.686   4.077  1.1125  0.0018  0.0193
  841MOL0     C13442  11.307  12.736   3.969 -0.6536 -0.1703 -0.5511
  841MOL0     C13443  11.365  12.874   4.006 -0.7704  0.3076 -0.6615
  841MOL0     C13444  11.403  12.964   3.885  0.0079  0.9331 -0.0529
  841MOL0    Cl13445  11.422  13.123   3.937  0.3597  0.3136  0.7559
  841MOL0     C13446  10.725  12.105   4.308  0.2220 -0.0903  0.8032
  841MOL0     C13447  10.698  11.983   4.373  1.2328 -0.5514  0.5784
  841MOL0     O13448  10.439  11.741   4.369 -0.3496 -0.8039 -1.5304
  841MOL0     C13449  10.683  11.480   4.321 -0.6275 -0.4609  0.7010
  841MOL0     C13450  10.690  11.341   4.292  0.3852 -0.4331 -0.0708
  841MOL0     N13451  10.681  10.484   4.366  0.5418 -0.2921 -0.5148
  841MOL0     N13452  10.651  10.388   4.447 -0.5406  0.2891  0.3627
  841MOL0     C13453   9.862   9.576   5.119  0.4437  0.3608  0.6661
  841MOL0     C13454   9.858   9.442   5.135 -0.8307  0.7785  0.2166
  841MOL0     C13455   9.903   8.986   5.010 -0.3662 -0.3324 -1.3074
  841MOL0     C13456   9.851   8.872   4.950 -0.0561 -0.3426 -0.3521
  841MOL0     C13457   9.891   8.738   4.989  0.5118 -0.5641 -0.0688
  841MOL0     C13458   9.988   8.728   5.093 -0.1674 -0.2094  0.9847
  841MOL0     O13459  10.018   8.603   5.148  0.2219  0.2470  0.1239
  841MOL0     C13460  10.134   8.540   5.098  0.0343  0.3174  0.2704
  841MOL0     C13461  10.111   8.391   5.072  1.1555 -0.1090 -1.0038
  841MOL0     C13462  10.223   8.316   5.012 -0.2379  0.7071 -0.3266
  841MOL0     C13463  10.217   8.344   4.860 -0.3846  0.9239  0.1710
  841MOL0     C13464  10.326   8.264   4.800  0.4685  0.4241  0.6436
  841MOL0     C13465  10.411   8.207   4.731 -0.4876  0.4270  0.1814
  841MOL0     C13466  10.040   8.838   5.154  0.9608 -0.5896 -0.0192
  841MOL0     C13467  10.000   8.964   5.115 -0.4872  0.7086 -0.5651
  841MOL0     H13468   9.943   9.336   4.827  3.0532  2.0827 -0.5352
  841MOL0     H13469   9.952   9.588   4.788 -1.0604  0.0632 -0.8553
  841MOL0     H13470  10.088   9.744   4.860  1.6327 -0.3071  1.6502
  841MOL0     H13471   9.943   9.832   4.783  2.3787  2.5968 -1.1070
  841MOL0     H13472   9.962  10.003   4.960  0.8688  0.8806  2.4784
  841MOL0     H13473  10.121   9.944   4.998 -0.1248  4.5775  0.5663
  841MOL0     H13474  10.044  10.107   4.769  2.1645  1.0350 -1.1923
  841MOL0     H13475  10.187  10.102   4.865 -1.3485 -2.2562  3.6179
  841MOL0     H13476  10.283   9.906   4.754  1.7848  1.2861  1.2936
  841MOL0     H13477  10.137   9.909   4.646  1.8288 -0.2092  0.1371
  841MOL0     H13478  10.200  10.143   4.580 -0.7550  0.4142  1.1800
  841MOL0     H13479  10.314  10.138   4.709 -1.1884 -2.5583  1.6818
  841MOL0     H13480  10.448   9.970   4.583 -1.1434 -1.7737 -0.4998
  841MOL0     H13481  10.311   9.953   4.460 -2.1484  3.7081 -1.2833
  841MOL0     H13482  10.511  10.093   4.372  0.3449 -3.5328  1.3618
  841MOL0     H13483  10.352  10.135   4.351  0.6052 -0.7917 -0.1175
  841MOL0     H13484  10.498  10.231   4.607 -1.1053  2.0295  1.1108
  841MOL0     H13485  10.358  10.295   4.535 -0.7830 -0.8403 -1.4308
  841MOL0     H13486  10.351  10.460   4.316  1.1410  1.4736 -1.8188
  841MOL0     H13487  10.645  10.637   4.163 -0.5163  1.3828 -0.7168
  841MOL0     H13488  10.483  10.613   4.122  0.0627 -3.9962  0.9714
  841MOL0     H13489  10.577  10.787   4.375  0.4046  0.4051  0.8390
  841MOL0     H13490  10.413  10.776   4.307 -0.1564  0.7954 -2.1758
  841MOL0     H13491  10.479  10.876   4.105  3.0697  1.8594 -1.8704
  841MOL0     H13492  10.643  10.908   4.175 -0.3381  0.7298 -0.8677
  841MOL0     H13493  10.452  11.025   4.356 -0.7958  0.8283  0.3603
  841MOL0     H13494  10.410  11.067   4.188 -0.7746 -2.2087 -1.2073
  841MOL0     H13495  10.359  11.253   4.287  0.2360 -0.8104  0.1922
  841MOL0     H13496  10.224  11.403   4.387 -0.6275  0.1283 -0.2265
  841MOL0     H13497  10.283  11.551   4.449 -0.5672 -1.4909  1.2451
  841MOL0     H13498  10.247  11.536   4.277 -1.7165 -1.1251  1.2823
  841MOL0     H13499  10.652  11.803   4.088 -0.8634  2.5378 -2.4997
  841MOL0     H13500  10.686  12.025   3.984  3.0669  1.0381 -0.2764
  841MOL0     H13501  10.826  12.405   4.239  0.4351  1.0767 -0.5509
  841MOL0     H13502  10.929  12.261   4.238 -0.5885 -1.5694 -0.7617
  841MOL0     H13503  11.038  12.302   4.060 -0.4379 -0.4027 -0.9983
  841MOL0     H13504  10.919  12.418   3.985  0.6892  0.1155 -0.3568
  841MOL0     H13505  11.100  12.475   4.233  0.8912 -0.6366 -1.1694
  841MOL0     H13506  10.991  12.591   4.163  2.8924  1.5432  2.9407
  841MOL0     H13507  11.222  12.471   4.027  1.0287  0.2293  0.3399
  841MOL0     H13508  11.100  12.562   3.940  0.7629 -2.1103 -0.2958
  841MOL0     H13509  11.293  12.668   4.162  0.0359  0.1924  0.9196
  841MOL0     H13510  11.148  12.758   4.105 -0.1892 -1.0743 -0.7842
  841MOL0     H13511  11.397  12.676   3.955  0.0399  0.5515  0.6237
  841MOL0     H13512  11.252  12.742   3.875  0.4856  0.8556 -1.1723
  841MOL0     H13513  11.446  12.856   4.077 -0.7322  3.4971  0.2571
  841MOL0     H13514  11.285  12.916   4.067  0.4801 -1.6491  2.5800
  841MOL0     H13515  11.323  12.952   3.812 -1.6948  1.6919  1.6076
  841MOL0     H13516  11.495  12.923   3.840 -0.5306 -1.6221  0.9832
  841MOL0     H13517  10.754  12.187   4.372 -2.0986  1.1160  0.3981
  841MOL0     H13518  10.714  11.972   4.480 -1.3237 -1.3723  0.9339
  841MOL0     H13519  10.775  11.538   4.314  0.7653 -2.7442 -1.2764
  841MOL0     H13520  10.786  11.297   4.267  0.0868 -1.1710  0.0612
  841MOL0     H13521   9.842   9.651   5.195  0.8927  1.1995 -0.0135
  841MOL0     H13522   9.806   9.412   5.225  0.6037  2.9756  1.8643
  841MOL0     H13523   9.769   8.899   4.883 -0.4605  1.9283  0.9298
  841MOL0     H13524   9.855   8.649   4.939 -0.2118  0.0215 -0.6167
  841MOL0     H13525  10.168   8.587   5.005  2.1953 -1.2339  0.1806
  841MOL0     H13526  10.217   8.556   5.168  1.3674 -2.9599 -0.3548
  841MOL0     H13527  10.019   8.383   5.013 -1.1185  1.1699  2.1296
  841MOL0     H13528  10.085   8.341   5.165 -0.8338 -0.7674 -1.8702
  841MOL0     H13529  10.189   8.212   5.025  2.8918 -0.4703 -0.6859
  841MOL0     H13530  10.317   8.335   5.064 -0.6504  1.0829  0.2888
  841MOL0     H13531  10.218   8.450   4.835 -4.3474  0.4086 -3.3447
  841MOL0     H13532  10.125   8.301   4.820  1.5015 -1.9376 -1.5349
  841MOL0     H13533  10.491   8.156   4.682  0.9473  0.3068  2.4800
  841MOL0     H13534  10.105   8.819   5.238  0.0819 -0.7065  0.6483
  841MOL0     H13535  10.039   9.054   5.161 -2.0972  1.0522  0.2024
  842MOL0     O13536   5.921   6.676   5.176 -0.0108  0.6197 -0.0382
  842MOL0     C13537   5.898   6.717   5.293  0.3194 -0.3695 -0.6115
  842MOL0     O13538   5.932   6.655   5.414 -0.2038  0.7789  0.2066
  842MOL0     C13539   6.012   6.541   5.426  0.6247 -0.4778  0.3206
  842MOL0     C13540   5.994   6.479   5.550  0.4821  0.1135  1.1442
  842MOL0     C13541   6.064   6.363   5.574  0.2256  0.0041  0.2519
  842MOL0     C13542   6.145   6.309   5.475  0.1231 -0.0041 -0.3072
  842MOL0     O13543   6.202   6.184   5.481  0.2950  0.7148  0.4623
  842MOL0     C13544   6.136   6.076   5.555 -0.2330  0.4179  0.2196
  842MOL0     C13545   6.131   5.959   5.452  0.0042 -0.1825  0.9470
  842MOL0     C13546   6.044   5.990   5.320 -0.8791  0.1233 -1.0225
  842MOL0     C13547   5.894   5.967   5.370  0.0282 -0.3061  0.3060
  842MOL0     C13548   5.803   6.032   5.275  0.3123  0.3847 -0.1602
  842MOL0     C13549   5.812   6.181   5.296  0.1710 -0.2390 -0.1365
  842MOL0     C13550   5.727   6.263   5.200  0.6279  1.6485  0.0526
  842MOL0     C13551   5.737   6.411   5.219  0.4118 -0.2235  0.1872
  842MOL0     N13552   5.607   6.491   5.200  0.8996 -0.5687 -0.0006
  842MOL0     C13553   5.488   6.451   5.156  0.6081  0.1424 -0.1515
  842MOL0     C13554   5.417   6.562   5.125 -0.4302 -1.0312 -0.1815
  842MOL0     C13555   5.287   6.571   5.045  0.4602 -0.1236 -0.8090
  842MOL0     C13556   5.302   6.518   4.900  0.0088 -0.2832 -0.0515
  842MOL0     C13557   5.160   6.494   4.843 -0.7355 -1.1941 -1.1535
  842MOL0     C13558   5.163   6.414   4.707  0.1320 -0.1505  0.2562
  842MOL0     O13559   5.267   6.454   4.619 -0.1268  1.1546  0.5787
  842MOL0     C13560   5.257   6.585   4.564  0.5296  0.5111 -0.2621
  842MOL0     C13561   5.137   6.663   4.535 -0.3021  0.2109  0.0479
  842MOL0     C13562   5.147   6.784   4.461 -1.5661 -0.2260  1.0554
  842MOL0     C13563   5.018   6.835   4.400  0.5012  0.2278 -0.0400
  842MOL0     C13564   5.278   6.835   4.426 -1.2672  0.3772  0.0744
  842MOL0     C13565   5.310   6.949   4.344  0.4112 -0.1461  0.1881
  842MOL0     O13566   5.435   7.011   4.330 -0.2395 -0.2133 -0.6376
  842MOL0     C13567   5.451   7.088   4.219 -0.5824 -0.8240 -0.3064
  842MOL0     C13568   5.359   7.192   4.188 -0.1262 -0.3758  1.0635
  842MOL0     C13569   5.382   7.287   4.089  1.1973 -0.3816  0.5588
  842MOL0     C13570   5.505   7.280   4.012 -0.8921 -0.2234 -0.5382
  842MOL0     O13571   5.545   7.369   3.910 -0.0195 -0.1185 -0.6545
  842MOL0     C13572   5.508   7.509   3.914  0.7410 -0.4444 -0.3350
  842MOL0     C13573   5.378   7.522   3.831  0.0292  0.0586  0.4044
  842MOL0     C13574   5.361   7.669   3.793  0.0837 -0.7230 -0.7282
  842MOL0     C13575   5.241   7.675   3.689  0.4473  0.0649  0.5255
  842MOL0     C13576   5.183   7.811   3.690 -0.5303  0.4475  0.3054
  842MOL0     C13577   5.033   7.814   3.650  0.3298  0.0573 -0.4068
  842MOL0     C13578   4.978   7.958   3.634  0.1905  0.1389  0.5523
  842MOL0     C13579   5.004   8.001   3.492 -0.8188 -0.8638 -0.5709
  842MOL0    Cl13580   4.887   8.133   3.438 -0.0827  0.0106 -0.3622
  842MOL0     C13581   5.605   7.196   4.060 -0.6270 -0.1104  0.1903
  842MOL0     C13582   5.576   7.097   4.155  1.4617  1.0194  0.2143
  842MOL0     O13583   5.213   6.974   4.269  0.3126  0.1929  0.3995
  842MOL0     C13584   5.392   6.763   4.472 -0.0584  0.1933 -0.9363
  842MOL0     C13585   5.383   6.638   4.530  0.2153 -0.6167 -0.1967
  842MOL0     N13586   5.491   6.672   5.154 -0.9884 -0.7297  0.4048
  842MOL0     N13587   5.608   6.625   5.202  0.7246 -0.7089  0.3215
  842MOL0     C13588   6.180   6.391   5.362  0.0231  0.9237 -0.2625
  842MOL0     C13589   6.108   6.509   5.338  0.2007 -0.1022 -0.2565
  842MOL0     C13590   5.830   6.845   5.315  0.8692 -0.0143  0.7886
  842MOL0     C13591   5.835   6.921   5.428 -0.4058 -0.6644 -0.5196
  842MOL0     C13592   5.768   7.043   5.438 -0.0561  0.9244  0.1375
  842MOL0     C13593   5.698   7.095   5.328 -0.9872 -0.2270 -0.8629
  842MOL0     O13594   5.625   7.213   5.353 -0.2613 -0.2579  0.4345
  842MOL0     C13595   5.508   7.202   5.431 -0.3779  0.5288 -1.0038
  842MOL0     C13596   5.408   7.291   5.364 -1.0647 -0.0966  0.4760
  842MOL0     C13597   5.265   7.273   5.420 -0.2417 -0.4039  0.6980
  842MOL0     C13598   5.166   7.357   5.331  0.1978  0.1946 -0.4421
  842MOL0     C13599   5.171   7.507   5.337  0.0783  0.0315  0.4066
  842MOL0     C13600   5.175   7.627   5.330 -0.3940  0.4100 -0.0478
  842MOL0     C13601   5.686   7.025   5.219 -0.0523 -1.0478  0.1568
  842MOL0     C13602   5.753   6.905   5.208 -0.4017 -0.7108  0.0729
  842MOL0     H13603   5.924   6.518   5.623 -0.7254  0.3686 -0.1084
  842MOL0     H13604   6.029   6.314   5.664 -0.6147 -1.5771 -0.8688
  842MOL0     H13605   6.196   6.038   5.639  0.8471  0.6027 -0.4579
  842MOL0     H13606   6.035   6.101   5.588 -1.8787 -2.3939 -2.1842
  842MOL0     H13607   6.230   5.929   5.417  0.6938 -1.3053  3.5381
  842MOL0     H13608   6.094   5.870   5.505 -4.3388  0.6441 -0.3114
  842MOL0     H13609   6.058   6.092   5.282 -2.2815 -0.1382 -2.3593
  842MOL0     H13610   6.072   5.922   5.239  0.1359 -2.1779  1.1511
  842MOL0     H13611   5.872   5.860   5.378 -1.0663 -0.5376 -3.6350
  842MOL0     H13612   5.884   6.003   5.473 -0.1813 -1.8753  0.8634
  842MOL0     H13613   5.823   6.011   5.169  1.6926  1.0057 -0.0355
  842MOL0     H13614   5.699   6.000   5.287  0.7047 -0.3496  1.4422
  842MOL0     H13615   5.779   6.201   5.398  0.8702  1.9114 -0.2693
  842MOL0     H13616   5.904   6.232   5.266 -1.1505  1.0771 -2.2874
  842MOL0     H13617   5.743   6.235   5.095  0.1149 -1.3219  0.6805
  842MOL0     H13618   5.624   6.230   5.218  1.8360 -0.2319  5.0902
  842MOL0     H13619   5.815   6.444   5.150  0.1690 -2.2038 -1.1109
  842MOL0     H13620   5.767   6.432   5.323 -2.5151  0.3985  0.9857
  842MOL0     H13621   5.445   6.351   5.156  0.5304  0.1255  2.0402
  842MOL0     H13622   5.221   6.518   5.114  0.3462  0.7394 -0.2424
  842MOL0     H13623   5.258   6.677   5.042 -1.5381 -0.6415 -2.8159
  842MOL0     H13624   5.346   6.418   4.894  0.3182 -0.2166  0.9437
  842MOL0     H13625   5.357   6.587   4.835 -0.2498 -0.4387 -0.4348
  842MOL0     H13626   5.109   6.591   4.839 -1.5537 -1.5727 -0.2481
  842MOL0     H13627   5.102   6.433   4.912  2.3324 -2.5846  0.4115
  842MOL0     H13628   5.067   6.422   4.657 -1.5875 -4.8263  2.1743
  842MOL0     H13629   5.183   6.306   4.715  0.4347 -0.1034  0.1352
  842MOL0     H13630   5.034   6.631   4.546 -1.0355  2.3416 -0.1102
  842MOL0     H13631   5.012   6.941   4.424  1.9125  0.7009 -1.5691
  842MOL0     H13632   5.004   6.816   4.293  0.8709 -1.3322  0.1604
  842MOL0     H13633   4.936   6.772   4.435  2.3285 -2.0741  0.3758
  842MOL0     H13634   5.271   7.197   4.251 -0.9241 -1.0260  0.0215
  842MOL0     H13635   5.300   7.353   4.064 -0.4724 -1.7419  2.2148
  842MOL0     H13636   5.491   7.530   4.020 -0.3404  0.1059 -0.6004
  842MOL0     H13637   5.584   7.571   3.867  0.9022 -0.7789 -0.5220
  842MOL0     H13638   5.390   7.472   3.734 -1.5022  1.0462 -0.3315
  842MOL0     H13639   5.285   7.491   3.880 -2.3275  1.4680 -2.8101
  842MOL0     H13640   5.455   7.720   3.770 -0.2399 -0.5839 -1.8280
  842MOL0     H13641   5.323   7.704   3.889 -1.2905 -0.9389 -1.1798
  842MOL0     H13642   5.288   7.656   3.592  2.8179  1.4430  1.3014
  842MOL0     H13643   5.153   7.616   3.714 -2.0192  2.8289 -0.9780
  842MOL0     H13644   5.260   7.860   3.628  2.2675 -3.2472  0.4862
  842MOL0     H13645   5.190   7.859   3.787  1.4309 -0.1057  0.4880
  842MOL0     H13646   5.030   7.758   3.555 -2.1663  1.1510 -1.0603
  842MOL0     H13647   4.975   7.766   3.729 -1.4721 -2.6058 -3.1094
  842MOL0     H13648   5.029   8.017   3.710 -0.5328  1.1822  0.2467
  842MOL0     H13649   4.874   7.964   3.668  0.1384  0.4028  0.3503
  842MOL0     H13650   5.016   7.915   3.426  1.9854 -1.7686  0.9387
  842MOL0     H13651   5.103   8.047   3.496  0.1208 -2.8055  0.7828
  842MOL0     H13652   5.704   7.206   4.018  0.8806 -4.5474  2.1382
  842MOL0     H13653   5.645   7.017   4.181 -0.1837  0.2102  2.4362
  842MOL0     H13654   5.494   6.798   4.460  1.2305 -2.9131  0.0894
  842MOL0     H13655   5.469   6.575   4.550  0.6932 -0.8282 -2.6210
  842MOL0     H13656   6.252   6.341   5.297  0.0921  0.8469 -0.1285
  842MOL0     H13657   6.125   6.573   5.252 -4.2986 -0.8456 -1.9598
  842MOL0     H13658   5.888   6.887   5.517 -5.3044  0.5104  3.3060
  842MOL0     H13659   5.774   7.091   5.536 -1.2122 -1.8818  1.6972
  842MOL0     H13660   5.473   7.098   5.439  1.8628 -0.2098 -0.3028
  842MOL0     H13661   5.507   7.241   5.533 -0.5356 -1.7930 -0.0417
  842MOL0     H13662   5.410   7.265   5.258  0.4160  1.3867  0.1097
  842MOL0     H13663   5.428   7.396   5.387 -1.7237  0.4624 -1.2950
  842MOL0     H13664   5.267   7.323   5.518  0.1723  5.3482 -1.8150
  842MOL0     H13665   5.229   7.172   5.439 -2.6449  0.2484 -0.0349
  842MOL0     H13666   5.064   7.329   5.358  2.1689 -4.6405  3.4624
  842MOL0     H13667   5.201   7.332   5.230  2.6754  1.8478 -0.1074
  842MOL0     H13668   5.183   7.733   5.343  4.1744  0.1298  0.9871
  842MOL0     H13669   5.625   7.062   5.138  2.8213  2.2650 -0.7441
  842MOL0     H13670   5.729   6.853   5.116 -5.0778 -0.3739  0.8770
  843MOL0     O13671   5.107   7.169   3.621  0.3829 -0.0418 -0.6434
  843MOL0     C13672   5.145   7.167   3.742  0.4827 -0.3165 -0.0035
  843MOL0     O13673   5.072   7.216   3.847  0.3126 -0.5628  0.0201
  843MOL0     C13674   4.961   7.289   3.825 -0.1150  0.0298 -1.0631
  843MOL0     C13675   4.960   7.403   3.741 -0.4720 -0.6304 -0.8128
  843MOL0     C13676   4.858   7.499   3.736  0.2673  0.1716  0.8344
  843MOL0     C13677   4.752   7.485   3.826 -0.3163  0.0036 -0.8699
  843MOL0     O13678   4.658   7.585   3.835  0.6962 -0.0580 -0.2084
  843MOL0     C13679   4.545   7.588   3.914  0.3702  0.0486 -0.1343
  843MOL0     C13680   4.577   7.644   4.056 -0.7346  0.4087 -0.4747
  843MOL0     C13681   4.471   7.614   4.153 -0.2104  0.7943 -0.5787
  843MOL0     C13682   4.476   7.713   4.277 -0.9577 -0.0158  0.6875
  843MOL0     C13683   4.401   7.844   4.254 -0.5997 -0.4215 -0.2789
  843MOL0     C13684   4.491   7.969   4.239 -1.2553  0.1874 -0.3992
  843MOL0     C13685   4.396   8.088   4.235  0.1539  0.5762  0.2713
  843MOL0     C13686   4.472   8.218   4.279 -0.3966  0.4445  0.6529
  843MOL0     N13687   4.371   8.327   4.300 -0.8955  0.5098  0.3849
  843MOL0     C13688   4.298   8.334   4.414 -0.7812  0.0087 -0.0700
  843MOL0     C13689   4.200   8.422   4.389  0.5739  0.3433 -0.6240
  843MOL0     C13690   4.089   8.454   4.488  0.5459  0.2727 -0.5631
  843MOL0     C13691   4.112   8.584   4.563  0.5417 -0.1633 -0.2706
  843MOL0     C13692   3.986   8.633   4.639  0.4250  1.0945  0.4955
  843MOL0     C13693   3.933   8.529   4.727  0.2203  0.0112 -0.2469
  843MOL0     O13694   3.838   8.580   4.823 -0.3932  0.2228  0.1206
  843MOL0     C13695   3.889   8.659   4.930  0.5922  0.4525 -0.0411
  843MOL0     C13696   3.792   8.704   5.005 -0.3355  0.6391  0.1405
  843MOL0     C13697   3.805   8.792   5.117  1.1339  0.4010  0.0878
  843MOL0     C13698   3.679   8.831   5.195 -0.3157 -0.1199  0.1927
  843MOL0     C13699   3.941   8.836   5.146  0.5986  1.1232 -0.0346
  843MOL0     C13700   3.956   8.930   5.258  0.6459 -0.2678  0.3905
  843MOL0     O13701   4.050   8.898   5.347 -0.3573 -0.2934 -0.6385
  843MOL0     C13702   4.052   8.979   5.455 -0.1480  0.5860 -0.3579
  843MOL0     C13703   4.122   9.103   5.454  0.0989 -0.0390 -0.6503
  843MOL0     C13704   4.124   9.187   5.568  0.4665 -0.5691 -0.5861
  843MOL0     C13705   4.060   9.142   5.681 -1.2813  0.6844 -0.0754
  843MOL0     O13706   4.076   9.230   5.785  0.1161 -0.3219 -0.5607
  843MOL0     C13707   3.949   9.283   5.838 -0.5562  0.1091  0.3514
  843MOL0     C13708   3.950   9.431   5.866 -1.2445 -0.9322  0.1369
  843MOL0     C13709   4.026   9.466   5.997 -0.1187 -0.1134  0.4521
  843MOL0     C13710   3.940   9.443   6.126  0.6158  0.0536  1.0311
  843MOL0     C13711   4.014   9.500   6.248  0.1821  0.6879 -0.6621
  843MOL0     C13712   3.949   9.451   6.376  0.0802 -0.4412  0.0874
  843MOL0     C13713   4.013   9.478   6.519 -0.4233 -1.5996 -1.0762
  843MOL0     C13714   3.896   9.479   6.620  1.5445  0.8254 -0.7861
  843MOL0    Cl13715   3.800   9.626   6.604  0.0287  0.3303  0.3559
  843MOL0     C13716   3.992   9.024   5.689  0.4520 -0.0513  0.4681
  843MOL0     C13717   4.000   8.933   5.583 -0.3041 -0.7229  0.7556
  843MOL0     O13718   3.903   9.041   5.242 -0.6955 -0.2559 -0.1547
  843MOL0     C13719   4.047   8.790   5.054  0.5558  0.3380  0.5836
  843MOL0     C13720   4.020   8.700   4.952 -0.7616 -0.6023 -0.3043
  843MOL0     N13721   4.207   8.455   4.257  0.9604 -0.2773 -0.1435
  843MOL0     N13722   4.308   8.400   4.205 -0.7502 -0.6406 -0.3108
  843MOL0     C13723   4.755   7.372   3.912 -0.0598  0.3089  0.3053
  843MOL0     C13724   4.855   7.273   3.911 -0.6786  0.5005  0.5054
  843MOL0     C13725   5.285   7.125   3.757 -0.5185  0.8694 -1.4082
  843MOL0     C13726   5.381   7.155   3.660 -0.2822 -0.0032 -0.7773
  843MOL0     C13727   5.518   7.129   3.678 -0.6510 -0.3046 -0.1482
  843MOL0     C13728   5.567   7.046   3.781  0.4138  0.2831 -1.1411
  843MOL0     O13729   5.701   7.011   3.791  0.5603  0.1719  0.1925
  843MOL0     C13730   5.732   6.886   3.859  0.6770  0.0650 -0.8955
  843MOL0     C13731   5.642   6.768   3.801 -0.4627  0.2181  0.1458
  843MOL0     C13732   5.670   6.628   3.844 -0.2668  0.1900 -1.1851
  843MOL0     C13733   5.672   6.607   3.998  0.4433 -0.0215  0.2299
  843MOL0     C13734   5.558   6.671   4.065  0.8122  0.1035 -0.5766
  843MOL0     C13735   5.468   6.716   4.140 -0.1678 -0.2002 -0.8144
  843MOL0     C13736   5.468   7.006   3.868  0.6846  0.2436  0.0154
  843MOL0     C13737   5.332   7.046   3.867 -0.0763  0.0174 -0.4970
  843MOL0     H13738   5.044   7.429   3.677  1.8684  0.6152  2.4440
  843MOL0     H13739   4.867   7.577   3.662  2.8139 -1.3952 -0.6571
  843MOL0     H13740   4.477   7.654   3.860  2.9559  1.7464 -1.5456
  843MOL0     H13741   4.494   7.491   3.921  0.9361 -0.2821 -0.4621
  843MOL0     H13742   4.670   7.597   4.090 -0.3404  2.0931  0.9431
  843MOL0     H13743   4.607   7.749   4.045 -1.4793  0.9991  2.3307
  843MOL0     H13744   4.374   7.628   4.105 -1.5155  1.5074  2.0556
  843MOL0     H13745   4.484   7.511   4.188 -0.1823  0.9308 -0.1763
  843MOL0     H13746   4.435   7.658   4.362  0.7499  0.9665  2.2334
  843MOL0     H13747   4.582   7.728   4.303  0.2236 -4.3822 -0.7440
  843MOL0     H13748   4.342   7.845   4.162  3.2975  0.3984 -3.0025
  843MOL0     H13749   4.320   7.850   4.327 -1.8258 -1.4203 -1.4928
  843MOL0     H13750   4.568   7.969   4.316  2.2014 -0.8413 -3.5161
  843MOL0     H13751   4.553   7.952   4.150  0.8315 -3.5074  1.4935
  843MOL0     H13752   4.366   8.092   4.129 -3.7667 -0.4268  1.2017
  843MOL0     H13753   4.312   8.081   4.304  2.2799 -0.0042  2.9323
  843MOL0     H13754   4.547   8.251   4.206  0.3363  1.1283  1.6951
  843MOL0     H13755   4.520   8.211   4.376 -1.7359 -2.6188  1.2268
  843MOL0     H13756   4.331   8.293   4.509 -0.7568  0.4614  0.1181
  843MOL0     H13757   3.994   8.463   4.435  1.5386 -0.4023 -2.5471
  843MOL0     H13758   4.088   8.365   4.552  5.3062  0.8984  0.7178
  843MOL0     H13759   4.146   8.665   4.498  1.2456  1.0135  1.4654
  843MOL0     H13760   4.188   8.576   4.642  1.2857 -0.3595 -0.9965
  843MOL0     H13761   3.901   8.660   4.576  1.7117  0.7345 -1.4713
  843MOL0     H13762   4.010   8.733   4.677  1.5387  0.1716  2.3439
  843MOL0     H13763   4.019   8.483   4.776 -0.8762 -0.7473  1.0608
  843MOL0     H13764   3.895   8.450   4.662  0.2631  1.1155 -1.6838
  843MOL0     H13765   3.696   8.666   4.972  1.2554 -0.0009 -4.5441
  843MOL0     H13766   3.681   8.932   5.237 -2.2089  1.0147 -2.2015
  843MOL0     H13767   3.599   8.839   5.121  0.9813  0.4491 -1.2237
  843MOL0     H13768   3.652   8.753   5.267  0.2621 -1.2170 -0.7432
  843MOL0     H13769   4.155   9.143   5.359 -0.1031 -1.3004 -1.2662
  843MOL0     H13770   4.169   9.286   5.561  0.4932 -0.4747  0.6680
  843MOL0     H13771   3.868   9.260   5.768 -1.8290  0.9596  1.4863
  843MOL0     H13772   3.940   9.223   5.930  0.5621  0.4584  0.7062
  843MOL0     H13773   4.001   9.467   5.777  0.9949 -2.6261  0.6572
  843MOL0     H13774   3.848   9.472   5.867 -0.8637  0.0557 -0.4020
  843MOL0     H13775   4.040   9.575   5.997  0.9530 -0.1969  2.6588
  843MOL0     H13776   4.118   9.408   6.003 -0.4553 -0.6322  0.6257
  843MOL0     H13777   3.850   9.498   6.098 -1.7833 -4.3740 -0.9077
  843MOL0     H13778   3.905   9.341   6.143  1.4010 -0.5597 -0.7779
  843MOL0     H13779   4.020   9.609   6.240 -2.5223  1.1357  1.6139
  843MOL0     H13780   4.121   9.482   6.253 -0.0899 -1.6680 -1.8861
  843MOL0     H13781   3.848   9.493   6.373  0.4670  0.5532 -2.9244
  843MOL0     H13782   3.940   9.342   6.378 -1.3727 -0.3233  1.1226
  843MOL0     H13783   4.057   9.578   6.529 -2.9306 -0.3161 -1.8682
  843MOL0     H13784   4.084   9.397   6.537 -1.1169 -1.8893  0.5274
  843MOL0     H13785   3.935   9.454   6.719 -0.1939 -0.0286 -0.2666
  843MOL0     H13786   3.832   9.392   6.601  2.7040 -0.2834  0.2463
  843MOL0     H13787   3.952   8.981   5.781  0.2807 -0.9582 -0.0159
  843MOL0     H13788   3.961   8.831   5.581  0.6262 -1.0842 -1.1321
  843MOL0     H13789   4.149   8.822   5.073  0.8041 -1.5747  3.0085
  843MOL0     H13790   4.106   8.674   4.891  2.3184  4.6253  1.1858
  843MOL0     H13791   4.680   7.361   3.990  1.1874  2.3428  1.8935
  843MOL0     H13792   4.858   7.187   3.976 -4.7978 -0.0139  0.2592
  843MOL0     H13793   5.348   7.205   3.570 -1.0276 -0.3940 -0.7253
  843MOL0     H13794   5.580   7.158   3.594 -1.5825 -2.0267 -1.4824
  843MOL0     H13795   5.838   6.860   3.855  0.8486  0.8633 -3.6722
  843MOL0     H13796   5.718   6.902   3.966 -0.1778  3.0682 -1.3652
  843MOL0     H13797   5.665   6.782   3.695  0.8882  3.9641  0.7852
  843MOL0     H13798   5.536   6.784   3.821 -0.5041 -0.6762  0.6965
  843MOL0     H13799   5.769   6.602   3.805  0.3807 -1.2190  1.1984
  843MOL0     H13800   5.585   6.572   3.804 -1.6665  2.5219 -1.7014
  843MOL0     H13801   5.764   6.657   4.029  0.6428 -0.1111 -0.2079
  843MOL0     H13802   5.684   6.500   4.019  2.8735  0.4567  1.6234
  843MOL0     H13803   5.397   6.755   4.209  3.6355  2.7204  1.8343
  843MOL0     H13804   5.503   6.948   3.952 -0.8966  0.8095  1.1057
  843MOL0     H13805   5.253   7.009   3.931  1.7500 -0.1435  1.8068
  844MOL0     O13806   8.186   4.046   0.173  0.3091  0.5344 -0.6117
  844MOL0     C13807   8.255   4.118   0.111 -0.2114 -0.3477 -0.0079
  844MOL0     O13808   8.392   4.130   0.112 -0.8361  0.4074  0.5816
  844MOL0     C13809   8.467   4.055   0.194  0.3794  0.0188  0.2106
  844MOL0     C13810   8.580   4.002   0.139 -0.2195  0.1301  0.4290
  844MOL0     C13811   8.656   3.911   0.206 -0.2723  0.0952 -0.4795
  844MOL0     C13812   8.639   3.890   0.342 -0.1911  0.2968 -0.3305
  844MOL0     O13813   8.741   3.828   0.413 -1.3649 -0.5815 -0.0846
  844MOL0     C13814   8.787   3.878   0.534  0.1994 -0.5947 -0.2046
  844MOL0     C13815   8.925   3.932   0.492 -0.9992 -0.4397  0.1626
  844MOL0     C13816   8.994   4.016   0.605 -0.7539  0.4563  0.3975
  844MOL0     C13817   9.037   3.920   0.711 -0.1838  0.1880 -0.2933
  844MOL0     C13818   9.079   3.998   0.831 -0.2140 -1.1267 -0.0608
  844MOL0     C13819   9.113   3.890   0.938 -0.3853 -0.5644 -1.1139
  844MOL0     C13820   9.178   3.967   1.054  0.2693  1.1371 -0.1167
  844MOL0     C13821   9.321   4.017   1.057 -0.5663 -1.0481 -0.0894
  844MOL0     N13822   9.423   3.918   1.057 -0.3112  0.1024 -0.3319
  844MOL0     C13823   9.488   3.859   0.948  0.7065  0.4280  0.0294
  844MOL0     C13824   9.567   3.765   1.006  0.6650  0.9988  0.4483
  844MOL0     C13825   9.672   3.697   0.932  0.0741 -0.1461  0.3023
  844MOL0     C13826   9.758   3.790   0.833 -0.4823  0.7005 -0.1861
  844MOL0     C13827   9.849   3.892   0.914  0.7408 -0.0058 -0.6375
  844MOL0     C13828   9.947   3.958   0.816 -0.2017 -0.2132  0.1672
  844MOL0     O13829   9.888   4.018   0.701 -0.1479 -1.0781 -0.0839
  844MOL0     C13830   9.976   4.112   0.640 -0.0525 -0.3603 -0.4898
  844MOL0     C13831   9.916   4.209   0.561 -0.9002  0.0648 -0.1223
  844MOL0     C13832   9.986   4.305   0.489  0.0683 -0.2991  0.0405
  844MOL0     C13833   9.898   4.384   0.402 -0.1676 -1.0814  0.0672
  844MOL0     C13834  10.129   4.317   0.515 -0.2301 -0.0102 -0.0884
  844MOL0     C13835  10.208   4.421   0.451 -0.0177  1.0373 -0.4747
  844MOL0     O13836  10.156   4.496   0.353  0.3627  0.9191  0.3991
  844MOL0     C13837  10.225   4.599   0.302 -0.3621 -0.5022  0.1371
  844MOL0     C13838  10.364   4.615   0.278  0.9860  0.1753 -0.4438
  844MOL0     C13839  10.417   4.740   0.242  0.2514 -0.1179  0.4697
  844MOL0     C13840  10.335   4.845   0.205  0.1986  0.4384  0.8167
  844MOL0     O13841  10.387   4.963   0.169 -0.0780 -0.3454  0.7307
  844MOL0     C13842  10.332   5.067   0.250 -0.5583  0.4428  1.2436
  844MOL0     C13843  10.362   5.206   0.184  0.0632 -0.3386  0.0435
  844MOL0     C13844  10.364   5.307   0.297 -0.0042  0.6985 -0.2191
  844MOL0     C13845  10.402   5.443   0.240  0.3021 -0.3502 -0.3568
  844MOL0     C13846  10.284   5.534   0.229  0.2891 -1.2305  0.1683
  844MOL0     C13847  10.328   5.680   0.226 -0.2390  0.7573 -0.4873
  844MOL0     C13848  10.203   5.778   0.203 -0.0310 -0.2230  0.4394
  844MOL0     C13849  10.245   5.922   0.221 -0.1775 -0.3016  0.1366
  844MOL0    Cl13850  10.357   5.964   0.085  0.2159 -0.2882  0.0636
  844MOL0     C13851  10.197   4.819   0.198  0.1439 -0.3990 -0.8422
  844MOL0     C13852  10.146   4.698   0.253  0.0931 -0.4553  0.1485
  844MOL0     O13853  10.329   4.426   0.490  0.4657 -0.8542  0.1908
  844MOL0     C13854  10.185   4.233   0.607 -0.4271  0.2792 -0.3617
  844MOL0     C13855  10.116   4.128   0.667 -0.4422  0.0772 -0.8177
  844MOL0     N13856   9.559   3.778   1.142 -0.2310 -0.1750  0.2258
  844MOL0     N13857   9.469   3.871   1.170 -0.8657  0.3559 -0.1094
  844MOL0     C13858   8.524   3.951   0.402  1.5622  0.4439  0.0429
  844MOL0     C13859   8.441   4.030   0.326 -0.7134 -1.2442 -0.2243
  844MOL0     C13860   8.177   4.207   0.015 -0.0378 -0.4217 -0.5005
  844MOL0     C13861   8.038   4.207   0.012  1.4587 -0.3691  0.2741
  844MOL0     C13862   7.962   4.291  -0.074 -0.2849  0.4686  0.3807
  844MOL0     C13863   8.027   4.380  -0.160 -0.5656  0.2719  0.4558
  844MOL0     O13864   7.966   4.470  -0.243  0.8212 -0.8566  0.1892
  844MOL0     C13865   7.837   4.533  -0.207  0.3010 -0.1617  0.1142
  844MOL0     C13866   7.836   4.620  -0.084 -0.7923  0.4767  0.8714
  844MOL0     C13867   7.965   4.719  -0.101  0.3120  0.2962 -0.4107
  844MOL0     C13868   7.961   4.829   0.006  0.5096 -0.0320 -0.0734
  844MOL0     C13869   7.847   4.926  -0.004  0.1613 -0.0767 -0.5184
  844MOL0     C13870   7.748   4.998  -0.014 -0.7258 -0.7009 -0.9001
  844MOL0     C13871   8.166   4.372  -0.175  0.4932 -0.0963 -0.0575
  844MOL0     C13872   8.237   4.280  -0.089 -0.4919 -0.2742  0.3280
  844MOL0     H13873   8.607   4.006   0.034  1.3699  2.5497  0.8521
  844MOL0     H13874   8.749   3.867   0.172 -0.4484 -0.0264 -0.8095
  844MOL0     H13875   8.730   3.962   0.576  0.4921  1.7719 -4.1121
  844MOL0     H13876   8.775   3.794   0.604 -2.1749 -1.5590 -1.6646
  844MOL0     H13877   8.988   3.846   0.468  0.5800  0.9081 -0.7397
  844MOL0     H13878   8.910   3.985   0.398  0.5672 -1.3441 -0.6238
  844MOL0     H13879   9.072   4.079   0.561 -1.9183  0.5717 -1.6490
  844MOL0     H13880   8.916   4.087   0.633 -0.8305 -0.0478  1.5075
  844MOL0     H13881   8.968   3.840   0.738 -1.4243  1.0649 -0.7515
  844MOL0     H13882   9.121   3.861   0.674 -0.8960 -1.1382  0.1201
  844MOL0     H13883   9.164   4.067   0.822 -0.6786 -0.0664  2.5992
  844MOL0     H13884   9.001   4.062   0.873  0.5717 -0.6255  0.6736
  844MOL0     H13885   9.017   3.843   0.961 -1.1686 -0.1976 -3.3707
  844MOL0     H13886   9.175   3.815   0.890  1.5642  0.5881 -0.5205
  844MOL0     H13887   9.116   4.054   1.076 -1.7445  0.7445 -3.5949
  844MOL0     H13888   9.169   3.899   1.140  1.2855  0.0021 -0.8700
  844MOL0     H13889   9.335   4.087   1.140 -1.1726  1.6972 -2.1466
  844MOL0     H13890   9.334   4.074   0.964  0.3742 -0.3949  0.4204
  844MOL0     H13891   9.460   3.901   0.853  0.1376 -1.2661 -0.5974
  844MOL0     H13892   9.733   3.639   1.002  1.4658  1.2112  0.2611
  844MOL0     H13893   9.622   3.618   0.874  0.2491 -0.0601  0.0298
  844MOL0     H13894   9.694   3.850   0.769 -3.6841  3.3912  4.8455
  844MOL0     H13895   9.826   3.713   0.794 -1.0007 -1.7123  3.1684
  844MOL0     H13896   9.896   3.853   1.005  1.0183  4.0722  1.2254
  844MOL0     H13897   9.782   3.964   0.962  2.2584  2.1503 -1.5998
  844MOL0     H13898  10.016   3.881   0.782  1.6315  1.7507 -0.8106
  844MOL0     H13899   9.998   4.036   0.873  0.1844 -2.6694  3.4945
  844MOL0     H13900   9.810   4.199   0.541 -0.5557 -2.1062 -1.0677
  844MOL0     H13901   9.865   4.466   0.465 -0.7216 -0.5208 -0.9314
  844MOL0     H13902   9.939   4.424   0.309  0.9723  0.5372  1.2331
  844MOL0     H13903   9.810   4.333   0.362 -1.1605  2.2129 -2.3659
  844MOL0     H13904  10.430   4.531   0.295 -0.9535 -1.2839  0.2901
  844MOL0     H13905  10.524   4.759   0.242  0.3441 -0.5724  1.6144
  844MOL0     H13906  10.224   5.054   0.261 -0.5923 -0.5868  0.0375
  844MOL0     H13907  10.378   5.058   0.348  1.2034 -1.1095  0.3472
  844MOL0     H13908  10.451   5.214   0.122 -1.3971 -1.9658 -2.4302
  844MOL0     H13909  10.278   5.220   0.115  1.8807  0.0457 -2.1923
  844MOL0     H13910  10.434   5.272   0.373 -1.6296  3.3249  2.7261
  844MOL0     H13911  10.257   5.309   0.319 -0.8779  0.2514 -3.7643
  844MOL0     H13912  10.466   5.481   0.321  0.7848 -2.1536  0.1431
  844MOL0     H13913  10.451   5.439   0.142 -3.0887 -0.3036 -2.2044
  844MOL0     H13914  10.217   5.512   0.313  1.3456 -2.6776  0.6687
  844MOL0     H13915  10.231   5.518   0.135 -0.2716  4.0689 -0.7288
  844MOL0     H13916  10.372   5.711   0.321  1.2078 -2.5038  0.0224
  844MOL0     H13917  10.400   5.690   0.145  0.8330  0.3470  0.3850
  844MOL0     H13918  10.127   5.762   0.280  0.4014  0.7792  1.0913
  844MOL0     H13919  10.150   5.768   0.108  0.6265  2.8780 -0.3720
  844MOL0     H13920  10.285   5.943   0.321  1.0545 -2.2545  0.0977
  844MOL0     H13921  10.157   5.983   0.200  0.5938  0.3482 -1.3622
  844MOL0     H13922  10.128   4.896   0.163  1.6656  0.9699 -0.9281
  844MOL0     H13923  10.039   4.681   0.254  0.0732 -0.3430  0.8061
  844MOL0     H13924  10.290   4.247   0.629 -1.0069  3.2828  0.9070
  844MOL0     H13925  10.176   4.053   0.719 -1.0437  0.6510  0.7855
  844MOL0     H13926   8.502   3.938   0.507  2.2014 -2.8227 -0.1285
  844MOL0     H13927   8.353   4.062   0.381  0.1448 -1.7555  1.5079
  844MOL0     H13928   7.977   4.142   0.074 -2.3612  2.3479 -0.3210
  844MOL0     H13929   7.855   4.295  -0.062 -0.4908 -1.3953 -0.5762
  844MOL0     H13930   7.810   4.590  -0.297 -1.3423 -0.4142  0.4132
  844MOL0     H13931   7.759   4.457  -0.197 -0.1602  0.1071 -1.2640
  844MOL0     H13932   7.853   4.565   0.009  0.6074 -2.5991 -1.0331
  844MOL0     H13933   7.743   4.677  -0.076 -1.0016 -0.0316  2.4173
  844MOL0     H13934   7.944   4.767  -0.197  1.1128  1.1955 -0.1572
  844MOL0     H13935   8.056   4.660  -0.115  0.6570  0.8078 -0.3672
  844MOL0     H13936   8.052   4.888  -0.010  0.0977  0.4739 -0.6108
  844MOL0     H13937   7.963   4.789   0.108 -1.4644  0.3580  0.1659
  844MOL0     H13938   7.662   5.061  -0.030 -0.3558  0.3725  1.0510
  844MOL0     H13939   8.215   4.421  -0.259 -0.0541  0.4744 -0.0562
  844MOL0     H13940   8.340   4.259  -0.116 -1.3204  0.0391 -3.7690
  845MOL0     O13941   3.812   0.921   1.399 -0.7637 -0.9899 -0.6035
  845MOL0     C13942   3.747   0.932   1.501 -0.2142  0.0530 -0.5149
  845MOL0     O13943   3.735   1.051   1.570 -0.7075 -0.1797  0.4502
  845MOL0     C13944   3.812   1.161   1.528 -0.0146  0.9762  1.5539
  845MOL0     C13945   3.806   1.219   1.397 -0.2644  0.1448  0.6659
  845MOL0     C13946   3.894   1.319   1.362  0.9767  0.5278  0.9694
  845MOL0     C13947   3.984   1.363   1.457 -0.1453 -0.2757  0.7901
  845MOL0     O13948   4.076   1.465   1.442  0.0072 -0.0206  0.3427
  845MOL0     C13949   4.078   1.540   1.316 -1.0259 -1.0178  0.0799
  845MOL0     C13950   4.156   1.464   1.211  0.2602  0.4968  0.9420
  845MOL0     C13951   4.310   1.469   1.243  0.1735 -0.1692 -0.5049
  845MOL0     C13952   4.387   1.372   1.151 -0.9103  0.8211 -0.1458
  845MOL0     C13953   4.536   1.417   1.143 -0.3656  0.5346  0.0578
  845MOL0     C13954   4.600   1.412   1.283 -0.2707  0.9098  0.6807
  845MOL0     C13955   4.743   1.419   1.252 -0.0635  0.0534 -0.3542
  845MOL0     C13956   4.844   1.442   1.370  0.0530  0.2330 -1.3927
  845MOL0     N13957   4.973   1.481   1.321  0.2468 -0.8851  0.4374
  845MOL0     C13958   5.039   1.425   1.206 -0.2728  0.1683  0.4097
  845MOL0     C13959   5.148   1.499   1.196 -0.6053  0.7211 -0.1023
  845MOL0     C13960   5.261   1.469   1.096 -0.3509 -0.2359  0.5822
  845MOL0     C13961   5.323   1.337   1.145  0.9426 -0.4346 -0.3820
  845MOL0     C13962   5.431   1.372   1.252  0.2936  0.4369  0.5733
  845MOL0     C13963   5.512   1.241   1.284 -0.9920 -0.4241  0.2569
  845MOL0     O13964   5.644   1.264   1.310  0.4826 -0.2617  0.5611
  845MOL0     C13965   5.723   1.165   1.358 -0.0751  0.3418 -0.4836
  845MOL0     C13966   5.699   1.025   1.362 -0.3025  0.3635  0.2308
  845MOL0     C13967   5.787   0.931   1.412 -0.8933  0.2107  0.1375
  845MOL0     C13968   5.754   0.789   1.421  0.3072 -0.5259  0.5558
  845MOL0     C13969   5.922   0.981   1.444  0.0840 -0.7637  0.4215
  845MOL0     C13970   6.030   0.902   1.512 -0.0190  0.4478  0.0268
  845MOL0     O13971   5.994   0.803   1.606  0.5446  0.1323 -0.6188
  845MOL0     C13972   6.106   0.739   1.656  1.3843  0.5861  0.2843
  845MOL0     C13973   6.138   0.755   1.793 -0.5176 -0.1720 -0.2542
  845MOL0     C13974   6.226   0.665   1.858 -0.1497 -1.0519  0.9181
  845MOL0     C13975   6.290   0.567   1.776 -0.1898 -0.2476 -0.1783
  845MOL0     O13976   6.378   0.484   1.845 -0.2321 -0.3880  0.0983
  845MOL0     C13977   6.349   0.346   1.831 -0.0237 -0.3683  1.1704
  845MOL0     C13978   6.364   0.288   1.970 -0.4347 -0.0461  1.0221
  845MOL0     C13979   6.336   0.139   1.969  0.4679  0.1608  0.0711
  845MOL0     C13980   6.362   0.086   2.107  0.5256 -0.4826 -0.4255
  845MOL0     C13981   6.356  -0.071   2.114 -0.0674 -0.3776  0.9425
  845MOL0     C13982   6.212  -0.117   2.098  0.5895 -0.2492  0.8196
  845MOL0     C13983   6.177  -0.167   1.954 -1.4408 -0.5142 -0.3885
  845MOL0     C13984   6.038  -0.241   1.955  0.6437 -0.0428 -0.3062
  845MOL0    Cl13985   6.006  -0.238   1.781 -0.2573  0.3519  0.1690
  845MOL0     C13986   6.251   0.548   1.646 -0.9326 -0.7301  0.4564
  845MOL0     C13987   6.166   0.636   1.582  0.7078  0.0866  0.0007
  845MOL0     O13988   6.141   0.932   1.468  0.2892 -0.9203 -0.1490
  845MOL0     C13989   5.946   1.120   1.423  0.2544 -0.9283 -0.5065
  845MOL0     C13990   5.845   1.213   1.388  0.2372 -0.4316  0.6985
  845MOL0     N13991   5.141   1.618   1.266 -0.3376 -0.6806 -0.0354
  845MOL0     N13992   5.032   1.597   1.335 -0.2163  0.2673 -0.2030
  845MOL0     C13993   3.985   1.309   1.584 -0.5332 -1.0653 -0.6542
  845MOL0     C13994   3.907   1.202   1.620 -0.0926 -0.5252 -0.4130
  845MOL0     C13995   3.683   0.808   1.546  0.1890 -0.4696  0.1365
  845MOL0     C13996   3.671   0.773   1.680 -0.2387  0.2114  0.1610
  845MOL0     C13997   3.606   0.652   1.715 -0.1836  0.1963  0.1013
  845MOL0     C13998   3.566   0.559   1.613  0.7294  0.3950 -0.3856
  845MOL0     O13999   3.507   0.446   1.659  0.1853  0.1735 -0.4332
  845MOL0     C14000   3.443   0.355   1.569 -0.4039  0.7673 -0.8381
  845MOL0     C14001   3.363   0.242   1.644  0.3755  0.5234 -0.0099
  845MOL0     C14002   3.381   0.098   1.594  0.0588  0.7231 -0.8582
  845MOL0     C14003   3.279  -0.001   1.646 -0.2859  1.0285  0.3633
  845MOL0     C14004   3.302  -0.139   1.598  0.6055  0.5959 -0.3110
  845MOL0     C14005   3.316  -0.254   1.561 -0.3164 -0.3468 -0.2068
  845MOL0     C14006   3.593   0.586   1.481  0.8156 -0.1554  0.3852
  845MOL0     C14007   3.647   0.708   1.441  0.0653  0.3012 -0.8718
  845MOL0     H14008   3.728   1.175   1.335  0.6164  0.6206 -0.8135
  845MOL0     H14009   3.867   1.359   1.265 -1.1063 -2.6419  0.0821
  845MOL0     H14010   3.979   1.569   1.279 -0.5124 -0.0024 -0.5445
  845MOL0     H14011   4.138   1.629   1.337 -2.2758 -0.8883  3.8987
  845MOL0     H14012   4.108   1.367   1.193 -1.4161  1.6846 -1.4953
  845MOL0     H14013   4.133   1.533   1.129 -1.3378 -1.4627 -0.3460
  845MOL0     H14014   4.356   1.567   1.228  1.1113 -0.4961  0.1173
  845MOL0     H14015   4.326   1.448   1.349  0.6948 -0.1319 -0.5748
  845MOL0     H14016   4.379   1.268   1.182  0.6717  0.1447 -1.8524
  845MOL0     H14017   4.341   1.384   1.053 -1.4898 -0.4982 -0.0554
  845MOL0     H14018   4.588   1.357   1.068 -1.9534 -1.9267  0.7787
  845MOL0     H14019   4.537   1.520   1.107 -0.5290  0.2750 -0.7056
  845MOL0     H14020   4.566   1.488   1.354 -0.5376 -0.1790  1.7462
  845MOL0     H14021   4.591   1.325   1.349  0.2211  0.6323  0.3893
  845MOL0     H14022   4.761   1.336   1.184 -1.7801  1.3534 -2.5188
  845MOL0     H14023   4.752   1.499   1.178 -4.9594  0.2930 -1.0267
  845MOL0     H14024   4.881   1.355   1.425  2.4993  0.5698 -2.4064
  845MOL0     H14025   4.797   1.515   1.438 -0.8411 -0.0808 -1.6643
  845MOL0     H14026   5.012   1.333   1.155 -2.3756  0.2992  1.2041
  845MOL0     H14027   5.218   1.459   0.995  0.1562  2.0482  0.0891
  845MOL0     H14028   5.333   1.550   1.081  0.7133 -1.5260 -2.0577
  845MOL0     H14029   5.356   1.273   1.062  0.7585  1.0860 -1.6909
  845MOL0     H14030   5.244   1.285   1.200  0.7022  4.1204  4.3211
  845MOL0     H14031   5.396   1.413   1.348 -1.0566 -1.7585  1.0848
  845MOL0     H14032   5.490   1.454   1.209 -0.5217  0.1276 -1.2228
  845MOL0     H14033   5.507   1.184   1.191 -1.9933  1.2798 -0.7962
  845MOL0     H14034   5.472   1.178   1.365  2.2827 -0.6525  1.8770
  845MOL0     H14035   5.603   0.983   1.334 -0.6007 -0.4104  2.2067
  845MOL0     H14036   5.716   0.771   1.522 -2.0328  0.7904 -0.0070
  845MOL0     H14037   5.673   0.768   1.350 -0.6883  2.6332  0.6187
  845MOL0     H14038   5.842   0.727   1.401 -0.4444 -2.0819  1.8470
  845MOL0     H14039   6.080   0.828   1.849 -3.3151 -2.1230 -0.4130
  845MOL0     H14040   6.239   0.667   1.965 -0.8468  0.4886  0.9985
  845MOL0     H14041   6.251   0.324   1.787  1.2756 -2.1880 -1.0860
  845MOL0     H14042   6.424   0.296   1.769 -0.1629 -0.7379  1.2952
  845MOL0     H14043   6.469   0.296   1.999  0.2262  0.7680 -1.3236
  845MOL0     H14044   6.293   0.342   2.032 -0.9027  0.7881 -0.1914
  845MOL0     H14045   6.417   0.106   1.903  1.4406  0.9728  0.8361
  845MOL0     H14046   6.246   0.108   1.915  1.8701  0.5227 -2.6850
  845MOL0     H14047   6.456   0.124   2.148  0.7015 -0.3169 -0.9784
  845MOL0     H14048   6.290   0.119   2.182 -0.2042  0.6797 -1.5887
  845MOL0     H14049   6.402  -0.095   2.210  0.7171 -1.8211  0.2332
  845MOL0     H14050   6.422  -0.115   2.039  0.5570  0.0209  1.2459
  845MOL0     H14051   6.202  -0.205   2.163 -5.6430 -0.8404 -0.3482
  845MOL0     H14052   6.144  -0.036   2.125  0.4289  0.0912 -0.5440
  845MOL0     H14053   6.256  -0.233   1.916 -0.6845  1.4834 -2.5172
  845MOL0     H14054   6.170  -0.081   1.887 -0.7942 -0.3226 -0.2143
  845MOL0     H14055   5.960  -0.184   2.005  1.0281 -0.0651  0.3400
  845MOL0     H14056   6.033  -0.346   1.987 -1.3825  0.2483  0.4427
  845MOL0     H14057   6.289   0.459   1.598 -2.7204 -1.7969  0.9192
  845MOL0     H14058   6.141   0.624   1.477  2.9704 -0.5179 -0.5238
  845MOL0     H14059   6.039   1.166   1.453 -0.6563 -0.7768  2.4776
  845MOL0     H14060   5.871   1.317   1.398 -3.0445  0.4643  1.0344
  845MOL0     H14061   4.065   1.339   1.651 -2.7803 -0.2344  1.8552
  845MOL0     H14062   3.910   1.151   1.716 -2.6978 -4.6367 -2.2429
  845MOL0     H14063   3.702   0.840   1.760  1.2615 -0.3040  0.0461
  845MOL0     H14064   3.573   0.645   1.818  2.0680 -0.0315  0.8635
  845MOL0     H14065   3.380   0.406   1.495 -0.9248  2.3318  0.6013
  845MOL0     H14066   3.527   0.296   1.530  0.9256 -0.3183  3.1903
  845MOL0     H14067   3.258   0.271   1.632  0.3877  0.0919 -1.2739
  845MOL0     H14068   3.391   0.236   1.749 -1.3051 -0.9824  0.4073
  845MOL0     H14069   3.481   0.061   1.619 -0.2352 -1.2913 -2.4273
  845MOL0     H14070   3.376   0.106   1.485  1.2572  2.4122 -0.8272
  845MOL0     H14071   3.175   0.034   1.640 -0.9411 -1.0367 -1.7881
  845MOL0     H14072   3.305  -0.014   1.752  1.9187 -3.1295 -0.4716
  845MOL0     H14073   3.329  -0.355   1.529  1.5818 -1.2968  3.0094
  845MOL0     H14074   3.560   0.510   1.411 -0.1126 -0.5380  1.2241
  845MOL0     H14075   3.666   0.712   1.334 -0.2631  3.6996 -0.9065
  846MOL0     O14076   3.490   6.548   2.835 -0.1193  0.1081  0.1372
  846MOL0     C14077   3.479   6.437   2.779 -0.7120 -0.1806  0.4950
  846MOL0     O14078   3.490   6.413   2.647  0.5615 -0.2328  0.2537
  846MOL0     C14079   3.521   6.510   2.559  0.1757 -0.1354 -0.0862
  846MOL0     C14080   3.470   6.647   2.567 -0.0081 -0.1179 -0.3301
  846MOL0     C14081   3.494   6.730   2.455  0.6849  0.0885 -0.5997
  846MOL0     C14082   3.568   6.688   2.348  0.5864 -0.4992  0.2970
  846MOL0     O14083   3.570   6.768   2.229  0.2598  0.6490 -0.8018
  846MOL0     C14084   3.661   6.730   2.128  0.1843  0.6479 -0.3627
  846MOL0     C14085   3.679   6.839   2.022 -0.4685  0.0093  1.3576
  846MOL0     C14086   3.721   6.970   2.082  1.0002  0.0674 -0.6242
  846MOL0     C14087   3.596   7.062   2.087 -0.2674  0.0296  0.5853
  846MOL0     C14088   3.626   7.206   2.128  0.2061  0.1919 -0.0360
  846MOL0     C14089   3.493   7.272   2.164 -0.4183  0.7170  0.2166
  846MOL0     C14090   3.483   7.413   2.123 -0.1030 -0.3016  0.3527
  846MOL0     C14091   3.345   7.483   2.139 -0.5011  0.8382  0.2150
  846MOL0     N14092   3.244   7.440   2.040 -1.0366  0.0564 -0.3141
  846MOL0     C14093   3.262   7.474   1.908 -0.7332  0.5126 -0.2459
  846MOL0     C14094   3.174   7.403   1.843 -0.2343  1.6455  0.1166
  846MOL0     C14095   3.138   7.403   1.697  0.4396 -0.4470 -0.2782
  846MOL0     C14096   3.261   7.385   1.617 -0.4781  0.6100  0.6861
  846MOL0     C14097   3.338   7.248   1.652 -0.6050  0.8404 -0.0702
  846MOL0     C14098   3.487   7.257   1.615 -0.1148  1.0546  0.0937
  846MOL0     O14099   3.575   7.154   1.673  0.7198 -0.1560 -0.5162
  846MOL0     C14100   3.708   7.182   1.653 -0.4121 -0.6071 -0.3385
  846MOL0     C14101   3.801   7.142   1.750 -0.5224  0.2042  0.4667
  846MOL0     C14102   3.940   7.116   1.718  0.1335 -0.1336 -0.7044
  846MOL0     C14103   4.023   7.079   1.839  0.0844  0.3615 -0.1189
  846MOL0     C14104   3.987   7.160   1.594  0.0697 -0.3972  0.6124
  846MOL0     C14105   4.117   7.126   1.544 -0.3593  0.4785  0.8161
  846MOL0     O14106   4.163   7.204   1.432  1.1960  0.7075  0.8793
  846MOL0     C14107   4.289   7.196   1.373  0.3597  0.6860  0.9185
  846MOL0     C14108   4.376   7.083   1.378 -0.0206 -0.9306  0.3005
  846MOL0     C14109   4.510   7.107   1.338 -0.0056 -0.3853 -0.8129
  846MOL0     C14110   4.558   7.232   1.290 -0.5847  0.3243  0.5351
  846MOL0     O14111   4.697   7.242   1.259 -0.0019  0.2219 -0.4470
  846MOL0     C14112   4.733   7.338   1.153 -0.9410 -0.3035 -0.6320
  846MOL0     C14113   4.672   7.312   1.012  1.2610 -0.8417  0.5924
  846MOL0     C14114   4.727   7.185   0.951 -0.5097  0.1924  0.8336
  846MOL0     C14115   4.645   7.146   0.820 -0.7335 -0.9075 -0.7200
  846MOL0     C14116   4.507   7.081   0.850  0.3839 -0.1303 -0.3582
  846MOL0     C14117   4.447   7.031   0.715  0.6918 -0.3647 -0.7053
  846MOL0     C14118   4.372   7.142   0.639 -0.4995 -0.0753  0.9054
  846MOL0     C14119   4.363   7.111   0.485 -0.5531 -0.3935  0.4063
  846MOL0    Cl14120   4.539   7.103   0.406 -0.1470  0.0984 -0.1586
  846MOL0     C14121   4.467   7.336   1.276  0.7559 -0.8024  0.7912
  846MOL0     C14122   4.333   7.310   1.309 -1.2742 -0.8683 -0.3403
  846MOL0     O14123   4.188   7.042   1.594  0.1864 -0.4421  0.1002
  846MOL0     C14124   3.895   7.220   1.505  0.1333  0.6290  0.1441
  846MOL0     C14125   3.758   7.231   1.538  0.3118 -0.2134  0.4905
  846MOL0     N14126   3.104   7.324   1.937  0.0228 -0.6195  0.0076
  846MOL0     N14127   3.155   7.339   2.055 -0.8743 -0.0893 -0.7058
  846MOL0     C14128   3.613   6.549   2.344  0.9871 -1.7135 -0.7679
  846MOL0     C14129   3.590   6.457   2.447 -0.8015 -0.1740  0.1698
  846MOL0     C14130   3.437   6.320   2.871 -1.4353 -0.1753  0.1290
  846MOL0     C14131   3.490   6.194   2.855  0.1026 -0.8908  0.3996
  846MOL0     C14132   3.442   6.087   2.923 -0.6959 -0.5346 -0.0995
  846MOL0     C14133   3.349   6.104   3.021 -0.9445 -0.2968  1.2315
  846MOL0     O14134   3.317   5.996   3.090  0.1819  1.0096  0.1245
  846MOL0     C14135   3.233   6.005   3.205  0.1868  1.0820 -0.4147
  846MOL0     C14136   3.098   5.972   3.136 -0.3230 -0.5931 -0.3244
  846MOL0     C14137   2.985   6.001   3.233  0.0493  0.3649 -0.0930
  846MOL0     C14138   2.848   5.973   3.167  1.0357 -0.1628  0.7822
  846MOL0     C14139   2.821   6.053   3.045  0.2207  0.0524 -0.8130
  846MOL0     C14140   2.805   6.121   2.949 -0.5232 -0.8746  0.2113
  846MOL0     C14141   3.295   6.234   3.053  0.2995  0.1480 -0.3508
  846MOL0     C14142   3.345   6.347   2.977  0.4089  0.1585  0.3435
  846MOL0     H14143   3.430   6.698   2.654  0.5670 -1.5086  0.7987
  846MOL0     H14144   3.461   6.834   2.447  1.2374  0.2491 -0.8629
  846MOL0     H14145   3.763   6.702   2.157  0.1069 -0.4953 -1.1305
  846MOL0     H14146   3.634   6.642   2.069  2.3512  1.3060 -2.5114
  846MOL0     H14147   3.764   6.807   1.960 -2.5224 -0.5630 -1.3505
  846MOL0     H14148   3.595   6.852   1.954  0.8753  0.3934 -0.3079
  846MOL0     H14149   3.766   6.963   2.182 -0.0069 -3.0179 -0.2903
  846MOL0     H14150   3.795   7.007   2.011 -0.8764  2.4037 -1.5040
  846MOL0     H14151   3.553   7.070   1.987  2.0243  0.7186 -0.4241
  846MOL0     H14152   3.523   7.019   2.155 -0.6382 -0.2149  0.0344
  846MOL0     H14153   3.703   7.207   2.206  1.3222 -3.5833 -0.8691
  846MOL0     H14154   3.683   7.262   2.053  2.0276  2.1419  2.5926
  846MOL0     H14155   3.404   7.236   2.112 -1.6434  0.0665  2.6244
  846MOL0     H14156   3.486   7.267   2.273 -2.8108  0.3953  0.1017
  846MOL0     H14157   3.537   7.475   2.195 -1.0953  1.4704 -0.3398
  846MOL0     H14158   3.521   7.420   2.021 -0.3144  0.9961  0.3407
  846MOL0     H14159   3.351   7.588   2.110  0.3561  0.2507 -1.9005
  846MOL0     H14160   3.296   7.489   2.237 -3.3073 -0.2640 -1.0229
  846MOL0     H14161   3.328   7.548   1.864  1.6026 -1.1476  0.2985
  846MOL0     H14162   3.076   7.317   1.670  1.8863 -0.8561 -2.5973
  846MOL0     H14163   3.092   7.496   1.661 -2.7902 -2.3242 -1.4337
  846MOL0     H14164   3.331   7.464   1.646 -0.3913  0.9951 -0.5269
  846MOL0     H14165   3.240   7.385   1.510 -1.7384 -0.0359  0.9119
  846MOL0     H14166   3.297   7.162   1.600  2.8025 -1.2251  0.3117
  846MOL0     H14167   3.322   7.234   1.760 -3.0322  0.8646 -0.3759
  846MOL0     H14168   3.525   7.352   1.652 -1.2153  1.1184  1.1599
  846MOL0     H14169   3.479   7.250   1.506 -0.3266  0.5313  0.1351
  846MOL0     H14170   3.747   7.111   1.839 -0.6763 -1.5687 -0.2066
  846MOL0     H14171   4.129   7.104   1.829  0.6858 -0.6440  2.7988
  846MOL0     H14172   3.985   7.124   1.932 -1.5504  0.6563 -0.8844
  846MOL0     H14173   4.002   6.972   1.838 -2.3851  0.7461  1.4662
  846MOL0     H14174   4.336   6.985   1.403 -2.7503 -0.0297 -0.1994
  846MOL0     H14175   4.574   7.019   1.337  1.7921  0.6811  2.7692
  846MOL0     H14176   4.695   7.437   1.178  0.6136 -0.0678  0.9811
  846MOL0     H14177   4.841   7.343   1.143 -1.1066  1.4665 -2.0347
  846MOL0     H14178   4.564   7.301   1.020  1.2230 -1.5073 -0.6555
  846MOL0     H14179   4.686   7.402   0.951  1.2334  0.7156  2.7485
  846MOL0     H14180   4.722   7.115   1.035  0.5187  1.5185  2.0514
  846MOL0     H14181   4.833   7.203   0.928 -1.1667  1.0644 -1.9881
  846MOL0     H14182   4.641   7.242   0.768 -1.6892  0.3751  1.5521
  846MOL0     H14183   4.706   7.073   0.765 -0.8716 -0.9867 -0.7669
  846MOL0     H14184   4.431   7.129   0.912 -0.1128 -3.8815  2.3051
  846MOL0     H14185   4.536   7.000   0.918 -1.1487 -1.3563 -1.0959
  846MOL0     H14186   4.530   6.981   0.664  4.5761 -2.0248  5.9782
  846MOL0     H14187   4.376   6.952   0.740 -1.4880  2.4613  3.1188
  846MOL0     H14188   4.426   7.237   0.645 -0.9208  0.2365 -0.1905
  846MOL0     H14189   4.272   7.163   0.680 -1.2445 -1.4541 -0.1413
  846MOL0     H14190   4.305   7.195   0.447  1.5427  1.3601  0.8751
  846MOL0     H14191   4.322   7.010   0.494  0.0106 -0.5047  2.0860
  846MOL0     H14192   4.495   7.438   1.249  1.8338 -0.7740  1.8995
  846MOL0     H14193   4.270   7.398   1.323  0.1238 -0.0925  1.4971
  846MOL0     H14194   3.925   7.247   1.405  1.7179  0.6656  0.6034
  846MOL0     H14195   3.704   7.280   1.458  2.2870  2.0808  0.4693
  846MOL0     H14196   3.671   6.501   2.267  1.2060  1.8534 -3.0424
  846MOL0     H14197   3.623   6.354   2.453 -0.8404 -0.1025  3.4123
  846MOL0     H14198   3.565   6.182   2.777 -1.2049 -4.6954 -0.4809
  846MOL0     H14199   3.477   5.985   2.913 -1.0417 -0.5451 -1.4884
  846MOL0     H14200   3.266   5.932   3.279  0.8916 -0.5809 -2.2826
  846MOL0     H14201   3.225   6.096   3.265 -3.5795 -0.9992  2.7034
  846MOL0     H14202   3.101   5.866   3.109  2.2178 -1.2270  1.9842
  846MOL0     H14203   3.086   6.033   3.046 -2.1260  0.1117  0.3291
  846MOL0     H14204   2.981   6.103   3.271 -1.2735  0.6141 -0.8377
  846MOL0     H14205   2.992   5.942   3.325 -1.4862  0.1398 -0.0962
  846MOL0     H14206   2.771   5.992   3.242 -0.1808  1.2900 -0.7493
  846MOL0     H14207   2.839   5.866   3.148  0.3619 -0.0945  0.7124
  846MOL0     H14208   2.790   6.175   2.857 -2.0559 -0.7470  0.5121
  846MOL0     H14209   3.222   6.241   3.132  0.3344 -0.2243 -0.2867
  846MOL0     H14210   3.308   6.448   2.985 -1.2965 -0.2923 -1.3275
  847MOL0     O14211   8.237  10.797   1.602  1.1259 -0.7732 -0.2520
  847MOL0     C14212   8.272  10.723   1.508  0.0958 -0.3335 -0.9413
  847MOL0     O14213   8.198  10.670   1.403 -0.1575 -0.3045 -0.5357
  847MOL0     C14214   8.104  10.757   1.357  0.2688  0.7497 -1.2302
  847MOL0     C14215   8.110  10.801   1.226  0.6399 -0.0686 -0.1428
  847MOL0     C14216   8.005  10.880   1.185 -0.0602  0.2274  0.6178
  847MOL0     C14217   7.902  10.922   1.267 -1.2470  0.8551 -0.4306
  847MOL0     O14218   7.818  11.022   1.244  0.3080  0.5342  0.1027
  847MOL0     C14219   7.738  11.023   1.120 -0.1088  0.2772 -0.5346
  847MOL0     C14220   7.642  11.148   1.125  0.1408  0.2008  0.3697
  847MOL0     C14221   7.731  11.275   1.148  0.6225 -0.3882 -0.2893
  847MOL0     C14222   7.722  11.317   1.296  0.1042  0.0946  0.2601
  847MOL0     C14223   7.801  11.451   1.310  0.5139  0.6520 -0.6173
  847MOL0     C14224   7.837  11.480   1.456 -0.0183 -0.4372  0.4560
  847MOL0     C14225   7.929  11.608   1.450  0.0388 -0.0808  0.6373
  847MOL0     C14226   7.887  11.720   1.558  0.1147  1.4831 -0.1934
  847MOL0     N14227   7.760  11.789   1.530 -0.0780  0.3307 -0.1931
  847MOL0     C14228   7.637  11.732   1.546 -0.2535 -0.5020 -0.6126
  847MOL0     C14229   7.549  11.823   1.509 -0.2865 -0.4216 -0.5649
  847MOL0     C14230   7.413  11.772   1.473  0.2978  0.1461  0.0298
  847MOL0     C14231   7.316  11.886   1.446 -0.3899  0.3023 -0.3473
  847MOL0     C14232   7.198  11.849   1.356  0.8474 -0.1194  0.3862
  847MOL0     C14233   7.091  11.963   1.332  0.7259  1.1771 -0.0304
  847MOL0     O14234   7.006  11.945   1.214 -0.5265  0.2611  0.0675
  847MOL0     C14235   6.951  12.063   1.149 -0.4356 -0.2248 -0.2744
  847MOL0     C14236   6.953  12.188   1.210 -0.5361  0.5456  0.2680
  847MOL0     C14237   6.898  12.292   1.145  0.4578 -0.1430  0.4192
  847MOL0     C14238   6.878  12.413   1.226  0.0450  0.6443 -0.0840
  847MOL0     C14239   6.852  12.289   1.007 -0.2100 -0.2783  0.3965
  847MOL0     C14240   6.792  12.396   0.927  0.7894  0.7104 -0.1711
  847MOL0     O14241   6.687  12.364   0.856  0.0341  0.0798 -0.4714
  847MOL0     C14242   6.629  12.447   0.751  0.7774 -0.5906 -0.2946
  847MOL0     C14243   6.709  12.469   0.636 -0.2766  0.3630 -0.0004
  847MOL0     C14244   6.667  12.556   0.535  0.2345 -0.8833  0.6279
  847MOL0     C14245   6.537  12.617   0.538  0.4370  1.2033  0.1112
  847MOL0     O14246   6.488  12.689   0.427  0.0413  0.0393  0.1994
  847MOL0     C14247   6.531  12.662   0.299 -0.2498  0.8457  0.4760
  847MOL0     C14248   6.417  12.699   0.212  0.2830 -0.2530  0.0153
  847MOL0     C14249   6.443  12.647   0.075  0.2246  0.4032  0.4114
  847MOL0     C14250   6.331  12.672  -0.031  0.5022 -0.6745  0.5059
  847MOL0     C14251   6.279  12.817  -0.043 -0.1156 -0.3413 -0.1239
  847MOL0     C14252   6.228  12.844  -0.191  0.2624  0.2043  0.4857
  847MOL0     C14253   6.157  12.989  -0.194 -0.1659 -0.1395  0.4141
  847MOL0     C14254   6.260  13.099  -0.170  0.2341 -0.5550  0.6006
  847MOL0    Cl14255   6.191  13.258  -0.128  0.3311 -0.0419  0.4540
  847MOL0     C14256   6.455  12.585   0.647 -0.2962 -0.0096 -0.5066
  847MOL0     C14257   6.504  12.508   0.760 -0.6277  0.4713  0.7102
  847MOL0     O14258   6.844  12.510   0.932 -0.4709 -0.0430 -0.5521
  847MOL0     C14259   6.841  12.157   0.955 -0.7114 -0.0791 -0.0872
  847MOL0     C14260   6.897  12.049   1.027 -0.4938  0.4182 -0.2252
  847MOL0     N14261   7.613  11.946   1.484 -1.1237 -0.6973 -0.4128
  847MOL0     N14262   7.742  11.927   1.504 -0.4515 -0.4048  0.2829
  847MOL0     C14263   7.898  10.862   1.392 -0.4879 -1.0366  0.3809
  847MOL0     C14264   7.999  10.782   1.439 -0.0987  0.0476  0.2179
  847MOL0     C14265   8.413  10.669   1.517  0.5388  0.7097 -0.5301
  847MOL0     C14266   8.482  10.676   1.636  0.1549  0.1862 -0.6356
  847MOL0     C14267   8.598  10.607   1.656 -0.1879  0.5848  0.0197
  847MOL0     C14268   8.663  10.545   1.549 -0.1008  0.4950 -0.3808
  847MOL0     O14269   8.788  10.506   1.557 -0.5308 -0.0679 -0.1034
  847MOL0     C14270   8.845  10.467   1.688  1.3515 -0.0527 -0.1149
  847MOL0     C14271   8.999  10.429   1.680  1.1670 -0.3886  1.2669
  847MOL0     C14272   9.023  10.344   1.564 -0.1572  1.2117  0.4093
  847MOL0     C14273   9.160  10.284   1.579  0.7084  0.3099 -0.9721
  847MOL0     C14274   9.254  10.394   1.547 -0.3296  0.0421  0.4899
  847MOL0     C14275   9.320  10.495   1.516  1.1407  1.0015 -1.1451
  847MOL0     C14276   8.595  10.545   1.426 -0.0374 -0.0878 -0.0365
  847MOL0     C14277   8.473  10.595   1.414  0.7266  0.0647  0.8298
  847MOL0     H14278   8.196  10.775   1.166  0.1943  0.6505 -1.1268
  847MOL0     H14279   8.003  10.902   1.079 -3.4522 -0.7143  0.3761
  847MOL0     H14280   7.784  11.051   1.025  1.0140  0.1703 -0.0329
  847MOL0     H14281   7.680  10.931   1.116 -1.1723  0.9597 -1.4570
  847MOL0     H14282   7.584  11.169   1.034  1.7668  0.7531 -0.5728
  847MOL0     H14283   7.576  11.125   1.210  2.1463 -3.7922  1.0748
  847MOL0     H14284   7.835  11.267   1.115  1.2893 -2.2361  2.0023
  847MOL0     H14285   7.672  11.353   1.100 -3.1558 -0.5371  3.4857
  847MOL0     H14286   7.618  11.338   1.322 -0.4183 -1.2219 -0.6864
  847MOL0     H14287   7.769  11.240   1.357  1.6668  0.1131 -0.8550
  847MOL0     H14288   7.894  11.436   1.254  1.0855 -2.6067  0.9323
  847MOL0     H14289   7.751  11.528   1.252 -0.1266 -1.2628 -2.7234
  847MOL0     H14290   7.751  11.497   1.521 -0.1862  0.7915 -0.0505
  847MOL0     H14291   7.902  11.408   1.506  1.2926  0.9229  0.7758
  847MOL0     H14292   8.031  11.571   1.462  1.2071  3.1775  1.8426
  847MOL0     H14293   7.917  11.653   1.351  2.2129  2.1197  1.3003
  847MOL0     H14294   7.959  11.803   1.562  0.1233  1.5684 -1.5372
  847MOL0     H14295   7.870  11.673   1.655 -1.6261  0.9770 -0.7055
  847MOL0     H14296   7.623  11.629   1.579 -3.8090  0.2060  0.6007
  847MOL0     H14297   7.426  11.707   1.386  2.8756 -3.8240  3.0403
  847MOL0     H14298   7.362  11.725   1.557 -0.5524  0.4847 -0.2850
  847MOL0     H14299   7.368  11.970   1.398 -1.4375 -0.4882 -3.1029
  847MOL0     H14300   7.285  11.913   1.547 -0.9534 -0.2843 -0.3590
  847MOL0     H14301   7.153  11.756   1.391 -0.9754  0.4875 -0.1845
  847MOL0     H14302   7.236  11.831   1.255  4.4540  1.8656  1.2151
  847MOL0     H14303   7.148  12.053   1.309  2.0758 -0.3246 -3.0752
  847MOL0     H14304   7.033  11.969   1.425  3.3956 -0.8091  1.9556
  847MOL0     H14305   6.974  12.186   1.316 -0.4265 -0.2645  0.2429
  847MOL0     H14306   6.773  12.444   1.230 -0.5116 -0.4379 -3.2212
  847MOL0     H14307   6.913  12.393   1.327  4.2302 -1.2576 -1.6917
  847MOL0     H14308   6.935  12.494   1.178  0.3164 -0.2631 -1.3334
  847MOL0     H14309   6.799  12.410   0.623 -0.5040 -0.0694  0.3830
  847MOL0     H14310   6.739  12.578   0.456 -1.8191 -1.4278 -1.4964
  847MOL0     H14311   6.621  12.721   0.280 -0.7918  1.6236  0.2477
  847MOL0     H14312   6.538  12.555   0.279  0.2915  0.8937  0.3899
  847MOL0     H14313   6.322  12.662   0.253 -0.5192 -0.7041 -2.1363
  847MOL0     H14314   6.416  12.809   0.210 -0.4338 -0.2542  0.0134
  847MOL0     H14315   6.463  12.541   0.093  3.9767  1.4736  4.2588
  847MOL0     H14316   6.536  12.687   0.032 -0.8397  1.8273 -0.6381
  847MOL0     H14317   6.371  12.625  -0.121  0.2561 -2.9062  1.5018
  847MOL0     H14318   6.250  12.604  -0.005  1.4071 -1.9200  0.1595
  847MOL0     H14319   6.374  12.870  -0.030  0.8958 -1.8367 -1.0387
  847MOL0     H14320   6.208  12.839   0.037 -0.1973  2.1334 -0.7851
  847MOL0     H14321   6.312  12.844  -0.261 -1.2881 -1.5378 -1.4719
  847MOL0     H14322   6.157  12.768  -0.222 -0.3933  1.6697 -1.8637
  847MOL0     H14323   6.083  13.001  -0.114  1.4155  1.7248  1.6760
  847MOL0     H14324   6.112  13.000  -0.293 -0.6794  0.5996  0.7245
  847MOL0     H14325   6.330  13.101  -0.255  0.0280 -1.8092  0.3777
  847MOL0     H14326   6.320  13.079  -0.081  2.7012  3.6946  0.1582
  847MOL0     H14327   6.350  12.609   0.631  0.7504  2.8343 -4.8513
  847MOL0     H14328   6.436  12.475   0.838 -2.5635  1.8250 -0.3183
  847MOL0     H14329   6.793  12.142   0.859 -2.1871 -0.2702  0.6553
  847MOL0     H14330   6.874  11.953   0.983 -1.9196  1.7855 -2.7192
  847MOL0     H14331   7.822  10.889   1.465 -2.0120  1.1796 -1.8453
  847MOL0     H14332   7.997  10.741   1.540 -0.1352  1.7227  0.9469
  847MOL0     H14333   8.428  10.710   1.724 -0.5330  0.8305 -1.2965
  847MOL0     H14334   8.652  10.609   1.751 -1.1024 -1.3490  0.6512
  847MOL0     H14335   8.843  10.552   1.757  0.9161  0.8084 -1.1518
  847MOL0     H14336   8.795  10.377   1.726  1.9128 -1.4046 -2.3729
  847MOL0     H14337   9.044  10.387   1.770  0.5547 -1.1213  1.2445
  847MOL0     H14338   9.052  10.524   1.668 -1.3181  0.8232 -1.2937
  847MOL0     H14339   9.005  10.394   1.469 -0.2565 -0.5964 -0.5654
  847MOL0     H14340   8.950  10.262   1.565 -2.3598  2.7436 -4.3844
  847MOL0     H14341   9.190  10.203   1.512  1.7114  0.7123 -1.0242
  847MOL0     H14342   9.175  10.248   1.681 -0.3367  0.3088 -0.8059
  847MOL0     H14343   9.400  10.565   1.508  1.4730  0.6520 -0.9270
  847MOL0     H14344   8.635  10.487   1.344  0.1879  0.1254 -0.0780
  847MOL0     H14345   8.422  10.580   1.319  3.9051  3.0094 -1.6262
  848MOL0     O14346  10.369   5.095   9.806 -0.6965 -0.1940 -0.4888
  848MOL0     C14347  10.464   5.021   9.798  0.2594 -0.2839 -0.1403
  848MOL0     O14348  10.603   5.053   9.798  0.2974  0.0855 -0.5660
  848MOL0     C14349  10.668   5.139   9.885  1.2406  0.7829 -0.4200
  848MOL0     C14350  10.797   5.177   9.857  0.2862  0.2591  0.4318
  848MOL0     C14351  10.858   5.269   9.946  1.0232  0.3153 -0.0248
  848MOL0     C14352  10.806   5.309  10.065  0.0043 -0.7236  0.0855
  848MOL0     O14353  10.888   5.402  10.135  0.1623 -0.0262  0.1031
  848MOL0     C14354  10.839   5.493  10.241  0.1770 -0.7703  0.0654
  848MOL0     C14355  10.916   5.618  10.247 -0.5879 -0.5304 -0.3398
  848MOL0     C14356  10.905   5.682  10.391 -0.9190  0.5470  0.1729
  848MOL0     C14357  11.002   5.793  10.406  0.6367  0.1246  0.5430
  848MOL0     C14358  11.017   5.849  10.543 -0.1907  0.6279  0.6223
  848MOL0     C14359  10.888   5.902  10.607 -0.6235  0.6932 -0.1926
  848MOL0     C14360  10.853   6.045  10.567 -0.9099  0.3923  0.4671
  848MOL0     C14361  10.925   6.166  10.629  1.0437 -0.4868  0.5937
  848MOL0     N14362  10.885   6.198  10.770 -1.2656  0.0111 -0.1258
  848MOL0     C14363  10.936   6.302  10.846  0.2373 -0.1549 -0.8041
  848MOL0     C14364  10.851   6.314  10.951 -0.0728  0.1122 -0.7664
  848MOL0     C14365  10.862   6.430  11.049 -0.0403 -0.4934  0.5652
  848MOL0     C14366  10.988   6.398  11.127  0.2333 -0.5220  0.2000
  848MOL0     C14367  10.974   6.261  11.201 -1.4681 -0.4436 -0.9106
  848MOL0     C14368  11.088   6.234  11.295  0.0028 -0.4464 -0.5262
  848MOL0     O14369  11.118   6.099  11.312  0.2594  0.5380 -0.1235
  848MOL0     C14370  11.048   6.014  11.386  0.2485 -0.3803 -0.0067
  848MOL0     C14371  10.957   6.060  11.487 -0.3834  0.6514 -0.3856
  848MOL0     C14372  10.878   5.963  11.560 -0.6795 -0.0759 -0.2333
  848MOL0     C14373  10.808   6.002  11.684 -0.1312  0.7209  0.4968
  848MOL0     C14374  10.894   5.824  11.534  0.3460 -0.8333  0.4913
  848MOL0     C14375  10.813   5.713  11.599 -0.2725  0.8736 -1.2177
  848MOL0     O14376  10.870   5.596  11.601 -0.3054  0.4924 -1.2662
  848MOL0     C14377  10.823   5.498  11.678 -0.0668  0.4026 -0.1652
  848MOL0     C14378  10.739   5.499  11.786  0.4289 -0.5706 -0.1482
  848MOL0     C14379  10.704   5.390  11.860  0.0634  0.4942 -0.6293
  848MOL0     C14380  10.741   5.266  11.822  0.2928 -0.6268 -0.0215
  848MOL0     O14381  10.707   5.166  11.909  0.6037 -0.2214 -0.3802
  848MOL0     C14382  10.689   5.034  11.868 -0.6665 -0.1471 -0.4559
  848MOL0     C14383  10.665   4.935  11.985  0.8704 -0.4831  0.5112
  848MOL0     C14384  10.777   4.941  12.078 -0.6860  0.1503 -0.4588
  848MOL0     C14385  10.738   4.889  12.208  0.5139 -0.5625  0.6473
  848MOL0     C14386  10.856   4.895  12.301  0.0138 -0.5722 -0.2826
  848MOL0     C14387  10.829   4.878  12.457  0.3415 -0.1861 -0.2422
  848MOL0     C14388  10.749   4.753  12.488  0.6349 -0.3665 -0.2992
  848MOL0     C14389  10.818   4.621  12.448 -0.2773  0.7187  0.3214
  848MOL0    Cl14390  10.999   4.645  12.477 -0.4201  0.5870 -0.3190
  848MOL0     C14391  10.817   5.257  11.703  0.8970 -0.5438 -0.0373
  848MOL0     C14392  10.861   5.373  11.634 -0.3534 -0.3991  0.5389
  848MOL0     O14393  10.696   5.735  11.626  0.6133  0.0982  0.4521
  848MOL0     C14394  10.999   5.784  11.448 -0.1585 -0.5256  0.2692
  848MOL0     C14395  11.080   5.880  11.378  0.4826 -1.0760  0.2435
  848MOL0     N14396  10.761   6.197  10.949  0.6779 -0.4825  0.1168
  848MOL0     N14397  10.778   6.142  10.833 -0.4276  0.1393  0.3900
  848MOL0     C14398  10.675   5.281  10.090  0.5308 -0.8006  0.3054
  848MOL0     C14399  10.608   5.191  10.006  0.7728  0.0350  0.8817
  848MOL0     C14400  10.431   4.875   9.779 -0.2138 -1.2623  0.4286
  848MOL0     C14401  10.513   4.797   9.697 -0.1626  0.1598 -0.3249
  848MOL0     C14402  10.494   4.663   9.679 -0.1257 -0.0216  0.5517
  848MOL0     C14403  10.389   4.591   9.748 -0.4481 -0.3937 -0.1917
  848MOL0     O14404  10.387   4.460   9.736  0.2383  1.0969  1.0481
  848MOL0     C14405  10.254   4.399   9.757  0.0658 -1.0853  0.0261
  848MOL0     C14406  10.258   4.257   9.706 -1.1686  0.0139 -0.2603
  848MOL0     C14407  10.275   4.240   9.553  0.7262 -0.0853  0.3367
  848MOL0     C14408  10.249   4.091   9.531  0.0022 -0.7704 -0.2436
  848MOL0     C14409  10.220   4.066   9.385 -0.6109  0.3495 -0.3349
  848MOL0     C14410  10.216   4.049   9.265  0.5381  0.5582  0.1877
  848MOL0     C14411  10.307   4.672   9.832 -0.4196 -0.1117  0.0254
  848MOL0     C14412  10.326   4.815   9.851  0.1866 -0.0114  0.8610
  848MOL0     H14413  10.853   5.142   9.771 -1.8879  4.0827 -2.9004
  848MOL0     H14414  10.962   5.286   9.920  2.1583 -4.9912  0.0863
  848MOL0     H14415  10.736   5.524  10.226  0.0079 -0.4897  1.6844
  848MOL0     H14416  10.830   5.464  10.346 -0.1293 -3.2881 -0.5883
  848MOL0     H14417  11.018   5.585  10.224 -1.2786 -3.8433  0.8426
  848MOL0     H14418  10.875   5.690  10.175 -2.6580  0.0829  1.3317
  848MOL0     H14419  10.801   5.705  10.415 -0.5865  0.2750  2.0373
  848MOL0     H14420  10.940   5.596  10.449 -0.7451 -2.1081 -3.5350
  848MOL0     H14421  11.104   5.770  10.373  0.3683  1.8310 -1.7600
  848MOL0     H14422  10.956   5.874  10.348 -2.0867 -2.4757 -1.2066
  848MOL0     H14423  11.054   5.762  10.599  2.0599  1.6756  0.8563
  848MOL0     H14424  11.094   5.927  10.546  0.8261 -0.0603 -3.1797
  848MOL0     H14425  10.809   5.827  10.598  0.8797 -1.3279  2.1037
  848MOL0     H14426  10.897   5.899  10.716 -0.9977 -0.8213 -0.1746
  848MOL0     H14427  10.854   6.050  10.457 -1.5931 -2.6898  0.2233
  848MOL0     H14428  10.748   6.058  10.591 -0.4984  1.0853  1.9864
  848MOL0     H14429  10.893   6.250  10.569 -2.6234 -2.7034 -0.8604
  848MOL0     H14430  11.033   6.158  10.611  0.9265  2.4535 -2.2371
  848MOL0     H14431  11.002   6.383  10.815  0.3918  0.1677  0.3480
  848MOL0     H14432  10.881   6.522  10.994  1.1180  0.2113  2.0668
  848MOL0     H14433  10.766   6.439  11.101 -0.2911 -1.0237  0.2068
  848MOL0     H14434  10.998   6.484  11.194  0.2301 -0.6814  0.4053
  848MOL0     H14435  11.077   6.379  11.065  1.3617  0.5550  1.4290
  848MOL0     H14436  10.973   6.176  11.132  2.0354 -1.0157 -0.4863
  848MOL0     H14437  10.879   6.259  11.255  0.4277 -1.3878  2.7348
  848MOL0     H14438  11.055   6.272  11.392  2.8863 -0.0021  0.3893
  848MOL0     H14439  11.177   6.287  11.258 -0.4960  1.6286  1.0428
  848MOL0     H14440  10.936   6.164  11.510 -1.2680  0.4038 -0.0227
  848MOL0     H14441  10.703   5.983  11.662  0.5979  0.0519 -3.0512
  848MOL0     H14442  10.842   5.950  11.774 -2.8629  1.8426  2.2841
  848MOL0     H14443  10.806   6.107  11.713  0.5116  0.4924  1.4306
  848MOL0     H14444  10.703   5.594  11.824  2.3904  0.9144 -1.7901
  848MOL0     H14445  10.643   5.401  11.949  0.8298 -0.4824  0.0405
  848MOL0     H14446  10.600   5.035  11.804  0.6952 -1.2899 -2.4624
  848MOL0     H14447  10.772   4.997  11.808 -1.8315 -1.3856 -1.3675
  848MOL0     H14448  10.575   4.968  12.036 -0.0681  0.6832 -1.7671
  848MOL0     H14449  10.649   4.837  11.940 -0.3447  0.8358 -2.2055
  848MOL0     H14450  10.818   5.041  12.093  5.3975 -1.9090 -0.7522
  848MOL0     H14451  10.861   4.888  12.032 -1.9787 -1.2566 -1.2731
  848MOL0     H14452  10.657   4.953  12.245 -1.2614 -2.7998  0.8048
  848MOL0     H14453  10.697   4.788  12.201 -0.5830 -0.2018  1.5522
  848MOL0     H14454  10.896   4.997  12.291 -1.7266  0.3786  1.6960
  848MOL0     H14455  10.928   4.818  12.273  0.2080 -1.4821  2.4385
  848MOL0     H14456  10.913   4.882  12.528  0.1821  1.9258 -0.1047
  848MOL0     H14457  10.771   4.964  12.493  1.1885  0.4805 -0.4290
  848MOL0     H14458  10.650   4.769  12.445  0.2221  0.4744  0.9114
  848MOL0     H14459  10.742   4.753  12.597 -1.7628  2.1493 -0.3552
  848MOL0     H14460  10.808   4.592  12.343  1.0697 -0.2068  0.4164
  848MOL0     H14461  10.779   4.538  12.506 -0.4264 -0.0251 -0.8182
  848MOL0     H14462  10.838   5.159  11.660  1.7910 -0.8600  1.0773
  848MOL0     H14463  10.898   5.357  11.533  1.0494 -0.3801  1.0327
  848MOL0     H14464  11.015   5.679  11.426 -0.4536 -0.2092 -1.6477
  848MOL0     H14465  11.138   5.848  11.292  0.6386  1.4508 -0.6636
  848MOL0     H14466  10.624   5.328  10.174 -1.3441 -1.2604 -0.5384
  848MOL0     H14467  10.509   5.160  10.038 -0.6167 -0.5416 -3.4004
  848MOL0     H14468  10.592   4.849   9.642 -0.7161 -2.2075 -3.7031
  848MOL0     H14469  10.571   4.604   9.631 -0.4335  0.9145 -1.1823
  848MOL0     H14470  10.219   4.389   9.860  0.4805 -1.3883  0.1410
  848MOL0     H14471  10.175   4.451   9.702  1.1224  1.3497  0.6573
  848MOL0     H14472  10.160   4.216   9.730 -1.4535  0.4612 -0.6296
  848MOL0     H14473  10.344   4.215   9.759 -1.2259  4.6349  4.2356
  848MOL0     H14474  10.375   4.264   9.515 -0.4713  0.7359 -2.5138
  848MOL0     H14475  10.202   4.298   9.496  2.7042  2.5053  0.2534
  848MOL0     H14476  10.168   4.061   9.598 -0.2301  1.7766  0.7126
  848MOL0     H14477  10.339   4.031   9.550 -1.8561 -3.0793  1.7165
  848MOL0     H14478  10.209   4.034   9.159 -1.0528 -2.2784  0.5755
  848MOL0     H14479  10.224   4.629   9.888 -3.5464  3.4238 -1.4487
  848MOL0     H14480  10.264   4.875   9.917 -0.7023  0.3242 -0.2515
  849MOL0     O14481   1.404   0.080   7.796  0.2111 -0.1650  0.3026
  849MOL0     C14482   1.503   0.013   7.772 -0.5196 -0.2686  0.2071
  849MOL0     O14483   1.552  -0.001   7.643  0.7932  0.5165 -0.2292
  849MOL0     C14484   1.508   0.090   7.552  0.6067 -1.0324 -0.5697
  849MOL0     C14485   1.583   0.201   7.507 -0.8647 -0.8600 -0.2917
  849MOL0     C14486   1.515   0.287   7.410 -0.1215 -0.1211  0.2124
  849MOL0     C14487   1.390   0.266   7.357  0.3978 -1.2571 -0.0399
  849MOL0     O14488   1.323   0.348   7.257 -0.8485 -0.4303 -0.7033
  849MOL0     C14489   1.401   0.438   7.175 -0.1236 -0.4162  0.1244
  849MOL0     C14490   1.495   0.362   7.087 -0.5074  0.0989  0.2240
  849MOL0     C14491   1.549   0.438   6.967  0.1082  0.4292 -0.1923
  849MOL0     C14492   1.629   0.346   6.870 -0.2863  0.1694 -0.5928
  849MOL0     C14493   1.748   0.262   6.932 -0.0579  0.3156  0.2448
  849MOL0     C14494   1.861   0.345   7.015  0.6880  0.1912  0.4362
  849MOL0     C14495   1.941   0.270   7.106 -0.2387 -0.1622 -0.6526
  849MOL0     C14496   2.050   0.352   7.182 -0.2093 -0.2582  0.3737
  849MOL0     N14497   1.996   0.446   7.280 -0.5413  0.6301  0.3493
  849MOL0     C14498   1.957   0.412   7.412  0.0385  0.6322 -0.4278
  849MOL0     C14499   1.937   0.535   7.475  0.0015  0.5556  0.2204
  849MOL0     C14500   1.880   0.547   7.611  0.4772  0.7056 -0.2323
  849MOL0     C14501   2.001   0.542   7.716  0.2522 -0.2966  0.0851
  849MOL0     C14502   1.953   0.546   7.868 -0.4092 -0.2419 -0.2277
  849MOL0     C14503   1.908   0.416   7.932 -0.1677  0.6400 -0.1251
  849MOL0     O14504   1.793   0.365   7.867 -0.1007 -0.6450 -0.1451
  849MOL0     C14505   1.679   0.376   7.939  0.1286  0.3018 -0.0363
  849MOL0     C14506   1.650   0.291   8.052 -0.4813 -0.6710  0.7996
  849MOL0     C14507   1.529   0.289   8.122 -0.1479 -0.4284 -0.5449
  849MOL0     C14508   1.508   0.177   8.218 -0.2417 -0.2930 -0.9044
  849MOL0     C14509   1.436   0.389   8.088 -0.5556 -0.1435  0.0713
  849MOL0     C14510   1.297   0.396   8.144  0.4505  0.6458  0.1902
  849MOL0     O14511   1.226   0.520   8.140  0.4791 -0.7580  0.9101
  849MOL0     C14512   1.109   0.550   8.199  0.1213  0.0893  0.0882
  849MOL0     C14513   1.070   0.500   8.319  0.1076 -0.7440 -0.9925
  849MOL0     C14514   0.941   0.537   8.375 -0.0281 -0.8949  0.3559
  849MOL0     C14515   0.859   0.624   8.297 -0.9498  0.6731  0.2085
  849MOL0     O14516   0.737   0.662   8.344  0.0911  0.5887 -0.4293
  849MOL0     C14517   0.656   0.545   8.398 -0.6649 -0.0526 -0.1037
  849MOL0     C14518   0.506   0.588   8.413 -0.3448 -0.0961 -0.6751
  849MOL0     C14519   0.433   0.478   8.484  1.0365  0.2456 -0.3178
  849MOL0     C14520   0.288   0.525   8.511 -0.0392  0.6141  0.0956
  849MOL0     C14521   0.192   0.401   8.519 -0.7087  0.2288 -0.0134
  849MOL0     C14522   0.060   0.437   8.577 -0.2555  0.1691  0.0055
  849MOL0     C14523  -0.046   0.324   8.569  0.0894  1.0053 -0.1614
  849MOL0     C14524  -0.188   0.370   8.613 -0.1736  0.3546 -0.2007
  849MOL0    Cl14525  -0.330   0.294   8.521 -0.0661  0.3345 -0.2477
  849MOL0     C14526   0.906   0.674   8.170  1.1950  0.9681 -0.2825
  849MOL0     C14527   1.035   0.641   8.131 -0.6939  0.6709  0.6595
  849MOL0     O14528   1.248   0.292   8.186  0.2037 -0.0821 -0.1015
  849MOL0     C14529   1.466   0.473   7.983  0.3893 -0.6719 -0.3106
  849MOL0     C14530   1.579   0.463   7.906  0.3956  0.1336  0.6521
  849MOL0     N14531   1.962   0.626   7.374  0.1159 -0.6998  0.6702
  849MOL0     N14532   2.000   0.585   7.259 -0.4166  0.1847 -0.0380
  849MOL0     C14533   1.327   0.153   7.406 -1.2370  1.0193 -1.5936
  849MOL0     C14534   1.377   0.066   7.501 -0.9953  0.3811  0.3264
  849MOL0     C14535   1.572  -0.058   7.885  0.2670 -0.3196  0.4709
  849MOL0     C14536   1.713  -0.097   7.873  1.2719  0.5626 -0.2456
  849MOL0     C14537   1.774  -0.156   7.982 -0.4358 -0.5807 -0.0326
  849MOL0     C14538   1.708  -0.172   8.111  0.2074  0.0471  0.2266
  849MOL0     O14539   1.768  -0.198   8.224  0.0625 -0.3527  0.8776
  849MOL0     C14540   1.820  -0.087   8.299 -0.7632 -0.6165  0.4890
  849MOL0     C14541   1.885  -0.158   8.412 -0.5930 -0.5930 -1.0022
  849MOL0     C14542   2.038  -0.132   8.410 -0.4313  0.5794  0.3893
  849MOL0     C14543   2.129  -0.193   8.528  1.1497  0.7557  0.7759
  849MOL0     C14544   2.278  -0.172   8.491 -0.6311  0.0326 -1.1136
  849MOL0     C14545   2.390  -0.187   8.473 -0.2109  0.4058 -0.6429
  849MOL0     C14546   1.570  -0.155   8.111  0.1192 -0.1979  0.6397
  849MOL0     C14547   1.508  -0.079   8.010 -1.0333 -1.0330  0.1064
  849MOL0     H14548   1.680   0.222   7.552 -1.1478 -0.9000  0.3558
  849MOL0     H14549   1.568   0.373   7.370 -0.3437  0.1157  0.4236
  849MOL0     H14550   1.324   0.493   7.119 -0.0990 -1.7711 -1.2981
  849MOL0     H14551   1.458   0.507   7.238  1.9781 -1.0296 -1.0430
  849MOL0     H14552   1.577   0.325   7.149 -0.0056 -0.4785 -0.7570
  849MOL0     H14553   1.440   0.275   7.050  1.3429 -0.6052 -1.0321
  849MOL0     H14554   1.460   0.482   6.921 -1.0931  0.2006  1.7879
  849MOL0     H14555   1.607   0.519   7.011  1.1946 -0.2686 -0.3024
  849MOL0     H14556   1.546   0.287   6.831 -3.2320 -0.9323  6.0988
  849MOL0     H14557   1.683   0.408   6.797  1.3864 -0.7734 -0.2107
  849MOL0     H14558   1.701   0.185   6.994 -0.2732  0.1299 -0.1481
  849MOL0     H14559   1.802   0.225   6.844  3.8544  0.6039  2.3058
  849MOL0     H14560   1.927   0.391   6.941  1.9551 -1.2312  0.6483
  849MOL0     H14561   1.815   0.428   7.070 -1.3406 -1.2006  0.9605
  849MOL0     H14562   1.863   0.244   7.178 -0.1368  1.4141  0.0756
  849MOL0     H14563   1.979   0.178   7.060 -3.4155 -2.7517  1.3836
  849MOL0     H14564   2.105   0.405   7.103  0.1817 -0.0168  0.8039
  849MOL0     H14565   2.117   0.289   7.241 -2.2862 -0.7600  2.3584
  849MOL0     H14566   1.941   0.311   7.448  1.2172  1.4575  2.7874
  849MOL0     H14567   1.824   0.641   7.618 -1.5868 -0.3415 -1.5239
  849MOL0     H14568   1.814   0.461   7.622  2.0432 -0.7194 -1.5372
  849MOL0     H14569   2.062   0.632   7.709 -0.2788  0.2445  1.9821
  849MOL0     H14570   2.073   0.465   7.686  1.7714  1.1702 -0.1604
  849MOL0     H14571   1.873   0.621   7.871 -0.0694  0.0872  1.0464
  849MOL0     H14572   2.045   0.578   7.918  0.5087 -4.2923  1.0141
  849MOL0     H14573   1.880   0.424   8.038  0.2460 -1.0208  0.1452
  849MOL0     H14574   1.986   0.339   7.924  0.5838  1.5119 -1.6395
  849MOL0     H14575   1.719   0.208   8.060 -0.6959 -1.3216 -2.6618
  849MOL0     H14576   1.479   0.226   8.311 -0.4420  0.3033 -1.2777
  849MOL0     H14577   1.420   0.120   8.186  1.0405 -2.2774 -1.0498
  849MOL0     H14578   1.596   0.112   8.222 -2.4409 -3.5468 -0.4311
  849MOL0     H14579   1.130   0.422   8.364 -0.8058 -0.6677  0.4319
  849MOL0     H14580   0.913   0.506   8.475  0.2114 -1.0233  0.3841
  849MOL0     H14581   0.657   0.461   8.328 -0.0975 -0.5220  0.4650
  849MOL0     H14582   0.698   0.507   8.492 -2.4142  0.7143  1.0458
  849MOL0     H14583   0.503   0.680   8.471 -0.2811  0.6947 -1.8989
  849MOL0     H14584   0.463   0.608   8.314 -0.4671  0.6264 -0.4748
  849MOL0     H14585   0.473   0.443   8.580  1.0931  1.8859  0.2887
  849MOL0     H14586   0.418   0.387   8.425 -0.8375  1.5133 -1.9055
  849MOL0     H14587   0.306   0.585   8.601 -0.2021 -0.4549  0.8632
  849MOL0     H14588   0.256   0.596   8.434  1.6957 -0.2105 -1.4548
  849MOL0     H14589   0.251   0.330   8.578  0.3858  1.4653  0.4603
  849MOL0     H14590   0.176   0.359   8.419  2.6702  1.8240 -1.3980
  849MOL0     H14591   0.066   0.479   8.678  0.4961  1.4386 -0.5442
  849MOL0     H14592   0.025   0.526   8.524  0.8798  0.8637  0.3955
  849MOL0     H14593  -0.014   0.234   8.624  3.9049  0.3538 -3.0230
  849MOL0     H14594  -0.048   0.298   8.463 -2.1606  1.4297 -0.2803
  849MOL0     H14595  -0.195   0.478   8.603  2.9130  0.5804 -0.9247
  849MOL0     H14596  -0.189   0.340   8.719  1.3066  3.1138  0.6741
  849MOL0     H14597   0.840   0.740   8.114 -0.7519  0.5898  1.4662
  849MOL0     H14598   1.078   0.661   8.033 -0.0293  1.1351  1.0312
  849MOL0     H14599   1.388   0.538   7.944 -1.4566 -4.0344 -2.6198
  849MOL0     H14600   1.585   0.533   7.824  2.1863 -1.8978 -1.0778
  849MOL0     H14601   1.230   0.119   7.372  0.9612 -1.9917 -5.7655
  849MOL0     H14602   1.323  -0.017   7.546 -0.7588  1.1816  2.1628
  849MOL0     H14603   1.769  -0.065   7.787  3.5035 -0.8584  0.5833
  849MOL0     H14604   1.879  -0.185   7.977 -0.2584 -0.5886  2.4006
  849MOL0     H14605   1.886  -0.023   8.240 -1.7998  0.9279  0.9440
  849MOL0     H14606   1.752  -0.015   8.344 -1.6092 -1.2442  0.2428
  849MOL0     H14607   1.877  -0.266   8.405  3.7650 -1.0365 -1.6647
  849MOL0     H14608   1.845  -0.115   8.505  1.1980  1.9872 -1.3256
  849MOL0     H14609   2.045  -0.023   8.405 -1.3983  0.7527  2.0381
  849MOL0     H14610   2.081  -0.165   8.315  1.8868  0.0073  1.5739
  849MOL0     H14611   2.105  -0.299   8.539  1.4280  0.6701  0.5670
  849MOL0     H14612   2.116  -0.141   8.624  0.8760 -1.0547  1.7598
  849MOL0     H14613   2.494  -0.210   8.459 -0.3967 -1.0349  0.2047
  849MOL0     H14614   1.517  -0.185   8.201  0.2343 -1.0686  0.4304
  849MOL0     H14615   1.408  -0.037   8.013 -0.5935  0.1250 -0.9548
  850MOL0     O14616   2.306   5.843   9.858 -0.5635 -0.2814  0.4315
  850MOL0     C14617   2.377   5.744   9.873  0.5964 -0.7174  0.2368
  850MOL0     O14618   2.353   5.634   9.946  0.3460  0.1119  0.0183
  850MOL0     C14619   2.246   5.651  10.028 -0.3591 -0.3846 -0.4527
  850MOL0     C14620   2.258   5.700  10.162 -0.7368 -0.0844  1.3574
  850MOL0     C14621   2.145   5.714  10.240 -0.6711 -0.6809  0.0340
  850MOL0     C14622   2.016   5.696  10.190  0.8754  0.6402  0.4282
  850MOL0     O14623   1.910   5.728  10.273 -0.6491 -0.1067  1.0129
  850MOL0     C14624   1.883   5.641  10.388 -0.2144 -0.8418 -0.2397
  850MOL0     C14625   1.787   5.712  10.492  0.1331 -0.1514 -0.1671
  850MOL0     C14626   1.777   5.636  10.624  0.5748  0.6489 -0.5503
  850MOL0     C14627   1.711   5.506  10.607  0.0418  0.4955  0.5067
  850MOL0     C14628   1.702   5.438  10.743  0.5255  0.2041  0.4001
  850MOL0     C14629   1.634   5.299  10.742 -0.1106  0.4413 -0.6370
  850MOL0     C14630   1.489   5.327  10.706 -0.0101 -0.7757  0.6406
  850MOL0     C14631   1.409   5.203  10.731  0.4845 -0.1177 -0.5420
  850MOL0     N14632   1.272   5.230  10.685  0.0056  0.5730 -0.1047
  850MOL0     C14633   1.241   5.269  10.556  0.3731 -0.4207 -0.0339
  850MOL0     C14634   1.105   5.271  10.555 -0.3403 -0.4830  0.1783
  850MOL0     C14635   1.010   5.280  10.437 -0.6907 -1.0099 -0.7200
  850MOL0     C14636   1.071   5.247  10.306 -0.2245 -0.3816  0.3668
  850MOL0     C14637   1.157   5.354  10.229  1.0959  0.4048  0.5633
  850MOL0     C14638   1.232   5.285  10.122  0.7687  0.4153 -0.4917
  850MOL0     O14639   1.295   5.389  10.040 -0.0162 -0.5948 -0.1062
  850MOL0     C14640   1.298   5.369   9.906  0.5050  0.1760  0.7625
  850MOL0     C14641   1.244   5.466   9.825 -0.1734 -0.4131 -0.5459
  850MOL0     C14642   1.226   5.442   9.686 -0.5184  0.6202 -1.0770
  850MOL0     C14643   1.164   5.558   9.610 -0.1912 -0.0370 -0.5913
  850MOL0     C14644   1.266   5.320   9.633 -1.2415 -0.2812 -0.2353
  850MOL0     C14645   1.230   5.276   9.489 -0.4850 -0.7322 -0.2503
  850MOL0     O14646   1.318   5.188   9.434  0.4128 -0.0630  0.3513
  850MOL0     C14647   1.263   5.111   9.330 -0.0750 -1.3381 -0.7457
  850MOL0     C14648   1.254   4.975   9.348  0.0835  0.1056  0.4779
  850MOL0     C14649   1.201   4.889   9.254  0.1145 -0.0711  0.1207
  850MOL0     C14650   1.175   4.933   9.128  0.0228 -0.6683 -0.7312
  850MOL0     O14651   1.118   4.842   9.045 -0.2835 -0.6175  0.4476
  850MOL0     C14652   1.164   4.849   8.910 -0.2738  0.0935  0.6211
  850MOL0     C14653   1.093   4.743   8.822 -0.1695 -0.4018 -0.1838
  850MOL0     C14654   1.159   4.755   8.681  0.5142  0.4949 -0.6535
  850MOL0     C14655   1.109   4.657   8.573  0.1916 -0.7514  0.6393
  850MOL0     C14656   1.162   4.688   8.435 -0.8911 -0.7814  0.4404
  850MOL0     C14657   1.080   4.614   8.323 -0.3671 -1.0290  0.0474
  850MOL0     C14658   1.159   4.641   8.199 -0.4335  0.8378 -0.9178
  850MOL0     C14659   1.090   4.615   8.068 -0.2146  0.3086  0.7191
  850MOL0    Cl14660   0.944   4.725   8.067  0.2102  0.5017  0.1190
  850MOL0     C14661   1.199   5.068   9.102 -0.2118 -0.3140 -0.4157
  850MOL0     C14662   1.247   5.162   9.198  1.1106  0.5106  0.4844
  850MOL0     O14663   1.124   5.326   9.432 -0.4546 -0.3932  0.3691
  850MOL0     C14664   1.331   5.223   9.720  0.8212 -0.9123  0.4368
  850MOL0     C14665   1.344   5.252   9.856  0.2938  0.1054 -0.2732
  850MOL0     N14666   1.062   5.237  10.680 -0.3572  0.0480  0.3511
  850MOL0     N14667   1.163   5.203  10.752  0.1434 -0.0746 -0.1612
  850MOL0     C14668   1.999   5.661  10.056 -0.7667 -0.3117 -0.4750
  850MOL0     C14669   2.113   5.638   9.980 -0.0358  0.9708 -0.0415
  850MOL0     C14670   2.490   5.729   9.778 -1.0144 -0.2392 -0.5691
  850MOL0     C14671   2.560   5.846   9.729 -0.2641 -0.1065  0.1456
  850MOL0     C14672   2.678   5.840   9.648 -0.2696  0.0777  0.2755
  850MOL0     C14673   2.715   5.705   9.608 -1.5392 -0.3951  0.0360
  850MOL0     O14674   2.823   5.681   9.529  0.9329  0.6121 -0.2079
  850MOL0     C14675   2.958   5.672   9.581  0.3212 -1.0884 -0.2275
  850MOL0     C14676   2.998   5.820   9.623 -0.0686  0.6539 -0.4201
  850MOL0     C14677   3.144   5.833   9.663 -0.6220 -0.6576  1.0570
  850MOL0     C14678   3.192   5.978   9.666  0.4555 -0.2901  0.3660
  850MOL0     C14679   3.135   6.067   9.767  0.8430  1.1632  0.5452
  850MOL0     C14680   3.075   6.151   9.836  0.5612  0.9362  0.4641
  850MOL0     C14681   2.646   5.594   9.653  0.6740 -0.9376 -0.5640
  850MOL0     C14682   2.544   5.613   9.740 -0.4508  0.2203 -0.5983
  850MOL0     H14683   2.359   5.723  10.193  0.7497  1.6470 -3.7916
  850MOL0     H14684   2.155   5.755  10.339 -0.0767 -1.1825  0.1889
  850MOL0     H14685   1.827   5.558  10.344 -2.0119  0.1744  0.0692
  850MOL0     H14686   1.968   5.605  10.447  0.7082  1.1541 -0.2701
  850MOL0     H14687   1.813   5.814  10.522 -1.6573  0.5534 -0.8801
  850MOL0     H14688   1.684   5.713  10.456 -0.0031 -0.8892  0.1911
  850MOL0     H14689   1.877   5.612  10.662 -0.3808 -0.2620  1.5089
  850MOL0     H14690   1.724   5.694  10.699 -0.7506  0.2368 -1.1428
  850MOL0     H14691   1.609   5.522  10.573  0.0489 -0.4005  0.0463
  850MOL0     H14692   1.774   5.444  10.543 -0.1032  0.6720  0.1889
  850MOL0     H14693   1.807   5.420  10.769  0.5613 -1.9035 -0.9699
  850MOL0     H14694   1.648   5.499  10.816  1.2034  1.6258 -0.2393
  850MOL0     H14695   1.685   5.233  10.671 -1.5836 -0.5354 -0.8532
  850MOL0     H14696   1.635   5.255  10.842  1.7886  2.4196  0.2980
  850MOL0     H14697   1.464   5.411  10.772  0.5155  1.4552 -1.8391
  850MOL0     H14698   1.490   5.352  10.600  1.5336  0.5676  0.9413
  850MOL0     H14699   1.408   5.170  10.835  2.7683  1.9165  0.2338
  850MOL0     H14700   1.465   5.130  10.671  0.8059 -2.5898  2.5281
  850MOL0     H14701   1.308   5.296  10.474  0.3584  1.4311  0.5178
  850MOL0     H14702   0.933   5.209  10.469 -1.2998 -0.2519 -0.4703
  850MOL0     H14703   0.976   5.383  10.422  0.8048 -0.1692  1.2481
  850MOL0     H14704   0.989   5.226  10.236  0.3455  0.9284 -0.7636
  850MOL0     H14705   1.131   5.156  10.320  3.7782  1.3824 -3.0438
  850MOL0     H14706   1.230   5.405  10.292  1.6651  0.7009 -0.3138
  850MOL0     H14707   1.093   5.422  10.171  0.4514 -0.9645 -0.3864
  850MOL0     H14708   1.172   5.215  10.063 -1.1239  1.8335 -0.3132
  850MOL0     H14709   1.318   5.227  10.159 -0.3135  0.1252  1.7191
  850MOL0     H14710   1.229   5.568   9.859 -2.3301  0.1566 -2.8934
  850MOL0     H14711   1.056   5.557   9.629 -0.1075 -2.1238  0.0167
  850MOL0     H14712   1.201   5.653   9.650 -0.5217 -0.7019  1.4230
  850MOL0     H14713   1.180   5.568   9.503  3.5231  1.5554 -0.0338
  850MOL0     H14714   1.302   4.924   9.431  2.7752  0.5240 -0.6862
  850MOL0     H14715   1.207   4.784   9.280 -0.5466  0.0914  0.9858
  850MOL0     H14716   1.121   4.941   8.869 -0.3217  0.4845  1.5165
  850MOL0     H14717   1.273   4.846   8.901 -0.3338 -0.2121 -0.0838
  850MOL0     H14718   1.113   4.642   8.859  0.7319 -0.2340 -0.2020
  850MOL0     H14719   0.985   4.760   8.823 -0.3158 -1.2480  1.4891
  850MOL0     H14720   1.267   4.749   8.693  0.2733 -2.3071  1.0232
  850MOL0     H14721   1.134   4.858   8.654 -3.4804  1.1216  3.9665
  850MOL0     H14722   1.156   4.561   8.594  0.4734 -0.9257 -0.7090
  850MOL0     H14723   1.000   4.648   8.567  0.1604 -1.4283  1.9893
  850MOL0     H14724   1.267   4.659   8.420 -1.3851 -1.2716 -2.6924
  850MOL0     H14725   1.147   4.795   8.419  0.5057  0.2942  4.9608
  850MOL0     H14726   1.068   4.506   8.334  2.7805 -1.6369 -1.3157
  850MOL0     H14727   0.979   4.655   8.319 -0.6409 -1.5514  1.3443
  850MOL0     H14728   1.255   4.590   8.190 -0.9768 -0.8650  1.7139
  850MOL0     H14729   1.186   4.747   8.193  0.5170  0.8055  1.5166
  850MOL0     H14730   1.052   4.513   8.059  0.2798  0.0950  1.0233
  850MOL0     H14731   1.149   4.641   7.979 -1.6534 -1.7486 -0.9505
  850MOL0     H14732   1.197   5.107   9.001 -0.5106  1.4443  0.2338
  850MOL0     H14733   1.271   5.265   9.173 -3.0891  1.9555  1.5827
  850MOL0     H14734   1.361   5.125   9.685  0.2182 -0.1799 -2.4402
  850MOL0     H14735   1.387   5.176   9.919  0.0451 -0.6934 -1.0428
  850MOL0     H14736   1.898   5.665  10.016 -1.2869 -0.8290  0.7131
  850MOL0     H14737   2.104   5.618   9.874  1.4794 -0.0740 -0.0057
  850MOL0     H14738   2.533   5.944   9.766 -1.3365 -0.5340  0.5272
  850MOL0     H14739   2.724   5.929   9.605  2.7605 -0.8775  1.2507
  850MOL0     H14740   2.965   5.618   9.676 -0.4187 -2.2555 -0.8142
  850MOL0     H14741   3.020   5.628   9.503  0.6744  1.5720 -1.5725
  850MOL0     H14742   2.936   5.858   9.704  2.5745  4.0421  0.2553
  850MOL0     H14743   2.980   5.875   9.530  2.8779 -1.6326 -2.5926
  850MOL0     H14744   3.205   5.781   9.588 -1.5019  1.7010 -1.4640
  850MOL0     H14745   3.155   5.783   9.759 -0.4769 -1.5126  0.6087
  850MOL0     H14746   3.157   6.016   9.570 -0.4589 -0.7195  0.5151
  850MOL0     H14747   3.299   6.001   9.673  0.2059  0.6921  1.4237
  850MOL0     H14748   3.027   6.224   9.897 -0.0726 -1.3443  2.9223
  850MOL0     H14749   2.675   5.497   9.614 -1.6966 -1.3221 -1.5103
  850MOL0     H14750   2.486   5.525   9.763  0.7549 -0.1248  1.3180
  851MOL0     O14751   8.122   5.435   4.241 -0.5396  0.9690 -0.3204
  851MOL0     C14752   8.049   5.520   4.268  0.8322  0.5994  0.2001
  851MOL0     O14753   7.989   5.538   4.386  0.0322  0.8108  0.1636
  851MOL0     C14754   7.996   5.433   4.483  0.8096 -0.5476  0.1248
  851MOL0     C14755   7.870   5.406   4.551 -0.8048 -0.1879 -0.5689
  851MOL0     C14756   7.861   5.300   4.649  0.2748 -1.3136 -0.1405
  851MOL0     C14757   7.979   5.236   4.683 -0.1163 -0.6126 -0.3158
  851MOL0     O14758   7.974   5.131   4.770 -0.5155  0.4965 -0.4752
  851MOL0     C14759   7.929   5.159   4.904  0.1017 -0.0146 -0.4361
  851MOL0     C14760   7.847   5.042   4.961  0.0573  0.2008 -0.4122
  851MOL0     C14761   7.726   5.014   4.859  0.0244  0.0694 -0.3518
  851MOL0     C14762   7.644   4.891   4.888  0.0829  0.3236 -0.0750
  851MOL0     C14763   7.565   4.850   4.759  0.5595  0.1539  0.1915
  851MOL0     C14764   7.663   4.784   4.663  0.1310  0.4819 -1.2879
  851MOL0     C14765   7.575   4.727   4.536 -0.1609 -0.3162 -0.4107
  851MOL0     C14766   7.551   4.850   4.434 -0.7312  0.3052 -0.6123
  851MOL0     N14767   7.427   4.837   4.357  0.3549 -0.3443  0.0796
  851MOL0     C14768   7.414   4.784   4.228 -0.0992  0.5907  0.3971
  851MOL0     C14769   7.283   4.818   4.189 -0.3019 -0.4374  0.0823
  851MOL0     C14770   7.223   4.759   4.067 -0.6853 -0.2645  0.0868
  851MOL0     C14771   7.203   4.864   3.964 -0.9567 -0.9883  0.8115
  851MOL0     C14772   7.340   4.925   3.929 -0.3179  0.7587  0.0712
  851MOL0     C14773   7.325   5.050   3.843 -0.0750  0.2483 -0.8379
  851MOL0     O14774   7.325   5.013   3.709 -0.6711 -0.4226 -0.0142
  851MOL0     C14775   7.289   5.100   3.616  0.5638 -0.9516  0.0975
  851MOL0     C14776   7.268   5.046   3.487 -0.7250 -0.7800  0.6953
  851MOL0     C14777   7.201   5.112   3.384 -0.4667  0.2101 -0.5124
  851MOL0     C14778   7.186   5.039   3.253 -0.0679  0.9644 -0.1131
  851MOL0     C14779   7.167   5.249   3.412  0.8522  0.5975  0.7738
  851MOL0     C14780   7.104   5.337   3.309 -0.1655 -0.3215  0.0599
  851MOL0     O14781   7.016   5.436   3.353  0.5843 -0.3063  0.0769
  851MOL0     C14782   6.970   5.544   3.276  0.1160  0.0792 -0.7226
  851MOL0     C14783   7.047   5.613   3.187  1.1865 -0.6463  0.2268
  851MOL0     C14784   6.989   5.723   3.121  0.4938 -0.2632  0.9337
  851MOL0     C14785   6.855   5.766   3.137 -0.0226  0.1531  0.1768
  851MOL0     O14786   6.802   5.869   3.056  0.5095  0.3349 -0.0355
  851MOL0     C14787   6.673   5.921   3.077 -0.0034 -0.0817 -0.2848
  851MOL0     C14788   6.667   5.996   3.209 -0.1494 -0.1274 -0.3481
  851MOL0     C14789   6.552   6.085   3.198  0.3218 -0.3659 -0.1269
  851MOL0     C14790   6.530   6.169   3.321 -0.0189 -0.7041  0.2401
  851MOL0     C14791   6.381   6.187   3.346 -0.4918  1.0788  0.3867
  851MOL0     C14792   6.308   6.283   3.258  1.0502 -0.7945 -0.1544
  851MOL0     C14793   6.152   6.271   3.266 -0.5937 -0.0102  0.5834
  851MOL0     C14794   6.108   6.279   3.421  0.4022 -0.8474 -0.1717
  851MOL0    Cl14795   5.921   6.321   3.415 -0.2388 -0.2067  0.1752
  851MOL0     C14796   6.783   5.688   3.235 -0.2265  0.3236 -0.5787
  851MOL0     C14797   6.837   5.582   3.302 -0.5021  0.6389 -0.2682
  851MOL0     O14798   7.127   5.318   3.188 -0.1923 -0.4254  0.2637
  851MOL0     C14799   7.185   5.300   3.545 -0.6322 -0.3766  1.0474
  851MOL0     C14800   7.251   5.235   3.646  0.3837 -0.0332  1.1370
  851MOL0     N14801   7.228   4.902   4.278 -0.0514  0.6374  0.8553
  851MOL0     N14802   7.316   4.916   4.369  0.5932 -0.1128  0.6248
  851MOL0     C14803   8.101   5.264   4.625 -1.1153 -0.1842  0.3807
  851MOL0     C14804   8.111   5.355   4.515  0.5900  1.0705 -0.1731
  851MOL0     C14805   8.011   5.620   4.162  0.0008  0.1772  0.6288
  851MOL0     C14806   7.902   5.707   4.179  0.5693  0.7697 -0.0096
  851MOL0     C14807   7.876   5.810   4.096 -0.0401  0.6817 -0.3487
  851MOL0     C14808   7.972   5.841   3.999 -0.6693  0.6156 -0.2530
  851MOL0     O14809   7.938   5.949   3.919  0.1208  0.4276  0.0616
  851MOL0     C14810   8.035   5.970   3.806  0.1539  0.5029  0.4876
  851MOL0     C14811   8.030   6.108   3.750 -0.6347 -1.0551 -0.4917
  851MOL0     C14812   8.160   6.164   3.672  0.6981  0.0840 -0.2487
  851MOL0     C14813   8.209   6.073   3.557 -0.0954 -0.4059  0.3913
  851MOL0     C14814   8.119   6.077   3.442  0.0065  0.7291 -0.2760
  851MOL0     C14815   8.051   6.112   3.345  0.7178 -0.4213  0.0098
  851MOL0     C14816   8.085   5.754   3.981  0.1966 -1.0004 -0.4235
  851MOL0     C14817   8.097   5.646   4.056 -0.3369 -0.3201  0.0621
  851MOL0     H14818   7.787   5.457   4.503  0.5950  0.4947 -2.3944
  851MOL0     H14819   7.764   5.269   4.687 -0.6310  0.7464 -0.6527
  851MOL0     H14820   8.015   5.172   4.970  2.1750  0.2165 -2.9737
  851MOL0     H14821   7.870   5.251   4.901  1.2756  0.8454  1.2433
  851MOL0     H14822   7.916   4.959   4.980 -0.8027 -0.4941 -0.2747
  851MOL0     H14823   7.801   5.081   5.052  2.2651 -0.1944  0.9474
  851MOL0     H14824   7.664   5.103   4.852  0.7787  0.8212  1.6546
  851MOL0     H14825   7.766   4.996   4.759 -1.3910 -0.1455 -0.8935
  851MOL0     H14826   7.718   4.819   4.926  2.5300  2.2221 -1.0064
  851MOL0     H14827   7.581   4.930   4.969  1.9316  0.0903  1.5588
  851MOL0     H14828   7.480   4.783   4.780  1.7885 -1.4457  0.2367
  851MOL0     H14829   7.506   4.931   4.714  0.5900  0.4927  0.7435
  851MOL0     H14830   7.737   4.855   4.624 -1.7465  3.6708  0.5425
  851MOL0     H14831   7.701   4.695   4.714 -1.7444 -0.1227 -0.8796
  851MOL0     H14832   7.630   4.643   4.491  1.5152  0.0162  0.9198
  851MOL0     H14833   7.477   4.693   4.570 -2.5252  1.6200 -4.5111
  851MOL0     H14834   7.632   4.872   4.364 -1.7899  1.7490 -1.4247
  851MOL0     H14835   7.545   4.942   4.493 -0.9547 -0.2232  0.2111
  851MOL0     H14836   7.481   4.718   4.174 -1.1876 -2.1725  2.2511
  851MOL0     H14837   7.289   4.684   4.022 -1.4421 -0.1773 -1.2076
  851MOL0     H14838   7.129   4.707   4.085 -2.3382  2.3871 -0.4698
  851MOL0     H14839   7.136   4.947   3.990  0.0684  0.8709 -1.9582
  851MOL0     H14840   7.166   4.810   3.876 -1.4489 -1.1387  1.1109
  851MOL0     H14841   7.397   4.849   3.875  0.9779  2.0628 -0.4760
  851MOL0     H14842   7.394   4.966   4.015 -0.3798 -0.2891  0.6194
  851MOL0     H14843   7.396   5.131   3.866 -1.8726  1.0020  2.8144
  851MOL0     H14844   7.234   5.097   3.881  0.9698 -0.6013  3.1355
  851MOL0     H14845   7.302   4.943   3.480 -1.5538 -0.9374 -1.8690
  851MOL0     H14846   7.211   4.934   3.268  0.4126  0.5623 -3.0456
  851MOL0     H14847   7.081   5.044   3.221 -0.7868 -0.0354  1.9479
  851MOL0     H14848   7.263   5.070   3.181  1.3722  0.0592  1.0035
  851MOL0     H14849   7.152   5.598   3.162  1.6789  1.8873  0.5323
  851MOL0     H14850   7.044   5.785   3.051  0.5317 -0.1701  1.0449
  851MOL0     H14851   6.645   5.987   2.994 -0.9454  1.7430  1.4107
  851MOL0     H14852   6.595   5.844   3.073  0.7098 -1.1979  3.2950
  851MOL0     H14853   6.658   5.924   3.291  1.9438  1.2015  1.1657
  851MOL0     H14854   6.764   6.046   3.215 -0.2739 -0.0432  1.6003
  851MOL0     H14855   6.463   6.027   3.176 -0.2398  0.8475 -1.1474
  851MOL0     H14856   6.564   6.161   3.120  3.3903 -0.0416  0.4991
  851MOL0     H14857   6.579   6.115   3.402  1.0564 -1.1031 -0.6452
  851MOL0     H14858   6.570   6.270   3.308 -0.5766 -0.2417  1.8875
  851MOL0     H14859   6.369   6.222   3.449 -2.1486 -1.3240  1.0863
  851MOL0     H14860   6.329   6.093   3.329  3.4510 -0.8609 -2.6582
  851MOL0     H14861   6.339   6.385   3.284 -0.4903 -0.3154 -0.1448
  851MOL0     H14862   6.336   6.266   3.154 -1.5023  1.1011 -1.2708
  851MOL0     H14863   6.115   6.177   3.225  1.0484  0.6614 -2.7489
  851MOL0     H14864   6.103   6.355   3.216 -0.1230  0.3641  0.7385
  851MOL0     H14865   6.165   6.355   3.475  0.0738 -1.6486  1.3639
  851MOL0     H14866   6.120   6.179   3.464  0.4689 -1.1556 -0.8814
  851MOL0     H14867   6.676   5.702   3.250 -0.2890 -2.3818  2.7145
  851MOL0     H14868   6.781   5.536   3.383  1.3394 -2.2639 -0.4828
  851MOL0     H14869   7.141   5.399   3.555 -1.4786 -0.5878 -0.3236
  851MOL0     H14870   7.280   5.295   3.732 -0.7156 -1.1071  2.3157
  851MOL0     H14871   8.200   5.223   4.643 -1.4792 -0.7155  1.2326
  851MOL0     H14872   8.200   5.394   4.465 -0.8437  1.7266 -2.3148
  851MOL0     H14873   7.832   5.692   4.260 -0.0213 -1.3668 -0.8162
  851MOL0     H14874   7.786   5.868   4.116  0.1648  1.2090 -0.9239
  851MOL0     H14875   8.131   5.962   3.859 -0.2682  2.4963  1.6951
  851MOL0     H14876   8.013   5.888   3.738  0.3495  0.1713  0.8216
  851MOL0     H14877   8.019   6.183   3.829  0.7074  0.0517 -1.3083
  851MOL0     H14878   7.945   6.106   3.682  0.7901  0.1928 -2.4373
  851MOL0     H14879   8.231   6.191   3.750  1.0340  0.0667 -0.5474
  851MOL0     H14880   8.133   6.260   3.627 -0.0437 -0.5981 -1.3218
  851MOL0     H14881   8.211   5.973   3.603 -0.6999  0.2310  1.8658
  851MOL0     H14882   8.306   6.103   3.516 -1.7407  5.7945  0.0095
  851MOL0     H14883   7.986   6.150   3.268 -0.7831 -0.3110  1.2867
  851MOL0     H14884   8.161   5.774   3.906 -1.0517  2.9025 -0.9195
  851MOL0     H14885   8.184   5.584   4.038  1.2963  2.1219 -0.9210
  852MOL0     O14886  10.082   9.044   9.368  0.4188  0.0330  0.5406
  852MOL0     C14887   9.972   9.015   9.321 -0.2968 -0.2687  0.5279
  852MOL0     O14888   9.859   9.083   9.351 -0.8108 -0.3265  0.5423
  852MOL0     C14889   9.850   9.187   9.442  0.0521  0.3082 -0.8820
  852MOL0     C14890   9.736   9.181   9.526 -0.0786  0.5656 -0.1234
  852MOL0     C14891   9.711   9.286   9.621  1.2475 -0.2240 -0.5181
  852MOL0     C14892   9.788   9.402   9.618  0.9703  0.2993  0.1063
  852MOL0     O14893   9.772   9.507   9.699 -0.4723  0.1158 -0.1660
  852MOL0     C14894   9.669   9.608   9.657  0.4763 -0.0396 -0.6399
  852MOL0     C14895   9.722   9.747   9.632 -0.4340  0.4349  0.4929
  852MOL0     C14896   9.613   9.844   9.598  0.3161 -0.0480  0.5962
  852MOL0     C14897   9.645   9.997   9.589  0.3848 -0.0076  0.1226
  852MOL0     C14898   9.512  10.067   9.581 -0.2028 -0.6112  1.1047
  852MOL0     C14899   9.515  10.192   9.491 -0.7593 -0.2794  0.2090
  852MOL0     C14900   9.384  10.272   9.461  1.0579  0.3243 -0.4569
  852MOL0     C14901   9.263  10.187   9.425 -0.2408  0.7549  0.2698
  852MOL0     N14902   9.288  10.074   9.332 -0.2195 -0.2564 -0.7276
  852MOL0     C14903   9.340  10.099   9.212  0.1367  0.6212 -0.0409
  852MOL0     C14904   9.381   9.974   9.170  0.0551 -0.1454  0.6270
  852MOL0     C14905   9.475   9.941   9.049  0.7185 -0.3549 -0.3166
  852MOL0     C14906   9.418   9.833   8.956  0.3600  0.0537  0.1244
  852MOL0     C14907   9.485   9.812   8.814  0.6407  0.7802 -0.1553
  852MOL0     C14908   9.628   9.758   8.837  0.2432  0.4361  0.4106
  852MOL0     O14909   9.711   9.860   8.886  0.5704 -0.6612  0.3989
  852MOL0     C14910   9.837   9.882   8.827  0.4298 -0.5203 -0.5470
  852MOL0     C14911   9.921   9.951   8.914 -0.3047  1.2068  0.2985
  852MOL0     C14912  10.056   9.990   8.877 -0.1715 -1.0527 -0.4762
  852MOL0     C14913  10.143  10.075   8.977  0.0066 -0.1409  0.5963
  852MOL0     C14914  10.099   9.941   8.747  0.0941  0.6433  0.0309
  852MOL0     C14915  10.242   9.959   8.713  0.1777 -0.5428 -0.0849
  852MOL0     O14916  10.263  10.005   8.592 -1.0531 -0.2903 -0.1106
  852MOL0     C14917  10.392  10.035   8.542  0.5124  0.9091  0.6126
  852MOL0     C14918  10.493  10.108   8.606 -0.7720 -0.6165 -1.2383
  852MOL0     C14919  10.609  10.149   8.528  0.3987 -0.8613  0.0055
  852MOL0     C14920  10.622  10.122   8.395 -0.6150  0.0112 -0.0239
  852MOL0     O14921  10.725  10.172   8.315  0.2162  0.8994  0.7729
  852MOL0     C14922  10.754  10.313   8.335  0.3069  1.1396 -0.3522
  852MOL0     C14923  10.696  10.387   8.218 -0.8938 -0.5331 -0.1229
  852MOL0     C14924  10.804  10.403   8.108 -0.1849 -0.9039 -0.7034
  852MOL0     C14925  10.937  10.487   8.143  0.3003  0.2804  0.3207
  852MOL0     C14926  10.993  10.551   8.019  0.7870  0.5089 -0.1589
  852MOL0     C14927  11.122  10.630   8.053 -0.9590  0.7279 -0.1045
  852MOL0     C14928  11.184  10.687   7.936  0.7890 -0.3316 -1.3985
  852MOL0     C14929  11.304  10.775   7.970  0.2582  0.4487 -1.0537
  852MOL0    Cl14930  11.354  10.860   7.811  0.4457 -0.2882 -0.4527
  852MOL0     C14931  10.528  10.046   8.332  0.3433 -0.0736 -0.3225
  852MOL0     C14932  10.415   9.994   8.407 -0.1424  0.0413 -0.5580
  852MOL0     O14933  10.326   9.929   8.792  0.1094  0.4423  0.6002
  852MOL0     C14934  10.021   9.871   8.665  0.0144 -0.2547  1.0745
  852MOL0     C14935   9.884   9.844   8.692  0.2194 -0.5144  0.0255
  852MOL0     N14936   9.344   9.882   9.259  1.3044 -0.2399  0.0305
  852MOL0     N14937   9.274   9.939   9.356  1.0307 -1.1162 -0.3485
  852MOL0     C14938   9.900   9.414   9.530  0.4392 -0.2013 -0.2958
  852MOL0     C14939   9.940   9.301   9.443 -0.5221  0.0029  0.4661
  852MOL0     C14940   9.962   8.916   9.211  0.0729  0.2633 -0.0397
  852MOL0     C14941  10.069   8.836   9.168 -0.6793 -0.0237 -0.3769
  852MOL0     C14942  10.052   8.735   9.070 -0.0865 -0.0748  0.2205
  852MOL0     C14943   9.925   8.725   9.017 -0.3452  0.3818 -0.1776
  852MOL0     O14944   9.887   8.625   8.933  0.5181 -0.3111  0.2341
  852MOL0     C14945   9.971   8.573   8.838  0.0704  0.6494  0.8969
  852MOL0     C14946  10.026   8.675   8.724 -0.4487 -0.5395  0.4958
  852MOL0     C14947  10.094   8.605   8.611  0.7478  0.2499  0.1115
  852MOL0     C14948  10.238   8.664   8.582  0.4063 -0.5536  0.0611
  852MOL0     C14949  10.265   8.799   8.543  0.7977 -0.9192 -0.3604
  852MOL0     C14950  10.273   8.907   8.498 -0.4695 -0.2615 -0.4880
  852MOL0     C14951   9.828   8.814   9.054  0.2748 -0.6348  0.4321
  852MOL0     C14952   9.844   8.906   9.143  0.1393 -0.4000 -0.5154
  852MOL0     H14953   9.659   9.104   9.520  0.6266 -0.3376  1.5117
  852MOL0     H14954   9.620   9.283   9.680 -0.5426 -2.0149 -3.0773
  852MOL0     H14955   9.612   9.575   9.569  0.8899  0.1931 -0.9970
  852MOL0     H14956   9.603   9.617   9.744 -0.7740  1.2968 -1.6709
  852MOL0     H14957   9.784   9.777   9.718  1.7425 -0.8855 -0.5290
  852MOL0     H14958   9.789   9.733   9.547 -1.9479  1.0060 -0.8547
  852MOL0     H14959   9.566   9.817   9.503 -1.6657  0.2788  1.4165
  852MOL0     H14960   9.534   9.829   9.673 -0.8648  0.3143 -0.5407
  852MOL0     H14961   9.697  10.030   9.680  1.6774  1.9861 -1.2428
  852MOL0     H14962   9.700  10.022   9.498 -0.6190  0.5396 -0.3537
  852MOL0     H14963   9.435  10.012   9.526  0.7886 -1.1543  0.2307
  852MOL0     H14964   9.489  10.101   9.682 -0.0418  2.9611  0.0669
  852MOL0     H14965   9.592  10.252   9.541  1.8835 -3.1247 -0.1347
  852MOL0     H14966   9.554  10.159   9.395  0.2406  0.6826  0.2687
  852MOL0     H14967   9.364  10.334   9.549 -1.1131  0.4373 -0.9639
  852MOL0     H14968   9.398  10.333   9.371 -1.3313 -1.9069 -2.5188
  852MOL0     H14969   9.188  10.250   9.377 -0.4839 -0.4751 -1.0260
  852MOL0     H14970   9.224  10.149   9.521 -1.8066  1.4500 -0.0528
  852MOL0     H14971   9.353  10.190   9.154  0.2265 -0.3784 -1.6551
  852MOL0     H14972   9.523  10.031   9.008  3.9595 -0.6087  2.4962
  852MOL0     H14973   9.558   9.891   9.100 -0.1176 -0.4409  0.9935
  852MOL0     H14974   9.315   9.866   8.937  0.7372  1.2041 -0.0223
  852MOL0     H14975   9.424   9.741   9.015 -1.0450  1.0322  1.9105
  852MOL0     H14976   9.489   9.896   8.744 -0.7526 -0.1402 -1.3875
  852MOL0     H14977   9.427   9.731   8.771  1.6197 -0.1285  0.1991
  852MOL0     H14978   9.663   9.723   8.739  0.3900  2.5968 -0.3651
  852MOL0     H14979   9.627   9.679   8.913 -0.3192 -1.6585 -1.6407
  852MOL0     H14980   9.872   9.977   9.007 -1.5649  0.4410 -0.1241
  852MOL0     H14981  10.081  10.111   9.059 -0.3412  0.7517 -0.0351
  852MOL0     H14982  10.217  10.005   9.017  0.2724 -0.7311 -0.8351
  852MOL0     H14983  10.188  10.165   8.934  2.5789  0.2548  3.7226
  852MOL0     H14984  10.478  10.138   8.709 -0.7639 -0.8650 -1.1642
  852MOL0     H14985  10.684  10.206   8.583 -0.2405 -0.2428  0.2439
  852MOL0     H14986  10.717  10.359   8.427 -1.2525 -0.4590 -0.1256
  852MOL0     H14987  10.863  10.323   8.335  0.2582  1.7232 -1.1248
  852MOL0     H14988  10.607  10.339   8.176  0.3187 -2.5315 -0.5858
  852MOL0     H14989  10.677  10.489   8.251 -0.1524 -0.8155  1.2342
  852MOL0     H14990  10.759  10.467   8.032 -0.5723  0.6417  0.7723
  852MOL0     H14991  10.846  10.311   8.066  2.1992 -0.1032 -0.2308
  852MOL0     H14992  10.898  10.572   8.201 -0.8045  0.8817 -1.2208
  852MOL0     H14993  11.016  10.437   8.200  1.6680  0.4037 -1.3648
  852MOL0     H14994  10.923  10.625   7.978  1.5917  2.0244  1.1116
  852MOL0     H14995  11.013  10.474   7.944  2.3077  1.1178 -0.4130
  852MOL0     H14996  11.097  10.702   8.131 -0.5337  2.6181 -1.6549
  852MOL0     H14997  11.199  10.563   8.094 -2.0077 -0.1134  0.5588
  852MOL0     H14998  11.118  10.746   7.872  2.1289  1.7034 -0.9655
  852MOL0     H14999  11.218  10.604   7.873  0.0804  0.1664 -2.4777
  852MOL0     H15000  11.386  10.733   8.030 -0.6018 -2.1045 -1.5493
  852MOL0     H15001  11.266  10.855   8.035  0.5138 -0.6001  0.4352
  852MOL0     H15002  10.546  10.018   8.228 -3.3577 -2.6622 -0.4987
  852MOL0     H15003  10.350   9.922   8.359 -2.9326  0.7694  1.8286
  852MOL0     H15004  10.062   9.829   8.574  1.9695 -1.6751  2.5215
  852MOL0     H15005   9.820   9.785   8.628 -0.3518  0.0495  0.0678
  852MOL0     H15006   9.966   9.500   9.522  1.2761 -0.6454  1.2439
  852MOL0     H15007  10.018   9.314   9.369 -0.1168  0.0404  0.9010
  852MOL0     H15008  10.163   8.849   9.221 -1.3238 -1.0714  1.1021
  852MOL0     H15009  10.135   8.679   9.029 -1.0393 -0.6590 -0.9304
  852MOL0     H15010  10.049   8.519   8.893 -1.3928 -3.0503 -0.3200
  852MOL0     H15011   9.912   8.499   8.784 -1.1581  0.8272  1.9481
  852MOL0     H15012  10.103   8.742   8.765  2.0478 -1.4674 -2.3333
  852MOL0     H15013   9.945   8.738   8.688  0.5091  0.2918 -0.2649
  852MOL0     H15014  10.038   8.629   8.521 -2.2615  0.3046  1.8513
  852MOL0     H15015  10.096   8.496   8.626 -1.6022  0.3977  2.2171
  852MOL0     H15016  10.280   8.616   8.493 -0.9992 -1.2260 -0.2590
  852MOL0     H15017  10.303   8.647   8.668 -0.0008 -0.1680  0.4471
  852MOL0     H15018  10.278   9.004   8.451 -1.1678 -0.2451 -0.5335
  852MOL0     H15019   9.729   8.804   9.011  0.7862 -0.5876 -0.8309
  852MOL0     H15020   9.762   8.969   9.178 -1.7434 -4.0105  2.2945
  853MOL0     O15021   5.848   7.817  10.736 -0.3786 -0.3092  0.6115
  853MOL0     C15022   5.948   7.875  10.693 -0.0036 -0.1137 -0.1023
  853MOL0     O15023   6.072   7.840  10.718 -0.3722 -0.2475 -0.1251
  853MOL0     C15024   6.089   7.728  10.794 -1.3066  1.6797  0.4275
  853MOL0     C15025   6.101   7.606  10.725 -0.2637  0.0084  0.1013
  853MOL0     C15026   6.134   7.481  10.787  1.4124 -0.6926  0.1453
  853MOL0     C15027   6.143   7.483  10.926  1.6701  0.0161 -1.3301
  853MOL0     O15028   6.159   7.373  11.003 -0.5452  0.5075 -0.7497
  853MOL0     C15029   6.202   7.248  10.940 -0.3051 -0.5553 -0.1726
  853MOL0     C15030   6.194   7.125  11.041  0.0751 -0.2306 -0.1002
  853MOL0     C15031   6.053   7.083  11.074 -0.2732 -0.0002  0.7115
  853MOL0     C15032   6.050   6.968  11.179  0.8619  0.8208 -0.5658
  853MOL0     C15033   6.106   7.014  11.318 -0.7018  0.5464  0.0299
  853MOL0     C15034   6.067   6.919  11.435  0.2207  0.2813 -0.1945
  853MOL0     C15035   6.093   6.990  11.564  0.0359  0.4541 -0.1707
  853MOL0     C15036   6.076   6.895  11.683 -0.4997 -0.5180  0.9353
  853MOL0     N15037   6.067   6.957  11.817 -1.0332  1.0542 -0.0908
  853MOL0     C15038   5.961   7.025  11.862  0.1840 -0.2090  0.0004
  853MOL0     C15039   5.960   7.022  11.998 -0.4326  0.6113 -0.0050
  853MOL0     C15040   5.860   7.094  12.087 -0.6312 -0.0982  0.0696
  853MOL0     C15041   5.882   7.248  12.094 -0.7287  0.2094 -0.0780
  853MOL0     C15042   5.804   7.329  12.193  0.0906 -0.8923  0.2239
  853MOL0     C15043   5.845   7.478  12.219 -0.0648  0.3962 -0.0539
  853MOL0     O15044   5.746   7.529  12.316  0.0783 -0.0089  0.4603
  853MOL0     C15045   5.756   7.664  12.339  0.0408  0.4015 -1.0279
  853MOL0     C15046   5.879   7.721  12.369  0.0504 -0.3517  0.7635
  853MOL0     C15047   5.892   7.851  12.411  0.3718 -0.3601  0.3888
  853MOL0     C15048   6.034   7.899  12.437 -0.2053 -0.1157  0.1668
  853MOL0     C15049   5.767   7.930  12.406 -0.8929 -0.0548 -0.1331
  853MOL0     C15050   5.771   8.076  12.435 -0.4933 -0.0272  0.4442
  853MOL0     O15051   5.842   8.110  12.551  0.0196  0.4838  0.2589
  853MOL0     C15052   5.795   8.205  12.639  0.4895  0.6574 -1.5894
  853MOL0     C15053   5.659   8.250  12.640 -0.3927  0.1395 -0.1321
  853MOL0     C15054   5.614   8.324  12.751  0.2960  0.4928  0.4133
  853MOL0     C15055   5.703   8.371  12.858 -0.6410  0.4203  0.3488
  853MOL0     O15056   5.653   8.440  12.962 -0.6536 -0.5955 -0.3811
  853MOL0     C15057   5.637   8.353  13.082 -1.0647 -0.5753  0.2585
  853MOL0     C15058   5.505   8.285  13.083 -0.1740  0.1774  0.0768
  853MOL0     C15059   5.395   8.386  13.100 -0.4499  0.4716 -1.0556
  853MOL0     C15060   5.254   8.327  13.128  0.8911  0.0317 -0.2187
  853MOL0     C15061   5.159   8.431  13.180 -0.6907  0.3598  0.2629
  853MOL0     C15062   5.027   8.370  13.211 -0.2800 -0.2760 -0.7202
  853MOL0     C15063   4.935   8.479  13.278 -0.0448 -0.1113  0.6006
  853MOL0     C15064   4.812   8.427  13.354  0.8645 -0.1214 -0.3338
  853MOL0    Cl15065   4.705   8.343  13.239  0.8241  0.2461 -0.3179
  853MOL0     C15066   5.835   8.316  12.858  0.0457 -0.3700  0.7414
  853MOL0     C15067   5.871   8.235  12.750 -0.9129 -0.1769  0.0272
  853MOL0     O15068   5.706   8.147  12.360 -0.4633 -0.2881 -0.3266
  853MOL0     C15069   5.650   7.879  12.372 -0.6606  0.6289 -0.1602
  853MOL0     C15070   5.639   7.743  12.336  0.1332  0.0682 -0.4700
  853MOL0     N15071   6.079   6.947  12.036  0.4958 -0.2421 -0.9099
  853MOL0     N15072   6.131   6.902  11.923  0.0319  0.3794 -0.9754
  853MOL0     C15073   6.126   7.609  10.995  0.2679 -0.6233  0.7867
  853MOL0     C15074   6.106   7.731  10.932 -0.1368 -0.7479  0.2694
  853MOL0     C15075   5.924   7.983  10.607  0.4542 -0.1306  0.4782
  853MOL0     C15076   6.023   8.042  10.524 -0.0788 -1.4255 -0.5220
  853MOL0     C15077   5.995   8.124  10.415 -1.0304  0.3845  0.3167
  853MOL0     C15078   5.874   8.172  10.391 -0.0055 -0.1731 -0.0503
  853MOL0     O15079   5.860   8.254  10.282  0.4779  0.4226  0.9108
  853MOL0     C15080   5.731   8.259  10.223 -0.7929  0.3336  0.4957
  853MOL0     C15081   5.709   8.385  10.150  0.9996  0.3115 -0.5974
  853MOL0     C15082   5.817   8.441  10.057  0.1709  0.3411 -0.2902
  853MOL0     C15083   5.903   8.351   9.978  0.9586  0.5229 -0.3162
  853MOL0     C15084   5.961   8.434   9.871  0.2041 -0.1363 -0.4809
  853MOL0     C15085   6.012   8.491   9.790 -0.2099 -0.3213 -0.7194
  853MOL0     C15086   5.773   8.130  10.483 -0.9414 -0.0728  0.5298
  853MOL0     C15087   5.792   8.038  10.582 -0.2865 -0.4219  0.0967
  853MOL0     H15088   6.091   7.599  10.617  1.9548 -4.0068 -0.0219
  853MOL0     H15089   6.131   7.385  10.738  1.6772 -1.0351  0.7874
  853MOL0     H15090   6.161   7.230  10.841  2.0478  0.3589 -1.3970
  853MOL0     H15091   6.308   7.258  10.912 -1.1183 -2.5785 -4.7904
  853MOL0     H15092   6.244   7.036  11.003 -3.2740 -1.5113 -1.8840
  853MOL0     H15093   6.253   7.150  11.131  2.8902 -3.7961 -0.7012
  853MOL0     H15094   6.003   7.168  11.122 -0.8993 -1.2982  2.4296
  853MOL0     H15095   6.003   7.059  10.979  2.1314  2.1391 -1.2579
  853MOL0     H15096   5.945   6.941  11.193  1.0150  1.8933  4.7694
  853MOL0     H15097   6.112   6.881  11.158  3.1969  1.9097  1.3297
  853MOL0     H15098   6.214   7.032  11.315 -0.7917  0.9576 -0.9217
  853MOL0     H15099   6.073   7.119  11.322 -0.5962  0.7667 -2.8547
  853MOL0     H15100   5.959   6.906  11.432 -0.1779  2.6442  1.2777
  853MOL0     H15101   6.131   6.831  11.421 -0.6729 -0.3563 -0.3452
  853MOL0     H15102   6.197   7.021  11.572 -0.3956  1.6409  1.4017
  853MOL0     H15103   6.020   7.072  11.564  1.3383  1.6560 -0.3928
  853MOL0     H15104   6.172   6.842  11.691 -0.7845 -1.3730 -0.8241
  853MOL0     H15105   5.997   6.822  11.665 -1.8993  0.1951  3.6463
  853MOL0     H15106   5.884   7.079  11.809  0.5483 -1.0018 -1.4038
  853MOL0     H15107   5.760   7.078  12.047  0.4960 -1.6575 -2.3903
  853MOL0     H15108   5.859   7.056  12.189  0.5944 -0.7638 -0.1448
  853MOL0     H15109   5.859   7.292  11.997  0.7933  1.6314  0.1722
  853MOL0     H15110   5.988   7.267  12.116 -1.2036  0.5974  2.1663
  853MOL0     H15111   5.824   7.287  12.292  0.1065 -0.5298  0.3736
  853MOL0     H15112   5.697   7.314  12.171 -0.4144 -0.0185  1.8836
  853MOL0     H15113   5.826   7.523  12.121  2.0857 -3.0952 -2.3021
  853MOL0     H15114   5.947   7.489  12.256 -0.0912 -0.5101  0.3108
  853MOL0     H15115   5.966   7.658  12.382 -0.0987 -0.6353  0.4193
  853MOL0     H15116   6.049   7.919  12.544  1.9925 -1.2606  0.1365
  853MOL0     H15117   6.112   7.823  12.422 -0.8518 -0.8218  0.3224
  853MOL0     H15118   6.045   7.984  12.370 -4.0972 -0.2598 -0.8656
  853MOL0     H15119   5.574   8.209  12.587 -3.4369 -1.2895  5.1073
  853MOL0     H15120   5.511   8.358  12.755  0.2999  0.4147  1.5350
  853MOL0     H15121   5.721   8.282  13.082 -0.3566  0.1243 -3.0379
  853MOL0     H15122   5.638   8.431  13.159 -0.0156 -0.0981 -0.2158
  853MOL0     H15123   5.486   8.245  12.983  0.6360 -1.4941  0.5576
  853MOL0     H15124   5.501   8.215  13.167  2.5036  2.2412  2.1178
  853MOL0     H15125   5.398   8.446  13.009  2.2530  0.8438 -0.7958
  853MOL0     H15126   5.429   8.453  13.180 -0.1369 -1.5601  0.6070
  853MOL0     H15127   5.220   8.298  13.028 -0.1954  2.6744 -0.7048
  853MOL0     H15128   5.257   8.238  13.192 -0.5182 -0.4116 -0.7394
  853MOL0     H15129   5.128   8.497  13.099 -1.5565 -0.3516  0.0004
  853MOL0     H15130   5.207   8.472  13.270  1.6204 -0.1828 -0.6480
  853MOL0     H15131   4.986   8.333  13.116  2.0432 -0.2414 -1.8142
  853MOL0     H15132   5.033   8.300  13.295  0.5748 -1.3592 -1.6565
  853MOL0     H15133   4.910   8.557  13.205  1.5553 -0.0194  0.1071
  853MOL0     H15134   4.992   8.535  13.352 -0.9925  1.7806 -0.0482
  853MOL0     H15135   4.759   8.509  13.404  0.1104 -0.1977 -0.9716
  853MOL0     H15136   4.841   8.349  13.424  3.1314 -0.2682 -1.3730
  853MOL0     H15137   5.906   8.327  12.939  3.3713  0.8442 -2.1178
  853MOL0     H15138   5.971   8.193  12.748 -1.2421 -0.9981  0.2095
  853MOL0     H15139   5.562   7.942  12.385 -0.6900  0.3078  1.3799
  853MOL0     H15140   5.539   7.703  12.328  0.5990 -1.7750  1.6863
  853MOL0     H15141   6.148   7.617  11.101  0.3544  2.0582  0.6333
  853MOL0     H15142   6.092   7.819  10.994 -4.8952 -0.0087 -1.4976
  853MOL0     H15143   6.124   8.014  10.552 -0.0357  0.2036  1.1359
  853MOL0     H15144   6.076   8.175  10.364 -1.6115  1.6296  0.5938
  853MOL0     H15145   5.716   8.172  10.159 -0.3751  0.1037  0.7144
  853MOL0     H15146   5.654   8.257  10.300  0.4085  3.8932  2.0357
  853MOL0     H15147   5.700   8.457  10.232  0.9248  0.1272 -0.4462
  853MOL0     H15148   5.618   8.371  10.091  0.9650 -1.0686 -0.2532
  853MOL0     H15149   5.870   8.524  10.106 -2.5463  2.0786 -0.0552
  853MOL0     H15150   5.768   8.501   9.980  0.9198 -1.2860 -2.1067
  853MOL0     H15151   5.847   8.269   9.932  0.2596 -0.6327  2.3535
  853MOL0     H15152   5.981   8.311  10.044  1.7651 -2.0167 -2.6453
  853MOL0     H15153   6.061   8.551   9.715  1.9890  1.3912  1.9069
  853MOL0     H15154   5.668   8.158  10.477 -0.4203  1.9345  0.1979
  853MOL0     H15155   5.702   8.003  10.631  0.9097  0.3326  3.0688
  854MOL0     O15156   7.221   7.570   1.075 -0.0905  0.1638 -0.7708
  854MOL0     C15157   7.202   7.520   0.966 -0.3141  0.0080 -0.6049
  854MOL0     O15158   7.269   7.405   0.928  0.1641  0.1477  0.0061
  854MOL0     C15159   7.364   7.341   0.989  0.8257  0.7332  0.2173
  854MOL0     C15160   7.418   7.348   1.123  0.4856 -0.9464 -0.1543
  854MOL0     C15161   7.542   7.271   1.139 -0.1481 -0.5930 -0.2417
  854MOL0     C15162   7.588   7.172   1.055 -0.2681  0.4709  1.3986
  854MOL0     O15163   7.679   7.080   1.092  0.0231  0.6426  0.1300
  854MOL0     C15164   7.751   7.083   1.223  0.2965  0.0767  0.8300
  854MOL0     C15165   7.820   6.951   1.255  0.5360  0.0513 -0.9423
  854MOL0     C15166   7.945   6.924   1.161 -0.5501 -0.2858  0.7373
  854MOL0     C15167   8.009   6.783   1.187 -0.2967 -0.1158  0.6003
  854MOL0     C15168   8.141   6.761   1.108 -0.0609  1.0799 -0.6417
  854MOL0     C15169   8.150   6.750   0.954 -0.5207  0.5643  0.5521
  854MOL0     C15170   8.048   6.649   0.889  0.2861 -0.6367  0.1636
  854MOL0     C15171   8.093   6.500   0.919 -0.2929 -0.0035 -0.3757
  854MOL0     N15172   7.998   6.395   0.875  0.2637  0.0711  0.0632
  854MOL0     C15173   7.960   6.352   0.753 -0.5546 -0.0212 -0.7579
  854MOL0     C15174   7.873   6.256   0.775 -0.3566  0.6625 -0.0499
  854MOL0     C15175   7.818   6.175   0.667  1.2144 -0.3575  0.7050
  854MOL0     C15176   7.780   6.249   0.531 -0.0471  0.2342  0.5915
  854MOL0     C15177   7.744   6.149   0.417  0.0190 -0.3396 -0.1571
  854MOL0     C15178   7.597   6.091   0.443 -0.2544  0.1967  0.3698
  854MOL0     O15179   7.549   6.002   0.335 -0.1313  0.1336 -0.0997
  854MOL0     C15180   7.505   6.075   0.225  0.2802  0.1518 -0.5098
  854MOL0     C15181   7.590   6.113   0.130 -0.4293  0.6051 -0.9369
  854MOL0     C15182   7.542   6.191   0.019 -0.9718  0.1370  0.2834
  854MOL0     C15183   7.635   6.220  -0.102  0.0261  0.5877  0.3253
  854MOL0     C15184   7.410   6.238   0.022  0.3280 -0.4186  0.1998
  854MOL0     C15185   7.350   6.346  -0.075  0.3494 -0.1709 -0.2511
  854MOL0     O15186   7.213   6.366  -0.068 -0.7754  0.5332 -0.3406
  854MOL0     C15187   7.158   6.464  -0.156  0.8700  0.5072  1.1282
  854MOL0     C15188   7.168   6.600  -0.128  0.3641 -0.3329  1.0180
  854MOL0     C15189   7.116   6.697  -0.217  0.6472 -0.2364  0.0024
  854MOL0     C15190   7.042   6.653  -0.332 -0.3075 -0.3979 -0.4103
  854MOL0     O15191   6.994   6.742  -0.426  0.4981 -0.2745 -0.5496
  854MOL0     C15192   7.081   6.850  -0.469  0.5082 -0.7070  0.2256
  854MOL0     C15193   7.205   6.796  -0.537  0.0030 -0.0845  0.1989
  854MOL0     C15194   7.306   6.914  -0.567  0.6130  0.0886 -0.8866
  854MOL0     C15195   7.439   6.861  -0.608 -0.1143 -0.1358  0.0798
  854MOL0     C15196   7.557   6.874  -0.507 -0.2570  0.0478  0.0089
  854MOL0     C15197   7.531   6.810  -0.377  0.3590 -0.2937 -1.0193
  854MOL0     C15198   7.664   6.766  -0.301 -0.3616 -0.0623  1.1402
  854MOL0     C15199   7.647   6.714  -0.166 -1.1411  0.8115 -0.4355
  854MOL0    Cl15200   7.586   6.835  -0.059 -0.6129 -0.0337 -0.0320
  854MOL0     C15201   7.022   6.517  -0.352  0.1661 -0.2004  0.7814
  854MOL0     C15202   7.082   6.417  -0.265  0.2910 -0.7654  0.1063
  854MOL0     O15203   7.429   6.419  -0.146  0.3890 -0.0729  0.1084
  854MOL0     C15204   7.323   6.192   0.120  0.1943 -0.5714  0.2553
  854MOL0     C15205   7.370   6.107   0.216  0.3300 -0.5462  0.2544
  854MOL0     N15206   7.849   6.235   0.910 -0.2271 -0.0841 -0.3631
  854MOL0     N15207   7.927   6.323   0.962 -0.4805 -0.1100 -0.6161
  854MOL0     C15208   7.523   7.161   0.937  0.1997  0.3101 -0.3671
  854MOL0     C15209   7.420   7.245   0.906  0.0085  0.9893 -0.4166
  854MOL0     C15210   7.108   7.587   0.873  0.5196 -0.2628  0.6528
  854MOL0     C15211   7.123   7.576   0.729 -0.7480 -0.4653 -1.1386
  854MOL0     C15212   7.032   7.627   0.639 -0.0069 -0.3776  0.0385
  854MOL0     C15213   6.932   7.707   0.679  0.9232 -1.3795 -0.1752
  854MOL0     O15214   6.847   7.760   0.586  1.0867  0.4648  1.1993
  854MOL0     C15215   6.726   7.829   0.631 -0.6205  0.4804  0.3915
  854MOL0     C15216   6.609   7.731   0.651 -0.2359 -0.2798  0.4178
  854MOL0     C15217   6.499   7.794   0.748 -0.8224 -0.1523  1.4785
  854MOL0     C15218   6.401   7.679   0.781 -0.2012  0.7586 -0.0357
  854MOL0     C15219   6.308   7.675   0.668 -0.6171  0.0721 -0.5456
  854MOL0     C15220   6.222   7.690   0.587  0.8189 -0.4606  0.2717
  854MOL0     C15221   6.916   7.728   0.817 -0.1201 -0.2721 -0.4335
  854MOL0     C15222   7.005   7.667   0.919  0.3961 -0.5278  0.8432
  854MOL0     H15223   7.390   7.427   1.192  2.9643  0.4781 -0.6462
  854MOL0     H15224   7.591   7.284   1.235 -1.6745 -3.0795  0.9969
  854MOL0     H15225   7.830   7.158   1.234 -1.1926  1.8062  0.1186
  854MOL0     H15226   7.673   7.095   1.299  0.0423 -1.3860  0.8411
  854MOL0     H15227   7.846   6.946   1.361 -0.9881  1.2322 -0.4812
  854MOL0     H15228   7.738   6.884   1.229  0.8857 -0.2593 -1.2477
  854MOL0     H15229   7.897   6.931   1.063  0.3841 -2.5898  0.0541
  854MOL0     H15230   8.018   7.004   1.177  1.3027 -2.1688  2.2505
  854MOL0     H15231   8.040   6.769   1.291  2.5791 -0.2212 -0.1928
  854MOL0     H15232   7.935   6.706   1.162  0.1360 -0.2473 -0.3471
  854MOL0     H15233   8.208   6.843   1.136  0.0269  1.6443 -2.3872
  854MOL0     H15234   8.180   6.665   1.144 -4.2835 -0.6804 -0.1035
  854MOL0     H15235   8.136   6.852   0.918  1.5956  2.2843  4.0990
  854MOL0     H15236   8.254   6.723   0.930 -0.9762 -0.3712 -0.4516
  854MOL0     H15237   7.944   6.653   0.923  1.1699  1.4589  3.0823
  854MOL0     H15238   8.053   6.657   0.780  0.5902  2.1471  0.3236
  854MOL0     H15239   8.097   6.490   1.028 -1.7891 -0.8154 -0.3639
  854MOL0     H15240   8.196   6.482   0.890  0.0749  0.5752  0.5147
  854MOL0     H15241   7.988   6.408   0.665  3.3228 -1.9187 -0.9326
  854MOL0     H15242   7.881   6.089   0.643  0.9796  0.3478 -3.2857
  854MOL0     H15243   7.718   6.149   0.701  0.2224 -1.4499 -2.6234
  854MOL0     H15244   7.861   6.316   0.502 -0.4768  2.6996  4.4063
  854MOL0     H15245   7.708   6.329   0.550  3.8974  3.3734  4.3405
  854MOL0     H15246   7.819   6.071   0.402  1.5756  0.6205  2.1043
  854MOL0     H15247   7.733   6.198   0.320 -2.0313 -0.1373  0.1362
  854MOL0     H15248   7.527   6.175   0.442 -2.4473 -1.4524  2.8517
  854MOL0     H15249   7.587   6.031   0.534 -0.7199 -2.5368 -1.3885
  854MOL0     H15250   7.694   6.082   0.138 -0.0835  1.8117 -0.4594
  854MOL0     H15251   7.576   6.244  -0.191  3.5402  0.6931 -2.1598
  854MOL0     H15252   7.700   6.306  -0.086  1.0697  0.1278 -1.1818
  854MOL0     H15253   7.692   6.131  -0.130 -0.4187  1.0196 -2.1473
  854MOL0     H15254   7.222   6.624  -0.037 -0.0011  0.0985  1.1210
  854MOL0     H15255   7.143   6.800  -0.194  1.4825 -0.8188  1.8542
  854MOL0     H15256   7.020   6.913  -0.535 -0.2970  0.0860  1.6852
  854MOL0     H15257   7.121   6.916  -0.392  1.1724 -0.2418 -0.4966
  854MOL0     H15258   7.252   6.726  -0.467  1.2260 -1.2123 -1.6718
  854MOL0     H15259   7.182   6.751  -0.634  1.4145  0.9059 -0.6360
  854MOL0     H15260   7.316   6.980  -0.480 -1.6030  3.0582 -2.6620
  854MOL0     H15261   7.270   6.984  -0.643  1.7394  1.0480 -0.5712
  854MOL0     H15262   7.409   6.761  -0.641 -4.4323  1.0666 -0.2489
  854MOL0     H15263   7.460   6.901  -0.708 -4.8161 -2.3599 -2.0831
  854MOL0     H15264   7.579   6.980  -0.495 -1.2729  0.1509  1.1147
  854MOL0     H15265   7.636   6.818  -0.559 -2.6183 -2.3654 -1.2196
  854MOL0     H15266   7.494   6.895  -0.318 -0.2241  0.2077 -2.0855
  854MOL0     H15267   7.463   6.724  -0.375  3.3140 -2.7851  0.0833
  854MOL0     H15268   7.740   6.844  -0.297  1.4751 -1.2908 -3.4169
  854MOL0     H15269   7.700   6.680  -0.359  4.1987  1.6436  1.0250
  854MOL0     H15270   7.749   6.688  -0.135 -2.3546 -0.2493  3.1705
  854MOL0     H15271   7.575   6.632  -0.172  0.4379 -0.7704  0.9626
  854MOL0     H15272   6.975   6.483  -0.444 -0.5836 -0.2591  1.1760
  854MOL0     H15273   7.066   6.311  -0.273 -2.3496 -0.4643  0.6839
  854MOL0     H15274   7.216   6.213   0.119  0.4746  0.9234 -0.4484
  854MOL0     H15275   7.305   6.067   0.294 -1.6395  0.7142 -0.6673
  854MOL0     H15276   7.558   7.088   0.865  2.3289  1.8848 -1.0354
  854MOL0     H15277   7.375   7.229   0.809 -0.1502  0.3417 -0.2407
  854MOL0     H15278   7.212   7.516   0.713 -0.9721 -2.7018  4.2416
  854MOL0     H15279   7.053   7.626   0.533 -2.6325 -1.2362 -0.5484
  854MOL0     H15280   6.743   7.897   0.715 -0.3121  0.8093  0.0671
  854MOL0     H15281   6.707   7.898   0.548  3.9489 -1.6375 -2.8691
  854MOL0     H15282   6.646   7.634   0.686  1.0708  0.2895  0.6502
  854MOL0     H15283   6.560   7.710   0.555  1.0640 -2.3196  0.1236
  854MOL0     H15284   6.450   7.881   0.703 -2.4354 -1.7002  0.0529
  854MOL0     H15285   6.547   7.829   0.840  1.8060  0.8271 -0.1284
  854MOL0     H15286   6.349   7.695   0.876 -0.2177  0.5938 -0.0169
  854MOL0     H15287   6.453   7.583   0.788 -1.0845  0.2849  0.1705
  854MOL0     H15288   6.133   7.716   0.534  1.4089  3.8444  1.0357
  854MOL0     H15289   6.834   7.781   0.864 -0.1826  0.1991 -1.0678
  854MOL0     H15290   6.992   7.677   1.026 -0.8762  0.5799  0.6108
  855MOL0     O15291   8.288   1.363   2.343 -0.5756  0.0226 -0.1944
  855MOL0     C15292   8.279   1.456   2.261  0.2995  0.1039 -0.8326
  855MOL0     O15293   8.157   1.508   2.213 -0.6408 -0.4140 -0.6562
  855MOL0     C15294   8.045   1.441   2.243 -0.6003 -0.1998  1.5874
  855MOL0     C15295   7.933   1.524   2.278  0.0311 -0.7408  0.0841
  855MOL0     C15296   7.811   1.471   2.332 -0.4510  0.0818  0.6815
  855MOL0     C15297   7.798   1.330   2.341 -0.6723 -0.3895 -0.2827
  855MOL0     O15298   7.687   1.272   2.394 -0.0743  0.9788 -0.6887
  855MOL0     C15299   7.721   1.199   2.514  0.6910 -0.0856 -0.5326
  855MOL0     C15300   7.618   1.076   2.543  0.2598 -0.3822 -0.6614
  855MOL0     C15301   7.597   0.982   2.427  0.1583 -0.0248 -0.0914
  855MOL0     C15302   7.510   1.046   2.311  0.0824  0.1673 -0.4716
  855MOL0     C15303   7.395   0.951   2.261  0.5100  0.0179 -0.3909
  855MOL0     C15304   7.331   0.996   2.127  0.4897 -0.9541  0.3675
  855MOL0     C15305   7.264   1.136   2.123  0.8608  0.4363  0.0913
  855MOL0     C15306   7.131   1.128   2.053  0.1101  0.7379 -1.5057
  855MOL0     N15307   7.017   1.081   2.132 -0.9416  0.1017 -0.4823
  855MOL0     C15308   6.966   0.961   2.109  0.2826  0.7208 -0.6332
  855MOL0     C15309   6.865   0.941   2.200  0.3207 -0.4938 -0.3087
  855MOL0     C15310   6.785   0.823   2.198  0.7957  0.1096 -0.9759
  855MOL0     C15311   6.863   0.698   2.248 -0.8884 -0.1882  0.1192
  855MOL0     C15312   6.786   0.577   2.212  0.3730 -0.7369  1.0611
  855MOL0     C15313   6.801   0.530   2.068  0.0087  1.1767  0.9495
  855MOL0     O15314   6.766   0.388   2.059 -0.3496  0.1692  0.0984
  855MOL0     C15315   6.856   0.290   2.093  0.5468 -0.8074 -1.1707
  855MOL0     C15316   6.988   0.318   2.124 -0.3655  0.0769 -0.5697
  855MOL0     C15317   7.079   0.217   2.169  0.6283  0.4553  0.2738
  855MOL0     C15318   7.210   0.269   2.220  0.2989  1.0514  0.3367
  855MOL0     C15319   7.025   0.086   2.173  0.1204  0.1399  0.6266
  855MOL0     C15320   7.115  -0.030   2.214 -0.0643 -0.0593  0.0870
  855MOL0     O15321   7.249  -0.010   2.207 -0.0607  0.0942 -0.2884
  855MOL0     C15322   7.335  -0.113   2.231  0.0725  0.4301  0.3366
  855MOL0     C15323   7.444  -0.081   2.307 -0.1609  0.1158  0.6703
  855MOL0     C15324   7.547  -0.169   2.321  0.0606  0.4989  0.5337
  855MOL0     C15325   7.548  -0.293   2.258 -0.9439 -0.0074 -0.3892
  855MOL0     O15326   7.651  -0.379   2.277  0.2443 -0.5684  0.0469
  855MOL0     C15327   7.641  -0.449   2.410  0.8218  0.1433  0.0533
  855MOL0     C15328   7.626  -0.596   2.391 -0.1748  0.5061 -0.0956
  855MOL0     C15329   7.743  -0.649   2.303 -0.5560  0.7148 -0.6161
  855MOL0     C15330   7.724  -0.794   2.262  0.5692 -0.3826  0.1827
  855MOL0     C15331   7.807  -0.828   2.137 -0.2427  1.1355 -0.0298
  855MOL0     C15332   7.766  -0.948   2.063 -0.3300  0.1337 -0.0468
  855MOL0     C15333   7.852  -0.983   1.941  0.2685  0.2712 -0.9271
  855MOL0     C15334   7.875  -0.854   1.864 -1.1246  0.2110 -0.1841
  855MOL0    Cl15335   7.712  -0.789   1.810  0.2789  0.5104 -0.7691
  855MOL0     C15336   7.439  -0.335   2.182  0.1414  0.0119 -0.6631
  855MOL0     C15337   7.330  -0.241   2.169  0.3977  0.6074 -0.1973
  855MOL0     O15338   7.059  -0.132   2.245  0.1275  1.0597  0.3589
  855MOL0     C15339   6.892   0.063   2.158 -0.2435  0.3284 -1.1182
  855MOL0     C15340   6.814   0.165   2.110  1.2784 -0.1202 -0.2129
  855MOL0     N15341   6.849   1.056   2.272 -0.2087 -0.1655  0.9399
  855MOL0     N15342   6.941   1.133   2.228 -0.0655 -0.7746 -1.2145
  855MOL0     C15343   7.902   1.251   2.282 -0.3162  0.5016  0.7361
  855MOL0     C15344   8.021   1.306   2.242  0.0865 -0.1166  0.1575
  855MOL0     C15345   8.398   1.519   2.214 -0.8848 -0.9179 -0.4011
  855MOL0     C15346   8.522   1.519   2.288 -0.3786  0.3123  0.4659
  855MOL0     C15347   8.635   1.588   2.250 -0.4112 -0.1098 -0.4124
  855MOL0     C15348   8.647   1.648   2.125 -0.0325 -0.3389 -0.7061
  855MOL0     O15349   8.767   1.694   2.080 -0.1108  0.0364 -0.4694
  855MOL0     C15350   8.789   1.761   1.956  0.2557  0.1721  0.5089
  855MOL0     C15351   8.947   1.775   1.928 -0.1914  0.6480  0.7177
  855MOL0     C15352   9.012   1.894   2.003  0.7714 -0.9806  0.3952
  855MOL0     C15353   8.974   2.025   1.935 -0.1278 -0.7511  0.4355
  855MOL0     C15354   9.038   2.143   1.992 -0.0019  0.3444 -0.3748
  855MOL0     C15355   9.101   2.238   2.028 -0.1311 -0.5034  0.5279
  855MOL0     C15356   8.527   1.643   2.048 -0.1261 -0.2351  0.0618
  855MOL0     C15357   8.413   1.587   2.093  0.4229  0.1485 -0.9278
  855MOL0     H15358   7.957   1.629   2.268 -1.7519 -0.5179 -2.8146
  855MOL0     H15359   7.721   1.527   2.350 -1.1499  0.3204 -2.7798
  855MOL0     H15360   7.819   1.151   2.506  1.6654  2.1038 -2.9123
  855MOL0     H15361   7.741   1.255   2.606  1.3939 -1.8346  0.4311
  855MOL0     H15362   7.659   1.023   2.630  3.7252  3.2605  0.2270
  855MOL0     H15363   7.526   1.119   2.583  0.8034 -1.5415  2.0695
  855MOL0     H15364   7.692   0.944   2.388  2.1221  2.7977  1.5997
  855MOL0     H15365   7.545   0.892   2.462 -0.2939 -0.5518 -1.9608
  855MOL0     H15366   7.471   1.146   2.333  0.6150  0.3686 -0.4180
  855MOL0     H15367   7.579   1.065   2.228  1.7849 -1.7502  0.4274
  855MOL0     H15368   7.420   0.847   2.239  0.2674  0.0794 -0.9815
  855MOL0     H15369   7.317   0.933   2.337  0.1851  1.1134 -0.4501
  855MOL0     H15370   7.422   1.005   2.065  2.1782  0.5104  2.8739
  855MOL0     H15371   7.276   0.908   2.092 -0.7344 -0.1939  0.3271
  855MOL0     H15372   7.258   1.170   2.227 -2.5457 -1.5098  0.6974
  855MOL0     H15373   7.333   1.208   2.079  1.7440  0.9939  2.2510
  855MOL0     H15374   7.151   1.059   1.970  1.9302  0.0027 -0.5180
  855MOL0     H15375   7.116   1.228   2.010  4.3086  2.2869  0.1667
  855MOL0     H15376   7.010   0.889   2.042 -1.7548 -0.6649 -0.5766
  855MOL0     H15377   6.696   0.838   2.260  0.0417 -2.0454 -1.4366
  855MOL0     H15378   6.744   0.807   2.099 -3.8016 -2.5549  1.0431
  855MOL0     H15379   6.881   0.704   2.356  1.9940 -1.4325 -0.2098
  855MOL0     H15380   6.965   0.695   2.209 -0.1494  0.2454  1.8943
  855MOL0     H15381   6.679   0.593   2.229  0.1037  1.3259 -1.8824
  855MOL0     H15382   6.808   0.491   2.276 -1.3263 -2.3862 -0.4293
  855MOL0     H15383   6.897   0.555   2.023 -1.5538  0.7770 -2.9952
  855MOL0     H15384   6.717   0.571   2.010  0.2916 -2.3426 -2.2587
  855MOL0     H15385   7.019   0.422   2.111  0.7175 -0.2939 -1.1542
  855MOL0     H15386   7.208   0.369   2.264  0.8140  0.6524  1.3034
  855MOL0     H15387   7.241   0.203   2.302  1.8241 -2.0971 -2.5005
  855MOL0     H15388   7.281   0.270   2.137  0.7763 -1.9658  0.5696
  855MOL0     H15389   7.440   0.004   2.375  3.2950 -0.6950  2.0929
  855MOL0     H15390   7.639  -0.137   2.368  0.1146  1.4069 -0.1729
  855MOL0     H15391   7.732  -0.421   2.464  1.0468 -1.3441  0.4643
  855MOL0     H15392   7.563  -0.416   2.480  0.0918 -3.3571  1.0858
  855MOL0     H15393   7.628  -0.653   2.484 -1.7364  1.9805  0.8963
  855MOL0     H15394   7.529  -0.607   2.342  0.0940 -1.1739 -0.2961
  855MOL0     H15395   7.846  -0.640   2.339 -0.7793 -0.4672  0.3725
  855MOL0     H15396   7.767  -0.581   2.221 -2.2700  0.5342 -1.3038
  855MOL0     H15397   7.754  -0.859   2.345 -0.4746  0.9147  1.6300
  855MOL0     H15398   7.621  -0.823   2.239  1.2478 -0.5714 -3.1178
  855MOL0     H15399   7.914  -0.822   2.157  0.2662  0.7895 -2.3758
  855MOL0     H15400   7.786  -0.739   2.077 -0.5850  2.8550  2.4711
  855MOL0     H15401   7.782  -1.033   2.130 -2.4749  0.3216  0.7853
  855MOL0     H15402   7.662  -0.950   2.029 -0.1576 -3.5707 -0.7878
  855MOL0     H15403   7.801  -1.054   1.874 -2.7555  1.0307  0.4023
  855MOL0     H15404   7.943  -1.032   1.977  1.6068  1.5109 -2.4446
  855MOL0     H15405   7.932  -0.891   1.778 -1.1090 -2.5075  0.8787
  855MOL0     H15406   7.941  -0.790   1.923 -2.4607  0.3975  1.1779
  855MOL0     H15407   7.447  -0.428   2.126 -0.5682 -1.0351  0.8898
  855MOL0     H15408   7.247  -0.266   2.103 -0.8832 -0.8105  1.8137
  855MOL0     H15409   6.841  -0.032   2.176  2.6132 -0.5944  3.9838
  855MOL0     H15410   6.709   0.150   2.085  0.3541  2.2986  1.7842
  855MOL0     H15411   7.891   1.143   2.277 -1.9512  0.6766 -0.2064
  855MOL0     H15412   8.097   1.249   2.189 -0.2287 -1.0495  0.6686
  855MOL0     H15413   8.533   1.476   2.387  2.0679  1.1683  0.6573
  855MOL0     H15414   8.708   1.601   2.330 -3.3200  1.2050  2.2541
  855MOL0     H15415   8.751   1.697   1.875 -2.7362  1.5363  0.6867
  855MOL0     H15416   8.734   1.855   1.947 -2.1827 -1.0082  2.1122
  855MOL0     H15417   8.957   1.791   1.820 -2.3510 -2.1355 -0.0445
  855MOL0     H15418   8.995   1.680   1.954 -0.3093  0.0445 -1.1082
  855MOL0     H15419   9.119   1.881   1.991  0.8177  0.8764 -1.8886
  855MOL0     H15420   8.989   1.895   2.110 -2.9867  1.4038 -0.2240
  855MOL0     H15421   8.865   2.036   1.930 -0.6655 -4.3536  1.0495
  855MOL0     H15422   9.005   2.018   1.830 -0.9411  3.3526 -0.2564
  855MOL0     H15423   9.135   2.330   2.070 -1.3363 -1.2873  3.4800
  855MOL0     H15424   8.512   1.689   1.951 -3.7949 -2.5145 -0.6576
  855MOL0     H15425   8.326   1.587   2.028 -1.0074  3.8040  0.6908
  856MOL0     O15426  10.347   7.830   5.894 -0.4528  0.1686 -0.2210
  856MOL0     C15427  10.351   7.748   5.992 -0.0066 -0.2199 -0.1793
  856MOL0     O15428  10.305   7.770   6.113  0.0739 -0.7954 -0.7196
  856MOL0     C15429  10.229   7.867   6.158  0.2697  0.1275  0.3897
  856MOL0     C15430  10.156   7.960   6.086 -0.3829 -0.9598 -0.2968
  856MOL0     C15431  10.057   8.033   6.149  0.3986 -0.7982 -0.2565
  856MOL0     C15432  10.018   8.007   6.275 -1.3527 -0.4549 -0.4750
  856MOL0     O15433   9.918   8.082   6.329  0.3278 -0.2643 -0.9475
  856MOL0     C15434   9.818   8.011   6.391  0.3253  0.5867  2.2573
  856MOL0     C15435   9.727   8.117   6.460 -0.9956 -0.1335  1.0775
  856MOL0     C15436   9.642   8.038   6.560  0.3695  0.0014 -0.0159
  856MOL0     C15437   9.722   8.048   6.693 -0.2320  0.6087 -0.2725
  856MOL0     C15438   9.633   8.021   6.815  0.3771  0.0904  0.1530
  856MOL0     C15439   9.559   7.882   6.832 -0.8821 -0.6645 -0.5063
  856MOL0     C15440   9.665   7.761   6.841  0.2545 -0.2740 -0.2351
  856MOL0     C15441   9.608   7.629   6.873 -0.1477 -0.0579  0.1338
  856MOL0     N15442   9.619   7.605   7.018 -1.1477  0.8674 -0.1493
  856MOL0     C15443   9.519   7.620   7.107 -0.2133 -0.3315  0.9173
  856MOL0     C15444   9.563   7.552   7.215  0.3371  0.1825 -0.3169
  856MOL0     C15445   9.487   7.515   7.337  0.0351  0.0481  0.0583
  856MOL0     C15446   9.571   7.476   7.460 -0.2852 -0.0227 -0.4524
  856MOL0     C15447   9.480   7.440   7.581  0.0054  1.7241 -0.4412
  856MOL0     C15448   9.560   7.399   7.704 -0.0621  0.0117  0.0974
  856MOL0     O15449   9.490   7.323   7.803 -0.8993  0.0214  0.4745
  856MOL0     C15450   9.570   7.245   7.882  0.0432 -0.6837  0.2226
  856MOL0     C15451   9.528   7.124   7.929  0.0309 -0.2827  1.0501
  856MOL0     C15452   9.596   7.033   8.009  0.0890 -0.1620  0.1305
  856MOL0     C15453   9.533   6.897   8.028  0.4709  0.3373 -0.4450
  856MOL0     C15454   9.735   7.062   8.033  0.2249  0.5229 -0.4020
  856MOL0     C15455   9.829   6.965   8.097 -1.5661 -0.0975  0.5170
  856MOL0     O15456   9.957   6.999   8.078  0.0248 -0.2410  0.1256
  856MOL0     C15457  10.062   6.942   8.136  0.0496 -0.1768 -0.7485
  856MOL0     C15458  10.176   6.936   8.057  0.6533  0.6166 -0.5656
  856MOL0     C15459  10.288   6.890   8.109  0.5697  0.2483  0.3819
  856MOL0     C15460  10.288   6.829   8.238  1.0798 -0.0080  1.0254
  856MOL0     O15461  10.404   6.771   8.270 -0.3552 -0.9159  0.7565
  856MOL0     C15462  10.397   6.653   8.354  0.2979 -0.7742  0.0766
  856MOL0     C15463  10.517   6.651   8.446 -0.8019  1.0168 -0.5930
  856MOL0     C15464  10.518   6.752   8.559 -0.5355 -0.0854 -0.3541
  856MOL0     C15465  10.592   6.700   8.681  0.2178 -0.6939 -1.1079
  856MOL0     C15466  10.597   6.815   8.784 -0.4279  0.7182 -0.1472
  856MOL0     C15467  10.741   6.863   8.788  0.0123  0.2007  0.0231
  856MOL0     C15468  10.753   7.012   8.821  0.0396 -0.0448 -0.9494
  856MOL0     C15469  10.907   7.045   8.842 -0.7184  0.2845  0.0374
  856MOL0    Cl15470  10.937   7.202   8.928 -0.0942  0.1722  0.2960
  856MOL0     C15471  10.170   6.837   8.318 -0.1008  0.7821 -0.3573
  856MOL0     C15472  10.060   6.897   8.268  0.0561  1.2350  0.0430
  856MOL0     O15473   9.789   6.862   8.163  0.7586 -0.2027  0.2954
  856MOL0     C15474   9.783   7.190   7.997  0.4436 -0.8614  0.0937
  856MOL0     C15475   9.701   7.276   7.919 -0.1616  0.2443  0.3352
  856MOL0     N15476   9.690   7.511   7.187 -1.1811  0.1341  0.5862
  856MOL0     N15477   9.725   7.535   7.067 -0.3146  0.6625  0.1021
  856MOL0     C15478  10.100   7.929   6.353 -0.3854 -0.9916  0.0894
  856MOL0     C15479  10.204   7.856   6.293  1.0536  0.5153 -0.5888
  856MOL0     C15480  10.439   7.622   5.988 -0.2816  0.8823  0.2003
  856MOL0     C15481  10.477   7.551   6.105 -0.0658 -0.0166  0.1506
  856MOL0     C15482  10.539   7.428   6.097 -0.0608  0.0029  1.0787
  856MOL0     C15483  10.583   7.374   5.975 -0.3853 -0.0797  0.4540
  856MOL0     O15484  10.661   7.257   5.971 -0.6682 -0.2506  0.5702
  856MOL0     C15485  10.631   7.161   5.873  0.0761  0.7378  0.5417
  856MOL0     C15486  10.488   7.093   5.883 -0.8428  0.7072 -0.6437
  856MOL0     C15487  10.500   6.942   5.841 -0.0395  0.8098 -0.6885
  856MOL0     C15488  10.371   6.863   5.855  0.4440  0.1305 -0.2188
  856MOL0     C15489  10.378   6.743   5.773 -0.4277 -0.5250  0.3463
  856MOL0     C15490  10.390   6.631   5.735  0.2474 -0.2074  0.1773
  856MOL0     C15491  10.547   7.448   5.862 -1.1290 -0.0719  0.3392
  856MOL0     C15492  10.477   7.566   5.865 -0.3318  0.2520 -0.5325
  856MOL0     H15493  10.192   7.987   5.987 -1.8327  0.3386 -0.5091
  856MOL0     H15494  10.018   8.111   6.084  2.1812  0.9397  0.6154
  856MOL0     H15495   9.765   7.937   6.330 -0.3780 -0.0717  3.6363
  856MOL0     H15496   9.869   7.947   6.463 -0.1537 -0.9461  1.2779
  856MOL0     H15497   9.784   8.196   6.509  0.0040 -0.5923  0.6928
  856MOL0     H15498   9.654   8.157   6.390 -2.2460  2.2087  3.5609
  856MOL0     H15499   9.545   8.088   6.566 -0.2895 -1.0481 -1.3104
  856MOL0     H15500   9.621   7.934   6.534 -4.0240  1.1011 -1.8011
  856MOL0     H15501   9.797   7.969   6.682 -1.9883 -2.0531  4.2038
  856MOL0     H15502   9.775   8.140   6.721  4.6855 -1.5521 -1.4624
  856MOL0     H15503   9.688   8.047   6.906  0.9347  0.7911 -0.3656
  856MOL0     H15504   9.546   8.087   6.820 -1.3327 -2.1729  1.8686
  856MOL0     H15505   9.493   7.888   6.919 -0.0143 -0.2877  0.1425
  856MOL0     H15506   9.496   7.858   6.746  1.2372 -0.2367 -2.2344
  856MOL0     H15507   9.715   7.765   6.744 -0.2103  1.8615 -0.4381
  856MOL0     H15508   9.735   7.789   6.921 -2.7673  1.1354  2.1620
  856MOL0     H15509   9.662   7.553   6.817  0.5694  1.8125 -1.8661
  856MOL0     H15510   9.504   7.614   6.843 -0.0405  0.4631 -0.5224
  856MOL0     H15511   9.423   7.671   7.099 -0.8578 -1.6452 -0.0981
  856MOL0     H15512   9.418   7.592   7.371 -1.0637 -2.3638  3.8153
  856MOL0     H15513   9.420   7.431   7.315 -1.5957  0.7489  2.0761
  856MOL0     H15514   9.633   7.559   7.493 -1.9673  0.1044  2.8707
  856MOL0     H15515   9.634   7.390   7.436  0.5573 -1.0087  4.3028
  856MOL0     H15516   9.415   7.356   7.553  1.2156  0.6845 -0.2459
  856MOL0     H15517   9.421   7.531   7.595 -1.6448  0.9812 -2.0638
  856MOL0     H15518   9.617   7.483   7.746 -1.9640  2.7876 -2.4033
  856MOL0     H15519   9.635   7.326   7.672 -1.9245 -1.2758 -1.5569
  856MOL0     H15520   9.428   7.096   7.898 -0.1831 -1.0969  2.3892
  856MOL0     H15521   9.585   6.827   7.961  3.6154  1.8041  0.2959
  856MOL0     H15522   9.537   6.859   8.131 -2.0658  1.8219  0.2884
  856MOL0     H15523   9.426   6.909   8.008  0.0730  1.9758  2.2248
  856MOL0     H15524  10.189   6.983   7.960  1.6230  1.8301  0.1224
  856MOL0     H15525  10.372   6.903   8.042 -0.2940  2.3229 -0.3501
  856MOL0     H15526  10.306   6.636   8.412 -1.4333 -2.2173 -2.8155
  856MOL0     H15527  10.402   6.567   8.286 -0.8801 -0.3994 -0.5107
  856MOL0     H15528  10.516   6.546   8.477  1.7866 -0.3338 -4.3655
  856MOL0     H15529  10.613   6.655   8.393 -0.8953  2.5196 -0.6856
  856MOL0     H15530  10.411   6.772   8.575 -0.5383  1.2356 -1.7427
  856MOL0     H15531  10.561   6.843   8.516 -0.8988 -0.0799 -0.7196
  856MOL0     H15532  10.524   6.628   8.728  0.5040 -1.1718 -1.4169
  856MOL0     H15533  10.688   6.650   8.665  0.6883 -1.5087  3.0907
  856MOL0     H15534  10.553   6.781   8.878 -2.7370 -0.0340 -1.4294
  856MOL0     H15535  10.530   6.898   8.762 -1.2489  0.4043  1.0893
  856MOL0     H15536  10.796   6.805   8.863 -0.2181  2.9734  2.4703
  856MOL0     H15537  10.793   6.848   8.693 -0.8516 -1.8479 -0.1771
  856MOL0     H15538  10.718   7.042   8.920  1.9194 -1.0903  0.0702
  856MOL0     H15539  10.697   7.069   8.745 -0.0797  0.2826 -0.6202
  856MOL0     H15540  10.962   7.045   8.748 -3.2422 -2.3111 -1.6100
  856MOL0     H15541  10.950   6.960   8.896 -2.5043 -0.3610  0.5396
  856MOL0     H15542  10.157   6.791   8.415 -1.1876  0.5406 -0.6024
  856MOL0     H15543   9.967   6.903   8.323 -1.3441  0.5534 -2.1462
  856MOL0     H15544   9.880   7.233   8.018  0.2584 -0.5797  0.3748
  856MOL0     H15545   9.750   7.370   7.896  1.1682 -0.5549 -0.1907
  856MOL0     H15546  10.090   7.933   6.461  0.9452 -1.8280  0.2645
  856MOL0     H15547  10.255   7.782   6.354  0.4375  0.2648 -0.3730
  856MOL0     H15548  10.447   7.584   6.204  2.1318  0.1960  0.8072
  856MOL0     H15549  10.558   7.371   6.187 -3.3356 -0.5047  1.5912
  856MOL0     H15550  10.654   7.196   5.772 -0.6032 -1.1464 -0.3084
  856MOL0     H15551  10.696   7.076   5.896  0.2215  0.4399 -0.8372
  856MOL0     H15552  10.409   7.145   5.829  0.9789  1.4388 -2.7433
  856MOL0     H15553  10.467   7.081   5.990 -0.7606  1.3396 -0.5544
  856MOL0     H15554  10.578   6.883   5.891 -1.9147  0.1892  1.7008
  856MOL0     H15555  10.539   6.951   5.739 -1.2375  0.6117 -1.1731
  856MOL0     H15556  10.288   6.932   5.836  0.2374 -0.4619 -1.6428
  856MOL0     H15557  10.349   6.853   5.962 -2.0413  6.7215  0.3618
  856MOL0     H15558  10.405   6.527   5.714  3.1864  0.2839 -0.6911
  856MOL0     H15559  10.568   7.423   5.759  0.3869 -1.8311  1.0228
  856MOL0     H15560  10.446   7.613   5.773  1.0402 -2.0544 -2.2636
  857MOL0     O15561   7.990   2.730  11.379  0.2770  0.6758 -0.4425
  857MOL0     C15562   7.941   2.789  11.286  0.8507 -0.2515  0.2934
  857MOL0     O15563   7.857   2.897  11.302  0.0445 -0.1295  0.7678
  857MOL0     C15564   7.832   2.957  11.428 -0.2442 -0.2300 -0.2933
  857MOL0     C15565   7.761   2.916  11.543  0.0037 -0.4405 -0.9028
  857MOL0     C15566   7.756   3.000  11.656  0.8414  0.2310 -0.8856
  857MOL0     C15567   7.819   3.128  11.659 -0.0824  0.8856  0.5561
  857MOL0     O15568   7.798   3.191  11.778 -1.0219 -0.0710  0.2242
  857MOL0     C15569   7.929   3.247  11.830  0.1388  0.2149  1.0902
  857MOL0     C15570   8.023   3.133  11.889 -0.1716  0.6655 -0.4451
  857MOL0     C15571   8.136   3.170  11.982 -0.3957 -0.4043 -0.3428
  857MOL0     C15572   8.203   3.046  12.040  0.2992 -0.0015  1.3378
  857MOL0     C15573   8.324   3.075  12.131 -0.8590 -0.3459  0.3883
  857MOL0     C15574   8.373   2.945  12.187  0.0190  0.0828 -0.8203
  857MOL0     C15575   8.516   2.951  12.233 -1.3231  0.4404 -0.2444
  857MOL0     C15576   8.533   2.949  12.380  0.0777  0.2943 -0.6261
  857MOL0     N15577   8.677   2.969  12.409 -0.3607 -0.0458 -0.2749
  857MOL0     C15578   8.712   3.089  12.461 -0.7898  1.0366 -0.0809
  857MOL0     C15579   8.835   3.046  12.510  0.5453 -0.1646  0.3864
  857MOL0     C15580   8.923   3.140  12.591  0.0413 -0.2268 -0.3510
  857MOL0     C15581   8.860   3.152  12.740 -0.2733 -0.5286  0.0587
  857MOL0     C15582   8.920   3.264  12.821  0.2089  0.0069  0.0562
  857MOL0     C15583   8.862   3.280  12.966 -1.8009 -0.0097  1.2847
  857MOL0     O15584   8.755   3.374  12.963  0.5311 -0.2832 -0.8257
  857MOL0     C15585   8.727   3.448  13.077  0.4333  1.5943 -0.2891
  857MOL0     C15586   8.689   3.580  13.051  0.7872 -0.6217  0.1120
  857MOL0     C15587   8.663   3.668  13.157  0.7211 -0.6751  0.3468
  857MOL0     C15588   8.625   3.810  13.121  0.1489  0.1833 -0.2612
  857MOL0     C15589   8.687   3.631  13.289 -0.4433 -1.1453  0.0399
  857MOL0     C15590   8.653   3.708  13.418  0.4579  0.2610 -0.9268
  857MOL0     O15591   8.634   3.640  13.534  0.3455 -0.4525 -0.0240
  857MOL0     C15592   8.639   3.724  13.644  0.2247  0.5984  0.7231
  857MOL0     C15593   8.763   3.763  13.698 -0.1251  0.9202  0.4482
  857MOL0     C15594   8.761   3.849  13.806 -0.8456  0.1371 -0.2117
  857MOL0     C15595   8.650   3.890  13.872 -1.0334  0.2272  0.1416
  857MOL0     O15596   8.654   3.970  13.986  0.4872  0.5827  0.7680
  857MOL0     C15597   8.777   4.037  14.015  0.8111 -0.4535 -0.6623
  857MOL0     C15598   8.756   4.157  14.109 -0.0001  0.0334 -0.5087
  857MOL0     C15599   8.887   4.232  14.120  0.2815 -0.6001 -0.3079
  857MOL0     C15600   8.852   4.385  14.122  0.2507  0.1115  0.2712
  857MOL0     C15601   8.978   4.469  14.145 -0.3144 -0.6392  0.7062
  857MOL0     C15602   9.077   4.457  14.023 -0.6043 -1.4661 -0.4577
  857MOL0     C15603   9.005   4.507  13.901 -0.3985 -0.2636  0.2993
  857MOL0     C15604   9.109   4.545  13.790 -0.3450  0.5799  0.2094
  857MOL0    Cl15605   9.245   4.659  13.842 -0.1931  0.1708  0.3840
  857MOL0     C15606   8.524   3.855  13.820 -0.6197  0.4203  0.7203
  857MOL0     C15607   8.521   3.776  13.706  0.3411  0.4328 -0.4004
  857MOL0     O15608   8.666   3.832  13.410 -0.6197  0.3988 -0.2858
  857MOL0     C15609   8.750   3.504  13.311  0.4326  0.6299 -0.6691
  857MOL0     C15610   8.766   3.416  13.210  0.0594 -0.5684  0.1673
  857MOL0     N15611   8.867   2.921  12.478  0.0577 -0.0712  0.1070
  857MOL0     N15612   8.766   2.867  12.430 -1.1048 -0.5456  0.7526
  857MOL0     C15613   7.901   3.166  11.553  0.5584 -0.0247 -0.9631
  857MOL0     C15614   7.904   3.088  11.444  0.3735 -0.0680  1.4095
  857MOL0     C15615   7.976   2.744  11.143  0.5890 -0.8844 -0.1568
  857MOL0     C15616   7.907   2.814  11.042  0.1023  0.1654 -0.1178
  857MOL0     C15617   7.928   2.762  10.912 -0.2118  0.8631 -0.4122
  857MOL0     C15618   8.016   2.653  10.888  0.4373 -0.8056 -0.0328
  857MOL0     O15619   8.036   2.585  10.772  1.0564  0.2873  0.0047
  857MOL0     C15620   7.986   2.644  10.650 -0.2806  0.3988 -0.6560
  857MOL0     C15621   7.842   2.609  10.632 -0.6369  0.4466  0.3440
  857MOL0     C15622   7.832   2.449  10.613  0.2635  0.0380 -0.6464
  857MOL0     C15623   7.704   2.405  10.544  0.2849 -0.3898 -0.1062
  857MOL0     C15624   7.587   2.415  10.630  0.6612  0.2110 -0.0947
  857MOL0     C15625   7.481   2.434  10.691 -0.3562 -0.4896 -0.0891
  857MOL0     C15626   8.070   2.596  10.998  0.5177  0.1881  0.3915
  857MOL0     C15627   8.060   2.642  11.115  0.6615 -0.4342 -1.2960
  857MOL0     H15628   7.707   2.821  11.545 -2.3260  0.8073  0.4576
  857MOL0     H15629   7.691   2.976  11.740  2.6971  2.1255  1.2426
  857MOL0     H15630   7.979   3.303  11.750 -3.1760 -0.2450 -1.5341
  857MOL0     H15631   7.903   3.323  11.905  1.1601 -0.4276  2.1226
  857MOL0     H15632   7.948   3.077  11.946  3.2543 -4.2277 -0.1129
  857MOL0     H15633   8.071   3.065  11.818  0.1941 -0.2423  0.6433
  857MOL0     H15634   8.210   3.232  11.931 -0.6940  0.9538  0.8146
  857MOL0     H15635   8.088   3.229  12.060  0.9304  1.2206 -0.7050
  857MOL0     H15636   8.123   2.989  12.088 -1.3022  0.7712 -0.2904
  857MOL0     H15637   8.241   2.990  11.953 -1.0627  1.5368 -0.3260
  857MOL0     H15638   8.396   3.122  12.064  0.1857  1.6976  2.7598
  857MOL0     H15639   8.305   3.149  12.209  1.9450 -1.1588  1.9932
  857MOL0     H15640   8.300   2.922  12.264  0.4377  1.2811 -0.0259
  857MOL0     H15641   8.363   2.876  12.103  0.9594  1.5601 -2.2248
  857MOL0     H15642   8.554   2.852  12.204  1.0248  0.4210  2.3604
  857MOL0     H15643   8.576   3.031  12.190 -2.0129  1.3656  0.4794
  857MOL0     H15644   8.506   2.851  12.420  2.6868  0.3338  1.5177
  857MOL0     H15645   8.474   3.032  12.420  0.7494  1.3880 -1.8443
  857MOL0     H15646   8.656   3.180  12.474  0.2252  1.8985 -1.4509
  857MOL0     H15647   9.022   3.095  12.593  1.3439  1.9923 -4.1737
  857MOL0     H15648   8.934   3.242  12.551  0.1629 -0.4539 -0.9065
  857MOL0     H15649   8.882   3.057  12.789  3.8450  0.4747  0.4995
  857MOL0     H15650   8.753   3.175  12.733 -1.4358 -4.4195  2.2895
  857MOL0     H15651   8.898   3.353  12.762 -0.8739 -1.8629 -2.5234
  857MOL0     H15652   9.024   3.232  12.811 -0.1427 -0.4934 -2.4711
  857MOL0     H15653   8.934   3.332  13.030  0.8520 -0.1750 -1.3417
  857MOL0     H15654   8.832   3.188  13.016  0.1882 -1.2125  0.3802
  857MOL0     H15655   8.674   3.621  12.951  2.3545  2.2761  0.9344
  857MOL0     H15656   8.720   3.864  13.114  1.9964 -2.8006  0.1193
  857MOL0     H15657   8.569   3.809  13.027  1.0658  0.6465 -0.8263
  857MOL0     H15658   8.568   3.850  13.205 -0.5033 -0.5755 -0.3392
  857MOL0     H15659   8.852   3.726  13.648 -0.3936  0.5285  0.2559
  857MOL0     H15660   8.852   3.898  13.839 -0.8632 -1.4247  2.4567
  857MOL0     H15661   8.853   3.971  14.059  0.6445 -0.1746  0.0657
  857MOL0     H15662   8.814   4.091  13.928 -0.4247  2.4166  0.4627
  857MOL0     H15663   8.680   4.225  14.069 -0.5231  1.2469  2.2814
  857MOL0     H15664   8.727   4.133  14.212 -0.2936 -2.0478 -1.0356
  857MOL0     H15665   8.969   4.216  14.049  0.7121  1.1250 -0.2300
  857MOL0     H15666   8.940   4.189  14.206  2.0794  0.0097 -1.0698
  857MOL0     H15667   8.799   4.402  14.028 -2.5887 -2.2449  1.3006
  857MOL0     H15668   8.782   4.404  14.205 -0.1433 -1.7372  0.4046
  857MOL0     H15669   9.023   4.454  14.244  0.3097  2.7000  1.0441
  857MOL0     H15670   8.954   4.575  14.142  1.7180 -0.1601 -1.8005
  857MOL0     H15671   9.169   4.515  14.036 -0.1647 -1.6092 -2.5544
  857MOL0     H15672   9.114   4.355  14.008  2.1173 -0.4824 -1.0350
  857MOL0     H15673   8.945   4.595  13.923 -1.7442 -1.1565  0.3401
  857MOL0     H15674   8.940   4.435  13.849  0.1367  0.5639 -1.5894
  857MOL0     H15675   9.063   4.593  13.703  0.7515 -1.2824 -1.4811
  857MOL0     H15676   9.155   4.453  13.755 -1.4939 -1.5499  3.7291
  857MOL0     H15677   8.431   3.887  13.866  0.5086 -0.0866  3.5342
  857MOL0     H15678   8.428   3.757  13.654 -0.5812 -1.6235  1.8289
  857MOL0     H15679   8.780   3.472  13.410 -1.9952  0.6404  0.1424
  857MOL0     H15680   8.816   3.322  13.231  1.7891 -0.0118 -1.1517
  857MOL0     H15681   7.963   3.254  11.564  0.9612 -0.5657  1.6863
  857MOL0     H15682   7.963   3.128  11.362  0.7249 -1.5117  0.9333
  857MOL0     H15683   7.836   2.895  11.052 -2.4657 -1.8892 -0.6460
  857MOL0     H15684   7.878   2.802  10.825  0.2508  1.2574 -0.5012
  857MOL0     H15685   8.001   2.753  10.651  0.0212  0.3601 -0.7468
  857MOL0     H15686   8.050   2.605  10.571  3.6242  0.9952  1.8821
  857MOL0     H15687   7.815   2.657  10.538 -1.2126 -0.7242 -0.1081
  857MOL0     H15688   7.777   2.633  10.717 -1.7502  1.9174 -0.8596
  857MOL0     H15689   7.846   2.393  10.705  1.9962  1.5702  0.0935
  857MOL0     H15690   7.910   2.409  10.548  1.1363 -0.7650  0.8553
  857MOL0     H15691   7.723   2.301  10.516  1.6190  0.4861 -2.8506
  857MOL0     H15692   7.699   2.459  10.449  0.8388  0.9728  0.6141
  857MOL0     H15693   7.391   2.453  10.746 -1.1247 -0.8098 -1.2083
  857MOL0     H15694   8.108   2.494  10.998  0.0421  0.0053  0.0505
  857MOL0     H15695   8.110   2.599  11.202  0.5920 -0.3019 -1.1907
  858MOL0     O15696   5.403   3.030   4.916 -0.2484  0.7100  0.7664
  858MOL0     C15697   5.375   3.113   5.009  0.0007 -0.5595  0.5657
  858MOL0     O15698   5.249   3.181   5.021 -0.3006 -0.7642 -0.0017
  858MOL0     C15699   5.157   3.145   4.929 -0.1997  0.1983  0.5292
  858MOL0     C15700   5.067   3.048   4.966  0.6166  0.2984  0.3153
  858MOL0     C15701   4.976   3.010   4.878 -0.1138 -1.2696  0.9295
  858MOL0     C15702   4.966   3.059   4.751  0.1890  0.4519  0.3611
  858MOL0     O15703   4.863   3.023   4.665 -0.6402  0.5866 -0.2097
  858MOL0     C15704   4.879   3.032   4.521 -0.4396  0.4914  0.7278
  858MOL0     C15705   4.772   2.931   4.473 -0.6455  1.2600 -0.1057
  858MOL0     C15706   4.812   2.785   4.499  0.3888  0.6801 -0.2388
  858MOL0     C15707   4.723   2.683   4.434 -0.2204 -0.8052 -0.2608
  858MOL0     C15708   4.761   2.543   4.487 -0.4679 -0.4240 -0.0899
  858MOL0     C15709   4.672   2.422   4.460  0.5216 -0.5108 -0.2168
  858MOL0     C15710   4.517   2.444   4.477 -0.0036 -1.1110 -0.3605
  858MOL0     C15711   4.483   2.453   4.624  0.0877  0.0072  0.3553
  858MOL0     N15712   4.415   2.579   4.643 -0.2987 -0.3592  0.0056
  858MOL0     C15713   4.479   2.691   4.695  0.0192 -0.3223 -0.2851
  858MOL0     C15714   4.371   2.763   4.740 -0.2993 -0.3543  1.4640
  858MOL0     C15715   4.376   2.887   4.822  1.0739 -0.4959  0.1902
  858MOL0     C15716   4.481   2.988   4.790  0.2368 -0.1634  0.9808
  858MOL0     C15717   4.478   3.110   4.879 -0.2076 -0.2931  0.3046
  858MOL0     C15718   4.587   3.207   4.849 -0.4528  0.0104  0.2887
  858MOL0     O15719   4.563   3.251   4.717 -0.6009 -0.0141 -0.1295
  858MOL0     C15720   4.642   3.355   4.669 -0.8648 -0.3222 -1.1056
  858MOL0     C15721   4.595   3.436   4.568  0.0963  0.5172  0.0243
  858MOL0     C15722   4.672   3.532   4.514 -0.2735  0.9689  0.4247
  858MOL0     C15723   4.611   3.593   4.384 -0.3105  0.3622 -0.5656
  858MOL0     C15724   4.803   3.554   4.557  0.5147 -0.3442  0.9408
  858MOL0     C15725   4.877   3.677   4.514 -0.1418  0.2922 -0.3692
  858MOL0     O15726   5.005   3.652   4.541 -0.5783 -1.1097  0.2633
  858MOL0     C15727   5.101   3.750   4.523 -0.6313  0.2782  0.7825
  858MOL0     C15728   5.114   3.836   4.402  0.3256 -0.4746  0.6060
  858MOL0     C15729   5.219   3.929   4.395 -0.3301  0.0172 -0.2739
  858MOL0     C15730   5.319   3.927   4.490  0.2353 -0.4753 -1.1814
  858MOL0     O15731   5.432   4.002   4.464 -0.0556 -0.1458  0.2561
  858MOL0     C15732   5.450   4.102   4.567  0.4584 -0.5498  0.7088
  858MOL0     C15733   5.597   4.147   4.550 -0.3295 -0.4856 -0.1296
  858MOL0     C15734   5.626   4.278   4.607  0.7400  1.1680 -0.3407
  858MOL0     C15735   5.778   4.306   4.609 -0.6741 -0.2839  0.4089
  858MOL0     C15736   5.799   4.448   4.675 -0.2545 -0.5312 -1.1261
  858MOL0     C15737   5.918   4.524   4.613  0.0810 -0.2696  0.4804
  858MOL0     C15738   5.905   4.674   4.627  0.2633  0.3341 -0.4854
  858MOL0     C15739   6.033   4.757   4.600 -0.9294  0.3427  0.7685
  858MOL0    Cl15740   6.152   4.695   4.726  0.3655  0.2786  0.6268
  858MOL0     C15741   5.312   3.838   4.596 -0.0124  0.0488  0.2760
  858MOL0     C15742   5.203   3.757   4.611 -0.2469  0.2271 -0.5318
  858MOL0     O15743   4.824   3.774   4.459  0.0052  0.2058  0.3178
  858MOL0     C15744   4.852   3.475   4.654  0.2879 -0.1069 -0.9203
  858MOL0     C15745   4.774   3.373   4.714 -0.3035  0.2122  0.3806
  858MOL0     N15746   4.256   2.712   4.694 -0.4255 -0.3962  0.2627
  858MOL0     N15747   4.279   2.603   4.631  0.0698  0.1311  0.5770
  858MOL0     C15748   5.073   3.143   4.707  0.7190 -0.1584 -0.5114
  858MOL0     C15749   5.178   3.183   4.795  1.1071 -0.8726  0.9902
  858MOL0     C15750   5.476   3.169   5.096 -0.0654  0.8593 -0.5232
  858MOL0     C15751   5.489   3.302   5.130  0.2459 -0.3025  0.7674
  858MOL0     C15752   5.600   3.356   5.195 -0.2204 -0.6367 -0.1713
  858MOL0     C15753   5.710   3.278   5.222  0.6251  0.8939  0.2292
  858MOL0     O15754   5.829   3.333   5.264 -0.4363 -0.9085 -0.4315
  858MOL0     C15755   5.895   3.247   5.363 -0.0480  0.6321 -0.4731
  858MOL0     C15756   6.004   3.323   5.433 -0.3658 -0.3083  0.1188
  858MOL0     C15757   6.057   3.249   5.557 -0.0147 -0.3148 -0.0131
  858MOL0     C15758   6.067   3.347   5.676  0.4916  0.2566  0.7239
  858MOL0     C15759   5.935   3.387   5.726  0.5060 -1.0446  0.8852
  858MOL0     C15760   5.826   3.410   5.771 -0.2419 -0.0163  0.0833
  858MOL0     C15761   5.696   3.143   5.188  0.2526  0.0242  0.0391
  858MOL0     C15762   5.576   3.087   5.130  0.5415  0.1794  0.9673
  858MOL0     H15763   5.054   3.000   5.063 -2.0984  1.0398  0.4218
  858MOL0     H15764   4.887   2.957   4.910 -1.1736 -0.0955  0.0367
  858MOL0     H15765   4.844   3.128   4.483  1.5778  0.4468 -1.4919
  858MOL0     H15766   4.979   3.016   4.479 -0.1628  0.3702  1.4117
  858MOL0     H15767   4.680   2.951   4.529 -2.4825  1.5038 -3.0210
  858MOL0     H15768   4.756   2.956   4.368  1.8622  1.0545 -0.6038
  858MOL0     H15769   4.915   2.767   4.468  0.7291 -5.1115  2.7853
  858MOL0     H15770   4.816   2.764   4.606  1.6991 -1.1456 -0.5929
  858MOL0     H15771   4.625   2.714   4.471 -0.7781  0.7705 -2.8083
  858MOL0     H15772   4.723   2.690   4.325  0.9405  2.4744 -0.1759
  858MOL0     H15773   4.863   2.525   4.453 -0.6579 -3.9355  0.7852
  858MOL0     H15774   4.765   2.545   4.597  2.6615 -1.7991 -0.0682
  858MOL0     H15775   4.677   2.408   4.351 -0.6608 -0.3807 -0.2970
  858MOL0     H15776   4.719   2.335   4.505 -1.0982 -0.0873  2.5195
  858MOL0     H15777   4.471   2.524   4.419 -2.1225 -2.5450 -0.7919
  858MOL0     H15778   4.469   2.357   4.430  0.6368 -0.5036 -2.2390
  858MOL0     H15779   4.570   2.480   4.684  0.5775 -1.3985  0.3192
  858MOL0     H15780   4.439   2.358   4.657 -2.5728  0.6868 -0.9905
  858MOL0     H15781   4.584   2.705   4.717 -0.7416 -0.8912  4.7653
  858MOL0     H15782   4.282   2.936   4.793  0.5562 -1.0415  0.9040
  858MOL0     H15783   4.360   2.856   4.926 -0.5733 -1.1144 -0.2132
  858MOL0     H15784   4.466   3.017   4.686 -2.8875  0.3120  1.4414
  858MOL0     H15785   4.577   2.939   4.804  0.6585  0.3450 -0.0772
  858MOL0     H15786   4.481   3.088   4.986  4.3752 -2.5154 -0.0341
  858MOL0     H15787   4.381   3.152   4.851  1.2472  2.8050 -0.5890
  858MOL0     H15788   4.681   3.151   4.844 -0.7581 -0.4411 -0.5120
  858MOL0     H15789   4.601   3.280   4.929 -0.4498 -0.2262  0.5059
  858MOL0     H15790   4.503   3.420   4.513  2.0060 -1.8244 -2.7853
  858MOL0     H15791   4.681   3.574   4.302  0.4238 -2.0733  0.5320
  858MOL0     H15792   4.521   3.549   4.341 -1.7842  2.3956  0.2963
  858MOL0     H15793   4.604   3.702   4.384  1.1183  0.4779 -1.1432
  858MOL0     H15794   5.028   3.837   4.336  1.1804 -0.9396 -0.5480
  858MOL0     H15795   5.214   4.008   4.321 -0.9401  0.0161 -0.2418
  858MOL0     H15796   5.384   4.187   4.546 -0.0321 -1.2902 -0.9732
  858MOL0     H15797   5.427   4.064   4.667  3.7029 -0.0492  1.7693
  858MOL0     H15798   5.663   4.069   4.590  1.8740  1.8272  1.0019
  858MOL0     H15799   5.625   4.153   4.445 -1.4348  3.4637 -0.3598
  858MOL0     H15800   5.585   4.274   4.709  1.6053  0.3058 -0.0189
  858MOL0     H15801   5.567   4.359   4.563 -1.6696 -0.5762 -0.5886
  858MOL0     H15802   5.838   4.230   4.660 -0.2478 -1.0597 -1.1736
  858MOL0     H15803   5.810   4.314   4.505  2.0323 -0.6144  1.1338
  858MOL0     H15804   5.814   4.439   4.783 -1.3991 -0.1654 -0.9253
  858MOL0     H15805   5.708   4.507   4.657 -1.6361 -2.0436  0.5479
  858MOL0     H15806   6.014   4.487   4.650  1.9334  3.3478 -0.2019
  858MOL0     H15807   5.922   4.509   4.505  3.6307  2.2739  0.0669
  858MOL0     H15808   5.869   4.700   4.726  0.4521 -2.6786  0.4977
  858MOL0     H15809   5.836   4.722   4.558  1.9042  2.3649 -0.7993
  858MOL0     H15810   6.006   4.863   4.593 -3.6033 -0.1805  1.8101
  858MOL0     H15811   6.070   4.729   4.501  1.7159  2.0306  1.2022
  858MOL0     H15812   5.381   3.826   4.679  0.5669  2.6935  0.2580
  858MOL0     H15813   5.208   3.685   4.692  2.8045  0.3941 -0.4890
  858MOL0     H15814   4.954   3.493   4.685  1.1387  0.1826 -3.5957
  858MOL0     H15815   4.826   3.312   4.787  1.0110  0.2771 -0.4735
  858MOL0     H15816   5.088   3.189   4.610  1.1408  2.1586  0.5791
  858MOL0     H15817   5.247   3.260   4.762  1.3489 -2.4431 -2.6666
  858MOL0     H15818   5.394   3.353   5.116 -0.3435 -1.1932  1.4140
  858MOL0     H15819   5.608   3.463   5.214 -0.6569 -0.7609  0.7773
  858MOL0     H15820   5.820   3.202   5.429 -1.1066  2.4224 -0.3725
  858MOL0     H15821   5.944   3.169   5.306  0.7615  2.2155 -2.0363
  858MOL0     H15822   5.963   3.423   5.453  1.5340  1.1618 -2.6484
  858MOL0     H15823   6.082   3.332   5.357 -0.0906 -2.5689  0.0511
  858MOL0     H15824   6.159   3.219   5.534  0.0872 -2.0628  2.3389
  858MOL0     H15825   5.992   3.166   5.588 -2.4056  1.3316 -0.2967
  858MOL0     H15826   6.124   3.435   5.645  0.1156  1.3053  2.8802
  858MOL0     H15827   6.130   3.303   5.754  2.3444  0.1977 -0.7391
  858MOL0     H15828   5.730   3.451   5.794 -0.2890  0.2530 -0.5649
  858MOL0     H15829   5.781   3.075   5.187 -1.1277 -1.9038  2.3018
  858MOL0     H15830   5.563   2.984   5.100 -2.3353  0.5882  0.4570
  859MOL0     O15831   4.900   9.090   7.691  0.3261  0.3649  0.9362
  859MOL0     C15832   4.965   9.156   7.761  0.5364 -0.6118  0.0466
  859MOL0     O15833   5.069   9.230   7.717  0.4813  0.4624 -0.0201
  859MOL0     C15834   5.115   9.220   7.589 -0.9084 -0.5470 -0.6362
  859MOL0     C15835   5.087   9.327   7.500  0.1753 -0.6962 -0.4465
  859MOL0     C15836   5.130   9.319   7.363  0.3714 -0.4546  0.4737
  859MOL0     C15837   5.218   9.215   7.321  0.7083 -0.8696  0.6709
  859MOL0     O15838   5.258   9.238   7.189 -0.3368  0.6665 -0.7975
  859MOL0     C15839   5.393   9.188   7.174  0.9284  0.1440  0.4140
  859MOL0     C15840   5.487   9.296   7.227 -0.2667  0.8993 -0.3833
  859MOL0     C15841   5.516   9.296   7.377  0.8120  0.1315 -0.2667
  859MOL0     C15842   5.594   9.420   7.410 -1.0498  0.3248 -0.5093
  859MOL0     C15843   5.603   9.438   7.562  0.1213 -0.3894  0.3020
  859MOL0     C15844   5.466   9.474   7.636 -0.4047 -0.3771 -1.1869
  859MOL0     C15845   5.466   9.441   7.790 -0.2028  0.2056  0.2211
  859MOL0     C15846   5.587   9.512   7.865  0.3844 -0.0448  0.3961
  859MOL0     N15847   5.578   9.507   8.011  0.2107  0.1012 -0.2200
  859MOL0     C15848   5.523   9.399   8.072 -1.0880  0.4661  0.2434
  859MOL0     C15849   5.464   9.445   8.186 -0.8566  0.0355 -0.2102
  859MOL0     C15850   5.389   9.356   8.279 -0.0800 -0.3609  0.2014
  859MOL0     C15851   5.464   9.327   8.407  0.0255  0.1762 -0.7604
  859MOL0     C15852   5.467   9.443   8.509 -0.2111 -0.9369 -0.1118
  859MOL0     C15853   5.562   9.438   8.629 -0.2056  0.1114  0.8128
  859MOL0     O15854   5.517   9.308   8.681 -0.7298  0.5549  0.7141
  859MOL0     C15855   5.624   9.233   8.739  0.1316 -0.9773 -0.5841
  859MOL0     C15856   5.592   9.140   8.832  0.5235 -0.0071 -0.1961
  859MOL0     C15857   5.687   9.046   8.879 -0.8625  0.3208 -0.1099
  859MOL0     C15858   5.636   8.945   8.979  0.1810 -0.4703  0.2554
  859MOL0     C15859   5.823   9.047   8.832  0.5872  0.8759  0.1710
  859MOL0     C15860   5.936   8.952   8.882 -0.5574  0.1557 -0.2392
  859MOL0     O15861   6.043   8.938   8.798  0.0896 -0.1445 -0.0029
  859MOL0     C15862   6.153   8.903   8.871  0.3170 -2.1339 -0.0136
  859MOL0     C15863   6.185   8.765   8.873 -1.1143  0.5453 -0.8751
  859MOL0     C15864   6.289   8.728   8.959  0.0628 -0.3963 -0.5020
  859MOL0     C15865   6.346   8.822   9.045  0.3324  0.7705 -0.7051
  859MOL0     O15866   6.440   8.799   9.137  0.3606  0.5715  0.1056
  859MOL0     C15867   6.525   8.686   9.122  0.1341 -0.4480 -0.1799
  859MOL0     C15868   6.636   8.712   9.225  0.7249  0.1942 -0.6409
  859MOL0     C15869   6.747   8.806   9.184  0.1887 -0.3196 -0.6207
  859MOL0     C15870   6.857   8.813   9.289 -0.3681  0.3423 -0.4061
  859MOL0     C15871   6.978   8.903   9.259  0.4103  0.2835 -0.0171
  859MOL0     C15872   7.072   8.897   9.380 -2.1221 -0.5599 -0.5438
  859MOL0     C15873   7.182   8.999   9.380  0.2630 -0.2708 -0.0962
  859MOL0     C15874   7.262   8.992   9.511  1.4887  0.5100  0.6056
  859MOL0    Cl15875   7.417   9.078   9.512  0.1608 -0.4460  0.0862
  859MOL0     C15876   6.324   8.956   9.036  0.2378  0.5116  0.2280
  859MOL0     C15877   6.221   9.004   8.947 -0.0645 -0.1801 -0.2656
  859MOL0     O15878   5.928   8.907   8.995  0.2487  0.8526 -0.8763
  859MOL0     C15879   5.856   9.134   8.724  0.1635  0.2985 -0.4200
  859MOL0     C15880   5.759   9.229   8.681 -0.2690 -0.1522 -0.3221
  859MOL0     N15881   5.499   9.569   8.204  0.1392  0.8085 -0.6360
  859MOL0     N15882   5.561   9.614   8.098  0.3472  0.5519 -0.3781
  859MOL0     C15883   5.250   9.109   7.410 -0.4301  0.6981 -0.0005
  859MOL0     C15884   5.195   9.109   7.536  0.0786  0.9829 -0.4994
  859MOL0     C15885   4.938   9.155   7.904 -0.0863  0.1006 -0.0869
  859MOL0     C15886   5.047   9.142   7.996 -0.3214  0.6153  0.2007
  859MOL0     C15887   5.014   9.115   8.134  0.1402  0.3149  0.0015
  859MOL0     C15888   4.882   9.132   8.188  0.1327  0.4598  0.0903
  859MOL0     O15889   4.862   9.134   8.327 -0.3725  0.5854  0.4382
  859MOL0     C15890   4.736   9.180   8.379 -0.3909 -1.2614 -0.0425
  859MOL0     C15891   4.749   9.189   8.537 -0.7072 -0.6194 -0.6094
  859MOL0     C15892   4.720   9.054   8.602  0.4589 -0.1334  1.1531
  859MOL0     C15893   4.759   9.045   8.749  0.0860  0.5945  0.6148
  859MOL0     C15894   4.903   9.057   8.773  1.1274  0.6086 -0.1646
  859MOL0     C15895   5.013   9.100   8.783 -0.9750 -0.0986 -0.0594
  859MOL0     C15896   4.787   9.162   8.093 -0.1568  0.4628 -0.5705
  859MOL0     C15897   4.809   9.166   7.954  0.1360 -0.1768 -0.3018
  859MOL0     H15898   5.032   9.415   7.531 -0.2799 -1.2211  0.2738
  859MOL0     H15899   5.094   9.388   7.288  0.0607  1.2280  2.1045
  859MOL0     H15900   5.408   9.087   7.213 -2.3228 -0.4466  0.4166
  859MOL0     H15901   5.411   9.180   7.066  0.7665  0.7190  0.3402
  859MOL0     H15902   5.583   9.291   7.175 -0.0397 -2.8900  0.0967
  859MOL0     H15903   5.442   9.396   7.224 -0.1125  1.0023  0.4101
  859MOL0     H15904   5.417   9.309   7.423  0.4737 -0.3727 -0.8379
  859MOL0     H15905   5.566   9.205   7.410  1.6977 -1.2306 -4.6854
  859MOL0     H15906   5.696   9.409   7.372 -0.2646 -1.2263  1.8542
  859MOL0     H15907   5.550   9.509   7.363  1.6341  1.4984 -0.9821
  859MOL0     H15908   5.636   9.336   7.589  0.5614 -0.9956 -2.2886
  859MOL0     H15909   5.679   9.515   7.579  1.6672 -1.4854 -1.2511
  859MOL0     H15910   5.459   9.583   7.628  0.8030  0.3432  3.9506
  859MOL0     H15911   5.385   9.409   7.602 -1.4788  1.0524 -1.4653
  859MOL0     H15912   5.368   9.484   7.816 -1.1564  0.4278 -3.2603
  859MOL0     H15913   5.458   9.334   7.813 -1.1332 -0.3050 -2.1428
  859MOL0     H15914   5.587   9.615   7.828  0.4461  0.1788  1.0129
  859MOL0     H15915   5.684   9.467   7.845  0.0906 -0.5149 -0.0154
  859MOL0     H15916   5.514   9.297   8.036  2.2414  0.2714 -0.4007
  859MOL0     H15917   5.293   9.406   8.294  0.1289  0.9319 -2.2361
  859MOL0     H15918   5.365   9.262   8.228 -1.8842 -0.0150  0.3515
  859MOL0     H15919   5.564   9.288   8.388  0.0600 -0.2170  0.1575
  859MOL0     H15920   5.399   9.250   8.452 -0.5096  1.1886  0.2506
  859MOL0     H15921   5.369   9.433   8.558 -1.1875 -0.4901 -1.8851
  859MOL0     H15922   5.473   9.527   8.439  0.1323 -1.7779 -1.1211
  859MOL0     H15923   5.544   9.526   8.692 -0.0067  1.6997 -1.2538
  859MOL0     H15924   5.667   9.443   8.599 -0.4003 -0.8651 -0.0855
  859MOL0     H15925   5.484   9.132   8.842  0.2815 -1.3707 -2.9168
  859MOL0     H15926   5.703   8.860   8.989  0.9891 -0.0387 -1.2225
  859MOL0     H15927   5.620   8.998   9.073 -1.2146 -0.6484  0.1530
  859MOL0     H15928   5.539   8.911   8.940  0.2330  0.2219 -0.5244
  859MOL0     H15929   6.117   8.701   8.818  0.6820 -0.2307 -2.2972
  859MOL0     H15930   6.310   8.622   8.955 -1.8303 -0.7910 -0.7668
  859MOL0     H15931   6.473   8.593   9.145  0.1335  0.3155  3.6492
  859MOL0     H15932   6.573   8.688   9.024  4.4052 -1.4036  1.6704
  859MOL0     H15933   6.585   8.747   9.315 -0.4064  2.0790 -1.9400
  859MOL0     H15934   6.677   8.611   9.237 -1.3022 -0.7317 -1.0559
  859MOL0     H15935   6.702   8.906   9.182 -3.8748 -1.9238  0.3486
  859MOL0     H15936   6.796   8.785   9.089 -2.0212  3.1352 -2.7556
  859MOL0     H15937   6.807   8.850   9.379  1.7508 -1.1176  1.4763
  859MOL0     H15938   6.892   8.712   9.311  0.3626  0.1418 -2.3028
  859MOL0     H15939   6.954   9.010   9.253  1.7704  0.9068  3.3939
  859MOL0     H15940   7.023   8.868   9.166 -0.7821 -1.0442 -0.1307
  859MOL0     H15941   7.007   8.907   9.468 -1.6194  0.6018 -0.2804
  859MOL0     H15942   7.116   8.797   9.383  2.9445  1.3994  0.5558
  859MOL0     H15943   7.137   9.097   9.364 -0.0534 -0.6328 -1.5385
  859MOL0     H15944   7.257   8.980   9.302  0.0758  2.1558 -0.9530
  859MOL0     H15945   7.291   8.887   9.521 -0.8073 -1.2023 -5.7323
  859MOL0     H15946   7.196   9.031   9.589 -2.2409  2.9741 -3.3717
  859MOL0     H15947   6.362   9.023   9.112 -1.2510  0.8554  0.6967
  859MOL0     H15948   6.207   9.111   8.954  0.2477 -0.2300  1.6911
  859MOL0     H15949   5.948   9.146   8.668  1.1753 -0.5878  0.9943
  859MOL0     H15950   5.793   9.290   8.598  0.6324  0.9326  0.8091
  859MOL0     H15951   5.318   9.028   7.386 -0.9286  0.0464  0.7292
  859MOL0     H15952   5.208   9.025   7.602  0.9585 -0.2416 -2.1493
  859MOL0     H15953   5.148   9.136   7.957 -0.2548  0.2051  0.4296
  859MOL0     H15954   5.092   9.079   8.200 -0.8960 -1.9869  0.0456
  859MOL0     H15955   4.714   9.276   8.331 -1.9116 -2.4504 -1.8799
  859MOL0     H15956   4.646   9.127   8.346 -0.4800 -0.4038 -1.2626
  859MOL0     H15957   4.674   9.249   8.589  3.6147  3.4105  1.7265
  859MOL0     H15958   4.851   9.221   8.561 -1.5059  0.3390  1.7325
  859MOL0     H15959   4.758   8.968   8.546  1.7163  1.1683 -0.0529
  859MOL0     H15960   4.613   9.035   8.589  1.0716 -2.2703 -1.6744
  859MOL0     H15961   4.745   8.943   8.786  0.9804 -0.0603 -0.7511
  859MOL0     H15962   4.706   9.120   8.809 -0.1689  3.0360 -2.4145
  859MOL0     H15963   5.109   9.144   8.799 -0.4764 -1.1096 -0.1871
  859MOL0     H15964   4.690   9.200   8.123 -1.4466 -1.9921 -1.3994
  859MOL0     H15965   4.727   9.182   7.884 -0.9770  0.2266  1.0426
  860MOL0     O15966   2.537  10.991   3.263  0.4081 -0.7667  0.1354
  860MOL0     C15967   2.495  10.875   3.244  0.4493  0.5397 -0.5455
  860MOL0     O15968   2.398  10.848   3.152 -0.1910 -0.1754  1.1527
  860MOL0     C15969   2.370  10.946   3.058 -0.4711  1.6009 -0.2531
  860MOL0     C15970   2.242  10.976   3.028  0.5303  0.0266  0.4776
  860MOL0     C15971   2.213  11.075   2.926  0.6314  1.1041  0.1146
  860MOL0     C15972   2.320  11.131   2.851 -0.3442  0.0782 -0.5478
  860MOL0     O15973   2.281  11.220   2.762  0.3528 -0.1821 -0.5937
  860MOL0     C15974   2.377  11.264   2.664  0.0561  0.3279 -0.3423
  860MOL0     C15975   2.318  11.364   2.555 -0.1538 -0.4539  1.2148
  860MOL0     C15976   2.265  11.493   2.612 -1.0113  0.3388  0.0865
  860MOL0     C15977   2.279  11.608   2.508 -0.5454  0.1598  0.0891
  860MOL0     C15978   2.185  11.599   2.374  0.2780 -0.1663  0.1074
  860MOL0     C15979   2.139  11.751   2.341  0.6575 -0.3782 -0.1809
  860MOL0     C15980   2.256  11.811   2.258 -1.0424 -0.0878 -0.5633
  860MOL0     C15981   2.197  11.855   2.119 -0.8546  0.2176 -0.5516
  860MOL0     N15982   2.104  11.959   2.142 -0.3738  0.2180 -0.5284
  860MOL0     C15983   2.144  12.094   2.158 -0.4167 -0.0746 -0.0590
  860MOL0     C15984   2.035  12.163   2.122 -0.5974 -0.2154 -0.3033
  860MOL0     C15985   2.028  12.314   2.113  0.5418 -0.0196  0.8762
  860MOL0     C15986   2.073  12.376   1.985  1.6514  0.8225  0.2458
  860MOL0     C15987   2.221  12.346   1.943 -0.1816 -0.8108  0.2011
  860MOL0     C15988   2.238  12.387   1.803 -0.2226  0.0934 -0.1567
  860MOL0     O15989   2.370  12.435   1.781  0.2012  0.0146 -0.1813
  860MOL0     C15990   2.402  12.535   1.687 -0.1779  0.1554  0.4490
  860MOL0     C15991   2.326  12.561   1.577 -0.2515 -1.0237 -1.1685
  860MOL0     C15992   2.358  12.676   1.500 -0.3811 -1.0571 -0.8692
  860MOL0     C15993   2.270  12.703   1.380 -0.3863 -0.6923  0.1376
  860MOL0     C15994   2.473  12.759   1.529 -0.4992  0.0669  0.0778
  860MOL0     C15995   2.506  12.887   1.457  0.0780  1.1920  0.5525
  860MOL0     O15996   2.642  12.927   1.448 -0.6134 -0.5674  0.5759
  860MOL0     C15997   2.688  13.006   1.335 -0.6755  0.1209  0.0216
  860MOL0     C15998   2.815  13.068   1.342  0.6492  0.2299 -0.8406
  860MOL0     C15999   2.856  13.158   1.243 -0.1193  1.0776 -0.3258
  860MOL0     C16000   2.783  13.172   1.127  0.4615 -0.8391  1.3633
  860MOL0     O16001   2.819  13.253   1.021 -0.0476 -0.0716  0.5653
  860MOL0     C16002   2.953  13.293   1.002 -0.6172 -0.0088 -0.7504
  860MOL0     C16003   2.984  13.312   0.850  0.0552 -1.2237 -0.1174
  860MOL0     C16004   3.018  13.173   0.777 -0.2409  0.2503 -0.5591
  860MOL0     C16005   2.907  13.059   0.770 -0.5042  1.1745  0.1068
  860MOL0     C16006   2.948  12.951   0.658  0.7025  0.1872 -0.0700
  860MOL0     C16007   2.856  12.824   0.665  0.1822  0.8166 -0.3879
  860MOL0     C16008   2.706  12.843   0.675  0.3851 -0.3075  0.3326
  860MOL0     C16009   2.629  12.699   0.657  0.2329 -1.0529  0.2268
  860MOL0    Cl16010   2.647  12.643   0.485 -0.4390 -0.4794  0.7820
  860MOL0     C16011   2.657  13.109   1.115 -0.0154  0.1755 -0.3030
  860MOL0     C16012   2.619  13.019   1.215  0.0351 -0.4643 -0.5896
  860MOL0     O16013   2.412  12.947   1.406  0.3762  0.5396  0.3204
  860MOL0     C16014   2.553  12.722   1.640 -0.5675  0.4925  1.0183
  860MOL0     C16015   2.516  12.612   1.716  0.6954  0.0548 -0.0956
  860MOL0     N16016   1.928  12.078   2.106  0.2484 -0.2533 -0.1070
  860MOL0     N16017   1.962  11.954   2.116  0.3907  1.5035  0.2051
  860MOL0     C16018   2.452  11.102   2.892 -0.9592  0.2177 -0.9357
  860MOL0     C16019   2.469  11.008   2.985  0.0025  0.1641  0.0691
  860MOL0     C16020   2.529  10.766   3.338 -0.5148  0.5993 -0.5228
  860MOL0     C16021   2.663  10.759   3.389 -0.5266  0.0979  0.6550
  860MOL0     C16022   2.701  10.645   3.462  0.2040 -0.1135 -0.0372
  860MOL0     C16023   2.609  10.543   3.487 -1.0706  0.7869  0.3194
  860MOL0     O16024   2.670  10.432   3.560 -0.5235 -0.3378 -0.0867
  860MOL0     C16025   2.611  10.304   3.525  0.2409 -0.2759 -0.1729
  860MOL0     C16026   2.699  10.186   3.573  0.5297  0.5131  0.2154
  860MOL0     C16027   2.624  10.062   3.620 -0.1737 -0.0735  1.2762
  860MOL0     C16028   2.508  10.021   3.527  0.2456  1.0676 -0.0988
  860MOL0     C16029   2.479   9.877   3.538  0.1344 -0.5622 -1.1832
  860MOL0     C16030   2.440   9.758   3.547  0.1386 -0.0369 -0.9650
  860MOL0     C16031   2.479  10.553   3.441  0.1679 -0.5446  0.5731
  860MOL0     C16032   2.441  10.662   3.364  0.0285 -0.4110  0.1924
  860MOL0     H16033   2.161  10.924   3.078 -0.5572  0.5139 -0.7124
  860MOL0     H16034   2.111  11.099   2.896  1.0070 -1.4298 -3.9324
  860MOL0     H16035   2.456  11.316   2.718 -1.4470  2.6184 -0.2337
  860MOL0     H16036   2.412  11.173   2.614 -0.9807 -0.4873  0.3850
  860MOL0     H16037   2.392  11.394   2.480 -1.4097  1.0304  0.5086
  860MOL0     H16038   2.249  11.310   2.490  3.6324 -0.4331 -3.3451
  860MOL0     H16039   2.163  11.470   2.643 -1.0456  0.4641  0.0641
  860MOL0     H16040   2.325  11.514   2.701 -1.5912 -1.3775  0.9224
  860MOL0     H16041   2.250  11.700   2.560  2.4365  3.4039 -3.3960
  860MOL0     H16042   2.380  11.631   2.472 -1.7667  2.2761 -2.2767
  860MOL0     H16043   2.234  11.543   2.294  0.5293  1.2877 -0.7853
  860MOL0     H16044   2.093  11.546   2.401 -1.9287  1.9978 -2.5186
  860MOL0     H16045   2.040  11.742   2.297 -0.6707  0.4246  2.4264
  860MOL0     H16046   2.128  11.816   2.429 -1.9597  1.4112 -1.7026
  860MOL0     H16047   2.304  11.892   2.313 -0.6733 -1.2713  0.9307
  860MOL0     H16048   2.330  11.731   2.247 -0.7701  0.0051  0.5484
  860MOL0     H16049   2.167  11.768   2.060  0.1789 -2.1254  2.1746
  860MOL0     H16050   2.282  11.897   2.064  0.9617 -4.0319 -1.3970
  860MOL0     H16051   2.241  12.138   2.181 -0.7483  2.3285 -2.7309
  860MOL0     H16052   1.928  12.346   2.142  0.2387 -0.4126  0.2780
  860MOL0     H16053   2.089  12.366   2.188  1.8613  0.7065 -0.6400
  860MOL0     H16054   2.063  12.485   1.987 -0.5754  0.6499  0.1892
  860MOL0     H16055   2.000  12.346   1.910  1.1167  3.1066 -0.2098
  860MOL0     H16056   2.260  12.244   1.946  3.3021  0.3808  0.1955
  860MOL0     H16057   2.292  12.409   1.999 -0.9779 -1.0009  1.4630
  860MOL0     H16058   2.162  12.460   1.773 -1.4102 -1.6525 -1.6011
  860MOL0     H16059   2.229  12.299   1.739  0.6794 -0.8298  0.9410
  860MOL0     H16060   2.239  12.504   1.545 -0.0209 -2.2792  0.3430
  860MOL0     H16061   2.327  12.690   1.287 -0.1467 -1.6767  0.4148
  860MOL0     H16062   2.188  12.631   1.375 -3.5598  2.3098  2.9748
  860MOL0     H16063   2.219  12.799   1.395  2.3374  0.7657  0.6807
  860MOL0     H16064   2.883  13.053   1.425  3.0548 -0.6513 -2.8725
  860MOL0     H16065   2.951  13.210   1.251 -0.5496  2.2718 -2.3049
  860MOL0     H16066   2.969  13.392   1.045 -1.8368  0.1090 -0.5365
  860MOL0     H16067   3.029  13.222   1.038  0.4978  1.3844 -0.2393
  860MOL0     H16068   2.893  13.354   0.807  0.3414  1.7897  1.9264
  860MOL0     H16069   3.069  13.381   0.841 -0.5819 -0.3361  0.4896
  860MOL0     H16070   3.107  13.127   0.821  1.0090 -0.0287 -3.2095
  860MOL0     H16071   3.043  13.197   0.673  2.3645  0.0552 -0.0435
  860MOL0     H16072   2.894  13.016   0.869  2.4304  0.4222  0.2514
  860MOL0     H16073   2.814  13.099   0.728 -1.4190 -0.9704 -0.0082
  860MOL0     H16074   3.053  12.923   0.653  0.5748 -0.1236 -1.9792
  860MOL0     H16075   2.924  13.007   0.567 -2.3871  1.3906  1.3404
  860MOL0     H16076   2.888  12.760   0.582  3.9993  1.6451  0.2518
  860MOL0     H16077   2.883  12.770   0.756 -3.3861 -0.1746  0.2182
  860MOL0     H16078   2.686  12.906   0.588  0.7180 -1.4143 -0.5683
  860MOL0     H16079   2.666  12.898   0.760 -0.5629  1.3131 -1.0920
  860MOL0     H16080   2.521  12.703   0.679 -0.9822 -2.3342 -4.4124
  860MOL0     H16081   2.673  12.629   0.728  2.7283  1.1479  0.9868
  860MOL0     H16082   2.603  13.112   1.021 -0.4063 -3.2309 -0.3290
  860MOL0     H16083   2.517  12.986   1.196  0.5831 -3.5847  1.3278
  860MOL0     H16084   2.637  12.790   1.656  0.7266 -1.4561  3.2574
  860MOL0     H16085   2.579  12.586   1.800  1.8233 -4.4352 -2.0539
  860MOL0     H16086   2.537  11.150   2.844  1.1895 -2.2257  0.1791
  860MOL0     H16087   2.573  10.985   3.007 -0.2889 -2.5846 -0.9897
  860MOL0     H16088   2.729  10.844   3.382 -1.3643  0.9665  2.6930
  860MOL0     H16089   2.800  10.643   3.505 -0.0192 -0.3625  0.4721
  860MOL0     H16090   2.513  10.305   3.574  1.0020  1.0225  1.4376
  860MOL0     H16091   2.579  10.301   3.421  1.5844 -0.8883 -0.5877
  860MOL0     H16092   2.758  10.210   3.662  0.5454  1.1800  0.0352
  860MOL0     H16093   2.765  10.156   3.491 -1.3439 -4.5427  0.2160
  860MOL0     H16094   2.589  10.064   3.723 -2.1529 -1.3256  0.6956
  860MOL0     H16095   2.692   9.976   3.629 -0.1177 -0.1917 -0.0669
  860MOL0     H16096   2.534  10.040   3.422 -2.2132  1.8935 -0.6287
  860MOL0     H16097   2.420  10.079   3.557  0.7188  1.1685  1.1425
  860MOL0     H16098   2.423   9.653   3.539  0.7953 -0.0395 -2.6350
  860MOL0     H16099   2.405  10.474   3.449  0.1408 -0.4704  1.0868
  860MOL0     H16100   2.343  10.653   3.319  0.3262 -1.6044 -0.2494
  861MOL0     O16101   2.419   8.513   0.446  0.2977 -0.0387 -0.8574
  861MOL0     C16102   2.448   8.620   0.507  0.2707  0.5607 -0.1274
  861MOL0     O16103   2.482   8.728   0.450  0.1625 -0.9898 -0.1310
  861MOL0     C16104   2.520   8.715   0.320 -0.0596  0.3087  0.3087
  861MOL0     C16105   2.416   8.720   0.222 -0.2785 -0.0394  1.0995
  861MOL0     C16106   2.451   8.744   0.082 -0.6286 -0.3603 -0.0494
  861MOL0     C16107   2.588   8.757   0.043  1.0808 -0.3404  0.2528
  861MOL0     O16108   2.622   8.801  -0.079 -0.2798 -0.8612  0.0773
  861MOL0     C16109   2.606   8.942  -0.092 -0.6685 -0.9890  0.1477
  861MOL0     C16110   2.668   8.979  -0.227  0.7941  0.1501 -0.3770
  861MOL0     C16111   2.819   8.954  -0.236 -0.7832 -0.1734  0.0605
  861MOL0     C16112   2.877   9.019  -0.363 -1.2478 -0.4281  0.4433
  861MOL0     C16113   2.904   9.174  -0.362  0.5660 -0.1738  0.0782
  861MOL0     C16114   2.957   9.224  -0.225  0.1455  0.7528 -0.0521
  861MOL0     C16115   3.013   9.361  -0.227  0.1050 -0.0594 -0.0643
  861MOL0     C16116   3.049   9.412  -0.099 -0.1539 -0.5850 -0.4793
  861MOL0     N16117   3.063   9.558  -0.103 -0.6738 -0.1970 -0.6706
  861MOL0     C16118   3.184   9.619  -0.146 -0.0023 -1.0867 -0.7751
  861MOL0     C16119   3.162   9.758  -0.112 -0.5890  0.7553 -0.7922
  861MOL0     C16120   3.260   9.869  -0.106  1.3724  0.6685  0.4337
  861MOL0     C16121   3.410   9.829  -0.102  0.0847 -0.4869  0.9230
  861MOL0     C16122   3.453   9.747   0.017 -0.6698 -0.0556  0.3808
  861MOL0     C16123   3.599   9.681  -0.002  0.0081  1.0505 -0.0506
  861MOL0     O16124   3.599   9.573  -0.103  0.7245  0.3521  0.3964
  861MOL0     C16125   3.540   9.450  -0.083  0.0801 -0.7222  0.2047
  861MOL0     C16126   3.531   9.395   0.033 -0.3504 -0.0110 -0.7938
  861MOL0     C16127   3.474   9.272   0.054 -0.2710 -0.3485 -0.1038
  861MOL0     C16128   3.453   9.228   0.198  0.9435  0.4901 -0.8045
  861MOL0     C16129   3.437   9.196  -0.065 -0.2828  0.8228 -1.1461
  861MOL0     C16130   3.400   9.055  -0.060  0.2423 -0.5698  0.5315
  861MOL0     O16131   3.301   9.016  -0.155 -0.1244 -0.2032  0.1590
  861MOL0     C16132   3.246   8.892  -0.164 -0.1634 -0.4288 -1.0078
  861MOL0     C16133   3.175   8.839  -0.055  0.7743  0.0596 -0.8248
  861MOL0     C16134   3.102   8.719  -0.072 -0.2938 -0.6607  0.4474
  861MOL0     C16135   3.085   8.659  -0.193 -0.1342  0.4951 -0.1112
  861MOL0     O16136   3.008   8.550  -0.208 -0.7009 -0.0573 -0.1848
  861MOL0     C16137   2.884   8.533  -0.129 -0.1361 -0.8118 -0.3156
  861MOL0     C16138   2.810   8.410  -0.186  0.0738  0.4103 -0.6769
  861MOL0     C16139   2.670   8.387  -0.118 -0.6176  0.0295  0.6872
  861MOL0     C16140   2.593   8.286  -0.210 -0.1663  1.4832 -0.9195
  861MOL0     C16141   2.656   8.149  -0.233 -0.8568 -0.1957 -0.0168
  861MOL0     C16142   2.574   8.062  -0.319  0.6476 -0.2259  0.2434
  861MOL0     C16143   2.529   7.936  -0.240  0.0588 -1.4343 -0.2783
  861MOL0     C16144   2.444   7.832  -0.324 -0.6459 -0.5319  0.0157
  861MOL0    Cl16145   2.291   7.912  -0.387 -0.3622  0.2905 -0.2421
  861MOL0     C16146   3.156   8.711  -0.301 -0.0219 -0.5641  0.7403
  861MOL0     C16147   3.238   8.825  -0.287 -1.0846 -1.0565 -0.1380
  861MOL0     O16148   3.456   8.981   0.027 -0.1943 -0.2246 -0.0860
  861MOL0     C16149   3.448   9.264  -0.186  0.3918  0.7194 -1.0110
  861MOL0     C16150   3.503   9.391  -0.197  0.1605  0.1589 -0.6192
  861MOL0     N16151   3.033   9.766  -0.049  0.1911 -0.0770  0.0553
  861MOL0     N16152   2.986   9.647  -0.037 -0.5218  0.2442 -0.2301
  861MOL0     C16153   2.690   8.730   0.139  0.1736 -0.4229  0.5453
  861MOL0     C16154   2.656   8.731   0.274 -0.4047  0.8218 -0.6662
  861MOL0     C16155   2.434   8.608   0.652 -0.8863  0.1679 -0.1707
  861MOL0     C16156   2.442   8.729   0.722  0.5641 -0.8183 -0.4340
  861MOL0     C16157   2.434   8.728   0.863 -0.4862  0.5769 -0.1431
  861MOL0     C16158   2.419   8.608   0.936  0.9126  0.0775 -0.0617
  861MOL0     O16159   2.409   8.615   1.076  0.3616 -0.0541  0.4734
  861MOL0     C16160   2.344   8.506   1.136  0.6143 -0.4398 -0.1997
  861MOL0     C16161   2.292   8.552   1.268 -0.6047 -0.5912 -0.2239
  861MOL0     C16162   2.164   8.637   1.256  0.5638  0.5172  0.2336
  861MOL0     C16163   2.155   8.749   1.358 -0.1211  0.7825  0.8361
  861MOL0     C16164   2.170   8.706   1.492  0.3691 -0.5910  1.1189
  861MOL0     C16165   2.168   8.679   1.609  0.4056  0.7706  0.4387
  861MOL0     C16166   2.428   8.483   0.861  0.1318 -0.2364  0.3078
  861MOL0     C16167   2.434   8.490   0.726 -0.6891  0.1571  1.6345
  861MOL0     H16168   2.314   8.721   0.259 -1.1169 -2.5951 -0.8600
  861MOL0     H16169   2.387   8.762  -0.004  0.7483  2.8942 -0.5621
  861MOL0     H16170   2.501   8.971  -0.094 -0.5810 -0.6917 -0.8336
  861MOL0     H16171   2.661   9.005  -0.022  1.6565 -0.7518 -1.7541
  861MOL0     H16172   2.618   8.913  -0.299  0.7795 -0.6830  0.3774
  861MOL0     H16173   2.646   9.083  -0.252 -1.8848 -0.7084 -2.1346
  861MOL0     H16174   2.871   8.990  -0.147 -1.8680  0.4073  0.4806
  861MOL0     H16175   2.832   8.846  -0.253 -2.6278 -0.4089 -0.0316
  861MOL0     H16176   2.978   8.977  -0.360 -0.8828  0.4099  0.1945
  861MOL0     H16177   2.824   8.978  -0.450 -1.3460  1.0513 -0.2142
  861MOL0     H16178   2.960   9.198  -0.453 -2.9275 -0.8154 -2.4981
  861MOL0     H16179   2.815   9.233  -0.387  1.8006  2.8809  2.2867
  861MOL0     H16180   2.880   9.216  -0.148 -0.0095 -1.0937 -0.3704
  861MOL0     H16181   3.040   9.162  -0.191 -0.1453  0.7591  0.6821
  861MOL0     H16182   3.108   9.365  -0.281  1.5100  2.2886  2.3861
  861MOL0     H16183   2.956   9.431  -0.289  0.1073  0.3187  0.3597
  861MOL0     H16184   3.144   9.369  -0.064 -1.2593 -3.1589 -0.4412
  861MOL0     H16185   2.963   9.384  -0.037 -2.0270  3.4744 -0.9153
  861MOL0     H16186   3.267   9.569  -0.195  1.0444 -1.3723  1.1938
  861MOL0     H16187   3.252   9.933  -0.194  1.2969 -0.6536 -0.5411
  861MOL0     H16188   3.236   9.907  -0.006  2.9935 -0.7405  1.4175
  861MOL0     H16189   3.471   9.919  -0.095  0.8130 -0.9019  0.1162
  861MOL0     H16190   3.434   9.767  -0.190  3.5773  0.3734  1.1233
  861MOL0     H16191   3.386   9.666   0.048  0.3415 -0.8750  0.4494
  861MOL0     H16192   3.451   9.811   0.106 -0.3926  1.7028 -0.8183
  861MOL0     H16193   3.634   9.650   0.097 -0.5899 -1.3111 -0.5110
  861MOL0     H16194   3.675   9.751  -0.036  1.4402 -1.4261 -2.4462
  861MOL0     H16195   3.565   9.447   0.122  0.9615  2.7288 -2.7535
  861MOL0     H16196   3.354   9.188   0.221  0.6827  0.4534 -1.9042
  861MOL0     H16197   3.523   9.149   0.227  1.6244  1.8344  1.5005
  861MOL0     H16198   3.467   9.314   0.264 -0.4990  2.5383 -2.9810
  861MOL0     H16199   3.173   8.896   0.038  2.2123 -0.7600 -0.2594
  861MOL0     H16200   3.038   8.686   0.010 -0.3578 -0.2226  0.5776
  861MOL0     H16201   2.892   8.513  -0.022 -1.4658 -0.8442 -0.1954
  861MOL0     H16202   2.817   8.620  -0.129  1.5794  0.5850  1.3981
  861MOL0     H16203   2.814   8.409  -0.296 -2.6722 -1.9210 -0.8705
  861MOL0     H16204   2.870   8.323  -0.160 -0.0350  0.0848 -1.4793
  861MOL0     H16205   2.622   8.485  -0.113  3.1161  2.0517  1.0689
  861MOL0     H16206   2.686   8.333  -0.025  4.5261 -1.1978 -0.5696
  861MOL0     H16207   2.495   8.268  -0.164  0.8153 -0.3854  0.6195
  861MOL0     H16208   2.569   8.335  -0.305  3.0193  0.7341 -2.2203
  861MOL0     H16209   2.689   8.099  -0.142  1.7117 -2.5001 -2.0287
  861MOL0     H16210   2.753   8.159  -0.282 -1.2224  0.4455 -0.6352
  861MOL0     H16211   2.487   8.116  -0.358 -0.1473 -1.7316 -0.1538
  861MOL0     H16212   2.626   8.027  -0.409 -1.9942 -2.0944 -0.6850
  861MOL0     H16213   2.460   7.963  -0.159  1.1927  1.4697 -0.1514
  861MOL0     H16214   2.620   7.891  -0.198 -0.6015 -1.0448  1.7094
  861MOL0     H16215   2.409   7.746  -0.267 -0.6641 -0.1348  0.6163
  861MOL0     H16216   2.501   7.803  -0.413 -1.4621  0.1540 -0.7570
  861MOL0     H16217   3.158   8.658  -0.396 -1.1332  1.3240 -0.4094
  861MOL0     H16218   3.274   8.878  -0.374 -1.3935 -3.4150 -1.8003
  861MOL0     H16219   3.427   9.211  -0.278 -3.0574 -0.0630  0.0884
  861MOL0     H16220   3.514   9.444  -0.291 -0.1352  2.1840  0.4380
  861MOL0     H16221   2.791   8.734   0.100  0.4913 -0.7873  1.3002
  861MOL0     H16222   2.738   8.743   0.344  0.1509  0.4420 -1.2392
  861MOL0     H16223   2.444   8.822   0.667 -0.8443 -0.5346 -0.0303
  861MOL0     H16224   2.452   8.817   0.923  1.2272  0.8014 -0.9100
  861MOL0     H16225   2.249   8.485   1.086 -1.2980  3.6939  1.2320
  861MOL0     H16226   2.403   8.414   1.135  0.1966 -0.7206  0.4755
  861MOL0     H16227   2.368   8.610   1.321  1.9313 -2.5488 -1.5151
  861MOL0     H16228   2.266   8.468   1.334  1.7338 -1.4510 -0.3132
  861MOL0     H16229   2.065   8.591   1.250 -0.6992  2.8328  1.8788
  861MOL0     H16230   2.172   8.691   1.161  0.4254 -0.8058 -0.5552
  861MOL0     H16231   2.060   8.802   1.356  1.2377  3.4450  1.3901
  861MOL0     H16232   2.235   8.822   1.338  2.5531 -1.2767  3.0996
  861MOL0     H16233   2.183   8.661   1.713  1.2688  0.3645  0.2512
  861MOL0     H16234   2.423   8.392   0.920 -1.1062  2.6593  5.2253
  861MOL0     H16235   2.433   8.389   0.684  4.2080  0.0070  1.3013
  862MOL0     O16236  11.536  10.302   7.029  0.7675  0.7973 -1.1509
  862MOL0     C16237  11.531  10.343   7.145 -1.2528 -0.4536  0.0509
  862MOL0     O16238  11.421  10.406   7.207 -0.5025 -0.1450 -0.6411
  862MOL0     C16239  11.325  10.444   7.118 -0.8706 -0.0552  0.0257
  862MOL0     C16240  11.335  10.556   7.042 -0.2982  0.6378 -0.1067
  862MOL0     C16241  11.243  10.612   6.964 -0.5150  0.7390  0.1946
  862MOL0     C16242  11.126  10.544   6.933  0.7771 -1.1595 -0.5083
  862MOL0     O16243  11.025  10.607   6.853 -0.6962 -0.3867  0.3937
  862MOL0     C16244  10.913  10.524   6.804  0.8477 -0.0027  0.0481
  862MOL0     C16245  10.947  10.423   6.697 -0.5971 -1.3272  0.0477
  862MOL0     C16246  10.969  10.501   6.559  0.1537 -0.8849 -0.3952
  862MOL0     C16247  11.058  10.431   6.461 -0.6944 -0.9328 -0.6903
  862MOL0     C16248  11.032  10.276   6.446  0.0322  0.3052 -0.0540
  862MOL0     C16249  10.911  10.255   6.359 -0.0447  0.6781 -0.4745
  862MOL0     C16250  10.943  10.220   6.216 -0.8557  0.4614 -0.4172
  862MOL0     C16251  10.819  10.215   6.129  1.1355  1.1450  0.2519
  862MOL0     N16252  10.837  10.133   6.010  0.6320  0.4939 -0.1416
  862MOL0     C16253  10.839   9.996   5.998  0.0550  0.1236 -1.3718
  862MOL0     C16254  10.818   9.973   5.866  0.7742 -0.4922  0.1413
  862MOL0     C16255  10.796   9.843   5.795 -0.1332 -0.1800 -0.5179
  862MOL0     C16256  10.650   9.817   5.789 -0.1546  0.6678  0.1793
  862MOL0     C16257  10.620   9.674   5.737  0.3282  0.5571 -0.7527
  862MOL0     C16258  10.476   9.617   5.770  0.0665 -0.6803 -1.0089
  862MOL0     O16259  10.457   9.512   5.686 -0.4531 -0.3617  0.2591
  862MOL0     C16260  10.335   9.441   5.669 -1.1476  0.5320  0.2299
  862MOL0     C16261  10.309   9.364   5.560 -0.2195 -0.5229 -0.3150
  862MOL0     C16262  10.197   9.282   5.549  0.1232 -0.4661  0.5265
  862MOL0     C16263  10.186   9.181   5.434  0.1510 -0.9250  0.6470
  862MOL0     C16264  10.096   9.298   5.645 -0.3531  0.4238  0.8854
  862MOL0     C16265   9.972   9.228   5.630 -0.1823  0.7062  0.9238
  862MOL0     O16266   9.869   9.290   5.703 -0.6759  0.6929 -0.5024
  862MOL0     C16267   9.741   9.256   5.686  0.6687 -0.4728  0.1165
  862MOL0     C16268   9.667   9.288   5.566  0.1814  0.2562  0.8149
  862MOL0     C16269   9.533   9.237   5.539 -0.7419 -0.6364 -0.0802
  862MOL0     C16270   9.472   9.155   5.621  0.7042  0.4349 -0.8883
  862MOL0     O16271   9.355   9.081   5.595 -0.4800  0.0723  0.5403
  862MOL0     C16272   9.368   8.987   5.495 -0.1920 -0.5402  0.1042
  862MOL0     C16273   9.244   8.900   5.509  0.0116 -0.4425 -0.1828
  862MOL0     C16274   9.267   8.783   5.607 -0.1113  0.0471  0.2705
  862MOL0     C16275   9.319   8.661   5.538 -0.3810 -0.2806 -0.5533
  862MOL0     C16276   9.363   8.552   5.620 -0.8115  1.0115  0.6815
  862MOL0     C16277   9.465   8.455   5.544  0.5300 -1.1430  0.5023
  862MOL0     C16278   9.510   8.343   5.633 -0.6415  0.1846 -0.7624
  862MOL0     C16279   9.613   8.254   5.559  0.4210  0.0566  0.7772
  862MOL0    Cl16280   9.672   8.109   5.649  0.5615 -0.5732  0.0306
  862MOL0     C16281   9.539   9.110   5.748 -0.3620  0.1987  1.5471
  862MOL0     C16282   9.672   9.160   5.765  1.0316 -0.7560  0.1795
  862MOL0     O16283   9.954   9.124   5.562 -0.0454  0.2696  0.7732
  862MOL0     C16284  10.120   9.383   5.759 -0.3329  0.2776  0.0468
  862MOL0     C16285  10.238   9.452   5.765  0.5655  0.6367  0.6552
  862MOL0     N16286  10.799  10.096   5.796  0.0583 -0.0237  0.5495
  862MOL0     N16287  10.827  10.189   5.885 -0.0105  1.1830 -0.2903
  862MOL0     C16288  11.105  10.425   6.999 -0.5962 -0.1631 -0.6755
  862MOL0     C16289  11.206  10.372   7.097  0.3477  0.4745  0.6161
  862MOL0     C16290  11.653  10.313   7.234 -0.3330  0.6096 -0.1762
  862MOL0     C16291  11.764  10.253   7.173  0.5876 -0.1137 -0.7932
  862MOL0     C16292  11.882  10.231   7.249  0.2928  0.3898  0.2055
  862MOL0     C16293  11.887  10.275   7.381  0.3595 -0.1218 -0.2279
  862MOL0     O16294  11.994  10.241   7.462  0.1022  0.2204  0.0220
  862MOL0     C16295  11.999  10.274   7.602 -0.4725 -0.2679 -0.6142
  862MOL0     C16296  12.138  10.211   7.663  0.1977 -0.0481 -0.0410
  862MOL0     C16297  12.197  10.087   7.578  0.6982  0.3413  0.3672
  862MOL0     C16298  12.332  10.061   7.647  0.4272 -0.2415 -0.0810
  862MOL0     C16299  12.396   9.950   7.583  0.4477  0.2820 -0.1597
  862MOL0     C16300  12.439   9.847   7.543 -0.6970  0.4553  0.3829
  862MOL0     C16301  11.772  10.337   7.439 -0.0585  0.8807  0.2569
  862MOL0     C16302  11.654  10.355   7.365 -0.7013 -0.2120 -0.1900
  862MOL0     H16303  11.424  10.615   7.059 -0.0778  0.6278 -1.1456
  862MOL0     H16304  11.255  10.711   6.923  2.1859 -0.3053 -1.8217
  862MOL0     H16305  10.867  10.472   6.888 -3.5348  0.7753 -1.6031
  862MOL0     H16306  10.833  10.590   6.769  1.6242  0.0221 -1.8094
  862MOL0     H16307  11.046  10.379   6.715 -0.8074 -2.1815 -0.7932
  862MOL0     H16308  10.874  10.342   6.691 -1.8751 -0.3541  1.8301
  862MOL0     H16309  10.870  10.521   6.515  0.6162  1.8779 -0.3719
  862MOL0     H16310  11.015  10.598   6.582  0.6332 -1.9968  4.0722
  862MOL0     H16311  11.045  10.486   6.368  0.9336 -1.5527 -1.3196
  862MOL0     H16312  11.159  10.430   6.503 -0.6278 -0.8940 -0.8480
  862MOL0     H16313  11.121  10.228   6.404  1.5489  0.3423  2.8557
  862MOL0     H16314  11.029  10.235   6.547 -2.3755  3.1447  1.1793
  862MOL0     H16315  10.850  10.170   6.393  0.6181  0.8437  1.2234
  862MOL0     H16316  10.843  10.341   6.366  0.1295  1.0047 -2.2990
  862MOL0     H16317  11.019  10.292   6.187  0.9265  0.2597  3.1779
  862MOL0     H16318  10.997  10.125   6.224  1.9016  2.0817  4.2524
  862MOL0     H16319  10.784  10.308   6.083 -0.3567  0.3438 -0.2829
  862MOL0     H16320  10.731  10.176   6.181  1.4040 -0.5850 -0.5142
  862MOL0     H16321  10.846   9.925   6.080 -0.6359  1.7075  0.1079
  862MOL0     H16322  10.840   9.840   5.695  0.1035  0.1663 -0.4264
  862MOL0     H16323  10.840   9.771   5.864 -2.0643  1.6568  2.9075
  862MOL0     H16324  10.605   9.892   5.724 -0.7839 -1.2372 -1.7026
  862MOL0     H16325  10.590   9.833   5.879 -2.5316  2.4263 -1.6047
  862MOL0     H16326  10.685   9.593   5.772  0.6345  0.7890 -0.7749
  862MOL0     H16327  10.634   9.677   5.628  0.8083 -1.7955 -0.8003
  862MOL0     H16328  10.416   9.706   5.752  0.9901  0.7952  2.2703
  862MOL0     H16329  10.460   9.578   5.871 -2.7761  3.0862  0.2510
  862MOL0     H16330  10.389   9.374   5.488  0.0162 -2.2357 -0.3492
  862MOL0     H16331  10.091   9.187   5.381  0.3411 -0.3891  0.3691
  862MOL0     H16332  10.258   9.185   5.352 -2.3726  0.8137 -1.6471
  862MOL0     H16333  10.203   9.081   5.477 -0.0629 -1.2096  0.0809
  862MOL0     H16334   9.719   9.355   5.499 -2.8236  1.1138 -0.8441
  862MOL0     H16335   9.478   9.273   5.452 -1.9213  1.5945  1.4722
  862MOL0     H16336   9.363   9.047   5.404  3.6443  1.6635  1.1312
  862MOL0     H16337   9.464   8.939   5.475  0.0136  0.7742 -2.4871
  862MOL0     H16338   9.155   8.960   5.532  0.0421 -1.3002  2.4987
  862MOL0     H16339   9.220   8.852   5.414  0.6395 -0.8871 -0.1203
  862MOL0     H16340   9.168   8.771   5.654 -1.2173  0.0722 -1.9474
  862MOL0     H16341   9.335   8.827   5.681 -1.3053  0.6719  1.0421
  862MOL0     H16342   9.255   8.630   5.456 -0.9271  0.0474 -0.2554
  862MOL0     H16343   9.416   8.697   5.500  1.6788 -1.7335  2.8361
  862MOL0     H16344   9.266   8.504   5.636 -0.4384 -0.1015 -0.2608
  862MOL0     H16345   9.413   8.589   5.710  1.5536 -1.2894  0.4413
  862MOL0     H16346   9.413   8.405   5.461  1.0754 -2.9426  1.1911
  862MOL0     H16347   9.547   8.518   5.509 -1.0753  0.6647 -0.2141
  862MOL0     H16348   9.428   8.292   5.683 -1.8889  1.3697 -1.5362
  862MOL0     H16349   9.559   8.392   5.718  2.7514 -0.6997 -2.0193
  862MOL0     H16350   9.697   8.316   5.527 -0.2181  2.2311  2.9741
  862MOL0     H16351   9.555   8.222   5.472  0.7368  2.3682 -0.3601
  862MOL0     H16352   9.478   9.050   5.816  2.0242 -1.9972  1.9098
  862MOL0     H16353   9.724   9.121   5.852 -2.3630 -0.4842  2.5532
  862MOL0     H16354  10.051   9.385   5.843  2.7422  1.1370  2.7780
  862MOL0     H16355  10.267   9.534   5.830  2.6078  0.3751  0.1609
  862MOL0     H16356  11.019  10.361   6.984  0.2503 -1.5084 -0.0518
  862MOL0     H16357  11.189  10.271   7.131 -0.7888 -0.6238 -2.8415
  862MOL0     H16358  11.765  10.225   7.068 -0.5456 -0.8741 -0.6199
  862MOL0     H16359  11.971  10.186   7.206  0.9834  0.7864  1.1899
  862MOL0     H16360  11.993  10.383   7.612  0.4417 -0.3872  2.0281
  862MOL0     H16361  11.912  10.234   7.656  1.0890 -2.5287  0.4130
  862MOL0     H16362  12.121  10.189   7.769 -1.0843 -1.7740 -0.5756
  862MOL0     H16363  12.210  10.294   7.664 -1.9759  2.0006 -1.5493
  862MOL0     H16364  12.203  10.104   7.471 -4.2297 -1.5661 -0.4471
  862MOL0     H16365  12.139   9.995   7.589 -0.0931  0.6878 -0.7679
  862MOL0     H16366  12.328  10.025   7.750  0.8634 -0.6589 -0.2092
  862MOL0     H16367  12.394  10.151   7.641 -0.9640  0.7489 -0.0668
  862MOL0     H16368  12.448   9.749   7.500 -1.2594 -0.1976  1.6754
  862MOL0     H16369  11.781  10.362   7.544  1.1616 -0.9945  0.6471
  862MOL0     H16370  11.569  10.402   7.414 -2.0891 -1.7301 -1.0454
  863MOL0     O16371   3.718   6.261   5.191 -0.6121  0.2824  1.0692
  863MOL0     C16372   3.833   6.235   5.164  0.0008 -0.9463 -0.7625
  863MOL0     O16373   3.940   6.321   5.196 -0.2698  0.3011  0.2722
  863MOL0     C16374   3.915   6.454   5.228 -1.2092 -0.1361 -0.2506
  863MOL0     C16375   3.800   6.524   5.168 -0.0459 -0.4259 -0.7416
  863MOL0     C16376   3.798   6.667   5.177 -0.3173 -0.2484 -0.0562
  863MOL0     C16377   3.894   6.744   5.241 -0.4122 -0.3194 -1.0557
  863MOL0     O16378   3.913   6.883   5.241 -0.1471 -0.1756 -0.6666
  863MOL0     C16379   3.808   6.967   5.195 -0.4007 -0.1009 -0.4800
  863MOL0     C16380   3.864   7.109   5.189  0.7015 -0.2709 -0.7251
  863MOL0     C16381   3.757   7.201   5.139  0.5056 -0.2536  1.0196
  863MOL0     C16382   3.823   7.344   5.111 -1.3857  0.0717 -0.7626
  863MOL0     C16383   3.720   7.458   5.093 -0.4248  0.0677 -0.9031
  863MOL0     C16384   3.788   7.594   5.124  0.2931  0.8661  0.3624
  863MOL0     C16385   3.696   7.715   5.122  0.2406  0.5381 -0.9103
  863MOL0     C16386   3.602   7.720   5.005 -0.1137  0.1893  0.3091
  863MOL0     N16387   3.682   7.734   4.883 -0.5536  0.2742  0.5630
  863MOL0     C16388   3.684   7.859   4.824  0.9423  0.5442  0.5710
  863MOL0     C16389   3.748   7.845   4.702  0.1013  0.0888 -0.3405
  863MOL0     C16390   3.764   7.955   4.607  0.3124 -1.2185 -0.2840
  863MOL0     C16391   3.917   7.986   4.594  0.7671  0.5571  0.1172
  863MOL0     C16392   3.978   7.873   4.500  0.3806 -0.4578  0.2282
  863MOL0     C16393   4.090   7.802   4.577  0.3516  0.4839  0.4813
  863MOL0     O16394   4.200   7.888   4.572 -1.2462 -0.2438  0.1197
  863MOL0     C16395   4.322   7.845   4.612 -1.0884  0.8136  0.6592
  863MOL0     C16396   4.425   7.921   4.589 -0.2382  0.6628 -0.8804
  863MOL0     C16397   4.557   7.891   4.613  0.0084 -0.2216  0.3245
  863MOL0     C16398   4.671   7.999   4.582  0.2411  0.5721 -0.3711
  863MOL0     C16399   4.592   7.765   4.665 -0.6459  0.0256 -0.2887
  863MOL0     C16400   4.729   7.712   4.685 -0.0805 -0.6454  0.5178
  863MOL0     O16401   4.824   7.782   4.758 -0.0069  0.5884  0.0077
  863MOL0     C16402   4.950   7.773   4.704 -0.7948  0.3133 -0.7071
  863MOL0     C16403   5.021   7.882   4.653 -0.4651  0.6005 -0.1983
  863MOL0     C16404   5.145   7.877   4.587 -0.1517  0.6239 -0.0852
  863MOL0     C16405   5.216   7.753   4.594 -0.2158 -0.4401  0.2108
  863MOL0     O16406   5.333   7.726   4.532  0.2167 -0.0928 -0.4261
  863MOL0     C16407   5.366   7.792   4.411  0.8234 -0.0359  0.0502
  863MOL0     C16408   5.378   7.683   4.303  0.5226 -0.4124  0.2655
  863MOL0     C16409   5.476   7.575   4.333 -0.3252  0.2729 -0.3548
  863MOL0     C16410   5.624   7.609   4.287  0.2939 -0.0516 -1.2719
  863MOL0     C16411   5.718   7.502   4.317 -0.5836  0.7306  0.4065
  863MOL0     C16412   5.849   7.570   4.379  0.8516 -0.0512 -0.0532
  863MOL0     C16413   5.831   7.614   4.530  0.6691  0.6505 -0.6127
  863MOL0     C16414   5.966   7.650   4.583 -0.0320 -1.0418 -0.8093
  863MOL0    Cl16415   5.968   7.713   4.753  0.1450  0.4565  0.1591
  863MOL0     C16416   5.156   7.645   4.670  0.1271  0.4221  0.1020
  863MOL0     C16417   5.027   7.659   4.730  0.1780  0.6619  0.3453
  863MOL0     O16418   4.752   7.607   4.625 -0.0523  0.5749  0.8385
  863MOL0     C16419   4.484   7.675   4.684  0.2346  0.7687 -0.5751
  863MOL0     C16420   4.346   7.719   4.654  0.0418  1.0980 -0.4357
  863MOL0     N16421   3.783   7.715   4.686  0.4178 -0.2318 -0.2649
  863MOL0     N16422   3.750   7.650   4.794 -0.3937  0.3267 -0.2578
  863MOL0     C16423   3.999   6.673   5.289 -0.6234  0.5568  0.2563
  863MOL0     C16424   4.009   6.535   5.291 -1.4482 -0.3658 -0.0006
  863MOL0     C16425   3.884   6.103   5.108 -0.1460  0.2675  0.2404
  863MOL0     C16426   3.792   5.996   5.107  0.8359  0.6144  0.3689
  863MOL0     C16427   3.833   5.868   5.070  0.6267  0.6224 -0.8020
  863MOL0     C16428   3.965   5.848   5.021  0.1837 -0.2642 -0.0512
  863MOL0     O16429   4.010   5.715   5.004 -0.1926  0.2990  0.0858
  863MOL0     C16430   4.127   5.689   4.932  0.3402  0.0993 -0.4191
  863MOL0     C16431   4.101   5.565   4.844  0.5837  0.7931  0.3687
  863MOL0     C16432   4.229   5.534   4.756 -0.1797 -0.8533  0.1904
  863MOL0     C16433   4.201   5.416   4.651 -0.4808 -0.2241 -0.2719
  863MOL0     C16434   4.188   5.289   4.727  1.3072  0.2825 -0.5943
  863MOL0     C16435   4.163   5.207   4.804  0.0617 -0.3046 -0.0488
  863MOL0     C16436   4.058   5.959   5.031  0.2403 -0.2426 -0.0906
  863MOL0     C16437   4.018   6.090   5.061  0.1019  0.8072  0.3176
  863MOL0     H16438   3.739   6.473   5.094 -0.4298  0.0980 -0.7884
  863MOL0     H16439   3.728   6.732   5.126  0.8368  1.5025  0.4720
  863MOL0     H16440   3.759   6.935   5.103  1.8007 -0.7641 -1.4963
  863MOL0     H16441   3.736   6.959   5.277  0.4243 -0.3827  0.2338
  863MOL0     H16442   3.900   7.140   5.288  0.9347 -0.7169 -0.6684
  863MOL0     H16443   3.953   7.108   5.126  1.2223  0.5027 -0.0265
  863MOL0     H16444   3.704   7.150   5.058 -0.9785  0.1171  1.7082
  863MOL0     H16445   3.681   7.235   5.211 -0.1205  1.3794 -0.3254
  863MOL0     H16446   3.882   7.368   5.200 -2.3953 -1.9412  0.5096
  863MOL0     H16447   3.890   7.332   5.025 -0.7550 -1.8790 -0.0457
  863MOL0     H16448   3.689   7.442   4.989  2.1350  0.9457 -1.9057
  863MOL0     H16449   3.631   7.451   5.155  0.2485  3.3643  0.6256
  863MOL0     H16450   3.826   7.584   5.227  1.2661 -2.6406 -0.2168
  863MOL0     H16451   3.872   7.606   5.055  1.6977 -0.4056  1.7680
  863MOL0     H16452   3.648   7.725   5.219  0.8491 -2.8644 -0.1036
  863MOL0     H16453   3.756   7.806   5.119 -0.8572  1.3477  0.6473
  863MOL0     H16454   3.535   7.804   5.022 -0.9035 -0.5647  1.0441
  863MOL0     H16455   3.545   7.627   4.993 -0.0395  0.2294 -0.4165
  863MOL0     H16456   3.635   7.947   4.865  3.7103  1.3256  2.4836
  863MOL0     H16457   3.713   7.934   4.513 -0.7504 -0.8331  0.1959
  863MOL0     H16458   3.717   8.041   4.656 -1.8986 -3.3639  1.5804
  863MOL0     H16459   3.972   7.973   4.688  3.2392 -3.7174 -1.6488
  863MOL0     H16460   3.937   8.084   4.550  1.2497 -0.0194 -0.9704
  863MOL0     H16461   4.004   7.906   4.398  1.7618 -1.8107  0.1189
  863MOL0     H16462   3.897   7.802   4.480  0.2973 -0.2181 -0.3359
  863MOL0     H16463   4.107   7.702   4.535 -3.9972 -0.0138 -0.5596
  863MOL0     H16464   4.057   7.782   4.679  2.7708 -1.9012  0.9222
  863MOL0     H16465   4.402   8.020   4.550  0.0178  0.7050 -0.9268
  863MOL0     H16466   4.626   8.096   4.560  2.1962  1.6063 -0.0243
  863MOL0     H16467   4.732   7.999   4.673 -0.2108  1.0958 -0.0641
  863MOL0     H16468   4.727   7.974   4.491  0.6158 -0.2139  0.0634
  863MOL0     H16469   4.977   7.981   4.667  3.4258  2.4911  0.0759
  863MOL0     H16470   5.185   7.971   4.551 -2.2469  1.4951 -0.3128
  863MOL0     H16471   5.292   7.863   4.371 -0.0828  0.3196  2.2373
  863MOL0     H16472   5.457   7.850   4.422  0.7834 -0.1943  1.3358
  863MOL0     H16473   5.284   7.630   4.283  0.8712 -0.9870  0.1606
  863MOL0     H16474   5.410   7.712   4.203  2.8983 -0.2830  1.0200
  863MOL0     H16475   5.458   7.480   4.282  2.5112 -0.8162  0.4262
  863MOL0     H16476   5.473   7.559   4.441 -1.3405  0.5326 -0.3428
  863MOL0     H16477   5.629   7.645   4.184 -3.1368 -0.1913 -1.6163
  863MOL0     H16478   5.633   7.702   4.345 -0.2375 -0.2347 -0.8914
  863MOL0     H16479   5.745   7.451   4.224  0.5342  2.3010 -0.1834
  863MOL0     H16480   5.674   7.425   4.381  0.3640  1.2943  1.7962
  863MOL0     H16481   5.935   7.503   4.371  1.8273  1.1502 -0.0727
  863MOL0     H16482   5.876   7.655   4.316  0.6521  1.0377  1.2645
  863MOL0     H16483   5.780   7.535   4.585 -1.3347  1.4332 -1.2429
  863MOL0     H16484   5.777   7.708   4.548  1.2405  0.5937  1.6363
  863MOL0     H16485   6.029   7.720   4.527  1.3450 -1.2204  0.4452
  863MOL0     H16486   6.029   7.561   4.579  1.1919 -0.1778 -1.2259
  863MOL0     H16487   5.213   7.552   4.667 -0.2964  0.1873 -1.6572
  863MOL0     H16488   4.987   7.569   4.775  1.0602 -0.7543 -1.5797
  863MOL0     H16489   4.496   7.577   4.729  0.2264  1.1734  0.3372
  863MOL0     H16490   4.265   7.647   4.651  0.8543 -0.0629  2.3434
  863MOL0     H16491   4.074   6.732   5.341 -2.2614  2.5943  0.4305
  863MOL0     H16492   4.096   6.498   5.343 -0.8269  0.9648 -0.0578
  863MOL0     H16493   3.692   6.006   5.148  0.6231 -1.5369  0.5002
  863MOL0     H16494   3.757   5.793   5.054 -0.5837  1.9024 -1.2776
  863MOL0     H16495   4.138   5.768   4.857 -4.4174  2.1361  0.6366
  863MOL0     H16496   4.210   5.671   5.001  0.2763  0.2115 -0.3150
  863MOL0     H16497   4.017   5.581   4.776 -2.9299 -1.6804  3.7128
  863MOL0     H16498   4.079   5.477   4.904 -0.6448 -0.2500 -1.5011
  863MOL0     H16499   4.314   5.501   4.816  1.1646  0.9880 -0.5858
  863MOL0     H16500   4.255   5.617   4.689  3.3897 -3.7674 -2.4216
  863MOL0     H16501   4.279   5.401   4.576 -0.1677  1.3408 -0.2798
  863MOL0     H16502   4.106   5.432   4.601 -1.0933 -0.8264  0.6557
  863MOL0     H16503   4.130   5.142   4.883 -0.0071  2.1379  2.0791
  863MOL0     H16504   4.162   5.942   5.007  0.5468 -0.9222  1.5830
  863MOL0     H16505   4.098   6.163   5.058 -0.6234  1.6002 -1.8264
  864MOL0     O16506  10.468   3.463   8.329  0.3062  0.0209 -0.2942
  864MOL0     C16507  10.531   3.472   8.433 -0.3510 -0.6428 -0.0746
  864MOL0     O16508  10.637   3.389   8.477 -0.5808 -0.1522 -0.0980
  864MOL0     C16509  10.693   3.316   8.377 -0.7909  0.0449  0.5907
  864MOL0     C16510  10.673   3.176   8.391 -0.4563  1.1346 -0.7174
  864MOL0     C16511  10.725   3.087   8.289  0.7584  0.1944 -0.3492
  864MOL0     C16512  10.789   3.141   8.172  1.1018 -0.6271  0.4301
  864MOL0     O16513  10.830   3.065   8.062 -0.1179 -0.8552  0.1290
  864MOL0     C16514  10.840   2.924   8.082 -0.2355 -0.1270  0.0233
  864MOL0     C16515  10.912   2.864   7.974  0.5155  0.3993 -0.9741
  864MOL0     C16516  11.058   2.913   7.957 -0.1138  0.2746  0.0950
  864MOL0     C16517  11.115   2.818   7.851  0.8364 -0.1116 -0.1560
  864MOL0     C16518  11.254   2.868   7.816 -0.4489 -0.6925 -0.3443
  864MOL0     C16519  11.315   2.806   7.692 -0.3416 -1.0391 -0.0756
  864MOL0     C16520  11.350   2.657   7.695  0.6770  0.3796 -0.4125
  864MOL0     C16521  11.338   2.582   7.554  0.2808 -0.0561  0.3134
  864MOL0     N16522  11.383   2.446   7.569 -0.1933  0.0827 -0.5601
  864MOL0     C16523  11.327   2.329   7.513  0.2467 -0.6856  0.3840
  864MOL0     C16524  11.426   2.231   7.506 -0.5472  0.3684 -0.9788
  864MOL0     C16525  11.414   2.080   7.478 -0.2191  0.5537 -0.8859
  864MOL0     C16526  11.544   2.014   7.422  0.2982 -0.8717  0.1629
  864MOL0     C16527  11.501   1.870   7.371 -0.1266  0.2094 -0.2793
  864MOL0     C16528  11.601   1.759   7.346 -0.6171  0.7186 -0.7633
  864MOL0     O16529  11.656   1.713   7.479  0.0729  0.1113  0.3231
  864MOL0     C16530  11.720   1.597   7.497  0.0226 -0.9913 -0.4899
  864MOL0     C16531  11.742   1.505   7.404 -0.8257  0.0232  1.3030
  864MOL0     C16532  11.813   1.389   7.423 -1.7997  0.4727 -0.3297
  864MOL0     C16533  11.852   1.293   7.311 -0.6838  0.7957  0.6960
  864MOL0     C16534  11.852   1.359   7.557  0.6671  0.8230 -0.8686
  864MOL0     C16535  11.947   1.254   7.602  0.0974 -0.1684  0.3957
  864MOL0     O16536  12.031   1.287   7.698 -0.1162 -0.0148 -0.9068
  864MOL0     C16537  12.130   1.198   7.730  0.0999  0.2273  0.0563
  864MOL0     C16538  12.214   1.117   7.648  0.1499 -0.2193  0.1266
  864MOL0     C16539  12.335   1.061   7.698 -0.2644 -0.4792  0.3119
  864MOL0     C16540  12.375   1.082   7.838  0.4545 -1.1259  0.2427
  864MOL0     O16541  12.467   1.019   7.912  0.2815  0.4517 -0.0170
  864MOL0     C16542  12.585   0.962   7.840  0.1816  0.0686  1.0650
  864MOL0     C16543  12.713   0.964   7.930 -0.5863  0.5513  0.2813
  864MOL0     C16544  12.842   0.972   7.840  0.2754  0.1661  0.6201
  864MOL0     C16545  12.952   0.908   7.917 -1.2112 -0.4925 -1.0108
  864MOL0     C16546  13.098   0.926   7.849  0.3978 -0.1531  0.1260
  864MOL0     C16547  13.170   1.047   7.905  0.4517  0.0371 -0.3174
  864MOL0     C16548  13.327   1.044   7.888 -0.6526  0.0649 -0.0206
  864MOL0     C16549  13.389   1.126   7.780 -0.2315 -0.3415  0.3697
  864MOL0    Cl16550  13.355   1.064   7.631  0.1296 -0.0713  0.2163
  864MOL0     C16551  12.287   1.161   7.914  0.6450 -0.5894  0.3781
  864MOL0     C16552  12.174   1.215   7.861 -0.4465 -0.5159 -0.4023
  864MOL0     O16553  11.941   1.144   7.548  0.1781 -0.3141  0.8078
  864MOL0     C16554  11.815   1.454   7.665 -0.0374 -0.4327  0.5276
  864MOL0     C16555  11.758   1.577   7.630 -0.2054  0.1736 -0.6221
  864MOL0     N16556  11.546   2.299   7.551  0.5254  0.9524 -0.4245
  864MOL0     N16557  11.516   2.408   7.601 -0.3266 -0.5133  0.8549
  864MOL0     C16558  10.826   3.277   8.179 -0.3580  0.6181 -0.1285
  864MOL0     C16559  10.775   3.366   8.277  0.9593 -0.4345  0.7157
  864MOL0     C16560  10.461   3.546   8.542  1.5035  0.2484  0.3826
  864MOL0     C16561  10.368   3.650   8.513 -0.1587  0.1229  0.2088
  864MOL0     C16562  10.304   3.720   8.615 -0.6393  0.6994 -0.7661
  864MOL0     C16563  10.329   3.686   8.743 -0.5618  0.1493  0.0616
  864MOL0     O16564  10.253   3.744   8.837  0.7738 -1.2031 -0.5320
  864MOL0     C16565  10.267   3.735   8.977 -0.6432  0.9203  0.1863
  864MOL0     C16566  10.185   3.625   9.049  0.1983  0.2246 -0.2294
  864MOL0     C16567  10.163   3.657   9.198  0.4088 -0.3252  0.6777
  864MOL0     C16568  10.275   3.618   9.293 -0.3283 -0.3009  0.1167
  864MOL0     C16569  10.387   3.710   9.283  0.4877 -0.3858 -0.5523
  864MOL0     C16570  10.477   3.778   9.257  0.4475  0.2185  0.1774
  864MOL0     C16571  10.415   3.580   8.776  0.9450 -0.3590 -0.4630
  864MOL0     C16572  10.478   3.504   8.674  0.3211  0.3368  0.4416
  864MOL0     H16573  10.623   3.130   8.475  0.5331 -1.6953 -1.5624
  864MOL0     H16574  10.712   2.983   8.318 -0.8893  1.3053  3.6604
  864MOL0     H16575  10.884   2.908   8.181 -1.5502 -1.5239  0.4118
  864MOL0     H16576  10.738   2.883   8.085  0.1333 -1.1696 -1.0105
  864MOL0     H16577  10.902   2.756   7.986  0.0412  0.4911 -0.5449
  864MOL0     H16578  10.867   2.889   7.877  2.8765  0.8829 -2.0332
  864MOL0     H16579  11.054   3.011   7.909  1.1872 -1.0902 -3.0760
  864MOL0     H16580  11.129   2.921   8.040  2.8233 -2.1148 -1.9660
  864MOL0     H16581  11.129   2.718   7.893  2.4921  0.9513  1.9967
  864MOL0     H16582  11.050   2.819   7.763  0.3467 -1.8843  0.1328
  864MOL0     H16583  11.250   2.976   7.796  2.2621 -0.4200  0.1876
  864MOL0     H16584  11.316   2.857   7.905  0.2450  0.0538 -0.7246
  864MOL0     H16585  11.245   2.839   7.615  0.3850  2.0809  0.4560
  864MOL0     H16586  11.407   2.863   7.672  1.0318 -2.1835  2.4780
  864MOL0     H16587  11.456   2.646   7.721  0.5206 -0.9220 -0.2423
  864MOL0     H16588  11.285   2.619   7.774 -0.4204  1.5927 -0.6989
  864MOL0     H16589  11.404   2.626   7.479  0.8478 -0.7983  0.3644
  864MOL0     H16590  11.242   2.577   7.500  1.6752 -0.6610 -2.2935
  864MOL0     H16591  11.222   2.313   7.493  0.7965 -1.7088 -2.0387
  864MOL0     H16592  11.378   2.023   7.564 -3.0150  1.2757 -1.4608
  864MOL0     H16593  11.342   2.073   7.396 -1.6341  0.9723  0.2694
  864MOL0     H16594  11.614   2.005   7.506 -1.2220  2.5289  2.0147
  864MOL0     H16595  11.593   2.076   7.345  1.4432 -0.6871  1.0086
  864MOL0     H16596  11.443   1.889   7.280  1.6654  2.3671 -1.0533
  864MOL0     H16597  11.431   1.836   7.448  1.3991  1.8493  1.9447
  864MOL0     H16598  11.688   1.797   7.291 -2.3424  1.0622 -3.3995
  864MOL0     H16599  11.538   1.681   7.302 -0.4562 -0.8354  1.5786
  864MOL0     H16600  11.709   1.504   7.301  2.1197 -3.0512  0.2069
  864MOL0     H16601  11.817   1.326   7.213 -0.2542 -1.6195 -0.3481
  864MOL0     H16602  11.961   1.281   7.304 -0.8631 -1.2281  0.7310
  864MOL0     H16603  11.816   1.192   7.330  2.5336  0.0902  4.5757
  864MOL0     H16604  12.188   1.109   7.543  3.9025  1.3744 -1.1310
  864MOL0     H16605  12.398   0.998   7.637 -1.8818 -0.9080 -1.0119
  864MOL0     H16606  12.572   0.863   7.796  2.7897 -0.6223  1.6669
  864MOL0     H16607  12.605   1.017   7.747 -2.9134  0.5020  0.5392
  864MOL0     H16608  12.734   1.054   7.988  3.8817  2.1250 -3.1656
  864MOL0     H16609  12.712   0.878   7.997  1.9038  0.9505  0.9217
  864MOL0     H16610  12.855   1.079   7.819 -0.0542 -0.2893 -2.3814
  864MOL0     H16611  12.828   0.913   7.749  2.3280  0.8589 -0.2009
  864MOL0     H16612  12.958   0.940   8.021  1.3176 -0.9893 -0.9552
  864MOL0     H16613  12.933   0.801   7.929  0.2901 -0.7769 -0.9918
  864MOL0     H16614  13.099   0.926   7.740 -0.3506 -3.2282  0.0280
  864MOL0     H16615  13.162   0.842   7.878  0.5499 -1.0858 -2.6654
  864MOL0     H16616  13.137   1.139   7.856 -1.4395  0.3861  1.4482
  864MOL0     H16617  13.157   1.054   8.014 -0.3486  1.1540 -0.4637
  864MOL0     H16618  13.360   0.940   7.879 -0.0974  0.0951  1.4249
  864MOL0     H16619  13.362   1.077   7.986 -0.9292 -1.3580  0.5855
  864MOL0     H16620  13.498   1.120   7.796  0.0842  2.9724  0.1456
  864MOL0     H16621  13.367   1.232   7.792  0.9145 -0.1350  0.8268
  864MOL0     H16622  12.302   1.168   8.022  0.2173 -2.8859  0.6555
  864MOL0     H16623  12.099   1.260   7.925  0.8295 -2.4548  2.7153
  864MOL0     H16624  11.849   1.433   7.766 -1.2399 -0.8423  0.8702
  864MOL0     H16625  11.761   1.660   7.700 -1.5550 -2.0237  2.2582
  864MOL0     H16626  10.892   3.302   8.097 -1.5662  2.2351 -0.6530
  864MOL0     H16627  10.795   3.473   8.269  1.3634 -0.0751  4.6193
  864MOL0     H16628  10.347   3.684   8.412  1.5598 -3.2444 -1.4894
  864MOL0     H16629  10.238   3.805   8.602  1.3481  2.8810  2.1503
  864MOL0     H16630  10.370   3.734   9.013 -0.4696  2.1516 -0.2374
  864MOL0     H16631  10.234   3.837   9.000  1.7676  1.4982  1.3532
  864MOL0     H16632  10.228   3.525   9.041 -0.8153 -0.1154 -2.1142
  864MOL0     H16633  10.088   3.608   9.000 -0.4450  1.0067  0.7149
  864MOL0     H16634  10.077   3.597   9.231  3.6062 -4.7216  2.1131
  864MOL0     H16635  10.139   3.761   9.219 -1.4073 -0.6533  0.3899
  864MOL0     H16636  10.303   3.515   9.268  1.9323  0.7989 -2.2453
  864MOL0     H16637  10.236   3.631   9.394 -0.5518  1.9490 -0.2200
  864MOL0     H16638  10.564   3.839   9.242  0.1182  0.6705  0.0857
  864MOL0     H16639  10.412   3.543   8.878  2.0691  0.5062 -0.0883
  864MOL0     H16640  10.546   3.431   8.717 -1.8988 -1.8358  0.4553
  865MOL0     O16641   1.175   5.754   9.272  0.5290  0.4895  1.1238
  865MOL0     C16642   1.202   5.766   9.151 -0.3778 -0.0364  0.2999
  865MOL0     O16643   1.241   5.880   9.087 -0.2347 -0.1567 -0.3197
  865MOL0     C16644   1.264   6.003   9.152  0.3529 -0.5662  0.0639
  865MOL0     C16645   1.252   6.113   9.066  0.9851 -1.0341  1.1738
  865MOL0     C16646   1.247   6.244   9.120  0.4155 -0.3431  0.0353
  865MOL0     C16647   1.257   6.265   9.254 -1.1114 -0.7132 -0.5431
  865MOL0     O16648   1.255   6.394   9.307  0.1114 -0.1453  0.3274
  865MOL0     C16649   1.386   6.451   9.321  1.1148  0.3357 -0.4747
  865MOL0     C16650   1.371   6.604   9.353 -0.3432  0.5327  0.5430
  865MOL0     C16651   1.302   6.689   9.242  1.4294  0.7141  0.0148
  865MOL0     C16652   1.299   6.841   9.290 -1.0071  0.1008  0.5183
  865MOL0     C16653   1.313   6.937   9.172  0.8529 -0.2121  0.7839
  865MOL0     C16654   1.244   7.075   9.201 -0.0291 -1.0107  0.5821
  865MOL0     C16655   1.316   7.168   9.297 -0.3921  0.3276  0.1803
  865MOL0     C16656   1.457   7.201   9.245 -0.3723 -0.4689 -0.3655
  865MOL0     N16657   1.518   7.286   9.347  0.6712  0.2064  0.8359
  865MOL0     C16658   1.539   7.237   9.474 -0.9002 -0.5312 -1.1440
  865MOL0     C16659   1.619   7.334   9.525  0.0085 -0.0340 -0.0320
  865MOL0     C16660   1.703   7.306   9.651 -0.8138 -1.3978 -0.0728
  865MOL0     C16661   1.689   7.414   9.753 -0.9225  0.9214  0.4160
  865MOL0     C16662   1.552   7.444   9.811  0.1509  0.1691 -0.4327
  865MOL0     C16663   1.478   7.322   9.860  1.6598  0.0207 -0.8453
  865MOL0     O16664   1.550   7.281   9.980 -0.3177 -0.1003 -0.0466
  865MOL0     C16665   1.497   7.191  10.074  1.4501  0.4799 -0.2438
  865MOL0     C16666   1.362   7.137  10.067  0.9005  0.6225  0.9398
  865MOL0     C16667   1.293   7.067  10.164 -0.2710 -0.7721 -0.6430
  865MOL0     C16668   1.151   7.023  10.144 -0.2699 -0.5217 -0.7532
  865MOL0     C16669   1.371   7.039  10.282  0.6226  0.3347 -0.4227
  865MOL0     C16670   1.331   6.941  10.388 -0.0559 -0.0314  0.1521
  865MOL0     O16671   1.388   6.952  10.508  0.8429 -0.3892 -0.0292
  865MOL0     C16672   1.338   6.875  10.615  0.4394 -0.4310  0.6271
  865MOL0     C16673   1.419   6.771  10.661  0.3868 -0.0101  0.1199
  865MOL0     C16674   1.381   6.705  10.771  0.8855 -0.3296 -0.4025
  865MOL0     C16675   1.258   6.733  10.834 -0.2860  0.4423 -0.7950
  865MOL0     O16676   1.205   6.671  10.935  0.2810 -0.0112  0.8749
  865MOL0     C16677   1.290   6.600  11.028 -0.0243  0.3289  0.2268
  865MOL0     C16678   1.243   6.625  11.166  0.1504  0.1954 -0.2544
  865MOL0     C16679   1.331   6.556  11.276 -0.1185 -0.3244  1.2799
  865MOL0     C16680   1.284   6.411  11.301 -0.0697 -0.4781 -0.3078
  865MOL0     C16681   1.333   6.352  11.440  0.6138  0.0027 -0.3590
  865MOL0     C16682   1.297   6.214  11.471  0.2039  0.1312 -0.1325
  865MOL0     C16683   1.357   6.098  11.383  0.3703 -1.1469  0.6886
  865MOL0     C16684   1.259   6.073  11.272  0.4383 -0.5188  0.1737
  865MOL0    Cl16685   1.319   5.963  11.147 -0.1217  0.3925  0.1953
  865MOL0     C16686   1.178   6.837  10.787 -0.2924  0.2298 -0.1164
  865MOL0     C16687   1.216   6.907  10.679 -0.3209  0.5646 -0.0550
  865MOL0     O16688   1.263   6.851  10.352  0.0510  0.6240  0.1520
  865MOL0     C16689   1.507   7.095  10.295 -0.1340  0.2562  0.4506
  865MOL0     C16690   1.566   7.168  10.188  0.0636  1.1999  0.3187
  865MOL0     N16691   1.631   7.435   9.441 -0.1386 -0.3874 -0.2973
  865MOL0     N16692   1.581   7.406   9.332 -0.5438  0.7871 -0.4967
  865MOL0     C16693   1.266   6.156   9.334  0.1217  0.0042 -0.1760
  865MOL0     C16694   1.276   6.029   9.289  0.2703 -0.0219 -0.0781
  865MOL0     C16695   1.183   5.652   9.070 -0.2885 -0.8198  0.7512
  865MOL0     C16696   1.090   5.545   9.103  0.2646 -0.2563  0.7577
  865MOL0     C16697   1.069   5.434   9.020  0.1058 -0.2168  1.2501
  865MOL0     C16698   1.143   5.418   8.908 -0.1744  0.3866  0.2104
  865MOL0     O16699   1.123   5.295   8.843  0.0075 -0.4618  0.7861
  865MOL0     C16700   1.158   5.300   8.695 -0.2174  0.7301 -0.1865
  865MOL0     C16701   1.107   5.174   8.615 -0.7419  0.7455 -1.0969
  865MOL0     C16702   1.118   5.215   8.467  0.3918 -0.3118  0.6114
  865MOL0     C16703   1.062   5.083   8.402  0.5774  0.1365  0.2338
  865MOL0     C16704   1.028   5.125   8.263  0.2020 -0.0157 -0.0215
  865MOL0     C16705   0.997   5.165   8.149 -0.1049 -0.2315 -0.0657
  865MOL0     C16706   1.226   5.530   8.863  0.6352  0.6286  0.6376
  865MOL0     C16707   1.241   5.648   8.940  0.0072  0.1488 -0.4599
  865MOL0     H16708   1.266   6.091   8.960  2.5238  1.4430  0.7637
  865MOL0     H16709   1.253   6.328   9.051  1.0850  1.3182  1.9955
  865MOL0     H16710   1.432   6.404   9.408  1.3104 -1.4221 -1.4854
  865MOL0     H16711   1.435   6.442   9.224 -0.6662  3.6601 -1.8608
  865MOL0     H16712   1.318   6.619   9.448 -0.7546 -0.1111  0.4194
  865MOL0     H16713   1.467   6.655   9.363 -0.3305  1.8883 -4.1858
  865MOL0     H16714   1.364   6.680   9.153 -2.5935  0.5994 -3.0722
  865MOL0     H16715   1.199   6.662   9.216  0.5359  2.6189  1.3795
  865MOL0     H16716   1.199   6.866   9.328 -0.9934 -0.3865  0.8828
  865MOL0     H16717   1.371   6.875   9.365 -0.4400  1.1714 -0.4845
  865MOL0     H16718   1.417   6.948   9.140  0.4859 -1.9504 -1.2404
  865MOL0     H16719   1.250   6.896   9.092 -0.9763  2.0888  0.9304
  865MOL0     H16720   1.237   7.128   9.106  1.3936 -0.0514  0.9793
  865MOL0     H16721   1.140   7.058   9.230 -0.2272  0.8549  1.0418
  865MOL0     H16722   1.245   7.250   9.312 -3.7101 -1.7475 -2.7954
  865MOL0     H16723   1.324   7.121   9.396  0.9452  1.5956  0.7085
  865MOL0     H16724   1.436   7.244   9.147  0.7917  1.1309  0.0390
  865MOL0     H16725   1.520   7.112   9.237 -0.9025 -0.7196 -1.9515
  865MOL0     H16726   1.505   7.154   9.535  2.1912 -0.4629  0.8898
  865MOL0     H16727   1.666   7.213   9.696 -2.5527  0.0052  1.5831
  865MOL0     H16728   1.804   7.290   9.612 -0.7259  0.1804 -0.5537
  865MOL0     H16729   1.719   7.500   9.693 -2.0234 -0.0379 -1.6030
  865MOL0     H16730   1.754   7.394   9.839 -2.3442 -2.6870  0.8488
  865MOL0     H16731   1.486   7.477   9.731  0.9396  2.0913 -0.3310
  865MOL0     H16732   1.579   7.515   9.890  0.9969 -3.1463  2.5503
  865MOL0     H16733   1.473   7.245   9.782 -0.8160  1.6436 -2.4486
  865MOL0     H16734   1.374   7.350   9.878  1.8841  0.4812 -0.2374
  865MOL0     H16735   1.316   7.148   9.969 -0.6572  2.3778  1.8082
  865MOL0     H16736   1.149   6.943  10.069  0.9406 -1.4158  0.1114
  865MOL0     H16737   1.101   7.000  10.239 -0.1277  1.0647 -0.2747
  865MOL0     H16738   1.099   7.100  10.087 -0.1214 -0.4886 -0.8455
  865MOL0     H16739   1.516   6.748  10.618  2.3579  1.7124  3.2001
  865MOL0     H16740   1.452   6.634  10.813  1.4892  1.4397  1.7537
  865MOL0     H16741   1.290   6.497  10.991 -0.4081 -0.8061  3.1352
  865MOL0     H16742   1.390   6.642  11.036 -0.6593  2.4282 -1.8148
  865MOL0     H16743   1.238   6.733  11.182  1.1099  0.3361 -0.8230
  865MOL0     H16744   1.143   6.583  11.154  1.4046 -2.3969 -3.0677
  865MOL0     H16745   1.324   6.622  11.363 -0.4696  0.7828  0.4405
  865MOL0     H16746   1.436   6.554  11.245 -0.7796 -0.3926 -1.1715
  865MOL0     H16747   1.176   6.404  11.285  0.0096  0.6188 -1.4637
  865MOL0     H16748   1.329   6.350  11.222  1.6987  0.1680  0.1572
  865MOL0     H16749   1.295   6.407  11.526 -2.2559  0.8295 -2.0286
  865MOL0     H16750   1.442   6.363  11.438  0.4878  1.3126 -0.4309
  865MOL0     H16751   1.330   6.197  11.574 -1.1938  1.8111  0.6447
  865MOL0     H16752   1.188   6.222  11.469  0.1376 -0.1115  1.3057
  865MOL0     H16753   1.378   6.008  11.441  2.7190 -1.0756  0.0367
  865MOL0     H16754   1.451   6.137  11.345 -0.9179  1.4590 -0.0441
  865MOL0     H16755   1.230   6.163  11.216 -1.4771  0.0956  2.0228
  865MOL0     H16756   1.168   6.032  11.317 -0.2950  3.2914  2.5848
  865MOL0     H16757   1.092   6.865  10.847  1.2348  1.2861  1.6974
  865MOL0     H16758   1.155   6.986  10.636 -1.0375 -0.6356 -1.3361
  865MOL0     H16759   1.581   7.079  10.373  2.0982 -3.5581 -2.1016
  865MOL0     H16760   1.669   7.199  10.204  0.7066 -0.7050  0.1111
  865MOL0     H16761   1.274   6.171   9.441 -1.2606  0.1640 -0.0700
  865MOL0     H16762   1.282   5.943   9.355  4.1598 -3.2580 -4.1191
  865MOL0     H16763   1.038   5.539   9.198  0.9198  1.2308  1.2464
  865MOL0     H16764   1.006   5.355   9.059 -3.6271 -0.2821 -3.9372
  865MOL0     H16765   1.112   5.391   8.657 -0.5814  1.2797  1.4838
  865MOL0     H16766   1.266   5.311   8.682 -0.5251  1.6617 -2.4468
  865MOL0     H16767   1.003   5.157   8.644 -0.2500 -0.9338 -0.2192
  865MOL0     H16768   1.173   5.092   8.642  1.8239  2.5595 -1.5011
  865MOL0     H16769   1.221   5.231   8.436  0.9094 -1.6320  1.5334
  865MOL0     H16770   1.055   5.302   8.448  1.0937 -0.0156 -0.3869
  865MOL0     H16771   0.967   5.043   8.437 -0.1355  1.6173  0.0693
  865MOL0     H16772   1.137   5.003   8.393  1.1982  0.8297 -1.0063
  865MOL0     H16773   0.969   5.210   8.056  0.5177  1.8185  0.6966
  865MOL0     H16774   1.270   5.548   8.765 -0.2646  0.8040  0.2456
  865MOL0     H16775   1.296   5.730   8.896  0.1266  0.3531  0.0566
  866MOL0     O16776  10.673   5.279   7.272 -0.0188  0.3900  0.2781
  866MOL0     C16777  10.557   5.322   7.310 -0.4947 -0.4474  0.0520
  866MOL0     O16778  10.438   5.327   7.238  0.1174  0.4964  0.1042
  866MOL0     C16779  10.446   5.325   7.099 -1.3718 -0.5421 -0.4628
  866MOL0     C16780  10.404   5.217   7.021 -0.0587 -0.0732  0.3333
  866MOL0     C16781  10.424   5.217   6.889  0.7052  0.4453  0.1309
  866MOL0     C16782  10.502   5.314   6.828 -0.4600 -0.0767  0.1864
  866MOL0     O16783  10.532   5.309   6.698  0.7541 -0.2850  0.3211
  866MOL0     C16784  10.569   5.425   6.616  0.5951 -0.6562  0.0205
  866MOL0     C16785  10.713   5.451   6.607 -0.2801 -0.4422 -0.6155
  866MOL0     C16786  10.756   5.453   6.464 -0.0410  0.1536  0.0079
  866MOL0     C16787  10.751   5.313   6.398  0.0347 -0.6709 -0.3879
  866MOL0     C16788  10.833   5.312   6.269  0.6032  0.1818 -0.2539
  866MOL0     C16789  10.761   5.395   6.154 -0.1382 -0.8135  0.4132
  866MOL0     C16790  10.732   5.302   6.030  0.3252 -0.4809  0.0870
  866MOL0     C16791  10.592   5.244   6.023  0.7852  0.8384 -0.1680
  866MOL0     N16792  10.475   5.333   6.047  0.1288 -0.3224  0.8355
  866MOL0     C16793  10.372   5.300   6.123  0.5202 -0.0292 -0.1713
  866MOL0     C16794  10.284   5.405   6.104 -0.3381 -0.0165 -0.5843
  866MOL0     C16795  10.147   5.406   6.175  0.9581 -0.5547  0.3054
  866MOL0     C16796  10.139   5.476   6.309  0.6971 -0.3782 -0.9190
  866MOL0     C16797  10.115   5.631   6.281  0.3203 -0.2932 -0.3842
  866MOL0     C16798  10.112   5.699   6.424 -0.0414  0.6720  0.1627
  866MOL0     O16799  10.208   5.646   6.518 -0.3307  0.1422 -1.0438
  866MOL0     C16800  10.195   5.685   6.643 -0.2050 -0.4041  0.1281
  866MOL0     C16801  10.289   5.753   6.711 -0.5181 -0.4433 -0.0656
  866MOL0     C16802  10.282   5.759   6.852 -0.3331  0.0259 -0.3293
  866MOL0     C16803  10.398   5.839   6.922  0.0644  0.6595  0.5319
  866MOL0     C16804  10.168   5.709   6.927 -0.1105 -0.4613 -0.0394
  866MOL0     C16805  10.146   5.720   7.068  0.4536  0.0771 -1.2389
  866MOL0     O16806  10.073   5.624   7.119  0.3733  1.0344 -0.7051
  866MOL0     C16807  10.045   5.617   7.256  0.9993  0.1803  0.0036
  866MOL0     C16808  10.079   5.501   7.319  0.1758 -0.0657  0.3905
  866MOL0     C16809  10.062   5.489   7.451 -0.0050  0.5614 -0.0594
  866MOL0     C16810  10.029   5.599   7.532 -0.1017  0.0723  0.7804
  866MOL0     O16811  10.027   5.589   7.666 -0.5929  0.0810 -0.1309
  866MOL0     C16812  10.143   5.535   7.729 -0.1457  0.0620 -0.1639
  866MOL0     C16813  10.127   5.510   7.875 -0.3477 -0.0565  0.2770
  866MOL0     C16814  10.016   5.412   7.917 -1.0096  0.7433  0.3567
  866MOL0     C16815  10.071   5.268   7.887 -0.4188 -0.5923 -0.7536
  866MOL0     C16816   9.950   5.184   7.862  0.3961 -0.4126  0.3963
  866MOL0     C16817   9.847   5.174   7.971  0.3029 -1.1621  0.4638
  866MOL0     C16818   9.739   5.065   7.952  0.4894 -1.2358 -0.1868
  866MOL0     C16819   9.650   5.083   7.830 -0.4890 -0.7426  0.2908
  866MOL0    Cl16820   9.564   5.230   7.839  0.1965 -0.0076  0.1535
  866MOL0     C16821   9.998   5.720   7.471 -0.1219 -0.7699  0.0787
  866MOL0     C16822  10.003   5.734   7.333  0.3913 -0.5407 -0.4936
  866MOL0     O16823  10.202   5.809   7.134 -1.0840 -0.6145  0.2331
  866MOL0     C16824  10.075   5.654   6.848 -0.1431 -0.3218 -0.3446
  866MOL0     C16825  10.077   5.642   6.706 -0.0009 -0.0495 -0.4415
  866MOL0     N16826  10.344   5.497   6.018  0.3302 -0.7405  0.0500
  866MOL0     N16827  10.458   5.447   5.978  0.6783 -0.1550  0.9619
  866MOL0     C16828  10.565   5.412   6.907  0.9795  0.5119 -0.9845
  866MOL0     C16829  10.526   5.425   7.037  0.5462 -0.2956 -0.9435
  866MOL0     C16830  10.555   5.405   7.434 -0.1045  0.2601  0.7302
  866MOL0     C16831  10.459   5.498   7.454 -0.1850  0.3524  1.4943
  866MOL0     C16832  10.464   5.583   7.555  0.6272  0.4223  0.3289
  866MOL0     C16833  10.566   5.576   7.657  0.1521 -0.1898 -0.0150
  866MOL0     O16834  10.563   5.671   7.766 -0.4541  0.0366  0.1460
  866MOL0     C16835  10.638   5.642   7.882 -0.0866 -0.0410 -0.0308
  866MOL0     C16836  10.550   5.589   7.985  0.7739  0.4369  0.3664
  866MOL0     C16837  10.624   5.525   8.108 -0.1024  0.4273  0.0836
  866MOL0     C16838  10.715   5.410   8.071  0.1682  0.4237  0.2018
  866MOL0     C16839  10.665   5.278   8.117  0.3168 -0.3098  0.3043
  866MOL0     C16840  10.632   5.176   8.169 -0.3750 -0.3989  0.3076
  866MOL0     C16841  10.660   5.473   7.641 -0.3643  0.1811 -0.5416
  866MOL0     C16842  10.658   5.389   7.530 -0.4359 -0.3782  0.6770
  866MOL0     H16843  10.345   5.144   7.075 -1.2287  0.9209  0.4455
  866MOL0     H16844  10.390   5.133   6.830 -2.5234  1.0335  0.9818
  866MOL0     H16845  10.537   5.413   6.512  2.3585  0.4666 -0.6948
  866MOL0     H16846  10.518   5.510   6.664  1.9122 -2.4993  5.4318
  866MOL0     H16847  10.734   5.553   6.639 -3.3357 -0.4614  1.9358
  866MOL0     H16848  10.761   5.379   6.674 -0.6994  0.1602  0.3529
  866MOL0     H16849  10.691   5.515   6.402 -4.3362 -2.2238  1.6958
  866MOL0     H16850  10.858   5.492   6.469  0.1308  0.2212 -2.6506
  866MOL0     H16851  10.803   5.238   6.458 -0.9892 -1.2444 -0.1846
  866MOL0     H16852  10.646   5.301   6.369  0.3208  1.0990 -2.4652
  866MOL0     H16853  10.933   5.353   6.280  1.0424 -0.7852 -0.5332
  866MOL0     H16854  10.828   5.206   6.243 -2.1382  0.5073 -1.4038
  866MOL0     H16855  10.667   5.442   6.185  0.0829 -0.4648  0.5665
  866MOL0     H16856  10.830   5.477   6.132  0.4429 -0.6744  2.5781
  866MOL0     H16857  10.741   5.362   5.938  3.6747  1.1068  1.2725
  866MOL0     H16858  10.816   5.233   6.018  1.8752  0.7941  2.6141
  866MOL0     H16859  10.578   5.162   6.095 -3.8410 -0.3856 -2.0837
  866MOL0     H16860  10.586   5.203   5.922 -3.6298 -1.1124  0.6348
  866MOL0     H16861  10.352   5.214   6.187 -1.8700  1.7551  1.6793
  866MOL0     H16862  10.082   5.456   6.102  0.4475 -1.4941  0.1007
  866MOL0     H16863  10.109   5.304   6.190 -1.3452  0.6577  4.2569
  866MOL0     H16864  10.233   5.462   6.363 -1.5103 -3.3405  2.6429
  866MOL0     H16865  10.061   5.442   6.377  1.1999  0.8180  0.3062
  866MOL0     H16866  10.021   5.659   6.233 -0.8631 -0.8310  1.5058
  866MOL0     H16867  10.204   5.673   6.233 -0.7102  0.6114 -1.5650
  866MOL0     H16868  10.010   5.688   6.462  0.0455  1.2525  0.5743
  866MOL0     H16869  10.134   5.805   6.411  2.7805  0.5142  2.7222
  866MOL0     H16870  10.362   5.804   6.649  2.0254 -2.0117  1.5003
  866MOL0     H16871  10.452   5.896   6.847 -1.3666  0.3268 -0.7934
  866MOL0     H16872  10.369   5.906   7.004 -2.2904 -0.1773  0.4668
  866MOL0     H16873  10.461   5.762   6.968 -2.1257 -2.0698 -0.7354
  866MOL0     H16874  10.112   5.410   7.270 -1.5570 -2.0648  2.6708
  866MOL0     H16875  10.062   5.390   7.495 -2.7668  1.4459  2.2680
  866MOL0     H16876  10.174   5.439   7.687  1.9105 -0.2191  1.8112
  866MOL0     H16877  10.224   5.607   7.719 -0.9161  1.0899  0.7280
  866MOL0     H16878  10.223   5.475   7.913  0.1466  2.1761  1.2241
  866MOL0     H16879  10.109   5.607   7.922  0.2407  1.0263 -1.5987
  866MOL0     H16880   9.930   5.442   7.856  0.4342 -0.3706 -2.3853
  866MOL0     H16881   9.982   5.422   8.021 -1.3393  1.1282  0.2137
  866MOL0     H16882  10.132   5.261   7.796  3.2295  0.4849  1.4259
  866MOL0     H16883  10.134   5.227   7.966 -0.2322 -0.5174 -0.8640
  866MOL0     H16884   9.988   5.089   7.823  1.9029  0.2986  0.0456
  866MOL0     H16885   9.902   5.234   7.777 -0.5446 -1.6456  0.1674
  866MOL0     H16886   9.902   5.162   8.065 -1.8530 -0.3589  1.8927
  866MOL0     H16887   9.792   5.266   7.991  1.0783 -0.8560  1.2542
  866MOL0     H16888   9.677   5.070   8.042  0.5224 -2.3417 -0.1002
  866MOL0     H16889   9.787   4.967   7.948  1.9766 -0.5822  0.7436
  866MOL0     H16890   9.581   4.998   7.824 -0.0683 -1.1773  1.2682
  866MOL0     H16891   9.702   5.078   7.734  4.6168 -0.8426  2.7063
  866MOL0     H16892   9.944   5.792   7.533 -2.4501 -2.9777  0.7998
  866MOL0     H16893   9.992   5.835   7.294  1.6908  0.5023  1.6663
  866MOL0     H16894   9.998   5.598   6.900  2.2171 -0.6197  3.2029
  866MOL0     H16895  10.004   5.584   6.650  1.8463 -0.7886 -2.2293
  866MOL0     H16896  10.644   5.476   6.869 -0.4773  2.1410 -1.3965
  866MOL0     H16897  10.590   5.488   7.098  2.7194 -2.0054 -1.3106
  866MOL0     H16898  10.387   5.517   7.376  0.1509  1.4934  1.4491
  866MOL0     H16899  10.389   5.661   7.561  1.2923  1.1640 -0.7170
  866MOL0     H16900  10.733   5.591   7.864  0.6191  1.2875 -0.1775
  866MOL0     H16901  10.665   5.737   7.929  1.3157  0.4217 -1.6558
  866MOL0     H16902  10.478   5.514   7.950  1.4800  1.2098 -3.0793
  866MOL0     H16903  10.480   5.668   8.015 -3.1767 -2.7955  0.6601
  866MOL0     H16904  10.551   5.489   8.181  2.7130 -1.1603  2.3920
  866MOL0     H16905  10.678   5.605   8.161 -0.0089  0.1789  0.3702
  866MOL0     H16906  10.818   5.434   8.097  0.0649  0.4303  0.6020
  866MOL0     H16907  10.711   5.399   7.962 -1.2835 -1.0992  0.3690
  866MOL0     H16908  10.594   5.084   8.208 -0.1044 -1.3841 -1.6104
  866MOL0     H16909  10.737   5.449   7.714 -0.7365  0.4453 -0.0532
  866MOL0     H16910  10.723   5.303   7.516 -1.0468 -0.9203  1.0932
  867MOL0     O16911   3.386   3.852   7.864  0.8774 -0.2201 -0.2275
  867MOL0     C16912   3.429   3.954   7.913 -0.5940  0.0794  1.2619
  867MOL0     O16913   3.411   4.082   7.869 -0.0274  0.8285 -0.2994
  867MOL0     C16914   3.329   4.109   7.766 -0.0330 -0.8194  0.3089
  867MOL0     C16915   3.299   4.024   7.653  0.4102 -0.0739 -0.0154
  867MOL0     C16916   3.213   4.059   7.550  0.4263 -1.0063 -0.1425
  867MOL0     C16917   3.170   4.197   7.550 -0.5574  0.5418  0.0064
  867MOL0     O16918   3.078   4.238   7.460 -0.8504  0.2272  0.4017
  867MOL0     C16919   2.943   4.199   7.485 -0.3803  0.0208 -0.1341
  867MOL0     C16920   2.858   4.215   7.360 -0.2513  0.2406 -0.6670
  867MOL0     C16921   2.839   4.355   7.309 -0.1531 -0.2013  0.0167
  867MOL0     C16922   2.784   4.338   7.168 -0.3850 -0.4318 -0.3668
  867MOL0     C16923   2.756   4.473   7.101  0.4968  0.4770 -0.2763
  867MOL0     C16924   2.711   4.453   6.955 -0.0705 -0.6599  0.3469
  867MOL0     C16925   2.716   4.578   6.859 -0.1698  0.0220  0.0016
  867MOL0     C16926   2.643   4.536   6.724 -0.6177  0.0981 -0.6935
  867MOL0     N16927   2.648   4.653   6.637 -0.4558  0.2433 -0.0193
  867MOL0     C16928   2.754   4.719   6.578  0.5578  0.6725  0.3636
  867MOL0     C16929   2.706   4.795   6.480 -0.7991 -0.2494  0.7174
  867MOL0     C16930   2.795   4.846   6.369  0.4893 -0.3520 -0.1308
  867MOL0     C16931   2.839   4.989   6.414 -0.8677 -0.4413  0.1135
  867MOL0     C16932   2.739   5.098   6.381 -0.2567 -0.8004  0.5639
  867MOL0     C16933   2.786   5.247   6.400 -0.4637 -0.5964  0.7936
  867MOL0     O16934   2.860   5.264   6.521  0.1650 -0.6794 -0.2146
  867MOL0     C16935   2.989   5.309   6.532 -0.2939  0.4146 -0.6475
  867MOL0     C16936   3.078   5.329   6.426 -0.2255  0.2608 -0.5172
  867MOL0     C16937   3.208   5.375   6.453 -0.3867 -0.2129 -1.4834
  867MOL0     C16938   3.305   5.382   6.336  0.3419 -0.5345  0.3914
  867MOL0     C16939   3.241   5.415   6.582 -0.7202  0.4153  0.3940
  867MOL0     C16940   3.374   5.474   6.628 -0.0784 -0.1900  1.1935
  867MOL0     O16941   3.367   5.569   6.720  0.4758 -0.0297  0.3842
  867MOL0     C16942   3.464   5.648   6.769  0.0051 -0.8432 -0.3903
  867MOL0     C16943   3.594   5.619   6.768  0.5367 -0.9128 -0.0711
  867MOL0     C16944   3.694   5.716   6.787  0.0973 -0.1362 -0.1492
  867MOL0     C16945   3.661   5.842   6.831 -0.4424  1.2042 -0.4151
  867MOL0     O16946   3.748   5.946   6.854 -0.1155 -0.6486 -0.4945
  867MOL0     C16947   3.848   5.972   6.749 -0.1424  0.3653 -0.4538
  867MOL0     C16948   3.992   5.931   6.778 -0.8851  0.0645 -0.2942
  867MOL0     C16949   4.095   6.006   6.698  0.9490  0.6836  0.7251
  867MOL0     C16950   4.225   5.942   6.716 -0.1336 -0.5158  0.0814
  867MOL0     C16951   4.341   6.035   6.662  0.3411  0.9648 -0.6625
  867MOL0     C16952   4.453   6.061   6.768 -0.3692  0.4621 -0.4864
  867MOL0     C16953   4.402   6.167   6.866  0.3606 -0.0025  0.3074
  867MOL0     C16954   4.508   6.235   6.955  0.0174  0.4358  0.8308
  867MOL0    Cl16955   4.643   6.126   7.027 -0.0920 -0.3119  0.5892
  867MOL0     C16956   3.531   5.870   6.859 -0.1068  0.4659 -0.5142
  867MOL0     C16957   3.427   5.775   6.827 -0.3304  1.0329  0.0316
  867MOL0     O16958   3.476   5.439   6.571  1.0174  1.6350  0.0719
  867MOL0     C16959   3.140   5.412   6.682  0.4559 -0.1303  0.5146
  867MOL0     C16960   3.022   5.344   6.664 -0.4712 -0.1237  0.1273
  867MOL0     N16961   2.573   4.797   6.480 -0.6765 -0.2193  0.1477
  867MOL0     N16962   2.534   4.704   6.570 -0.1801  0.0902  0.2559
  867MOL0     C16963   3.197   4.283   7.657  0.2359 -0.5270 -0.7535
  867MOL0     C16964   3.281   4.243   7.764  0.5825 -0.3469  0.2295
  867MOL0     C16965   3.489   3.952   8.045  0.2708  0.1885 -0.2589
  867MOL0     C16966   3.572   4.049   8.094 -0.0278 -0.0795 -0.4002
  867MOL0     C16967   3.623   4.039   8.223 -0.9389 -0.9284 -0.4162
  867MOL0     C16968   3.597   3.937   8.315 -0.5806  0.7619 -0.0556
  867MOL0     O16969   3.642   3.932   8.443  0.1284 -0.3884  0.2419
  867MOL0     C16970   3.636   3.802   8.511  0.6015 -0.0761  0.0755
  867MOL0     C16971   3.728   3.814   8.635  0.0575 -0.0217  0.1964
  867MOL0     C16972   3.720   3.696   8.732 -0.3520 -0.2276  1.0255
  867MOL0     C16973   3.841   3.703   8.834  0.9273 -0.1767 -0.4282
  867MOL0     C16974   3.980   3.667   8.781  0.4729 -0.1254 -0.0424
  867MOL0     C16975   4.086   3.637   8.731  0.1523 -0.4823  0.6223
  867MOL0     C16976   3.509   3.841   8.260 -0.1618  0.7531 -0.1875
  867MOL0     C16977   3.454   3.846   8.131  0.7342 -0.1074  0.8739
  867MOL0     H16978   3.314   3.916   7.652  0.0456 -0.1355 -1.9077
  867MOL0     H16979   3.192   3.995   7.464  2.5243 -0.7896 -0.8633
  867MOL0     H16980   2.929   4.092   7.506 -0.4797 -0.0175 -0.3933
  867MOL0     H16981   2.902   4.258   7.568  1.2539 -2.0551  2.3223
  867MOL0     H16982   2.882   4.146   7.279 -2.8298  1.5196 -2.6858
  867MOL0     H16983   2.758   4.176   7.381  0.4919 -0.8610  1.0090
  867MOL0     H16984   2.768   4.412   7.370 -0.3954 -0.3996 -0.0764
  867MOL0     H16985   2.938   4.401   7.317 -0.9950  1.4823  1.4170
  867MOL0     H16986   2.864   4.286   7.114 -0.5791 -1.5494  0.3911
  867MOL0     H16987   2.695   4.275   7.162 -0.5719 -0.1535 -0.5620
  867MOL0     H16988   2.680   4.524   7.161  1.2905  2.4828 -0.8743
  867MOL0     H16989   2.851   4.526   7.116  1.5934 -1.2774 -0.6825
  867MOL0     H16990   2.769   4.370   6.914  0.0264  0.3479 -1.6540
  867MOL0     H16991   2.607   4.421   6.959 -0.3546  0.1105  4.8021
  867MOL0     H16992   2.663   4.668   6.892 -2.6625 -1.5650  0.6160
  867MOL0     H16993   2.822   4.597   6.839 -0.5195  0.2671 -1.7948
  867MOL0     H16994   2.539   4.518   6.750 -1.1899  3.7588  0.0891
  867MOL0     H16995   2.692   4.455   6.670  1.6909  0.0009  1.3392
  867MOL0     H16996   2.858   4.698   6.600  0.5212  0.4993  0.3784
  867MOL0     H16997   2.880   4.786   6.336  2.7081  3.0041 -1.0384
  867MOL0     H16998   2.734   4.860   6.279  0.4500 -0.5440 -0.1334
  867MOL0     H16999   2.932   5.002   6.357 -1.2170  2.0088  0.0090
  867MOL0     H17000   2.877   4.994   6.516  1.9384  1.5915 -0.8997
  867MOL0     H17001   2.670   5.096   6.466  1.4041  2.1985  2.1549
  867MOL0     H17002   2.701   5.080   6.280 -0.0343 -1.6381  0.6215
  867MOL0     H17003   2.710   5.325   6.387  1.9533  1.5378 -2.0435
  867MOL0     H17004   2.847   5.285   6.318 -0.4758 -1.2175  0.4968
  867MOL0     H17005   3.043   5.319   6.324 -1.2113  0.2650 -0.1890
  867MOL0     H17006   3.258   5.376   6.237 -1.0101  1.4171  0.8617
  867MOL0     H17007   3.348   5.482   6.343  3.2291 -1.5910 -0.7334
  867MOL0     H17008   3.389   5.312   6.349  2.2603  1.0767 -2.3394
  867MOL0     H17009   3.622   5.519   6.737  2.1057 -1.4574  2.7000
  867MOL0     H17010   3.799   5.696   6.767  0.5102  0.7346  1.0449
  867MOL0     H17011   3.814   5.932   6.653  1.9090 -0.0388 -1.0606
  867MOL0     H17012   3.862   6.079   6.736 -0.5383  0.5747  0.6744
  867MOL0     H17013   4.009   5.951   6.884 -4.7336 -2.0368  0.9295
  867MOL0     H17014   4.003   5.823   6.761 -0.4256  0.2092 -0.9534
  867MOL0     H17015   4.105   6.105   6.744  0.4125  0.9682  0.2449
  867MOL0     H17016   4.064   6.000   6.593 -0.9400  1.4047  1.2021
  867MOL0     H17017   4.249   5.930   6.821  0.1136  1.9986  0.3658
  867MOL0     H17018   4.229   5.849   6.658  0.1216  0.7605 -2.0520
  867MOL0     H17019   4.304   6.129   6.621 -0.3559  0.7346 -0.5847
  867MOL0     H17020   4.382   5.977   6.579 -2.8042 -0.3060 -1.4763
  867MOL0     H17021   4.476   5.969   6.822 -2.5843 -0.2576 -0.6603
  867MOL0     H17022   4.544   6.096   6.718  1.0615 -1.7248  0.4048
  867MOL0     H17023   4.332   6.121   6.937 -1.8007  1.6433 -0.6638
  867MOL0     H17024   4.348   6.248   6.818 -2.2474 -1.1890  1.0894
  867MOL0     H17025   4.458   6.285   7.039  2.3111  3.0238  0.7625
  867MOL0     H17026   4.560   6.313   6.900 -1.8756  0.7280 -0.6496
  867MOL0     H17027   3.499   5.965   6.902 -0.5368 -0.2427  0.7832
  867MOL0     H17028   3.323   5.805   6.823 -0.5678  0.3831  1.0561
  867MOL0     H17029   3.149   5.470   6.774 -1.3220  0.3892  0.3885
  867MOL0     H17030   2.940   5.368   6.732 -0.6733  4.0078 -1.3020
  867MOL0     H17031   3.163   4.386   7.665  4.1959  0.8278  3.8636
  867MOL0     H17032   3.304   4.310   7.846  1.7682 -0.2986 -0.1296
  867MOL0     H17033   3.587   4.138   8.033  0.6079 -0.7364 -1.2433
  867MOL0     H17034   3.689   4.117   8.261 -1.1938 -0.0408 -1.7090
  867MOL0     H17035   3.531   3.791   8.538 -0.1249  2.4327 -1.4825
  867MOL0     H17036   3.664   3.730   8.434 -1.9969  0.5272 -1.5416
  867MOL0     H17037   3.707   3.905   8.691  0.8419 -0.0377  0.5379
  867MOL0     H17038   3.835   3.823   8.611  0.2271  0.4261  1.0883
  867MOL0     H17039   3.715   3.602   8.676  0.0428  0.2474  0.1710
  867MOL0     H17040   3.624   3.711   8.781 -2.0387  0.9650 -2.3363
  867MOL0     H17041   3.829   3.638   8.922 -0.5790  0.0423 -0.4547
  867MOL0     H17042   3.842   3.798   8.888  0.3615  0.2449 -1.1429
  867MOL0     H17043   4.177   3.620   8.676 -1.0578 -1.0009 -1.3396
  867MOL0     H17044   3.470   3.753   8.310 -0.9377  0.8981 -0.5181
  867MOL0     H17045   3.391   3.764   8.097  1.1173  0.1609 -0.5660
  868MOL0     O17046   6.411  10.699   6.535 -0.8301 -0.0028 -0.4064
  868MOL0     C17047   6.386  10.806   6.594 -0.8333 -0.4017  0.8622
  868MOL0     O17048   6.285  10.831   6.675 -0.5544 -0.0507  0.4403
  868MOL0     C17049   6.197  10.728   6.692 -0.9334  0.9279 -0.2080
  868MOL0     C17050   6.219  10.630   6.789 -0.4395  0.1930  0.5554
  868MOL0     C17051   6.128  10.530   6.823  0.5563  1.1920  1.4316
  868MOL0     C17052   6.009  10.519   6.757  0.1694  0.5782  0.8840
  868MOL0     O17053   5.929  10.409   6.786  0.1079  0.2777  0.3111
  868MOL0     C17054   5.789  10.442   6.805  0.0649  0.8992 -0.0091
  868MOL0     C17055   5.732  10.440   6.952  0.3029 -0.4613 -0.0959
  868MOL0     C17056   5.793  10.336   7.049  0.4574 -0.7979 -0.1755
  868MOL0     C17057   5.698  10.215   7.057  0.1203  0.2317  0.9457
  868MOL0     C17058   5.773  10.117   7.142  0.9360 -0.7284  0.8580
  868MOL0     C17059   5.673   9.998   7.184 -0.1651 -0.0097 -0.4135
  868MOL0     C17060   5.752   9.884   7.246  0.1678 -0.7018  0.1609
  868MOL0     C17061   5.673   9.775   7.309 -0.8856  0.2866 -0.2533
  868MOL0     N17062   5.600   9.808   7.428 -0.0602 -0.4475 -0.2159
  868MOL0     C17063   5.640   9.830   7.560 -1.3937 -0.1560 -0.0574
  868MOL0     C17064   5.534   9.869   7.640 -0.0136  0.2333  0.5816
  868MOL0     C17065   5.542   9.927   7.770 -0.9532 -0.1681 -0.6720
  868MOL0     C17066   5.461  10.051   7.780  1.2401 -0.4190 -0.2565
  868MOL0     C17067   5.545  10.141   7.880 -0.0913  0.2812  0.6693
  868MOL0     C17068   5.551  10.078   8.024 -0.7012 -0.9405  0.2549
  868MOL0     O17069   5.654  10.143   8.093 -0.6885  0.0152  0.2455
  868MOL0     C17070   5.680  10.097   8.225  0.2150 -0.4178  0.4947
  868MOL0     C17071   5.813  10.111   8.266 -0.4198  0.0271  0.5803
  868MOL0     C17072   5.863  10.077   8.387 -0.4284 -0.4698 -0.2665
  868MOL0     C17073   6.019  10.089   8.395 -0.6980  0.3355 -0.3819
  868MOL0     C17074   5.777  10.038   8.487  0.0484  0.9295 -0.5051
  868MOL0     C17075   5.814  10.016   8.633  0.6998  0.5681 -0.1612
  868MOL0     O17076   5.741   9.925   8.699 -0.1331 -0.2644 -0.7974
  868MOL0     C17077   5.769   9.887   8.834  0.1041  0.2293 -0.2362
  868MOL0     C17078   5.784   9.984   8.937  0.0460  0.1001  0.2682
  868MOL0     C17079   5.815   9.956   9.066 -0.8641  0.2477  0.1328
  868MOL0     C17080   5.816   9.818   9.098 -0.6309 -1.3067 -0.5595
  868MOL0     O17081   5.850   9.768   9.211 -0.4121 -0.0551 -0.2816
  868MOL0     C17082   5.966   9.832   9.284  0.1397 -0.1325 -0.3001
  868MOL0     C17083   6.092   9.750   9.288 -0.1587  0.9056  0.0022
  868MOL0     C17084   6.133   9.701   9.152 -0.3834  0.9033 -1.2316
  868MOL0     C17085   6.273   9.633   9.156 -0.3520 -0.6221  0.3023
  868MOL0     C17086   6.328   9.609   9.015  0.1345 -0.1068 -0.5130
  868MOL0     C17087   6.234   9.543   8.911  0.5078  0.1814  0.6522
  868MOL0     C17088   6.140   9.629   8.825 -0.2591  0.2698  0.6145
  868MOL0     C17089   6.068   9.551   8.717  0.6501 -0.7919 -0.5605
  868MOL0    Cl17090   5.962   9.436   8.797  0.3082 -0.4590  0.5320
  868MOL0     C17091   5.793   9.721   9.004  0.1127  0.2680  0.4795
  868MOL0     C17092   5.775   9.748   8.865 -0.1313 -0.5221  0.0757
  868MOL0     O17093   5.903  10.079   8.690 -0.6847  0.2696 -0.3525
  868MOL0     C17094   5.640  10.029   8.451  0.0150 -0.3486  0.7611
  868MOL0     C17095   5.592  10.057   8.323  0.2849 -0.1253  0.0980
  868MOL0     N17096   5.426   9.855   7.554  0.8832  0.1615  0.4800
  868MOL0     N17097   5.462   9.820   7.432 -0.0701 -0.0895 -0.1695
  868MOL0     C17098   5.978  10.623   6.667 -0.4888 -0.3637 -0.0645
  868MOL0     C17099   6.074  10.727   6.634 -1.2589 -0.6490 -0.5431
  868MOL0     C17100   6.501  10.908   6.592  0.3972 -0.7058  0.7263
  868MOL0     C17101   6.510  11.009   6.687 -0.4882 -0.9707  0.5361
  868MOL0     C17102   6.623  11.101   6.681  0.6964  0.1544 -0.4073
  868MOL0     C17103   6.715  11.095   6.581  0.1470  0.1822  0.4107
  868MOL0     O17104   6.824  11.175   6.577  0.2141 -0.4548  0.0718
  868MOL0     C17105   6.854  11.238   6.455  0.3127  0.0269  0.2874
  868MOL0     C17106   6.795  11.375   6.420  0.4237 -0.2807 -0.8506
  868MOL0     C17107   6.659  11.360   6.365 -0.9430  0.6617 -0.0329
  868MOL0     C17108   6.603  11.481   6.300 -0.9431  0.4237  0.8457
  868MOL0     C17109   6.469  11.457   6.242  0.1328 -0.4201 -0.8310
  868MOL0     C17110   6.359  11.449   6.200 -0.3499 -0.0521 -0.1306
  868MOL0     C17111   6.713  10.985   6.496 -0.2056  0.7380  0.0205
  868MOL0     C17112   6.605  10.899   6.504 -0.1224  0.1162 -0.0043
  868MOL0     H17113   6.314  10.627   6.842 -1.0253 -1.0833  1.5996
  868MOL0     H17114   6.158  10.453   6.893 -1.9345 -0.7741  0.5042
  868MOL0     H17115   5.750  10.519   6.739 -2.2360  0.4261  0.7045
  868MOL0     H17116   5.742  10.351   6.767 -0.2241  1.6129 -1.4024
  868MOL0     H17117   5.742  10.543   6.987  4.4639 -0.8223  0.3614
  868MOL0     H17118   5.625  10.423   6.946  0.3460 -0.3041 -2.0490
  868MOL0     H17119   5.894  10.310   7.014  1.4456  3.0954 -0.6763
  868MOL0     H17120   5.795  10.385   7.146 -0.6036  1.3205 -1.1796
  868MOL0     H17121   5.595  10.230   7.092 -1.5422 -0.6107 -3.0405
  868MOL0     H17122   5.689  10.172   6.957  0.4730 -1.5965  1.6579
  868MOL0     H17123   5.856  10.073   7.087 -0.0272 -1.9037  0.3097
  868MOL0     H17124   5.800  10.167   7.235 -3.3541  3.8609  0.0800
  868MOL0     H17125   5.603  10.035   7.259  1.0374 -3.1803  2.5481
  868MOL0     H17126   5.614   9.966   7.097 -1.0957 -0.3322  0.3189
  868MOL0     H17127   5.815   9.833   7.171  1.3008 -0.3407  0.8412
  868MOL0     H17128   5.811   9.933   7.323  0.5167  2.8564 -2.1460
  868MOL0     H17129   5.746   9.693   7.320 -0.3915  1.0703  3.7557
  868MOL0     H17130   5.599   9.740   7.237  0.9543 -1.9764 -1.2243
  868MOL0     H17131   5.745   9.824   7.588 -0.7859  3.4762 -1.0739
  868MOL0     H17132   5.520   9.850   7.844 -0.8977 -1.1785 -1.6804
  868MOL0     H17133   5.651   9.941   7.769 -0.7528 -1.5414 -0.0506
  868MOL0     H17134   5.367  10.012   7.820  1.6763  0.5849  1.9210
  868MOL0     H17135   5.450  10.098   7.682  4.3977  0.4098 -0.3373
  868MOL0     H17136   5.503  10.241   7.874 -1.0298  0.0925  3.0563
  868MOL0     H17137   5.647  10.150   7.842 -0.0653 -1.1823  0.3064
  868MOL0     H17138   5.580   9.972   8.023 -1.7343 -1.3038  2.6266
  868MOL0     H17139   5.458  10.079   8.080 -1.3386 -1.2785 -0.7662
  868MOL0     H17140   5.875  10.153   8.188  1.2076 -2.1539  0.6173
  868MOL0     H17141   6.039  10.190   8.434  0.7577  0.1988 -0.7147
  868MOL0     H17142   6.060  10.014   8.463  0.2218  0.9681 -0.2264
  868MOL0     H17143   6.068  10.076   8.298  2.1234 -0.1560  1.0083
  868MOL0     H17144   5.789  10.091   8.919 -1.1393  0.5997  2.5679
  868MOL0     H17145   5.819  10.042   9.132  0.9636  0.5658 -0.3292
  868MOL0     H17146   5.984   9.934   9.250  0.9379  0.8498  2.7380
  868MOL0     H17147   5.938   9.857   9.387  0.4175  0.5254 -0.3798
  868MOL0     H17148   6.164   9.821   9.330 -1.2848  1.7455  0.5787
  868MOL0     H17149   6.083   9.660   9.351  2.0644  0.4165 -0.3236
  868MOL0     H17150   6.142   9.795   9.096  0.9637  1.2456 -0.4668
  868MOL0     H17151   6.054   9.643   9.103 -1.1182  0.6107  0.2495
  868MOL0     H17152   6.343   9.705   9.199 -1.4512  1.5945 -1.4433
  868MOL0     H17153   6.275   9.537   9.208  1.0084 -0.9946 -0.3992
  868MOL0     H17154   6.417   9.547   9.030  2.1496  2.9886  1.4084
  868MOL0     H17155   6.356   9.701   8.963 -1.9463  0.5681 -0.5622
  868MOL0     H17156   6.306   9.489   8.850  0.2312 -0.3272  0.7701
  868MOL0     H17157   6.172   9.488   8.983  2.2897 -1.8574  0.7119
  868MOL0     H17158   6.199   9.708   8.777  0.2781 -0.2123  0.4705
  868MOL0     H17159   6.064   9.683   8.884  0.3877  3.9655 -1.6163
  868MOL0     H17160   6.149   9.500   8.663 -1.1873 -3.5404 -0.9043
  868MOL0     H17161   6.013   9.617   8.649 -0.5084  0.3475  1.4051
  868MOL0     H17162   5.797   9.619   9.043 -1.1015 -0.0761 -0.2144
  868MOL0     H17163   5.769   9.669   8.791  0.9395 -0.1547 -0.4237
  868MOL0     H17164   5.574   9.996   8.530  3.0507 -4.4704  1.9027
  868MOL0     H17165   5.489  10.029   8.302 -0.0103 -0.3118  1.6467
  868MOL0     H17166   5.884  10.629   6.613 -1.1413  2.1833  1.2254
  868MOL0     H17167   6.057  10.805   6.560 -2.3402 -0.0843  0.2750
  868MOL0     H17168   6.438  11.023   6.767  0.3487 -0.8156  1.2848
  868MOL0     H17169   6.631  11.187   6.746  1.1934  1.3586 -2.0046
  868MOL0     H17170   6.962  11.257   6.451 -0.0656  3.3788  1.8382
  868MOL0     H17171   6.826  11.177   6.369 -1.7970  1.1930  0.0815
  868MOL0     H17172   6.854  11.418   6.338  1.7303 -0.1094  0.1502
  868MOL0     H17173   6.794  11.447   6.501  1.7677 -0.3042 -0.7778
  868MOL0     H17174   6.585  11.327   6.439 -1.8655 -0.0938 -1.2530
  868MOL0     H17175   6.656  11.289   6.282  0.9352  1.0546 -0.4683
  868MOL0     H17176   6.656  11.540   6.225  3.2478 -0.9324  2.4182
  868MOL0     H17177   6.601  11.549   6.386 -1.8952 -2.2475  3.0833
  868MOL0     H17178   6.264  11.436   6.152 -0.8696 -0.8120  1.0668
  868MOL0     H17179   6.800  10.966   6.434 -1.5349  2.3080 -2.5079
  868MOL0     H17180   6.619  10.806   6.449  3.0399 -1.0955  2.5403
  869MOL0     O17181   0.523   2.824   5.979  0.5623  0.0725 -0.6200
  869MOL0     C17182   0.565   2.872   5.872 -0.3638 -0.5229  0.0518
  869MOL0     O17183   0.685   2.827   5.809 -1.0160 -1.0367  0.2228
  869MOL0     C17184   0.756   2.718   5.856  0.9597  1.1813 -0.1003
  869MOL0     C17185   0.799   2.697   5.987 -0.2426  0.1547 -0.5192
  869MOL0     C17186   0.866   2.576   6.023 -0.2448  0.1398  0.5303
  869MOL0     C17187   0.893   2.474   5.933 -0.7195 -0.0496 -0.0903
  869MOL0     O17188   0.948   2.361   5.984 -0.3290  0.2468  0.5137
  869MOL0     C17189   0.942   2.249   5.897  0.5296  0.5773 -0.0493
  869MOL0     C17190   1.049   2.152   5.935 -0.3046  0.0378 -0.5892
  869MOL0     C17191   1.054   2.025   5.865 -0.5379  0.7361  0.5764
  869MOL0     C17192   1.150   1.933   5.937 -1.3417 -0.4201 -1.1795
  869MOL0     C17193   1.187   1.801   5.870  1.1046  0.3236  0.1623
  869MOL0     C17194   1.252   1.689   5.953  0.4277  0.0637  0.2341
  869MOL0     C17195   1.349   1.617   5.870  0.6988  0.3805 -0.7357
  869MOL0     C17196   1.419   1.507   5.951  0.8974  0.3481 -0.1575
  869MOL0     N17197   1.484   1.565   6.069 -0.2488 -0.6296  0.3405
  869MOL0     C17198   1.613   1.615   6.078  0.2838  0.2776 -0.3359
  869MOL0     C17199   1.649   1.629   6.207  0.8015  0.1146  0.6497
  869MOL0     C17200   1.760   1.704   6.256  0.4532 -0.5885  0.3324
  869MOL0     C17201   1.721   1.853   6.244  1.0346 -0.9484  0.5753
  869MOL0     C17202   1.645   1.899   6.363 -0.4117 -0.4576 -0.7416
  869MOL0     C17203   1.625   2.057   6.355 -0.0896 -0.8897 -0.1334
  869MOL0     O17204   1.506   2.076   6.441  0.0924 -0.1182 -0.8519
  869MOL0     C17205   1.505   2.066   6.584 -0.5982  1.0953 -1.4456
  869MOL0     C17206   1.623   2.039   6.658  0.2559 -0.9376  0.0699
  869MOL0     C17207   1.633   2.011   6.796 -0.6000 -0.3832 -0.4347
  869MOL0     C17208   1.775   1.977   6.851 -1.2613 -0.3531 -0.0750
  869MOL0     C17209   1.506   2.016   6.872  0.1581 -0.5354  0.2687
  869MOL0     C17210   1.495   1.975   7.016 -1.0622 -0.4388 -0.4417
  869MOL0     O17211   1.372   1.983   7.070  0.1691  0.1579 -0.0984
  869MOL0     C17212   1.348   1.953   7.207 -1.1158  0.6981  0.2186
  869MOL0     C17213   1.341   1.818   7.245 -0.3151 -0.7396 -1.0123
  869MOL0     C17214   1.312   1.789   7.378 -0.1152  0.9289  0.4451
  869MOL0     C17215   1.300   1.888   7.474  1.2437 -0.5684 -0.0238
  869MOL0     O17216   1.268   1.871   7.607  1.1286  0.5120 -0.7181
  869MOL0     C17217   1.227   1.735   7.657  0.4087 -0.4506 -0.8973
  869MOL0     C17218   1.222   1.738   7.810 -0.0890 -0.5314 -0.0641
  869MOL0     C17219   1.123   1.837   7.869  0.3152  0.4819 -0.8466
  869MOL0     C17220   1.121   1.860   8.020 -0.4340  0.2344 -1.2565
  869MOL0     C17221   0.981   1.880   8.074  0.5284  0.1277  0.8717
  869MOL0     C17222   0.968   1.925   8.219 -0.0092 -0.4175 -0.0592
  869MOL0     C17223   0.825   1.939   8.257 -0.6648  0.0721  0.0215
  869MOL0     C17224   0.818   1.962   8.406 -0.0610 -0.0019  1.0231
  869MOL0    Cl17225   0.924   2.091   8.485 -0.1525  0.3899  0.2975
  869MOL0     C17226   1.306   2.013   7.428 -0.3133  0.3840 -0.3606
  869MOL0     C17227   1.331   2.056   7.298  0.4565 -0.0845 -0.7598
  869MOL0     O17228   1.593   1.923   7.078 -0.0888 -0.5088  0.1075
  869MOL0     C17229   1.391   2.058   6.799  0.2389  0.1376 -1.2537
  869MOL0     C17230   1.385   2.075   6.658  0.3983  0.5234 -0.4009
  869MOL0     N17231   1.546   1.580   6.286  0.9099 -0.8029  0.1387
  869MOL0     N17232   1.447   1.547   6.197  0.3045  0.9720 -0.2959
  869MOL0     C17233   0.866   2.502   5.802  0.6388  0.0921  0.0556
  869MOL0     C17234   0.803   2.621   5.763 -0.1727 -0.7449  0.1102
  869MOL0     C17235   0.486   2.961   5.803 -0.0616 -0.2244  0.7822
  869MOL0     C17236   0.353   2.991   5.836 -0.6308  0.1921 -0.0136
  869MOL0     C17237   0.280   3.091   5.771 -0.0648 -0.4917 -0.1490
  869MOL0     C17238   0.334   3.158   5.668  0.1220  0.1696 -0.1178
  869MOL0     O17239   0.265   3.256   5.610  0.7873 -0.8719 -0.4015
  869MOL0     C17240   0.323   3.385   5.604  0.4980 -0.4452  0.3679
  869MOL0     C17241   0.285   3.476   5.722 -0.0320 -0.5585 -0.2799
  869MOL0     C17242   0.352   3.612   5.732  0.3144  0.0305  0.0288
  869MOL0     C17243   0.280   3.720   5.655 -0.0527 -0.2265  0.4484
  869MOL0     C17244   0.219   3.686   5.526 -0.0484 -0.5536 -0.7317
  869MOL0     C17245   0.158   3.667   5.427  0.1040 -0.6399  0.0300
  869MOL0     C17246   0.461   3.138   5.620  0.3267  0.5413 -1.1025
  869MOL0     C17247   0.538   3.031   5.689 -0.2751  0.4657  0.7526
  869MOL0     H17248   0.762   2.762   6.066 -1.0494 -2.5638  1.5101
  869MOL0     H17249   0.867   2.562   6.130 -1.1210 -2.1968  0.2796
  869MOL0     H17250   0.847   2.195   5.907  2.5919 -3.1205  1.8785
  869MOL0     H17251   0.955   2.274   5.791 -1.2127 -2.4116 -1.0987
  869MOL0     H17252   1.139   2.213   5.926  0.2508 -0.7918 -0.8413
  869MOL0     H17253   1.036   2.129   6.041  0.5739  0.7587 -0.3091
  869MOL0     H17254   0.952   1.987   5.856  0.1589 -0.7835 -1.5318
  869MOL0     H17255   1.096   2.047   5.767  0.0499 -1.5781  0.2676
  869MOL0     H17256   1.242   1.988   5.960 -2.9240  1.0657  2.3052
  869MOL0     H17257   1.119   1.915   6.040  0.7697  1.8067 -0.0372
  869MOL0     H17258   1.091   1.757   5.840  2.8809 -2.2423 -2.2426
  869MOL0     H17259   1.237   1.830   5.777 -0.0182 -2.1472 -1.3002
  869MOL0     H17260   1.311   1.737   6.030  1.5380  2.3184 -1.8756
  869MOL0     H17261   1.179   1.635   6.014  0.1513  1.0232  0.7609
  869MOL0     H17262   1.307   1.596   5.772 -3.5083  0.4465  0.8524
  869MOL0     H17263   1.425   1.695   5.853  0.9317  0.0395 -1.2762
  869MOL0     H17264   1.479   1.448   5.881 -3.2994 -1.0244 -2.9860
  869MOL0     H17265   1.349   1.432   5.986 -1.0242  0.3326 -3.5843
  869MOL0     H17266   1.670   1.649   5.992  0.0928  0.1252 -0.5235
  869MOL0     H17267   1.762   1.684   6.363 -0.8221 -0.0911  0.4702
  869MOL0     H17268   1.857   1.676   6.214  0.7582 -2.9348  2.3819
  869MOL0     H17269   1.662   1.884   6.157  0.7317  0.4663  1.2597
  869MOL0     H17270   1.815   1.909   6.246  0.4628  0.3487 -2.6827
  869MOL0     H17271   1.690   1.875   6.459 -3.7690 -1.4278  0.7232
  869MOL0     H17272   1.551   1.844   6.368 -0.2075 -0.7173  0.7268
  869MOL0     H17273   1.611   2.091   6.253 -1.5565 -2.8089 -0.6269
  869MOL0     H17274   1.704   2.119   6.399 -2.3167  3.0232 -1.2460
  869MOL0     H17275   1.716   2.043   6.603  0.5815 -2.9490  0.3961
  869MOL0     H17276   1.858   1.993   6.782 -0.6398  0.1242  0.7651
  869MOL0     H17277   1.810   2.040   6.933  0.9555 -4.1453  2.1837
  869MOL0     H17278   1.770   1.871   6.877  1.3617 -0.0760  1.9537
  869MOL0     H17279   1.356   1.732   7.181 -3.5329 -3.8210  1.9252
  869MOL0     H17280   1.284   1.690   7.413 -3.2854  1.9178  1.0515
  869MOL0     H17281   1.133   1.700   7.612  1.0710 -4.0467  0.2364
  869MOL0     H17282   1.300   1.661   7.624  1.5650 -0.2724  1.1256
  869MOL0     H17283   1.181   1.641   7.841 -3.2087  0.1433 -1.6309
  869MOL0     H17284   1.322   1.760   7.848  0.4002 -2.6004  0.0012
  869MOL0     H17285   1.022   1.808   7.839 -0.0892 -0.2841  1.1113
  869MOL0     H17286   1.152   1.936   7.834 -0.1430  0.6925 -0.6325
  869MOL0     H17287   1.156   1.770   8.073  0.6966  2.5309  2.2165
  869MOL0     H17288   1.184   1.940   8.060 -3.7309  1.6234  1.6261
  869MOL0     H17289   0.934   1.781   8.072  3.1218 -1.2546  2.8493
  869MOL0     H17290   0.938   1.957   8.009 -3.8891 -3.3802 -1.0044
  869MOL0     H17291   1.021   1.851   8.279 -1.3269 -1.4849 -0.1815
  869MOL0     H17292   1.010   2.026   8.219 -3.5833  1.2211  0.5544
  869MOL0     H17293   0.780   1.844   8.225  4.2883 -2.3828 -0.5852
  869MOL0     H17294   0.776   2.011   8.191  0.9424 -1.9453 -3.6681
  869MOL0     H17295   0.853   1.873   8.459  0.5117  0.7340  1.8941
  869MOL0     H17296   0.714   1.982   8.436  0.3949  4.7622  0.1148
  869MOL0     H17297   1.281   2.088   7.503 -0.2202  1.4432 -1.3615
  869MOL0     H17298   1.329   2.158   7.262  2.6337  0.1559 -0.3276
  869MOL0     H17299   1.294   2.059   6.847  0.6776  0.9470 -0.3362
  869MOL0     H17300   1.290   2.078   6.606 -0.0089 -3.7156 -0.3136
  869MOL0     H17301   0.884   2.440   5.715  0.3054  0.7116 -0.4573
  869MOL0     H17302   0.772   2.621   5.659  0.4925 -1.8321 -0.1054
  869MOL0     H17303   0.298   2.930   5.907 -0.6009  1.4899  1.1723
  869MOL0     H17304   0.184   3.121   5.812 -0.4733  0.7099 -1.8715
  869MOL0     H17305   0.432   3.379   5.605  0.5596  0.3781  2.2650
  869MOL0     H17306   0.294   3.440   5.513  2.2898  0.7055  0.4221
  869MOL0     H17307   0.305   3.425   5.817  0.9073  0.6109  0.1653
  869MOL0     H17308   0.176   3.481   5.712  0.0859  0.1172 -1.2844
  869MOL0     H17309   0.456   3.614   5.697  1.6239  3.1287  3.3918
  869MOL0     H17310   0.360   3.636   5.838  0.8331  0.5679 -0.1223
  869MOL0     H17311   0.333   3.815   5.651  0.2904 -0.4090  0.6291
  869MOL0     H17312   0.192   3.735   5.719 -0.1068 -0.9783  0.5678
  869MOL0     H17313   0.088   3.647   5.349 -0.8003  3.0143 -0.2839
  869MOL0     H17314   0.484   3.193   5.530 -2.2493 -0.1151 -2.2540
  869MOL0     H17315   0.637   3.015   5.650 -1.3497 -0.2968 -1.8597
  870MOL0     O17316   8.591   2.631   6.544  0.2570  0.1131  0.3750
  870MOL0     C17317   8.668   2.598   6.626  0.1085  0.5393 -1.2104
  870MOL0     O17318   8.741   2.480   6.618 -1.2321  0.4382  0.0819
  870MOL0     C17319   8.729   2.405   6.506  0.1927 -0.3436 -0.0673
  870MOL0     C17320   8.837   2.377   6.427 -0.8493  0.0075  0.6365
  870MOL0     C17321   8.818   2.288   6.317  0.1049 -0.7995  0.0378
  870MOL0     C17322   8.684   2.250   6.280 -0.0531 -0.9018 -2.1114
  870MOL0     O17323   8.672   2.171   6.174 -0.0730 -0.5717  0.1227
  870MOL0     C17324   8.731   2.185   6.045  0.3279  0.0557  0.2103
  870MOL0     C17325   8.790   2.047   5.998  0.2796  0.7730  0.2290
  870MOL0     C17326   8.929   1.999   6.067 -0.6570  0.0757  0.3173
  870MOL0     C17327   9.047   2.080   6.005 -0.2788  0.1033 -1.0279
  870MOL0     C17328   9.174   2.078   6.096  0.1747  0.0147  0.7581
  870MOL0     C17329   9.167   2.186   6.218  0.1027  0.9478  1.0888
  870MOL0     C17330   9.301   2.207   6.281  0.5022  0.8642  1.0177
  870MOL0     C17331   9.302   2.333   6.367  0.1860  0.0269  0.0937
  870MOL0     N17332   9.438   2.385   6.391  0.7460  0.4026 -0.8113
  870MOL0     C17333   9.535   2.308   6.449  0.1260 -0.5154  0.6129
  870MOL0     C17334   9.640   2.403   6.456 -0.3628  0.2906  0.1929
  870MOL0     C17335   9.774   2.377   6.523  0.9567 -0.1205  0.0667
  870MOL0     C17336   9.889   2.374   6.425  0.2142  0.3507 -0.4752
  870MOL0     C17337   9.927   2.495   6.351  0.7765  0.3348 -0.1580
  870MOL0     C17338  10.070   2.482   6.300 -0.2330 -0.0585  0.0874
  870MOL0     O17339  10.086   2.359   6.225 -0.2902  0.1931 -0.4471
  870MOL0     C17340  10.208   2.348   6.151  0.5682  0.0676 -1.0835
  870MOL0     C17341  10.230   2.218   6.101  0.4401 -0.5658  0.8643
  870MOL0     C17342  10.351   2.189   6.022  0.3923 -0.8525  0.1905
  870MOL0     C17343  10.381   2.043   5.968  1.0294 -0.7149  0.0946
  870MOL0     C17344  10.447   2.291   6.000  0.1454  0.3592  0.2491
  870MOL0     C17345  10.572   2.271   5.922 -0.3042 -0.7570  0.5121
  870MOL0     O17346  10.586   2.347   5.807 -0.4808  0.1269  0.0518
  870MOL0     C17347  10.687   2.325   5.713  1.1243  0.1729 -0.2210
  870MOL0     C17348  10.789   2.219   5.711  0.6055 -0.0906  1.2362
  870MOL0     C17349  10.894   2.227   5.614  0.4661  0.2934 -0.2101
  870MOL0     C17350  10.898   2.333   5.519 -0.0269  1.1820 -0.1299
  870MOL0     O17351  11.000   2.338   5.424  0.1753  0.0304 -0.3995
  870MOL0     C17352  11.019   2.213   5.358 -0.3140  0.3795  0.2584
  870MOL0     C17353  10.960   2.202   5.212 -0.4821  0.2295  0.8755
  870MOL0     C17354  10.810   2.201   5.225 -0.8229 -0.5465 -0.3925
  870MOL0     C17355  10.743   2.206   5.086  0.8053  0.0756  0.1668
  870MOL0     C17356  10.711   2.078   5.000  0.0833  0.0135  0.0784
  870MOL0     C17357  10.639   1.974   5.081  0.4382 -0.3279  0.4236
  870MOL0     C17358  10.634   1.840   5.001  0.0551 -0.7148 -0.3915
  870MOL0     C17359  10.538   1.735   5.063 -1.0267  0.4972 -0.6817
  870MOL0    Cl17360  10.591   1.679   5.232 -0.3556  0.3493  0.4934
  870MOL0     C17361  10.792   2.424   5.513  0.2484 -0.4599  0.3827
  870MOL0     C17362  10.687   2.419   5.615  0.2361  1.1531  0.0032
  870MOL0     O17363  10.656   2.193   5.966 -0.3001  0.4408 -0.7830
  870MOL0     C17364  10.418   2.422   6.043 -0.3003 -0.4531  0.0929
  870MOL0     C17365  10.294   2.453   6.117 -0.4142 -0.5222 -0.8555
  870MOL0     N17366   9.599   2.514   6.388  0.1684 -0.0072  0.2590
  870MOL0     N17367   9.478   2.506   6.355  0.0499 -0.3031 -0.2110
  870MOL0     C17368   8.578   2.282   6.363  0.6441 -0.3760 -0.0052
  870MOL0     C17369   8.600   2.356   6.476 -0.0550 -0.4453  0.4467
  870MOL0     C17370   8.700   2.701   6.736  0.8254  0.6675  2.0468
  870MOL0     C17371   8.602   2.804   6.747  0.1787 -0.4555  0.3465
  870MOL0     C17372   8.627   2.912   6.839 -0.2970  0.1360 -0.2592
  870MOL0     C17373   8.746   2.913   6.909 -0.5707  1.2745 -0.3834
  870MOL0     O17374   8.753   2.993   7.019  1.1988  0.1817  0.1937
  870MOL0     C17375   8.798   3.122   6.983  0.1804 -0.0702 -0.5490
  870MOL0     C17376   8.955   3.113   6.993  0.0674 -0.2734 -0.5451
  870MOL0     C17377   9.013   3.257   7.008  0.2447  0.1998  1.3054
  870MOL0     C17378   9.171   3.260   7.006 -0.2198  0.6752 -0.8355
  870MOL0     C17379   9.228   3.398   7.035  0.6083  0.3624 -0.7644
  870MOL0     C17380   9.254   3.517   7.072  0.2800  0.2368  0.0401
  870MOL0     C17381   8.843   2.811   6.892 -0.5742 -0.8917 -1.0066
  870MOL0     C17382   8.824   2.704   6.805  0.5037  0.6725  0.0303
  870MOL0     H17383   8.930   2.419   6.463 -1.1518 -0.5961  2.2211
  870MOL0     H17384   8.902   2.256   6.256 -0.5707  0.2729 -1.5438
  870MOL0     H17385   8.648   2.216   5.982 -0.0534 -1.7533 -0.2288
  870MOL0     H17386   8.810   2.261   6.048  1.9255 -1.4776 -1.2871
  870MOL0     H17387   8.709   1.977   6.024  1.9090 -1.2580  0.1113
  870MOL0     H17388   8.806   2.042   5.890  1.8659  0.8662  0.4395
  870MOL0     H17389   8.926   2.023   6.174 -0.0744 -0.5186  0.4740
  870MOL0     H17390   8.952   1.892   6.058  1.7137  0.6757 -1.7062
  870MOL0     H17391   9.065   2.024   5.912  1.7365 -0.0357 -0.6140
  870MOL0     H17392   9.027   2.187   5.997 -2.8887 -0.1666  0.8257
  870MOL0     H17393   9.200   1.980   6.139 -1.8399 -0.9691 -0.1334
  870MOL0     H17394   9.252   2.110   6.026 -2.7535  1.9669 -1.8810
  870MOL0     H17395   9.139   2.279   6.168  0.5517  0.8160  0.5694
  870MOL0     H17396   9.100   2.155   6.298  0.7362 -2.1193  0.5664
  870MOL0     H17397   9.327   2.121   6.344 -3.0579 -2.9792 -2.1635
  870MOL0     H17398   9.380   2.223   6.206  2.3805 -2.0823  2.1800
  870MOL0     H17399   9.259   2.297   6.461  1.3052 -0.5971  0.3745
  870MOL0     H17400   9.242   2.417   6.331 -2.4392 -1.6133  0.3467
  870MOL0     H17401   9.512   2.213   6.496 -3.1757  0.3991  1.0246
  870MOL0     H17402   9.780   2.452   6.603  1.0547  0.5348 -0.5501
  870MOL0     H17403   9.777   2.280   6.574 -0.7492  0.1517  0.7552
  870MOL0     H17404   9.876   2.292   6.354  2.0411 -0.9480  0.5922
  870MOL0     H17405   9.968   2.341   6.493  0.0208 -2.2514 -1.3957
  870MOL0     H17406   9.923   2.578   6.422  1.1254  0.6968 -0.5506
  870MOL0     H17407   9.852   2.518   6.275 -1.3447  4.2802  2.7819
  870MOL0     H17408  10.137   2.475   6.387  0.4208 -3.2588 -0.5494
  870MOL0     H17409  10.095   2.571   6.242 -1.2488  1.1843  1.4896
  870MOL0     H17410  10.144   2.152   6.105 -1.5207  1.8340  1.0290
  870MOL0     H17411  10.461   1.987   6.018 -0.7099 -5.8526 -2.2272
  870MOL0     H17412  10.289   1.985   5.975  0.2050  0.3913 -1.2068
  870MOL0     H17413  10.409   2.056   5.863  0.6816  0.6684  0.1571
  870MOL0     H17414  10.795   2.142   5.787 -1.1353 -2.1219 -0.5194
  870MOL0     H17415  10.980   2.160   5.619 -1.1281 -2.0961 -2.3350
  870MOL0     H17416  11.127   2.209   5.339  0.1037 -1.3451  2.5587
  870MOL0     H17417  10.995   2.126   5.419 -3.0753  0.9957  0.2077
  870MOL0     H17418  10.997   2.286   5.153  0.2790 -0.0706  0.9114
  870MOL0     H17419  10.984   2.110   5.157  0.7488  2.0199 -1.7937
  870MOL0     H17420  10.790   2.297   5.274 -2.3436 -0.2859 -1.4523
  870MOL0     H17421  10.776   2.124   5.295 -2.3443  0.8117  0.4366
  870MOL0     H17422  10.643   2.247   5.102  0.0123 -1.2741 -1.0215
  870MOL0     H17423  10.801   2.268   5.017  0.9018 -1.8450 -1.5962
  870MOL0     H17424  10.806   2.040   4.963 -1.0588 -3.9460  0.7691
  870MOL0     H17425  10.661   2.111   4.908  2.3265  0.8589 -0.9127
  870MOL0     H17426  10.697   1.954   5.172  1.2703 -1.3601 -0.3117
  870MOL0     H17427  10.538   2.005   5.108 -0.0689 -1.9283  0.4516
  870MOL0     H17428  10.737   1.803   4.995  0.7880  0.3482  3.1452
  870MOL0     H17429  10.584   1.851   4.904 -2.9648 -3.9813  0.5787
  870MOL0     H17430  10.529   1.651   4.994 -3.3824  1.9926 -2.3742
  870MOL0     H17431  10.435   1.773   5.064 -0.7220  1.3961  0.9708
  870MOL0     H17432  10.804   2.501   5.438  0.6684  0.1122  1.0254
  870MOL0     H17433  10.610   2.495   5.618 -2.5258 -1.4785  2.3616
  870MOL0     H17434  10.485   2.504   6.022 -0.0270 -0.6168  0.3165
  870MOL0     H17435  10.290   2.558   6.143  0.0298 -0.3462 -1.4693
  870MOL0     H17436   8.487   2.238   6.325  1.8265 -2.2210 -0.8672
  870MOL0     H17437   8.511   2.372   6.536 -1.2250 -0.0025 -1.3198
  870MOL0     H17438   8.505   2.811   6.699 -1.2252  0.1363  3.0414
  870MOL0     H17439   8.552   2.989   6.856 -0.1576  0.7256 -2.1021
  870MOL0     H17440   8.780   3.155   6.880  1.1671  2.0024 -0.1125
  870MOL0     H17441   8.763   3.186   7.065  0.4655  2.2821 -2.1518
  870MOL0     H17442   9.003   3.063   6.908 -0.3399 -4.2741  1.3882
  870MOL0     H17443   8.982   3.063   7.086 -1.3773 -1.4384 -0.7241
  870MOL0     H17444   8.971   3.315   7.091  3.3309 -0.7948  3.7987
  870MOL0     H17445   8.992   3.302   6.910  4.8622  1.4964  0.6665
  870MOL0     H17446   9.213   3.207   6.919  0.4868  0.7635 -0.5557
  870MOL0     H17447   9.204   3.190   7.084  3.4225  2.1883 -0.7864
  870MOL0     H17448   9.262   3.622   7.091  0.2130  0.2153  0.1862
  870MOL0     H17449   8.932   2.797   6.952 -2.3929  0.8752  2.3871
  870MOL0     H17450   8.882   2.612   6.802  0.3714  0.4481  2.6249
  871MOL0     O17451   9.917  10.804   2.591 -0.1610  0.6136  0.2992
  871MOL0     C17452   9.901  10.777   2.712 -0.2258  0.3769 -0.2120
  871MOL0     O17453   9.781  10.787   2.781 -0.7556 -0.1909  0.7560
  871MOL0     C17454   9.672  10.847   2.720  0.4647  0.3469  0.3488
  871MOL0     C17455   9.676  10.988   2.681 -0.9349  0.3789  0.0345
  871MOL0     C17456   9.562  11.062   2.644 -0.9619  0.1880  0.3599
  871MOL0     C17457   9.431  11.004   2.646  0.1487  0.0969  0.7406
  871MOL0     O17458   9.320  11.084   2.643  0.0375  0.3162 -0.6585
  871MOL0     C17459   9.233  11.091   2.522  0.6160  0.0313 -0.6672
  871MOL0     C17460   9.323  11.154   2.412  0.7546 -0.2847 -0.4619
  871MOL0     C17461   9.235  11.174   2.284  0.5149  0.2346 -0.4667
  871MOL0     C17462   9.332  11.169   2.182  0.1874 -0.1156 -0.2282
  871MOL0     C17463   9.263  11.193   2.046  0.2145 -0.0980 -0.1312
  871MOL0     C17464   9.361  11.159   1.937 -0.1276 -0.0172 -0.1257
  871MOL0     C17465   9.307  11.124   1.799  0.1293  1.0664 -0.6125
  871MOL0     C17466   9.413  11.117   1.681 -0.1588  0.1024  0.7448
  871MOL0     N17467   9.515  11.018   1.702  0.1104 -1.3400  1.0575
  871MOL0     C17468   9.632  11.019   1.781  0.7918 -0.3531 -0.3885
  871MOL0     C17469   9.687  10.896   1.774 -0.1486 -0.3767  0.5069
  871MOL0     C17470   9.818  10.850   1.837  1.0754  1.4623  0.3146
  871MOL0     C17471   9.946  10.853   1.743 -0.6197  0.2927 -0.3542
  871MOL0     C17472  10.069  10.831   1.836 -0.1134  0.1401  0.5359
  871MOL0     C17473  10.206  10.870   1.757  0.6719 -1.0052  0.1189
  871MOL0     O17474  10.315  10.838   1.849 -1.1858  0.7701  0.7690
  871MOL0     C17475  10.443  10.880   1.825 -0.9698 -0.1887  0.2079
  871MOL0     C17476  10.485  10.960   1.719 -0.1414 -0.0345 -0.0760
  871MOL0     C17477  10.624  10.997   1.703  0.1994  0.2825  0.5248
  871MOL0     C17478  10.666  11.079   1.580  0.0150  0.6691  0.2138
  871MOL0     C17479  10.716  10.947   1.794  0.1204  0.0020  0.2693
  871MOL0     C17480  10.864  10.968   1.785  0.6403 -0.0673  0.3655
  871MOL0     O17481  10.923  10.920   1.889 -0.0787  0.6010  0.0533
  871MOL0     C17482  11.057  10.910   1.871 -0.1844 -0.5217 -0.6093
  871MOL0     C17483  11.150  10.988   1.951  0.6041  0.0601  0.1488
  871MOL0     C17484  11.285  10.959   1.930  0.1725 -0.2271 -0.3007
  871MOL0     C17485  11.339  10.844   1.856  1.3437 -0.1693 -0.4301
  871MOL0     O17486  11.468  10.799   1.845  0.6225  0.0371 -0.6804
  871MOL0     C17487  11.561  10.875   1.915  0.3418  0.2419  0.1131
  871MOL0     C17488  11.712  10.824   1.928 -0.2480  0.1070  0.1821
  871MOL0     C17489  11.792  10.844   2.059  0.7767 -0.2722 -0.3278
  871MOL0     C17490  11.937  10.789   2.052  0.0096 -0.2430  0.7624
  871MOL0     C17491  12.007  10.813   2.187 -1.1422 -0.0299  0.6448
  871MOL0     C17492  12.157  10.795   2.181 -0.4238 -0.0355  0.3160
  871MOL0     C17493  12.222  10.659   2.152 -0.5189  1.0876  0.2084
  871MOL0     C17494  12.181  10.550   2.245 -0.5634 -0.2211 -0.1292
  871MOL0    Cl17495  12.253  10.587   2.403  0.2764  0.3454 -0.5173
  871MOL0     C17496  11.244  10.772   1.786  0.3189  0.1820 -0.2101
  871MOL0     C17497  11.108  10.807   1.786 -0.4583 -0.4721  0.0626
  871MOL0     O17498  10.917  11.007   1.678  0.1178 -0.8393  0.1328
  871MOL0     C17499  10.674  10.861   1.897 -0.1540  0.5220  0.6760
  871MOL0     C17500  10.542  10.831   1.911  0.4682 -0.0117 -0.4133
  871MOL0     N17501   9.609  10.829   1.683 -0.0646  0.6710  0.1815
  871MOL0     N17502   9.518  10.901   1.630 -0.1040 -0.1369 -0.5039
  871MOL0     C17503   9.415  10.865   2.675  1.6581 -0.5357 -0.2772
  871MOL0     C17504   9.537  10.791   2.701 -0.7290 -0.1642 -0.1205
  871MOL0     C17505  10.028  10.759   2.795  0.7982 -0.3285 -0.3756
  871MOL0     C17506  10.155  10.735   2.743  0.7370  0.8351  0.1220
  871MOL0     C17507  10.261  10.711   2.826  0.1193  1.0870 -0.2545
  871MOL0     C17508  10.255  10.744   2.963 -0.3825  0.5547  0.1599
  871MOL0     O17509  10.357  10.739   3.050 -0.4815 -0.0549  0.3388
  871MOL0     C17510  10.485  10.669   3.037 -0.6814 -0.4394  0.0730
  871MOL0     C17511  10.579  10.709   3.154 -0.1763 -0.3300  0.5915
  871MOL0     C17512  10.663  10.832   3.129 -1.0504 -1.2742 -0.2474
  871MOL0     C17513  10.811  10.825   3.053  0.2748 -0.3043  0.5397
  871MOL0     C17514  10.789  10.812   2.908 -0.8097 -0.7724  0.1783
  871MOL0     C17515  10.762  10.793   2.794  0.8068 -0.1077  0.1240
  871MOL0     C17516  10.127  10.781   3.013 -0.3546 -0.5339 -0.6937
  871MOL0     C17517  10.014  10.787   2.930 -0.4149 -0.2940 -0.3833
  871MOL0     H17518   9.774  11.034   2.683  1.3177 -3.7637  3.5731
  871MOL0     H17519   9.569  11.171   2.638  0.7741  0.0899 -0.0076
  871MOL0     H17520   9.199  10.994   2.485 -2.4320  0.0842  1.6615
  871MOL0     H17521   9.160  11.164   2.557  3.0876  1.4439  1.9710
  871MOL0     H17522   9.362  11.250   2.447 -1.7449  0.0500  1.6040
  871MOL0     H17523   9.411  11.089   2.399  1.5903  0.9954 -1.5604
  871MOL0     H17524   9.167  11.088   2.282  2.0978 -1.2231  2.1535
  871MOL0     H17525   9.173  11.264   2.278  1.9615  1.2207 -1.1554
  871MOL0     H17526   9.407  11.248   2.192  0.7645 -0.6215 -0.4800
  871MOL0     H17527   9.384  11.072   2.185 -0.6505 -0.5642  0.0273
  871MOL0     H17528   9.174  11.130   2.038  1.3884 -1.7839 -0.2486
  871MOL0     H17529   9.226  11.295   2.030  0.7844  0.0762 -0.3529
  871MOL0     H17530   9.432  11.241   1.927  3.7231 -3.1020 -0.6586
  871MOL0     H17531   9.419  11.072   1.970 -1.6103  0.1158  3.1751
  871MOL0     H17532   9.259  11.028   1.817  0.2967  1.6077  3.6676
  871MOL0     H17533   9.240  11.205   1.770 -1.8841  0.2960  1.6247
  871MOL0     H17534   9.466  11.211   1.663 -1.7178  1.0576  0.9954
  871MOL0     H17535   9.357  11.101   1.589 -0.2238 -2.7618  1.1750
  871MOL0     H17536   9.665  11.099   1.848 -0.9251  0.4082 -0.4086
  871MOL0     H17537   9.839  10.928   1.911  3.8695  2.8942 -1.7511
  871MOL0     H17538   9.798  10.749   1.872 -2.3684  2.0718  0.4345
  871MOL0     H17539   9.950  10.956   1.706  0.1229  0.2279 -0.4692
  871MOL0     H17540   9.945  10.786   1.656  0.9830  2.7524 -2.4125
  871MOL0     H17541  10.084  10.726   1.861  1.2742 -0.5144 -2.5572
  871MOL0     H17542  10.070  10.897   1.923 -1.9173 -0.2991  0.9470
  871MOL0     H17543  10.204  10.972   1.720  1.2440  0.1212  2.9281
  871MOL0     H17544  10.206  10.798   1.674  0.3669 -1.8819  0.8535
  871MOL0     H17545  10.411  10.992   1.646 -0.1961 -1.7414 -0.8005
  871MOL0     H17546  10.581  11.124   1.527  0.9276  1.5193 -0.5695
  871MOL0     H17547  10.726  11.166   1.608  0.8082  0.5615 -1.0808
  871MOL0     H17548  10.738  11.025   1.519 -0.3282  0.6254 -0.1541
  871MOL0     H17549  11.119  11.074   2.009  2.4256  0.2234  0.9507
  871MOL0     H17550  11.358  11.003   1.997  0.4008 -0.1540 -0.5927
  871MOL0     H17551  11.562  10.977   1.877  1.0734  0.8281  1.6139
  871MOL0     H17552  11.525  10.885   2.017  1.4471  1.3709  0.4228
  871MOL0     H17553  11.707  10.717   1.906  2.0519  0.0920 -0.5904
  871MOL0     H17554  11.772  10.870   1.849 -1.8751 -1.7027 -2.2496
  871MOL0     H17555  11.736  10.800   2.142  2.1100 -3.5131 -0.9935
  871MOL0     H17556  11.790  10.950   2.082  0.0765  0.0882 -1.9276
  871MOL0     H17557  11.931  10.681   2.038  0.4798 -0.7835  3.9503
  871MOL0     H17558  11.985  10.839   1.968  3.9825 -0.4757  2.6821
  871MOL0     H17559  11.986  10.744   2.270  2.3983  1.7492  3.2702
  871MOL0     H17560  11.985  10.919   2.205 -1.7563  0.1561 -0.9893
  871MOL0     H17561  12.196  10.863   2.105  0.2088  0.4423  1.0583
  871MOL0     H17562  12.204  10.827   2.275  2.9756  1.0145 -1.5832
  871MOL0     H17563  12.331  10.667   2.161 -0.2907 -2.6968  3.0986
  871MOL0     H17564  12.194  10.625   2.052  1.5645  2.0444 -0.7709
  871MOL0     H17565  12.212  10.449   2.217 -1.1586 -0.2922 -0.5545
  871MOL0     H17566  12.073  10.544   2.264 -0.5935  2.6270  1.0727
  871MOL0     H17567  11.273  10.687   1.725  3.1364  0.0455  1.1785
  871MOL0     H17568  11.034  10.752   1.729  0.0686 -1.3513  0.2091
  871MOL0     H17569  10.740  10.807   1.964 -2.2992 -1.4850  1.3414
  871MOL0     H17570  10.518  10.756   1.985  1.6281 -3.3919 -3.1635
  871MOL0     H17571   9.318  10.817   2.684  1.4637 -0.3987 -1.5419
  871MOL0     H17572   9.524  10.687   2.729 -0.0828  0.3130  2.1988
  871MOL0     H17573  10.179  10.738   2.637  0.3704 -2.4376 -0.1569
  871MOL0     H17574  10.355  10.681   2.781  1.6110  1.9862  2.0259
  871MOL0     H17575  10.475  10.561   3.041  0.9632 -0.5648  1.7207
  871MOL0     H17576  10.528  10.696   2.940 -3.0095  1.9817 -0.4215
  871MOL0     H17577  10.662  10.638   3.151  0.9613  0.8773 -3.8680
  871MOL0     H17578  10.535  10.714   3.253 -1.2566  1.5071  0.0661
  871MOL0     H17579  10.691  10.882   3.222  0.8315 -1.7045 -0.5477
  871MOL0     H17580  10.601  10.907   3.080 -3.1908 -1.2367  2.2982
  871MOL0     H17581  10.871  10.739   3.083 -2.7543 -1.4582  3.9287
  871MOL0     H17582  10.849  10.927   3.066  0.7697 -0.0819 -2.0746
  871MOL0     H17583  10.722  10.788   2.695  1.5061 -1.0556 -0.1245
  871MOL0     H17584  10.117  10.797   3.120  1.6508 -2.1544 -0.2114
  871MOL0     H17585   9.922  10.812   2.981  1.2280 -0.5254  2.9613
  872MOL0     O17586   7.754   3.413  11.064 -0.2945  0.3459 -0.0623
  872MOL0     C17587   7.779   3.338  10.971 -0.5064  0.1047  0.0996
  872MOL0     O17588   7.714   3.225  10.939  0.1941  0.2148  0.3271
  872MOL0     C17589   7.614   3.179  11.024 -0.0135  0.0871  0.5028
  872MOL0     C17590   7.648   3.107  11.141  0.1649  0.0423  1.5670
  872MOL0     C17591   7.560   3.045  11.217  0.6746  0.0223 -0.4925
  872MOL0     C17592   7.416   3.049  11.186  0.5250 -0.0325 -0.2330
  872MOL0     O17593   7.317   2.981  11.263  0.4539 -0.8351  0.7446
  872MOL0     C17594   7.351   2.910  11.387  0.9340 -0.3534  0.3915
  872MOL0     C17595   7.231   2.877  11.466 -0.3968 -1.0169  0.6576
  872MOL0     C17596   7.117   2.810  11.387 -0.8897 -0.5889  0.8825
  872MOL0     C17597   7.014   2.737  11.476  0.6334 -0.9073  0.0554
  872MOL0     C17598   6.896   2.671  11.404 -0.0201  0.3712 -0.2332
  872MOL0     C17599   6.947   2.528  11.356  0.6751  0.1921 -0.5444
  872MOL0     C17600   6.834   2.450  11.288  0.6552 -0.2239 -0.2992
  872MOL0     C17601   6.727   2.409  11.386  0.5985  0.1989 -0.1543
  872MOL0     N17602   6.743   2.274  11.433 -0.3140  0.1318  0.4181
  872MOL0     C17603   6.761   2.169  11.344 -0.3531 -0.0296  0.0976
  872MOL0     C17604   6.817   2.070  11.422 -0.3718  0.8968  1.0793
  872MOL0     C17605   6.822   1.914  11.384  0.1747  0.2215  0.3123
  872MOL0     C17606   6.730   1.830  11.469  0.4913 -0.4036 -0.7810
  872MOL0     C17607   6.814   1.723  11.546  0.8046  0.3669  0.0792
  872MOL0     C17608   6.735   1.636  11.637 -0.2568 -0.0659  0.2862
  872MOL0     O17609   6.637   1.572  11.561  0.3286 -0.4748 -0.1562
  872MOL0     C17610   6.677   1.462  11.500 -0.6123 -0.3818 -0.7032
  872MOL0     C17611   6.630   1.456  11.367 -0.3522 -0.7663  0.4182
  872MOL0     C17612   6.654   1.339  11.290  0.2399  0.0404  0.3414
  872MOL0     C17613   6.598   1.341  11.149  1.2026 -0.2267 -0.1542
  872MOL0     C17614   6.742   1.227  11.346 -0.4340 -0.6891 -0.6946
  872MOL0     C17615   6.762   1.091  11.292  0.1753  0.1199  0.2534
  872MOL0     O17616   6.834   1.001  11.363 -0.8602 -0.4544 -0.7435
  872MOL0     C17617   6.869   0.872  11.331 -0.5833  0.2662  1.1809
  872MOL0     C17618   6.894   0.796  11.448  0.6172  0.2960 -0.3907
  872MOL0     C17619   6.915   0.657  11.434 -1.5922  0.2358 -0.1196
  872MOL0     C17620   6.917   0.597  11.309  0.5319  1.0250 -0.4160
  872MOL0     O17621   6.940   0.468  11.320  1.0532 -0.0323 -0.4367
  872MOL0     C17622   6.866   0.385  11.224  0.1538 -0.9047  0.0381
  872MOL0     C17623   6.881   0.232  11.249 -0.5515 -1.1662 -0.9392
  872MOL0     C17624   6.831   0.167  11.393  0.9200  0.8702  0.4018
  872MOL0     C17625   6.720   0.243  11.464 -1.0135  0.0744  0.2047
  872MOL0     C17626   6.673   0.183  11.597  0.1270 -0.3493  0.2717
  872MOL0     C17627   6.568   0.082  11.558 -0.4245  0.5148 -0.2261
  872MOL0     C17628   6.499   0.018  11.676 -1.2266 -0.2137  0.5252
  872MOL0     C17629   6.581  -0.083  11.755 -0.0490  0.2261 -0.6477
  872MOL0    Cl17630   6.607  -0.233  11.654 -0.0805  0.0245 -0.2382
  872MOL0     C17631   6.893   0.674  11.192 -0.3000  0.4737 -1.1759
  872MOL0     C17632   6.861   0.807  11.198 -0.8737  0.0894  0.1583
  872MOL0     O17633   6.689   1.064  11.199  0.4986 -0.0476 -0.5971
  872MOL0     C17634   6.787   1.246  11.478 -0.1378 -0.3799  0.0304
  872MOL0     C17635   6.764   1.359  11.549  0.3890 -0.6882  0.2706
  872MOL0     N17636   6.827   2.123  11.554 -0.4153 -0.7075 -0.3156
  872MOL0     N17637   6.791   2.248  11.560 -0.0187 -0.3284  0.4844
  872MOL0     C17638   7.383   3.132  11.079  0.0435  0.3823 -0.1173
  872MOL0     C17639   7.482   3.191  10.996  0.9352 -0.2663 -0.6169
  872MOL0     C17640   7.905   3.370  10.888 -0.3531  0.1526 -0.3959
  872MOL0     C17641   7.940   3.292  10.779 -0.3378  0.4720 -0.0602
  872MOL0     C17642   8.048   3.336  10.711 -0.3219  0.4455 -0.7765
  872MOL0     C17643   8.128   3.440  10.740 -1.2751 -0.7476 -0.6923
  872MOL0     O17644   8.222   3.485  10.649  0.5429 -0.1927  0.1503
  872MOL0     C17645   8.261   3.619  10.625  0.0445 -0.8281 -0.1791
  872MOL0     C17646   8.351   3.637  10.510 -0.8503  0.2183  0.6738
  872MOL0     C17647   8.309   3.557  10.378 -0.6092 -0.7148 -0.2726
  872MOL0     C17648   8.424   3.549  10.273  1.1023  0.8303  0.5482
  872MOL0     C17649   8.393   3.445  10.179 -0.1521  0.0277  0.9554
  872MOL0     C17650   8.378   3.351  10.101  0.8888  0.4500  0.9961
  872MOL0     C17651   8.087   3.521  10.851  0.7250 -0.0733 -0.0364
  872MOL0     C17652   7.980   3.481  10.924  0.0837  0.6563  0.7035
  872MOL0     H17653   7.754   3.094  11.162  0.6483  2.7634  1.1618
  872MOL0     H17654   7.592   2.995  11.308  0.1831  0.3718 -0.1203
  872MOL0     H17655   7.393   2.813  11.359 -1.5312 -0.9186 -1.7334
  872MOL0     H17656   7.417   2.972  11.448  0.4676  1.5822 -0.9476
  872MOL0     H17657   7.266   2.809  11.544 -0.3454 -1.5603  0.1777
  872MOL0     H17658   7.195   2.975  11.496 -0.3251  0.2415 -2.8929
  872MOL0     H17659   7.063   2.878  11.322 -3.8330 -3.5184 -0.0548
  872MOL0     H17660   7.166   2.733  11.327  0.3748 -0.5686  1.8437
  872MOL0     H17661   7.070   2.671  11.543  0.5768  0.6083  1.6643
  872MOL0     H17662   6.953   2.808  11.533 -3.9634 -1.5379 -3.4630
  872MOL0     H17663   6.811   2.659  11.471 -0.7193  1.2316 -0.9389
  872MOL0     H17664   6.863   2.725  11.315 -0.5881  1.4860  0.6323
  872MOL0     H17665   7.021   2.550  11.278 -0.2294 -1.1264 -1.8461
  872MOL0     H17666   6.996   2.470  11.434  4.3646  1.2381 -1.8709
  872MOL0     H17667   6.787   2.514  11.212  2.5181  0.1077 -1.2331
  872MOL0     H17668   6.878   2.372  11.226  1.8941  0.8730 -0.8488
  872MOL0     H17669   6.631   2.417  11.335  0.0248 -2.9127  0.2065
  872MOL0     H17670   6.705   2.474  11.471  0.6869  1.1989 -0.8850
  872MOL0     H17671   6.737   2.151  11.240  0.6262 -2.3198  0.2178
  872MOL0     H17672   6.795   1.896  11.279  2.9931 -1.9180 -0.1808
  872MOL0     H17673   6.923   1.871  11.385  0.5829  1.1631  0.6820
  872MOL0     H17674   6.656   1.782  11.404  0.4600  0.8196 -1.6751
  872MOL0     H17675   6.674   1.892  11.539  0.4329 -2.0529  0.7103
  872MOL0     H17676   6.879   1.782  11.611 -1.1949  2.5319  0.2461
  872MOL0     H17677   6.862   1.657  11.473 -3.1247  1.1455 -3.5632
  872MOL0     H17678   6.692   1.705  11.710 -1.8781  1.4002 -1.9451
  872MOL0     H17679   6.798   1.567  11.695  1.5187  1.0633 -0.2233
  872MOL0     H17680   6.569   1.539  11.334 -1.2828 -1.7704 -0.4750
  872MOL0     H17681   6.522   1.264  11.134 -1.1890  2.1972 -1.2413
  872MOL0     H17682   6.540   1.433  11.138 -0.7162 -1.5433 -1.8816
  872MOL0     H17683   6.675   1.331  11.072 -1.1478  0.3538 -2.7431
  872MOL0     H17684   6.898   0.830  11.551  2.8779 -2.4888  0.5669
  872MOL0     H17685   6.931   0.584  11.512 -1.9837 -0.7662 -0.9530
  872MOL0     H17686   6.764   0.420  11.207 -0.3599 -2.2486  0.2325
  872MOL0     H17687   6.915   0.410  11.130 -0.5829  1.7724  0.2977
  872MOL0     H17688   6.828   0.176  11.171 -1.6421 -0.4955 -0.6936
  872MOL0     H17689   6.989   0.215  11.239  0.2305  2.1365  0.5286
  872MOL0     H17690   6.915   0.153  11.462  1.0538  1.8777  0.4662
  872MOL0     H17691   6.794   0.067  11.372 -1.0010  0.9653  2.8717
  872MOL0     H17692   6.773   0.336  11.489  0.8615 -0.9728  0.3142
  872MOL0     H17693   6.640   0.272  11.395 -1.1485 -1.7113 -0.4387
  872MOL0     H17694   6.637   0.252  11.675 -0.0712 -2.0034  1.6990
  872MOL0     H17695   6.760   0.135  11.645 -0.0558 -0.2616  0.6964
  872MOL0     H17696   6.502   0.117  11.478  0.4392 -0.0597 -1.2149
  872MOL0     H17697   6.621  -0.003  11.514 -1.4017  1.0160 -2.5485
  872MOL0     H17698   6.414  -0.044  11.646 -1.0812 -0.5232  0.7419
  872MOL0     H17699   6.469   0.094  11.749 -1.7850  0.1664 -0.0870
  872MOL0     H17700   6.529  -0.126  11.840  0.4655  1.3502  0.2583
  872MOL0     H17701   6.679  -0.046  11.787 -0.1850 -0.6057  0.8137
  872MOL0     H17702   6.877   0.620  11.100 -0.4183 -2.8660  0.6413
  872MOL0     H17703   6.824   0.859  11.111 -2.0675 -0.8055  0.0998
  872MOL0     H17704   6.855   1.173  11.520  0.9488  1.4994  1.7267
  872MOL0     H17705   6.830   1.366  11.635  2.5631  1.6487 -1.4286
  872MOL0     H17706   7.277   3.131  11.053 -0.3619  1.0192  1.3944
  872MOL0     H17707   7.449   3.216  10.895  5.7980 -1.9389 -2.8931
  872MOL0     H17708   7.883   3.208  10.740  0.6883 -0.1656 -0.2520
  872MOL0     H17709   8.074   3.264  10.634 -1.6739 -0.5655 -0.3382
  872MOL0     H17710   8.167   3.673  10.609  0.6366  0.5086  0.6980
  872MOL0     H17711   8.309   3.661  10.714  1.4576  0.6275 -1.5806
  872MOL0     H17712   8.450   3.617  10.551  0.8190  2.2697 -1.9745
  872MOL0     H17713   8.344   3.740  10.475  0.2356 -0.6547 -2.4696
  872MOL0     H17714   8.229   3.615  10.331  1.9712  4.9942  1.4942
  872MOL0     H17715   8.289   3.456  10.414  0.1505 -0.6909  0.2249
  872MOL0     H17716   8.522   3.532  10.320  0.3987  2.1991  2.6563
  872MOL0     H17717   8.433   3.640  10.213 -0.5417  1.6879  1.5359
  872MOL0     H17718   8.347   3.284  10.023 -1.2774  1.5393  0.8563
  872MOL0     H17719   8.133   3.619  10.860  2.5058 -0.9148  0.3636
  872MOL0     H17720   7.949   3.547  11.004  1.3535  0.7182  1.1809
  873MOL0     O17721  11.149  11.525   0.451 -1.3375 -0.0189 -0.0800
  873MOL0     C17722  11.149  11.645   0.476  0.3521 -0.2791 -0.8191
  873MOL0     O17723  11.253  11.726   0.477  0.6061 -0.2721  0.5500
  873MOL0     C17724  11.357  11.678   0.396 -1.3771  0.3479  0.1061
  873MOL0     C17725  11.379  11.746   0.272 -0.5842  0.1105 -0.7190
  873MOL0     C17726  11.480  11.689   0.187 -0.3499  0.0102 -0.3597
  873MOL0     C17727  11.580  11.596   0.228  0.1507  0.2179 -0.6935
  873MOL0     O17728  11.677  11.555   0.145 -0.8366 -0.4493  0.0159
  873MOL0     C17729  11.728  11.416   0.150  0.5083 -0.2454  0.3520
  873MOL0     C17730  11.824  11.405   0.023 -0.3178  0.1799  0.4734
  873MOL0     C17731  11.800  11.311  -0.093  0.8867  0.0949 -0.1355
  873MOL0     C17732  11.798  11.169  -0.032  0.5641 -0.3016 -0.3523
  873MOL0     C17733  11.788  11.062  -0.141 -0.1760 -0.4264  0.6586
  873MOL0     C17734  11.756  10.929  -0.067 -0.4338 -0.1904  0.5491
  873MOL0     C17735  11.792  10.811  -0.151  0.9371  0.1829  0.5582
  873MOL0     C17736  11.685  10.785  -0.263 -0.5039 -0.4335  0.8271
  873MOL0     N17737  11.542  10.786  -0.234  0.6326 -0.4151  1.1733
  873MOL0     C17738  11.471  10.700  -0.166 -0.9162 -0.2741 -0.5686
  873MOL0     C17739  11.352  10.769  -0.147 -0.2397  0.2510 -1.0675
  873MOL0     C17740  11.240  10.732  -0.048  0.6754  0.2752 -0.5559
  873MOL0     C17741  11.273  10.741   0.107 -0.0734  0.0735  0.2851
  873MOL0     C17742  11.161  10.696   0.197 -0.0518 -0.1702  0.9582
  873MOL0     C17743  11.031  10.783   0.205 -0.4761 -0.3956  0.0280
  873MOL0     O17744  11.061  10.929   0.216  0.2048  0.4939 -0.0021
  873MOL0     C17745  10.970  11.017   0.276  0.0748  0.3160  0.4402
  873MOL0     C17746  10.842  10.980   0.329  0.6019 -0.1163 -0.1642
  873MOL0     C17747  10.765  11.074   0.397  0.2295  0.5292  0.6446
  873MOL0     C17748  10.639  11.017   0.444 -0.3768  0.0024  0.1987
  873MOL0     C17749  10.806  11.202   0.415  0.5047 -0.1205 -1.0651
  873MOL0     C17750  10.722  11.308   0.462  0.1037 -0.5721 -0.4547
  873MOL0     O17751  10.676  11.288   0.596 -0.2118  0.3852 -0.0958
  873MOL0     C17752  10.594  11.387   0.648 -0.0546 -0.3920 -0.7850
  873MOL0     C17753  10.472  11.421   0.588 -0.0590 -0.4600 -0.2434
  873MOL0     C17754  10.374  11.507   0.649  0.9368 -0.7460  0.1827
  873MOL0     C17755  10.399  11.570   0.775 -1.1704 -0.0663  0.5484
  873MOL0     O17756  10.315  11.661   0.833 -0.8547  0.7896 -0.2114
  873MOL0     C17757  10.395  11.770   0.893  0.6424 -0.4011  0.2350
  873MOL0     C17758  10.345  11.826   1.029 -0.0428  0.6183 -0.6322
  873MOL0     C17759  10.369  11.725   1.145 -0.7434  0.0011  0.0766
  873MOL0     C17760  10.414  11.798   1.275 -0.5360 -0.9678  0.7450
  873MOL0     C17761  10.385  11.718   1.408  0.0610 -1.2254 -0.2259
  873MOL0     C17762  10.404  11.805   1.539 -0.9530  0.4805  1.0237
  873MOL0     C17763  10.557  11.833   1.547 -0.2513 -0.1139 -0.2296
  873MOL0     C17764  10.592  11.932   1.664 -0.0900 -0.3690  0.1915
  873MOL0    Cl17765  10.537  12.107   1.645 -0.1234 -0.5243  0.1043
  873MOL0     C17766  10.520  11.522   0.838  0.0603  0.5939 -0.0718
  873MOL0     C17767  10.613  11.436   0.773 -0.2193  1.0901  0.1240
  873MOL0     O17768  10.716  11.405   0.396  0.0391 -0.6264 -0.1755
  873MOL0     C17769  10.936  11.244   0.364 -1.1485  0.1470  0.1106
  873MOL0     C17770  11.015  11.147   0.297 -0.9905  0.2298 -0.2352
  873MOL0     N17771  11.366  10.895  -0.211  1.0189 -0.0926 -0.4442
  873MOL0     N17772  11.473  10.897  -0.273  0.6609 -0.8176 -0.1746
  873MOL0     C17773  11.562  11.552   0.357 -0.0366 -0.4547 -0.5613
  873MOL0     C17774  11.450  11.579   0.437  0.3798  0.1868  0.2417
  873MOL0     C17775  11.036  11.703   0.566  0.1374 -0.2142 -0.3202
  873MOL0     C17776  10.913  11.654   0.553 -0.1618  0.2617  0.8265
  873MOL0     C17777  10.812  11.685   0.633 -0.3388 -0.3525  0.0110
  873MOL0     C17778  10.824  11.763   0.741  0.0189 -0.0997  0.3253
  873MOL0     O17779  10.726  11.763   0.831 -1.2391 -0.0676 -0.2000
  873MOL0     C17780  10.748  11.814   0.964  0.7914 -0.4906 -0.4618
  873MOL0     C17781  10.856  11.723   1.035  0.4623 -0.4435 -0.8053
  873MOL0     C17782  10.862  11.722   1.190  0.1429  0.5075  0.3832
  873MOL0     C17783  10.899  11.845   1.260  0.5675 -0.1242  0.3869
  873MOL0     C17784  10.796  11.955   1.254  0.5115  0.0762 -0.9085
  873MOL0     C17785  10.716  12.039   1.271 -0.3800  0.1489  0.4261
  873MOL0     C17786  10.946  11.833   0.750  0.0145  0.1329 -0.8006
  873MOL0     C17787  11.051  11.800   0.668  0.0682 -0.2095  0.8664
  873MOL0     H17788  11.318  11.825   0.229 -1.3382  0.6251  1.2185
  873MOL0     H17789  11.487  11.738   0.090 -4.3257  3.0071  0.5833
  873MOL0     H17790  11.789  11.386   0.236  2.7209  1.1910 -0.5988
  873MOL0     H17791  11.648  11.343   0.134 -0.9055  0.6044  2.9722
  873MOL0     H17792  11.838  11.503  -0.023  1.2280 -0.1171  0.2675
  873MOL0     H17793  11.923  11.391   0.066 -0.2263  1.4202  0.6992
  873MOL0     H17794  11.705  11.330  -0.144  1.4468  4.5633  0.1422
  873MOL0     H17795  11.887  11.308  -0.159  1.2482 -2.9454  0.3234
  873MOL0     H17796  11.894  11.157   0.021  0.1117  0.4232  0.6754
  873MOL0     H17797  11.710  11.163   0.032 -1.3319  0.7485 -2.7143
  873MOL0     H17798  11.711  11.081  -0.216  0.5263  1.2444  0.3250
  873MOL0     H17799  11.877  11.062  -0.204 -0.0376  2.2720  0.7344
  873MOL0     H17800  11.817  10.926   0.024  1.7900  3.4314 -0.6021
  873MOL0     H17801  11.650  10.916  -0.042 -0.2443 -1.4818  0.7479
  873MOL0     H17802  11.887  10.825  -0.204 -1.3706 -0.1190 -4.2621
  873MOL0     H17803  11.804  10.717  -0.097  1.1307 -1.1968 -1.7457
  873MOL0     H17804  11.713  10.690  -0.310 -1.0944  0.2936 -1.1241
  873MOL0     H17805  11.694  10.861  -0.342  2.4245 -1.3842  0.1172
  873MOL0     H17806  11.508  10.616  -0.109  1.3659 -0.8562 -2.7443
  873MOL0     H17807  11.158  10.804  -0.059 -0.2069  0.2660  3.9122
  873MOL0     H17808  11.199  10.638  -0.087 -0.0872  0.7327 -0.8857
  873MOL0     H17809  11.297  10.847   0.117 -3.4434  1.4563 -3.6520
  873MOL0     H17810  11.364  10.683   0.127  0.4246 -0.0857 -2.0858
  873MOL0     H17811  11.210  10.708   0.295 -1.3424  2.6752  1.3418
  873MOL0     H17812  11.133  10.593   0.175  1.4994 -0.1245 -1.5657
  873MOL0     H17813  10.966  10.762   0.291 -1.5173 -0.7928 -0.8418
  873MOL0     H17814  10.964  10.773   0.120 -1.1039  0.4086  0.4145
  873MOL0     H17815  10.802  10.879   0.316  2.1276 -0.9003  1.0085
  873MOL0     H17816  10.637  11.023   0.553 -1.6011 -0.9687  0.2503
  873MOL0     H17817  10.549  11.067   0.407 -1.8843 -0.9501  2.3474
  873MOL0     H17818  10.622  10.913   0.414  1.2720 -0.3415  0.3804
  873MOL0     H17819  10.440  11.378   0.493  3.0620 -2.5142 -0.4907
  873MOL0     H17820  10.285  11.518   0.586  0.9448  0.0518  0.3014
  873MOL0     H17821  10.504  11.756   0.896  1.3642  3.3513 -2.2524
  873MOL0     H17822  10.380  11.854   0.826 -0.8903 -0.8367 -0.0080
  873MOL0     H17823  10.399  11.919   1.050  4.5942 -1.7665 -0.8859
  873MOL0     H17824  10.237  11.839   1.039 -0.3016 -1.2871 -0.6995
  873MOL0     H17825  10.449  11.656   1.117 -0.8028  0.4189 -1.1759
  873MOL0     H17826  10.279  11.666   1.163  0.1985 -1.5240 -0.0816
  873MOL0     H17827  10.523  11.809   1.261 -0.4291 -2.3045  0.3963
  873MOL0     H17828  10.371  11.898   1.276 -4.2364 -2.4194  0.3489
  873MOL0     H17829  10.455  11.634   1.410  1.0045 -0.4449  0.7915
  873MOL0     H17830  10.284  11.678   1.394  0.7973 -2.1155 -4.6371
  873MOL0     H17831  10.354  11.901   1.527 -2.2047 -0.2965 -0.2238
  873MOL0     H17832  10.348  11.755   1.619 -0.0085 -0.1122  1.3448
  873MOL0     H17833  10.598  11.888   1.462 -0.8145  1.1415  0.2788
  873MOL0     H17834  10.613  11.739   1.546 -2.0385 -1.2200 -1.7967
  873MOL0     H17835  10.693  11.917   1.703 -0.8282  0.9624  2.8250
  873MOL0     H17836  10.548  11.893   1.756  0.8439 -1.1339  0.3260
  873MOL0     H17837  10.542  11.573   0.932 -3.2446  1.1204  0.5182
  873MOL0     H17838  10.713  11.432   0.816  0.1452 -2.3490 -0.7975
  873MOL0     H17839  10.958  11.348   0.385 -0.9449 -0.0620  0.9686
  873MOL0     H17840  11.100  11.179   0.237 -1.5215  0.3590 -0.9275
  873MOL0     H17841  11.636  11.485   0.399  0.0257 -0.2668 -0.3724
  873MOL0     H17842  11.430  11.531   0.533 -1.9327 -0.2638 -0.3890
  873MOL0     H17843  10.897  11.580   0.475 -1.4757 -2.9320  3.8583
  873MOL0     H17844  10.724  11.622   0.624 -0.5260  0.2418 -3.4607
  873MOL0     H17845  10.778  11.918   0.977 -3.1092  0.4889  2.6152
  873MOL0     H17846  10.663  11.800   1.031  0.7480 -2.7096 -0.8911
  873MOL0     H17847  10.955  11.740   0.991 -0.7500 -0.3737 -3.7440
  873MOL0     H17848  10.835  11.619   1.010 -0.5091 -0.9249  1.7260
  873MOL0     H17849  10.929  11.640   1.217 -0.6313  0.3045  1.8410
  873MOL0     H17850  10.760  11.708   1.229  0.6929  2.7840  2.9582
  873MOL0     H17851  10.995  11.890   1.230  0.1327  1.1662  0.8678
  873MOL0     H17852  10.893  11.832   1.368 -4.0062  1.3176  0.4857
  873MOL0     H17853  10.664  12.132   1.266 -0.3485  0.1017 -1.5885
  873MOL0     H17854  10.953  11.903   0.832 -0.9684 -1.0179  0.3159
  873MOL0     H17855  11.152  11.836   0.682  1.0369 -0.9640 -3.0845
  874MOL0     O17856   3.726   0.689   4.435  0.2844 -0.3580  0.1741
  874MOL0     C17857   3.695   0.583   4.377  0.4682 -0.9423 -0.4636
  874MOL0     O17858   3.626   0.474   4.428  0.5537 -0.6342  0.1800
  874MOL0     C17859   3.537   0.486   4.535 -0.6978  0.0226  0.2869
  874MOL0     C17860   3.497   0.605   4.598 -0.0259  0.5246 -0.0646
  874MOL0     C17861   3.387   0.606   4.675  0.1724  0.0738 -1.2620
  874MOL0     C17862   3.310   0.489   4.705  0.2496 -0.3769  0.2922
  874MOL0     O17863   3.200   0.497   4.784  0.2229 -0.3689  0.2175
  874MOL0     C17864   3.203   0.416   4.902 -0.0090  0.7271 -0.5424
  874MOL0     C17865   3.132   0.481   5.020 -0.3599  0.3008  0.2921
  874MOL0     C17866   3.172   0.628   5.052 -0.3025 -0.4430  0.5662
  874MOL0     C17867   3.296   0.652   5.141 -0.2991  0.3921 -0.4914
  874MOL0     C17868   3.298   0.591   5.284 -0.0468 -0.8347 -0.5601
  874MOL0     C17869   3.435   0.539   5.326  0.7382  0.1759 -1.4531
  874MOL0     C17870   3.549   0.642   5.342  0.9341 -0.0243 -0.7920
  874MOL0     C17871   3.690   0.570   5.357  0.0543 -0.5010 -0.9164
  874MOL0     N17872   3.698   0.490   5.472  0.3773 -0.7995 -0.1247
  874MOL0     C17873   3.740   0.532   5.594  0.2920 -0.7998  0.6031
  874MOL0     C17874   3.751   0.414   5.668  0.6884 -0.6122  0.2721
  874MOL0     C17875   3.793   0.398   5.810  0.5457  0.5407 -0.6358
  874MOL0     C17876   3.712   0.293   5.883 -0.7457  0.8355 -0.0981
  874MOL0     C17877   3.768   0.287   6.029  0.2660 -0.0038 -0.4742
  874MOL0     C17878   3.690   0.175   6.098  0.0153  0.4193 -0.1075
  874MOL0     O17879   3.759   0.160   6.223  0.4862  0.6510  0.1603
  874MOL0     C17880   3.735   0.038   6.292  0.3920 -0.4431  0.8050
  874MOL0     C17881   3.823   0.005   6.393 -0.2315  0.6809  0.0142
  874MOL0     C17882   3.825  -0.120   6.454  1.8209 -0.6036 -0.3860
  874MOL0     C17883   3.909  -0.132   6.580 -0.6146  0.0986  0.8193
  874MOL0     C17884   3.731  -0.217   6.407  0.1774  0.4487 -0.0875
  874MOL0     C17885   3.722  -0.360   6.447 -0.1374 -0.2145 -0.6229
  874MOL0     O17886   3.626  -0.445   6.396 -0.2680  0.1314 -0.1380
  874MOL0     C17887   3.642  -0.579   6.393 -0.0826 -0.4943 -0.3728
  874MOL0     C17888   3.571  -0.649   6.292 -0.7342 -0.3725  0.0734
  874MOL0     C17889   3.550  -0.784   6.304 -0.0883  1.3000  0.3933
  874MOL0     C17890   3.597  -0.863   6.409  0.0549  0.5328 -0.2471
  874MOL0     O17891   3.598  -0.997   6.403 -0.5964 -1.2309 -0.2613
  874MOL0     C17892   3.671  -1.084   6.498  0.0349 -0.5043 -0.1232
  874MOL0     C17893   3.639  -1.234   6.487 -0.2463 -1.1297 -0.2314
  874MOL0     C17894   3.762  -1.319   6.518  0.7949 -0.5976 -0.4628
  874MOL0     C17895   3.774  -1.446   6.431 -0.7147 -0.4262  0.1856
  874MOL0     C17896   3.883  -1.559   6.468  0.4107 -0.1543  0.3301
  874MOL0     C17897   4.012  -1.549   6.395 -0.0924 -0.0496 -0.1284
  874MOL0     C17898   4.013  -1.594   6.251  0.3132  0.3746  0.6562
  874MOL0     C17899   4.137  -1.532   6.178  0.8641  0.3260  0.0240
  874MOL0    Cl17900   4.111  -1.367   6.140  0.2383  0.6279  0.1865
  874MOL0     C17901   3.656  -0.791   6.516  0.4799  0.3250  0.7205
  874MOL0     C17902   3.676  -0.651   6.507  0.2285 -0.1908  0.2296
  874MOL0     O17903   3.817  -0.396   6.525  0.0180 -0.5883  0.9796
  874MOL0     C17904   3.632  -0.182   6.306 -0.9714  0.0298  0.9773
  874MOL0     C17905   3.632  -0.053   6.256 -0.6651 -0.1614  0.7364
  874MOL0     N17906   3.739   0.309   5.586  0.0379  0.0505  0.1445
  874MOL0     N17907   3.691   0.355   5.472 -0.0975 -0.0532 -0.2108
  874MOL0     C17908   3.358   0.370   4.651  0.2567 -0.2208 -0.5678
  874MOL0     C17909   3.472   0.368   4.570  0.3081  0.1384 -0.2333
  874MOL0     C17910   3.785   0.543   4.262 -0.2066 -0.9466 -0.3841
  874MOL0     C17911   3.784   0.416   4.201  0.3408  0.4213 -0.2562
  874MOL0     C17912   3.855   0.391   4.084  1.3428 -0.3097 -0.4268
  874MOL0     C17913   3.942   0.484   4.039  0.0418 -0.0291 -1.0964
  874MOL0     O17914   4.015   0.479   3.925  0.3060  0.0799  0.6412
  874MOL0     C17915   4.094   0.363   3.906  0.7295 -0.3669 -1.4297
  874MOL0     C17916   4.043   0.272   3.801 -0.6194  0.5078  0.8186
  874MOL0     C17917   4.012   0.338   3.661  0.8244 -0.1222  0.1583
  874MOL0     C17918   4.128   0.392   3.575 -0.4951  0.6916  0.0212
  874MOL0     C17919   4.092   0.437   3.438  0.4963 -0.0641  0.2453
  874MOL0     C17920   4.067   0.492   3.332 -0.8074 -0.3830  0.0443
  874MOL0     C17921   3.951   0.608   4.104 -0.7883 -0.8354  0.8481
  874MOL0     C17922   3.872   0.634   4.213 -1.0623  0.4414  0.3276
  874MOL0     H17923   3.537   0.702   4.569  0.0324  0.4299 -0.3029
  874MOL0     H17924   3.357   0.701   4.719 -0.1828 -0.8853  0.7086
  874MOL0     H17925   3.151   0.325   4.871 -2.8082  1.6277  1.1445
  874MOL0     H17926   3.305   0.394   4.934 -0.3011 -3.8124 -2.0822
  874MOL0     H17927   3.024   0.476   5.004 -0.6923 -2.5929  2.6311
  874MOL0     H17928   3.156   0.422   5.109  1.3736 -0.2452 -0.4994
  874MOL0     H17929   3.183   0.697   4.969 -0.4056  1.4817  2.0743
  874MOL0     H17930   3.088   0.669   5.110  0.9478  4.0016 -0.4442
  874MOL0     H17931   3.388   0.612   5.099  1.6683  1.5023  2.4077
  874MOL0     H17932   3.325   0.755   5.160  2.6362 -0.3294 -0.5903
  874MOL0     H17933   3.284   0.674   5.355  2.7982  1.3426 -2.3341
  874MOL0     H17934   3.234   0.503   5.298  1.2549 -1.5677  1.0678
  874MOL0     H17935   3.426   0.490   5.424  1.1975 -0.2693 -1.6266
  874MOL0     H17936   3.462   0.454   5.263  3.6072 -0.2563  0.1677
  874MOL0     H17937   3.551   0.704   5.252  0.4268 -1.4034 -1.7834
  874MOL0     H17938   3.520   0.711   5.423 -2.0513  1.7452 -3.1514
  874MOL0     H17939   3.771   0.642   5.343  0.8955 -1.7908 -3.3946
  874MOL0     H17940   3.693   0.501   5.272  1.2883  0.0104 -1.3170
  874MOL0     H17941   3.748   0.638   5.613  1.5223 -0.9617  1.0801
  874MOL0     H17942   3.901   0.380   5.809  0.4250 -0.3828 -2.7402
  874MOL0     H17943   3.796   0.494   5.862  3.4623  1.1287 -1.6744
  874MOL0     H17944   3.747   0.206   5.828  1.0031  1.8278 -0.6385
  874MOL0     H17945   3.604   0.307   5.871 -0.6418 -0.4933 -3.4961
  874MOL0     H17946   3.766   0.385   6.077  1.7167  0.7931 -1.9558
  874MOL0     H17947   3.874   0.264   6.039  0.0205 -0.0358  3.2966
  874MOL0     H17948   3.697   0.079   6.046 -0.1322  1.2014 -1.6163
  874MOL0     H17949   3.593   0.220   6.119  0.9039  3.0621 -1.2003
  874MOL0     H17950   3.897   0.077   6.425  2.8232 -1.1028 -2.4334
  874MOL0     H17951   3.860  -0.166   6.672 -0.8518 -1.1284  0.2574
  874MOL0     H17952   3.988  -0.204   6.554 -1.1433 -0.6151  1.1759
  874MOL0     H17953   3.960  -0.037   6.604 -1.0495  0.7293 -0.6321
  874MOL0     H17954   3.530  -0.597   6.206  1.0624  0.3389 -0.4033
  874MOL0     H17955   3.487  -0.826   6.226  1.0966  3.2720 -1.7293
  874MOL0     H17956   3.777  -1.059   6.491 -0.1640  0.3999 -0.0536
  874MOL0     H17957   3.636  -1.052   6.597 -3.2680  2.2531 -1.9516
  874MOL0     H17958   3.548  -1.250   6.547  1.5815  1.1827  3.5315
  874MOL0     H17959   3.613  -1.250   6.382 -1.2846 -4.3581  0.4050
  874MOL0     H17960   3.747  -1.357   6.620  1.3216  2.2584  0.7781
  874MOL0     H17961   3.853  -1.264   6.494  0.2586 -0.2721 -1.8390
  874MOL0     H17962   3.675  -1.490   6.438 -1.3121  1.1346  2.4966
  874MOL0     H17963   3.794  -1.411   6.329  4.2740 -0.2748  0.9762
  874MOL0     H17964   3.835  -1.651   6.434  4.3697 -1.3582 -2.6357
  874MOL0     H17965   3.914  -1.566   6.573 -2.6263 -1.2521  1.2520
  874MOL0     H17966   4.051  -1.447   6.401  1.3862 -0.6649  2.2461
  874MOL0     H17967   4.084  -1.616   6.444  0.1339 -0.6815 -1.2886
  874MOL0     H17968   3.928  -1.566   6.189  0.0195  0.2798  1.0109
  874MOL0     H17969   4.018  -1.703   6.253 -2.2826  0.1937  1.8086
  874MOL0     H17970   4.156  -1.588   6.086  0.2913  2.8501 -1.7501
  874MOL0     H17971   4.226  -1.534   6.241  1.8400  2.9248 -1.1610
  874MOL0     H17972   3.701  -0.832   6.606  2.3714  0.3935 -0.1527
  874MOL0     H17973   3.713  -0.599   6.595  0.4229 -0.7870  0.5063
  874MOL0     H17974   3.558  -0.249   6.264  0.1256 -0.7137  0.2036
  874MOL0     H17975   3.546  -0.020   6.198  0.3178  3.7816  1.2429
  874MOL0     H17976   3.317   0.275   4.686 -0.6426  0.4892  0.3459
  874MOL0     H17977   3.511   0.273   4.535 -0.5131 -0.7863  1.2711
  874MOL0     H17978   3.720   0.340   4.245 -0.6824  1.5825  0.3247
  874MOL0     H17979   3.844   0.301   4.025  0.4376 -0.2244 -0.3987
  874MOL0     H17980   4.193   0.404   3.880  0.6646  1.6634  1.1438
  874MOL0     H17981   4.098   0.313   4.003  2.4522 -0.0106 -1.2856
  874MOL0     H17982   3.948   0.225   3.829 -0.3165 -0.5863  0.0573
  874MOL0     H17983   4.119   0.194   3.790  1.4339  2.1937  2.3473
  874MOL0     H17984   3.928   0.406   3.680 -2.5375 -3.6287 -0.9241
  874MOL0     H17985   3.968   0.260   3.599  0.0911  1.0436 -0.8210
  874MOL0     H17986   4.212   0.323   3.581  0.9190  2.4949  2.2678
  874MOL0     H17987   4.163   0.481   3.627  1.9908  1.4421 -2.6530
  874MOL0     H17988   4.057   0.541   3.237 -1.4594 -1.9680 -0.7424
  874MOL0     H17989   4.015   0.683   4.059 -1.1481 -1.0889 -0.1327
  874MOL0     H17990   3.881   0.736   4.250 -1.1855 -0.0876  1.9138
  875MOL0     O17991   2.505   9.251   2.108  0.1626  0.3554  0.6692
  875MOL0     C17992   2.613   9.270   2.054 -0.0535  1.1689  0.2639
  875MOL0     O17993   2.732   9.269   2.119  0.6327  0.4350  0.1148
  875MOL0     C17994   2.726   9.265   2.258 -0.0081 -0.6824  0.0188
  875MOL0     C17995   2.687   9.382   2.333  0.5526  0.2993  0.5741
  875MOL0     C17996   2.681   9.383   2.467  0.6265 -0.1791  0.4051
  875MOL0     C17997   2.714   9.272   2.542 -1.0693  0.4021  0.0068
  875MOL0     O17998   2.697   9.279   2.681  1.1178  0.1287 -0.6518
  875MOL0     C17999   2.738   9.164   2.761 -0.6412 -0.1884  1.0226
  875MOL0     C18000   2.713   9.170   2.915  0.3339  0.7993 -0.3102
  875MOL0     C18001   2.744   9.300   2.970 -0.4916 -0.0991 -1.8452
  875MOL0     C18002   2.763   9.288   3.120  0.6622 -0.6368 -0.7901
  875MOL0     C18003   2.904   9.238   3.173  0.5703 -0.0908 -0.7972
  875MOL0     C18004   2.883   9.157   3.301 -0.2225 -0.6509  0.2064
  875MOL0     C18005   3.033   9.136   3.364 -0.0733 -0.8553 -0.5042
  875MOL0     C18006   3.117   9.256   3.400  0.4110 -0.1925  0.2689
  875MOL0     N18007   3.037   9.360   3.475 -0.2383 -0.4570  0.0393
  875MOL0     C18008   3.036   9.374   3.616  0.0745  0.3357 -0.4025
  875MOL0     C18009   2.955   9.475   3.640  0.4951 -1.2263  0.8041
  875MOL0     C18010   2.928   9.554   3.772 -0.1848  0.3306 -0.9608
  875MOL0     C18011   2.821   9.492   3.865  0.5784  0.9506 -0.2773
  875MOL0     C18012   2.781   9.564   4.009 -0.7505  0.4420  0.0742
  875MOL0     C18013   2.907   9.597   4.104  1.1338 -1.2911 -0.1135
  875MOL0     O18014   2.997   9.489   4.128 -0.4329 -0.7134  0.3097
  875MOL0     C18015   3.001   9.421   4.248 -0.4932 -0.2462  0.0243
  875MOL0     C18016   3.098   9.442   4.343  0.0905 -0.0800  0.3132
  875MOL0     C18017   3.107   9.367   4.460 -0.1451  0.2237 -0.7855
  875MOL0     C18018   3.226   9.404   4.555  0.1375 -0.2678  0.6019
  875MOL0     C18019   3.008   9.270   4.485 -0.1169  0.0153  0.3466
  875MOL0     C18020   3.005   9.185   4.608 -0.1241  0.2827  0.2117
  875MOL0     O18021   2.937   9.067   4.607  0.1631  0.0699 -0.7866
  875MOL0     C18022   2.901   8.995   4.715 -0.2394  0.0908  0.4949
  875MOL0     C18023   2.788   8.911   4.710 -0.7568 -0.5714 -0.1125
  875MOL0     C18024   2.752   8.835   4.826 -0.7245  1.1469  0.1391
  875MOL0     C18025   2.840   8.828   4.935 -0.2389 -0.0733  0.4738
  875MOL0     O18026   2.812   8.746   5.041 -0.1933  0.0681 -0.1547
  875MOL0     C18027   2.772   8.612   5.035  0.1487  0.6938  0.2591
  875MOL0     C18028   2.881   8.529   4.988  0.4956  0.2466  0.4008
  875MOL0     C18029   2.843   8.374   4.966  0.2759  0.1758  0.7017
  875MOL0     C18030   2.964   8.279   4.967  0.4801  0.1477 -1.0067
  875MOL0     C18031   2.898   8.141   5.003  0.3158  0.7758  0.4145
  875MOL0     C18032   3.002   8.028   5.020  0.5533  0.7250  0.6440
  875MOL0     C18033   2.933   7.887   5.056  0.7766 -0.6913 -0.0161
  875MOL0     C18034   3.043   7.803   5.117 -0.2842  0.4633  0.5047
  875MOL0    Cl18035   3.192   7.794   5.012 -0.7398  0.0124 -0.2829
  875MOL0     C18036   2.958   8.904   4.929  0.6509  0.2372 -0.1584
  875MOL0     C18037   2.991   8.983   4.821  0.8635 -0.1093 -0.3697
  875MOL0     O18038   3.043   9.245   4.711  0.0537  0.5477 -0.5367
  875MOL0     C18039   2.905   9.257   4.392  1.0036  0.2549  0.4920
  875MOL0     C18040   2.902   9.326   4.275 -0.1431  0.4647  0.7459
  875MOL0     N18041   2.926   9.528   3.521  0.0900 -0.0009  0.2478
  875MOL0     N18042   2.979   9.469   3.420 -0.1491  0.0597 -0.8438
  875MOL0     C18043   2.750   9.155   2.470  0.7068  0.1927 -0.2598
  875MOL0     C18044   2.755   9.146   2.336  0.1454  0.5007 -0.0983
  875MOL0     C18045   2.608   9.303   1.912  0.0049 -1.2778  0.8820
  875MOL0     C18046   2.505   9.258   1.819 -0.6861  0.0513  0.2544
  875MOL0     C18047   2.503   9.307   1.683  0.6587  0.4377 -0.2549
  875MOL0     C18048   2.587   9.419   1.644  0.0095  0.5971  0.4121
  875MOL0     O18049   2.562   9.465   1.520  0.6178  0.1891  0.3125
  875MOL0     C18050   2.628   9.589   1.475  0.4380  0.0971 -0.0268
  875MOL0     C18051   2.682   9.585   1.335 -0.3054 -0.0723 -0.0441
  875MOL0     C18052   2.578   9.551   1.233 -0.4248  0.2824 -0.9367
  875MOL0     C18053   2.623   9.605   1.093  0.1142  0.1754  0.4398
  875MOL0     C18054   2.525   9.599   0.989 -0.8748 -0.2234 -0.4056
  875MOL0     C18055   2.425   9.605   0.917 -0.5238 -0.4844  0.1094
  875MOL0     C18056   2.681   9.458   1.741  0.5923  0.2184 -0.0544
  875MOL0     C18057   2.686   9.411   1.873  0.2052  0.8890  0.0430
  875MOL0     H18058   2.674   9.468   2.269  1.3219 -0.6031 -0.8504
  875MOL0     H18059   2.668   9.481   2.513 -0.1885  0.6948 -1.5863
  875MOL0     H18060   2.689   9.072   2.729 -2.9898  0.5325  2.3364
  875MOL0     H18061   2.845   9.156   2.737 -0.6181  2.4585 -0.2093
  875MOL0     H18062   2.607   9.149   2.936  0.6764 -1.0045 -0.2292
  875MOL0     H18063   2.763   9.094   2.975 -3.0842 -1.4420 -0.0211
  875MOL0     H18064   2.834   9.328   2.914  1.2036 -2.2406 -0.4020
  875MOL0     H18065   2.666   9.374   2.953 -1.3390 -0.3082  0.7378
  875MOL0     H18066   2.758   9.391   3.157 -0.0796 -0.4362 -1.4329
  875MOL0     H18067   2.689   9.218   3.162 -0.3695 -0.6853 -2.5892
  875MOL0     H18068   2.940   9.172   3.094  0.6723  0.6544 -1.3877
  875MOL0     H18069   2.965   9.329   3.170  0.0769  0.2481 -0.6710
  875MOL0     H18070   2.819   9.201   3.379 -0.5293  2.2593 -1.5548
  875MOL0     H18071   2.850   9.055   3.277  1.9344 -1.7603  1.5893
  875MOL0     H18072   3.029   9.090   3.463 -0.4639  1.3126  0.5418
  875MOL0     H18073   3.089   9.071   3.296 -0.8209 -3.1284  0.9648
  875MOL0     H18074   3.165   9.303   3.314  1.8799 -0.6827  0.8027
  875MOL0     H18075   3.199   9.227   3.465  1.2956  1.9455  0.1859
  875MOL0     H18076   3.074   9.307   3.693 -1.5473  1.7498  1.7499
  875MOL0     H18077   3.020   9.553   3.831 -1.0009  1.4256  0.4027
  875MOL0     H18078   2.903   9.658   3.748  3.4148  1.3538 -0.8949
  875MOL0     H18079   2.859   9.390   3.880 -0.7220  0.5049  0.1426
  875MOL0     H18080   2.727   9.488   3.810  0.4671  0.1515 -0.0406
  875MOL0     H18081   2.702   9.509   4.060 -0.2508  0.2534  0.6664
  875MOL0     H18082   2.734   9.657   3.975  0.4562  1.1401  0.2234
  875MOL0     H18083   2.868   9.641   4.196 -0.8167 -0.5622 -1.2512
  875MOL0     H18084   2.966   9.668   4.044  0.7332 -1.9614 -1.3406
  875MOL0     H18085   3.185   9.507   4.332 -0.7191  1.2523  1.4918
  875MOL0     H18086   3.208   9.498   4.609 -1.8267 -0.6645  0.6970
  875MOL0     H18087   3.240   9.317   4.621 -5.2016 -1.7817  0.1769
  875MOL0     H18088   3.320   9.428   4.504  0.0164 -2.3091 -0.7140
  875MOL0     H18089   2.746   8.927   4.611  2.2427  0.8431 -1.2988
  875MOL0     H18090   2.666   8.768   4.826  1.1471 -1.5718 -2.8309
  875MOL0     H18091   2.722   8.580   5.127 -2.5702 -0.7188 -1.5443
  875MOL0     H18092   2.704   8.596   4.950  1.7982  2.5916 -1.5070
  875MOL0     H18093   2.907   8.565   4.888 -1.0849 -2.6461 -1.1805
  875MOL0     H18094   2.960   8.542   5.063 -0.8673 -1.2168  2.1883
  875MOL0     H18095   2.780   8.363   4.877  1.9329 -0.8267 -0.3943
  875MOL0     H18096   2.772   8.342   5.044  1.2991 -1.4073  1.0365
  875MOL0     H18097   3.017   8.266   4.872 -0.2852 -3.4862 -1.0990
  875MOL0     H18098   3.036   8.303   5.045  2.2374 -2.2035 -1.7981
  875MOL0     H18099   2.829   8.110   4.924 -0.2354 -1.1299  1.6065
  875MOL0     H18100   2.853   8.148   5.102  0.0503 -0.0043  0.3510
  875MOL0     H18101   3.059   8.011   4.928 -2.5914  1.2472 -1.5546
  875MOL0     H18102   3.071   8.050   5.102  0.8290  1.3816  0.2382
  875MOL0     H18103   2.885   7.840   4.970  0.6799  2.3451 -1.7712
  875MOL0     H18104   2.839   7.908   5.108 -0.2507 -0.9455 -1.6828
  875MOL0     H18105   3.007   7.700   5.128 -1.8630  1.1485  2.5188
  875MOL0     H18106   3.072   7.833   5.219 -1.2438 -2.7303  1.8660
  875MOL0     H18107   3.033   8.907   5.007  4.8819  0.3913 -3.8091
  875MOL0     H18108   3.085   9.037   4.827  2.3753 -2.7175  2.0861
  875MOL0     H18109   2.820   9.196   4.420  1.3120 -0.3781  0.0762
  875MOL0     H18110   2.809   9.321   4.220 -0.3461  3.5553  0.6386
  875MOL0     H18111   2.795   9.074   2.526  1.4549  0.6859 -0.1340
  875MOL0     H18112   2.807   9.067   2.283 -0.2108  1.9059 -2.7639
  875MOL0     H18113   2.424   9.191   1.845 -1.0443 -0.3075 -1.6542
  875MOL0     H18114   2.428   9.263   1.618  2.5414 -4.2896  0.3807
  875MOL0     H18115   2.544   9.659   1.472  0.7641  0.5323  0.6948
  875MOL0     H18116   2.695   9.621   1.555 -2.0490  1.1747  1.7593
  875MOL0     H18117   2.762   9.510   1.322  2.0099  2.4069 -1.0202
  875MOL0     H18118   2.738   9.672   1.299 -1.1354 -0.6587 -2.9529
  875MOL0     H18119   2.486   9.600   1.265 -0.5943 -1.0719  0.7765
  875MOL0     H18120   2.569   9.442   1.225  0.1106 -0.2392  3.3640
  875MOL0     H18121   2.706   9.536   1.075 -1.4735 -2.5056  2.5793
  875MOL0     H18122   2.666   9.706   1.091  1.2544 -0.2992 -1.1695
  875MOL0     H18123   2.345   9.601   0.846  2.6720 -1.4072 -3.8081
  875MOL0     H18124   2.747   9.541   1.721  1.9353 -0.9761 -0.7628
  875MOL0     H18125   2.763   9.451   1.938  0.0837  0.4016  0.5032
  876MOL0     O18126   3.361   4.146   8.996  0.1992 -0.7934 -0.4804
  876MOL0     C18127   3.289   4.051   9.021  0.3775  0.8102  1.1113
  876MOL0     O18128   3.222   3.971   8.935  0.2775  0.0686 -0.0845
  876MOL0     C18129   3.220   3.985   8.796  0.3855  0.4747 -0.4008
  876MOL0     C18130   3.268   4.091   8.718  1.3201 -0.1570 -0.3918
  876MOL0     C18131   3.245   4.097   8.580  0.2394  0.0288  0.3581
  876MOL0     C18132   3.191   3.991   8.506 -0.3513  1.1358  0.5783
  876MOL0     O18133   3.173   3.980   8.370  0.5214 -0.5215 -0.0837
  876MOL0     C18134   3.222   4.071   8.284 -0.4044 -0.1589 -0.4100
  876MOL0     C18135   3.179   4.051   8.143 -0.8190  0.2821  0.0928
  876MOL0     C18136   3.033   4.079   8.116  0.2953 -0.2615  0.2860
  876MOL0     C18137   3.014   4.048   7.974 -0.2036  0.4201 -0.1899
  876MOL0     C18138   2.894   4.106   7.905  0.0263 -0.4396 -0.0219
  876MOL0     C18139   2.770   4.056   7.983 -0.7395  0.0092 -0.1818
  876MOL0     C18140   2.654   4.122   7.911 -0.1375  0.0229 -0.0970
  876MOL0     C18141   2.517   4.082   7.971  0.1278  0.5476 -0.3258
  876MOL0     N18142   2.405   4.161   7.923 -0.0459 -0.0876 -0.6799
  876MOL0     C18143   2.368   4.284   7.977  0.5617 -0.4244  0.7264
  876MOL0     C18144   2.278   4.326   7.884  0.4152 -0.4788  0.2487
  876MOL0     C18145   2.205   4.455   7.906 -0.4667  0.6358 -0.5525
  876MOL0     C18146   2.168   4.503   7.767 -0.1216 -0.1929 -0.6044
  876MOL0     C18147   2.068   4.621   7.790 -0.0469  0.2286  0.1288
  876MOL0     C18148   2.061   4.717   7.673  0.0169  0.0586 -1.5532
  876MOL0     O18149   1.975   4.829   7.719  0.1014 -0.5474 -0.2021
  876MOL0     C18150   1.844   4.842   7.670  0.1570 -0.0472 -0.7246
  876MOL0     C18151   1.765   4.960   7.704 -0.3738 -0.0483  0.3393
  876MOL0     C18152   1.639   4.988   7.654 -0.0564 -0.5668 -0.2876
  876MOL0     C18153   1.580   5.125   7.679  0.7837 -1.4053  0.1529
  876MOL0     C18154   1.578   4.893   7.574 -0.1596  0.3016  0.3734
  876MOL0     C18155   1.459   4.919   7.508 -0.3590  0.2067  0.1371
  876MOL0     O18156   1.460   5.033   7.428 -0.0003  0.3539 -0.5025
  876MOL0     C18157   1.369   5.033   7.322 -0.5168  0.1787 -0.1545
  876MOL0     C18158   1.410   5.025   7.192 -0.4297 -0.3013  0.2467
  876MOL0     C18159   1.320   5.019   7.083  0.2588 -1.0343 -0.6801
  876MOL0     C18160   1.184   5.019   7.105  0.0194 -0.1090  0.3260
  876MOL0     O18161   1.103   4.996   6.991 -0.4955 -0.2410 -1.5120
  876MOL0     C18162   0.965   5.009   7.017  0.1783 -0.2551  0.1455
  876MOL0     C18163   0.891   4.996   6.875 -0.1554  0.1630 -0.3933
  876MOL0     C18164   0.741   5.036   6.907  0.5127  0.6950 -0.2267
  876MOL0     C18165   0.652   5.030   6.785  0.2323 -0.4993  0.5591
  876MOL0     C18166   0.501   5.057   6.819  0.2678 -0.6937 -0.0988
  876MOL0     C18167   0.408   5.021   6.700 -0.4898 -0.0897  0.1267
  876MOL0     C18168   0.272   5.012   6.760 -0.5873 -0.4261  0.1999
  876MOL0     C18169   0.167   5.018   6.657  0.0885  0.0251  0.3188
  876MOL0    Cl18170   0.023   5.084   6.731 -0.0006 -0.0638  0.0573
  876MOL0     C18171   1.144   5.053   7.237  0.3062 -0.8597  0.0709
  876MOL0     C18172   1.237   5.069   7.342  0.0170 -0.6543  0.1715
  876MOL0     O18173   1.379   4.828   7.490 -0.1681  0.4909 -0.6262
  876MOL0     C18174   1.652   4.776   7.552  0.5049  0.6467  1.1733
  876MOL0     C18175   1.775   4.749   7.597 -0.9691 -0.2924  0.0675
  876MOL0     N18176   2.264   4.232   7.786 -0.2915 -0.1816 -0.4598
  876MOL0     N18177   2.334   4.131   7.813 -1.3517 -0.4153 -0.3912
  876MOL0     C18178   3.159   3.881   8.580 -0.2910 -0.3353 -1.2937
  876MOL0     C18179   3.159   3.883   8.724  0.0087  0.7492  1.3413
  876MOL0     C18180   3.299   3.999   9.160  0.2490  0.3850  0.0561
  876MOL0     C18181   3.414   4.034   9.236 -0.2032  0.2879 -0.5676
  876MOL0     C18182   3.435   3.976   9.362  0.3117  0.2741  0.6326
  876MOL0     C18183   3.343   3.889   9.417 -1.5297 -0.2105  0.1906
  876MOL0     O18184   3.365   3.826   9.539  0.6219  0.2643 -0.5393
  876MOL0     C18185   3.322   3.885   9.663  0.3882  0.8041  0.3085
  876MOL0     C18186   3.177   3.854   9.702 -0.4266 -0.4193 -0.2265
  876MOL0     C18187   3.141   3.714   9.739 -0.6652 -0.0634 -0.0040
  876MOL0     C18188   3.002   3.676   9.777 -0.1081 -0.9346 -0.9151
  876MOL0     C18189   2.982   3.540   9.815  0.3958  1.2359 -0.1474
  876MOL0     C18190   2.927   3.436   9.852  0.8623  0.0142  0.4704
  876MOL0     C18191   3.230   3.854   9.343 -0.1811  0.3897 -0.4750
  876MOL0     C18192   3.201   3.908   9.218  0.4317  0.1704  0.5479
  876MOL0     H18193   3.304   4.178   8.772 -1.6675  0.8252  0.2473
  876MOL0     H18194   3.266   4.187   8.523  0.9093 -0.6468 -0.4814
  876MOL0     H18195   3.205   4.176   8.309 -4.6955 -0.6175 -0.6993
  876MOL0     H18196   3.330   4.056   8.295  0.0250  0.4989 -3.0766
  876MOL0     H18197   3.237   4.120   8.081  1.5396 -3.0317 -1.7302
  876MOL0     H18198   3.211   3.950   8.115 -0.6290  0.7866 -1.6300
  876MOL0     H18199   2.969   4.011   8.174 -2.9283  2.5864  0.3970
  876MOL0     H18200   2.995   4.175   8.151 -2.6498 -1.1928 -0.1107
  876MOL0     H18201   3.096   4.088   7.914 -0.5292  3.9366  1.4336
  876MOL0     H18202   3.020   3.942   7.950 -1.4089  0.7929 -2.3713
  876MOL0     H18203   2.919   4.211   7.923  0.4694 -0.7510  1.2575
  876MOL0     H18204   2.894   4.089   7.797 -1.9561 -1.1708  0.0705
  876MOL0     H18205   2.756   3.948   7.970 -1.2010  0.2797 -2.3278
  876MOL0     H18206   2.765   4.091   8.086 -1.3328  0.6006 -0.4089
  876MOL0     H18207   2.662   4.231   7.914  1.8812 -0.1018  0.0612
  876MOL0     H18208   2.653   4.102   7.804 -2.3472 -2.1796  0.2375
  876MOL0     H18209   2.519   4.079   8.080  1.3040  1.7048 -0.2872
  876MOL0     H18210   2.481   3.984   7.939 -4.4255  1.9359 -0.0419
  876MOL0     H18211   2.411   4.343   8.057  2.5552 -1.4681  0.4882
  876MOL0     H18212   2.113   4.440   7.962  0.2011  0.6663  0.5710
  876MOL0     H18213   2.268   4.527   7.958  1.0365 -1.3375  0.5053
  876MOL0     H18214   2.124   4.421   7.709 -0.6537 -0.2980 -0.0721
  876MOL0     H18215   2.252   4.542   7.709 -0.9646 -0.9336 -2.4167
  876MOL0     H18216   2.096   4.677   7.879  2.7709 -0.6067 -0.1434
  876MOL0     H18217   1.965   4.582   7.792  0.8265 -2.2521  0.3133
  876MOL0     H18218   2.038   4.654   7.586  1.0681 -0.6463 -1.3428
  876MOL0     H18219   2.161   4.758   7.658 -1.4469  4.0263 -1.5024
  876MOL0     H18220   1.807   5.038   7.766 -1.6598 -0.5611  1.9409
  876MOL0     H18221   1.473   5.116   7.699  1.3350 -0.8365  4.2350
  876MOL0     H18222   1.619   5.187   7.761  1.0036  0.4855 -1.3222
  876MOL0     H18223   1.587   5.196   7.596  0.4791  3.1063  3.5634
  876MOL0     H18224   1.516   5.017   7.170 -0.8207 -2.9600 -1.0029
  876MOL0     H18225   1.351   5.004   6.979 -1.9880 -0.7931 -1.4283
  876MOL0     H18226   0.931   4.941   7.095 -3.9095  2.0070  0.6212
  876MOL0     H18227   0.947   5.110   7.054  2.7805  0.8186 -1.2062
  876MOL0     H18228   0.930   5.058   6.794 -1.6042 -1.7188 -2.6612
  876MOL0     H18229   0.899   4.894   6.836  1.4213  1.1639 -2.9803
  876MOL0     H18230   0.744   5.137   6.949  0.1285  1.3692 -1.7762
  876MOL0     H18231   0.695   4.968   6.980 -0.5003  1.3250 -0.2655
  876MOL0     H18232   0.694   5.101   6.713 -2.0847  0.0685 -0.3245
  876MOL0     H18233   0.663   4.927   6.749 -2.0213 -0.9511  1.0535
  876MOL0     H18234   0.486   5.160   6.854  0.6195 -0.3141 -1.0150
  876MOL0     H18235   0.473   4.988   6.898  0.8188  1.8737  2.5265
  876MOL0     H18236   0.411   5.094   6.618  1.4088 -1.6563 -1.3060
  876MOL0     H18237   0.431   4.923   6.658 -0.6804 -0.4873  0.9302
  876MOL0     H18238   0.255   5.109   6.809 -0.5873 -0.4086  0.1646
  876MOL0     H18239   0.244   4.942   6.840 -5.4546  0.8557 -0.0816
  876MOL0     H18240   0.128   4.923   6.619 -1.3660  1.1998 -1.3215
  876MOL0     H18241   0.191   5.080   6.570 -0.3736 -1.9739 -1.3278
  876MOL0     H18242   1.041   5.051   7.272  1.0432 -1.4453  2.3476
  876MOL0     H18243   1.204   5.084   7.445 -1.4777  1.2782 -0.5161
  876MOL0     H18244   1.604   4.696   7.496 -2.2338  2.9115  0.0338
  876MOL0     H18245   1.806   4.650   7.566  2.7177  0.7733 -0.1254
  876MOL0     H18246   3.128   3.787   8.536  1.1351 -0.9681 -1.0049
  876MOL0     H18247   3.112   3.802   8.778 -2.3640  2.1257  1.4891
  876MOL0     H18248   3.489   4.097   9.190 -0.4299  1.1131  0.1616
  876MOL0     H18249   3.515   4.012   9.426 -1.2627  1.6579  1.9350
  876MOL0     H18250   3.370   3.826   9.742  1.1049 -0.4621 -1.0065
  876MOL0     H18251   3.354   3.989   9.657  2.7319  0.0926 -0.8925
  876MOL0     H18252   3.107   3.892   9.626 -2.2082 -0.9660  1.0635
  876MOL0     H18253   3.150   3.919   9.786 -3.6698  0.1886 -1.5795
  876MOL0     H18254   3.205   3.685   9.823 -4.3121 -1.0868  2.7172
  876MOL0     H18255   3.168   3.646   9.658  2.9563 -0.4943  1.3644
  876MOL0     H18256   2.949   3.694   9.682 -0.8523 -1.4867 -0.6134
  876MOL0     H18257   2.966   3.746   9.853 -0.3330 -1.5995 -0.4043
  876MOL0     H18258   2.886   3.342   9.882  1.2515 -0.3931 -0.2266
  876MOL0     H18259   3.164   3.781   9.389 -1.2029  0.9050 -1.0682
  876MOL0     H18260   3.103   3.895   9.173  0.1453  1.3372  0.7996
  877MOL0     O18261   0.069   2.510   5.761 -0.5030 -0.4055  0.0426
  877MOL0     C18262   0.181   2.557   5.758  0.4321 -0.3396  0.3158
  877MOL0     O18263   0.209   2.686   5.703 -0.2826  0.5179  0.4755
  877MOL0     C18264   0.109   2.769   5.659  1.8483  0.4175 -0.2325
  877MOL0     C18265   0.130   2.828   5.533 -0.5184  0.4962 -0.0238
  877MOL0     C18266   0.030   2.905   5.474  0.0130 -1.0641  0.1634
  877MOL0     C18267  -0.099   2.919   5.534  0.0983  0.1374  1.6921
  877MOL0     O18268  -0.210   2.978   5.472 -0.6910  0.0720 -0.4322
  877MOL0     C18269  -0.186   3.057   5.348  0.1571 -0.0477  0.3233
  877MOL0     C18270  -0.309   3.146   5.317 -0.1881 -0.1595  0.1204
  877MOL0     C18271  -0.420   3.071   5.241  0.8459  0.6403 -0.4732
  877MOL0     C18272  -0.545   3.154   5.210  0.8640 -0.9416 -0.4882
  877MOL0     C18273  -0.605   3.132   5.078  0.0346 -1.1063  0.0776
  877MOL0     C18274  -0.659   2.988   5.059  0.9621 -0.4789 -0.8500
  877MOL0     C18275  -0.716   2.972   4.920 -0.1116 -0.2178 -0.1043
  877MOL0     C18276  -0.836   3.055   4.888 -0.2421  0.2750 -0.8059
  877MOL0     N18277  -0.867   3.042   4.750  0.5156  0.4000 -0.3524
  877MOL0     C18278  -0.784   3.067   4.642  0.6128 -0.6731 -0.5380
  877MOL0     C18279  -0.855   3.024   4.532  0.0092 -0.2003 -0.1270
  877MOL0     C18280  -0.829   3.022   4.382 -0.5962 -0.7945  0.2444
  877MOL0     C18281  -0.809   3.161   4.335 -0.6155  0.0603 -1.0615
  877MOL0     C18282  -0.828   3.160   4.178  0.1640 -0.9049 -0.6888
  877MOL0     C18283  -0.743   3.251   4.104  0.0959  0.0480 -0.3276
  877MOL0     O18284  -0.663   3.348   4.183 -0.1461  0.3772  0.2765
  877MOL0     C18285  -0.595   3.435   4.104 -0.8758 -0.2927  0.6693
  877MOL0     C18286  -0.609   3.464   3.967 -0.5884 -0.3188 -0.1198
  877MOL0     C18287  -0.540   3.567   3.899  0.3116 -0.0694  1.0229
  877MOL0     C18288  -0.579   3.586   3.744  0.3136  0.1378 -1.6104
  877MOL0     C18289  -0.454   3.647   3.975  0.0670 -0.9926 -0.2285
  877MOL0     C18290  -0.366   3.752   3.920  0.4627  0.7758 -0.7740
  877MOL0     O18291  -0.312   3.840   4.010 -0.6989  0.3867  0.2871
  877MOL0     C18292  -0.243   3.957   3.966 -0.0073 -1.4819 -0.2046
  877MOL0     C18293  -0.305   4.077   3.995 -0.3471 -0.0851 -0.7604
  877MOL0     C18294  -0.254   4.207   3.970  0.3563 -0.4033 -0.1562
  877MOL0     C18295  -0.124   4.214   3.917  0.6838 -0.0421  1.3845
  877MOL0     O18296  -0.078   4.345   3.883 -0.1422  0.3583  0.0900
  877MOL0     C18297   0.047   4.358   3.816 -0.3218 -0.8178  0.1834
  877MOL0     C18298   0.044   4.491   3.748 -0.0009  0.0060  0.3991
  877MOL0     C18299  -0.066   4.512   3.644  0.0738  0.7519  0.2297
  877MOL0     C18300  -0.011   4.507   3.498 -0.9374 -0.1255 -0.2790
  877MOL0     C18301  -0.124   4.488   3.397 -0.9779 -0.1055  0.4784
  877MOL0     C18302  -0.205   4.613   3.373 -0.3409 -0.5302 -0.2264
  877MOL0     C18303  -0.325   4.607   3.278 -0.8168  0.0311 -0.4198
  877MOL0     C18304  -0.421   4.493   3.296  0.9090  0.8292  0.3546
  877MOL0    Cl18305  -0.566   4.518   3.194 -0.3679  0.3576  0.3066
  877MOL0     C18306  -0.058   4.094   3.878  0.1946 -0.7228  0.4900
  877MOL0     C18307  -0.122   3.962   3.893  0.0385 -0.7378 -0.0505
  877MOL0     O18308  -0.351   3.741   3.798  0.3781  0.2305  1.2540
  877MOL0     C18309  -0.436   3.618   4.113  0.2144  0.1663 -0.8335
  877MOL0     C18310  -0.507   3.512   4.172 -0.5628 -0.1588 -0.1915
  877MOL0     N18311  -0.990   2.993   4.576  0.3317 -0.1479  0.9351
  877MOL0     N18312  -0.984   2.997   4.705  0.5659  0.2276 -0.6081
  877MOL0     C18313  -0.114   2.864   5.659  0.8203 -0.3227  1.0492
  877MOL0     C18314  -0.018   2.797   5.725  0.0611  0.3781 -0.4791
  877MOL0     C18315   0.283   2.465   5.804  0.8176  1.2598  0.2951
  877MOL0     C18316   0.269   2.315   5.814  0.5072 -0.7349 -0.2861
  877MOL0     C18317   0.375   2.230   5.860 -0.0541 -0.7651 -0.2872
  877MOL0     C18318   0.493   2.296   5.902  0.4582 -0.8129  0.9601
  877MOL0     O18319   0.599   2.221   5.941  0.0666  0.0135  0.2747
  877MOL0     C18320   0.577   2.160   6.066  0.1054  0.0759 -0.5078
  877MOL0     C18321   0.704   2.136   6.153  0.1127  0.7117  0.9001
  877MOL0     C18322   0.677   2.036   6.270 -0.4923  0.4245 -0.0524
  877MOL0     C18323   0.621   1.896   6.245 -0.3760 -0.4696  0.4230
  877MOL0     C18324   0.641   1.806   6.360  1.2944  0.0785 -0.5267
  877MOL0     C18325   0.652   1.736   6.463  0.3128  0.0229 -0.2441
  877MOL0     C18326   0.504   2.432   5.879 -0.1049  0.1128 -0.8314
  877MOL0     C18327   0.405   2.516   5.824 -0.0118  0.8162  0.6849
  877MOL0     H18328   0.213   2.797   5.470 -1.1397  1.6870 -1.4947
  877MOL0     H18329   0.045   2.942   5.374  0.9660  1.3192  1.1225
  877MOL0     H18330  -0.109   3.130   5.376 -0.4615  0.5115  0.6071
  877MOL0     H18331  -0.148   3.003   5.261 -0.3939 -2.9770  1.7808
  877MOL0     H18332  -0.351   3.191   5.407  0.0240  0.9121 -0.3085
  877MOL0     H18333  -0.276   3.228   5.253  0.4157 -1.8443 -1.8635
  877MOL0     H18334  -0.378   3.032   5.148  0.0765 -1.9885  0.1982
  877MOL0     H18335  -0.457   2.984   5.297 -0.6917 -1.2649 -4.1261
  877MOL0     H18336  -0.625   3.134   5.282  1.0526  0.9982  0.3141
  877MOL0     H18337  -0.527   3.261   5.221  2.0371 -1.4173  4.4624
  877MOL0     H18338  -0.682   3.209   5.060 -0.6843 -2.0356 -0.9621
  877MOL0     H18339  -0.530   3.152   5.001  0.3868 -0.9911  0.4470
  877MOL0     H18340  -0.578   2.915   5.069  0.6100 -0.5255  4.3524
  877MOL0     H18341  -0.731   2.974   5.140 -0.2347  3.1787 -1.1090
  877MOL0     H18342  -0.645   2.973   4.836 -1.2489 -1.4111 -1.1386
  877MOL0     H18343  -0.757   2.871   4.934 -0.0383  0.1548  3.7593
  877MOL0     H18344  -0.822   3.160   4.913 -0.2320 -0.2303  1.5293
  877MOL0     H18345  -0.919   3.007   4.942 -0.1046 -1.1840 -1.8251
  877MOL0     H18346  -0.689   3.118   4.631 -0.3604  1.0470 -1.4716
  877MOL0     H18347  -0.747   2.959   4.346  1.4597  1.4573  0.7595
  877MOL0     H18348  -0.920   2.999   4.326  0.3480 -1.6470 -1.0075
  877MOL0     H18349  -0.709   3.188   4.373 -1.2578 -3.5909  4.4133
  877MOL0     H18350  -0.879   3.231   4.382  2.2374  4.2045 -2.4162
  877MOL0     H18351  -0.933   3.191   4.171  0.6053  2.0754  2.8572
  877MOL0     H18352  -0.821   3.060   4.134 -0.3262 -0.8561 -0.8820
  877MOL0     H18353  -0.823   3.296   4.044 -1.9842 -2.2604  0.5173
  877MOL0     H18354  -0.690   3.191   4.030  1.1951 -3.0376  2.6813
  877MOL0     H18355  -0.687   3.413   3.911 -1.0008  0.8627 -0.6634
  877MOL0     H18356  -0.662   3.521   3.715 -1.3808  0.6635  1.6383
  877MOL0     H18357  -0.604   3.692   3.728 -0.2825  0.2170 -0.2437
  877MOL0     H18358  -0.493   3.554   3.685  1.1254 -1.7217  0.4587
  877MOL0     H18359  -0.387   4.057   4.063 -0.1146  0.7823 -0.2052
  877MOL0     H18360  -0.315   4.296   3.982 -1.1566 -1.0295 -2.5787
  877MOL0     H18361   0.129   4.358   3.888  0.0268  0.3069 -0.1943
  877MOL0     H18362   0.075   4.289   3.736  1.3119  0.4272 -0.3764
  877MOL0     H18363   0.019   4.564   3.824 -2.2911 -2.9703  2.7580
  877MOL0     H18364   0.144   4.507   3.705  0.9451 -1.0545  2.0816
  877MOL0     H18365  -0.126   4.604   3.650 -2.4039 -0.6693 -1.1519
  877MOL0     H18366  -0.139   4.431   3.651  1.4994 -1.1246 -3.8458
  877MOL0     H18367   0.043   4.601   3.484 -1.0964  0.0962  0.5733
  877MOL0     H18368   0.045   4.414   3.487  0.7380  0.8834 -0.6947
  877MOL0     H18369  -0.186   4.405   3.432 -0.3419  1.2236  5.5554
  877MOL0     H18370  -0.074   4.460   3.304 -0.8085 -0.7614  0.7557
  877MOL0     H18371  -0.248   4.643   3.469  1.3562  1.7442 -0.0862
  877MOL0     H18372  -0.126   4.683   3.347  2.1992 -2.3374  2.0147
  877MOL0     H18373  -0.282   4.585   3.180  3.8744  1.3379  1.0974
  877MOL0     H18374  -0.373   4.705   3.272 -1.4596 -0.2523 -0.0186
  877MOL0     H18375  -0.456   4.492   3.400 -1.4147 -2.1048 -0.3178
  877MOL0     H18376  -0.380   4.397   3.266 -1.1448  0.4192 -1.4049
  877MOL0     H18377   0.038   4.093   3.828 -0.2776 -1.2231 -0.4304
  877MOL0     H18378  -0.074   3.865   3.890  2.5200  0.3356  1.9189
  877MOL0     H18379  -0.368   3.673   4.177  1.7380 -2.1931 -0.2807
  877MOL0     H18380  -0.493   3.495   4.279 -0.2765 -0.6333 -0.3013
  877MOL0     H18381  -0.216   2.869   5.698  0.4890 -1.6118  0.3972
  877MOL0     H18382  -0.044   2.754   5.821 -0.8097  2.5951  0.3530
  877MOL0     H18383   0.178   2.266   5.780 -0.8439  0.9614  0.7561
  877MOL0     H18384   0.364   2.122   5.851  0.8079 -0.9134  0.2817
  877MOL0     H18385   0.508   2.223   6.123 -0.8292  0.4733 -2.0325
  877MOL0     H18386   0.527   2.064   6.050  1.4770 -1.2426  2.3247
  877MOL0     H18387   0.760   2.226   6.181  2.4282 -0.4715  0.3259
  877MOL0     H18388   0.778   2.094   6.084 -2.3001  0.4088 -1.6547
  877MOL0     H18389   0.622   2.078   6.354 -3.0691 -1.7296 -0.5310
  877MOL0     H18390   0.782   2.024   6.298 -0.7845  0.0887  0.9450
  877MOL0     H18391   0.663   1.854   6.153 -0.0439  3.4184 -1.4460
  877MOL0     H18392   0.517   1.908   6.213  0.0005  1.2407 -0.2862
  877MOL0     H18393   0.671   1.670   6.544 -0.3168 -1.1518 -1.0243
  877MOL0     H18394   0.596   2.466   5.925  0.3268 -0.4560 -1.2643
  877MOL0     H18395   0.420   2.623   5.817 -1.4578  1.0761  1.1138
  878MOL0     O18396   5.483   7.579   5.825  0.3754 -0.7048 -0.8009
  878MOL0     C18397   5.410   7.668   5.870 -0.7269 -0.5060  0.0160
  878MOL0     O18398   5.412   7.792   5.819  0.1105 -0.4055 -0.2105
  878MOL0     C18399   5.487   7.815   5.707 -0.1862  0.0434 -0.4172
  878MOL0     C18400   5.494   7.739   5.591 -0.1249  0.2005  0.6941
  878MOL0     C18401   5.567   7.770   5.481  1.0229 -0.1778  0.8946
  878MOL0     C18402   5.649   7.884   5.487 -0.0490 -0.2814  1.0304
  878MOL0     O18403   5.723   7.936   5.379 -0.7223  0.2295  0.4028
  878MOL0     C18404   5.730   7.839   5.271  0.0601 -0.4905 -0.1130
  878MOL0     C18405   5.841   7.889   5.179  0.7150 -0.8820 -0.4491
  878MOL0     C18406   5.803   8.022   5.131 -1.0193 -0.6872 -0.9393
  878MOL0     C18407   5.906   8.076   5.042 -0.1779 -0.5457  0.2349
  878MOL0     C18408   5.976   7.982   4.942  0.3527 -0.1784  0.7505
  878MOL0     C18409   6.015   8.060   4.812 -0.1699 -0.2844 -0.4035
  878MOL0     C18410   6.124   8.172   4.846  1.4804  0.5122 -0.2343
  878MOL0     C18411   6.225   8.225   4.737  0.1879 -0.3146  0.2543
  878MOL0     N18412   6.153   8.273   4.626 -0.8468 -1.0974 -0.6192
  878MOL0     C18413   6.090   8.393   4.620 -0.3522 -0.8173  0.1508
  878MOL0     C18414   6.017   8.376   4.501 -0.8182  1.2834 -0.6324
  878MOL0     C18415   5.911   8.472   4.452 -0.2365 -0.7547  0.6069
  878MOL0     C18416   5.795   8.405   4.385 -0.3100 -0.7377  0.2474
  878MOL0     C18417   5.693   8.487   4.305 -0.5929  0.4112  0.2951
  878MOL0     C18418   5.742   8.584   4.198 -1.2497  0.3007 -0.8948
  878MOL0     O18419   5.790   8.705   4.262  0.3596  0.6997  0.2580
  878MOL0     C18420   5.833   8.805   4.194 -1.0533 -0.0942  1.1622
  878MOL0     C18421   5.838   8.814   4.056  0.0715 -0.2691  0.7222
  878MOL0     C18422   5.905   8.921   3.992 -0.2791  0.1064 -0.2194
  878MOL0     C18423   5.913   8.927   3.841  0.5147 -0.2889  0.6595
  878MOL0     C18424   5.969   9.019   4.070 -0.2825 -0.6356  0.3631
  878MOL0     C18425   6.025   9.138   4.005 -0.0572 -1.1734 -1.0010
  878MOL0     O18426   6.096   9.124   3.885  0.0366  0.1145 -0.2804
  878MOL0     C18427   6.169   9.237   3.846 -0.5044  1.0199 -0.2132
  878MOL0     C18428   6.308   9.228   3.838 -1.0034 -1.6648  0.9762
  878MOL0     C18429   6.378   9.346   3.790 -0.5888  0.2265 -0.0244
  878MOL0     C18430   6.310   9.462   3.757 -0.2360  0.8070 -0.9726
  878MOL0     O18431   6.384   9.567   3.717  0.0091 -0.3086  0.0249
  878MOL0     C18432   6.347   9.633   3.601  0.4207  0.1593  0.0219
  878MOL0     C18433   6.450   9.741   3.574 -0.1091 -0.3351  0.6921
  878MOL0     C18434   6.557   9.694   3.467  0.3406  0.7814 -1.2717
  878MOL0     C18435   6.632   9.569   3.516 -0.7815 -0.2775  0.7439
  878MOL0     C18436   6.736   9.518   3.411 -0.0407 -0.9184 -0.3476
  878MOL0     C18437   6.662   9.416   3.317  0.4376  0.6358 -0.8500
  878MOL0     C18438   6.743   9.387   3.192 -0.3075  0.4083  0.4211
  878MOL0     C18439   6.864   9.286   3.214  0.1153 -0.2867 -0.6989
  878MOL0    Cl18440   6.830   9.121   3.176 -0.4679 -0.0448 -0.1143
  878MOL0     C18441   6.171   9.457   3.776 -1.1150 -0.2474  1.3459
  878MOL0     C18442   6.104   9.355   3.814  0.0512  0.4439 -0.2487
  878MOL0     O18443   6.014   9.242   4.077  0.5326  0.0917  0.9664
  878MOL0     C18444   5.960   9.005   4.212  0.4753  0.4743 -0.3771
  878MOL0     C18445   5.888   8.901   4.267  0.2481 -0.1192 -0.4051
  878MOL0     N18446   6.050   8.259   4.433  0.6233  0.0949  0.2550
  878MOL0     N18447   6.126   8.205   4.515 -0.7835  1.0316  0.5432
  878MOL0     C18448   5.655   7.957   5.601 -0.8067 -0.6735 -0.4226
  878MOL0     C18449   5.579   7.926   5.713 -0.3236  0.0050  0.2531
  878MOL0     C18450   5.323   7.648   5.981  0.6199  0.4161 -0.2724
  878MOL0     C18451   5.310   7.750   6.078  0.0869 -0.4025 -0.2776
  878MOL0     C18452   5.207   7.731   6.173  0.1973  0.3234  1.1015
  878MOL0     C18453   5.118   7.621   6.174 -0.4544 -0.6228 -1.1626
  878MOL0     O18454   5.029   7.621   6.281  0.4701  0.3509  0.6763
  878MOL0     C18455   4.945   7.505   6.289  0.1887 -0.6427 -0.0356
  878MOL0     C18456   5.027   7.405   6.373  0.8357 -0.1789 -0.0136
  878MOL0     C18457   5.025   7.450   6.514  0.0423 -0.4871 -0.1408
  878MOL0     C18458   4.879   7.424   6.578  0.2117  0.2721 -0.3761
  878MOL0     C18459   4.897   7.460   6.718 -0.2526 -0.1966  0.2880
  878MOL0     C18460   4.926   7.502   6.820 -0.0368  0.0908  0.5960
  878MOL0     C18461   5.157   7.518   6.094 -0.0063  1.4843 -0.0662
  878MOL0     C18462   5.254   7.525   5.988  0.4312 -0.0623 -0.6453
  878MOL0     H18463   5.429   7.653   5.573 -0.7926  1.0635 -1.3403
  878MOL0     H18464   5.555   7.699   5.401  0.3206 -0.1442  0.9615
  878MOL0     H18465   5.746   7.739   5.311 -0.3285 -0.5071  0.0067
  878MOL0     H18466   5.638   7.836   5.211 -0.4217  0.8416  0.5191
  878MOL0     H18467   5.937   7.902   5.230  0.6116  2.1322 -0.8252
  878MOL0     H18468   5.847   7.811   5.102  3.1399 -3.3408  2.0087
  878MOL0     H18469   5.713   8.014   5.070 -2.6180  0.2128  1.1733
  878MOL0     H18470   5.793   8.100   5.207  3.5743  0.2774 -1.0543
  878MOL0     H18471   5.862   8.153   4.977  0.5624 -2.3742 -2.6294
  878MOL0     H18472   5.987   8.125   5.096 -2.4023  0.9758  2.4217
  878MOL0     H18473   6.056   7.922   4.986  1.8889 -0.3213 -1.9888
  878MOL0     H18474   5.905   7.910   4.899  0.5549  0.0224  0.0622
  878MOL0     H18475   6.058   7.989   4.742  1.3818  0.5277 -0.3176
  878MOL0     H18476   5.926   8.108   4.770  0.9704  0.0741 -2.5134
  878MOL0     H18477   6.069   8.261   4.878  0.0605  0.8471 -3.2728
  878MOL0     H18478   6.182   8.143   4.935  1.6755 -0.9393 -0.8098
  878MOL0     H18479   6.290   8.141   4.710  0.7416  0.3110 -0.3788
  878MOL0     H18480   6.286   8.308   4.771  0.4817  0.1244 -1.2546
  878MOL0     H18481   6.084   8.469   4.697  2.1112 -1.2065  0.8033
  878MOL0     H18482   5.869   8.536   4.531 -2.0123  2.2341 -2.4507
  878MOL0     H18483   5.958   8.546   4.386 -2.5227  0.6795  0.4421
  878MOL0     H18484   5.739   8.354   4.464  0.5295  0.4810  1.6820
  878MOL0     H18485   5.836   8.330   4.316 -1.0244 -1.6817  0.8330
  878MOL0     H18486   5.618   8.539   4.365  0.5024  4.6924 -1.6784
  878MOL0     H18487   5.637   8.406   4.257  0.1935 -0.0729  0.1830
  878MOL0     H18488   5.655   8.615   4.140 -0.9747  3.1523  0.0511
  878MOL0     H18489   5.821   8.532   4.142 -1.8165 -2.8209  1.0160
  878MOL0     H18490   5.787   8.740   3.994 -1.5033 -0.0119  1.6473
  878MOL0     H18491   5.861   9.016   3.806  0.3336  0.1726  2.0339
  878MOL0     H18492   6.014   8.932   3.800 -0.5740  1.6935 -2.0965
  878MOL0     H18493   5.872   8.842   3.786 -1.2180  0.4457  0.7455
  878MOL0     H18494   6.356   9.134   3.863 -0.0786 -1.5591 -0.2883
  878MOL0     H18495   6.485   9.349   3.771 -1.1911  1.1029 -4.7212
  878MOL0     H18496   6.331   9.576   3.508 -0.6659  2.8062 -1.5342
  878MOL0     H18497   6.253   9.687   3.617  0.1606  0.0729 -1.0918
  878MOL0     H18498   6.395   9.829   3.539  0.7796 -0.0107  0.0751
  878MOL0     H18499   6.505   9.772   3.663 -0.1662  2.1230 -0.0427
  878MOL0     H18500   6.622   9.781   3.460 -1.6170  2.5099  0.6150
  878MOL0     H18501   6.498   9.681   3.376  1.8276  0.4116 -2.2176
  878MOL0     H18502   6.685   9.597   3.607  0.6137  0.8179 -0.3455
  878MOL0     H18503   6.561   9.489   3.541 -1.9936 -0.2264 -2.1315
  878MOL0     H18504   6.826   9.475   3.456 -0.0840 -1.1805 -0.5101
  878MOL0     H18505   6.768   9.592   3.337 -1.8462 -0.0429 -0.3045
  878MOL0     H18506   6.630   9.326   3.370 -3.5075  2.3610  0.0503
  878MOL0     H18507   6.565   9.451   3.281  0.4123  0.3112 -1.1007
  878MOL0     H18508   6.787   9.477   3.149  0.6174 -0.5172 -0.6603
  878MOL0     H18509   6.681   9.349   3.110 -0.6124 -0.3034  0.9743
  878MOL0     H18510   6.910   9.298   3.313 -3.7210 -0.2925  1.3027
  878MOL0     H18511   6.936   9.321   3.140  0.8644 -0.3372 -0.0153
  878MOL0     H18512   6.116   9.550   3.766 -1.7669 -0.5630  1.8928
  878MOL0     H18513   5.997   9.344   3.800 -0.0448  1.1992 -0.1472
  878MOL0     H18514   6.012   9.075   4.277  0.0283 -1.2213  1.9299
  878MOL0     H18515   5.888   8.890   4.375  3.5212  1.8026 -0.0698
  878MOL0     H18516   5.734   8.032   5.605 -0.8398 -0.6306 -0.5404
  878MOL0     H18517   5.575   7.989   5.801 -0.3878  1.8033 -0.9724
  878MOL0     H18518   5.367   7.842   6.063  1.8921 -0.9187  2.5640
  878MOL0     H18519   5.222   7.809   6.247  0.9310  3.4720 -2.1115
  878MOL0     H18520   4.857   7.528   6.349  0.8588  0.5295  0.5284
  878MOL0     H18521   4.908   7.471   6.192 -1.1560  0.9177 -0.1246
  878MOL0     H18522   5.127   7.389   6.331  0.1607  2.2641 -2.9447
  878MOL0     H18523   4.973   7.312   6.357 -2.2950  1.4277  0.4843
  878MOL0     H18524   5.055   7.556   6.519 -4.4642  0.9510  1.1202
  878MOL0     H18525   5.107   7.413   6.577 -1.0403  0.9483  2.2572
  878MOL0     H18526   4.848   7.320   6.572 -0.4022  0.4565 -0.4556
  878MOL0     H18527   4.796   7.483   6.539 -0.1382  0.9543  1.3242
  878MOL0     H18528   4.964   7.541   6.912  0.1669  0.9493  0.1698
  878MOL0     H18529   5.108   7.423   6.075  0.5118  1.7184 -3.0326
  878MOL0     H18530   5.266   7.436   5.927  1.2191 -2.2166  2.3770
  879MOL0     O18531   7.650  10.932  10.594  0.7362 -0.1261  0.4322
  879MOL0     C18532   7.748  10.997  10.600  0.0124 -0.2073  0.1010
  879MOL0     O18533   7.776  11.097  10.512 -0.5833 -0.4075 -0.1442
  879MOL0     C18534   7.680  11.130  10.411 -0.3677  0.3229  0.6025
  879MOL0     C18535   7.722  11.161  10.280  0.8492 -0.4752  0.3096
  879MOL0     C18536   7.638  11.195  10.168 -1.0398  0.3998 -0.5382
  879MOL0     C18537   7.499  11.197  10.190  0.7045  1.2033 -0.8123
  879MOL0     O18538   7.425  11.205  10.071  0.6388 -0.1721 -0.0760
  879MOL0     C18539   7.319  11.109  10.064 -0.2534  0.3518 -0.1938
  879MOL0     C18540   7.285  11.127   9.919  0.3209 -0.0069  0.1932
  879MOL0     C18541   7.168  11.049   9.871  0.2279  0.7389 -0.7867
  879MOL0     C18542   7.191  10.897   9.856 -0.6332  0.3291 -0.2117
  879MOL0     C18543   7.073  10.826   9.787  0.2220 -0.4638  0.1923
  879MOL0     C18544   7.082  10.679   9.782 -0.2309 -0.4293  0.2327
  879MOL0     C18545   7.088  10.605   9.912  0.6430  0.7170  0.8380
  879MOL0     C18546   7.089  10.451   9.885 -0.3920 -0.1185 -0.6816
  879MOL0     N18547   6.961  10.395   9.840  0.0573  0.2389 -0.3304
  879MOL0     C18548   6.852  10.351   9.911  0.2816 -0.5371 -1.2964
  879MOL0     C18549   6.768  10.287   9.825 -0.4751  0.5137 -0.1220
  879MOL0     C18550   6.647  10.201   9.854  0.8649  0.7089  0.7566
  879MOL0     C18551   6.525  10.222   9.769 -0.4240  0.2838 -1.4083
  879MOL0     C18552   6.408  10.134   9.805  0.0908  0.7511 -0.5506
  879MOL0     C18553   6.280  10.194   9.765  0.2377  0.0093 -0.4356
  879MOL0     O18554   6.191  10.159   9.873 -0.4607 -0.2830 -0.0398
  879MOL0     C18555   6.136  10.035   9.884 -0.2780  0.4891 -0.6042
  879MOL0     C18556   6.159   9.924   9.796 -0.5261  0.4208  0.1772
  879MOL0     C18557   6.111   9.793   9.818 -0.8423  0.1771  0.5162
  879MOL0     C18558   6.140   9.690   9.708 -1.0289 -0.5489  1.2792
  879MOL0     C18559   6.051   9.763   9.945 -0.6745 -0.8731 -0.2032
  879MOL0     C18560   5.973   9.641   9.978 -0.8120 -0.8044  0.3737
  879MOL0     O18561   5.849   9.626   9.925  0.8771  0.1570 -0.0631
  879MOL0     C18562   5.784   9.744   9.893  1.1301  0.3742  0.7211
  879MOL0     C18563   5.714   9.814   9.987  0.8365 -0.3143  0.7123
  879MOL0     C18564   5.640   9.929   9.965  0.2215  0.1399  0.0762
  879MOL0     C18565   5.630   9.975   9.834 -0.0330 -1.1159 -0.2442
  879MOL0     O18566   5.556  10.094   9.811 -0.8338  0.2780  0.0495
  879MOL0     C18567   5.441  10.131   9.896  0.1751  0.6359  0.2515
  879MOL0     C18568   5.327  10.024   9.892  0.3471  0.3959  0.1617
  879MOL0     C18569   5.191  10.082   9.906 -0.3215  0.4197  1.4088
  879MOL0     C18570   5.078   9.981   9.905  0.0859  0.4002  0.0725
  879MOL0     C18571   4.946  10.046   9.952  0.0390 -0.1586 -0.2585
  879MOL0     C18572   4.906  10.179   9.901  0.7397  0.2957  0.3322
  879MOL0     C18573   4.839  10.168   9.764 -0.7501  1.1585 -0.5183
  879MOL0     C18574   4.782  10.298   9.739  0.1261 -0.0898 -0.6665
  879MOL0    Cl18575   4.655  10.341   9.863  0.2462 -0.3572  0.0027
  879MOL0     C18576   5.694   9.911   9.732  0.8185  1.1606 -0.0960
  879MOL0     C18577   5.769   9.790   9.756 -0.1520 -0.0640 -0.1795
  879MOL0     O18578   6.030   9.551  10.040 -0.4430  0.0445 -0.2999
  879MOL0     C18579   6.045   9.867  10.039  1.0240 -0.7531  0.5781
  879MOL0     C18580   6.083  10.001  10.009 -0.4005 -0.8137 -0.2481
  879MOL0     N18581   6.831  10.290   9.701  0.7560  0.5663  0.1020
  879MOL0     N18582   6.935  10.365   9.708  0.2635 -0.2162 -0.5947
  879MOL0     C18583   7.450  11.159  10.318 -0.1017 -0.2637  0.3118
  879MOL0     C18584   7.538  11.131  10.425  0.7838 -0.0257 -0.1374
  879MOL0     C18585   7.853  10.943  10.699  0.2391 -0.5055 -0.2283
  879MOL0     C18586   7.973  11.009  10.714  0.4501  0.8100  0.6339
  879MOL0     C18587   8.079  10.971  10.797  0.3931  0.4365  0.1181
  879MOL0     C18588   8.072  10.859  10.881  0.0311 -0.3181  0.9472
  879MOL0     O18589   8.159  10.819  10.965 -0.2509 -0.2969 -0.0072
  879MOL0     C18590   8.222  10.929  11.039 -1.2120  0.1917  0.1495
  879MOL0     C18591   8.132  10.981  11.148  0.2297  0.0904 -0.0245
  879MOL0     C18592   8.053  10.877  11.224  0.4561  0.7195 -0.0739
  879MOL0     C18593   8.121  10.800  11.340  0.2541 -1.2348  0.8743
  879MOL0     C18594   8.227  10.709  11.291  0.1492 -0.4930  1.1482
  879MOL0     C18595   8.319  10.635  11.245  0.2357  0.0517 -0.1088
  879MOL0     C18596   7.956  10.788  10.875  0.0835  0.1906 -0.5738
  879MOL0     C18597   7.855  10.821  10.781 -0.2975 -0.7406 -0.6942
  879MOL0     H18598   7.829  11.163  10.260  0.8863  0.5547  0.5548
  879MOL0     H18599   7.673  11.213  10.067  0.9418  1.2371  0.2433
  879MOL0     H18600   7.360  11.008  10.072 -2.3128 -1.0548 -4.3989
  879MOL0     H18601   7.241  11.130  10.138  1.0618  3.1886  0.5182
  879MOL0     H18602   7.255  11.232   9.917 -0.8681 -0.3316  0.3225
  879MOL0     H18603   7.372  11.101   9.858  0.4463 -0.6700  0.6522
  879MOL0     H18604   7.079  11.071   9.930  0.2814 -2.0850  0.5624
  879MOL0     H18605   7.146  11.077   9.768 -2.4956 -1.8748 -1.0469
  879MOL0     H18606   7.288  10.871   9.813 -0.3006  0.9007  0.1790
  879MOL0     H18607   7.203  10.864   9.960 -0.0638  0.6519 -0.1773
  879MOL0     H18608   6.974  10.856   9.825  0.1039 -1.3948  0.6344
  879MOL0     H18609   7.073  10.851   9.681 -0.2904 -0.5486  0.1664
  879MOL0     H18610   6.986  10.652   9.738 -0.0403 -0.0823 -0.4155
  879MOL0     H18611   7.166  10.659   9.715 -0.3832  1.6075 -0.6299
  879MOL0     H18612   7.176  10.636   9.969  0.6189  1.8782  0.2731
  879MOL0     H18613   7.007  10.649   9.970  0.4704  3.7295 -1.4313
  879MOL0     H18614   7.123  10.391   9.970  0.1800  0.4321 -0.5135
  879MOL0     H18615   7.158  10.424   9.805 -0.7160 -0.1080 -0.9670
  879MOL0     H18616   6.845  10.360  10.019  1.7472  4.3451 -1.3707
  879MOL0     H18617   6.681  10.097   9.852 -0.6529  0.1881 -1.2061
  879MOL0     H18618   6.615  10.236   9.953 -3.9027  1.7110 -0.8537
  879MOL0     H18619   6.558  10.201   9.667 -2.6358 -2.1198 -1.7397
  879MOL0     H18620   6.502  10.328   9.765  1.3647  0.6740 -2.7410
  879MOL0     H18621   6.406  10.123   9.914  3.0863  2.3211 -0.2389
  879MOL0     H18622   6.420  10.032   9.765 -1.4932  0.7186 -1.0136
  879MOL0     H18623   6.250  10.154   9.667 -1.1880  1.7007 -0.7462
  879MOL0     H18624   6.286  10.303   9.765  0.2603  0.0078 -0.4827
  879MOL0     H18625   6.210   9.941   9.702 -2.9219  3.5344 -0.7457
  879MOL0     H18626   6.249   9.693   9.702 -0.9583  2.0853  2.3668
  879MOL0     H18627   6.108   9.589   9.736  0.8281 -1.2594  0.9725
  879MOL0     H18628   6.100   9.717   9.610  5.7002  4.5989 -0.8177
  879MOL0     H18629   5.704   9.784  10.091 -1.1791  2.9664  1.5988
  879MOL0     H18630   5.604   9.975  10.056 -1.1303 -2.2983  0.8702
  879MOL0     H18631   5.479  10.140   9.998  2.4091 -3.0351 -0.0502
  879MOL0     H18632   5.409  10.229   9.861  3.3197  1.3765 -0.8360
  879MOL0     H18633   5.344   9.977   9.795 -0.0137 -0.0316  0.2991
  879MOL0     H18634   5.349   9.946   9.965 -1.1806 -0.3847 -0.1559
  879MOL0     H18635   5.177  10.163   9.834  0.7581  0.2975  1.0476
  879MOL0     H18636   5.199  10.127  10.005  1.7982 -2.5270  2.7391
  879MOL0     H18637   5.065   9.943   9.803  0.3169  1.5273 -0.3895
  879MOL0     H18638   5.102   9.898   9.972  2.7713  1.6052  0.7071
  879MOL0     H18639   4.961  10.065  10.059 -2.3889 -1.0738  0.3213
  879MOL0     H18640   4.862   9.976   9.948  1.5963 -2.0645 -1.0738
  879MOL0     H18641   4.852  10.224   9.985  2.2666  0.5017  1.2400
  879MOL0     H18642   4.987  10.249   9.881  0.5604 -0.0318 -1.8129
  879MOL0     H18643   4.759  10.093   9.765  0.7665 -0.5348 -0.8925
  879MOL0     H18644   4.909  10.142   9.684 -3.0767 -2.9726 -1.5277
  879MOL0     H18645   4.726  10.285   9.646 -0.0220  0.9149 -0.7322
  879MOL0     H18646   4.852  10.382   9.728 -1.9871  2.5320  3.4564
  879MOL0     H18647   5.684   9.941   9.628  1.6272 -0.3025 -0.6229
  879MOL0     H18648   5.807   9.742   9.666 -2.0159 -2.6040  0.2978
  879MOL0     H18649   6.005   9.862  10.140 -0.5980  2.8250  0.2644
  879MOL0     H18650   6.063  10.076  10.085 -0.7859 -0.0769 -1.0609
  879MOL0     H18651   7.342  11.162  10.326 -0.0715  0.7760  0.5056
  879MOL0     H18652   7.489  11.098  10.516  0.2627 -2.7062 -1.2986
  879MOL0     H18653   7.986  11.101  10.657 -0.3059  0.3878 -0.2457
  879MOL0     H18654   8.160  11.043  10.805  1.2272 -0.3127 -1.1853
  879MOL0     H18655   8.314  10.880  11.072  0.0034  0.8459 -2.0838
  879MOL0     H18656   8.262  11.007  10.973 -1.6154 -1.1275 -1.7443
  879MOL0     H18657   8.077  11.062  11.100 -1.3608 -1.0264 -0.1684
  879MOL0     H18658   8.191  11.032  11.225  0.0332 -1.0581  0.9231
  879MOL0     H18659   8.025  10.799  11.152  2.6574 -1.4032  1.2334
  879MOL0     H18660   7.971  10.932  11.272 -0.2761 -1.2770  1.0638
  879MOL0     H18661   8.044  10.756  11.403 -2.2124  2.7599  0.9598
  879MOL0     H18662   8.175  10.871  11.403  2.4356  0.0425 -2.1555
  879MOL0     H18663   8.405  10.577  11.220  0.3246  0.4520 -0.7668
  879MOL0     H18664   7.946  10.710  10.951 -0.3428  0.6832 -0.1115
  879MOL0     H18665   7.764  10.761  10.786 -0.1054 -0.9906  0.0209
  880MOL0     O18666   9.435   0.827  11.301  0.1275 -0.1311  0.4321
  880MOL0     C18667   9.433   0.737  11.388 -0.1812  1.0928 -0.3235
  880MOL0     O18668   9.529   0.707  11.481 -0.1316 -0.0266  0.8290
  880MOL0     C18669   9.622   0.803  11.495  0.0434 -0.5032 -0.9090
  880MOL0     C18670   9.759   0.757  11.496  0.0374  0.2343 -0.3753
  880MOL0     C18671   9.860   0.847  11.533  0.3212 -0.8975  1.0341
  880MOL0     C18672   9.826   0.986  11.560  0.4920 -0.4931  0.0985
  880MOL0     O18673   9.917   1.081  11.595  0.3662  1.1367 -0.1510
  880MOL0     C18674  10.001   1.125  11.485 -0.4573 -0.2256 -0.0834
  880MOL0     C18675   9.931   1.220  11.392 -0.3968  0.1987  1.1061
  880MOL0     C18676  10.050   1.294  11.306 -0.1455  0.5519  0.6067
  880MOL0     C18677   9.981   1.405  11.224 -1.2262 -0.1385  0.5225
  880MOL0     C18678  10.095   1.500  11.177  0.0608 -0.5480  1.1674
  880MOL0     C18679  10.088   1.628  11.259 -0.6319  0.2254  0.0862
  880MOL0     C18680  10.202   1.722  11.216  0.0760 -0.1209  1.0135
  880MOL0     C18681  10.329   1.688  11.285 -1.6130  0.1219  0.9671
  880MOL0     N18682  10.434   1.792  11.259  0.9416  0.4233  0.1546
  880MOL0     C18683  10.477   1.828  11.138  0.7229  1.3161  0.0029
  880MOL0     C18684  10.581   1.911  11.161 -0.0056 -0.0313  0.0307
  880MOL0     C18685  10.680   1.955  11.069 -0.4291 -0.1110  0.3724
  880MOL0     C18686  10.654   2.099  11.023  0.1344 -0.9871  0.3492
  880MOL0     C18687  10.740   2.145  10.897 -0.7178 -0.1838  0.5208
  880MOL0     C18688  10.694   2.280  10.855  0.6922 -0.5303 -0.1072
  880MOL0     O18689  10.753   2.369  10.947  0.3034  0.5234  0.1140
  880MOL0     C18690  10.697   2.498  10.950 -0.9798  0.7126 -0.0734
  880MOL0     C18691  10.742   2.574  11.057  0.1821  0.2900 -0.3794
  880MOL0     C18692  10.696   2.705  11.068 -0.0436  0.9418 -0.5576
  880MOL0     C18693  10.775   2.795  11.169  0.5778  1.1245  0.3618
  880MOL0     C18694  10.599   2.755  10.980 -0.9957 -0.6108  1.0442
  880MOL0     C18695  10.552   2.902  10.976  0.4257  0.2591  0.1476
  880MOL0     O18696  10.650   3.004  10.995  0.1350 -0.2791 -0.9808
  880MOL0     C18697  10.603   3.135  10.986 -0.2761 -0.2724 -0.5510
  880MOL0     C18698  10.505   3.177  11.082  0.0816  0.1599  0.5164
  880MOL0     C18699  10.481   3.317  11.091 -0.1070 -0.3575 -0.1755
  880MOL0     C18700  10.543   3.416  11.012  0.0378  0.0837 -0.2210
  880MOL0     O18701  10.509   3.551  11.015  0.4136  0.0898 -0.0572
  880MOL0     C18702  10.603   3.658  10.981  0.0675  0.1384 -0.1950
  880MOL0     C18703  10.730   3.656  11.075  0.8430  0.2103 -0.5362
  880MOL0     C18704  10.855   3.568  11.041  1.0786 -0.1466  0.2384
  880MOL0     C18705  10.944   3.646  10.941 -0.4541  0.0965  0.6364
  880MOL0     C18706  11.064   3.581  10.866  0.9080  0.9942  0.1092
  880MOL0     C18707  11.136   3.668  10.761  0.1995 -0.1391 -0.3605
  880MOL0     C18708  11.103   3.637  10.613 -0.4316  0.3296  0.2803
  880MOL0     C18709  11.119   3.763  10.529 -0.3094 -0.4378  0.7155
  880MOL0    Cl18710  10.999   3.872  10.552  0.6975  0.0078  0.0935
  880MOL0     C18711  10.626   3.363  10.910  1.3128 -0.8375 -0.1369
  880MOL0     C18712  10.659   3.231  10.904 -0.4540 -0.2717  0.4619
  880MOL0     O18713  10.434   2.921  10.936  0.0663 -0.0954 -0.2427
  880MOL0     C18714  10.540   2.672  10.894 -0.0227  0.5138 -0.7052
  880MOL0     C18715  10.601   2.545  10.870  0.1240 -0.0845  0.2594
  880MOL0     N18716  10.594   1.929  11.295  0.2406  0.4436 -0.5722
  880MOL0     N18717  10.513   1.848  11.355  0.3531  0.2736  0.3730
  880MOL0     C18718   9.691   1.031  11.558 -0.2323 -0.4230 -0.7184
  880MOL0     C18719   9.589   0.938  11.529  0.8568  0.4766  0.1783
  880MOL0     C18720   9.319   0.644  11.390 -0.7131  0.8861  0.5264
  880MOL0     C18721   9.219   0.654  11.291  0.4064  0.2366  0.6014
  880MOL0     C18722   9.114   0.566  11.277  0.2101  0.1990 -0.3459
  880MOL0     C18723   9.103   0.456  11.362 -0.0481 -0.6320 -0.0679
  880MOL0     O18724   9.002   0.361  11.350 -0.6859  0.0288 -0.3475
  880MOL0     C18725   9.031   0.215  11.337  0.4862 -0.0599  0.4518
  880MOL0     C18726   9.138   0.178  11.234 -0.2147  0.7260 -0.2620
  880MOL0     C18727   9.287   0.177  11.272  0.3285 -0.8633 -0.1450
  880MOL0     C18728   9.377   0.092  11.186  0.3199  0.6221  0.5505
  880MOL0     C18729   9.507   0.150  11.150  0.5846  0.4865  0.2642
  880MOL0     C18730   9.616   0.189  11.125 -0.0764 -0.7003  0.1660
  880MOL0     C18731   9.215   0.435  11.464  0.3783  0.4150  0.4637
  880MOL0     C18732   9.319   0.539  11.480 -0.5589  0.4621  0.1156
  880MOL0     H18733   9.777   0.652  11.477 -1.5417 -0.4824  1.7205
  880MOL0     H18734   9.958   0.806  11.514 -0.3378 -1.0745 -2.7800
  880MOL0     H18735  10.093   1.163  11.530 -0.5377 -2.1590  1.8849
  880MOL0     H18736  10.041   1.039  11.432  0.2585 -1.7592  2.7174
  880MOL0     H18737   9.874   1.170  11.313  3.5683 -1.3283 -1.0863
  880MOL0     H18738   9.865   1.293  11.441 -2.5818 -2.0970  1.7850
  880MOL0     H18739  10.111   1.342  11.383  0.1818  0.0318  0.6770
  880MOL0     H18740  10.109   1.223  11.247 -0.0148  0.0646  1.3125
  880MOL0     H18741   9.932   1.370  11.133 -0.0022 -0.2710 -0.1132
  880MOL0     H18742   9.905   1.462  11.277 -2.8097  1.4286 -3.0673
  880MOL0     H18743  10.196   1.459  11.181 -0.0463 -0.9137  0.3330
  880MOL0     H18744  10.083   1.534  11.073  0.3147  1.8999  1.8661
  880MOL0     H18745   9.995   1.683  11.243 -0.0870  0.3176 -3.5509
  880MOL0     H18746  10.103   1.595  11.362  0.8879  0.3498 -0.0685
  880MOL0     H18747  10.226   1.703  11.111  1.4020 -0.3855  1.3406
  880MOL0     H18748  10.187   1.831  11.220 -2.0277 -0.4057  2.6489
  880MOL0     H18749  10.358   1.590  11.248  1.2514  0.5137  1.9657
  880MOL0     H18750  10.311   1.667  11.391 -2.7832 -0.7135  0.6317
  880MOL0     H18751  10.440   1.806  11.039  0.0052  3.6248 -0.2953
  880MOL0     H18752  10.774   1.968  11.123  0.1324  2.9650 -1.1516
  880MOL0     H18753  10.698   1.881  10.990  0.5948  0.0568  0.4265
  880MOL0     H18754  10.665   2.170  11.106 -2.7972 -1.4885  1.2987
  880MOL0     H18755  10.553   2.095  10.982 -0.0617  0.0237  0.6988
  880MOL0     H18756  10.739   2.082  10.807  2.5568  0.9263 -0.4342
  880MOL0     H18757  10.840   2.153  10.941 -1.2371 -0.0029  1.7186
  880MOL0     H18758  10.587   2.289  10.875  0.4265 -0.0489 -1.6272
  880MOL0     H18759  10.713   2.298  10.749  2.1908  0.1306  0.2321
  880MOL0     H18760  10.820   2.538  11.124 -1.9009 -0.1390  1.9264
  880MOL0     H18761  10.861   2.851  11.132  1.1731 -0.1149 -0.2091
  880MOL0     H18762  10.708   2.866  11.217  2.3554  2.7004  0.6088
  880MOL0     H18763  10.811   2.737  11.254  1.6486  1.7451  0.3457
  880MOL0     H18764  10.461   3.109  11.154  3.1337 -3.0451 -0.3535
  880MOL0     H18765  10.403   3.350  11.158  0.5293  2.9014 -0.8690
  880MOL0     H18766  10.636   3.647  10.877  0.3082  3.9898 -0.6856
  880MOL0     H18767  10.546   3.752  10.979  0.2762  0.2790 -2.6468
  880MOL0     H18768  10.758   3.762  11.081  0.0677  0.3721  0.6014
  880MOL0     H18769  10.703   3.632  11.178 -2.0540  2.3682 -0.6728
  880MOL0     H18770  10.829   3.472  10.996  3.4727 -0.6670 -0.1937
  880MOL0     H18771  10.908   3.560  11.136  0.7922 -0.7562  0.3487
  880MOL0     H18772  10.882   3.700  10.869 -0.3085  1.1058  1.2463
  880MOL0     H18773  10.984   3.731  10.998 -1.7737  2.1980 -1.4000
  880MOL0     H18774  11.053   3.486  10.813  1.2092  1.1279 -0.2010
  880MOL0     H18775  11.139   3.560  10.943  2.0340  2.8747 -0.3985
  880MOL0     H18776  11.106   3.771  10.779 -0.7674 -0.3206 -0.8430
  880MOL0     H18777  11.244   3.666  10.771  0.3690 -0.6071 -1.9822
  880MOL0     H18778  10.997   3.608  10.613 -0.6502  1.0934 -0.0315
  880MOL0     H18779  11.157   3.548  10.581 -0.4876  0.9290 -1.5647
  880MOL0     H18780  11.126   3.746  10.421 -0.0163 -1.2833  0.8640
  880MOL0     H18781  11.214   3.816  10.541 -0.6120  0.4442 -0.5090
  880MOL0     H18782  10.676   3.429  10.840  0.3564 -0.7155 -0.7160
  880MOL0     H18783  10.729   3.191  10.831  0.9055 -0.1566  1.6572
  880MOL0     H18784  10.473   2.719  10.822  0.5823  1.7510 -0.5055
  880MOL0     H18785  10.569   2.480  10.789 -1.8398 -0.4477  1.2725
  880MOL0     H18786   9.684   1.137  11.575 -1.1130 -0.2563 -2.0050
  880MOL0     H18787   9.487   0.973  11.532  0.4583 -0.6689  0.6667
  880MOL0     H18788   9.215   0.734  11.218 -1.3076 -3.2481 -3.5559
  880MOL0     H18789   9.038   0.581  11.201 -0.1589  1.6497  0.2777
  880MOL0     H18790   9.059   0.184  11.438  1.9922 -1.9992 -0.5087
  880MOL0     H18791   8.936   0.165  11.315  0.7784  0.2791 -1.8020
  880MOL0     H18792   9.122   0.246  11.151 -2.0886  0.0888 -0.4788
  880MOL0     H18793   9.111   0.078  11.200  0.5121  0.2252  0.5762
  880MOL0     H18794   9.299   0.144  11.376 -0.1739  0.3400  0.3153
  880MOL0     H18795   9.323   0.280  11.277 -2.3092  0.3183 -2.4889
  880MOL0     H18796   9.329   0.052  11.096  0.4603  2.1187 -0.2307
  880MOL0     H18797   9.398   0.000  11.241  2.2113  0.7811  0.1572
  880MOL0     H18798   9.715   0.229  11.110 -0.4262 -0.3451 -1.3418
  880MOL0     H18799   9.208   0.353  11.536  1.8151 -0.6830 -0.5989
  880MOL0     H18800   9.397   0.528  11.554 -1.1843  0.9838  0.8765
  881MOL0     O18801   7.767  10.529  10.894  0.5206 -0.6593  0.0975
  881MOL0     C18802   7.751  10.426  10.832 -1.5027 -0.3891 -0.5235
  881MOL0     O18803   7.641  10.352  10.849  0.4976 -0.2958 -1.1127
  881MOL0     C18804   7.560  10.378  10.961  0.1858 -0.0636 -0.1887
  881MOL0     C18805   7.613  10.359  11.087 -0.0056  0.0388 -1.3660
  881MOL0     C18806   7.531  10.387  11.200  0.5594  0.7108  0.0826
  881MOL0     C18807   7.393  10.423  11.190 -0.2584  0.0174 -0.2290
  881MOL0     O18808   7.328  10.456  11.303  0.2840 -0.8929  0.5131
  881MOL0     C18809   7.248  10.577  11.301  0.3319  0.6988 -0.2861
  881MOL0     C18810   7.102  10.537  11.276 -0.3687 -0.0306  0.9220
  881MOL0     C18811   7.014  10.592  11.388 -0.6212 -0.0277  0.2713
  881MOL0     C18812   6.881  10.525  11.401  0.0079  0.0495 -0.5296
  881MOL0     C18813   6.794  10.612  11.495 -0.3160 -0.4045  0.9086
  881MOL0     C18814   6.681  10.538  11.565  0.3148 -0.2679  0.5386
  881MOL0     C18815   6.607  10.630  11.669 -0.8129  0.1819  0.7116
  881MOL0     C18816   6.478  10.575  11.726  0.4193  0.7454 -0.5571
  881MOL0     N18817   6.425  10.647  11.840  0.2882  0.2522 -0.2375
  881MOL0     C18818   6.469  10.629  11.970 -0.0456  0.1491  0.6909
  881MOL0     C18819   6.398  10.716  12.038  0.6134  0.7348  0.3728
  881MOL0     C18820   6.402  10.730  12.192  0.8505  0.4799 -0.9240
  881MOL0     C18821   6.265  10.794  12.237  0.0836  0.3848  0.2160
  881MOL0     C18822   6.267  10.806  12.389  0.3581  0.4661  0.1787
  881MOL0     C18823   6.284  10.960  12.439 -0.1098  0.7721 -0.9541
  881MOL0     O18824   6.380  10.954  12.543 -0.3138  0.0248  0.0514
  881MOL0     C18825   6.322  10.926  12.661 -0.0043  0.2243  1.1980
  881MOL0     C18826   6.191  10.864  12.693 -0.3041 -0.7253  0.6999
  881MOL0     C18827   6.154  10.815  12.824 -0.2848 -0.0433  0.0324
  881MOL0     C18828   6.023  10.749  12.839 -0.7595 -0.9529  0.6083
  881MOL0     C18829   6.235  10.862  12.930  0.4730  0.0122 -0.8965
  881MOL0     C18830   6.216  10.830  13.076  0.8159 -0.8114 -0.3119
  881MOL0     O18831   6.268  10.919  13.163 -0.6241  0.9874 -0.9290
  881MOL0     C18832   6.233  10.925  13.296 -0.6610 -0.3488 -0.4502
  881MOL0     C18833   6.317  11.009  13.373  0.8543  0.2800  1.7633
  881MOL0     C18834   6.302  11.017  13.509  0.1460  0.0480  0.1350
  881MOL0     C18835   6.212  10.944  13.575  0.2712  0.0951 -0.8470
  881MOL0     O18836   6.209  10.953  13.716 -0.0002 -0.3919  0.0596
  881MOL0     C18837   6.161  10.842  13.797 -0.2041  0.7993  0.0449
  881MOL0     C18838   6.278  10.799  13.888 -0.1588 -0.2481 -0.6256
  881MOL0     C18839   6.271  10.679  13.982  0.2667 -0.1275  0.9840
  881MOL0     C18840   6.270  10.552  13.885  0.1364 -0.8417 -0.6400
  881MOL0     C18841   6.226  10.420  13.950 -0.4424  1.0281  0.9987
  881MOL0     C18842   6.120  10.345  13.859 -0.6072 -0.2109  0.7631
  881MOL0     C18843   5.977  10.400  13.878 -0.3382  0.5289 -0.4796
  881MOL0     C18844   5.899  10.342  13.998  0.2963 -0.5468  0.2461
  881MOL0    Cl18845   5.747  10.440  14.029  0.5278 -0.4454  0.1562
  881MOL0     C18846   6.120  10.865  13.495 -0.2644 -0.7151 -0.0365
  881MOL0     C18847   6.125  10.862  13.360 -0.0177  0.0817  1.4618
  881MOL0     O18848   6.151  10.729  13.110  0.3465 -0.2967 -0.3668
  881MOL0     C18849   6.356  10.926  12.899 -0.4245 -0.1212  0.5471
  881MOL0     C18850   6.401  10.947  12.772  0.5709 -0.2253  0.1566
  881MOL0     N18851   6.339  10.800  11.946  0.5909  0.1398 -0.5066
  881MOL0     N18852   6.350  10.756  11.826 -0.5353 -0.4427  0.7682
  881MOL0     C18853   7.344  10.422  11.064 -0.0244  0.4428 -0.4253
  881MOL0     C18854   7.422  10.407  10.948 -0.9473  0.5576 -0.1316
  881MOL0     C18855   7.861  10.381  10.738 -0.1312  0.1319 -0.1165
  881MOL0     C18856   7.968  10.461  10.702 -1.5880 -0.3259 -0.3252
  881MOL0     C18857   8.078  10.415  10.630  0.7038 -0.7632 -0.4643
  881MOL0     C18858   8.072  10.289  10.573 -0.6147  0.2683  0.1567
  881MOL0     O18859   8.175  10.261  10.484 -0.3889  1.2778  0.0721
  881MOL0     C18860   8.171  10.127  10.428  0.0939 -0.3288 -0.3468
  881MOL0     C18861   8.256  10.123  10.296  0.4919  0.0670 -0.1063
  881MOL0     C18862   8.262   9.972  10.255  0.9003 -0.7803  0.4996
  881MOL0     C18863   8.148   9.937  10.155  0.8479  0.2023  1.4304
  881MOL0     C18864   8.147   9.985  10.012  0.1482  0.7439  0.1161
  881MOL0     C18865   8.143  10.017   9.890  0.1645 -0.1327  0.2999
  881MOL0     C18866   7.965  10.202  10.609  0.7030 -0.2001 -0.1720
  881MOL0     C18867   7.859  10.243  10.685  0.4567 -0.3992 -0.5270
  881MOL0     H18868   7.716  10.326  11.093 -1.0435 -3.5272 -1.0643
  881MOL0     H18869   7.571  10.374  11.301 -1.6783  0.8086  1.0440
  881MOL0     H18870   7.259  10.636  11.392  1.2138  0.5304 -0.2761
  881MOL0     H18871   7.277  10.641  11.217  2.8058 -0.9920 -0.8087
  881MOL0     H18872   7.067  10.587  11.185 -0.5615  2.9967  2.5293
  881MOL0     H18873   7.080  10.431  11.262  0.6677 -0.3038  1.3154
  881MOL0     H18874   7.065  10.573  11.483  0.3014  1.2715  0.0507
  881MOL0     H18875   7.000  10.700  11.375  1.2174  0.1793 -0.1922
  881MOL0     H18876   6.835  10.511  11.303 -2.8616  1.4424  0.5141
  881MOL0     H18877   6.882  10.422  11.440 -2.6782  1.0096  2.5461
  881MOL0     H18878   6.855  10.656  11.575 -1.4147 -1.3213  2.3040
  881MOL0     H18879   6.760  10.699  11.438 -1.0694 -0.3132  1.4884
  881MOL0     H18880   6.610  10.498  11.492 -1.0051 -0.5458  1.9526
  881MOL0     H18881   6.722  10.454  11.622 -1.5712 -1.6038  0.0104
  881MOL0     H18882   6.681  10.659  11.745  0.5083 -2.4657  0.5700
  881MOL0     H18883   6.568  10.723  11.628  0.6317  0.8455  0.7579
  881MOL0     H18884   6.497  10.474  11.763 -1.1172  1.4858  2.5407
  881MOL0     H18885   6.392  10.584  11.658 -0.7048  1.3567  0.8841
  881MOL0     H18886   6.542  10.557  12.007  3.1430  3.5213  1.5198
  881MOL0     H18887   6.428  10.639  12.248 -0.6514 -0.7522 -2.1309
  881MOL0     H18888   6.482  10.803  12.205 -2.0731  3.4886  2.4295
  881MOL0     H18889   6.181  10.728  12.214  0.9838 -0.9859  0.7272
  881MOL0     H18890   6.264  10.896  12.198 -1.5109  1.0288  1.7676
  881MOL0     H18891   6.343  10.738  12.426 -1.0816 -0.8743  0.7690
  881MOL0     H18892   6.171  10.768  12.425  1.4084  0.1243  2.8193
  881MOL0     H18893   6.191  11.007  12.472 -0.6511  0.2967 -1.7473
  881MOL0     H18894   6.334  11.014  12.358  0.0459  2.3303  0.1575
  881MOL0     H18895   6.126  10.830  12.612  0.3676  0.3658 -0.3250
  881MOL0     H18896   6.035  10.672  12.916  2.6859 -0.6915  0.5049
  881MOL0     H18897   5.953  10.831  12.852  0.0391 -0.2857  0.8220
  881MOL0     H18898   6.014  10.708  12.738  2.3726 -2.7233  0.8802
  881MOL0     H18899   6.391  11.063  13.315  0.3756 -2.5442 -1.8794
  881MOL0     H18900   6.365  11.094  13.551  0.1375 -0.3687  0.9409
  881MOL0     H18901   6.089  10.885  13.867  1.1168  4.4071 -0.5905
  881MOL0     H18902   6.126  10.758  13.736  0.1542  0.6407  0.0530
  881MOL0     H18903   6.373  10.786  13.834 -0.6770 -4.8860 -0.8610
  881MOL0     H18904   6.295  10.890  13.945 -2.7573  0.0519 -0.2117
  881MOL0     H18905   6.181  10.684  14.045  0.0642  0.2292  0.6680
  881MOL0     H18906   6.363  10.662  14.040  0.7040 -1.3427 -0.0217
  881MOL0     H18907   6.201  10.579  13.804  0.4256  3.1900  0.2332
  881MOL0     H18908   6.367  10.547  13.835 -0.8205  2.2731 -3.1730
  881MOL0     H18909   6.185  10.431  14.050  0.5108 -0.5503  1.6118
  881MOL0     H18910   6.309  10.349  13.948 -1.0645  0.0296 -4.0707
  881MOL0     H18911   6.149  10.349  13.754  2.5613 -0.5170  1.5473
  881MOL0     H18912   6.134  10.239  13.883  1.4122  0.4403  2.8163
  881MOL0     H18913   5.928  10.360  13.790 -4.2563 -0.6007  1.9666
  881MOL0     H18914   5.959  10.508  13.878 -3.3373  0.1540  1.7669
  881MOL0     H18915   5.971  10.344  14.081  0.3708  0.5015  0.1612
  881MOL0     H18916   5.883  10.237  13.973  1.5997 -1.0531  1.3824
  881MOL0     H18917   6.021  10.847  13.536 -1.1498 -1.9250 -2.4767
  881MOL0     H18918   6.038  10.818  13.312 -0.7367  2.5085  0.3437
  881MOL0     H18919   6.407  10.966  12.986  0.1828 -0.5940  0.4204
  881MOL0     H18920   6.496  10.998  12.766  1.3003 -1.3952  1.2842
  881MOL0     H18921   7.238  10.442  11.050 -1.3172 -3.5157  2.0180
  881MOL0     H18922   7.358  10.419  10.862  1.3717  0.2389 -2.0186
  881MOL0     H18923   7.983  10.562  10.738 -1.5822 -0.0099 -1.2025
  881MOL0     H18924   8.161  10.483  10.613 -2.2107  2.4941 -3.2924
  881MOL0     H18925   8.205  10.055  10.503  3.0375  0.2203 -1.0152
  881MOL0     H18926   8.070  10.113  10.388 -0.6163  2.6048  0.1837
  881MOL0     H18927   8.358  10.160  10.310  0.7244  0.2069 -1.9435
  881MOL0     H18928   8.206  10.179  10.216 -0.0055 -1.3555 -0.8145
  881MOL0     H18929   8.259   9.915  10.349  3.3471 -0.1941  1.0028
  881MOL0     H18930   8.351   9.936  10.204  1.7584  0.9159  0.7400
  881MOL0     H18931   8.057   9.967  10.207  1.1210  3.6202  0.1709
  881MOL0     H18932   8.143   9.828  10.146  0.8917  0.2178  1.1997
  881MOL0     H18933   8.135  10.043   9.786  1.2349  1.0089  0.4823
  881MOL0     H18934   7.947  10.097  10.587 -1.1295 -0.1893  1.0360
  881MOL0     H18935   7.772  10.178  10.698  0.5418 -0.7664 -1.6271
  882MOL0     O18936   8.355  11.050   5.010  0.6016  0.2476  0.7888
  882MOL0     C18937   8.346  10.930   4.974 -0.1704 -0.3155  0.0810
  882MOL0     O18938   8.252  10.841   5.006  0.0698 -0.3401  0.4458
  882MOL0     C18939   8.174  10.861   5.106  0.6288  0.0387 -0.3359
  882MOL0     C18940   8.044  10.812   5.102  0.8412  0.0891  1.0657
  882MOL0     C18941   7.957  10.866   5.195  0.4870  0.6241 -0.8313
  882MOL0     C18942   7.994  10.932   5.313  0.6143  0.1637 -0.2714
  882MOL0     O18943   7.898  10.954   5.409  0.2639  0.9350 -0.7359
  882MOL0     C18944   7.940  10.998   5.538 -0.0671 -0.2491 -0.6165
  882MOL0     C18945   7.809  11.020   5.614  0.5851  1.7630  0.2034
  882MOL0     C18946   7.705  11.109   5.542 -0.8151  0.5029 -0.1382
  882MOL0     C18947   7.572  11.112   5.612 -0.4454  0.9553 -0.4770
  882MOL0     C18948   7.472  11.183   5.528 -0.1017 -0.4039 -0.8000
  882MOL0     C18949   7.352  11.221   5.608 -0.4114  0.0181 -0.7863
  882MOL0     C18950   7.285  11.356   5.569  0.2451  0.2366 -0.1048
  882MOL0     C18951   7.230  11.363   5.437  0.7565 -0.1570  0.8831
  882MOL0     N18952   7.127  11.270   5.399  1.0964  0.6723 -0.7989
  882MOL0     C18953   6.992  11.286   5.437 -0.0408  0.2740 -0.9326
  882MOL0     C18954   6.924  11.181   5.383  1.1604 -0.2056 -0.1868
  882MOL0     C18955   6.777  11.158   5.374 -0.3913 -0.6774 -1.1776
  882MOL0     C18956   6.718  11.248   5.263 -0.1729 -0.4243 -0.0259
  882MOL0     C18957   6.747  11.201   5.118 -0.1764  0.5613  0.0213
  882MOL0     C18958   6.706  11.058   5.076 -0.7617 -1.1583  0.1715
  882MOL0     O18959   6.566  11.067   5.085  0.1166  0.1952 -0.1599
  882MOL0     C18960   6.512  10.997   4.989 -0.2705  0.9093  0.2843
  882MOL0     C18961   6.501  11.051   4.858 -0.3156  0.3654  0.1843
  882MOL0     C18962   6.408  10.993   4.765 -0.3239 -0.1393  0.1287
  882MOL0     C18963   6.400  11.051   4.629  0.2603 -0.0951  0.0756
  882MOL0     C18964   6.326  10.878   4.800 -0.1550  0.0429 -0.3447
  882MOL0     C18965   6.233  10.803   4.706 -0.8538  0.4221 -0.7584
  882MOL0     O18966   6.152  10.705   4.754  0.5833 -0.7000  0.2836
  882MOL0     C18967   6.038  10.661   4.690 -0.5528 -0.5078 -1.3504
  882MOL0     C18968   5.992  10.530   4.703 -0.2753 -0.2392  0.0722
  882MOL0     C18969   5.876  10.486   4.638 -0.1378  1.0213  0.0534
  882MOL0     C18970   5.810  10.569   4.555  0.7689  0.5092  0.0665
  882MOL0     O18971   5.696  10.518   4.499 -0.0962 -0.4624 -0.0293
  882MOL0     C18972   5.627  10.581   4.401  0.0044  0.3266  0.4106
  882MOL0     C18973   5.504  10.496   4.365 -0.3530 -0.6417  1.1314
  882MOL0     C18974   5.416  10.579   4.262  0.9913 -0.2133  0.4441
  882MOL0     C18975   5.294  10.498   4.226  0.5799 -0.1811 -0.0078
  882MOL0     C18976   5.189  10.581   4.153 -0.7973 -0.2296  0.1118
  882MOL0     C18977   5.133  10.707   4.224  0.4919  0.5993 -0.2253
  882MOL0     C18978   5.064  10.674   4.364  0.1094  0.3671  0.2522
  882MOL0     C18979   4.931  10.766   4.382 -0.1763 -0.4357 -0.2855
  882MOL0    Cl18980   4.844  10.746   4.541 -0.3979  0.0998  0.2268
  882MOL0     C18981   5.847  10.706   4.554  0.2764 -0.6003 -0.0292
  882MOL0     C18982   5.966  10.751   4.613 -0.2675  0.9710 -0.1536
  882MOL0     O18983   6.249  10.817   4.583 -0.2030 -0.2550  0.0483
  882MOL0     C18984   6.350  10.831   4.936  0.3236  0.2157  0.3785
  882MOL0     C18985   6.444  10.878   5.025 -0.6902  0.7864 -0.7491
  882MOL0     N18986   7.016  11.098   5.330 -0.3049 -0.9568  0.1262
  882MOL0     N18987   7.137  11.149   5.342 -0.4700  0.2173  0.0843
  882MOL0     C18988   8.138  10.944   5.331 -0.7176  0.1509  0.3167
  882MOL0     C18989   8.227  10.914   5.232  1.1337 -0.8789  0.2310
  882MOL0     C18990   8.463  10.879   4.896  0.4419 -0.0594 -0.9220
  882MOL0     C18991   8.587  10.951   4.898 -0.5398 -0.7896  0.3547
  882MOL0     C18992   8.689  10.921   4.809  0.1087 -0.0687 -0.4119
  882MOL0     C18993   8.682  10.821   4.723  0.1807  0.1390 -0.0465
  882MOL0     O18994   8.785  10.784   4.646  0.6880  0.1318  0.8785
  882MOL0     C18995   8.760  10.779   4.498 -0.2223 -0.7633  0.0236
  882MOL0     C18996   8.905  10.780   4.429  0.6499  0.6214  0.0454
  882MOL0     C18997   8.991  10.680   4.497 -0.4133  0.1871 -0.0176
  882MOL0     C18998   9.081  10.740   4.620 -0.2730  0.4030  0.7140
  882MOL0     C18999   9.154  10.855   4.576 -0.0042 -0.0170 -0.8571
  882MOL0     C19000   9.213  10.955   4.543 -0.7306 -0.4181  0.3670
  882MOL0     C19001   8.571  10.738   4.731 -0.2907  0.7981 -0.2200
  882MOL0     C19002   8.467  10.765   4.816  0.5515 -0.6000 -0.1968
  882MOL0     H19003   8.016  10.744   5.022 -2.5448 -2.0948  3.8129
  882MOL0     H19004   7.851  10.849   5.180  0.5059  1.8095 -2.5617
  882MOL0     H19005   8.000  10.924   5.592 -3.3587 -1.7142  1.3424
  882MOL0     H19006   7.994  11.093   5.534 -0.7484  0.2197  0.6372
  882MOL0     H19007   7.772  10.917   5.618 -0.2964  2.1054  1.0235
  882MOL0     H19008   7.823  11.051   5.718 -1.8079 -0.2382  1.2171
  882MOL0     H19009   7.745  11.210   5.548  1.8319 -0.4023 -1.1125
  882MOL0     H19010   7.694  11.072   5.440 -0.0857 -2.6679  0.8101
  882MOL0     H19011   7.528  11.013   5.625  0.7918  0.4396 -0.0318
  882MOL0     H19012   7.582  11.159   5.710  1.1518  1.8614 -1.0351
  882MOL0     H19013   7.516  11.279   5.497  3.4683 -1.5360  0.2457
  882MOL0     H19014   7.450  11.123   5.439  1.4856 -1.2725 -0.6502
  882MOL0     H19015   7.282  11.138   5.597  1.7283 -1.9356 -0.5238
  882MOL0     H19016   7.381  11.229   5.713  0.6762  1.7834 -1.1765
  882MOL0     H19017   7.203  11.377   5.639  0.0158  0.8977 -0.5576
  882MOL0     H19018   7.370  11.425   5.572  0.6309 -0.2324 -0.2229
  882MOL0     H19019   7.310  11.350   5.363 -0.3417 -0.9383 -0.1978
  882MOL0     H19020   7.191  11.464   5.443  0.6726 -0.2217  1.5238
  882MOL0     H19021   6.959  11.384   5.472 -0.2724  0.4591 -1.6608
  882MOL0     H19022   6.753  11.051   5.369  2.3959 -1.3352 -2.2393
  882MOL0     H19023   6.730  11.186   5.469 -2.1571 -0.2103 -2.1379
  882MOL0     H19024   6.739  11.355   5.271  0.4467 -0.5394 -0.0176
  882MOL0     H19025   6.611  11.239   5.285 -0.5241  1.7810 -0.5959
  882MOL0     H19026   6.855  11.211   5.100 -0.0281 -1.4000 -0.3969
  882MOL0     H19027   6.701  11.271   5.047 -4.4412 -2.6774 -0.7915
  882MOL0     H19028   6.736  10.984   5.151  1.0888  0.8184  1.4788
  882MOL0     H19029   6.741  11.023   4.978  0.3386  0.6202 -0.1111
  882MOL0     H19030   6.557  11.139   4.828  0.8560  0.1445  1.6429
  882MOL0     H19031   6.453  11.146   4.619 -0.0437  0.2527  1.4725
  882MOL0     H19032   6.452  10.984   4.560 -1.2304 -1.8035  0.5450
  882MOL0     H19033   6.300  11.072   4.592  1.0327  0.3889 -1.8467
  882MOL0     H19034   6.053  10.464   4.764 -1.1615  0.3886  1.7195
  882MOL0     H19035   5.851  10.382   4.659 -0.2864  1.2924  1.3009
  882MOL0     H19036   5.585  10.674   4.441 -0.2696 -0.0712  1.0721
  882MOL0     H19037   5.691  10.592   4.314  1.8569  0.0568  1.6882
  882MOL0     H19038   5.535  10.402   4.318 -4.7696 -0.9159 -1.8744
  882MOL0     H19039   5.442  10.475   4.452 -1.5742 -3.4404 -0.2978
  882MOL0     H19040   5.468  10.613   4.172 -0.0267  1.9812  0.6166
  882MOL0     H19041   5.380  10.673   4.305 -0.5914 -0.8329  0.5213
  882MOL0     H19042   5.315  10.410   4.163  2.2179 -0.8889  1.4472
  882MOL0     H19043   5.253  10.448   4.314  1.0117  1.4729  1.1812
  882MOL0     H19044   5.110  10.511   4.123  2.5599 -3.6980 -1.4793
  882MOL0     H19045   5.234  10.610   4.057  1.4473 -0.7780  0.9276
  882MOL0     H19046   5.210  10.784   4.234  0.7646  0.3192 -0.1479
  882MOL0     H19047   5.047  10.733   4.162 -2.6823 -4.2738  1.5384
  882MOL0     H19048   5.130  10.689   4.450  2.1912 -1.2104 -0.9546
  882MOL0     H19049   5.039  10.568   4.361 -0.2180  0.4114  1.1659
  882MOL0     H19050   4.867  10.748   4.295  0.3367  0.0209 -0.7651
  882MOL0     H19051   4.960  10.872   4.376 -0.1846 -0.5094 -2.1684
  882MOL0     H19052   5.796  10.781   4.494 -3.6542 -2.4853  0.6803
  882MOL0     H19053   5.989  10.855   4.591  0.6124  0.9153  0.4643
  882MOL0     H19054   6.301  10.738   4.963  3.2309 -1.2713  1.0340
  882MOL0     H19055   6.452  10.841   5.127 -0.3729  2.3884 -0.1604
  882MOL0     H19056   8.185  10.983   5.421 -0.5423  0.8473 -0.0681
  882MOL0     H19057   8.331  10.936   5.256  0.5038  2.1179  0.6627
  882MOL0     H19058   8.602  11.027   4.974 -3.8678 -0.2493  0.6445
  882MOL0     H19059   8.788  10.966   4.816  0.4047 -0.6705 -0.6369
  882MOL0     H19060   8.708  10.687   4.471 -1.8553 -0.3848  1.7036
  882MOL0     H19061   8.719  10.872   4.456  1.1103 -0.6643 -1.1578
  882MOL0     H19062   8.949  10.880   4.427 -1.8285  1.7951 -0.2952
  882MOL0     H19063   8.905  10.746   4.325  3.3324 -0.0258  0.2004
  882MOL0     H19064   9.044  10.625   4.418  2.4599  1.1741  1.0991
  882MOL0     H19065   8.937  10.592   4.533 -1.1129  0.4799 -0.3435
  882MOL0     H19066   9.164  10.671   4.640 -0.8448 -1.0985 -1.6768
  882MOL0     H19067   9.022  10.752   4.712  0.2190 -1.9847  1.4226
  882MOL0     H19068   9.276  11.021   4.487  1.0757 -2.0118  0.4480
  882MOL0     H19069   8.555  10.653   4.665 -1.9896 -1.7158  3.1216
  882MOL0     H19070   8.377  10.703   4.812 -1.5470  2.1675  0.9204
  883MOL0     O19071   4.114   2.559   6.065 -0.6109  0.8126  0.4935
  883MOL0     C19072   4.076   2.673   6.072 -1.0166  0.3543 -0.0384
  883MOL0     O19073   3.990   2.736   5.982 -0.4658  0.1333 -0.5438
  883MOL0     C19074   3.972   2.677   5.859 -0.3774  0.3370 -0.2904
  883MOL0     C19075   4.077   2.682   5.764  0.2724 -0.4699 -0.7957
  883MOL0     C19076   4.065   2.600   5.647  0.4309 -0.3640 -0.0102
  883MOL0     C19077   3.948   2.523   5.622 -0.4651  0.5799  0.5436
  883MOL0     O19078   3.952   2.460   5.495 -0.3091  0.4054  0.5135
  883MOL0     C19079   3.838   2.374   5.479  0.3308 -0.2357  0.9651
  883MOL0     C19080   3.860   2.314   5.350 -0.8427  0.3503 -0.2590
  883MOL0     C19081   3.725   2.236   5.309  0.3885 -0.8313 -0.8677
  883MOL0     C19082   3.660   2.327   5.210 -0.2767 -0.7938 -0.3644
  883MOL0     C19083   3.696   2.300   5.062 -0.0218  0.0120  0.0611
  883MOL0     C19084   3.601   2.383   4.970  0.2442 -0.1828  0.0623
  883MOL0     C19085   3.608   2.328   4.824  0.2727 -0.0201  0.5863
  883MOL0     C19086   3.579   2.431   4.703 -1.4442  0.3603  1.0535
  883MOL0     N19087   3.588   2.376   4.564 -0.1502  0.1877 -0.1564
  883MOL0     C19088   3.676   2.266   4.531  0.1587 -0.3187  0.1909
  883MOL0     C19089   3.648   2.239   4.395  0.0415  0.6856 -0.4891
  883MOL0     C19090   3.733   2.159   4.308  0.0981  0.6970  0.1562
  883MOL0     C19091   3.660   2.028   4.277 -0.1617  0.0625  0.6051
  883MOL0     C19092   3.722   1.945   4.159 -0.2422  0.5810 -0.4353
  883MOL0     C19093   3.879   1.946   4.163  0.2098  0.7584 -0.2012
  883MOL0     O19094   3.920   1.876   4.281 -0.0657  0.6199  0.3741
  883MOL0     C19095   3.944   1.744   4.273 -0.2681  0.2207  0.6230
  883MOL0     C19096   4.031   1.694   4.368  0.7310  0.6424  0.4387
  883MOL0     C19097   4.063   1.562   4.378  0.1116  0.6849 -0.0103
  883MOL0     C19098   4.142   1.524   4.504  0.2721  0.6245 -0.3290
  883MOL0     C19099   4.010   1.476   4.280 -0.5030  0.6345 -0.0257
  883MOL0     C19100   4.042   1.332   4.271  0.1892  0.4592  0.7910
  883MOL0     O19101   4.121   1.275   4.363 -0.1841  0.3826  0.0813
  883MOL0     C19102   4.113   1.145   4.406  0.3686  1.2476  1.2770
  883MOL0     C19103   4.234   1.102   4.455 -0.4962  0.7782 -0.3290
  883MOL0     C19104   4.238   0.976   4.524 -0.6373 -0.7224 -0.0622
  883MOL0     C19105   4.125   0.896   4.549 -0.6014 -0.2258 -0.6325
  883MOL0     O19106   4.129   0.788   4.632 -0.6388 -0.4908 -0.0304
  883MOL0     C19107   4.066   0.665   4.591  0.2348 -0.2057  0.1556
  883MOL0     C19108   4.152   0.549   4.557  0.0779  0.6122  1.2745
  883MOL0     C19109   4.086   0.421   4.609 -0.2866  0.3903  0.6331
  883MOL0     C19110   3.972   0.374   4.524  0.3751 -0.8649 -0.7626
  883MOL0     C19111   3.941   0.223   4.557 -0.4194  0.3149  0.9067
  883MOL0     C19112   3.840   0.175   4.446  0.2243  0.7804  0.0982
  883MOL0     C19113   3.769   0.041   4.468 -0.5231  0.3650  0.3102
  883MOL0     C19114   3.674   0.009   4.349  0.3837 -0.2455 -0.0127
  883MOL0    Cl19115   3.766   0.008   4.203 -0.2902 -0.5383  0.2036
  883MOL0     C19116   4.003   0.942   4.490 -0.5970  0.3464 -0.7444
  883MOL0     C19117   3.997   1.062   4.416  0.2825  0.8227  0.5010
  883MOL0     O19118   3.981   1.268   4.185 -0.6023  0.3962  0.0092
  883MOL0     C19119   3.920   1.518   4.185 -0.6324 -0.6493 -0.0875
  883MOL0     C19120   3.888   1.655   4.176  0.5031  0.6435  0.1274
  883MOL0     N19121   3.536   2.304   4.371  0.4073  0.3034 -0.1646
  883MOL0     N19122   3.503   2.391   4.463 -0.6569 -0.0422  0.1732
  883MOL0     C19123   3.841   2.552   5.707 -0.8675  0.8850  0.1829
  883MOL0     C19124   3.848   2.635   5.816 -1.3257 -0.0296  0.0029
  883MOL0     C19125   4.135   2.766   6.182  0.5902 -0.2870  0.0708
  883MOL0     C19126   4.113   2.910   6.186  0.9130  0.4315  0.2783
  883MOL0     C19127   4.196   2.992   6.261 -0.7324 -0.3102 -0.0996
  883MOL0     C19128   4.291   2.938   6.361  1.0464 -0.3433  0.8356
  883MOL0     O19129   4.377   3.018   6.426  0.5410  0.0155 -0.7877
  883MOL0     C19130   4.414   2.965   6.558 -0.9185  0.1386 -0.0794
  883MOL0     C19131   4.488   3.090   6.618  0.2984 -0.8012  1.5020
  883MOL0     C19132   4.499   3.081   6.770  1.1804  0.0795  0.0122
  883MOL0     C19133   4.594   3.207   6.822  0.6295  0.4652 -0.4647
  883MOL0     C19134   4.595   3.225   6.968  0.1540 -0.3259  0.3666
  883MOL0     C19135   4.578   3.247   7.084 -0.7964  0.2616 -0.1883
  883MOL0     C19136   4.291   2.800   6.363  0.5545 -0.2495 -0.0323
  883MOL0     C19137   4.225   2.715   6.270  0.0408  0.5389 -0.4015
  883MOL0     H19138   4.163   2.741   5.795 -1.7428  2.9556 -1.2142
  883MOL0     H19139   4.154   2.602   5.586  0.4264  0.7843 -0.0044
  883MOL0     H19140   3.804   2.302   5.554 -0.3099 -1.6598 -0.6550
  883MOL0     H19141   3.747   2.435   5.474 -1.1138 -2.2745  1.5043
  883MOL0     H19142   3.882   2.377   5.263 -0.0406 -0.4023 -0.6193
  883MOL0     H19143   3.941   2.241   5.354  0.4620  1.6543 -1.7228
  883MOL0     H19144   3.745   2.139   5.262 -1.0004 -1.5177 -0.1031
  883MOL0     H19145   3.657   2.214   5.392  0.5579 -1.8474 -0.9878
  883MOL0     H19146   3.551   2.313   5.215 -0.4053  0.3519  0.3461
  883MOL0     H19147   3.683   2.433   5.223  0.4538 -0.2857 -4.3971
  883MOL0     H19148   3.801   2.332   5.055 -0.4600  1.7354  0.9115
  883MOL0     H19149   3.687   2.192   5.049 -2.4832  0.1595  0.1800
  883MOL0     H19150   3.495   2.394   4.994 -0.4591 -1.1601 -2.2861
  883MOL0     H19151   3.646   2.480   4.950 -0.0528 -0.2979 -1.2357
  883MOL0     H19152   3.705   2.279   4.807 -0.2241 -0.8254 -0.0510
  883MOL0     H19153   3.533   2.248   4.817 -0.2156  0.5748 -1.8834
  883MOL0     H19154   3.666   2.497   4.710  2.7748 -4.3171 -0.9778
  883MOL0     H19155   3.483   2.482   4.715 -2.3833  0.4027 -4.0858
  883MOL0     H19156   3.754   2.232   4.598 -0.6288  2.7339  2.9271
  883MOL0     H19157   3.759   2.213   4.217  1.0947 -1.4248 -0.8867
  883MOL0     H19158   3.827   2.139   4.360 -0.8753 -3.0178  0.7924
  883MOL0     H19159   3.551   2.036   4.274 -0.3005 -1.5804  0.3551
  883MOL0     H19160   3.682   1.968   4.366  1.2300  0.7453  0.7466
  883MOL0     H19161   3.671   1.989   4.072 -4.8692  0.1957  1.7916
  883MOL0     H19162   3.686   1.844   4.178  3.1478 -0.0632  4.4213
  883MOL0     H19163   3.913   2.047   4.186  0.2862  1.3863 -2.7494
  883MOL0     H19164   3.917   1.908   4.067  3.0294 -1.1233  1.5258
  883MOL0     H19165   4.072   1.762   4.443 -0.1310  0.5084  1.0416
  883MOL0     H19166   4.227   1.473   4.457 -1.1646 -1.3719 -0.9603
  883MOL0     H19167   4.177   1.608   4.563 -2.2558  0.9730  0.8063
  883MOL0     H19168   4.087   1.447   4.559 -0.4468  1.9508  0.8574
  883MOL0     H19169   4.326   1.159   4.458 -1.1655  1.9241  3.4571
  883MOL0     H19170   4.334   0.947   4.566  0.3096  1.4864 -0.5801
  883MOL0     H19171   3.990   0.631   4.662 -1.7814  1.0642 -1.2601
  883MOL0     H19172   3.990   0.675   4.513 -1.9286 -1.3238  2.0187
  883MOL0     H19173   4.180   0.546   4.452  0.5536  2.1111  1.3248
  883MOL0     H19174   4.248   0.566   4.608 -0.0414 -0.2392  1.7900
  883MOL0     H19175   4.057   0.437   4.713  0.7851  2.5420  0.6651
  883MOL0     H19176   4.167   0.348   4.599  1.9119  2.8343 -0.8517
  883MOL0     H19177   3.883   0.437   4.534 -0.6907 -2.6354  1.6937
  883MOL0     H19178   4.011   0.381   4.422  2.0004  1.2170 -0.0693
  883MOL0     H19179   3.899   0.221   4.658  2.5602 -0.5066  2.2471
  883MOL0     H19180   4.031   0.161   4.554  0.4088  1.4947 -0.0578
  883MOL0     H19181   3.759   0.248   4.443  0.5895  1.4197  2.8141
  883MOL0     H19182   3.889   0.169   4.348 -4.4257 -0.3501 -2.4511
  883MOL0     H19183   3.717   0.066   4.561 -0.9554  0.2603  0.0990
  883MOL0     H19184   3.834  -0.045   4.485 -0.7432 -0.3038 -1.9931
  883MOL0     H19185   3.590   0.080   4.344 -1.9854 -2.8398  0.4600
  883MOL0     H19186   3.630  -0.091   4.356 -0.5625  0.1793  0.2511
  883MOL0     H19187   3.907   0.894   4.507  0.2185 -0.1489  3.2983
  883MOL0     H19188   3.900   1.098   4.383  0.1586  0.2762  0.2591
  883MOL0     H19189   3.879   1.447   4.113  0.5261 -1.2683 -0.1669
  883MOL0     H19190   3.818   1.687   4.100  1.7039 -1.3870 -1.9650
  883MOL0     H19191   3.745   2.508   5.684 -0.2100  0.1295 -1.2496
  883MOL0     H19192   3.759   2.646   5.877 -2.7034 -2.7037 -1.3475
  883MOL0     H19193   4.040   2.952   6.118 -1.1525  1.5508  3.0297
  883MOL0     H19194   4.190   3.100   6.268  3.2636  0.0469 -0.2569
  883MOL0     H19195   4.327   2.951   6.622 -0.1012  3.5698  2.0343
  883MOL0     H19196   4.486   2.883   6.559  0.8438  1.6114  1.1379
  883MOL0     H19197   4.447   3.186   6.585  2.4544 -0.2937  0.1356
  883MOL0     H19198   4.584   3.090   6.566 -1.0920 -3.4309 -1.4407
  883MOL0     H19199   4.552   2.994   6.810  1.9915  1.2137  1.5144
  883MOL0     H19200   4.403   3.087   6.822 -0.7019 -1.1066 -3.1021
  883MOL0     H19201   4.565   3.303   6.779  2.7265  3.3312  3.8041
  883MOL0     H19202   4.694   3.181   6.785  0.2822 -2.1367  0.1937
  883MOL0     H19203   4.564   3.280   7.185  0.9127 -4.7567  2.0376
  883MOL0     H19204   4.350   2.752   6.440  0.5854 -0.0022  0.0994
  883MOL0     H19205   4.237   2.607   6.277 -0.4576  0.4757 -0.4828
  884MOL0     O19206   0.911   6.713  10.227 -0.5922  0.6510 -0.0438
  884MOL0     C19207   0.818   6.643  10.260 -0.6159 -0.9548 -0.0080
  884MOL0     O19208   0.730   6.666  10.362  0.0057 -0.1673  0.1564
  884MOL0     C19209   0.740   6.785  10.441 -0.8732 -0.4314  0.1127
  884MOL0     C19210   0.861   6.818  10.514  1.2328  0.6309 -0.4620
  884MOL0     C19211   0.853   6.918  10.606 -0.7207 -0.6000 -0.2196
  884MOL0     C19212   0.733   6.993  10.626  0.2218 -0.1671  0.2948
  884MOL0     O19213   0.713   7.093  10.716 -0.4227  0.1742  0.0669
  884MOL0     C19214   0.789   7.101  10.839  0.3508 -0.3195 -0.8131
  884MOL0     C19215   0.810   7.241  10.891 -0.0451 -1.0003  1.0018
  884MOL0     C19216   0.685   7.326  10.877 -0.0569  0.2296  0.8526
  884MOL0     C19217   0.728   7.466  10.919  0.3319  0.2349 -0.1915
  884MOL0     C19218   0.605   7.556  10.900  0.1184 -0.4045  0.1906
  884MOL0     C19219   0.650   7.699  10.923  0.2100  0.7406 -0.0299
  884MOL0     C19220   0.519   7.782  10.893  0.0187  0.0654 -0.6581
  884MOL0     C19221   0.495   7.845  10.751  1.1826  0.5928  0.1239
  884MOL0     N19222   0.586   7.955  10.710  1.1766 -0.1567 -0.3409
  884MOL0     C19223   0.545   8.083  10.722  0.9311  0.3347 -0.4017
  884MOL0     C19224   0.640   8.146  10.645 -0.2501  0.2259 -1.1628
  884MOL0     C19225   0.644   8.288  10.601 -1.0525 -0.6797 -0.4944
  884MOL0     C19226   0.633   8.300  10.448  0.8088 -0.1209  0.4704
  884MOL0     C19227   0.674   8.434  10.397  0.1227 -0.4339  0.1318
  884MOL0     C19228   0.603   8.553  10.463  0.6038 -0.4973  0.2402
  884MOL0     O19229   0.669   8.594  10.585  0.4552 -0.7471 -0.4897
  884MOL0     C19230   0.647   8.714  10.641  0.2898 -1.7943  0.0455
  884MOL0     C19231   0.741   8.750  10.741  0.5992  0.3698  0.0632
  884MOL0     C19232   0.742   8.878  10.800 -0.1855 -0.9378 -0.2968
  884MOL0     C19233   0.843   8.909  10.903  0.3732  0.0041 -0.0997
  884MOL0     C19234   0.651   8.979  10.760  0.5762  0.7053 -1.0565
  884MOL0     C19235   0.662   9.123  10.802  0.5633 -1.0731 -0.2267
  884MOL0     O19236   0.783   9.181  10.822 -0.4042  0.5724 -0.0469
  884MOL0     C19237   0.794   9.318  10.808  0.3055  0.0791 -0.7151
  884MOL0     C19238   0.835   9.386  10.920 -0.4937  1.1992  0.1781
  884MOL0     C19239   0.862   9.520  10.913  1.0533 -0.1324 -0.7127
  884MOL0     C19240   0.858   9.584  10.788 -0.2341  1.0259  0.4343
  884MOL0     O19241   0.892   9.711  10.767 -0.8274 -0.6248 -0.0883
  884MOL0     C19242   0.897   9.817  10.874  0.5019  0.3894 -0.7622
  884MOL0     C19243   0.902   9.954  10.809  0.6530 -0.2787 -1.2276
  884MOL0     C19244   0.756   9.983  10.760  0.5242  0.0893 -0.0428
  884MOL0     C19245   0.763  10.082  10.650 -0.7708 -0.6684 -0.8992
  884MOL0     C19246   0.806  10.219  10.695  1.0183  0.8377  0.0257
  884MOL0     C19247   0.846  10.309  10.576 -0.6091 -0.7839  0.0209
  884MOL0     C19248   0.909  10.439  10.633  0.4731  0.6316  0.2772
  884MOL0     C19249   0.976  10.525  10.520 -0.0645  0.2761 -1.0901
  884MOL0    Cl19250   1.118  10.433  10.443 -0.1160 -0.2548 -0.0888
  884MOL0     C19251   0.811   9.517  10.674  0.7642  0.3323  0.3640
  884MOL0     C19252   0.782   9.381  10.685  0.6708 -0.5468  0.2332
  884MOL0     O19253   0.551   9.191  10.814 -0.7751  0.2269  0.1471
  884MOL0     C19254   0.546   8.940  10.682 -0.3602  0.4602  0.2389
  884MOL0     C19255   0.545   8.815  10.610  0.6558 -0.0923 -0.3211
  884MOL0     N19256   0.734   8.048  10.599 -0.1420 -0.2405 -1.5065
  884MOL0     N19257   0.708   7.927  10.644  0.3990 -0.0423 -0.0236
  884MOL0     C19258   0.621   6.963  10.555 -0.1916  0.2141 -0.1959
  884MOL0     C19259   0.622   6.856  10.462  0.0332  0.2686 -0.8762
  884MOL0     C19260   0.799   6.506  10.199  1.0046  0.6611  0.3901
  884MOL0     C19261   0.684   6.420  10.236 -0.1127  0.0628  0.6269
  884MOL0     C19262   0.676   6.289  10.188  0.3109  0.0131  0.0058
  884MOL0     C19263   0.771   6.245  10.106 -0.7666  0.1034  0.4134
  884MOL0     O19264   0.783   6.119  10.053  0.3949  0.4154 -0.6245
  884MOL0     C19265   0.658   6.033  10.039 -0.3821 -0.0767  0.0400
  884MOL0     C19266   0.708   5.912   9.956 -0.9541  0.3289  0.6840
  884MOL0     C19267   0.790   5.953   9.830 -0.1297  0.1970 -0.0227
  884MOL0     C19268   0.807   5.827   9.743  0.1044 -0.4391 -0.1600
  884MOL0     C19269   0.912   5.847   9.635 -0.4703 -0.0840 -0.7944
  884MOL0     C19270   1.004   5.844   9.561  0.8794 -0.8765  0.0569
  884MOL0     C19271   0.882   6.323  10.077 -0.2552  0.0013  0.5782
  884MOL0     C19272   0.899   6.453  10.120 -0.4515  0.5221 -0.2577
  884MOL0     H19273   0.948   6.753  10.513  1.0474  0.2309  2.0446
  884MOL0     H19274   0.947   6.940  10.655  0.9700  0.9795 -3.8035
  884MOL0     H19275   0.739   7.052  10.923  1.2987 -3.6408 -2.0181
  884MOL0     H19276   0.880   7.041  10.842  0.0528 -0.7861  2.8381
  884MOL0     H19277   0.839   7.227  10.995  1.0762  4.1910  1.6589
  884MOL0     H19278   0.896   7.286  10.841 -2.0842  2.0451 -0.0839
  884MOL0     H19279   0.650   7.321  10.774 -2.9388 -0.6758  1.7866
  884MOL0     H19280   0.601   7.286  10.935 -1.1754 -0.9680 -1.4469
  884MOL0     H19281   0.769   7.481  11.019 -1.5565 -0.6939  0.7710
  884MOL0     H19282   0.810   7.510  10.860  1.7129  0.1353  1.5687
  884MOL0     H19283   0.566   7.541  10.799  0.5348 -2.9294  0.3422
  884MOL0     H19284   0.527   7.521  10.968 -0.8225  0.4993 -0.3903
  884MOL0     H19285   0.687   7.716  11.025  1.6982  0.0750 -0.4261
  884MOL0     H19286   0.730   7.724  10.853 -0.9880  1.8262 -1.0429
  884MOL0     H19287   0.431   7.719  10.910 -2.2432  2.5573 -2.3490
  884MOL0     H19288   0.504   7.859  10.969  1.3377 -2.7379  2.7804
  884MOL0     H19289   0.389   7.872  10.753  0.4407 -1.9403 -1.2037
  884MOL0     H19290   0.515   7.771  10.673  0.3657 -1.3592  1.6799
  884MOL0     H19291   0.451   8.122  10.761  0.8603  1.7160 -1.8261
  884MOL0     H19292   0.560   8.334  10.654 -1.2981 -1.6982  0.0217
  884MOL0     H19293   0.739   8.332  10.636 -0.4121 -2.0596 -0.4374
  884MOL0     H19294   0.527   8.291  10.421  0.4969  2.8520  0.3783
  884MOL0     H19295   0.693   8.223  10.398  4.8569  2.0512  1.5657
  884MOL0     H19296   0.647   8.426  10.292  1.9997  1.6250 -0.5658
  884MOL0     H19297   0.780   8.454  10.381  0.0653 -0.3342 -0.1262
  884MOL0     H19298   0.497   8.533  10.483  0.9689 -4.0882 -0.8269
  884MOL0     H19299   0.608   8.636  10.392  0.7220 -3.3689 -3.3643
  884MOL0     H19300   0.809   8.673  10.776 -0.2057 -0.3207  0.1459
  884MOL0     H19301   0.932   8.961  10.865  1.5769 -0.8969  1.3717
  884MOL0     H19302   0.802   8.970  10.983 -1.2475 -0.7097 -0.3575
  884MOL0     H19303   0.897   8.823  10.943 -0.4329 -1.2969 -1.6924
  884MOL0     H19304   0.841   9.336  11.016  1.5935  1.5010  0.2564
  884MOL0     H19305   0.903   9.565  11.003  1.0257 -0.0425 -0.7447
  884MOL0     H19306   0.812   9.804  10.941  0.0588 -4.3447 -1.8912
  884MOL0     H19307   0.993   9.798  10.922  1.5192  3.6102 -1.2561
  884MOL0     H19308   0.937  10.019  10.891  0.1647 -0.6098 -0.7495
  884MOL0     H19309   0.982   9.944  10.736  2.7072  0.4895  0.7794
  884MOL0     H19310   0.697  10.022  10.843 -2.3245 -2.2754 -0.7905
  884MOL0     H19311   0.703   9.895  10.721  0.1455  0.5348 -0.5657
  884MOL0     H19312   0.814  10.047  10.560  0.7682 -0.8993  0.0191
  884MOL0     H19313   0.660  10.100  10.620 -0.8850 -0.1078 -0.1905
  884MOL0     H19314   0.879  10.218  10.776  0.6985 -2.2485  0.3959
  884MOL0     H19315   0.726  10.265  10.754  1.6024  0.5925  1.0137
  884MOL0     H19316   0.931  10.266  10.522 -0.7740 -0.5076 -0.4609
  884MOL0     H19317   0.755  10.319  10.517  0.8253 -0.3228 -2.2454
  884MOL0     H19318   0.983  10.417  10.710  0.9244 -0.6921 -0.5173
  884MOL0     H19319   0.827  10.495  10.681 -0.8991 -1.2030  0.1938
  884MOL0     H19320   1.031  10.600  10.578 -1.2093 -0.1412  0.5847
  884MOL0     H19321   0.916  10.584  10.450  0.4964 -0.3538 -2.1208
  884MOL0     H19322   0.803   9.587  10.592  2.7143 -0.8644 -0.9297
  884MOL0     H19323   0.750   9.332  10.594  1.4928  0.9792 -0.9153
  884MOL0     H19324   0.464   9.007  10.658 -0.4310  0.1858 -0.3046
  884MOL0     H19325   0.461   8.785  10.549  1.6313  1.4074 -2.5466
  884MOL0     H19326   0.534   7.027  10.569  0.7992  1.3783  0.8376
  884MOL0     H19327   0.539   6.833  10.396 -0.9065  0.9283  0.0345
  884MOL0     H19328   0.607   6.464  10.299 -1.5542 -2.3452  0.6849
  884MOL0     H19329   0.592   6.227  10.217  1.2226 -1.6748 -0.7870
  884MOL0     H19330   0.613   6.012  10.136  0.2091 -1.1909  0.0867
  884MOL0     H19331   0.576   6.091   9.994 -2.0052 -2.1640  0.1721
  884MOL0     H19332   0.617   5.859   9.929 -2.5364  2.4136  1.6393
  884MOL0     H19333   0.768   5.854  10.028 -0.1244  2.6669  2.0079
  884MOL0     H19334   0.888   5.987   9.864 -0.0817 -0.6599  0.7411
  884MOL0     H19335   0.732   6.026   9.774  1.0948  1.5959  0.4856
  884MOL0     H19336   0.712   5.789   9.701  0.2940  0.8666 -1.9004
  884MOL0     H19337   0.849   5.749   9.807 -0.7901  0.5447  1.7104
  884MOL0     H19338   1.087   5.846   9.492  1.2512  0.4759  0.5051
  884MOL0     H19339   0.959   6.294  10.006 -0.2441  0.5430  0.3691
  884MOL0     H19340   0.982   6.515  10.090 -1.6838  3.0664  1.2807
  885MOL0     O19341  10.799   6.051   2.930  0.4816  0.2214 -0.1556
  885MOL0     C19342  10.716   6.130   2.970 -0.7099 -0.3270  0.3141
  885MOL0     O19343  10.588   6.103   2.988  0.2440 -0.3691  0.9818
  885MOL0     C19344  10.528   5.978   2.952 -0.5814 -0.3818  0.4714
  885MOL0     C19345  10.538   5.919   2.826 -1.0465 -0.6522 -0.4257
  885MOL0     C19346  10.483   5.796   2.806  0.7236 -0.3325 -0.1171
  885MOL0     C19347  10.410   5.728   2.893 -0.1397  0.0825  0.7593
  885MOL0     O19348  10.338   5.616   2.879  0.0090 -0.4227 -0.5093
  885MOL0     C19349  10.266   5.595   2.759  0.6045 -0.2675  0.4146
  885MOL0     C19350  10.116   5.639   2.777 -0.2266 -0.3619  0.0860
  885MOL0     C19351  10.044   5.561   2.890  0.0539 -0.3638 -0.8105
  885MOL0     C19352   9.890   5.578   2.881  0.0237 -0.2530  0.3801
  885MOL0     C19353   9.815   5.460   2.943 -0.7625 -0.1625 -0.0968
  885MOL0     C19354   9.813   5.325   2.867  0.4511 -0.0873  0.3721
  885MOL0     C19355   9.745   5.330   2.733 -0.0343 -0.2738 -0.1778
  885MOL0     C19356   9.760   5.196   2.643  0.0793  0.2139 -1.0028
  885MOL0     N19357   9.897   5.163   2.586 -0.1350  1.6789  0.3045
  885MOL0     C19358  10.001   5.247   2.564 -0.2058 -0.1798 -0.2683
  885MOL0     C19359  10.107   5.164   2.539  0.4554 -0.1921  0.2440
  885MOL0     C19360  10.240   5.198   2.499 -1.0703 -0.4429 -0.6344
  885MOL0     C19361  10.236   5.294   2.371  0.4115 -0.6692 -0.2332
  885MOL0     C19362  10.242   5.438   2.408 -0.3549  0.1076 -1.6294
  885MOL0     C19363  10.325   5.516   2.309  0.7804 -0.6529 -0.2379
  885MOL0     O19364  10.299   5.653   2.345  0.4430  0.3745  0.0256
  885MOL0     C19365  10.403   5.735   2.384  0.4188 -0.8676  0.3991
  885MOL0     C19366  10.532   5.717   2.340 -0.6873  0.9098 -0.2646
  885MOL0     C19367  10.642   5.793   2.384 -0.1220  0.2262  0.7934
  885MOL0     C19368  10.779   5.751   2.339  0.6552  0.1443 -0.2178
  885MOL0     C19369  10.625   5.916   2.455  0.8454  0.4469  0.0872
  885MOL0     C19370  10.714   6.035   2.465 -1.1137 -0.5543  0.3152
  885MOL0     O19371  10.676   6.148   2.524  0.0592 -0.7557 -0.0108
  885MOL0     C19372  10.735   6.275   2.524  0.7342 -1.3852  0.2475
  885MOL0     C19373  10.832   6.320   2.432  0.3988  0.4114 -0.1154
  885MOL0     C19374  10.907   6.438   2.456  1.0669  0.9467  0.0903
  885MOL0     C19375  10.880   6.526   2.561 -0.3296  0.2921  0.8498
  885MOL0     O19376  10.944   6.641   2.572  0.6321 -0.2281  0.2938
  885MOL0     C19377  10.965   6.690   2.707 -0.4640 -1.0030 -0.1419
  885MOL0     C19378  11.091   6.795   2.699  0.5257  0.1119  0.6238
  885MOL0     C19379  11.142   6.857   2.830 -0.3592  0.4618 -0.5651
  885MOL0     C19380  11.170   6.754   2.941 -0.1048 -0.2687  0.0367
  885MOL0     C19381  11.261   6.802   3.064  0.6538  1.0056  0.3898
  885MOL0     C19382  11.257   6.709   3.184  0.1430 -0.7997 -0.1916
  885MOL0     C19383  11.367   6.738   3.283 -0.1678 -0.1485 -1.0527
  885MOL0     C19384  11.356   6.665   3.417  1.1646  1.0969 -0.1300
  885MOL0    Cl19385  11.212   6.718   3.518 -0.6558 -0.1173 -0.2150
  885MOL0     C19386  10.780   6.485   2.649 -0.1504  0.6651  0.1236
  885MOL0     C19387  10.711   6.360   2.632  0.7263 -0.5563  0.0660
  885MOL0     O19388  10.830   6.016   2.422  0.8240 -0.0727 -0.1229
  885MOL0     C19389  10.494   5.929   2.505 -0.9855 -1.5682  0.5265
  885MOL0     C19390  10.380   5.845   2.468  0.2854 -0.5119  0.0527
  885MOL0     N19391  10.062   5.041   2.533  0.1994  0.2513  0.2015
  885MOL0     N19392   9.936   5.034   2.562  0.1745  0.1171  0.7652
  885MOL0     C19393  10.393   5.790   3.012 -0.2583 -0.0021 -0.0246
  885MOL0     C19394  10.453   5.915   3.045  0.6882  0.7450 -0.0025
  885MOL0     C19395  10.763   6.266   3.011 -0.6306 -0.5013  0.5656
  885MOL0     C19396  10.890   6.319   2.971  0.4453  0.4782 -0.8864
  885MOL0     C19397  10.910   6.457   2.997 -0.5007 -0.0385 -0.1249
  885MOL0     C19398  10.817   6.536   3.065 -0.6922 -0.0499 -0.1432
  885MOL0     O19399  10.863   6.662   3.086 -0.4224  0.2362 -0.3232
  885MOL0     C19400  10.798   6.757   3.164 -0.6389  0.1450 -0.8424
  885MOL0     C19401  10.767   6.869   3.069  0.7766 -0.9047  0.1940
  885MOL0     C19402  10.653   6.966   3.122 -0.0285  0.4073 -0.4145
  885MOL0     C19403  10.641   7.080   3.019 -0.5994 -1.0914 -0.1879
  885MOL0     C19404  10.531   7.171   3.063  0.1954 -0.3762 -0.2684
  885MOL0     C19405  10.443   7.249   3.097  1.0451 -0.3483 -0.6790
  885MOL0     C19406  10.696   6.485   3.102  0.1907  0.0787 -0.1391
  885MOL0     C19407  10.669   6.350   3.083 -0.7844  0.2493  0.5315
  885MOL0     H19408  10.594   5.960   2.742  1.4278 -0.6534  1.1065
  885MOL0     H19409  10.500   5.762   2.704  3.0064  1.8281 -0.5546
  885MOL0     H19410  10.296   5.629   2.659 -3.4243  2.9988  0.0515
  885MOL0     H19411  10.252   5.487   2.745 -3.4896  0.1879 -0.2401
  885MOL0     H19412  10.124   5.743   2.811  1.5261 -0.6695  0.6944
  885MOL0     H19413  10.060   5.629   2.683 -1.7119 -3.8276  1.1962
  885MOL0     H19414  10.070   5.454   2.888 -1.2131 -0.6983 -0.3258
  885MOL0     H19415  10.071   5.576   2.995 -0.7643 -1.3451 -0.4464
  885MOL0     H19416   9.853   5.673   2.921  2.9270  1.8868 -1.5815
  885MOL0     H19417   9.861   5.595   2.777 -0.8812 -0.0479  0.6585
  885MOL0     H19418   9.850   5.442   3.045 -3.2008  2.6779  1.4203
  885MOL0     H19419   9.710   5.492   2.944 -0.7168 -0.0251  0.4163
  885MOL0     H19420   9.904   5.268   2.848 -1.1444 -2.5257 -0.3304
  885MOL0     H19421   9.764   5.258   2.939  0.6099  2.2508  2.8458
  885MOL0     H19422   9.638   5.352   2.742  0.4514  2.5900 -0.5736
  885MOL0     H19423   9.789   5.408   2.671 -3.1655  1.3801 -0.4943
  885MOL0     H19424   9.683   5.204   2.567  1.1483  1.9095 -1.9741
  885MOL0     H19425   9.730   5.111   2.705  3.0784  0.2757  0.7766
  885MOL0     H19426   9.997   5.355   2.577  0.1861 -0.2192  0.2040
  885MOL0     H19427  10.298   5.235   2.584  1.3574 -2.1025 -1.4632
  885MOL0     H19428  10.290   5.107   2.465  1.1139  0.7994 -0.9256
  885MOL0     H19429  10.153   5.267   2.304  0.5848 -1.0890 -0.2835
  885MOL0     H19430  10.327   5.273   2.315  0.3034  0.4742 -0.8663
  885MOL0     H19431  10.267   5.440   2.515 -5.4153 -0.2710 -0.1704
  885MOL0     H19432  10.138   5.472   2.407 -0.8182 -1.1140  0.1218
  885MOL0     H19433  10.283   5.500   2.209  4.0004  0.8902 -1.9869
  885MOL0     H19434  10.429   5.484   2.302  2.8525  4.6068  1.2178
  885MOL0     H19435  10.554   5.637   2.270 -1.2061  1.1031 -0.6568
  885MOL0     H19436  10.821   5.816   2.262  2.6283  1.0065  1.4737
  885MOL0     H19437  10.844   5.767   2.426 -0.1344 -0.9080  0.5932
  885MOL0     H19438  10.787   5.644   2.318  2.7792  0.4335 -1.1209
  885MOL0     H19439  10.865   6.247   2.359  1.2483  1.6396 -0.9838
  885MOL0     H19440  10.990   6.456   2.388  0.4310  2.8316 -0.2342
  885MOL0     H19441  10.875   6.746   2.734  0.6879  0.4733  0.8495
  885MOL0     H19442  10.978   6.610   2.781 -0.4199 -0.4172  0.5017
  885MOL0     H19443  11.174   6.748   2.647 -0.0849  1.1082 -1.3502
  885MOL0     H19444  11.050   6.879   2.642 -1.1433 -0.7641  0.4566
  885MOL0     H19445  11.078   6.939   2.864 -1.2901 -0.2723 -0.4813
  885MOL0     H19446  11.232   6.907   2.793 -0.5124  1.5319  0.4474
  885MOL0     H19447  11.076   6.708   2.970  0.4021  0.0246  2.3187
  885MOL0     H19448  11.229   6.670   2.902  1.6671 -0.3336  2.6160
  885MOL0     H19449  11.217   6.899   3.088  1.1357  1.5630 -0.8907
  885MOL0     H19450  11.361   6.821   3.024  0.2433 -0.1611 -1.3320
  885MOL0     H19451  11.161   6.712   3.236  0.1833  1.6048 -0.1370
  885MOL0     H19452  11.263   6.603   3.160 -2.0540 -1.3956  1.5522
  885MOL0     H19453  11.358   6.844   3.308 -2.1511 -0.9879  2.5018
  885MOL0     H19454  11.459   6.707   3.235  0.5599  2.6148 -1.6419
  885MOL0     H19455  11.454   6.681   3.463  1.5710  1.7142 -1.1955
  885MOL0     H19456  11.347   6.558   3.398 -0.3587  1.0816  0.5493
  885MOL0     H19457  10.746   6.544   2.734  2.0618  3.0279 -0.5181
  885MOL0     H19458  10.654   6.318   2.714  0.1519 -1.6481 -0.8570
  885MOL0     H19459  10.465   6.013   2.568  0.7393 -1.1852  0.8734
  885MOL0     H19460  10.280   5.852   2.507 -0.8083 -6.4591 -0.6727
  885MOL0     H19461  10.322   5.733   3.072  2.4533 -1.4111  2.0341
  885MOL0     H19462  10.445   5.958   3.144 -2.9726 -0.0891  0.2045
  885MOL0     H19463  10.971   6.261   2.928 -0.8049 -2.4661  0.4640
  885MOL0     H19464  11.008   6.497   2.973 -1.3046  0.6686 -2.5780
  885MOL0     H19465  10.705   6.717   3.206 -0.5535  0.7493 -0.0434
  885MOL0     H19466  10.852   6.798   3.251 -0.0256 -2.2558 -0.0151
  885MOL0     H19467  10.735   6.839   2.969 -1.4597  1.8816 -0.0567
  885MOL0     H19468  10.860   6.925   3.066  3.0209 -4.3703 -0.6922
  885MOL0     H19469  10.675   7.001   3.223  0.2220 -1.8269  0.3802
  885MOL0     H19470  10.554   6.920   3.130 -0.2177  0.9497  0.4469
  885MOL0     H19471  10.625   7.052   2.915  0.4581  2.7910 -1.5794
  885MOL0     H19472  10.737   7.133   3.028 -0.9590 -0.5372  0.5248
  885MOL0     H19473  10.360   7.314   3.119  0.8979  0.6161 -3.7142
  885MOL0     H19474  10.619   6.545   3.150 -0.3605  0.1775 -1.0976
  885MOL0     H19475  10.568   6.315   3.101 -0.1862 -0.8569  1.9109
  886MOL0     O19476   4.742   2.819   3.180  0.7264  1.0431  0.3827
  886MOL0     C19477   4.779   2.775   3.288 -0.6555  0.0242 -0.2156
  886MOL0     O19478   4.706   2.759   3.406  0.0981 -0.4469  0.4646
  886MOL0     C19479   4.574   2.784   3.402 -0.6408  0.8745 -0.1120
  886MOL0     C19480   4.485   2.730   3.306 -0.2548 -0.8866  0.4862
  886MOL0     C19481   4.348   2.752   3.307  0.4109 -0.8535 -0.4258
  886MOL0     C19482   4.289   2.836   3.404 -0.1291  0.5438 -0.1097
  886MOL0     O19483   4.150   2.868   3.406  0.2919  0.2871  0.1392
  886MOL0     C19484   4.064   2.750   3.361 -0.5815 -0.6331  0.8153
  886MOL0     C19485   3.919   2.772   3.366 -0.1354  0.0554  1.0334
  886MOL0     C19486   3.863   2.673   3.254 -0.2592  0.4283  0.6944
  886MOL0     C19487   3.713   2.642   3.278  0.6950  0.9017  0.0493
  886MOL0     C19488   3.650   2.519   3.199  0.7535 -0.1022  0.3231
  886MOL0     C19489   3.700   2.505   3.052 -0.3482  0.0182 -0.5255
  886MOL0     C19490   3.632   2.388   2.983 -0.3634  0.7594  0.3495
  886MOL0     C19491   3.673   2.376   2.833 -0.0662  0.0508 -0.2797
  886MOL0     N19492   3.576   2.434   2.742 -0.1498  0.9247 -0.3335
  886MOL0     C19493   3.530   2.563   2.737 -0.1748 -0.5266 -0.7038
  886MOL0     C19494   3.466   2.577   2.623  0.4263  0.6324  0.9473
  886MOL0     C19495   3.396   2.699   2.574  1.0265 -0.1625 -0.9108
  886MOL0     C19496   3.260   2.698   2.640  0.5107 -0.0204 -0.4916
  886MOL0     C19497   3.164   2.807   2.592  0.4702  0.2182 -0.6414
  886MOL0     C19498   3.216   2.943   2.645  0.4349  0.8651 -0.3205
  886MOL0     O19499   3.121   3.047   2.656  0.3073 -0.3955  0.8007
  886MOL0     C19500   3.025   3.033   2.754  0.1269  0.4000 -0.3693
  886MOL0     C19501   2.925   3.122   2.726  0.4235  0.8623 -0.1899
  886MOL0     C19502   2.821   3.130   2.820 -0.1789  0.1271  0.3720
  886MOL0     C19503   2.713   3.229   2.789  0.6479  0.0290 -0.1777
  886MOL0     C19504   2.810   3.037   2.933 -1.1806  0.3376  0.2584
  886MOL0     C19505   2.689   3.030   3.031  0.3232 -0.0732  1.0073
  886MOL0     O19506   2.703   2.947   3.136  0.3105  0.0398 -0.4211
  886MOL0     C19507   2.607   2.929   3.230  0.5241  0.4446 -0.3887
  886MOL0     C19508   2.576   2.801   3.264 -0.3261 -0.4005 -0.5368
  886MOL0     C19509   2.480   2.776   3.354 -0.2064 -0.3357  0.5952
  886MOL0     C19510   2.407   2.876   3.418  0.6229 -1.2622 -0.0748
  886MOL0     O19511   2.306   2.850   3.515 -0.8181 -0.3916  0.2092
  886MOL0     C19512   2.267   2.710   3.537  0.9015  0.7995 -0.4075
  886MOL0     C19513   2.184   2.706   3.663 -0.2992 -0.0190 -0.6014
  886MOL0     C19514   2.164   2.568   3.728 -0.1432  1.0002  0.3349
  886MOL0     C19515   2.055   2.499   3.656  1.5183  0.2629  0.1709
  886MOL0     C19516   2.077   2.348   3.634  0.9853 -0.2431  0.6342
  886MOL0     C19517   1.991   2.288   3.536  0.0380 -0.1551  0.2399
  886MOL0     C19518   1.992   2.135   3.540 -0.5947  1.2802  0.6930
  886MOL0     C19519   1.874   2.070   3.467  0.3735  0.8590 -0.4730
  886MOL0    Cl19520   1.925   1.910   3.419 -0.2017 -0.3033  0.2691
  886MOL0     C19521   2.435   3.009   3.380 -0.4688  0.6166  0.5662
  886MOL0     C19522   2.531   3.033   3.282  0.1046  0.6141 -0.4947
  886MOL0     O19523   2.587   3.076   2.978 -1.0252 -0.0119 -0.4475
  886MOL0     C19524   2.918   2.951   2.954  0.4336  0.2369  0.1728
  886MOL0     C19525   3.021   2.943   2.861  0.5898 -0.2225  0.3861
  886MOL0     N19526   3.473   2.450   2.563  0.3848 -0.3481  0.1630
  886MOL0     N19527   3.539   2.373   2.633 -0.3071 -0.0642  0.2057
  886MOL0     C19528   4.382   2.899   3.494 -0.5347 -0.0102 -0.6956
  886MOL0     C19529   4.519   2.866   3.503 -0.4318 -0.8287  0.2266
  886MOL0     C19530   4.927   2.760   3.318 -0.0018 -0.0232  0.2180
  886MOL0     C19531   5.024   2.778   3.221  0.5130 -0.4135 -0.4327
  886MOL0     C19532   5.159   2.779   3.254 -0.8680 -0.7337  0.3379
  886MOL0     C19533   5.202   2.761   3.389 -0.5425 -0.2235  0.1133
  886MOL0     O19534   5.336   2.759   3.422  0.3305  0.2820 -0.4942
  886MOL0     C19535   5.382   2.798   3.556 -0.1746 -0.1336 -0.1976
  886MOL0     C19536   5.339   2.936   3.605  0.0654 -0.7025  0.4630
  886MOL0     C19537   5.419   2.971   3.731 -0.2550  0.7900 -0.6996
  886MOL0     C19538   5.440   3.115   3.759  0.3728  0.1856 -0.2644
  886MOL0     C19539   5.309   3.154   3.808  0.2840 -0.9063  0.3782
  886MOL0     C19540   5.195   3.166   3.843  0.7172 -0.6614  0.1319
  886MOL0     C19541   5.104   2.741   3.479  0.7370 -0.5499 -0.3376
  886MOL0     C19542   4.964   2.738   3.450  0.1690 -0.0341  0.4042
  886MOL0     H19543   4.522   2.671   3.223 -1.6299  2.4275 -2.7679
  886MOL0     H19544   4.296   2.700   3.227  0.5939 -1.2416 -0.2953
  886MOL0     H19545   4.098   2.739   3.258  2.9565 -0.5941  1.8369
  886MOL0     H19546   4.101   2.664   3.417  1.6848 -0.0497  0.3268
  886MOL0     H19547   3.874   2.741   3.461 -1.4210 -0.2258  0.3630
  886MOL0     H19548   3.882   2.870   3.334 -1.9430 -0.9234 -0.0370
  886MOL0     H19549   3.869   2.725   3.158 -2.0669 -0.1447  0.2423
  886MOL0     H19550   3.920   2.580   3.246 -0.9113  0.1388 -0.7634
  886MOL0     H19551   3.692   2.627   3.384 -0.6350 -1.0082 -0.4260
  886MOL0     H19552   3.663   2.731   3.239  1.7159  1.6318  0.3498
  886MOL0     H19553   3.669   2.428   3.256 -1.8903 -0.1444  1.2712
  886MOL0     H19554   3.542   2.533   3.194  0.4842 -1.4938  1.6219
  886MOL0     H19555   3.675   2.594   2.994  0.8812 -0.0027 -1.1144
  886MOL0     H19556   3.810   2.504   3.049 -0.2260  0.9541  1.5374
  886MOL0     H19557   3.654   2.293   3.032 -2.0154 -0.0870 -0.4861
  886MOL0     H19558   3.525   2.407   2.985 -0.6659 -0.8403  2.8060
  886MOL0     H19559   3.673   2.269   2.808 -1.1230  0.1769 -0.8997
  886MOL0     H19560   3.776   2.410   2.820  0.1140 -0.9588 -1.7616
  886MOL0     H19561   3.534   2.637   2.816 -1.0475 -0.0575 -1.0904
  886MOL0     H19562   3.460   2.785   2.592  1.0777 -0.5281  0.7618
  886MOL0     H19563   3.383   2.696   2.465  0.6547  0.5662 -0.8866
  886MOL0     H19564   3.277   2.710   2.747 -2.6027 -2.1372  0.3831
  886MOL0     H19565   3.222   2.600   2.610  0.6473 -0.1750 -0.1635
  886MOL0     H19566   3.062   2.800   2.631  1.0787  1.5751  1.3400
  886MOL0     H19567   3.154   2.808   2.483  4.2238  1.4594 -1.1131
  886MOL0     H19568   3.289   2.984   2.574 -0.5241 -2.4442 -3.5689
  886MOL0     H19569   3.267   2.928   2.740  1.9808  1.1935 -1.0637
  886MOL0     H19570   2.936   3.179   2.634  1.8844  1.6548  0.4311
  886MOL0     H19571   2.611   3.194   2.774  1.1634 -1.0465 -1.3944
  886MOL0     H19572   2.714   3.311   2.862 -1.1184  4.1312 -4.2277
  886MOL0     H19573   2.733   3.276   2.693  0.0894  1.6051  0.4400
  886MOL0     H19574   2.620   2.718   3.211 -0.3576 -0.5632 -0.3095
  886MOL0     H19575   2.467   2.672   3.380 -0.8708 -0.4103 -0.0229
  886MOL0     H19576   2.217   2.675   3.447  2.4632 -2.9805  0.0035
  886MOL0     H19577   2.352   2.646   3.561  0.9017  0.8386 -0.3019
  886MOL0     H19578   2.230   2.767   3.742 -3.8293  0.0461  1.6125
  886MOL0     H19579   2.083   2.743   3.640 -0.3935  1.7545  2.1426
  886MOL0     H19580   2.123   2.580   3.828 -2.8952 -3.5241  0.0433
  886MOL0     H19581   2.260   2.517   3.732 -0.0898  1.1579  1.1183
  886MOL0     H19582   1.956   2.519   3.698 -0.0359 -2.2359 -2.0330
  886MOL0     H19583   2.035   2.539   3.556 -0.8687 -3.1184 -0.8627
  886MOL0     H19584   2.073   2.296   3.730 -1.2857  1.1107  1.3239
  886MOL0     H19585   2.177   2.335   3.591  0.9046  0.7500  0.1181
  886MOL0     H19586   1.890   2.325   3.554  0.8066  4.2354 -2.9411
  886MOL0     H19587   1.999   2.330   3.436 -0.1777  0.2312  0.3828
  886MOL0     H19588   2.000   2.097   3.642 -2.0832 -0.0673  0.3448
  886MOL0     H19589   2.076   2.097   3.482 -2.5694 -2.0839 -0.2183
  886MOL0     H19590   1.830   2.122   3.382 -3.5076  1.9410  1.9221
  886MOL0     H19591   1.792   2.052   3.537  1.2624  3.0981  1.2634
  886MOL0     H19592   2.378   3.090   3.425 -2.5922 -0.1779 -0.5696
  886MOL0     H19593   2.555   3.135   3.251 -0.3706 -0.1040 -3.5461
  886MOL0     H19594   2.916   2.887   3.041  1.0097  2.5297  1.9588
  886MOL0     H19595   3.101   2.870   2.869  1.1391  0.4492  1.2446
  886MOL0     H19596   4.343   2.970   3.566  1.9116  1.8569 -1.0638
  886MOL0     H19597   4.581   2.933   3.562 -1.2597 -0.8124  1.1145
  886MOL0     H19598   4.979   2.783   3.122 -2.3628  0.7163  0.8291
  886MOL0     H19599   5.244   2.787   3.187 -0.8316 -0.4007  0.4195
  886MOL0     H19600   5.362   2.728   3.638 -0.1632 -1.8834 -1.6168
  886MOL0     H19601   5.491   2.800   3.547 -0.1187 -3.9965 -2.8318
  886MOL0     H19602   5.231   2.941   3.620 -0.1192 -0.1656 -0.8830
  886MOL0     H19603   5.363   3.004   3.523 -0.1431 -1.1900 -0.0160
  886MOL0     H19604   5.513   2.918   3.712 -1.6516 -2.1118  0.0049
  886MOL0     H19605   5.387   2.913   3.818  0.2430  0.0603 -0.9900
  886MOL0     H19606   5.466   3.170   3.669 -2.2331  1.6362 -0.2223
  886MOL0     H19607   5.518   3.123   3.836 -0.2306  2.2792  0.1971
  886MOL0     H19608   5.093   3.175   3.874  0.0087  0.3186 -2.2449
  886MOL0     H19609   5.130   2.726   3.584  0.2036  0.2348 -0.0873
  886MOL0     H19610   4.885   2.741   3.525 -2.7866  0.2254 -2.4996
  887MOL0     O19611   1.796   6.855   2.341 -0.2005  0.0492 -0.3999
  887MOL0     C19612   1.694   6.930   2.344  0.1346 -0.1435 -0.4646
  887MOL0     O19613   1.665   7.015   2.441 -0.8424 -0.1417  0.9406
  887MOL0     C19614   1.750   7.033   2.551  0.1959  0.6484 -0.6823
  887MOL0     C19615   1.694   7.044   2.680 -0.8143 -0.5145 -0.3398
  887MOL0     C19616   1.778   7.058   2.793  0.0500 -0.1130 -0.4232
  887MOL0     C19617   1.911   7.082   2.771 -0.9198 -1.5598  0.1840
  887MOL0     O19618   2.005   7.127   2.859  0.4224 -0.3341  0.1359
  887MOL0     C19619   1.976   7.116   3.004 -1.0505 -0.1583 -0.4596
  887MOL0     C19620   2.094   7.171   3.084  0.2786 -0.1986  0.4233
  887MOL0     C19621   2.072   7.186   3.237  0.0190  0.1623  0.0660
  887MOL0     C19622   2.155   7.303   3.284 -0.3010 -0.1906  0.1426
  887MOL0     C19623   2.131   7.321   3.430  0.0463 -0.4539  0.1611
  887MOL0     C19624   2.044   7.441   3.453  0.6560 -0.2084 -0.5688
  887MOL0     C19625   2.028   7.469   3.600 -0.5450 -0.1309  0.3898
  887MOL0     C19626   2.130   7.564   3.661 -0.1257 -0.1481  0.0450
  887MOL0     N19627   2.100   7.606   3.803  0.2193 -0.2150 -0.1433
  887MOL0     C19628   2.156   7.546   3.918 -0.4629  0.4609 -0.2115
  887MOL0     C19629   2.099   7.602   4.024 -0.9317 -0.7527 -0.1139
  887MOL0     C19630   2.155   7.577   4.161  0.2259  0.5678 -0.0385
  887MOL0     C19631   2.058   7.491   4.240  0.7679 -0.7896 -0.6038
  887MOL0     C19632   2.123   7.420   4.357  0.2343 -0.2904  0.3739
  887MOL0     C19633   2.023   7.312   4.404  1.2173  1.2411  0.6630
  887MOL0     O19634   2.064   7.257   4.527  0.5847 -0.0487 -0.3942
  887MOL0     C19635   1.990   7.148   4.570  0.0072  0.6700 -0.6679
  887MOL0     C19636   2.026   7.097   4.699  0.7361 -0.2777 -0.2034
  887MOL0     C19637   1.958   6.993   4.756 -0.3003 -1.0176  0.9719
  887MOL0     C19638   2.017   6.969   4.899  0.2619 -0.1370 -0.1348
  887MOL0     C19639   1.858   6.922   4.686  0.5298  0.1115 -0.1335
  887MOL0     C19640   1.789   6.802   4.745 -0.5397 -0.2215  0.9790
  887MOL0     O19641   1.779   6.792   4.879 -0.1921  0.1658 -0.3866
  887MOL0     C19642   1.710   6.690   4.938 -0.5076  0.3907 -0.0206
  887MOL0     C19643   1.779   6.583   4.986 -0.5858  0.8506 -0.4008
  887MOL0     C19644   1.706   6.492   5.054  0.2942 -0.0180 -0.6435
  887MOL0     C19645   1.573   6.505   5.090  0.9719 -0.5755 -0.8496
  887MOL0     O19646   1.512   6.394   5.159 -0.4449 -0.1091  0.7500
  887MOL0     C19647   1.372   6.394   5.169  0.1964 -0.2161  1.1381
  887MOL0     C19648   1.319   6.251   5.160 -0.5937  0.1842  0.7435
  887MOL0     C19649   1.422   6.168   5.070  0.1822 -1.0248 -0.1024
  887MOL0     C19650   1.372   6.025   5.054 -1.1796 -0.3691  1.1112
  887MOL0     C19651   1.348   5.947   5.179 -0.0938 -0.4356 -0.3896
  887MOL0     C19652   1.480   5.898   5.253  1.0587  1.1896  0.8321
  887MOL0     C19653   1.559   5.784   5.197  1.0114  0.0987  0.3803
  887MOL0     C19654   1.658   5.717   5.288 -0.8292  0.3006  0.5095
  887MOL0    Cl19655   1.577   5.697   5.452 -0.0445  0.3420 -0.2379
  887MOL0     C19656   1.514   6.629   5.056 -0.5665 -0.5027  0.1162
  887MOL0     C19657   1.578   6.727   4.976  0.7009 -0.5642  0.5249
  887MOL0     O19658   1.753   6.719   4.660 -0.1185 -0.2943  0.2649
  887MOL0     C19659   1.821   6.965   4.557  0.3393  0.1579  0.0806
  887MOL0     C19660   1.883   7.081   4.507 -0.0620 -0.8939 -0.9286
  887MOL0     N19661   2.021   7.704   3.974  0.4960 -0.4187 -0.2467
  887MOL0     N19662   2.020   7.706   3.840 -0.1038  0.0500 -0.2601
  887MOL0     C19663   1.965   7.084   2.643  0.6496  0.2959  0.5765
  887MOL0     C19664   1.889   7.051   2.533  1.1752  0.1793 -0.0196
  887MOL0     C19665   1.618   6.925   2.216 -1.1119 -0.6517  0.3072
  887MOL0     C19666   1.531   7.030   2.169  0.3866 -0.7380 -0.3153
  887MOL0     C19667   1.457   7.016   2.049 -0.2268 -0.8653  0.2004
  887MOL0     C19668   1.478   6.905   1.974  1.0192  0.5623 -0.4904
  887MOL0     O19669   1.400   6.881   1.872 -0.0669 -0.6837 -0.5199
  887MOL0     C19670   1.476   6.879   1.753  0.2068  0.7116  0.9589
  887MOL0     C19671   1.387   6.828   1.630  0.2912  0.5014 -0.6986
  887MOL0     C19672   1.473   6.855   1.511  0.3555 -0.2124  0.1427
  887MOL0     C19673   1.434   6.764   1.392  0.4279 -0.3974 -0.0063
  887MOL0     C19674   1.305   6.804   1.335  0.0461  0.1894  0.9123
  887MOL0     C19675   1.199   6.828   1.298 -0.5502  0.5193  0.1721
  887MOL0     C19676   1.562   6.803   2.020 -0.0290 -0.0221 -0.3502
  887MOL0     C19677   1.635   6.816   2.133 -0.2444  0.3039 -0.6759
  887MOL0     H19678   1.586   7.030   2.681 -1.1675  1.7033 -0.6876
  887MOL0     H19679   1.742   7.052   2.896  0.7787 -2.7435 -0.2496
  887MOL0     H19680   1.891   7.175   3.039  2.3437  3.3019  2.8475
  887MOL0     H19681   1.956   7.011   3.030 -1.6215 -0.4753 -2.0523
  887MOL0     H19682   2.182   7.108   3.071 -0.8560 -1.3458 -2.6039
  887MOL0     H19683   2.113   7.268   3.038 -1.1698 -0.3450 -0.5728
  887MOL0     H19684   1.965   7.207   3.244  0.1975  0.4334  2.9608
  887MOL0     H19685   2.083   7.091   3.291 -0.6202 -1.8341 -3.0343
  887MOL0     H19686   2.259   7.273   3.269 -0.4887 -1.7907  1.7977
  887MOL0     H19687   2.150   7.396   3.225  0.9909  0.8779  1.6103
  887MOL0     H19688   2.098   7.230   3.482  1.6741 -1.4788 -0.5391
  887MOL0     H19689   2.224   7.333   3.486  1.9447 -1.4998 -2.5567
  887MOL0     H19690   2.093   7.527   3.408  1.1372  0.8407  1.7841
  887MOL0     H19691   1.947   7.448   3.403 -0.8643  3.8221  2.3684
  887MOL0     H19692   1.929   7.514   3.610 -1.2127 -0.5916 -2.9613
  887MOL0     H19693   2.032   7.371   3.648  1.1994 -0.5895 -0.5950
  887MOL0     H19694   2.127   7.656   3.602 -1.2413  0.6214  1.2234
  887MOL0     H19695   2.225   7.512   3.670  0.0625 -0.0296 -1.1304
  887MOL0     H19696   2.226   7.464   3.928 -2.8765 -1.7055  0.0177
  887MOL0     H19697   2.247   7.518   4.156 -0.6699 -0.7496 -1.4286
  887MOL0     H19698   2.179   7.671   4.213 -0.1288  1.9919 -2.3278
  887MOL0     H19699   2.012   7.417   4.174  1.0216 -2.2137  0.7732
  887MOL0     H19700   1.962   7.535   4.270  1.3122 -1.1515  1.8145
  887MOL0     H19701   2.142   7.483   4.445 -3.9209  2.8133 -0.5990
  887MOL0     H19702   2.212   7.375   4.313  0.4146  0.6417 -0.2591
  887MOL0     H19703   2.017   7.233   4.328 -2.5139  0.9287  1.1332
  887MOL0     H19704   1.919   7.346   4.406  0.4866 -0.8249  0.2844
  887MOL0     H19705   2.102   7.134   4.767 -0.7649  0.2215  1.2699
  887MOL0     H19706   1.948   6.909   4.959  0.2149  0.6738  0.6424
  887MOL0     H19707   2.111   6.914   4.905  0.6632  0.5799  0.2421
  887MOL0     H19708   2.020   7.068   4.946 -1.4885  1.3201 -2.7712
  887MOL0     H19709   1.882   6.564   4.960 -0.1195 -3.6310  3.3438
  887MOL0     H19710   1.756   6.404   5.095  3.8106  1.6595 -1.0116
  887MOL0     H19711   1.322   6.446   5.252 -0.7609 -1.0318  1.0978
  887MOL0     H19712   1.323   6.445   5.085 -1.0717  0.3721  2.1786
  887MOL0     H19713   1.322   6.211   5.262  2.0381  0.5333  0.8670
  887MOL0     H19714   1.219   6.261   5.116 -0.5373  1.2887  0.8366
  887MOL0     H19715   1.522   6.175   5.114 -1.0402  1.9872  2.5771
  887MOL0     H19716   1.423   6.210   4.969 -0.3393  3.6002  1.5839
  887MOL0     H19717   1.290   6.026   4.982  0.1159  1.8311 -0.4654
  887MOL0     H19718   1.456   5.982   4.999  1.1374  2.8087  1.8468
  887MOL0     H19719   1.283   5.861   5.162  3.0469 -3.3313  1.0791
  887MOL0     H19720   1.288   6.010   5.247  1.3910 -0.6466  1.2027
  887MOL0     H19721   1.550   5.981   5.261  3.2597 -0.5775  0.9488
  887MOL0     H19722   1.441   5.869   5.351 -4.1830  1.2302 -0.9301
  887MOL0     H19723   1.612   5.824   5.110 -3.7955  1.8172 -2.1132
  887MOL0     H19724   1.484   5.718   5.153  1.2799  1.2641 -2.0274
  887MOL0     H19725   1.758   5.762   5.285 -1.2325  1.1591 -1.4971
  887MOL0     H19726   1.669   5.618   5.244 -1.6982  0.0106  0.9368
  887MOL0     H19727   1.413   6.648   5.089 -0.3245  1.8569 -0.3664
  887MOL0     H19728   1.534   6.824   4.961  0.5303 -0.9559 -1.8615
  887MOL0     H19729   1.741   6.915   4.504  0.7098 -1.3366  0.8788
  887MOL0     H19730   1.858   7.101   4.404 -2.7952  0.7349 -0.0678
  887MOL0     H19731   2.070   7.113   2.636  0.9600 -1.0608 -0.8713
  887MOL0     H19732   1.928   7.037   2.433 -2.9983 -0.6430 -1.7246
  887MOL0     H19733   1.512   7.119   2.229 -1.5373  0.5522 -2.6234
  887MOL0     H19734   1.386   7.087   2.009  0.0032 -1.3027 -1.0338
  887MOL0     H19735   1.519   6.978   1.739 -1.3474  1.2408 -0.3536
  887MOL0     H19736   1.564   6.814   1.744 -0.2553  0.3859 -2.2663
  887MOL0     H19737   1.297   6.890   1.630 -0.2281 -0.2349 -1.1568
  887MOL0     H19738   1.361   6.722   1.638  1.9396  0.0769 -0.6497
  887MOL0     H19739   1.580   6.842   1.531  0.5620  1.6124  0.4567
  887MOL0     H19740   1.462   6.960   1.480  1.8455 -0.5309 -1.6203
  887MOL0     H19741   1.428   6.658   1.418 -0.0918 -0.5236 -0.6021
  887MOL0     H19742   1.498   6.777   1.305 -1.1930 -2.4949 -1.5979
  887MOL0     H19743   1.099   6.855   1.271 -0.8162  2.2998  2.6254
  887MOL0     H19744   1.595   6.719   1.959  1.1541  0.2516 -0.1041
  887MOL0     H19745   1.716   6.746   2.154 -0.7307  0.4542  2.0045
  888MOL0     O19746   3.881   5.001   1.490  0.5058 -0.5050 -0.6333
  888MOL0     C19747   3.961   5.067   1.438 -0.2282 -0.2921  1.1751
  888MOL0     O19748   4.087   5.021   1.400 -0.2940 -0.3112 -0.3251
  888MOL0     C19749   4.115   4.893   1.428  0.0948  0.0991  0.2471
  888MOL0     C19750   4.172   4.806   1.331  0.7366 -0.2531  0.1896
  888MOL0     C19751   4.212   4.678   1.370 -0.7015  0.2207  0.0665
  888MOL0     C19752   4.210   4.630   1.501 -0.8615 -0.4396  0.3816
  888MOL0     O19753   4.245   4.507   1.554  0.2218 -0.1537 -0.0170
  888MOL0     C19754   4.341   4.442   1.465 -0.2212 -0.1678  0.0291
  888MOL0     C19755   4.414   4.338   1.545  0.6082  0.0574 -0.6303
  888MOL0     C19756   4.512   4.279   1.460 -1.7908 -0.6091 -0.2376
  888MOL0     C19757   4.591   4.189   1.553  0.2211  0.5899  0.6680
  888MOL0     C19758   4.709   4.119   1.473  0.8361 -0.5412 -0.1528
  888MOL0     C19759   4.809   4.051   1.565  0.0083  0.5698 -1.0248
  888MOL0     C19760   4.926   4.120   1.627  0.3380 -0.6556 -0.4426
  888MOL0     C19761   5.005   4.207   1.524 -1.4462 -0.4206  0.4179
  888MOL0     N19762   5.081   4.130   1.426  0.9357 -0.0091  0.3599
  888MOL0     C19763   5.026   4.095   1.303  0.4102 -0.0334  0.1722
  888MOL0     C19764   5.132   4.047   1.226 -0.4887 -0.3815  1.0157
  888MOL0     C19765   5.128   3.978   1.088  0.2326  0.2687  0.1965
  888MOL0     C19766   5.023   4.039   0.996 -0.1417 -0.7469 -0.4908
  888MOL0     C19767   5.030   4.191   0.981  0.4697 -0.3786 -0.0785
  888MOL0     C19768   4.907   4.265   0.924  0.0344  0.3384  0.2455
  888MOL0     O19769   4.784   4.246   0.995  0.3519 -0.1182 -0.2319
  888MOL0     C19770   4.747   4.349   1.071  0.4575 -0.1869 -0.7970
  888MOL0     C19771   4.837   4.401   1.165 -0.5526  0.0725 -0.5018
  888MOL0     C19772   4.817   4.525   1.228  0.2286  0.0781  0.0591
  888MOL0     C19773   4.914   4.570   1.335  0.5816  0.5182  0.7942
  888MOL0     C19774   4.698   4.599   1.191 -0.1162  0.5010 -0.9952
  888MOL0     C19775   4.679   4.736   1.231 -0.6280  0.9162  0.1235
  888MOL0     O19776   4.557   4.781   1.267 -0.4995 -0.4385 -0.6567
  888MOL0     C19777   4.532   4.912   1.284 -0.3978  1.1835  0.2662
  888MOL0     C19778   4.526   4.967   1.415 -0.2840  0.1818 -0.3164
  888MOL0     C19779   4.481   5.096   1.428 -0.5796  0.0057  0.1813
  888MOL0     C19780   4.432   5.171   1.321  0.4154  0.3521 -0.3658
  888MOL0     O19781   4.381   5.293   1.338  0.7687 -0.5644  0.2124
  888MOL0     C19782   4.436   5.388   1.431 -1.3489 -1.0102 -0.3148
  888MOL0     C19783   4.470   5.524   1.359 -0.0974  0.4858  0.0868
  888MOL0     C19784   4.588   5.506   1.265 -0.4901 -0.3677  0.4405
  888MOL0     C19785   4.624   5.653   1.222  0.0614  1.0797  0.1841
  888MOL0     C19786   4.649   5.644   1.075 -0.6054  0.7646 -0.2532
  888MOL0     C19787   4.683   5.794   1.037 -0.3335  0.4400 -0.0067
  888MOL0     C19788   4.741   5.817   0.900 -0.4031 -0.6172 -0.3498
  888MOL0     C19789   4.878   5.775   0.870 -0.4989 -0.1268 -0.8369
  888MOL0    Cl19790   4.898   5.807   0.699  0.0033 -0.2469  0.0044
  888MOL0     C19791   4.432   5.111   1.193 -1.1420  0.3021  0.1883
  888MOL0     C19792   4.482   4.979   1.174  0.4652 -0.2540 -0.1794
  888MOL0     O19793   4.781   4.798   1.223  0.1226 -0.5482  0.2302
  888MOL0     C19794   4.607   4.530   1.101  0.6573  1.0609  0.7651
  888MOL0     C19795   4.628   4.408   1.038 -0.0288  0.1118 -0.1732
  888MOL0     N19796   5.248   4.047   1.304 -0.5351  0.7307  0.0495
  888MOL0     N19797   5.215   4.104   1.420 -0.0570  0.0084 -0.1017
  888MOL0     C19798   4.160   4.714   1.601 -0.0892  0.1861  0.8781
  888MOL0     C19799   4.103   4.837   1.564  0.7267  0.5132  0.4149
  888MOL0     C19800   3.935   5.215   1.428 -0.1930 -0.8180  0.0563
  888MOL0     C19801   4.015   5.300   1.350 -0.0489  0.0672  0.3001
  888MOL0     C19802   4.004   5.437   1.347  0.2142  0.3523 -0.2922
  888MOL0     C19803   3.891   5.501   1.391  0.1706  0.1207 -0.7683
  888MOL0     O19804   3.890   5.636   1.381  0.3227  0.7590  0.1824
  888MOL0     C19805   3.773   5.710   1.424  0.1792  0.0893  0.1369
  888MOL0     C19806   3.786   5.847   1.359  0.2564 -0.0764  0.1013
  888MOL0     C19807   3.653   5.901   1.309 -0.2651  1.2276 -0.1213
  888MOL0     C19808   3.560   5.953   1.425  0.0815  0.2927  0.1537
  888MOL0     C19809   3.598   6.079   1.485 -0.2694 -0.0392 -0.3726
  888MOL0     C19810   3.649   6.171   1.539 -0.0604 -0.3822 -0.2974
  888MOL0     C19811   3.797   5.420   1.459 -0.6592  0.2750  0.1530
  888MOL0     C19812   3.820   5.287   1.482 -0.9006 -0.3183 -0.6004
  888MOL0     H19813   4.192   4.845   1.232  1.3888 -1.2542 -0.0902
  888MOL0     H19814   4.243   4.609   1.292 -1.7302 -1.8508  1.4122
  888MOL0     H19815   4.286   4.385   1.389  0.0055 -1.1780  0.6123
  888MOL0     H19816   4.402   4.518   1.414 -1.2756  2.2910  2.1720
  888MOL0     H19817   4.447   4.382   1.640  0.0178 -1.6084  0.4004
  888MOL0     H19818   4.337   4.268   1.578  3.9794 -3.3129  0.7917
  888MOL0     H19819   4.468   4.224   1.376  0.5484  0.5242 -2.3321
  888MOL0     H19820   4.584   4.357   1.431 -0.8848  0.5338  4.3306
  888MOL0     H19821   4.621   4.253   1.636  0.8428 -0.7898  1.5385
  888MOL0     H19822   4.523   4.115   1.597 -1.1760  0.9076 -0.8609
  888MOL0     H19823   4.677   4.052   1.393  0.7473 -0.7660  0.0675
  888MOL0     H19824   4.773   4.194   1.427  1.7260 -0.3541  1.3240
  888MOL0     H19825   4.746   3.996   1.636 -0.9010 -1.5368 -3.3307
  888MOL0     H19826   4.856   3.968   1.512 -0.7547  0.8377 -2.1479
  888MOL0     H19827   4.872   4.181   1.700 -3.1642 -2.4488 -1.3184
  888MOL0     H19828   5.004   4.061   1.676  0.9375  0.0687 -0.5014
  888MOL0     H19829   5.084   4.263   1.576  2.9861 -2.8073 -3.0643
  888MOL0     H19830   4.944   4.284   1.477 -0.9374 -0.1640  0.1775
  888MOL0     H19831   4.923   4.105   1.271 -1.0336 -2.8206  3.2683
  888MOL0     H19832   5.225   3.994   1.041  1.2341  1.2720  2.4555
  888MOL0     H19833   5.100   3.873   1.102 -0.1002  0.3467  0.1133
  888MOL0     H19834   4.926   4.009   1.035  0.4608 -0.8893  0.9954
  888MOL0     H19835   5.021   4.001   0.894  0.1597  1.3013 -1.3059
  888MOL0     H19836   5.115   4.210   0.914 -1.2120  0.3847 -2.1183
  888MOL0     H19837   5.048   4.240   1.077  1.2262  2.0546 -1.3651
  888MOL0     H19838   4.894   4.215   0.828  2.0884 -0.1359  0.1696
  888MOL0     H19839   4.926   4.371   0.904  0.9904  0.5668  2.1390
  888MOL0     H19840   4.922   4.339   1.188 -1.7886 -1.8697 -0.9136
  888MOL0     H19841   4.993   4.495   1.346 -1.2220 -1.5620  0.3336
  888MOL0     H19842   4.959   4.665   1.304 -0.6767  1.6818  2.3868
  888MOL0     H19843   4.849   4.580   1.422 -3.6048  0.6552 -2.0548
  888MOL0     H19844   4.573   4.923   1.502 -1.5180 -2.2393 -0.7633
  888MOL0     H19845   4.486   5.153   1.520  0.1137  2.4264 -1.2607
  888MOL0     H19846   4.359   5.419   1.502 -0.1033  0.1594  0.5794
  888MOL0     H19847   4.523   5.361   1.492  0.1241  1.2709 -1.3032
  888MOL0     H19848   4.382   5.554   1.303  0.0537 -1.2892 -1.1967
  888MOL0     H19849   4.505   5.593   1.436  1.9796  0.8862 -1.1387
  888MOL0     H19850   4.546   5.448   1.182 -2.3492 -0.4479  1.3905
  888MOL0     H19851   4.671   5.450   1.310  0.7237  1.4884  0.5957
  888MOL0     H19852   4.539   5.720   1.238 -1.5611 -0.9805  0.6359
  888MOL0     H19853   4.719   5.673   1.272  0.9461 -2.2873  0.1226
  888MOL0     H19854   4.567   5.600   1.018 -1.8348  2.9923 -0.3255
  888MOL0     H19855   4.737   5.581   1.062 -0.7942  0.6956 -1.2674
  888MOL0     H19856   4.589   5.849   1.042  0.1495  1.3143 -0.3409
  888MOL0     H19857   4.753   5.833   1.111 -0.0457 -1.8559  1.0381
  888MOL0     H19858   4.739   5.925   0.890  1.5681 -0.4859  0.1875
  888MOL0     H19859   4.684   5.759   0.826 -0.7871 -0.8500  0.1203
  888MOL0     H19860   4.883   5.666   0.882 -0.3209 -0.2114 -1.6100
  888MOL0     H19861   4.959   5.823   0.925 -1.8721  1.1042  0.1894
  888MOL0     H19862   4.399   5.169   1.107  1.1409  2.8349  0.8840
  888MOL0     H19863   4.470   4.928   1.079 -1.3447  1.7570 -1.1386
  888MOL0     H19864   4.508   4.571   1.081  1.4584  2.4630 -0.4314
  888MOL0     H19865   4.552   4.357   0.979 -1.0519  0.0873  1.1227
  888MOL0     H19866   4.153   4.672   1.701  1.6454  0.2499  1.0494
  888MOL0     H19867   4.066   4.899   1.645 -1.8541 -2.7112  1.9473
  888MOL0     H19868   4.103   5.253   1.307  1.5643  1.1108  2.2537
  888MOL0     H19869   4.083   5.495   1.301  0.2689  2.6529  2.4359
  888MOL0     H19870   3.692   5.651   1.380  2.1530 -1.5084 -1.5681
  888MOL0     H19871   3.775   5.702   1.533  0.5328 -1.0400  0.0660
  888MOL0     H19872   3.859   5.845   1.277 -0.7181  0.9913 -0.8222
  888MOL0     H19873   3.834   5.904   1.439 -0.0316 -0.0265  0.2399
  888MOL0     H19874   3.596   5.827   1.253  0.1315  1.8932 -1.4536
  888MOL0     H19875   3.679   5.985   1.243 -4.0060  2.2987 -0.4824
  888MOL0     H19876   3.551   5.876   1.502 -2.1207 -0.2009 -0.5434
  888MOL0     H19877   3.464   5.974   1.378 -1.5444 -3.9355  1.1219
  888MOL0     H19878   3.719   6.241   1.579 -0.2798  1.2713 -2.6359
  888MOL0     H19879   3.707   5.459   1.503  0.7291  2.1273  1.5115
  888MOL0     H19880   3.750   5.235   1.546  0.0288  0.8092  1.4090
  889MOL0     O19881   7.092  11.487   8.292  0.2154 -0.2706 -0.1410
  889MOL0     C19882   7.044  11.582   8.231 -0.6715 -0.3364  0.5166
  889MOL0     O19883   7.110  11.678   8.151  0.3385 -0.6100 -0.3502
  889MOL0     C19884   7.241  11.663   8.126 -0.3319  0.6903 -0.2430
  889MOL0     C19885   7.295  11.555   8.051 -0.5743  0.6049  0.2110
  889MOL0     C19886   7.437  11.549   8.022 -0.2460  0.1007 -0.6521
  889MOL0     C19887   7.523  11.649   8.073 -0.3274 -0.2892  0.2050
  889MOL0     O19888   7.665  11.645   8.060  0.6466 -0.1696 -0.2399
  889MOL0     C19889   7.722  11.531   7.995 -0.6292  0.4285  0.5624
  889MOL0     C19890   7.872  11.568   7.969  0.7794  0.6770 -1.5171
  889MOL0     C19891   7.976  11.457   7.971 -0.3637 -0.2931 -0.7365
  889MOL0     C19892   7.947  11.337   7.876 -1.1163 -1.6018  0.1084
  889MOL0     C19893   8.071  11.232   7.882 -0.9124 -0.7463  0.3877
  889MOL0     C19894   8.084  11.166   8.014  0.0581  1.0353 -0.4444
  889MOL0     C19895   8.212  11.070   8.022  0.0149 -1.4886 -0.2128
  889MOL0     C19896   8.222  11.010   8.165 -0.2383 -0.3261  0.5195
  889MOL0     N19897   8.295  10.885   8.185 -0.9759  0.2618 -0.3054
  889MOL0     C19898   8.432  10.867   8.208  0.3281  0.7503  0.2639
  889MOL0     C19899   8.442  10.732   8.238 -0.0845 -0.3776  0.7610
  889MOL0     C19900   8.563  10.641   8.266  0.8708  0.1065  0.3837
  889MOL0     C19901   8.618  10.547   8.155 -0.4451 -0.2584 -0.0313
  889MOL0     C19902   8.524  10.438   8.110 -0.1321  0.5865 -0.8212
  889MOL0     C19903   8.583  10.358   7.994 -0.4298 -0.6874 -0.0471
  889MOL0     O19904   8.637  10.438   7.897 -0.4915 -0.0640  0.2627
  889MOL0     C19905   8.763  10.388   7.846 -0.1262  0.3746 -0.1568
  889MOL0     C19906   8.888  10.431   7.888  0.2025  0.0118  0.6953
  889MOL0     C19907   9.004  10.366   7.842 -0.2549  0.5050  0.5605
  889MOL0     C19908   9.144  10.416   7.893 -0.6427  1.1388 -0.6685
  889MOL0     C19909   8.991  10.259   7.746  0.8832 -1.2640 -0.4685
  889MOL0     C19910   9.105  10.177   7.703  0.1170  0.1277  0.4872
  889MOL0     O19911   9.162  10.088   7.793 -0.0976  0.2748 -0.9002
  889MOL0     C19912   9.261  10.000   7.742  0.3906  0.0001 -0.2349
  889MOL0     C19913   9.229   9.876   7.699  0.0792  1.1982  0.5534
  889MOL0     C19914   9.316   9.781   7.641  0.3325 -0.2825 -0.1124
  889MOL0     C19915   9.447   9.832   7.626  0.6631 -0.3536 -0.0683
  889MOL0     O19916   9.547   9.751   7.577 -0.3038 -0.0083 -0.7579
  889MOL0     C19917   9.588   9.659   7.685 -0.9390 -0.0421  0.8783
  889MOL0     C19918   9.701   9.568   7.647  0.3801 -0.3261 -0.2090
  889MOL0     C19919   9.666   9.476   7.527 -1.1499  0.3345 -0.1581
  889MOL0     C19920   9.778   9.378   7.496 -0.3397  0.9115 -0.9229
  889MOL0     C19921   9.779   9.329   7.355  0.0333  0.2269 -0.0205
  889MOL0     C19922   9.645   9.250   7.334 -0.2802 -1.2243 -0.0738
  889MOL0     C19923   9.651   9.137   7.231 -0.4951 -0.1936  0.2388
  889MOL0     C19924   9.713   9.191   7.100 -0.2879 -0.4800  0.0050
  889MOL0    Cl19925   9.754   9.056   6.988 -0.0720  0.0194  0.4074
  889MOL0     C19926   9.482   9.961   7.661  0.4182  0.1119  0.0069
  889MOL0     C19927   9.389  10.046   7.720  0.5805 -0.0863  1.0084
  889MOL0     O19928   9.151  10.202   7.585  0.1663  0.0089 -0.8318
  889MOL0     C19929   8.859  10.228   7.702  0.2365 -0.0795  0.0308
  889MOL0     C19930   8.744  10.289   7.748 -0.7499 -0.0415  0.4413
  889MOL0     N19931   8.312  10.670   8.224 -0.1480 -0.2732  0.4821
  889MOL0     N19932   8.228  10.767   8.190  0.0853 -0.5074 -0.5433
  889MOL0     C19933   7.458  11.758   8.133  0.8031 -0.2151  0.2757
  889MOL0     C19934   7.328  11.767   8.165  0.2023  0.1102  0.2482
  889MOL0     C19935   6.908  11.616   8.286 -0.1668 -0.1496 -0.2814
  889MOL0     C19936   6.829  11.516   8.344 -1.1448 -0.0278 -0.2540
  889MOL0     C19937   6.707  11.560   8.392 -0.8250 -0.0949  0.5609
  889MOL0     C19938   6.673  11.697   8.411  0.5798  0.6350  0.4433
  889MOL0     O19939   6.562  11.719   8.491 -0.1575  0.2353 -0.0954
  889MOL0     C19940   6.499  11.846   8.511 -0.7098  0.7725  0.4217
  889MOL0     C19941   6.433  11.893   8.390 -0.1621 -0.4417  0.0315
  889MOL0     C19942   6.309  11.809   8.341 -0.5815  0.2139 -0.1490
  889MOL0     C19943   6.261  11.859   8.197  0.0270  0.3966 -0.3364
  889MOL0     C19944   6.129  11.816   8.157 -0.1699  1.0351 -0.2859
  889MOL0     C19945   6.020  11.778   8.107 -0.0428  0.7490 -0.8634
  889MOL0     C19946   6.749  11.792   8.346 -0.3545 -0.8986  0.8488
  889MOL0     C19947   6.863  11.751   8.277  0.9701 -0.1564  0.2963
  889MOL0     H19948   7.237  11.479   8.000  1.8846 -0.3995 -1.2223
  889MOL0     H19949   7.465  11.458   7.969  1.7955  1.2426 -1.6211
  889MOL0     H19950   7.711  11.448   8.065  0.3737  1.5405  2.1019
  889MOL0     H19951   7.682  11.506   7.896  1.4190 -2.2769  0.3213
  889MOL0     H19952   7.876  11.617   7.871  1.3616 -1.2762 -2.5260
  889MOL0     H19953   7.908  11.642   8.041 -1.4793 -1.7741  2.5076
  889MOL0     H19954   8.073  11.503   7.950 -1.9988  3.8618 -0.2213
  889MOL0     H19955   7.974  11.423   8.075 -2.3203  2.5442  0.3135
  889MOL0     H19956   7.856  11.284   7.906  0.3363 -1.9649  4.7691
  889MOL0     H19957   7.936  11.376   7.775 -1.2066 -1.1572  0.2861
  889MOL0     H19958   8.049  11.165   7.798 -0.9172  0.2511 -0.4348
  889MOL0     H19959   8.166  11.283   7.862 -1.5332  1.1653  2.0336
  889MOL0     H19960   8.095  11.239   8.094 -0.4325 -0.4093  1.0188
  889MOL0     H19961   7.997  11.102   8.035  0.6464  0.3972  0.1066
  889MOL0     H19962   8.205  10.989   7.949  1.2913 -0.9194 -1.0079
  889MOL0     H19963   8.307  11.122   8.009  0.1024 -1.4883  0.4137
  889MOL0     H19964   8.116  10.986   8.178 -0.8255 -0.7966 -3.7128
  889MOL0     H19965   8.264  11.093   8.223  0.5741  2.3058 -3.4168
  889MOL0     H19966   8.519  10.930   8.223  2.5458 -2.5489  2.6824
  889MOL0     H19967   8.634  10.699   8.325 -0.3297  1.8965  0.1371
  889MOL0     H19968   8.519  10.567   8.334 -0.4290  0.4424 -0.0638
  889MOL0     H19969   8.709  10.497   8.191  0.1715  0.9406  0.1487
  889MOL0     H19970   8.657  10.609   8.074  1.2630 -0.2583  0.7362
  889MOL0     H19971   8.427  10.480   8.081 -0.7926  0.2878  0.8343
  889MOL0     H19972   8.492  10.371   8.190 -2.2043  0.4122 -1.7310
  889MOL0     H19973   8.510  10.284   7.960 -0.7695 -0.4400  0.1327
  889MOL0     H19974   8.660  10.293   8.036  1.9981  0.1075 -2.9357
  889MOL0     H19975   8.892  10.517   7.953  1.3693  3.2964 -3.2533
  889MOL0     H19976   9.222  10.403   7.817 -1.3359  1.1628 -1.4000
  889MOL0     H19977   9.126  10.517   7.930 -1.2206  0.7491  0.1609
  889MOL0     H19978   9.184  10.357   7.976 -1.6210 -1.6801 -2.0851
  889MOL0     H19979   9.124   9.849   7.711  0.3851 -2.0998 -2.4534
  889MOL0     H19980   9.280   9.685   7.605  1.4576 -1.0299  0.6887
  889MOL0     H19981   9.626   9.715   7.771 -2.9804 -2.1025  3.2988
  889MOL0     H19982   9.504   9.598   7.719 -0.1893 -0.2707  2.4296
  889MOL0     H19983   9.784   9.636   7.627 -0.4345 -0.2139 -3.8596
  889MOL0     H19984   9.727   9.499   7.728  0.4442 -1.3590 -1.0733
  889MOL0     H19985   9.644   9.548   7.447  1.8548  2.6911  0.9370
  889MOL0     H19986   9.576   9.418   7.550 -1.7141  0.8597 -0.9639
  889MOL0     H19987   9.872   9.433   7.508  0.5065 -0.6769  0.0396
  889MOL0     H19988   9.781   9.301   7.574 -1.2354  1.2704 -0.5169
  889MOL0     H19989   9.855   9.255   7.329 -1.0211 -0.5351 -1.0450
  889MOL0     H19990   9.801   9.406   7.281 -1.4948 -1.1243 -1.9760
  889MOL0     H19991   9.618   9.210   7.432  1.6629 -1.1912  0.5165
  889MOL0     H19992   9.569   9.323   7.302  1.0538  0.2218 -0.0392
  889MOL0     H19993   9.548   9.106   7.211 -0.3853  1.1668 -3.0198
  889MOL0     H19994   9.706   9.054   7.276 -2.7480 -1.3905  0.9810
  889MOL0     H19995   9.805   9.250   7.110 -2.3136  3.0790 -0.6537
  889MOL0     H19996   9.658   9.277   7.061  1.6351  1.8701  2.1402
  889MOL0     H19997   9.584   9.997   7.651 -0.0595  1.4411 -0.2954
  889MOL0     H19998   9.419  10.148   7.736  1.9036 -0.6461  2.2195
  889MOL0     H19999   8.842  10.140   7.640 -1.2487  0.3668 -0.2306
  889MOL0     H20000   8.648  10.243   7.728 -1.6496  0.4504  3.1881
  889MOL0     H20001   7.525  11.840   8.159  2.2722  0.0375 -3.6949
  889MOL0     H20002   7.270  11.837   8.224 -1.3240 -1.7125  1.0080
  889MOL0     H20003   6.859  11.412   8.336 -1.8296 -0.1119 -2.4403
  889MOL0     H20004   6.655  11.475   8.436  3.0726 -1.7313  2.4952
  889MOL0     H20005   6.417  11.828   8.581 -2.0805 -2.4781 -1.7953
  889MOL0     H20006   6.569  11.923   8.543 -1.7111  0.9608  2.3366
  889MOL0     H20007   6.500  11.890   8.303 -1.7620  2.2165 -1.4564
  889MOL0     H20008   6.398  11.990   8.426  0.0826 -1.3176  2.8290
  889MOL0     H20009   6.228  11.811   8.415 -0.5698 -0.2284 -0.1177
  889MOL0     H20010   6.339  11.704   8.335 -2.3604 -0.5848  2.9091
  889MOL0     H20011   6.333  11.823   8.122 -0.1805  2.6465 -1.7148
  889MOL0     H20012   6.251  11.968   8.201  2.0073  0.5696  1.9700
  889MOL0     H20013   5.916  11.771   8.082 -0.5429  0.9104  0.9646
  889MOL0     H20014   6.739  11.899   8.356 -0.5366 -1.0292  2.1243
  889MOL0     H20015   6.926  11.833   8.246 -3.8254  3.6533 -0.5703
  890MOL0     O20016   4.525   1.724   1.632  0.5992 -0.0292  0.6925
  890MOL0     C20017   4.496   1.801   1.727 -0.4393  0.1066  0.3396
  890MOL0     O20018   4.591   1.874   1.782 -0.4754  0.3652  0.7427
  890MOL0     C20019   4.716   1.890   1.718  0.0017  0.0210 -0.4276
  890MOL0     C20020   4.829   1.841   1.779  0.4362 -0.4375 -0.3662
  890MOL0     C20021   4.954   1.879   1.727  0.2183  0.4470 -0.0535
  890MOL0     C20022   4.964   1.957   1.610 -0.0232 -0.1816  0.3616
  890MOL0     O20023   5.084   1.988   1.552 -0.2876 -0.3117 -0.5785
  890MOL0     C20024   5.131   1.913   1.442 -0.2257 -0.0062  0.3471
  890MOL0     C20025   5.263   1.981   1.380 -0.4785  0.1327  0.5117
  890MOL0     C20026   5.293   1.899   1.249 -0.2321 -0.2413 -0.2227
  890MOL0     C20027   5.419   1.947   1.182  0.1171 -0.2564 -0.1875
  890MOL0     C20028   5.471   1.843   1.085  0.2249  0.1818 -0.1349
  890MOL0     C20029   5.606   1.869   1.031  0.8537  0.2357 -0.2038
  890MOL0     C20030   5.623   1.988   0.933  0.7817  1.0848  0.1576
  890MOL0     C20031   5.761   1.996   0.882 -0.4923 -0.8281 -0.8397
  890MOL0     N20032   5.771   2.108   0.786  0.0717 -0.5480  0.6824
  890MOL0     C20033   5.692   2.134   0.679  0.1940  0.4338 -0.2903
  890MOL0     C20034   5.738   2.250   0.623 -0.1461  1.0575  0.3644
  890MOL0     C20035   5.681   2.332   0.511 -0.6003 -0.2474  0.5565
  890MOL0     C20036   5.597   2.250   0.411 -0.6500  0.3157 -0.7609
  890MOL0     C20037   5.570   2.338   0.287 -0.0186  0.6121 -0.2344
  890MOL0     C20038   5.479   2.273   0.185 -1.1306  0.1195 -0.2479
  890MOL0     O20039   5.527   2.143   0.155 -0.1257  0.0882 -0.1506
  890MOL0     C20040   5.621   2.128   0.064 -0.5136 -0.6258 -0.3495
  890MOL0     C20041   5.652   1.994   0.026  0.6943  0.9799  0.0565
  890MOL0     C20042   5.757   1.965  -0.069  0.3361 -0.4418  0.3151
  890MOL0     C20043   5.787   1.818  -0.111 -0.1317 -0.4081  0.0568
  890MOL0     C20044   5.820   2.069  -0.142 -0.9635  0.1487  0.2319
  890MOL0     C20045   5.902   2.046  -0.262 -0.5125 -0.9369  0.1225
  890MOL0     O20046   5.892   2.151  -0.348 -0.8685 -0.1335  1.4819
  890MOL0     C20047   5.949   2.150  -0.465  0.0082 -0.1807  0.7217
  890MOL0     C20048   5.882   2.090  -0.575  0.4779 -0.1616  0.0838
  890MOL0     C20049   5.949   2.087  -0.700  0.3044 -0.5325 -0.2089
  890MOL0     C20050   6.076   2.133  -0.708  0.4778 -0.0073 -0.7383
  890MOL0     O20051   6.107   2.130  -0.844 -0.3340 -0.4129 -0.2352
  890MOL0     C20052   6.217   2.209  -0.887 -1.4802 -0.1066 -0.2841
  890MOL0     C20053   6.266   2.188  -1.034 -0.1400  0.2819 -0.0944
  890MOL0     C20054   6.167   2.236  -1.144 -0.2425 -0.1739 -0.2114
  890MOL0     C20055   6.252   2.280  -1.264  0.3054 -0.2805 -0.7456
  890MOL0     C20056   6.349   2.178  -1.313 -0.6665 -0.7421  0.8015
  890MOL0     C20057   6.441   2.247  -1.421  0.2369  0.7904  0.2193
  890MOL0     C20058   6.546   2.148  -1.477 -0.0326  0.5433  0.0238
  890MOL0     C20059   6.608   2.207  -1.605 -0.9585  0.5360 -0.0387
  890MOL0    Cl20060   6.685   2.362  -1.566  0.2472 -0.3774 -0.0647
  890MOL0     C20061   6.138   2.205  -0.606 -0.5908  0.2831 -0.4579
  890MOL0     C20062   6.079   2.208  -0.481 -0.0631  1.1824 -0.8526
  890MOL0     O20063   5.975   1.951  -0.268 -0.2004  0.2718  0.6550
  890MOL0     C20064   5.779   2.201  -0.104  0.2353  1.3261  0.1410
  890MOL0     C20065   5.689   2.228  -0.001  0.7400  0.1613 -0.4777
  890MOL0     N20066   5.851   2.282   0.702 -0.1858 -0.1947 -0.3635
  890MOL0     N20067   5.864   2.203   0.804  0.8689 -0.2488  0.5879
  890MOL0     C20068   4.846   1.990   1.540  0.2826  0.4253  0.3633
  890MOL0     C20069   4.718   1.960   1.598 -0.7445 -0.3449  0.4491
  890MOL0     C20070   4.365   1.803   1.789  1.1448 -1.3234  0.1694
  890MOL0     C20071   4.246   1.762   1.722 -0.7363 -1.2146 -0.1198
  890MOL0     C20072   4.120   1.768   1.780  0.1609  0.0479 -0.3512
  890MOL0     C20073   4.105   1.803   1.912 -0.7148  0.3104  0.2011
  890MOL0     O20074   3.980   1.780   1.963 -0.0618 -0.3594 -0.6048
  890MOL0     C20075   3.956   1.828   2.102  1.0520 -0.5189  0.4266
  890MOL0     C20076   3.950   1.981   2.120 -0.2266 -0.7019 -0.0696
  890MOL0     C20077   3.842   2.047   2.031  0.0334  0.9480 -0.3948
  890MOL0     C20078   3.862   2.065   1.880 -0.8627 -0.5315  0.9018
  890MOL0     C20079   4.003   2.115   1.848 -0.7493  0.2577 -0.1976
  890MOL0     C20080   4.112   2.148   1.807 -0.0392 -0.3992 -0.3701
  890MOL0     C20081   4.218   1.843   1.981 -0.0195 -0.7277 -0.2394
  890MOL0     C20082   4.348   1.849   1.921 -0.2612 -1.1286  0.0721
  890MOL0     H20083   4.823   1.789   1.874 -1.0629  0.2892 -0.0363
  890MOL0     H20084   5.046   1.852   1.778  0.9429 -0.2760 -1.6447
  890MOL0     H20085   5.147   1.813   1.483 -3.7101 -0.0476  1.9914
  890MOL0     H20086   5.046   1.903   1.373  1.3561 -0.8030 -1.5715
  890MOL0     H20087   5.247   2.086   1.351 -0.2665  1.4844  4.6922
  890MOL0     H20088   5.348   1.986   1.449  1.3246  4.5231 -1.5988
  890MOL0     H20089   5.319   1.798   1.283  3.9028 -0.4408 -3.2769
  890MOL0     H20090   5.198   1.905   1.196 -1.3968  1.2468  1.8782
  890MOL0     H20091   5.383   2.039   1.135 -1.3469 -1.2773 -1.1570
  890MOL0     H20092   5.489   1.963   1.264 -1.0737 -0.3527  0.8748
  890MOL0     H20093   5.490   1.742   1.123 -1.1905  0.1469  0.5545
  890MOL0     H20094   5.408   1.837   0.995 -2.3220 -0.4551  1.5698
  890MOL0     H20095   5.676   1.898   1.110  1.2512  1.1074 -0.8694
  890MOL0     H20096   5.640   1.775   0.986 -2.9962  0.2943 -3.7892
  890MOL0     H20097   5.557   1.986   0.846  0.6331  0.3294  0.2849
  890MOL0     H20098   5.599   2.079   0.989 -0.0611  1.1225 -0.2605
  890MOL0     H20099   5.775   1.904   0.825  0.2161 -0.0106 -2.0193
  890MOL0     H20100   5.836   2.002   0.962 -0.6479  0.8966 -0.8026
  890MOL0     H20101   5.609   2.073   0.644 -0.8421  0.6909  1.6164
  890MOL0     H20102   5.612   2.413   0.537  1.2758  1.4188  0.5689
  890MOL0     H20103   5.767   2.369   0.454 -0.9849 -0.2903 -0.0577
  890MOL0     H20104   5.502   2.208   0.442 -0.4540 -2.0756 -3.0716
  890MOL0     H20105   5.657   2.164   0.379 -1.4847 -1.0983  1.2326
  890MOL0     H20106   5.666   2.372   0.246  0.2252  1.0855  0.6911
  890MOL0     H20107   5.521   2.430   0.320 -0.5966 -0.2667  1.4773
  890MOL0     H20108   5.491   2.341   0.100 -1.5801 -1.4200 -1.6055
  890MOL0     H20109   5.374   2.269   0.217 -0.6248 -1.8958  1.3556
  890MOL0     H20110   5.604   1.912   0.079  2.4708 -0.9237 -1.1407
  890MOL0     H20111   5.892   1.786  -0.119 -0.5361 -2.1126  1.0695
  890MOL0     H20112   5.744   1.749  -0.038 -2.2171  1.2743  0.5223
  890MOL0     H20113   5.725   1.784  -0.193 -0.5452 -1.2827  0.7200
  890MOL0     H20114   5.777   2.062  -0.574  1.0177 -2.3757  2.0634
  890MOL0     H20115   5.889   2.046  -0.780  0.3665  1.8508 -1.5553
  890MOL0     H20116   6.207   2.317  -0.874 -0.7623  0.3168 -2.6595
  890MOL0     H20117   6.308   2.190  -0.829 -1.2034  2.9178  0.4512
  890MOL0     H20118   6.356   2.249  -1.043  1.6099 -2.1802 -0.3166
  890MOL0     H20119   6.296   2.084  -1.049 -1.4286  0.2354 -2.8271
  890MOL0     H20120   6.121   2.330  -1.111 -0.6182 -0.4425  0.0363
  890MOL0     H20121   6.079   2.174  -1.164 -0.0922 -1.1112  1.7860
  890MOL0     H20122   6.178   2.293  -1.344 -0.8016 -3.6802 -0.4259
  890MOL0     H20123   6.293   2.378  -1.237 -1.0679 -0.0400  0.6419
  890MOL0     H20124   6.307   2.090  -1.362  1.7936  0.4733 -4.1260
  890MOL0     H20125   6.411   2.144  -1.230 -1.8547 -0.6014  1.7828
  890MOL0     H20126   6.384   2.284  -1.507  2.0202  2.7951 -0.1791
  890MOL0     H20127   6.489   2.336  -1.380 -1.7404  1.9504  0.1645
  890MOL0     H20128   6.520   2.044  -1.501  1.2151  0.8304 -3.0049
  890MOL0     H20129   6.617   2.123  -1.398 -0.1867  0.0159  0.0029
  890MOL0     H20130   6.529   2.213  -1.681 -0.1013 -2.7450 -1.3637
  890MOL0     H20131   6.675   2.135  -1.653 -1.1562  0.0569  0.3917
  890MOL0     H20132   6.235   2.252  -0.613 -2.3073  4.2350 -0.1408
  890MOL0     H20133   6.126   2.267  -0.402 -1.7573  3.5828 -1.5137
  890MOL0     H20134   5.811   2.286  -0.163  1.2067 -0.2256 -1.7166
  890MOL0     H20135   5.686   2.336   0.006  0.4713  0.2550 -1.7914
  890MOL0     H20136   4.838   2.025   1.437 -1.9255  1.6377  0.8944
  890MOL0     H20137   4.630   1.992   1.543  0.3539  0.7326 -0.7360
  890MOL0     H20138   4.251   1.735   1.617  4.1490  2.7197 -1.2316
  890MOL0     H20139   4.028   1.736   1.732 -0.8809  0.2629  1.4419
  890MOL0     H20140   3.852   1.809   2.133  1.7202 -0.2302  3.1426
  890MOL0     H20141   4.030   1.783   2.170  2.2496 -1.1709 -1.2397
  890MOL0     H20142   4.046   2.028   2.095  0.0385 -1.7147 -1.0091
  890MOL0     H20143   3.928   2.002   2.225 -0.1755  0.0181 -0.1950
  890MOL0     H20144   3.829   2.147   2.073  2.7729  0.8668  0.8558
  890MOL0     H20145   3.749   1.988   2.033  1.5071 -1.5339 -0.6743
  890MOL0     H20146   3.786   2.129   1.835 -1.4912 -2.5495 -1.1174
  890MOL0     H20147   3.863   1.978   1.813  0.2597  2.4190 -3.3029
  890MOL0     H20148   4.210   2.176   1.773  1.1034 -2.4387  1.0113
  890MOL0     H20149   4.213   1.874   2.085  1.7980 -0.3032 -0.2494
  890MOL0     H20150   4.422   1.887   1.990 -0.1474  1.3028 -1.2530
  891MOL0     O20151   9.443  10.564   3.726  0.6146  0.7303  0.2485
  891MOL0     C20152   9.539  10.575   3.655 -0.0682  0.2906 -0.0183
  891MOL0     O20153   9.611  10.691   3.634 -1.6377 -0.7472 -0.0516
  891MOL0     C20154   9.580  10.818   3.672 -0.6886 -0.6327 -0.4588
  891MOL0     C20155   9.682  10.894   3.728  0.6455 -0.5947  0.6238
  891MOL0     C20156   9.651  11.021   3.784 -1.0072 -0.7420  0.5521
  891MOL0     C20157   9.523  11.073   3.771  0.3414 -0.1131 -0.3125
  891MOL0     O20158   9.489  11.204   3.810 -0.0990  0.7274  0.2366
  891MOL0     C20159   9.560  11.285   3.903  0.6965 -0.0491  0.1962
  891MOL0     C20160   9.470  11.283   4.029 -0.2917 -0.0526 -0.1266
  891MOL0     C20161   9.527  11.348   4.153  0.3041 -0.8271 -0.4615
  891MOL0     C20162   9.448  11.300   4.280  0.2510 -0.9906  0.0302
  891MOL0     C20163   9.509  11.373   4.410  0.0423 -0.8563 -0.0011
  891MOL0     C20164   9.445  11.321   4.537  0.2775  0.3151  0.9969
  891MOL0     C20165   9.522  11.353   4.669  0.0611  1.4486  0.0357
  891MOL0     C20166   9.506  11.495   4.701 -0.7266  0.1889  0.6272
  891MOL0     N20167   9.628  11.552   4.745 -0.7237 -1.4007  0.0748
  891MOL0     C20168   9.701  11.536   4.861 -0.1296  0.5959 -0.1558
  891MOL0     C20169   9.773  11.649   4.877 -0.2252 -0.3083 -0.4996
  891MOL0     C20170   9.848  11.661   5.006  0.2239 -0.2782 -0.9617
  891MOL0     C20171  10.000  11.639   4.989 -0.1358  0.3462  0.7656
  891MOL0     C20172  10.065  11.687   5.109  0.2550 -0.0365  0.0570
  891MOL0     C20173  10.093  11.563   5.200 -0.1415  0.4253  0.3670
  891MOL0     O20174  10.203  11.481   5.152 -0.6358 -0.3054  0.8228
  891MOL0     C20175  10.222  11.368   5.209  0.1327 -0.1681  0.0497
  891MOL0     C20176  10.351  11.317   5.194  0.2084  0.3354 -1.5086
  891MOL0     C20177  10.401  11.199   5.253  0.6772 -0.1982  0.0760
  891MOL0     C20178  10.534  11.162   5.204 -0.3857  0.6763 -0.5516
  891MOL0     C20179  10.300  11.119   5.326 -0.1525  0.1694 -0.1333
  891MOL0     C20180  10.326  10.980   5.379  0.0925  0.0914  0.7912
  891MOL0     O20181  10.395  10.884   5.306  0.6556  0.6874  0.0315
  891MOL0     C20182  10.397  10.756   5.355 -0.0801 -0.2040 -0.2703
  891MOL0     C20183  10.290  10.665   5.331 -0.2501 -0.3024 -0.2319
  891MOL0     C20184  10.288  10.539   5.385 -0.9464 -0.0446 -0.5889
  891MOL0     C20185  10.380  10.497   5.481  0.4054  0.4607 -0.0661
  891MOL0     O20186  10.367  10.372   5.534 -0.1133 -0.3042  0.3127
  891MOL0     C20187  10.479  10.299   5.560 -0.6538  0.7408 -0.3037
  891MOL0     C20188  10.452  10.153   5.584 -1.0063 -0.7218  0.3768
  891MOL0     C20189  10.369  10.097   5.474 -0.3131  0.0787 -0.3918
  891MOL0     C20190  10.324   9.958   5.503 -0.2566 -0.2405 -0.4020
  891MOL0     C20191  10.193   9.944   5.585  0.6931  0.2901  0.6352
  891MOL0     C20192  10.127   9.813   5.561 -0.1406  1.8030  0.0910
  891MOL0     C20193  10.000   9.807   5.484 -0.7374 -0.4430  0.4229
  891MOL0     C20194   9.932   9.673   5.480  0.3447  0.3862 -0.0299
  891MOL0    Cl20195   9.879   9.613   5.637 -0.5987  0.4028 -0.1288
  891MOL0     C20196  10.478  10.592   5.510  0.3604  0.5375  0.6825
  891MOL0     C20197  10.482  10.716   5.452 -0.5452 -0.0400  0.5083
  891MOL0     O20198  10.272  10.961   5.487 -0.5320 -0.0117 -0.4563
  891MOL0     C20199  10.173  11.174   5.345 -0.1585 -0.5323  0.9303
  891MOL0     C20200  10.131  11.300   5.293  0.6022  1.1189  0.8951
  891MOL0     N20201   9.773  11.722   4.763  0.5827 -0.7688  0.3693
  891MOL0     N20202   9.683  11.671   4.688  0.3245  0.2379 -1.0438
  891MOL0     C20203   9.419  10.995   3.714  0.6976 -0.4971  0.6812
  891MOL0     C20204   9.450  10.867   3.664  0.6345 -0.4118 -1.1620
  891MOL0     C20205   9.574  10.455   3.578 -0.4397  0.7638  0.6875
  891MOL0     C20206   9.491  10.341   3.581 -0.2659  0.1699 -0.3668
  891MOL0     C20207   9.517  10.223   3.516 -0.3805 -0.5249 -0.1417
  891MOL0     C20208   9.626  10.209   3.430 -0.2236  0.2559 -0.7641
  891MOL0     O20209   9.645  10.093   3.355 -0.5915  0.2188  0.8366
  891MOL0     C20210   9.535  10.001   3.338 -0.1084  0.4536  0.1654
  891MOL0     C20211   9.540   9.892   3.223  1.1161  0.0358 -0.3109
  891MOL0     C20212   9.412   9.817   3.221  0.3403 -0.2156 -0.4204
  891MOL0     C20213   9.399   9.698   3.127  0.6571 -0.2849  0.2830
  891MOL0     C20214   9.401   9.754   2.993  0.7064 -0.6835 -0.7387
  891MOL0     C20215   9.416   9.784   2.881  0.8181 -0.4930  0.2178
  891MOL0     C20216   9.713  10.319   3.421  0.3361 -0.2114  0.3372
  891MOL0     C20217   9.691  10.441   3.497  0.2947 -0.8732 -0.5113
  891MOL0     H20218   9.786  10.863   3.739  1.7559  2.0657 -1.1993
  891MOL0     H20219   9.741  11.070   3.821 -1.5079  0.0956  0.6964
  891MOL0     H20220   9.651  11.237   3.939  1.2750  0.1176 -0.9920
  891MOL0     H20221   9.574  11.386   3.864 -0.6993  1.2338  2.7379
  891MOL0     H20222   9.377  11.338   4.012 -0.1974  0.4052  0.7833
  891MOL0     H20223   9.449  11.177   4.050 -2.3496  0.0026 -1.6174
  891MOL0     H20224   9.634  11.331   4.166  1.0587  1.5670 -2.6196
  891MOL0     H20225   9.524  11.456   4.136  0.5492 -0.9445 -1.3030
  891MOL0     H20226   9.343  11.320   4.257  0.1970 -3.0401 -1.8504
  891MOL0     H20227   9.460  11.192   4.296 -1.4398 -1.0496  1.2205
  891MOL0     H20228   9.614  11.342   4.412  0.1182 -0.5686  0.5132
  891MOL0     H20229   9.501  11.482   4.414  0.2155 -0.8177 -0.5258
  891MOL0     H20230   9.348  11.369   4.547  0.8276  1.8255 -0.4651
  891MOL0     H20231   9.436  11.213   4.524 -0.7460  0.4101  0.8263
  891MOL0     H20232   9.484  11.295   4.753 -0.5369  3.2146  1.0155
  891MOL0     H20233   9.629  11.330   4.656 -0.2024 -0.5486  0.9555
  891MOL0     H20234   9.427  11.502   4.776 -1.8987  1.4815 -0.6525
  891MOL0     H20235   9.466  11.553   4.617  1.1294  1.5916  0.6350
  891MOL0     H20236   9.692  11.455   4.932  0.1776  0.4302 -0.3056
  891MOL0     H20237   9.826  11.763   5.036 -3.9524 -1.4834  0.7604
  891MOL0     H20238   9.809  11.597   5.086 -1.2422 -0.7897 -2.0264
  891MOL0     H20239  10.046  11.707   4.917 -0.8101 -0.0245 -0.0374
  891MOL0     H20240  10.029  11.541   4.949  0.8135  0.5434  0.9423
  891MOL0     H20241  10.001  11.758   5.163 -0.5668 -0.9720  0.3458
  891MOL0     H20242  10.162  11.731   5.086  0.3468 -0.9048 -1.3427
  891MOL0     H20243   9.997  11.510   5.197 -0.0089  0.2183 -0.8624
  891MOL0     H20244  10.111  11.598   5.302 -2.3359  0.8574  0.6540
  891MOL0     H20245  10.420  11.376   5.133  2.2066  0.5785  0.8072
  891MOL0     H20246  10.529  11.145   5.096 -0.8688  0.1231 -0.4534
  891MOL0     H20247  10.612  11.234   5.228 -0.6289  0.3010  1.5212
  891MOL0     H20248  10.567  11.069   5.252 -3.8726 -1.3942 -1.7407
  891MOL0     H20249  10.226  10.699   5.250 -0.0047 -2.3011 -1.3381
  891MOL0     H20250  10.212  10.464   5.364 -2.2172  0.2125  2.4785
  891MOL0     H20251  10.548  10.310   5.475 -1.4742  1.6256 -0.8827
  891MOL0     H20252  10.524  10.347   5.647 -1.0996  1.9616 -0.7230
  891MOL0     H20253  10.552  10.108   5.587 -1.1878 -1.5298 -2.6019
  891MOL0     H20254  10.402  10.139   5.680  0.8481 -0.9955  1.3492
  891MOL0     H20255  10.431  10.101   5.384 -0.5364  1.8829 -0.5029
  891MOL0     H20256  10.279  10.158   5.465 -1.1758 -0.8066  1.5805
  891MOL0     H20257  10.319   9.918   5.402  0.6944  0.2737 -0.6633
  891MOL0     H20258  10.397   9.898   5.558  1.0202  1.5663 -0.0107
  891MOL0     H20259  10.116  10.014   5.552  0.9844  0.5729  0.5511
  891MOL0     H20260  10.211   9.947   5.693 -0.6839  0.3444  0.8744
  891MOL0     H20261  10.193   9.746   5.505  2.4951  1.8461  2.8469
  891MOL0     H20262  10.102   9.778   5.662 -1.7668  2.4728 -0.0502
  891MOL0     H20263  10.020   9.844   5.383  3.9121 -1.4305  0.7250
  891MOL0     H20264   9.931   9.867   5.543  0.6059  0.9702  0.6114
  891MOL0     H20265   9.993   9.598   5.428  0.3974 -0.4876  1.2384
  891MOL0     H20266   9.851   9.683   5.407  0.9811  1.5645 -0.5856
  891MOL0     H20267  10.557  10.577   5.583  0.1412 -3.4026  0.3230
  891MOL0     H20268  10.551  10.792   5.489 -2.8901  1.7370  1.4988
  891MOL0     H20269  10.093  11.120   5.395 -0.0131 -0.6057  1.0869
  891MOL0     H20270  10.032  11.340   5.314  1.4875  4.4835 -0.7828
  891MOL0     H20271   9.320  11.038   3.713 -0.9263 -3.8756 -1.7144
  891MOL0     H20272   9.361  10.820   3.624  2.7515 -0.6376 -6.3890
  891MOL0     H20273   9.409  10.328   3.652  0.1411  1.4428  0.3707
  891MOL0     H20274   9.453  10.140   3.543  1.1441 -2.5876 -2.3878
  891MOL0     H20275   9.524   9.953   3.436  3.6223  1.0179  1.0075
  891MOL0     H20276   9.446  10.059   3.313 -0.2274  0.4348  0.5394
  891MOL0     H20277   9.619   9.819   3.243 -2.4397 -3.4989  2.7201
  891MOL0     H20278   9.558   9.950   3.132 -0.1929 -1.0552 -1.3014
  891MOL0     H20279   9.332   9.890   3.205 -0.8153 -1.0313  1.2839
  891MOL0     H20280   9.398   9.777   3.322  4.9933  1.4498  1.1087
  891MOL0     H20281   9.310   9.636   3.143  0.7449 -0.5278 -0.1792
  891MOL0     H20282   9.482   9.628   3.134  1.7146  0.8835 -0.3399
  891MOL0     H20283   9.442   9.811   2.781  4.1326  4.4492  2.0500
  891MOL0     H20284   9.793  10.299   3.351  0.7821  2.0373  0.1335
  891MOL0     H20285   9.762  10.524   3.498 -1.9579  1.2318  2.0553
  892MOL0     O20286   4.324  11.467   6.576  0.2360 -0.0376 -0.4730
  892MOL0     C20287   4.269  11.539   6.491 -0.5968  0.2489  0.2119
  892MOL0     O20288   4.261  11.510   6.357 -0.0175 -0.6737  0.5499
  892MOL0     C20289   4.319  11.392   6.311  0.6525 -0.2151 -0.4335
  892MOL0     C20290   4.238  11.315   6.228 -0.1645 -0.3367  0.1703
  892MOL0     C20291   4.304  11.194   6.183  0.3620 -0.8175  0.1242
  892MOL0     C20292   4.432  11.155   6.216 -0.5641  0.0491 -0.2838
  892MOL0     O20293   4.486  11.037   6.183 -0.3580 -0.1498 -0.7614
  892MOL0     C20294   4.454  10.981   6.049 -0.6643  0.3773  0.2716
  892MOL0     C20295   4.544  11.050   5.938  0.5542 -0.4485 -0.3497
  892MOL0     C20296   4.695  11.021   5.939 -0.3689 -0.7901 -0.3779
  892MOL0     C20297   4.765  11.114   6.037 -0.7811  1.0379 -0.2252
  892MOL0     C20298   4.917  11.124   6.035 -0.3745  0.1281 -0.1283
  892MOL0     C20299   5.001  10.991   6.031  0.8243  0.2300  0.3125
  892MOL0     C20300   5.149  10.995   6.062  0.7859  0.2254 -0.7672
  892MOL0     C20301   5.217  10.853   6.084  0.3868  0.1223  0.6868
  892MOL0     N20302   5.358  10.871   6.140 -0.1075  0.1663 -0.2727
  892MOL0     C20303   5.414  10.789   6.235 -0.4851  0.4166  0.4990
  892MOL0     C20304   5.544  10.825   6.249  0.4686 -0.0614  0.9238
  892MOL0     C20305   5.631  10.779   6.356 -0.0929 -1.3314  0.4158
  892MOL0     C20306   5.711  10.893   6.428 -0.4274  0.3007  0.3532
  892MOL0     C20307   5.625  10.991   6.516  0.4334  0.7426  0.3423
  892MOL0     C20308   5.709  11.093   6.594 -0.4499 -0.4559 -0.1295
  892MOL0     O20309   5.782  11.032   6.695 -0.2128 -0.0100 -0.5662
  892MOL0     C20310   5.877  11.118   6.745 -0.3271 -0.1032  0.3250
  892MOL0     C20311   5.847  11.223   6.827 -0.2944 -0.5623  0.3803
  892MOL0     C20312   5.945  11.313   6.880  0.1769  0.2382  0.6849
  892MOL0     C20313   5.898  11.428   6.960 -0.0483  0.3821 -0.2957
  892MOL0     C20314   6.083  11.285   6.864  0.4965  1.4854  0.8001
  892MOL0     C20315   6.196  11.361   6.908  0.4787 -0.2346 -1.1266
  892MOL0     O20316   6.319  11.306   6.896 -0.0741  0.6604 -0.1356
  892MOL0     C20317   6.427  11.393   6.903 -0.1705  0.0157  0.3134
  892MOL0     C20318   6.496  11.422   6.787 -0.8857  0.5532  0.7487
  892MOL0     C20319   6.593  11.522   6.784  0.9222 -0.8975 -0.9012
  892MOL0     C20320   6.630  11.587   6.903 -0.8744 -0.5498  0.1426
  892MOL0     O20321   6.716  11.693   6.910  0.1145  0.1033 -0.0464
  892MOL0     C20322   6.806  11.700   6.797 -0.2150 -0.7319  0.0915
  892MOL0     C20323   6.913  11.807   6.810  0.7531 -0.8434  0.4728
  892MOL0     C20324   7.010  11.757   6.922  0.1415 -0.1468 -0.2093
  892MOL0     C20325   7.121  11.862   6.936  0.1595 -1.3872 -0.8435
  892MOL0     C20326   7.236  11.813   7.023 -0.3790  0.2014  0.7773
  892MOL0     C20327   7.312  11.688   6.971  0.0961  0.5279 -0.1497
  892MOL0     C20328   7.381  11.705   6.840  0.2247  0.1796  0.3569
  892MOL0     C20329   7.451  11.581   6.791  0.2824 -0.9377  0.3450
  892MOL0    Cl20330   7.493  11.599   6.617  0.0761  0.5583 -0.7531
  892MOL0     C20331   6.573  11.546   7.020 -0.7377  0.2315 -0.0523
  892MOL0     C20332   6.466  11.448   7.021 -1.2177 -0.3708 -0.1134
  892MOL0     O20333   6.181  11.470   6.950 -0.0650 -0.3136 -0.3068
  892MOL0     C20334   6.113  11.168   6.784  0.3070  0.8304  0.5832
  892MOL0     C20335   6.011  11.092   6.722 -0.2841 -0.0900 -0.0062
  892MOL0     N20336   5.566  10.932   6.165 -1.3218 -0.5009 -0.1021
  892MOL0     N20337   5.458  10.957   6.095 -0.7085 -0.6050 -0.1001
  892MOL0     C20338   4.511  11.238   6.296  0.2500  0.0772  0.0602
  892MOL0     C20339   4.454  11.359   6.342  0.0332 -0.0754  0.4285
  892MOL0     C20340   4.214  11.662   6.536  0.6041  0.0179 -0.0287
  892MOL0     C20341   4.201  11.685   6.674 -0.0024 -0.2203 -0.0326
  892MOL0     C20342   4.154  11.809   6.720  0.4650 -0.6795 -0.2718
  892MOL0     C20343   4.097  11.905   6.633 -0.3584  0.2559 -0.2481
  892MOL0     O20344   4.032  12.026   6.666 -0.7022 -0.0416  0.3730
  892MOL0     C20345   3.989  12.048   6.802  0.7258 -0.2504  0.2586
  892MOL0     C20346   3.874  11.955   6.851  0.1165 -0.1988 -0.0759
  892MOL0     C20347   3.730  12.000   6.801 -0.5184  1.3779  0.5774
  892MOL0     C20348   3.632  11.882   6.807  0.1547 -0.1627 -0.1288
  892MOL0     C20349   3.553  11.888   6.931  0.0487 -0.1771  0.9034
  892MOL0     C20350   3.500  11.918   7.038  0.5019 -0.2584 -0.1039
  892MOL0     C20351   4.131  11.886   6.501 -0.1798 -1.2373 -0.1991
  892MOL0     C20352   4.184  11.766   6.445 -0.4319 -0.1567  0.3836
  892MOL0     H20353   4.138  11.349   6.204  0.5968  2.1233  0.1045
  892MOL0     H20354   4.242  11.119   6.136  2.2442 -3.4953  1.6705
  892MOL0     H20355   4.471  10.873   6.047  4.5250  0.8320  2.1027
  892MOL0     H20356   4.350  10.998   6.019 -0.8025 -0.3801  0.3022
  892MOL0     H20357   4.502  11.019   5.842  1.2326  0.5550 -0.9884
  892MOL0     H20358   4.520  11.156   5.940  1.5979 -0.1720  2.7951
  892MOL0     H20359   4.714  10.921   5.979  3.4382  0.3541  1.0541
  892MOL0     H20360   4.732  11.035   5.837 -0.7140 -3.1905 -0.8954
  892MOL0     H20361   4.747  11.218   6.008  2.7893  1.2042 -2.3966
  892MOL0     H20362   4.723  11.106   6.138  1.6813  1.6316  0.9300
  892MOL0     H20363   4.949  11.185   5.951 -2.3469  1.6360  0.1389
  892MOL0     H20364   4.934  11.174   6.131 -1.0358 -1.7261  1.0300
  892MOL0     H20365   4.963  10.920   6.105  0.1316 -0.2957 -0.5362
  892MOL0     H20366   4.989  10.950   5.931 -0.2399  3.8412 -1.2274
  892MOL0     H20367   5.196  11.062   5.990 -0.7093  2.4006  0.1473
  892MOL0     H20368   5.173  11.045   6.157 -1.0046  0.7611 -0.5428
  892MOL0     H20369   5.220  10.800   5.987  0.3402  1.6599 -0.1828
  892MOL0     H20370   5.163  10.804   6.165  0.6448 -0.1936  0.6708
  892MOL0     H20371   5.354  10.710   6.280 -1.9353  0.9892 -0.3436
  892MOL0     H20372   5.565  10.724   6.424 -1.4613 -1.0652 -0.6511
  892MOL0     H20373   5.706  10.708   6.319  1.0867 -0.8205  1.7405
  892MOL0     H20374   5.770  10.938   6.348 -2.2341  1.0240 -0.6329
  892MOL0     H20375   5.783  10.842   6.492 -1.2450  0.9143  1.8197
  892MOL0     H20376   5.569  10.934   6.591 -1.5527  0.7796 -1.0443
  892MOL0     H20377   5.562  11.050   6.449 -1.9923  1.2163  2.8414
  892MOL0     H20378   5.638  11.174   6.614 -2.5135 -1.2465 -3.5802
  892MOL0     H20379   5.788  11.136   6.531  0.1053  3.4651  2.7691
  892MOL0     H20380   5.750  11.262   6.856  0.8277  2.6420  0.2970
  892MOL0     H20381   5.919  11.420   7.067 -3.7753 -0.5206  0.5141
  892MOL0     H20382   5.943  11.523   6.930  3.8447 -1.0640  0.3848
  892MOL0     H20383   5.789  11.433   6.957 -0.0205  0.5306 -2.3467
  892MOL0     H20384   6.469  11.370   6.696 -3.8938  0.4605  1.5947
  892MOL0     H20385   6.627  11.547   6.684  0.7852 -0.8487 -0.9356
  892MOL0     H20386   6.844  11.606   6.756  1.3844  1.1868 -3.2137
  892MOL0     H20387   6.741  11.741   6.718 -1.8065 -0.2891  1.5747
  892MOL0     H20388   6.975  11.814   6.720 -1.8782  0.5179 -1.3981
  892MOL0     H20389   6.865  11.905   6.818 -0.0654 -1.0046 -1.7229
  892MOL0     H20390   7.050  11.660   6.893  2.3378  0.4593  0.6191
  892MOL0     H20391   6.957  11.740   7.016  1.4147  0.3807  0.6227
  892MOL0     H20392   7.147  11.905   6.839 -2.6045  3.0692  0.1022
  892MOL0     H20393   7.074  11.950   6.981  1.8354 -0.6294 -0.4921
  892MOL0     H20394   7.200  11.794   7.125 -2.7864  2.2709  0.4219
  892MOL0     H20395   7.313  11.890   7.033  0.7786 -1.0191  1.7921
  892MOL0     H20396   7.381  11.656   7.050 -0.1092 -4.3854 -1.6273
  892MOL0     H20397   7.246  11.603   6.954 -1.0561  2.1115 -5.1593
  892MOL0     H20398   7.454  11.786   6.853  0.7345 -0.5843  2.6969
  892MOL0     H20399   7.305  11.732   6.766  0.5856 -0.1610 -0.1374
  892MOL0     H20400   7.376  11.503   6.808  0.8920 -1.3656  1.1620
  892MOL0     H20401   7.543  11.554   6.844  0.4549  1.3454  1.2990
  892MOL0     H20402   6.611  11.593   7.110 -0.8138  0.8931 -0.3648
  892MOL0     H20403   6.409  11.417   7.108 -2.0485 -0.0396 -0.5277
  892MOL0     H20404   6.213  11.142   6.753  0.9515 -0.7526  3.6075
  892MOL0     H20405   6.040  11.007   6.662 -1.7051 -0.6066  0.0026
  892MOL0     H20406   4.609  11.202   6.323 -0.6429 -1.4933  1.3510
  892MOL0     H20407   4.512  11.420   6.411  1.3557 -0.5722 -0.2159
  892MOL0     H20408   4.250  11.616   6.742  3.3266  2.8976  1.0837
  892MOL0     H20409   4.158  11.837   6.825 -3.3659 -0.9578  0.0924
  892MOL0     H20410   4.081  12.048   6.861  0.8705  1.1103  0.0706
  892MOL0     H20411   3.940  12.146   6.811 -0.3613 -0.9228  2.0221
  892MOL0     H20412   3.872  11.960   6.960  1.0409  0.6332 -0.0807
  892MOL0     H20413   3.899  11.856   6.810 -1.3786  0.1400 -1.9828
  892MOL0     H20414   3.741  12.019   6.694 -1.3285 -1.9470 -0.2233
  892MOL0     H20415   3.691  12.087   6.856 -1.4525  0.8833  0.7236
  892MOL0     H20416   3.678  11.783   6.800  0.5299  0.1443 -3.5188
  892MOL0     H20417   3.562  11.904   6.726  1.0646  1.2057 -0.5704
  892MOL0     H20418   3.467  11.928   7.139 -0.6824  0.3598 -0.5239
  892MOL0     H20419   4.118  11.970   6.433  2.7565  0.6547  1.3348
  892MOL0     H20420   4.241  11.757   6.353 -0.8547  1.3660 -0.0444
  893MOL0     O20421   3.815   4.455   9.065 -0.1454  0.0298  0.3790
  893MOL0     C20422   3.784   4.341   9.031  0.6091 -0.7692  0.6941
  893MOL0     O20423   3.766   4.233   9.113  0.1154  0.0640 -0.5165
  893MOL0     C20424   3.756   4.250   9.255 -0.6289  0.2426  1.0313
  893MOL0     C20425   3.844   4.184   9.340  0.9166  0.4386  0.5436
  893MOL0     C20426   3.823   4.184   9.476 -0.9978  1.5137 -0.5159
  893MOL0     C20427   3.718   4.262   9.530  1.2547  0.8217 -0.6865
  893MOL0     O20428   3.690   4.256   9.663  0.9193  0.5041 -0.4715
  893MOL0     C20429   3.576   4.326   9.717  0.4064 -0.0290  0.9856
  893MOL0     C20430   3.581   4.315   9.868  0.3143 -0.0618 -0.2275
  893MOL0     C20431   3.438   4.329   9.919 -0.7522 -0.2983  0.3969
  893MOL0     C20432   3.427   4.257  10.057 -0.5913  0.1874 -0.3540
  893MOL0     C20433   3.292   4.285  10.133  0.2118 -0.5919 -0.7960
  893MOL0     C20434   3.273   4.211  10.262  0.1419  0.0035 -0.0806
  893MOL0     C20435   3.170   4.281  10.349 -0.7422 -0.3660  0.1285
  893MOL0     C20436   3.022   4.260  10.299 -0.1908  1.1478  0.3032
  893MOL0     N20437   2.936   4.378  10.316 -0.2889  0.3905 -0.6093
  893MOL0     C20438   2.867   4.442  10.215 -0.2501  0.9357  0.8335
  893MOL0     C20439   2.788   4.533  10.274 -0.1869  0.1901  0.0493
  893MOL0     C20440   2.682   4.620  10.223  0.4880  0.0554  0.2345
  893MOL0     C20441   2.554   4.623  10.305 -0.5778 -1.1112 -0.3849
  893MOL0     C20442   2.474   4.493  10.320 -0.7311  0.3167 -1.2171
  893MOL0     C20443   2.373   4.466  10.207  0.1753 -0.4669  0.3605
  893MOL0     O20444   2.439   4.390  10.100  0.5740 -0.6154 -0.7249
  893MOL0     C20445   2.352   4.324  10.016  0.2353 -0.2316 -0.2310
  893MOL0     C20446   2.393   4.199   9.955  1.0616  0.0981  0.3383
  893MOL0     C20447   2.301   4.109   9.897  0.2353  0.3539  0.3787
  893MOL0     C20448   2.361   3.983   9.836  1.2517  0.2137 -0.2742
  893MOL0     C20449   2.163   4.145   9.887  0.0546 -0.2315  0.1864
  893MOL0     C20450   2.048   4.063   9.831  0.0656  0.1192 -0.2479
  893MOL0     O20451   1.934   4.132   9.783 -0.7797  0.1105 -0.3023
  893MOL0     C20452   1.820   4.062   9.752  0.2576  0.4037 -0.3171
  893MOL0     C20453   1.818   3.935   9.672  0.0216 -0.3211 -0.1813
  893MOL0     C20454   1.697   3.854   9.659  0.0600  0.2203  0.5747
  893MOL0     C20455   1.580   3.890   9.726  0.5002  0.2014 -0.5131
  893MOL0     O20456   1.456   3.835   9.723  0.2271 -0.4344  0.3997
  893MOL0     C20457   1.419   3.767   9.604 -0.3858 -0.9228  0.7160
  893MOL0     C20458   1.279   3.701   9.625 -0.3660 -0.2906 -0.0061
  893MOL0     C20459   1.225   3.654   9.493  0.5012  0.1437  0.3540
  893MOL0     C20460   1.067   3.645   9.500  0.2947  0.8365  0.4050
  893MOL0     C20461   0.992   3.559   9.394  0.6170  0.2179 -0.2099
  893MOL0     C20462   0.847   3.519   9.418 -0.1764  0.6312  0.0211
  893MOL0     C20463   0.775   3.458   9.305  0.2280  1.0924  0.0361
  893MOL0     C20464   0.844   3.334   9.247 -0.4508  0.3512  0.2663
  893MOL0    Cl20465   0.838   3.192   9.356  0.0817  0.5180 -0.4523
  893MOL0     C20466   1.582   4.011   9.793 -0.1356 -0.1832  0.8384
  893MOL0     C20467   1.697   4.092   9.802 -0.2748 -0.2200  0.0797
  893MOL0     O20468   2.063   3.939   9.838  0.0598  0.2989  0.1777
  893MOL0     C20469   2.128   4.274   9.934 -0.0415  0.8323 -0.1401
  893MOL0     C20470   2.218   4.346  10.008 -0.3724 -1.3169  0.1941
  893MOL0     N20471   2.812   4.521  10.411 -0.2141  0.1128 -0.3027
  893MOL0     N20472   2.911   4.440  10.430  0.4455 -0.6582  0.4035
  893MOL0     C20473   3.638   4.342   9.443  0.0564 -0.2562 -0.6450
  893MOL0     C20474   3.657   4.334   9.310 -0.4310  0.1135  0.6008
  893MOL0     C20475   3.742   4.322   8.881 -0.4353  0.0672 -0.6155
  893MOL0     C20476   3.706   4.201   8.824  0.3844  0.7578  0.8723
  893MOL0     C20477   3.654   4.198   8.687 -0.4970  1.0310 -0.4519
  893MOL0     C20478   3.638   4.317   8.618 -1.2910  0.2871 -0.3277
  893MOL0     O20479   3.572   4.295   8.503 -0.2060  0.2063  0.1010
  893MOL0     C20480   3.545   4.414   8.428 -0.3378 -0.1217  0.5925
  893MOL0     C20481   3.499   4.371   8.285  0.8553  0.4026 -0.2835
  893MOL0     C20482   3.433   4.488   8.215  0.6027 -0.4631  0.4867
  893MOL0     C20483   3.278   4.496   8.200 -0.5148  0.3822 -0.9593
  893MOL0     C20484   3.209   4.466   8.335 -1.1696  0.0362 -0.1290
  893MOL0     C20485   3.167   4.453   8.447 -0.1828 -0.7499 -0.5938
  893MOL0     C20486   3.669   4.433   8.677 -0.3248  0.1088 -0.2076
  893MOL0     C20487   3.727   4.436   8.806  0.4020 -0.0140  0.1710
  893MOL0     H20488   3.920   4.129   9.286 -3.0004 -3.8482 -1.3361
  893MOL0     H20489   3.891   4.123   9.535 -0.3459 -0.6667 -3.2912
  893MOL0     H20490   3.581   4.431   9.685  0.0810 -0.3778 -0.2534
  893MOL0     H20491   3.483   4.286   9.676 -0.7811  2.2806  1.2653
  893MOL0     H20492   3.627   4.218   9.893  0.0223 -0.3691 -0.8747
  893MOL0     H20493   3.641   4.387   9.925 -0.8758  1.0069 -0.3039
  893MOL0     H20494   3.410   4.434   9.921 -0.4069 -0.0569 -2.6439
  893MOL0     H20495   3.376   4.277   9.846 -0.3756  0.1694 -0.2715
  893MOL0     H20496   3.438   4.148  10.051  0.7348  0.0785  2.2919
  893MOL0     H20497   3.512   4.302  10.110 -0.3007 -0.0459 -0.6205
  893MOL0     H20498   3.282   4.394  10.128  1.7389 -0.4770 -3.0780
  893MOL0     H20499   3.210   4.251  10.071  1.2252 -0.5334 -2.2234
  893MOL0     H20500   3.248   4.107  10.244 -0.7119  0.4869 -1.9238
  893MOL0     H20501   3.366   4.221  10.320 -0.6132  3.2190  0.7929
  893MOL0     H20502   3.174   4.244  10.452 -2.8380 -0.9663  0.0460
  893MOL0     H20503   3.197   4.387  10.361  3.3758 -1.2406  0.1376
  893MOL0     H20504   2.976   4.179  10.356  3.5436 -4.0628 -3.1794
  893MOL0     H20505   3.018   4.227  10.195  1.7577  0.3235  0.4464
  893MOL0     H20506   2.886   4.434  10.108  0.1301 -1.4234  1.0239
  893MOL0     H20507   2.728   4.718  10.205  1.6431 -0.5292 -0.1403
  893MOL0     H20508   2.652   4.568  10.132 -1.3460  1.0375  0.2361
  893MOL0     H20509   2.476   4.696  10.282 -1.6516 -1.4565  1.8834
  893MOL0     H20510   2.585   4.651  10.406  0.7763 -0.3557 -0.9741
  893MOL0     H20511   2.417   4.500  10.413 -1.6933 -2.7262 -1.4893
  893MOL0     H20512   2.546   4.412  10.329 -0.5166  0.2397 -3.2940
  893MOL0     H20513   2.330   4.561  10.175  1.7953  0.6137  1.2238
  893MOL0     H20514   2.289   4.413  10.252 -0.8546  1.9557  1.4287
  893MOL0     H20515   2.501   4.182   9.957  1.5357  2.4413 -1.2581
  893MOL0     H20516   2.468   3.972   9.859  1.4777 -0.9529 -1.7412
  893MOL0     H20517   2.308   3.897   9.878  1.5489  0.2487  0.1887
  893MOL0     H20518   2.355   3.974   9.728  0.1411 -0.2590 -0.1843
  893MOL0     H20519   1.906   3.887   9.631 -0.0228 -2.2323  1.7866
  893MOL0     H20520   1.719   3.767   9.598 -1.9875 -1.5449  2.1843
  893MOL0     H20521   1.410   3.834   9.518  4.0022 -0.5220  0.3534
  893MOL0     H20522   1.491   3.690   9.576  2.5505  1.6352  0.7458
  893MOL0     H20523   1.268   3.607   9.681 -1.8671  0.0059  0.2467
  893MOL0     H20524   1.205   3.773   9.662 -1.0190 -0.3656 -1.1322
  893MOL0     H20525   1.258   3.553   9.467 -0.7614  0.4052 -2.5768
  893MOL0     H20526   1.255   3.718   9.409  1.6935 -0.4401  0.3054
  893MOL0     H20527   1.040   3.598   9.595  2.0859 -0.1434  0.4763
  893MOL0     H20528   1.027   3.747   9.499 -0.5186  0.5305 -0.6636
  893MOL0     H20529   1.053   3.473   9.366  1.7931  0.6240  1.0039
  893MOL0     H20530   1.002   3.622   9.305  0.6189  0.2085 -0.2168
  893MOL0     H20531   0.843   3.448   9.501 -0.2515 -0.9966 -1.3175
  893MOL0     H20532   0.794   3.605   9.460  4.5052  3.0725  1.7138
  893MOL0     H20533   0.759   3.524   9.219  0.5909 -0.9744 -1.7100
  893MOL0     H20534   0.672   3.428   9.325 -0.1920  0.4153 -2.7217
  893MOL0     H20535   0.948   3.348   9.214  0.2953  1.4779  2.7899
  893MOL0     H20536   0.794   3.318   9.151  2.9615  1.3266 -1.8556
  893MOL0     H20537   1.497   4.062   9.837  0.6422  0.6871  1.3476
  893MOL0     H20538   1.721   4.174   9.870  1.6961  0.1724 -1.0249
  893MOL0     H20539   2.029   4.317   9.921  0.1543  1.8776  1.5421
  893MOL0     H20540   2.182   4.437  10.057 -0.4516 -1.9454  1.3417
  893MOL0     H20541   3.553   4.404   9.472  0.0386 -0.7125  0.3192
  893MOL0     H20542   3.598   4.394   9.241  0.4045  0.4818  0.1818
  893MOL0     H20543   3.716   4.101   8.866 -0.8234 -0.7395 -2.1364
  893MOL0     H20544   3.639   4.102   8.639 -0.3055 -0.5877  2.4802
  893MOL0     H20545   3.453   4.453   8.472 -2.0983 -1.7854 -1.4107
  893MOL0     H20546   3.615   4.497   8.413 -0.5137 -0.4507 -3.1153
  893MOL0     H20547   3.430   4.286   8.290  2.5263 -0.9945  0.1182
  893MOL0     H20548   3.581   4.334   8.224  1.2265  0.6744  0.0465
  893MOL0     H20549   3.474   4.495   8.114  2.2736 -1.9721  1.0133
  893MOL0     H20550   3.455   4.581   8.269 -0.1443  0.7931 -1.2520
  893MOL0     H20551   3.242   4.434   8.118 -0.8553 -2.1499  0.9994
  893MOL0     H20552   3.255   4.600   8.173  0.9709  0.7435 -0.9431
  893MOL0     H20553   3.130   4.431   8.545  0.4731  0.0618 -0.1440
  893MOL0     H20554   3.644   4.533   8.642 -0.5541 -0.3752 -1.4937
  893MOL0     H20555   3.744   4.532   8.853 -0.6464  0.5712 -0.6169
  894MOL0     O20556   5.199  10.975   1.523 -0.5813  0.3442  0.1777
  894MOL0     C20557   5.307  10.921   1.495  0.5395 -0.1064 -0.3211
  894MOL0     O20558   5.411  10.989   1.431  0.2832  0.0665 -0.1325
  894MOL0     C20559   5.393  11.099   1.355  0.0072 -0.5660 -0.0418
  894MOL0     C20560   5.507  11.178   1.341 -0.1015  0.8599  0.0819
  894MOL0     C20561   5.511  11.292   1.264 -0.4715 -0.3332 -0.0008
  894MOL0     C20562   5.398  11.323   1.188  0.7300 -0.7265 -0.0623
  894MOL0     O20563   5.401  11.434   1.115  0.1327 -0.7186 -0.1920
  894MOL0     C20564   5.439  11.426   0.973 -0.3081 -0.3439  0.1592
  894MOL0     C20565   5.429  11.564   0.914  0.9321  0.3114 -0.3422
  894MOL0     C20566   5.503  11.671   0.985 -0.5506  0.5261 -0.7798
  894MOL0     C20567   5.454  11.715   1.133  0.4777  0.6030  0.0201
  894MOL0     C20568   5.507  11.853   1.173 -0.3268 -0.0015  0.4454
  894MOL0     C20569   5.657  11.860   1.185 -0.5689  0.4001  0.6367
  894MOL0     C20570   5.714  11.996   1.200 -0.1253  0.3207 -0.3878
  894MOL0     C20571   5.820  12.028   1.087  0.5815 -0.2254  0.0597
  894MOL0     N20572   5.764  12.041   0.947  0.0376 -0.4840  0.4516
  894MOL0     C20573   5.743  11.937   0.866  0.7484 -0.0598  0.9412
  894MOL0     C20574   5.650  11.998   0.788 -0.3366 -0.1438  0.4831
  894MOL0     C20575   5.583  11.919   0.678 -0.2583 -0.1976 -0.7825
  894MOL0     C20576   5.461  11.994   0.622 -0.2992  1.0304  0.3998
  894MOL0     C20577   5.342  11.998   0.722 -0.5159  0.4772  0.3988
  894MOL0     C20578   5.217  12.079   0.669 -0.0487  0.7168 -0.1483
  894MOL0     O20579   5.139  11.989   0.586 -0.1114 -0.1715  1.0215
  894MOL0     C20580   5.060  11.897   0.648 -0.0978 -0.7401 -0.1098
  894MOL0     C20581   5.094  11.762   0.635 -0.0331 -0.4764  0.4446
  894MOL0     C20582   5.025  11.654   0.704 -0.1402 -0.9660 -1.0993
  894MOL0     C20583   5.060  11.517   0.666 -0.0573  0.3686  0.4407
  894MOL0     C20584   4.912  11.692   0.786  0.5180 -0.8794 -0.1083
  894MOL0     C20585   4.821  11.594   0.846  0.1837  0.9285 -0.3761
  894MOL0     O20586   4.873  11.466   0.874 -0.2772 -0.6174 -0.4710
  894MOL0     C20587   4.787  11.364   0.892  1.3144  0.3883 -0.4440
  894MOL0     C20588   4.846  11.261   0.958 -1.0421 -0.7965  1.0405
  894MOL0     C20589   4.784  11.137   0.985  0.4787 -0.0156  0.2782
  894MOL0     C20590   4.654  11.112   0.952  0.3891  0.5952  0.3218
  894MOL0     O20591   4.608  10.982   0.975 -0.1676 -0.6365 -0.3030
  894MOL0     C20592   4.475  10.951   0.927  0.5894 -0.7949 -0.1817
  894MOL0     C20593   4.412  10.830   1.007 -1.2412  0.0976 -0.1921
  894MOL0     C20594   4.382  10.859   1.156 -0.4256 -0.7425  0.1652
  894MOL0     C20595   4.273  10.776   1.223  0.7436 -0.3685  0.1232
  894MOL0     C20596   4.288  10.748   1.372  0.0412  0.0547 -0.1670
  894MOL0     C20597   4.147  10.775   1.441 -0.6572 -0.2384  0.3751
  894MOL0     C20598   4.167  10.745   1.592 -1.3684 -0.3379  0.9503
  894MOL0     C20599   4.063  10.808   1.690  0.3787  1.0496  0.2733
  894MOL0    Cl20600   3.899  10.734   1.688  0.2900  0.1034  0.6824
  894MOL0     C20601   4.583  11.219   0.881 -0.8163 -0.6748  0.4418
  894MOL0     C20602   4.658  11.346   0.846  0.5849 -0.6314 -0.0282
  894MOL0     O20603   4.714  11.624   0.886  0.4446 -1.2251  0.8312
  894MOL0     C20604   4.883  11.826   0.809  0.4947  0.0659 -0.4231
  894MOL0     C20605   4.950  11.933   0.736  0.9851 -0.1229 -0.0656
  894MOL0     N20606   5.634  12.127   0.816 -0.5500  0.0395 -0.6941
  894MOL0     N20607   5.705  12.156   0.915 -0.3861 -0.8110  0.0107
  894MOL0     C20608   5.282  11.258   1.208  0.4024  0.3809 -0.6787
  894MOL0     C20609   5.276  11.149   1.291 -0.3543 -0.2417  0.2621
  894MOL0     C20610   5.332  10.793   1.554 -0.1702  0.5077  0.2101
  894MOL0     C20611   5.234  10.713   1.617  0.7905 -0.2117  0.4514
  894MOL0     C20612   5.261  10.589   1.670  0.3422 -0.1411  0.0254
  894MOL0     C20613   5.384  10.529   1.655  0.0206 -0.3156  0.0718
  894MOL0     O20614   5.403  10.399   1.696 -0.5202 -0.4508 -0.0244
  894MOL0     C20615   5.536  10.376   1.761  1.0599  0.6621 -0.0865
  894MOL0     C20616   5.527  10.241   1.841 -0.2391  0.0059 -0.1327
  894MOL0     C20617   5.442  10.242   1.962  0.8468 -0.7821 -0.3787
  894MOL0     C20618   5.482  10.121   2.059 -0.5220 -0.3797 -0.3733
  894MOL0     C20619   5.544  10.170   2.194 -0.1275  0.4136 -0.0931
  894MOL0     C20620   5.573  10.185   2.313  0.4941 -0.6523 -0.4391
  894MOL0     C20621   5.483  10.604   1.590  0.3610  0.2535 -0.8003
  894MOL0     C20622   5.458  10.735   1.543 -0.1753 -0.4570  0.2034
  894MOL0     H20623   5.584  11.146   1.412 -0.3789 -0.7294 -0.3165
  894MOL0     H20624   5.598  11.356   1.251  1.7445 -3.2776 -1.0154
  894MOL0     H20625   5.546  11.405   0.962 -0.8282 -2.9691 -0.5702
  894MOL0     H20626   5.374  11.355   0.923 -1.5640  1.6425 -1.1954
  894MOL0     H20627   5.465  11.566   0.811  2.2317  2.6080  0.0855
  894MOL0     H20628   5.323  11.591   0.918  0.8650 -0.0808  2.0334
  894MOL0     H20629   5.608  11.641   0.981 -0.7277 -0.1602 -0.4527
  894MOL0     H20630   5.490  11.759   0.921  1.5025 -0.1732 -2.2954
  894MOL0     H20631   5.345  11.719   1.138  0.1610 -3.7575  0.0978
  894MOL0     H20632   5.494  11.645   1.207 -1.2682 -0.0623  0.3761
  894MOL0     H20633   5.470  11.923   1.098 -1.9440 -1.4340 -0.1545
  894MOL0     H20634   5.461  11.895   1.263  0.8800  0.2872  0.9539
  894MOL0     H20635   5.683  11.807   1.276 -1.2671  0.5692  0.9427
  894MOL0     H20636   5.710  11.817   1.099  0.3545  0.1517  1.3151
  894MOL0     H20637   5.637  12.074   1.204  0.6900  1.1159 -0.1534
  894MOL0     H20638   5.765  12.005   1.296 -1.6367 -0.3204  0.5240
  894MOL0     H20639   5.887  11.943   1.098  0.9274  0.2350  1.7653
  894MOL0     H20640   5.880  12.118   1.104  1.1722 -0.8862  1.6122
  894MOL0     H20641   5.775  11.834   0.872  1.5822  0.2008  1.0995
  894MOL0     H20642   5.654  11.923   0.595  3.5106  2.5845  2.2035
  894MOL0     H20643   5.550  11.818   0.707  1.7364 -0.2969  1.4174
  894MOL0     H20644   5.429  11.933   0.537 -0.8620  0.1794  1.2205
  894MOL0     H20645   5.477  12.098   0.592  1.0223  0.1466 -2.3401
  894MOL0     H20646   5.374  12.040   0.818  0.8521 -0.4513  0.3825
  894MOL0     H20647   5.318  11.898   0.759  2.3754  0.0465  1.3679
  894MOL0     H20648   5.251  12.159   0.604 -1.6819  1.2587 -0.3663
  894MOL0     H20649   5.143  12.109   0.744 -0.0718  1.5271 -0.4897
  894MOL0     H20650   5.179  11.736   0.572 -1.4721  0.6668 -2.1237
  894MOL0     H20651   5.148  11.519   0.601 -0.5147  1.8782 -0.1869
  894MOL0     H20652   5.081  11.449   0.749 -0.1003 -1.0533 -0.6697
  894MOL0     H20653   4.974  11.476   0.613 -1.3633  1.0529  1.9537
  894MOL0     H20654   4.952  11.275   0.976 -0.6210  0.4661 -1.7467
  894MOL0     H20655   4.846  11.057   1.024 -1.3213 -1.8627 -0.4823
  894MOL0     H20656   4.415  11.040   0.945  2.4655  0.2993  1.0452
  894MOL0     H20657   4.485  10.924   0.821  0.9267  0.5504 -0.5125
  894MOL0     H20658   4.321  10.782   0.973 -3.2320  3.4332 -0.0535
  894MOL0     H20659   4.496  10.761   0.996  0.9401  2.4817  0.3575
  894MOL0     H20660   4.357  10.958   1.196 -2.0666 -1.7830  1.8995
  894MOL0     H20661   4.473  10.828   1.208 -1.1121 -1.3065  1.0685
  894MOL0     H20662   4.188  10.844   1.215  1.1038 -0.1210 -2.3096
  894MOL0     H20663   4.243  10.691   1.161 -2.2250  0.6971 -0.0583
  894MOL0     H20664   4.363  10.803   1.430  2.3298 -2.7156 -0.3038
  894MOL0     H20665   4.309  10.641   1.369 -0.4689 -0.0607 -3.6629
  894MOL0     H20666   4.135  10.884   1.436  0.0521 -0.2111 -2.5316
  894MOL0     H20667   4.059  10.728   1.397  0.9182 -4.1369  0.9756
  894MOL0     H20668   4.267  10.774   1.625 -1.4774  0.9257  0.2066
  894MOL0     H20669   4.157  10.636   1.589 -0.9218 -0.3667 -0.3051
  894MOL0     H20670   4.055  10.917   1.683 -1.0203  0.8708 -1.6137
  894MOL0     H20671   4.104  10.790   1.789  2.9344 -1.0147 -1.0242
  894MOL0     H20672   4.494  11.189   0.827  1.6762 -2.6993 -2.9456
  894MOL0     H20673   4.598  11.412   0.784  0.1745 -1.4675 -0.5508
  894MOL0     H20674   4.799  11.842   0.875 -1.0530  1.3761 -2.5929
  894MOL0     H20675   4.924  12.036   0.759  0.6836  0.2233 -1.8307
  894MOL0     H20676   5.189  11.296   1.167 -0.7393 -0.9588  0.5335
  894MOL0     H20677   5.184  11.092   1.299  0.4328 -1.4048  1.1954
  894MOL0     H20678   5.135  10.753   1.637  1.3308  1.2419  0.3218
  894MOL0     H20679   5.182  10.523   1.705  2.3140 -0.9837  3.2954
  894MOL0     H20680   5.615  10.358   1.688  1.0125  0.2876 -0.0437
  894MOL0     H20681   5.563  10.448   1.839  4.4411 -2.4710  1.9260
  894MOL0     H20682   5.628  10.215   1.873 -0.4617 -1.9590 -0.8683
  894MOL0     H20683   5.499  10.161   1.771 -1.1016 -2.4792  2.8050
  894MOL0     H20684   5.333  10.242   1.950  0.4422  4.0920  1.3132
  894MOL0     H20685   5.464  10.333   2.018 -2.2916 -0.0436 -0.1684
  894MOL0     H20686   5.557  10.056   2.014  0.3076 -0.5673  1.2151
  894MOL0     H20687   5.393  10.059   2.072  0.5099 -1.2631  4.3105
  894MOL0     H20688   5.593  10.198   2.417  0.6622 -1.7834 -0.3172
  894MOL0     H20689   5.579  10.562   1.561  1.2202  2.6206 -1.5751
  894MOL0     H20690   5.531  10.792   1.486 -1.8527  1.3436 -0.2688
  895MOL0     O20691   6.136   2.362   3.329 -0.8730  0.6321 -0.6522
  895MOL0     C20692   6.057   2.448   3.304 -0.6268  0.2149  0.8140
  895MOL0     O20693   6.079   2.587   3.343  0.3502 -0.0366 -0.1680
  895MOL0     C20694   6.205   2.621   3.391  0.1778 -0.6507  0.2644
  895MOL0     C20695   6.280   2.710   3.316 -0.1477 -0.1217  0.1253
  895MOL0     C20696   6.398   2.772   3.355 -0.1793  0.0871 -0.3327
  895MOL0     C20697   6.445   2.748   3.490 -0.5646  0.0708  0.4409
  895MOL0     O20698   6.557   2.810   3.524  0.2322  0.1337  0.0877
  895MOL0     C20699   6.605   2.807   3.656  0.7018  0.1406  0.2799
  895MOL0     C20700   6.720   2.901   3.687 -0.2441  0.1335  0.6118
  895MOL0     C20701   6.836   2.902   3.572 -0.3515  0.0874  0.9813
  895MOL0     C20702   6.817   3.013   3.472  0.1098  0.0588 -1.2172
  895MOL0     C20703   6.939   3.063   3.398 -0.1857  0.0644  0.3887
  895MOL0     C20704   7.061   3.120   3.485  0.0465  1.0936  0.0301
  895MOL0     C20705   7.171   3.218   3.429 -0.6826 -0.3258  0.3323
  895MOL0     C20706   7.115   3.363   3.422  0.0117  0.0958 -0.2792
  895MOL0     N20707   7.187   3.429   3.317 -0.2365 -0.8596 -0.0252
  895MOL0     C20708   7.319   3.477   3.330 -0.8230 -0.2810 -0.2496
  895MOL0     C20709   7.349   3.539   3.211  1.2114  0.3783 -0.5777
  895MOL0     C20710   7.476   3.612   3.184  0.0290 -1.1336  0.4847
  895MOL0     C20711   7.478   3.753   3.256 -0.8411  0.6029 -0.6959
  895MOL0     C20712   7.368   3.848   3.218  0.0608  0.4595 -0.2881
  895MOL0     C20713   7.359   3.963   3.318  0.8396 -0.5090 -0.3836
  895MOL0     O20714   7.302   3.920   3.440 -0.1383 -0.0057 -0.7518
  895MOL0     C20715   7.327   4.002   3.544 -0.7617 -0.0708  0.4732
  895MOL0     C20716   7.454   4.057   3.575 -0.3092 -0.8834 -0.2877
  895MOL0     C20717   7.478   4.135   3.683  0.6254  0.4101 -0.8490
  895MOL0     C20718   7.616   4.180   3.701  0.7014 -0.1539  0.4337
  895MOL0     C20719   7.372   4.155   3.776  0.1679 -2.4677 -0.6802
  895MOL0     C20720   7.382   4.238   3.897  0.1741  0.8138 -0.5762
  895MOL0     O20721   7.274   4.300   3.948 -0.3372  0.0720 -0.9696
  895MOL0     C20722   7.262   4.313   4.079  0.2177  0.6021  0.6623
  895MOL0     C20723   7.180   4.222   4.137  0.1657 -0.1069  0.2320
  895MOL0     C20724   7.162   4.215   4.277 -0.0550 -0.0214  0.2736
  895MOL0     C20725   7.224   4.308   4.364 -0.2396 -0.1721 -0.1725
  895MOL0     O20726   7.222   4.309   4.503  0.0693  1.1430  0.2910
  895MOL0     C20727   7.146   4.213   4.572 -0.1136 -0.0733 -0.8209
  895MOL0     C20728   7.129   4.258   4.717  1.1843 -1.1524  0.1072
  895MOL0     C20729   7.035   4.164   4.796 -0.3833 -0.0100 -0.0987
  895MOL0     C20730   7.098   4.026   4.819  1.3442 -0.4999  0.4354
  895MOL0     C20731   6.989   3.923   4.875 -0.5924  0.1489  0.5027
  895MOL0     C20732   6.855   3.920   4.800 -0.5455 -0.2952 -0.6454
  895MOL0     C20733   6.770   3.796   4.825 -0.2116  0.8438  0.5264
  895MOL0     C20734   6.641   3.825   4.744 -0.4767  1.0451 -0.3700
  895MOL0    Cl20735   6.487   3.804   4.836 -0.5627  0.1105  0.3259
  895MOL0     C20736   7.300   4.399   4.297  0.3807  0.1567  0.1913
  895MOL0     C20737   7.325   4.403   4.164  0.2083 -0.5420  0.1402
  895MOL0     O20738   7.492   4.232   3.958  0.2679 -0.0003 -0.1310
  895MOL0     C20739   7.245   4.103   3.744 -0.2759  0.1373  0.9265
  895MOL0     C20740   7.227   4.033   3.627 -0.1892  0.6262 -0.6278
  895MOL0     N20741   7.234   3.529   3.131  1.1206 -0.1093 -0.3785
  895MOL0     N20742   7.137   3.466   3.191 -0.5070 -0.0279 -1.2987
  895MOL0     C20743   6.375   2.654   3.567 -0.0365  0.1597  1.0357
  895MOL0     C20744   6.264   2.589   3.507 -0.0264 -0.2642 -0.3110
  895MOL0     C20745   5.937   2.386   3.233 -0.5158  0.1841 -0.0947
  895MOL0     C20746   5.913   2.247   3.224  0.0565  0.5675 -0.2660
  895MOL0     C20747   5.798   2.199   3.166  0.0249  0.2056  0.1089
  895MOL0     C20748   5.696   2.289   3.116 -0.4553 -0.2704  0.0888
  895MOL0     O20749   5.572   2.241   3.072 -0.6118  1.2495  0.3749
  895MOL0     C20750   5.465   2.333   3.037 -0.2523  0.3723  0.3977
  895MOL0     C20751   5.411   2.421   3.149 -0.4664 -0.2975 -0.1805
  895MOL0     C20752   5.276   2.476   3.115 -0.1894  1.0690 -0.7260
  895MOL0     C20753   5.170   2.362   3.110  1.1344  0.2053  0.6384
  895MOL0     C20754   5.028   2.395   3.153  0.1327  0.0546  1.1695
  895MOL0     C20755   4.918   2.430   3.197  0.0617 -0.3175  0.4965
  895MOL0     C20756   5.724   2.427   3.126  0.8430 -0.6664 -0.3128
  895MOL0     C20757   5.834   2.471   3.190  0.1614 -0.7134  0.2297
  895MOL0     H20758   6.241   2.740   3.219 -2.9752 -3.7232 -0.0691
  895MOL0     H20759   6.456   2.832   3.285  1.2797 -0.4927  0.3265
  895MOL0     H20760   6.516   2.826   3.717  0.3798  1.2622 -0.5072
  895MOL0     H20761   6.643   2.705   3.671  3.9180  1.2475  0.5113
  895MOL0     H20762   6.670   2.997   3.701 -2.9901 -0.4195 -3.4935
  895MOL0     H20763   6.756   2.878   3.787 -1.1334 -1.0979  0.6812
  895MOL0     H20764   6.933   2.917   3.621 -0.0166  2.0441 -0.1903
  895MOL0     H20765   6.841   2.805   3.522 -0.4955  0.0950  0.9524
  895MOL0     H20766   6.736   2.979   3.406 -1.2611  0.2748  0.2910
  895MOL0     H20767   6.774   3.098   3.525 -2.2821 -1.2314 -0.9478
  895MOL0     H20768   6.986   2.983   3.341 -1.7347 -1.0839  0.6450
  895MOL0     H20769   6.908   3.145   3.332 -0.1210  1.1020  1.6038
  895MOL0     H20770   7.025   3.162   3.579  0.2917  2.4670 -0.4748
  895MOL0     H20771   7.119   3.029   3.506  1.9161  1.8771 -1.4015
  895MOL0     H20772   7.266   3.214   3.482  3.4901  1.3830 -5.9508
  895MOL0     H20773   7.195   3.183   3.328  0.1814 -3.7486  1.6086
  895MOL0     H20774   7.117   3.422   3.514  0.4414  1.2351 -0.9860
  895MOL0     H20775   7.007   3.361   3.407 -0.4905  0.8769  2.5812
  895MOL0     H20776   7.371   3.459   3.423 -0.6894 -3.2461 -0.7985
  895MOL0     H20777   7.557   3.556   3.233  1.5414  1.3990  1.0814
  895MOL0     H20778   7.506   3.614   3.079  0.8895 -1.2187  0.7176
  895MOL0     H20779   7.573   3.802   3.232 -0.4646  0.6060  0.7233
  895MOL0     H20780   7.480   3.739   3.365 -0.1413 -0.0020 -0.7767
  895MOL0     H20781   7.271   3.798   3.217 -0.6933  1.8646 -1.5939
  895MOL0     H20782   7.407   3.897   3.128  0.1732  1.6838  0.4019
  895MOL0     H20783   7.293   4.045   3.288 -1.0936 -2.5940 -2.1486
  895MOL0     H20784   7.460   4.001   3.333  0.9953 -1.6623  1.9928
  895MOL0     H20785   7.528   4.026   3.502 -1.8316 -0.6560 -2.0141
  895MOL0     H20786   7.669   4.144   3.612 -0.1595 -1.4021  0.4019
  895MOL0     H20787   7.634   4.287   3.714  1.5029  0.0445 -1.8315
  895MOL0     H20788   7.655   4.112   3.777 -2.0289 -3.4119 -0.7718
  895MOL0     H20789   7.138   4.148   4.070 -0.3463 -1.1761  1.6757
  895MOL0     H20790   7.111   4.127   4.313  0.8896 -0.4401  0.6241
  895MOL0     H20791   7.046   4.214   4.529 -1.1063  3.6906  1.1009
  895MOL0     H20792   7.200   4.118   4.580 -0.7237 -0.7842 -3.8937
  895MOL0     H20793   7.228   4.266   4.764  0.8109  0.0528  0.7163
  895MOL0     H20794   7.081   4.356   4.714 -0.2751 -1.7550 -4.9944
  895MOL0     H20795   6.937   4.160   4.747  0.2053  2.4728 -1.6272
  895MOL0     H20796   7.007   4.215   4.888 -1.8199 -2.0538  0.6669
  895MOL0     H20797   7.130   3.996   4.719 -0.4823  1.6226 -0.8760
  895MOL0     H20798   7.180   4.035   4.890  0.0842  2.2491  1.6918
  895MOL0     H20799   6.972   3.958   4.977  2.5463  2.3258  0.4216
  895MOL0     H20800   7.032   3.823   4.876  1.0109  0.7952 -0.4994
  895MOL0     H20801   6.799   4.011   4.823  0.0020  0.0722 -0.7347
  895MOL0     H20802   6.878   3.930   4.693 -1.7761 -0.2471 -0.9222
  895MOL0     H20803   6.754   3.781   4.932  1.1268  2.1515  0.9516
  895MOL0     H20804   6.826   3.709   4.789 -0.2825  1.3605 -0.9106
  895MOL0     H20805   6.642   3.760   4.656 -0.5564  0.2718  0.1957
  895MOL0     H20806   6.642   3.931   4.715  0.2846  1.7219  1.9613
  895MOL0     H20807   7.353   4.471   4.360  0.3448  1.4565 -1.2096
  895MOL0     H20808   7.408   4.464   4.130  2.5376 -2.4700  2.0200
  895MOL0     H20809   7.154   4.126   3.798 -1.1323  1.1034 -0.8473
  895MOL0     H20810   7.130   4.005   3.588  0.0306 -1.2928  0.0522
  895MOL0     H20811   6.403   2.636   3.670 -0.0732  0.7632  1.1591
  895MOL0     H20812   6.205   2.509   3.550 -1.3641 -0.7206 -2.7864
  895MOL0     H20813   5.988   2.180   3.265 -0.1095  0.5720  0.0493
  895MOL0     H20814   5.778   2.093   3.155  0.8231  0.0983 -0.4116
  895MOL0     H20815   5.503   2.399   2.959 -1.8080  1.3255  0.3865
  895MOL0     H20816   5.392   2.267   2.989  0.1007  0.3395 -0.0980
  895MOL0     H20817   5.478   2.496   3.190  0.1133 -0.8579 -0.0861
  895MOL0     H20818   5.404   2.355   3.237  1.7101  0.6448  0.7780
  895MOL0     H20819   5.284   2.527   3.019 -2.5163 -1.4929 -2.4291
  895MOL0     H20820   5.242   2.543   3.195 -1.5239 -1.4580  0.9616
  895MOL0     H20821   5.192   2.276   3.174 -3.7952 -2.4083 -0.6299
  895MOL0     H20822   5.161   2.315   3.012 -1.0700 -3.2203  2.2538
  895MOL0     H20823   4.817   2.459   3.222 -1.1740 -0.3084 -3.7105
  895MOL0     H20824   5.656   2.508   3.104  1.9832  0.5307  0.3888
  895MOL0     H20825   5.847   2.577   3.207  0.0936 -0.6181 -0.3168
  896MOL0     O20826  10.351   4.068   1.675  0.0650  0.5738 -0.3213
  896MOL0     C20827  10.382   3.946   1.665 -0.2577  0.0326 -0.1130
  896MOL0     O20828  10.294   3.845   1.682 -0.3838 -0.5285  1.1257
  896MOL0     C20829  10.166   3.866   1.711  0.6154  0.5401 -0.1434
  896MOL0     C20830  10.060   3.806   1.641  1.2343 -0.5878  0.8410
  896MOL0     C20831   9.924   3.803   1.694 -0.1037  0.3498  0.0178
  896MOL0     C20832   9.900   3.865   1.819  0.3897  0.0689  0.3282
  896MOL0     O20833   9.785   3.853   1.888  0.7339 -0.7602 -0.0306
  896MOL0     C20834   9.663   3.876   1.813  0.5467  0.3329 -0.6271
  896MOL0     C20835   9.534   3.846   1.894 -0.2704 -0.4032  1.0051
  896MOL0     C20836   9.518   3.926   2.018 -0.2681 -0.3691 -0.3200
  896MOL0     C20837   9.463   4.065   1.981 -0.1875  0.0729  1.2624
  896MOL0     C20838   9.418   4.148   2.099  0.8210  0.8513 -0.5262
  896MOL0     C20839   9.372   4.290   2.068  0.4744 -0.2260 -0.0572
  896MOL0     C20840   9.484   4.388   2.056 -0.4749  0.0637  0.3131
  896MOL0     C20841   9.446   4.528   2.032  0.6232  0.5791 -0.2353
  896MOL0     N20842   9.561   4.609   2.002 -0.2797 -0.4377 -0.3651
  896MOL0     C20843   9.664   4.640   2.092  0.7236 -0.5880  0.0721
  896MOL0     C20844   9.757   4.699   2.019  0.5273 -0.5832 -0.9239
  896MOL0     C20845   9.901   4.725   2.081 -0.0480  0.8918 -1.3609
  896MOL0     C20846   9.909   4.867   2.155  0.1458 -0.8425 -0.2068
  896MOL0     C20847   9.849   4.988   2.076  0.3464 -0.4584 -0.5722
  896MOL0     C20848   9.828   5.117   2.170  0.7270 -0.0469 -0.3280
  896MOL0     O20849   9.752   5.233   2.110 -0.0401 -0.2572 -0.2706
  896MOL0     C20850   9.800   5.349   2.184  0.1241 -0.3750 -0.0042
  896MOL0     C20851   9.911   5.429   2.149  0.8218  0.2937  0.4138
  896MOL0     C20852   9.934   5.547   2.214 -0.3666 -0.4630  0.2732
  896MOL0     C20853  10.038   5.639   2.140 -0.0056  0.2760 -0.1252
  896MOL0     C20854   9.860   5.584   2.335 -0.0821  0.4308 -1.6273
  896MOL0     C20855   9.878   5.703   2.415 -0.4772 -0.5788 -0.1504
  896MOL0     O20856   9.962   5.799   2.367  0.9268  0.0409  0.0259
  896MOL0     C20857  10.009   5.914   2.425 -0.7585  0.1261  0.4705
  896MOL0     C20858  10.024   5.926   2.561  0.8814 -1.6468 -0.3047
  896MOL0     C20859  10.076   6.050   2.608  0.0309  0.1670 -0.7490
  896MOL0     C20860  10.112   6.155   2.523 -0.4594  0.0159 -0.2458
  896MOL0     O20861  10.166   6.275   2.552 -0.8510 -0.2225  0.0782
  896MOL0     C20862  10.199   6.317   2.687  0.3197  0.7322 -0.1122
  896MOL0     C20863  10.242   6.464   2.695  1.0583 -0.2013 -0.0652
  896MOL0     C20864  10.232   6.518   2.838 -0.7159  0.3524 -0.3085
  896MOL0     C20865  10.340   6.455   2.933 -0.0355  0.8252  0.9700
  896MOL0     C20866  10.332   6.507   3.074 -0.3269  0.0721  0.7617
  896MOL0     C20867  10.190   6.470   3.133  0.9354  0.8536 -0.5798
  896MOL0     C20868  10.184   6.454   3.288 -0.0486 -1.2421 -0.7347
  896MOL0     C20869  10.227   6.321   3.342 -1.0009 -0.3651 -0.0138
  896MOL0    Cl20870  10.158   6.259   3.490  0.0603  0.1330 -0.6257
  896MOL0     C20871  10.116   6.128   2.386  0.3940 -0.7968  0.6308
  896MOL0     C20872  10.060   6.009   2.338  0.1570 -0.3468 -0.0460
  896MOL0     O20873   9.826   5.709   2.525  0.1240  0.7146 -0.2748
  896MOL0     C20874   9.759   5.491   2.376  0.3194 -0.1507 -0.2391
  896MOL0     C20875   9.730   5.381   2.302  0.4619  0.0473  0.6184
  896MOL0     N20876   9.708   4.710   1.892 -1.0194 -0.4619 -0.3006
  896MOL0     N20877   9.596   4.669   1.882  0.0860  0.6043  0.4637
  896MOL0     C20878  10.009   3.931   1.878  0.0405  0.6543  0.9041
  896MOL0     C20879  10.134   3.927   1.829  0.2949  0.7374 -0.5276
  896MOL0     C20880  10.520   3.912   1.633 -0.1997  0.1307  0.3757
  896MOL0     C20881  10.569   3.772   1.649  0.3441 -1.0106  0.1447
  896MOL0     C20882  10.703   3.738   1.613 -0.4254  0.3803  0.2237
  896MOL0     C20883  10.787   3.840   1.565  0.0109  0.6021  0.0855
  896MOL0     O20884  10.910   3.799   1.517 -0.2411  0.9619  0.4454
  896MOL0     C20885  11.016   3.891   1.498  0.2171 -1.0576 -0.3389
  896MOL0     C20886  11.140   3.823   1.452  0.1150  0.6216  0.2423
  896MOL0     C20887  11.260   3.908   1.457 -1.1962  0.1980 -0.5372
  896MOL0     C20888  11.387   3.816   1.420  0.2666 -0.5059 -0.2937
  896MOL0     C20889  11.439   3.751   1.539  1.6248 -0.3825 -0.4329
  896MOL0     C20890  11.485   3.720   1.648  0.5909 -0.3698  0.3487
  896MOL0     C20891  10.733   3.973   1.550  0.0068  0.2279  0.0484
  896MOL0     C20892  10.605   4.006   1.580  0.0971 -0.6145 -0.0279
  896MOL0     H20893  10.080   3.764   1.543  3.5575  1.9260  0.1183
  896MOL0     H20894   9.851   3.751   1.633 -0.5066  2.6771 -1.6109
  896MOL0     H20895   9.665   3.977   1.771  1.0189 -0.2466 -2.0933
  896MOL0     H20896   9.661   3.803   1.731  1.2720  0.2580 -0.5867
  896MOL0     H20897   9.445   3.862   1.832  0.5326 -1.4829 -0.5129
  896MOL0     H20898   9.543   3.741   1.925  0.4802 -0.1330  1.7350
  896MOL0     H20899   9.444   3.879   2.084 -0.7171 -0.1815 -0.6823
  896MOL0     H20900   9.614   3.927   2.071 -0.5195  0.5951  0.1296
  896MOL0     H20901   9.541   4.123   1.930 -1.0711  2.1049  2.1199
  896MOL0     H20902   9.369   4.061   1.925 -0.5590 -0.1046  1.8896
  896MOL0     H20903   9.336   4.089   2.141  2.7756 -1.4339  0.3341
  896MOL0     H20904   9.503   4.152   2.168 -0.2789 -1.9596  1.1534
  896MOL0     H20905   9.308   4.291   1.979  1.7456  3.2025 -1.0944
  896MOL0     H20906   9.309   4.315   2.153 -0.4577 -0.5866 -0.6253
  896MOL0     H20907   9.540   4.392   2.150  0.9336  2.0416 -0.5262
  896MOL0     H20908   9.560   4.352   1.986  2.9184  2.2100  2.5668
  896MOL0     H20909   9.394   4.571   2.118  0.0664  1.6559 -1.0879
  896MOL0     H20910   9.377   4.534   1.947  0.7587  1.3354 -0.2981
  896MOL0     H20911   9.658   4.628   2.200  1.2804  2.1281  0.4837
  896MOL0     H20912   9.922   4.649   2.157  3.5038  3.4027  0.5016
  896MOL0     H20913   9.981   4.710   2.009  0.7777  2.6616 -0.8744
  896MOL0     H20914  10.014   4.899   2.160 -0.8567  2.9985 -0.2753
  896MOL0     H20915   9.880   4.853   2.260  4.6345  2.5246  1.8386
  896MOL0     H20916   9.749   4.969   2.037 -0.2889  1.6834 -0.1079
  896MOL0     H20917   9.909   5.024   1.992  1.1987 -0.8921 -0.1601
  896MOL0     H20918   9.926   5.161   2.193  0.3718  0.2347  0.7161
  896MOL0     H20919   9.786   5.084   2.265  1.4832 -3.0712 -0.9391
  896MOL0     H20920   9.961   5.382   2.064 -1.4027 -1.0493 -0.2354
  896MOL0     H20921  10.058   5.598   2.041  0.8096  0.6968 -0.1473
  896MOL0     H20922   9.988   5.734   2.116  2.5976  2.3907  2.1284
  896MOL0     H20923  10.135   5.657   2.188  0.4843 -3.3616  0.4900
  896MOL0     H20924  10.002   5.853   2.639  1.3648  2.4637  4.1203
  896MOL0     H20925  10.087   6.058   2.716 -2.0251  0.4702 -0.5260
  896MOL0     H20926  10.105   6.310   2.743  0.4401 -3.9926 -0.0931
  896MOL0     H20927  10.264   6.242   2.733  0.2280 -0.2867 -1.5872
  896MOL0     H20928  10.344   6.474   2.656  2.2562 -2.5586  2.1336
  896MOL0     H20929  10.170   6.523   2.637  0.7089 -0.6177 -0.0550
  896MOL0     H20930  10.136   6.497   2.885 -0.1171  1.3216  1.4136
  896MOL0     H20931  10.235   6.627   2.836 -3.5202  0.5349  0.9980
  896MOL0     H20932  10.319   6.348   2.935 -0.3107  0.8463 -0.0793
  896MOL0     H20933  10.438   6.469   2.888  0.0223  1.1681  1.1939
  896MOL0     H20934  10.350   6.614   3.067 -1.3116  0.1800 -0.5982
  896MOL0     H20935  10.409   6.460   3.135  0.8950  1.3474  0.2385
  896MOL0     H20936  10.107   6.537   3.110  1.9731  1.9905 -1.1393
  896MOL0     H20937  10.153   6.381   3.083  0.3149 -0.3576  1.8430
  896MOL0     H20938  10.083   6.481   3.321  0.5689  0.2448  0.0604
  896MOL0     H20939  10.253   6.528   3.331 -2.4205  0.4629  0.3472
  896MOL0     H20940  10.336   6.323   3.350 -0.9914  0.6646 -0.2810
  896MOL0     H20941  10.204   6.252   3.260  0.5385 -2.5981  1.3153
  896MOL0     H20942  10.153   6.203   2.317 -0.9890 -1.8362 -1.3569
  896MOL0     H20943  10.042   6.008   2.231  1.0704  2.1624 -0.2866
  896MOL0     H20944   9.707   5.507   2.471  0.9711 -1.9320  0.4494
  896MOL0     H20945   9.674   5.297   2.343 -0.9129  0.8174  0.3716
  896MOL0     H20946   9.995   3.967   1.980 -1.8544 -1.8948  1.6323
  896MOL0     H20947  10.213   3.968   1.890 -0.6234 -0.2421  1.3910
  896MOL0     H20948  10.501   3.702   1.695 -0.6716  0.5950  1.1787
  896MOL0     H20949  10.742   3.637   1.619  2.3013  1.3829  0.5370
  896MOL0     H20950  10.994   3.968   1.423 -0.2536 -0.9816 -0.1234
  896MOL0     H20951  11.039   3.932   1.597 -0.6917 -0.6753 -0.2832
  896MOL0     H20952  11.119   3.804   1.346 -3.3053  1.0440  0.7119
  896MOL0     H20953  11.140   3.731   1.511  0.5804 -1.4085 -2.7165
  896MOL0     H20954  11.275   3.943   1.559  0.1621 -2.7971  0.3991
  896MOL0     H20955  11.257   3.994   1.389  1.8520  1.0095  0.2062
  896MOL0     H20956  11.469   3.873   1.375 -1.3762  0.9819 -1.5331
  896MOL0     H20957  11.355   3.750   1.340 -2.7826  1.4333 -0.8422
  896MOL0     H20958  11.514   3.712   1.751  0.9718  0.5720  0.3275
  896MOL0     H20959  10.802   4.051   1.522  0.3278 -0.7170 -2.0060
  896MOL0     H20960  10.571   4.108   1.564 -0.9071 -1.1292 -1.3379
  897MOL0     O20961   7.952   8.116   0.339 -0.9437 -0.2297  0.1273
  897MOL0     C20962   7.835   8.127   0.372 -0.5489 -0.3145 -0.2025
  897MOL0     O20963   7.781   8.095   0.493 -0.3061 -0.4023 -0.0911
  897MOL0     C20964   7.866   8.023   0.585  0.2385 -0.3535 -0.3547
  897MOL0     C20965   7.951   7.912   0.544 -0.3379 -0.4832 -0.1869
  897MOL0     C20966   8.031   7.848   0.630  0.1842 -0.0231 -0.1215
  897MOL0     C20967   8.040   7.889   0.760 -0.7638  0.4318  0.5512
  897MOL0     O20968   8.119   7.808   0.831 -0.6356  0.5007 -0.0652
  897MOL0     C20969   8.063   7.757   0.953  0.8736  0.7825  0.9270
  897MOL0     C20970   8.173   7.684   1.026 -0.9315 -0.5546 -0.5683
  897MOL0     C20971   8.271   7.795   1.083  1.4874 -0.2342  0.0749
  897MOL0     C20972   8.407   7.750   1.079  0.1437  0.5519 -0.4942
  897MOL0     C20973   8.512   7.863   1.093 -0.3726  0.0717 -0.2569
  897MOL0     C20974   8.504   7.950   1.219  0.0362 -0.3905  0.6842
  897MOL0     C20975   8.569   7.910   1.351  0.0670 -0.6978 -0.4688
  897MOL0     C20976   8.530   7.766   1.402  0.3989  0.1983 -0.1593
  897MOL0     N20977   8.601   7.730   1.521 -0.1098 -0.2497  0.1257
  897MOL0     C20978   8.738   7.699   1.523  0.1409  0.1031  0.6783
  897MOL0     C20979   8.760   7.671   1.650  0.7930 -0.9633  0.5684
  897MOL0     C20980   8.895   7.635   1.707 -0.9921  0.8879  0.0585
  897MOL0     C20981   8.899   7.652   1.867  0.0415  0.5204 -0.6487
  897MOL0     C20982   9.034   7.682   1.930 -0.5084  0.0492 -0.5306
  897MOL0     C20983   9.045   7.668   2.085 -0.8515  0.9474 -0.3081
  897MOL0     O20984   9.183   7.665   2.137  0.7906  0.6424 -0.0805
  897MOL0     C20985   9.212   7.772   2.221 -0.2439  0.1899  0.2999
  897MOL0     C20986   9.287   7.751   2.334  0.6840 -0.7367  0.3452
  897MOL0     C20987   9.316   7.857   2.429  0.1511  0.4535  0.3935
  897MOL0     C20988   9.403   7.820   2.543  0.7145  0.5321  1.5250
  897MOL0     C20989   9.269   7.993   2.401 -0.2510  0.0123  0.1674
  897MOL0     C20990   9.286   8.112   2.499  1.1895  1.1218 -0.3514
  897MOL0     O20991   9.198   8.218   2.477 -0.5561  0.9715 -0.0608
  897MOL0     C20992   9.205   8.332   2.564  1.1650  0.1559 -0.1960
  897MOL0     C20993   9.284   8.452   2.543  0.1164  0.6195 -1.1125
  897MOL0     C20994   9.278   8.564   2.634 -0.4166  0.3017  0.3047
  897MOL0     C20995   9.200   8.544   2.748 -0.4037 -0.2940  2.0671
  897MOL0     O20996   9.189   8.634   2.848 -0.3505 -0.3451  0.2017
  897MOL0     C20997   9.254   8.765   2.826  0.4122  1.3300  0.0825
  897MOL0     C20998   9.224   8.863   2.936  0.0024  0.7813  0.3450
  897MOL0     C20999   9.257   9.005   2.890  0.6593  1.3489  0.1434
  897MOL0     C21000   9.202   9.105   2.985 -0.1696  0.0097 -0.0883
  897MOL0     C21001   9.229   9.251   2.939 -0.4860 -0.8226 -0.4834
  897MOL0     C21002   9.157   9.289   2.802  0.2022  0.2142  0.0127
  897MOL0     C21003   9.182   9.442   2.786  0.1729  1.2560  0.0568
  897MOL0     C21004   9.109   9.506   2.661 -0.0280  0.2089 -0.9412
  897MOL0    Cl21005   9.172   9.668   2.645 -0.2483  0.2602 -0.4106
  897MOL0     C21006   9.117   8.434   2.768  0.4302  0.7985  0.3417
  897MOL0     C21007   9.126   8.329   2.678  0.6820 -0.0472  0.3950
  897MOL0     O21008   9.358   8.110   2.596 -0.1893 -0.5015 -0.5041
  897MOL0     C21009   9.200   8.007   2.280 -0.0923  0.3235 -1.0792
  897MOL0     C21010   9.171   7.913   2.186  0.6358 -0.6756 -0.4311
  897MOL0     N21011   8.643   7.683   1.723 -0.4668 -0.1686 -0.3515
  897MOL0     N21012   8.543   7.694   1.635 -1.0396  0.1942  1.0389
  897MOL0     C21013   7.953   7.990   0.806 -0.2741  0.6668  0.6098
  897MOL0     C21014   7.867   8.054   0.719 -0.4551  0.5268  0.3625
  897MOL0     C21015   7.743   8.186   0.268  0.0340 -0.0330  0.8065
  897MOL0     C21016   7.604   8.189   0.285  0.0103 -0.2654  0.7971
  897MOL0     C21017   7.515   8.242   0.197 -0.2678 -0.5855  0.2501
  897MOL0     C21018   7.566   8.278   0.069  1.0998  0.2029  1.0731
  897MOL0     O21019   7.489   8.326  -0.037 -0.7286 -0.2010  0.0052
  897MOL0     C21020   7.355   8.316  -0.020  0.3866  0.0410  0.8912
  897MOL0     C21021   7.281   8.402  -0.125  0.6033  0.3337 -0.4115
  897MOL0     C21022   7.317   8.548  -0.127  0.9080 -0.3964  0.1032
  897MOL0     C21023   7.288   8.615  -0.267  0.7714 -0.4396  0.2900
  897MOL0     C21024   7.141   8.594  -0.307 -0.2781  1.3619  0.1404
  897MOL0     C21025   7.023   8.574  -0.325 -0.5313  0.1403  0.0793
  897MOL0     C21026   7.702   8.275   0.039  0.3358  0.3584  0.5203
  897MOL0     C21027   7.790   8.230   0.134  0.2312 -1.0829 -0.2002
  897MOL0     H21028   7.951   7.869   0.444 -4.7896 -0.4898 -0.3645
  897MOL0     H21029   8.094   7.765   0.599 -1.3442 -1.8872  1.4862
  897MOL0     H21030   8.039   7.843   1.016  1.3223  2.2802 -0.8530
  897MOL0     H21031   7.976   7.698   0.924 -3.8305  6.0145  2.4773
  897MOL0     H21032   8.127   7.637   1.113 -0.3884 -0.2699 -0.1255
  897MOL0     H21033   8.214   7.610   0.956 -0.4729 -0.5830 -0.2751
  897MOL0     H21034   8.274   7.892   1.032  0.0699  0.2254  0.8154
  897MOL0     H21035   8.247   7.810   1.189  1.1743 -0.1704 -0.0037
  897MOL0     H21036   8.419   7.675   1.158 -0.1298  2.3768  1.3812
  897MOL0     H21037   8.419   7.709   0.978  2.0106 -3.3760  1.0883
  897MOL0     H21038   8.614   7.824   1.088 -1.5492 -3.2685 -0.1350
  897MOL0     H21039   8.495   7.930   1.008  2.3915 -1.0505 -1.7979
  897MOL0     H21040   8.560   8.039   1.190 -1.2949  0.1328 -0.4592
  897MOL0     H21041   8.401   7.987   1.229 -0.0491  0.1792 -1.6497
  897MOL0     H21042   8.678   7.920   1.353  0.0291  0.2753  2.6870
  897MOL0     H21043   8.556   7.989   1.425  0.2554 -0.7895 -0.3368
  897MOL0     H21044   8.554   7.691   1.327 -1.3339  0.3236 -0.8882
  897MOL0     H21045   8.420   7.768   1.409  0.3320  0.6733 -1.0640
  897MOL0     H21046   8.817   7.708   1.450  1.1098  1.2218  1.8033
  897MOL0     H21047   8.933   7.541   1.665  0.6262  1.1498  0.8582
  897MOL0     H21048   8.973   7.706   1.679 -0.4664  1.1337  1.9653
  897MOL0     H21049   8.847   7.569   1.914  1.0246 -0.6685 -1.6015
  897MOL0     H21050   8.843   7.743   1.890 -0.7626 -0.5267  1.8829
  897MOL0     H21051   9.074   7.778   1.897  0.5372 -0.2904 -0.3093
  897MOL0     H21052   9.098   7.612   1.876  1.0822  2.6582 -2.2628
  897MOL0     H21053   9.014   7.568   2.115  2.4394 -0.1921 -0.2325
  897MOL0     H21054   8.977   7.740   2.132  0.3245  0.0677  3.0584
  897MOL0     H21055   9.341   7.659   2.357 -1.7867 -1.6945  2.9043
  897MOL0     H21056   9.492   7.882   2.532  1.9706 -1.1506  1.8875
  897MOL0     H21057   9.354   7.848   2.637 -0.4622  3.1667  0.2450
  897MOL0     H21058   9.430   7.714   2.543  1.2222  0.6518  2.1275
  897MOL0     H21059   9.352   8.453   2.458 -1.6731  0.1741 -2.6120
  897MOL0     H21060   9.345   8.645   2.605  1.5826 -1.2955  0.2339
  897MOL0     H21061   9.360   8.767   2.802  1.0991  0.6266  2.7507
  897MOL0     H21062   9.206   8.810   2.738 -0.8214 -4.4892 -2.7155
  897MOL0     H21063   9.117   8.845   2.950  0.4108 -0.8823  1.6130
  897MOL0     H21064   9.286   8.843   3.023 -1.4509  1.2395  1.5301
  897MOL0     H21065   9.218   9.036   2.793 -1.5675  1.8681  1.1390
  897MOL0     H21066   9.366   9.014   2.896  0.7378  0.3871  0.3727
  897MOL0     H21067   9.094   9.095   3.000 -0.9471  3.3968 -2.2833
  897MOL0     H21068   9.255   9.093   3.080  0.0227 -1.5766 -0.3731
  897MOL0     H21069   9.338   9.262   2.935 -0.7198  1.3493 -2.3268
  897MOL0     H21070   9.192   9.317   3.019 -1.3857 -1.4613 -0.3545
  897MOL0     H21071   9.189   9.225   2.719 -2.1555 -0.1993 -0.6413
  897MOL0     H21072   9.049   9.275   2.803  0.0573  1.2154  0.3719
  897MOL0     H21073   9.289   9.462   2.786  0.5284 -0.4714  0.5322
  897MOL0     H21074   9.154   9.495   2.877 -0.1874  1.8464 -0.3921
  897MOL0     H21075   9.004   9.516   2.688 -0.4876  4.1035 -3.4642
  897MOL0     H21076   9.124   9.445   2.572 -0.4491  0.2209 -1.0190
  897MOL0     H21077   9.065   8.416   2.862  1.1294  1.1453  0.8052
  897MOL0     H21078   9.067   8.243   2.707 -0.5401  0.6800  0.1182
  897MOL0     H21079   9.165   8.109   2.265  0.2662  0.9649  1.8170
  897MOL0     H21080   9.107   7.940   2.103  0.5724 -2.3771 -0.9715
  897MOL0     H21081   7.941   8.020   0.910  1.3940  2.3284  0.3785
  897MOL0     H21082   7.801   8.138   0.739 -1.3260 -0.0652  0.0106
  897MOL0     H21083   7.560   8.160   0.380  2.2281 -2.2738  1.3322
  897MOL0     H21084   7.411   8.257   0.227 -0.4237  0.8287 -0.8412
  897MOL0     H21085   7.318   8.215  -0.035 -0.6942  0.7187 -1.4047
  897MOL0     H21086   7.326   8.360   0.077  1.5915  2.4421  0.2398
  897MOL0     H21087   7.174   8.401  -0.104  0.7178 -2.2260  0.4406
  897MOL0     H21088   7.295   8.364  -0.227  1.1046  2.7941 -1.3223
  897MOL0     H21089   7.419   8.579  -0.104  0.0555  2.6224  0.1943
  897MOL0     H21090   7.261   8.601  -0.050  0.0006 -3.8790  2.0865
  897MOL0     H21091   7.352   8.570  -0.344 -0.9319  1.6255 -2.4966
  897MOL0     H21092   7.308   8.722  -0.266 -0.5485 -0.1752  0.0417
  897MOL0     H21093   6.916   8.567  -0.323 -0.4305 -2.7395  2.1733
  897MOL0     H21094   7.735   8.316  -0.056 -2.4512  0.6062 -0.4332
  897MOL0     H21095   7.896   8.252   0.127  0.0779 -0.1526  0.2421
  898MOL0     O21096   1.751   8.147   2.928 -0.5143 -1.2739  0.3123
  898MOL0     C21097   1.868   8.173   2.915  1.5188 -0.0622  0.2860
  898MOL0     O21098   1.963   8.185   3.009  1.0878  0.6958 -0.9624
  898MOL0     C21099   1.927   8.111   3.127 -0.5897 -0.0921 -0.3272
  898MOL0     C21100   1.957   8.187   3.245 -0.6411  0.6306  0.1104
  898MOL0     C21101   1.946   8.117   3.373 -0.9386 -0.0497  1.1972
  898MOL0     C21102   1.914   7.978   3.378  0.0779  0.8448  0.2213
  898MOL0     O21103   1.889   7.930   3.501 -1.0361  0.6209 -0.2641
  898MOL0     C21104   1.793   7.824   3.504  0.4779 -0.0025  0.5477
  898MOL0     C21105   1.648   7.874   3.481 -0.0940  0.4606 -0.0440
  898MOL0     C21106   1.601   7.986   3.580 -0.4545  0.6301  0.3053
  898MOL0     C21107   1.447   8.016   3.562 -0.0624 -0.3731  0.5828
  898MOL0     C21108   1.388   8.085   3.685 -0.5588  0.3208 -0.2862
  898MOL0     C21109   1.257   8.164   3.654  0.4995  0.1412 -0.5358
  898MOL0     C21110   1.147   8.083   3.601 -0.2110 -0.3215  0.4102
  898MOL0     C21111   1.039   8.166   3.529  0.4771  0.3579  0.5533
  898MOL0     N21112   0.947   8.227   3.622  0.6233 -0.0471  0.9627
  898MOL0     C21113   0.955   8.345   3.695  0.5049  0.0833 -0.0527
  898MOL0     C21114   0.849   8.342   3.776 -0.2361  0.5484  0.7913
  898MOL0     C21115   0.814   8.448   3.874 -0.2418 -0.0579  0.1547
  898MOL0     C21116   0.829   8.394   4.013  0.4351 -0.0034  0.8982
  898MOL0     C21117   0.718   8.286   4.062  0.6020 -0.4652 -0.5107
  898MOL0     C21118   0.577   8.341   4.053  0.1908  0.2247  0.1421
  898MOL0     O21119   0.489   8.231   4.085 -0.0610 -0.3329 -0.4291
  898MOL0     C21120   0.390   8.266   4.160 -0.4987 -1.1704  0.1860
  898MOL0     C21121   0.321   8.389   4.138  0.6704 -0.3370 -0.1985
  898MOL0     C21122   0.211   8.420   4.216 -0.1153 -0.4797 -0.3048
  898MOL0     C21123   0.149   8.551   4.192  0.8537 -0.3032  0.4172
  898MOL0     C21124   0.170   8.335   4.320  0.5332 -0.0749 -0.5095
  898MOL0     C21125   0.063   8.360   4.420 -0.8901 -0.7360 -0.1527
  898MOL0     O21126   0.006   8.245   4.466 -0.3759 -0.1250  0.3785
  898MOL0     C21127  -0.118   8.238   4.521  1.1631  0.2986 -1.4038
  898MOL0     C21128  -0.145   8.104   4.561 -0.2047 -0.2662 -0.2706
  898MOL0     C21129  -0.258   8.076   4.643  0.1499 -0.3766 -0.5469
  898MOL0     C21130  -0.354   8.178   4.668  0.0732  0.6758  0.1864
  898MOL0     O21131  -0.464   8.161   4.734  0.1701  0.0848 -0.2814
  898MOL0     C21132  -0.502   8.034   4.787  0.4640  0.4816 -0.0152
  898MOL0     C21133  -0.424   8.018   4.916  0.5490 -0.1039 -0.1400
  898MOL0     C21134  -0.478   7.896   4.994  0.1796  0.0042 -0.1920
  898MOL0     C21135  -0.614   7.919   5.053 -0.8115  0.0605  0.0410
  898MOL0     C21136  -0.667   7.799   5.138 -0.1003 -0.1608  0.7529
  898MOL0     C21137  -0.737   7.690   5.055  0.7640  0.6037 -0.3057
  898MOL0     C21138  -0.787   7.588   5.156 -0.0785 -0.4613 -0.6959
  898MOL0     C21139  -0.855   7.472   5.098 -0.9078  1.0547  0.2563
  898MOL0    Cl21140  -0.939   7.381   5.222  0.5396 -0.0402  0.2192
  898MOL0     C21141  -0.333   8.300   4.617 -0.4163 -0.7058  0.6557
  898MOL0     C21142  -0.212   8.334   4.560  0.6880 -0.1689 -0.2066
  898MOL0     O21143   0.057   8.471   4.469 -1.0516 -0.3417 -0.3883
  898MOL0     C21144   0.238   8.212   4.340 -0.0964 -0.2843  0.4175
  898MOL0     C21145   0.343   8.179   4.250  1.3710 -0.1304 -0.8456
  898MOL0     N21146   0.776   8.220   3.754 -0.7346  0.3716  0.2310
  898MOL0     N21147   0.839   8.163   3.655  0.5382 -0.0876  0.1491
  898MOL0     C21148   1.890   7.910   3.263 -0.7190 -0.0611  0.3612
  898MOL0     C21149   1.894   7.974   3.137 -0.5885 -0.1111  0.3925
  898MOL0     C21150   1.911   8.210   2.780 -0.0936  0.1375  0.4434
  898MOL0     C21151   2.050   8.228   2.743  0.8671 -0.6371  0.1119
  898MOL0     C21152   2.088   8.261   2.622  0.6237 -0.4874  0.2924
  898MOL0     C21153   1.993   8.298   2.531 -0.7396  0.3199 -0.0163
  898MOL0     O21154   2.035   8.355   2.416 -0.0534 -0.1505 -0.3202
  898MOL0     C21155   1.976   8.341   2.292  0.7545 -0.3074 -0.3633
  898MOL0     C21156   2.086   8.335   2.181 -0.3738  0.5287 -0.1397
  898MOL0     C21157   2.200   8.428   2.207  0.6344  0.3939  1.1433
  898MOL0     C21158   2.255   8.478   2.066  0.5450  0.4163 -0.3456
  898MOL0     C21159   2.148   8.558   2.015  0.3608  0.0273 -0.0717
  898MOL0     C21160   2.054   8.618   1.969 -0.0168 -0.3814 -0.4408
  898MOL0     C21161   1.855   8.285   2.559  0.3671 -0.0065 -0.8264
  898MOL0     C21162   1.815   8.238   2.682 -1.1041 -0.4091 -0.5384
  898MOL0     H21163   1.975   8.294   3.250  0.7546  0.3847  3.9524
  898MOL0     H21164   1.958   8.181   3.459  0.5076  3.0830 -1.1326
  898MOL0     H21165   1.811   7.743   3.433 -2.4654  0.5948 -1.0061
  898MOL0     H21166   1.799   7.769   3.598 -0.2654 -1.9173 -0.4839
  898MOL0     H21167   1.632   7.913   3.380 -0.5567 -2.9104 -1.3984
  898MOL0     H21168   1.579   7.789   3.474  0.5128 -0.0155 -0.3297
  898MOL0     H21169   1.623   7.947   3.679 -1.0887  0.5861  0.4331
  898MOL0     H21170   1.668   8.069   3.555 -0.2981  0.3056 -0.3770
  898MOL0     H21171   1.429   8.079   3.474 -1.1396 -4.9665 -2.9342
  898MOL0     H21172   1.382   7.930   3.538 -3.4337  1.4401  2.4331
  898MOL0     H21173   1.361   8.006   3.756 -0.3765 -1.5253 -2.1764
  898MOL0     H21174   1.460   8.155   3.730  1.6899 -2.0869  0.0850
  898MOL0     H21175   1.224   8.211   3.747 -3.1025 -0.0732 -1.5655
  898MOL0     H21176   1.274   8.249   3.587  0.4770  0.8416  0.3258
  898MOL0     H21177   1.196   8.025   3.522 -0.8435  1.2382 -1.1918
  898MOL0     H21178   1.104   8.010   3.671  0.2067 -0.9978 -0.0256
  898MOL0     H21179   0.989   8.101   3.457 -0.1190  1.8395 -0.4188
  898MOL0     H21180   1.082   8.241   3.460 -0.0141 -1.0582 -1.3809
  898MOL0     H21181   1.037   8.417   3.690  2.2881 -1.6493  2.0366
  898MOL0     H21182   0.891   8.525   3.861  0.6650 -1.0602 -0.5735
  898MOL0     H21183   0.716   8.494   3.854 -2.1650 -1.3261  5.1859
  898MOL0     H21184   0.836   8.472   4.090 -0.4894  0.8965  0.1045
  898MOL0     H21185   0.932   8.359   4.019  0.4751  0.0818  0.7200
  898MOL0     H21186   0.726   8.270   4.170  1.0063 -0.7236 -0.5774
  898MOL0     H21187   0.736   8.188   4.016 -0.6298 -1.9801  1.9975
  898MOL0     H21188   0.552   8.370   3.950  2.3653 -0.7098 -0.6986
  898MOL0     H21189   0.562   8.416   4.130 -3.0967 -2.9722  3.0199
  898MOL0     H21190   0.349   8.466   4.067  0.5252  0.7424  0.8855
  898MOL0     H21191   0.223   8.628   4.214  2.0455 -1.1740 -0.4513
  898MOL0     H21192   0.141   8.559   4.083 -1.7652 -1.6725  0.4269
  898MOL0     H21193   0.052   8.575   4.237  1.6088 -1.7062  2.9759
  898MOL0     H21194  -0.079   8.022   4.535  1.0565  0.8841 -0.7839
  898MOL0     H21195  -0.284   7.979   4.685 -2.1372  0.1213 -0.6780
  898MOL0     H21196  -0.610   8.039   4.803  0.5037  1.7670 -0.0197
  898MOL0     H21197  -0.489   7.945   4.725  0.4557 -0.1570  0.8791
  898MOL0     H21198  -0.317   7.999   4.908  0.6992  0.8324 -0.4254
  898MOL0     H21199  -0.419   8.110   4.974  3.4913 -0.1185 -0.2462
  898MOL0     H21200  -0.415   7.877   5.082  2.3804 -1.6114 -2.0062
  898MOL0     H21201  -0.485   7.799   4.944 -2.1709 -0.4981  0.9517
  898MOL0     H21202  -0.601   8.001   5.123  0.1809  1.3128 -1.5349
  898MOL0     H21203  -0.682   7.960   4.978  2.5544  5.3010 -0.6499
  898MOL0     H21204  -0.736   7.837   5.213 -0.0479 -0.6570  1.0600
  898MOL0     H21205  -0.577   7.759   5.186 -0.2195 -0.1432  0.9897
  898MOL0     H21206  -0.815   7.720   4.985 -0.7036 -1.1815  0.4936
  898MOL0     H21207  -0.656   7.645   4.996  1.4428 -0.0712  1.1044
  898MOL0     H21208  -0.868   7.632   5.215 -1.8673 -0.3140 -3.1035
  898MOL0     H21209  -0.706   7.545   5.216 -0.8992  1.3218  1.8735
  898MOL0     H21210  -0.783   7.405   5.049 -3.3014 -2.7844  1.5443
  898MOL0     H21211  -0.929   7.479   5.017  0.4353 -3.2297 -1.6609
  898MOL0     H21212  -0.399   8.382   4.646  1.1713  1.5182 -1.6403
  898MOL0     H21213  -0.188   8.439   4.545 -1.8195  0.6518  0.9345
  898MOL0     H21214   0.209   8.144   4.419 -1.7611  0.9979  0.9585
  898MOL0     H21215   0.400   8.095   4.287 -2.6890 -2.2491  1.2716
  898MOL0     H21216   1.894   7.801   3.256 -1.6468 -0.0468 -0.5179
  898MOL0     H21217   1.870   7.910   3.052 -3.4136 -2.0533  2.4741
  898MOL0     H21218   2.118   8.236   2.827  0.2541  1.3608  0.4621
  898MOL0     H21219   2.192   8.276   2.595 -0.2024  0.7739 -2.5578
  898MOL0     H21220   1.913   8.251   2.284  1.7898 -1.0383 -0.4702
  898MOL0     H21221   1.918   8.434   2.287 -0.8002 -1.2261 -0.2125
  898MOL0     H21222   2.026   8.353   2.092 -2.0207  3.4186  1.4102
  898MOL0     H21223   2.128   8.234   2.184 -1.1605  0.1776 -0.6018
  898MOL0     H21224   2.275   8.374   2.266 -0.5117 -1.6416  0.8312
  898MOL0     H21225   2.162   8.511   2.268  0.7915  1.1485  0.2384
  898MOL0     H21226   2.286   8.391   2.006  1.3535 -0.1892  0.9046
  898MOL0     H21227   2.335   8.544   2.099  0.1602  1.2202 -0.9990
  898MOL0     H21228   1.962   8.667   1.944 -0.8399  0.0933  2.9890
  898MOL0     H21229   1.786   8.321   2.483 -0.1163  3.2152  0.9539
  898MOL0     H21230   1.707   8.239   2.692 -1.0554 -1.7868  0.4457
  899MOL0     O21231   0.246   9.033   1.238 -0.4303  0.4514 -1.1005
  899MOL0     C21232   0.137   9.052   1.181 -0.8398 -0.0057  0.5521
  899MOL0     O21233   0.056   9.160   1.202 -0.2173  0.6809  0.2880
  899MOL0     C21234   0.086   9.257   1.295 -0.3312 -0.1433  0.5997
  899MOL0     C21235   0.218   9.304   1.316 -0.3965 -0.5121 -0.8831
  899MOL0     C21236   0.241   9.409   1.397 -0.3733  0.1335 -0.1679
  899MOL0     C21237   0.135   9.480   1.453 -1.0760 -0.3353  0.6203
  899MOL0     O21238   0.147   9.596   1.520 -0.2299 -0.3626  0.1211
  899MOL0     C21239   0.158   9.560   1.657  0.4268 -0.1620  1.1677
  899MOL0     C21240   0.175   9.688   1.743  0.4616 -0.2826  0.6915
  899MOL0     C21241   0.318   9.755   1.753 -0.0557  0.0249 -0.4975
  899MOL0     C21242   0.372   9.809   1.627  0.1607  0.0796  0.5265
  899MOL0     C21243   0.480   9.913   1.666 -0.5345 -0.5933 -0.5721
  899MOL0     C21244   0.567   9.947   1.539 -0.4233 -0.2527  0.1230
  899MOL0     C21245   0.691  10.036   1.564  0.3306  0.4179  0.4843
  899MOL0     C21246   0.777  10.043   1.443 -0.0528  0.6014  0.5791
  899MOL0     N21247   0.914  10.075   1.480 -0.6602  0.8471  0.7105
  899MOL0     C21248   0.948  10.197   1.535 -0.0427  0.1866 -0.6389
  899MOL0     C21249   1.071  10.173   1.587  1.8114  0.0919  0.3761
  899MOL0     C21250   1.166  10.249   1.653  0.4839 -0.5819 -1.6390
  899MOL0     C21251   1.201  10.373   1.566  0.0835 -0.2137  0.0631
  899MOL0     C21252   1.279  10.348   1.440  0.2288 -0.0489  0.1804
  899MOL0     C21253   1.429  10.400   1.440 -0.1004 -0.1082 -0.3734
  899MOL0     O21254   1.499  10.373   1.562 -0.1578 -0.4818 -0.3178
  899MOL0     C21255   1.629  10.423   1.564  0.2017  0.3357  0.3854
  899MOL0     C21256   1.708  10.365   1.657 -0.0462  0.3833 -0.4557
  899MOL0     C21257   1.836  10.406   1.690  0.1638  0.3315  0.4581
  899MOL0     C21258   1.927  10.336   1.797 -0.2356  0.0678 -0.3972
  899MOL0     C21259   1.901  10.500   1.608  0.3689  1.8229  0.0138
  899MOL0     C21260   2.044  10.537   1.605 -0.6359  0.3805  0.0686
  899MOL0     O21261   2.069  10.647   1.530  0.6785 -0.2102 -0.0530
  899MOL0     C21262   2.185  10.718   1.548  0.3691 -0.5777  0.4905
  899MOL0     C21263   2.235  10.769   1.431  0.1326  1.3245 -0.6439
  899MOL0     C21264   2.359  10.831   1.436 -0.2320  0.4758  0.1755
  899MOL0     C21265   2.444  10.834   1.550  0.2318  0.8738 -0.6288
  899MOL0     O21266   2.563  10.893   1.526  0.0881 -1.2010  0.3774
  899MOL0     C21267   2.668  10.859   1.611 -0.9660  0.2809  0.5285
  899MOL0     C21268   2.798  10.893   1.533  0.1959  0.1169 -0.5295
  899MOL0     C21269   2.829  10.771   1.449 -0.4882 -1.0889  0.7650
  899MOL0     C21270   2.961  10.784   1.373  0.0120 -0.3164  0.0312
  899MOL0     C21271   2.987  10.686   1.255 -0.8399  0.6605 -0.3268
  899MOL0     C21272   3.014  10.550   1.299  0.6200  0.4688  0.6868
  899MOL0     C21273   3.079  10.465   1.194  1.0474 -0.3178 -0.9717
  899MOL0     C21274   3.216  10.499   1.146 -0.4668  0.5867  0.4461
  899MOL0    Cl21275   3.235  10.633   1.030 -0.2060  0.0620  0.7658
  899MOL0     C21276   2.397  10.775   1.672  0.7625  0.4011  0.5701
  899MOL0     C21277   2.263  10.726   1.665 -0.4874 -0.5948 -0.4031
  899MOL0     O21278   2.129  10.474   1.673  0.3910 -0.5204  0.1926
  899MOL0     C21279   1.820  10.549   1.494 -0.0040  0.3119  0.8709
  899MOL0     C21280   1.684  10.530   1.489  0.4041 -0.2678  0.8983
  899MOL0     N21281   1.105  10.047   1.554 -0.3749  0.2411  0.5078
  899MOL0     N21282   1.015   9.986   1.492  0.4699  0.5184  1.0029
  899MOL0     C21283   0.010   9.426   1.441  0.8771 -1.0713 -0.1705
  899MOL0     C21284  -0.015   9.320   1.360  0.0094 -0.5039 -0.7385
  899MOL0     C21285   0.080   8.953   1.088  0.3740 -0.2189 -0.2397
  899MOL0     C21286  -0.023   8.988   1.001  0.2706  0.1956 -0.6601
  899MOL0     C21287  -0.083   8.887   0.916 -0.0167 -0.7792  0.5901
  899MOL0     C21288  -0.038   8.750   0.923  0.9604 -1.2030 -1.6194
  899MOL0     O21289  -0.094   8.643   0.847  0.6546 -0.2463 -0.4479
  899MOL0     C21290  -0.211   8.645   0.758  0.4394  0.2302  0.3062
  899MOL0     C21291  -0.198   8.569   0.632 -0.6823  0.2892 -0.5239
  899MOL0     C21292  -0.314   8.594   0.536  0.1461 -0.5129  0.6744
  899MOL0     C21293  -0.307   8.744   0.486  0.1154  0.5630 -0.3294
  899MOL0     C21294  -0.402   8.833   0.550  0.0017 -0.8181 -0.6007
  899MOL0     C21295  -0.485   8.887   0.625 -0.5578  0.0561 -0.1419
  899MOL0     C21296   0.071   8.729   1.006 -0.4655  0.5799  0.3328
  899MOL0     C21297   0.121   8.829   1.090  0.0621  0.3435  0.1970
  899MOL0     H21298   0.301   9.252   1.268 -2.5618 -3.5984 -1.6148
  899MOL0     H21299   0.340   9.456   1.399 -0.2422  0.0416 -2.2059
  899MOL0     H21300   0.070   9.512   1.699 -0.1964 -0.9068 -0.8756
  899MOL0     H21301   0.241   9.491   1.679 -0.5396 -1.3855  1.1292
  899MOL0     H21302   0.111   9.768   1.704 -0.3137 -0.2978  1.8864
  899MOL0     H21303   0.162   9.663   1.848  1.7559 -0.9074  0.7287
  899MOL0     H21304   0.315   9.823   1.839 -1.2940 -1.9636  1.1367
  899MOL0     H21305   0.383   9.675   1.789 -1.4127 -1.3365 -0.9878
  899MOL0     H21306   0.420   9.728   1.571 -1.2494 -0.2863 -0.1799
  899MOL0     H21307   0.294   9.856   1.567  1.2155  0.8260 -0.3115
  899MOL0     H21308   0.431  10.008   1.690  1.1113  0.5422 -1.4778
  899MOL0     H21309   0.530   9.863   1.750 -0.2757  0.6944  0.0644
  899MOL0     H21310   0.579   9.847   1.495 -1.4884  0.3706 -1.7106
  899MOL0     H21311   0.505  10.002   1.468 -1.8447  0.0787  1.5561
  899MOL0     H21312   0.671  10.138   1.598 -0.4407  0.1670  0.8165
  899MOL0     H21313   0.742   9.996   1.653 -0.1241 -1.0577  0.1016
  899MOL0     H21314   0.738  10.128   1.386 -5.1455  0.3234  3.0930
  899MOL0     H21315   0.770   9.955   1.380 -1.2230  2.0340 -1.4135
  899MOL0     H21316   0.898  10.292   1.550  2.1361  1.3097 -0.0820
  899MOL0     H21317   1.119  10.288   1.743  0.3707  0.5592 -2.1748
  899MOL0     H21318   1.259  10.193   1.666  0.7355 -0.5080 -2.9571
  899MOL0     H21319   1.256  10.439   1.634 -1.1619  1.9290 -0.9281
  899MOL0     H21320   1.104  10.411   1.533  0.9743  1.7599 -0.3802
  899MOL0     H21321   1.233  10.406   1.360 -2.7422  0.6584  2.2260
  899MOL0     H21322   1.276  10.243   1.413  2.1091  0.1702 -1.0868
  899MOL0     H21323   1.408  10.505   1.415  0.8214  0.9533  2.7905
  899MOL0     H21324   1.482  10.343   1.363  1.1814  0.9487 -0.3035
  899MOL0     H21325   1.672  10.293   1.730  0.6281  0.3661 -0.1360
  899MOL0     H21326   2.002  10.267   1.756 -0.7829 -0.6972 -0.1413
  899MOL0     H21327   1.958  10.418   1.861 -0.9247  0.7489 -0.9127
  899MOL0     H21328   1.861  10.264   1.846  2.0669 -2.0942 -0.2763
  899MOL0     H21329   2.184  10.750   1.337  2.0780 -0.9512 -1.3537
  899MOL0     H21330   2.398  10.861   1.339 -3.6479 -0.3798 -1.6103
  899MOL0     H21331   2.676  10.915   1.704  2.0287 -3.2461  2.6623
  899MOL0     H21332   2.660  10.751   1.630  0.8199 -0.2282 -1.2545
  899MOL0     H21333   2.778  10.977   1.466 -2.3146  1.4291  1.6739
  899MOL0     H21334   2.878  10.918   1.604  0.8682 -1.0158 -0.8732
  899MOL0     H21335   2.756  10.759   1.368 -1.1054  1.5863  0.8612
  899MOL0     H21336   2.817  10.680   1.509 -0.8617 -1.2669  0.4319
  899MOL0     H21337   2.963  10.885   1.331 -0.3198 -0.3023  0.0502
  899MOL0     H21338   3.048  10.783   1.440  1.5486 -4.2448 -1.7132
  899MOL0     H21339   3.072  10.716   1.194 -0.4896 -0.9401 -0.6669
  899MOL0     H21340   2.898  10.688   1.191 -0.9849  0.2208 -0.1489
  899MOL0     H21341   3.084  10.563   1.383 -0.3327  0.2924  1.5275
  899MOL0     H21342   2.928  10.497   1.341  1.7681 -1.4198  0.7580
  899MOL0     H21343   3.004  10.450   1.115 -1.0072 -0.9116  0.9800
  899MOL0     H21344   3.080  10.366   1.239 -1.4730  0.2097  0.4261
  899MOL0     H21345   3.249  10.408   1.094  1.1373  1.6044 -0.4016
  899MOL0     H21346   3.287  10.509   1.229  2.6614  4.0215 -2.2942
  899MOL0     H21347   2.453  10.784   1.764  0.9992 -3.0326  0.9098
  899MOL0     H21348   2.212  10.685   1.751  0.6459  0.0704  0.6170
  899MOL0     H21349   1.853  10.633   1.434  1.9959  1.2979  3.1741
  899MOL0     H21350   1.624  10.590   1.422  0.6095  0.1251  1.0604
  899MOL0     H21351  -0.068   9.489   1.482  0.5078 -0.9605 -1.0311
  899MOL0     H21352  -0.115   9.284   1.338 -0.2067  0.7548 -1.9653
  899MOL0     H21353  -0.056   9.091   0.999 -2.4829 -0.4144  2.8531
  899MOL0     H21354  -0.164   8.912   0.848 -2.2512  4.3160  4.4204
  899MOL0     H21355  -0.298   8.613   0.817 -0.4398 -0.7860 -1.4359
  899MOL0     H21356  -0.235   8.747   0.730 -0.7033 -0.5955 -1.9484
  899MOL0     H21357  -0.190   8.468   0.675  1.9090  0.9619  0.8183
  899MOL0     H21358  -0.103   8.600   0.587  0.1929 -1.4060  0.0496
  899MOL0     H21359  -0.409   8.574   0.586  0.1948 -0.0110  0.9749
  899MOL0     H21360  -0.315   8.526   0.450  0.0433 -1.1027  1.1318
  899MOL0     H21361  -0.316   8.745   0.377  1.4858 -1.5445 -0.5305
  899MOL0     H21362  -0.211   8.786   0.519 -0.1207 -1.3576  3.3036
  899MOL0     H21363  -0.541   8.931   0.705  0.2987  0.5834  0.1847
  899MOL0     H21364   0.114   8.632   1.027  0.9991  1.0674 -0.2440
  899MOL0     H21365   0.202   8.806   1.159  1.2809 -1.3135 -1.6582
  900MOL0     O21366   6.940   0.845   8.539 -0.4701 -0.2762  0.2492
  900MOL0     C21367   6.819   0.846   8.512  0.2274  0.4636  0.3082
  900MOL0     O21368   6.753   0.931   8.417 -0.5774  0.4338 -0.1159
  900MOL0     C21369   6.804   0.928   8.292 -0.0062  0.2733 -0.4116
  900MOL0     C21370   6.941   0.934   8.254 -0.1211  0.0126 -0.2615
  900MOL0     C21371   6.974   0.934   8.117  0.4469  0.7803  1.4039
  900MOL0     C21372   6.875   0.933   8.011  0.2823  0.4014 -0.3611
  900MOL0     O21373   6.904   0.937   7.879 -0.3277 -0.1902  0.7734
  900MOL0     C21374   6.832   0.844   7.792 -0.5607 -0.1971 -1.1292
  900MOL0     C21375   6.912   0.789   7.668 -1.0863 -1.0541  0.5104
  900MOL0     C21376   7.023   0.880   7.600  0.3447  0.1579 -0.6405
  900MOL0     C21377   7.128   0.787   7.533  1.0750 -0.2642 -1.0595
  900MOL0     C21378   7.224   0.869   7.450 -0.2431 -0.0580 -0.0933
  900MOL0     C21379   7.315   0.974   7.526 -1.0041 -0.6257  0.0824
  900MOL0     C21380   7.360   0.918   7.661 -0.3851 -0.0194  0.2955
  900MOL0     C21381   7.442   0.793   7.646 -0.5941  0.0360 -0.1600
  900MOL0     N21382   7.514   0.767   7.772  0.3293  1.2399  0.0865
  900MOL0     C21383   7.515   0.641   7.840 -0.0171 -0.8257  0.1059
  900MOL0     C21384   7.603   0.657   7.949  0.7472 -0.3442  0.4375
  900MOL0     C21385   7.611   0.545   8.050 -0.4389  0.3758 -0.5237
  900MOL0     C21386   7.746   0.552   8.122 -0.5096 -0.1046 -0.7875
  900MOL0     C21387   7.860   0.515   8.016 -0.8453 -0.1692 -0.5222
  900MOL0     C21388   7.971   0.622   8.023  1.1687  0.9073 -0.7066
  900MOL0     O21389   8.054   0.609   7.903  0.0514  0.2056 -0.3597
  900MOL0     C21390   8.087   0.724   7.844 -0.8925  0.2008 -0.0853
  900MOL0     C21391   8.222   0.765   7.821  0.2806  0.7881 -0.7657
  900MOL0     C21392   8.254   0.874   7.744  0.7050  0.4934  0.6290
  900MOL0     C21393   8.396   0.912   7.735 -0.0590  0.9298  0.3478
  900MOL0     C21394   8.146   0.942   7.675  0.3448  0.0826 -0.2711
  900MOL0     C21395   8.171   1.032   7.562  1.1645  0.5748  0.2151
  900MOL0     O21396   8.132   1.160   7.576 -0.9604 -0.0108  0.5052
  900MOL0     C21397   8.182   1.229   7.462 -0.6345 -0.5712 -0.2681
  900MOL0     C21398   8.088   1.263   7.367 -0.2450  0.5390 -0.4188
  900MOL0     C21399   8.122   1.334   7.249 -0.7713  0.1252  0.1387
  900MOL0     C21400   8.247   1.377   7.227 -0.3204  1.8302  0.1242
  900MOL0     O21401   8.248   1.454   7.117 -0.1377 -0.4589 -0.0140
  900MOL0     C21402   8.358   1.552   7.121 -0.5285  0.6450 -0.6747
  900MOL0     C21403   8.481   1.516   7.044  0.2930 -1.3515  0.0480
  900MOL0     C21404   8.449   1.502   6.896 -0.1897  0.0053 -0.7595
  900MOL0     C21405   8.561   1.418   6.831 -0.2605  0.8312  0.0684
  900MOL0     C21406   8.508   1.395   6.688  0.0425  0.1615  0.5747
  900MOL0     C21407   8.618   1.349   6.601  0.8020  0.0839  0.2783
  900MOL0     C21408   8.646   1.206   6.654 -0.3381  0.1207  0.6639
  900MOL0     C21409   8.721   1.121   6.549  0.1585 -0.3378 -0.1026
  900MOL0    Cl21410   8.695   0.952   6.594 -0.1589  0.2708  0.1135
  900MOL0     C21411   8.346   1.331   7.319 -0.1673 -0.9515  0.4884
  900MOL0     C21412   8.314   1.267   7.441 -0.2007  0.5907  0.4998
  900MOL0     O21413   8.215   0.969   7.463 -0.1690  0.2152 -0.2134
  900MOL0     C21414   8.009   0.909   7.697 -0.7068 -0.4650  0.2220
  900MOL0     C21415   7.986   0.806   7.782 -1.1481  0.9336 -0.5148
  900MOL0     N21416   7.655   0.785   7.945 -0.4763 -0.0668  1.2915
  900MOL0     N21417   7.610   0.844   7.833  0.2032  0.7822 -1.2064
  900MOL0     C21418   6.745   0.930   8.058  0.2435  0.0081 -0.2006
  900MOL0     C21419   6.710   0.942   8.189 -0.1964 -0.1454  0.5533
  900MOL0     C21420   6.726   0.801   8.621  0.2110  0.4775  0.8585
  900MOL0     C21421   6.598   0.831   8.642 -0.3054 -0.1207 -0.1395
  900MOL0     C21422   6.518   0.799   8.756 -0.7992  0.4974  0.4957
  900MOL0     C21423   6.571   0.711   8.854 -0.0492 -0.8336  0.3285
  900MOL0     O21424   6.491   0.664   8.951 -0.3282  0.1794  0.3162
  900MOL0     C21425   6.482   0.520   8.948 -0.2085  0.1927  0.3905
  900MOL0     C21426   6.401   0.459   9.064  0.8200 -1.4602 -0.9108
  900MOL0     C21427   6.411   0.310   9.069 -0.0989 -0.2229  0.6103
  900MOL0     C21428   6.391   0.233   8.943 -0.0640  0.7487 -0.1324
  900MOL0     C21429   6.283   0.282   8.861  0.2814 -0.1794  0.4993
  900MOL0     C21430   6.202   0.331   8.783  0.2795 -0.6783 -0.4630
  900MOL0     C21431   6.708   0.669   8.828  0.2904  0.1943 -0.4006
  900MOL0     C21432   6.780   0.716   8.725 -0.7280  0.0787  0.3757
  900MOL0     H21433   7.014   0.957   8.331  0.2042 -1.4807 -0.0931
  900MOL0     H21434   7.081   0.942   8.097  0.0871 -0.0455 -1.1204
  900MOL0     H21435   6.812   0.761   7.861  2.2005  0.4878  0.6205
  900MOL0     H21436   6.742   0.902   7.769 -1.1215 -0.2999  0.6650
  900MOL0     H21437   6.960   0.700   7.710 -0.8326 -2.3465 -2.2835
  900MOL0     H21438   6.834   0.760   7.596 -2.0407 -0.7743  1.4138
  900MOL0     H21439   6.979   0.943   7.522 -3.2330  0.2998  1.2638
  900MOL0     H21440   7.068   0.948   7.673 -2.1589  2.3012 -0.9226
  900MOL0     H21441   7.176   0.723   7.607 -2.0920 -1.3909  0.2197
  900MOL0     H21442   7.064   0.723   7.471 -0.3353 -0.9138  0.9334
  900MOL0     H21443   7.285   0.800   7.391  1.6452  1.1268  0.3560
  900MOL0     H21444   7.160   0.929   7.385 -0.8756 -1.3391 -0.6770
  900MOL0     H21445   7.392   0.998   7.452 -2.4766  0.1574 -1.2338
  900MOL0     H21446   7.255   1.061   7.552 -2.8402 -0.0790 -4.9095
  900MOL0     H21447   7.413   1.003   7.707 -1.4365 -0.6720  2.8745
  900MOL0     H21448   7.276   0.895   7.727  2.2433 -0.8125  3.6524
  900MOL0     H21449   7.522   0.829   7.580  1.8064  1.4683  3.2115
  900MOL0     H21450   7.382   0.713   7.601  1.4600 -0.8926 -1.3947
  900MOL0     H21451   7.450   0.556   7.823  2.3778 -2.5154 -1.1600
  900MOL0     H21452   7.526   0.544   8.119 -1.8354  2.6002 -2.0830
  900MOL0     H21453   7.604   0.456   7.986 -1.8531  0.8188 -1.0217
  900MOL0     H21454   7.739   0.477   8.201 -2.2316 -1.3441 -2.0405
  900MOL0     H21455   7.764   0.654   8.157 -2.9459 -0.2047  0.9682
  900MOL0     H21456   7.823   0.507   7.914  0.5567  0.2582 -1.0785
  900MOL0     H21457   7.901   0.416   8.040 -2.1684 -0.3384  1.2581
  900MOL0     H21458   8.023   0.611   8.119  3.0447  3.0771 -1.3854
  900MOL0     H21459   7.917   0.717   8.020  1.2784  0.9460 -2.1521
  900MOL0     H21460   8.303   0.713   7.872  1.0934  0.7189 -2.1062
  900MOL0     H21461   8.418   1.019   7.749  2.1114  0.0969  5.5680
  900MOL0     H21462   8.457   0.859   7.808  3.7544  0.3510 -2.9406
  900MOL0     H21463   8.427   0.885   7.634 -2.2755 -0.3771 -0.0444
  900MOL0     H21464   7.991   1.221   7.387  0.2562 -0.1892  0.5522
  900MOL0     H21465   8.052   1.356   7.168  0.1553 -0.9933 -1.0201
  900MOL0     H21466   8.312   1.641   7.077 -1.5941 -2.0501 -5.6845
  900MOL0     H21467   8.379   1.586   7.223 -0.7163 -0.0590 -0.3976
  900MOL0     H21468   8.548   1.602   7.052 -1.8609  0.5397 -0.9530
  900MOL0     H21469   8.533   1.429   7.082  2.0939 -0.5343 -0.4385
  900MOL0     H21470   8.463   1.605   6.861  2.6639  0.8018  2.3129
  900MOL0     H21471   8.357   1.454   6.860  0.8004 -1.5203 -1.3912
  900MOL0     H21472   8.660   1.463   6.838  0.5463 -1.0908  3.5698
  900MOL0     H21473   8.576   1.323   6.882 -1.5991  0.9134  0.6516
  900MOL0     H21474   8.477   1.493   6.650  0.0975  0.2788  0.8269
  900MOL0     H21475   8.423   1.327   6.680  0.9405 -0.9758  0.5262
  900MOL0     H21476   8.588   1.346   6.496  3.4548  0.4876 -0.5729
  900MOL0     H21477   8.703   1.418   6.606 -1.9637  3.8511 -0.1795
  900MOL0     H21478   8.556   1.158   6.692 -0.5661 -1.1007 -1.2834
  900MOL0     H21479   8.718   1.208   6.737  0.3785  2.1254  0.0694
  900MOL0     H21480   8.827   1.138   6.528  0.1999 -3.0257 -2.5390
  900MOL0     H21481   8.679   1.143   6.451 -2.9681  2.0724  1.5920
  900MOL0     H21482   8.450   1.355   7.302 -0.2814 -1.7568 -1.6100
  900MOL0     H21483   8.388   1.222   7.506 -1.1740 -2.7001 -0.4316
  900MOL0     H21484   7.942   0.957   7.626  1.6587 -0.3043 -2.0691
  900MOL0     H21485   7.885   0.769   7.797 -0.5145 -1.0339 -0.7825
  900MOL0     H21486   6.663   0.943   7.988 -1.6901  0.4031  2.0061
  900MOL0     H21487   6.602   0.951   8.201 -0.7706 -2.4371 -1.9830
  900MOL0     H21488   6.559   0.910   8.578 -0.0248  1.5522  1.6460
  900MOL0     H21489   6.415   0.832   8.765 -0.8228  0.3296  0.8606
  900MOL0     H21490   6.444   0.493   8.849 -2.0545  1.7780  0.6058
  900MOL0     H21491   6.577   0.467   8.952 -0.8148 -1.6658 -4.1700
  900MOL0     H21492   6.294   0.479   9.079  1.0581 -2.2829  2.8368
  900MOL0     H21493   6.444   0.502   9.155 -1.4987  3.2366 -1.6942
  900MOL0     H21494   6.336   0.274   9.141 -1.9767 -1.1968 -1.7120
  900MOL0     H21495   6.511   0.285   9.105  1.1952  0.0574 -2.4898
  900MOL0     H21496   6.366   0.130   8.971 -1.7191  0.9767 -0.6436
  900MOL0     H21497   6.482   0.231   8.882 -1.7206  1.2436 -2.7804
  900MOL0     H21498   6.124   0.373   8.723 -2.2728 -2.2147  1.5939
  900MOL0     H21499   6.758   0.610   8.904  2.1239 -0.7969 -2.2620
  900MOL0     H21500   6.882   0.678   8.720 -0.4751  0.5113  1.7763
  901MOL0     O21501   5.491   7.307   1.863 -0.2314  0.1978 -1.0424
  901MOL0     C21502   5.564   7.371   1.795 -0.4952 -0.9449 -0.5416
  901MOL0     O21503   5.526   7.482   1.731 -0.2210 -0.4362  0.3315
  901MOL0     C21504   5.391   7.509   1.713  0.4245  0.9379 -0.0352
  901MOL0     C21505   5.331   7.463   1.592  1.5081 -0.0840  0.3323
  901MOL0     C21506   5.196   7.469   1.568 -0.1096  0.1544 -0.4239
  901MOL0     C21507   5.117   7.526   1.661  0.0569  0.0778 -0.4254
  901MOL0     O21508   4.984   7.517   1.625  0.2612 -0.2450  0.2722
  901MOL0     C21509   4.894   7.460   1.724 -0.0886 -0.0493 -0.4919
  901MOL0     C21510   4.790   7.363   1.662 -0.3256 -0.7657  0.1981
  901MOL0     C21511   4.683   7.320   1.765 -0.5516  0.2757  0.3182
  901MOL0     C21512   4.607   7.188   1.730  0.2345 -0.1905 -0.0827
  901MOL0     C21513   4.686   7.063   1.689  0.1563 -0.5270  0.1938
  901MOL0     C21514   4.764   7.020   1.813 -0.7237 -0.3415 -0.7239
  901MOL0     C21515   4.817   6.877   1.814  0.3569  0.0161  0.3262
  901MOL0     C21516   4.727   6.778   1.738 -0.9780  0.9869 -0.3816
  901MOL0     N21517   4.775   6.644   1.758  0.6775 -1.0307 -1.2137
  901MOL0     C21518   4.803   6.583   1.875  0.1403  0.9228 -0.3619
  901MOL0     C21519   4.826   6.448   1.845  0.2207  0.2378  0.4982
  901MOL0     C21520   4.850   6.326   1.930 -0.0991 -0.5659 -0.4162
  901MOL0     C21521   4.955   6.228   1.879  0.5800 -0.6331  0.3042
  901MOL0     C21522   4.994   6.137   1.992  0.0687 -0.2084 -0.5737
  901MOL0     C21523   5.129   6.069   1.952  0.2308  0.0957 -0.8559
  901MOL0     O21524   5.232   6.162   1.946 -0.6601  0.1751  0.6682
  901MOL0     C21525   5.308   6.206   2.056  0.2864 -0.3093  1.4452
  901MOL0     C21526   5.405   6.307   2.036  0.1244  0.0776 -0.8989
  901MOL0     C21527   5.484   6.357   2.138 -0.2645  0.2975  0.4149
  901MOL0     C21528   5.578   6.460   2.087  0.6426 -0.6157  0.1790
  901MOL0     C21529   5.465   6.317   2.273  0.4342 -0.2637  0.4357
  901MOL0     C21530   5.541   6.383   2.380  0.2129  0.8109  0.0529
  901MOL0     O21531   5.603   6.502   2.348  0.2912  0.3529 -0.1821
  901MOL0     C21532   5.665   6.558   2.457  0.3531 -1.0571 -1.1929
  901MOL0     C21533   5.625   6.665   2.548 -0.6733 -1.0304  0.0245
  901MOL0     C21534   5.699   6.701   2.659 -0.1629  0.1347  0.7671
  901MOL0     C21535   5.817   6.629   2.691  0.5253  0.5322  0.0976
  901MOL0     O21536   5.867   6.656   2.812 -0.0755 -0.5541 -0.4862
  901MOL0     C21537   5.974   6.575   2.866 -0.3421 -0.1844  0.0037
  901MOL0     C21538   6.110   6.618   2.817 -0.0770  0.2849 -0.7905
  901MOL0     C21539   6.203   6.503   2.834 -0.3531  0.1525  0.6710
  901MOL0     C21540   6.355   6.550   2.830 -0.0496  0.3180  0.1617
  901MOL0     C21541   6.451   6.435   2.845  0.3859 -0.9997 -1.0196
  901MOL0     C21542   6.595   6.486   2.863  0.2577 -0.6538  0.4567
  901MOL0     C21543   6.707   6.380   2.842  0.6099 -0.3133  0.4176
  901MOL0     C21544   6.838   6.425   2.913  0.0331  0.0625  0.3739
  901MOL0    Cl21545   6.827   6.441   3.090  0.0203 -0.0810  0.0583
  901MOL0     C21546   5.855   6.527   2.606  0.0983  0.3610  0.6371
  901MOL0     C21547   5.790   6.508   2.483  0.5128  0.6279 -0.4842
  901MOL0     O21548   5.538   6.344   2.497  0.1544 -0.2666  0.5576
  901MOL0     C21549   5.361   6.217   2.293 -0.4561 -1.3253  0.3039
  901MOL0     C21550   5.296   6.157   2.186 -1.0448 -0.1617  0.3663
  901MOL0     N21551   4.817   6.440   1.707  0.7166  0.3449 -0.4599
  901MOL0     N21552   4.788   6.556   1.662  0.6651 -0.1672  0.4913
  901MOL0     C21553   5.173   7.575   1.780 -0.4022  0.0350 -0.2011
  901MOL0     C21554   5.311   7.567   1.811  0.2119  0.2881  0.1933
  901MOL0     C21555   5.713   7.325   1.785  0.0838  0.0291 -0.1580
  901MOL0     C21556   5.758   7.217   1.858 -0.3336  0.0076 -0.3132
  901MOL0     C21557   5.893   7.189   1.853 -0.7800  0.2035  0.1506
  901MOL0     C21558   5.978   7.256   1.764 -0.3696 -0.4608 -0.1774
  901MOL0     O21559   6.112   7.226   1.735 -0.6891  0.0573 -0.3618
  901MOL0     C21560   6.179   7.109   1.789  0.3093 -0.1289  0.0069
  901MOL0     C21561   6.212   7.134   1.943 -0.1089  0.6779  0.4804
  901MOL0     C21562   6.276   7.012   2.014 -0.4246 -0.5009  0.0455
  901MOL0     C21563   6.394   6.946   1.946  0.6061  1.3652  0.0806
  901MOL0     C21564   6.515   7.022   1.955 -0.6277  0.5253  0.8775
  901MOL0     C21565   6.621   7.075   1.966 -0.4885 -0.3353  0.7001
  901MOL0     C21566   5.932   7.360   1.692 -0.8232  0.6701 -0.1198
  901MOL0     C21567   5.800   7.391   1.699  0.4944 -0.4248 -0.4389
  901MOL0     H21568   5.398   7.437   1.511 -0.5928  0.0147 -1.5165
  901MOL0     H21569   5.156   7.426   1.477  2.7531 -2.1190 -0.7511
  901MOL0     H21570   4.947   7.389   1.788  0.7384  1.2748  0.3225
  901MOL0     H21571   4.842   7.538   1.780  1.6457 -1.8326  4.0304
  901MOL0     H21572   4.729   7.414   1.587  0.6764 -0.2628 -0.2863
  901MOL0     H21573   4.831   7.268   1.625 -0.9839 -0.3279 -1.7578
  901MOL0     H21574   4.728   7.290   1.860 -1.8670  2.7731  1.8374
  901MOL0     H21575   4.609   7.400   1.774 -2.6648 -1.4512 -0.7670
  901MOL0     H21576   4.539   7.160   1.811  1.4340  0.6345  1.2778
  901MOL0     H21577   4.555   7.211   1.637 -4.4491  1.7989  2.6964
  901MOL0     H21578   4.620   6.981   1.660 -1.1577  1.0594 -1.5635
  901MOL0     H21579   4.751   7.091   1.606 -2.8360  1.9186 -1.5440
  901MOL0     H21580   4.849   7.086   1.834 -0.5025 -0.3775 -1.4694
  901MOL0     H21581   4.693   7.022   1.896 -0.3069 -3.5627 -0.1776
  901MOL0     H21582   4.905   6.874   1.750 -2.6356  0.7828 -4.3164
  901MOL0     H21583   4.823   6.841   1.917  1.4202 -1.5120 -0.2477
  901MOL0     H21584   4.717   6.803   1.632  1.5587  1.6489 -0.5176
  901MOL0     H21585   4.627   6.767   1.782 -0.6639 -0.3313  0.0668
  901MOL0     H21586   4.812   6.618   1.978  0.7685 -0.1030 -0.0534
  901MOL0     H21587   4.860   6.357   2.034  0.7678  1.9384 -1.1662
  901MOL0     H21588   4.759   6.266   1.935  1.0055 -2.3293 -0.7928
  901MOL0     H21589   5.033   6.289   1.833 -0.4156 -0.1132 -0.7500
  901MOL0     H21590   4.903   6.164   1.806  1.5482  0.9601 -1.8660
  901MOL0     H21591   4.929   6.052   2.014 -0.3927  0.5102  0.9708
  901MOL0     H21592   4.996   6.201   2.081 -0.1520 -2.1247  0.8719
  901MOL0     H21593   5.110   6.024   1.854  0.9925  0.6326 -1.2525
  901MOL0     H21594   5.167   5.989   2.017 -1.1234 -0.7138 -1.0207
  901MOL0     H21595   5.422   6.327   1.930  3.3557 -0.5259 -0.5899
  901MOL0     H21596   5.550   6.561   2.120  1.9134 -0.1879  0.0171
  901MOL0     H21597   5.682   6.456   2.122  0.4416 -0.5051  0.8059
  901MOL0     H21598   5.581   6.461   1.978  1.6629  1.8465  0.1469
  901MOL0     H21599   5.537   6.723   2.522 -0.1372 -1.1218 -2.2176
  901MOL0     H21600   5.666   6.783   2.722 -0.0209  2.8013 -2.4093
  901MOL0     H21601   5.975   6.579   2.975 -1.4673 -3.2241  0.2265
  901MOL0     H21602   5.943   6.472   2.844  0.5092 -0.0818 -1.8706
  901MOL0     H21603   6.114   6.646   2.711  0.2476  1.0320 -0.5874
  901MOL0     H21604   6.145   6.695   2.887 -0.7651 -1.9411  2.2219
  901MOL0     H21605   6.183   6.433   2.753  1.3272  0.8347 -0.3902
  901MOL0     H21606   6.190   6.465   2.935 -0.0426 -1.5254  0.1052
  901MOL0     H21607   6.379   6.607   2.739 -4.1311  1.1707 -0.5674
  901MOL0     H21608   6.378   6.614   2.915  4.7743 -0.7647 -0.0560
  901MOL0     H21609   6.443   6.373   2.755 -1.2490 -1.9844 -0.2460
  901MOL0     H21610   6.428   6.377   2.935  0.9498  0.0097 -0.2047
  901MOL0     H21611   6.608   6.572   2.797 -2.3860  0.8498  1.7523
  901MOL0     H21612   6.609   6.528   2.962  1.2899  0.9498 -0.3299
  901MOL0     H21613   6.747   6.369   2.741  1.8814  0.9867  0.7276
  901MOL0     H21614   6.680   6.286   2.891  0.0943 -0.2266  0.3031
  901MOL0     H21615   6.864   6.524   2.876 -1.5486  1.1134  1.8882
  901MOL0     H21616   6.911   6.348   2.887  2.6734  2.0219  1.4875
  901MOL0     H21617   5.942   6.465   2.627 -1.8456 -1.7481  3.0301
  901MOL0     H21618   5.832   6.429   2.421  0.3006 -0.1962  0.3972
  901MOL0     H21619   5.346   6.175   2.392  3.8230 -2.6574  0.6060
  901MOL0     H21620   5.241   6.065   2.202 -2.1235  0.2748 -0.6843
  901MOL0     H21621   5.098   7.624   1.843 -2.2854 -1.7746 -0.9047
  901MOL0     H21622   5.348   7.611   1.903 -1.6384  0.3764  0.9273
  901MOL0     H21623   5.690   7.164   1.923 -2.3731  0.9064 -1.5971
  901MOL0     H21624   5.930   7.108   1.915  2.3537  1.6180  0.3564
  901MOL0     H21625   6.113   7.025   1.767 -0.2065  0.2020  0.2659
  901MOL0     H21626   6.272   7.094   1.733  1.5785 -0.0981  2.0307
  901MOL0     H21627   6.121   7.161   1.998 -1.7282 -1.0117 -1.1888
  901MOL0     H21628   6.267   7.226   1.962 -2.8891  2.3019  1.2942
  901MOL0     H21629   6.195   6.943   2.037 -0.4840 -0.9287 -1.3766
  901MOL0     H21630   6.319   7.040   2.111  2.6207 -2.3027 -0.6630
  901MOL0     H21631   6.375   6.914   1.844  0.7570 -1.1754  0.7807
  901MOL0     H21632   6.417   6.856   2.004 -1.2021  1.4638  1.0059
  901MOL0     H21633   6.720   7.115   1.964 -1.7789  3.4309  2.9083
  901MOL0     H21634   5.980   7.427   1.621 -0.3689  0.4955  0.0219
  901MOL0     H21635   5.759   7.474   1.643  0.9161  1.5909  2.0736
  902MOL0     O21636   8.886   3.074  10.881  0.4462  0.0322  0.2491
  902MOL0     C21637   8.804   3.064  10.780  0.0150 -0.3519 -0.2873
  902MOL0     O21638   8.683   3.127  10.770  0.5097  0.4262  0.7242
  902MOL0     C21639   8.648   3.213  10.869 -0.1681 -0.3001 -0.2409
  902MOL0     C21640   8.651   3.186  11.012  0.7303 -0.2091 -0.3391
  902MOL0     C21641   8.602   3.278  11.107 -0.0244  0.1870  0.8657
  902MOL0     C21642   8.570   3.405  11.064  0.0503 -0.6130 -0.5255
  902MOL0     O21643   8.542   3.503  11.156 -0.4130  0.4455  0.5085
  902MOL0     C21644   8.403   3.492  11.204 -0.1911  0.1016 -0.0885
  902MOL0     C21645   8.362   3.627  11.271  1.4683  0.1603  0.5216
  902MOL0     C21646   8.228   3.607  11.346 -0.5060 -0.4178  0.2357
  902MOL0     C21647   8.166   3.740  11.374  0.6118  0.6619  0.0879
  902MOL0     C21648   8.020   3.736  11.402 -0.1097 -0.4431  0.1344
  902MOL0     C21649   7.982   3.638  11.518  0.6875  0.3094 -0.0489
  902MOL0     C21650   7.827   3.600  11.528 -0.4407  0.3018  0.1168
  902MOL0     C21651   7.765   3.696  11.626 -0.2139 -0.2206 -1.0780
  902MOL0     N21652   7.806   3.678  11.771 -0.1035  0.0401  0.0648
  902MOL0     C21653   7.909   3.737  11.842  0.5647  0.8935 -0.1756
  902MOL0     C21654   7.899   3.672  11.958  0.2916 -0.0447 -0.1762
  902MOL0     C21655   8.004   3.708  12.070  0.7236 -0.1927 -0.4647
  902MOL0     C21656   8.136   3.633  12.065  0.0099 -0.3598 -0.1941
  902MOL0     C21657   8.239   3.702  11.961  1.1185 -0.5683  0.4288
  902MOL0     C21658   8.355   3.611  11.947  1.0943  0.5219 -0.0979
  902MOL0     O21659   8.379   3.527  12.059  0.4497 -0.5793 -0.0971
  902MOL0     C21660   8.502   3.535  12.119  0.2500  1.0820 -0.7803
  902MOL0     C21661   8.508   3.567  12.245 -0.2880  0.2271 -0.5377
  902MOL0     C21662   8.630   3.557  12.321 -0.0256 -0.2209  0.5799
  902MOL0     C21663   8.616   3.576  12.474  0.2345 -0.4211 -0.1202
  902MOL0     C21664   8.756   3.536  12.251  0.3813 -0.2076 -0.7456
  902MOL0     C21665   8.890   3.515  12.321 -0.7096  0.1978  0.9840
  902MOL0     O21666   8.977   3.426  12.249 -1.0556 -0.1247 -0.1472
  902MOL0     C21667   9.105   3.417  12.301  0.4464  0.2173 -0.3231
  902MOL0     C21668   9.156   3.287  12.338  0.1949  1.0190  0.4288
  902MOL0     C21669   9.294   3.277  12.381  0.4966  0.4302  0.9580
  902MOL0     C21670   9.375   3.388  12.368 -0.4900  0.9475  1.5168
  902MOL0     O21671   9.516   3.382  12.392  0.5661 -0.5302 -0.2035
  902MOL0     C21672   9.563   3.253  12.434 -0.4672 -0.4602 -0.4464
  902MOL0     C21673   9.716   3.267  12.444 -0.2691 -0.5503  0.8501
  902MOL0     C21674   9.785   3.294  12.312 -0.2730  0.8227  0.0745
  902MOL0     C21675   9.936   3.311  12.333  0.6175 -0.6726  0.3991
  902MOL0     C21676   9.962   3.461  12.346 -0.3720  1.1227  0.4713
  902MOL0     C21677  10.116   3.493  12.327  0.4979  0.3364  0.2404
  902MOL0     C21678  10.153   3.635  12.367  0.6399  0.2127 -0.2299
  902MOL0     C21679  10.295   3.641  12.374 -0.5826  0.7668 -0.6910
  902MOL0    Cl21680  10.351   3.805  12.365 -0.3146 -0.2829 -0.3277
  902MOL0     C21681   9.323   3.513  12.331  0.5704  0.3924 -0.8377
  902MOL0     C21682   9.181   3.530  12.305 -1.3682 -1.0021  0.2387
  902MOL0     O21683   8.914   3.552  12.435  0.0153  0.4493 -0.3689
  902MOL0     C21684   8.747   3.509  12.110  0.5185 -0.4728  0.1916
  902MOL0     C21685   8.620   3.511  12.047 -0.0457 -0.2158  1.1060
  902MOL0     N21686   7.805   3.574  11.955 -0.5856 -0.4394 -0.2035
  902MOL0     N21687   7.754   3.580  11.841  0.7797  0.5989 -0.7049
  902MOL0     C21688   8.573   3.437  10.926 -0.5682  0.5902 -0.8488
  902MOL0     C21689   8.616   3.340  10.832 -0.0993  0.2811 -1.0680
  902MOL0     C21690   8.850   2.975  10.672 -0.0842 -0.3741 -0.6159
  902MOL0     C21691   8.984   2.941  10.648  0.3607 -0.1091 -0.8757
  902MOL0     C21692   9.021   2.856  10.547 -1.0560 -0.7486 -0.4333
  902MOL0     C21693   8.914   2.798  10.470  0.0604 -0.2263 -0.5692
  902MOL0     O21694   8.933   2.706  10.367 -0.0428 -0.0733  0.3343
  902MOL0     C21695   9.075   2.658  10.338 -0.5684  0.0484 -0.4205
  902MOL0     C21696   9.071   2.578  10.210  0.9593 -0.5173  0.3546
  902MOL0     C21697   9.007   2.662  10.097  0.2190  1.2540 -0.0290
  902MOL0     C21698   9.017   2.577   9.965 -0.4120 -0.2909 -0.0112
  902MOL0     C21699   9.157   2.568   9.932 -0.4537  0.3428  0.3947
  902MOL0     C21700   9.267   2.546   9.890 -0.3152  0.3768  0.1768
  902MOL0     C21701   8.792   2.827  10.492  0.2369  0.1678 -0.1856
  902MOL0     C21702   8.753   2.909  10.592  0.6933  0.7425  1.1157
  902MOL0     H21703   8.683   3.089  11.046 -0.5474  0.5922  3.6225
  902MOL0     H21704   8.596   3.240  11.208 -0.9225 -0.3615  0.6135
  902MOL0     H21705   8.334   3.488  11.120 -1.3563  1.3786  0.7686
  902MOL0     H21706   8.395   3.412  11.277  1.7571  0.3772  0.5051
  902MOL0     H21707   8.439   3.666  11.340  1.6390  0.2226  0.2974
  902MOL0     H21708   8.349   3.697  11.189 -1.6489  0.5162  1.2214
  902MOL0     H21709   8.164   3.541  11.287  0.8848 -1.7430  0.1340
  902MOL0     H21710   8.259   3.560  11.440  0.7878  0.4288  0.2634
  902MOL0     H21711   8.208   3.783  11.465 -0.1501 -1.9800  1.7867
  902MOL0     H21712   8.177   3.811  11.291 -0.1200  0.3884 -0.2513
  902MOL0     H21713   7.985   3.832  11.441 -0.3597 -0.6790  0.5009
  902MOL0     H21714   7.970   3.702  11.310  0.7265  2.0660 -1.3445
  902MOL0     H21715   8.033   3.542  11.505 -1.6870 -0.6180 -4.7308
  902MOL0     H21716   8.012   3.667  11.619 -2.8030 -0.9047  1.4670
  902MOL0     H21717   7.768   3.606  11.436 -1.0694 -1.5553  0.3654
  902MOL0     H21718   7.835   3.496  11.560 -0.1285 -0.2747 -1.7161
  902MOL0     H21719   7.656   3.693  11.627 -0.5712  0.1157  5.5283
  902MOL0     H21720   7.806   3.794  11.597 -3.5463  1.9579  0.9243
  902MOL0     H21721   7.991   3.805  11.822  0.2594  1.2751 -0.1264
  902MOL0     H21722   8.027   3.815  12.069  1.0661 -0.2333  0.9116
  902MOL0     H21723   7.952   3.705  12.166  0.2675  3.5936 -0.4270
  902MOL0     H21724   8.125   3.527  12.043 -2.3894 -0.3545  0.6967
  902MOL0     H21725   8.185   3.636  12.163  2.3639 -1.6327 -1.2522
  902MOL0     H21726   8.261   3.801  12.002 -2.4929 -0.3345  2.2491
  902MOL0     H21727   8.190   3.717  11.864 -1.0862 -0.1044  1.5309
  902MOL0     H21728   8.444   3.667  11.916  3.6444 -2.9129  0.4781
  902MOL0     H21729   8.323   3.542  11.869 -0.5473  0.1884  0.8136
  902MOL0     H21730   8.407   3.571  12.283 -1.4766 -1.6196 -3.2247
  902MOL0     H21731   8.511   3.576  12.505  0.2952  0.5017  0.1385
  902MOL0     H21732   8.684   3.514  12.533  0.4389  0.1324  0.2304
  902MOL0     H21733   8.649   3.679  12.491 -0.4279 -0.4185  1.3944
  902MOL0     H21734   9.096   3.198  12.324 -1.5293  2.0910  0.7264
  902MOL0     H21735   9.328   3.180  12.415  2.9246  1.3809  1.4912
  902MOL0     H21736   9.526   3.214  12.530  0.7902  0.1188  0.2915
  902MOL0     H21737   9.530   3.187  12.353 -3.9353  1.5647 -0.8832
  902MOL0     H21738   9.757   3.340  12.514 -2.0524  0.3920  0.9624
  902MOL0     H21739   9.758   3.170  12.473  2.2357  0.1066 -0.2947
  902MOL0     H21740   9.728   3.382  12.283 -0.8477  0.6351  0.5910
  902MOL0     H21741   9.762   3.217  12.237  2.8803  0.9721 -1.2203
  902MOL0     H21742   9.973   3.250  12.416 -0.5504 -2.5780 -0.4293
  902MOL0     H21743   9.990   3.267  12.248  2.6632  1.9674  0.1950
  902MOL0     H21744   9.914   3.505  12.434 -0.1925 -0.0784  1.1875
  902MOL0     H21745   9.918   3.500  12.254  0.6097 -0.4904 -0.7344
  902MOL0     H21746  10.170   3.415  12.381 -0.9489 -1.0969 -0.3064
  902MOL0     H21747  10.132   3.483  12.220 -0.9830  0.8486 -0.0532
  902MOL0     H21748  10.129   3.676  12.466  2.8143  1.1739 -0.0352
  902MOL0     H21749  10.116   3.701  12.287 -2.4470 -1.7400 -0.5738
  902MOL0     H21750  10.347   3.586  12.296 -1.3299  0.5502 -1.0516
  902MOL0     H21751  10.324   3.602  12.472 -1.6222  2.0944  0.1797
  902MOL0     H21752   9.393   3.597  12.325  2.4194 -0.9303  0.9562
  902MOL0     H21753   9.154   3.630  12.275  2.0182  0.1118  0.5670
  902MOL0     H21754   8.842   3.497  12.060  1.4639 -2.8661  2.3513
  902MOL0     H21755   8.615   3.492  11.940 -1.4858 -0.2585  1.1622
  902MOL0     H21756   8.551   3.536  10.888  1.3172  0.8234 -1.4509
  902MOL0     H21757   8.624   3.362  10.726 -0.9770  2.6196 -0.7156
  902MOL0     H21758   9.058   2.990  10.711  1.0225 -0.4628 -1.3560
  902MOL0     H21759   9.123   2.819  10.542 -0.6502  0.3518 -0.5287
  902MOL0     H21760   9.154   2.733  10.332 -0.0448 -0.5566 -1.2602
  902MOL0     H21761   9.100   2.613  10.435  0.6987  2.0568  0.2443
  902MOL0     H21762   9.006   2.490  10.222 -0.1297  0.1674 -0.3356
  902MOL0     H21763   9.174   2.545  10.194  0.6741 -0.1211 -3.1383
  902MOL0     H21764   9.045   2.764  10.087 -1.5337  2.0719  1.3603
  902MOL0     H21765   8.902   2.679  10.121  0.3269  1.8029  0.0522
  902MOL0     H21766   8.971   2.639   9.887  1.0376  2.9208  1.4991
  902MOL0     H21767   8.975   2.477   9.978  2.0845 -1.1330  2.7625
  902MOL0     H21768   9.364   2.524   9.848 -1.1340  1.3460 -2.4277
  902MOL0     H21769   8.713   2.797  10.423  1.5382  1.3363 -2.3033
  902MOL0     H21770   8.647   2.906  10.616  1.2346  1.1166  3.7785
  903MOL0     O21771   6.751   6.704   8.059  0.3222 -0.1024 -0.4467
  903MOL0     C21772   6.628   6.705   8.069 -0.7185 -0.4150  0.2586
  903MOL0     O21773   6.546   6.808   8.028  0.5941  0.3147  0.0753
  903MOL0     C21774   6.603   6.932   8.012  0.3919  0.9918  0.2675
  903MOL0     C21775   6.653   6.965   7.885 -0.1769 -0.5318 -0.1868
  903MOL0     C21776   6.724   7.084   7.879 -0.3110 -0.7933  1.3381
  903MOL0     C21777   6.747   7.172   7.985  0.0087  0.1299  1.0615
  903MOL0     O21778   6.823   7.284   7.950  0.7677  0.2799  0.4143
  903MOL0     C21779   6.924   7.338   8.042  0.8428  0.3641  0.5782
  903MOL0     C21780   7.028   7.399   7.943 -0.6025 -0.2676  0.0761
  903MOL0     C21781   6.960   7.494   7.856 -0.3592 -0.3684  0.3195
  903MOL0     C21782   7.050   7.610   7.817  0.0458 -0.0212 -0.3100
  903MOL0     C21783   6.992   7.716   7.725 -0.5515 -0.2854  0.9182
  903MOL0     C21784   7.024   7.673   7.574 -0.2593  1.0612  0.4397
  903MOL0     C21785   6.927   7.735   7.478  0.2915  0.3985  1.0921
  903MOL0     C21786   6.930   7.675   7.335 -0.3031  1.1620  0.4499
  903MOL0     N21787   7.005   7.752   7.235 -0.0939  1.1098 -0.8785
  903MOL0     C21788   6.971   7.786   7.107  0.2636  0.1444  0.3639
  903MOL0     C21789   7.080   7.849   7.049 -0.3318  0.2141 -0.8474
  903MOL0     C21790   7.109   7.904   6.915 -0.2727  0.4458 -0.0946
  903MOL0     C21791   7.018   8.026   6.873 -0.2592  0.2016 -0.4256
  903MOL0     C21792   7.015   8.026   6.716 -0.4390 -0.6143 -0.6263
  903MOL0     C21793   6.948   8.151   6.664 -0.6742  0.4517  0.0056
  903MOL0     O21794   6.935   8.123   6.526  1.5929  0.2855 -0.4562
  903MOL0     C21795   6.906   8.231   6.442 -0.1782  0.2370  0.0399
  903MOL0     C21796   6.866   8.189   6.313  0.5979  0.0212  0.3397
  903MOL0     C21797   6.831   8.289   6.220 -0.6759  0.4307  0.2732
  903MOL0     C21798   6.802   8.238   6.071 -0.0385 -1.3335 -0.5893
  903MOL0     C21799   6.825   8.430   6.251  1.1356  0.1672 -0.6226
  903MOL0     C21800   6.736   8.520   6.176 -0.1642  0.0167 -0.8833
  903MOL0     O21801   6.808   8.575   6.072  0.4504  0.0643  0.7653
  903MOL0     C21802   6.758   8.690   6.010 -0.9560 -0.3211 -0.0182
  903MOL0     C21803   6.795   8.715   5.879 -0.0446  0.4087 -0.8356
  903MOL0     C21804   6.763   8.838   5.815  0.4171 -0.0654 -0.3750
  903MOL0     C21805   6.686   8.938   5.881  0.9014  0.5065  0.8197
  903MOL0     O21806   6.660   9.065   5.836  0.1894  0.3050 -0.8190
  903MOL0     C21807   6.696   9.096   5.700  0.2809 -0.1074  0.2393
  903MOL0     C21808   6.667   9.247   5.682  0.1405 -0.5700  0.8048
  903MOL0     C21809   6.530   9.292   5.659  0.7437 -0.3971  0.2839
  903MOL0     C21810   6.498   9.434   5.706  0.0986 -1.1364  0.1563
  903MOL0     C21811   6.364   9.472   5.643 -0.4231 -0.2580  0.2830
  903MOL0     C21812   6.324   9.613   5.694  0.3246 -0.1230  0.6941
  903MOL0     C21813   6.426   9.732   5.681 -0.7901  0.1526 -0.5616
  903MOL0     C21814   6.438   9.760   5.529 -0.2830  0.9001 -0.0075
  903MOL0    Cl21815   6.551   9.897   5.499 -0.1964  0.3866 -0.4835
  903MOL0     C21816   6.655   8.913   6.013  0.1639  0.2832  0.4938
  903MOL0     C21817   6.686   8.793   6.080  1.3598  0.1564  0.1007
  903MOL0     O21818   6.629   8.548   6.227  0.2413 -0.6987  0.3345
  903MOL0     C21819   6.880   8.462   6.381  0.3526 -0.7709 -0.1548
  903MOL0     C21820   6.928   8.366   6.469 -0.6157 -0.1493 -1.0523
  903MOL0     N21821   7.170   7.858   7.152  0.5962  0.2673  0.0432
  903MOL0     N21822   7.123   7.807   7.254  0.2651  0.4538  0.6685
  903MOL0     C21823   6.700   7.134   8.118 -0.0821  0.8617 -0.2285
  903MOL0     C21824   6.627   7.013   8.126 -0.0668 -0.2509 -0.2149
  903MOL0     C21825   6.565   6.594   8.143 -0.1560 -0.5228  0.1535
  903MOL0     C21826   6.440   6.556   8.105  0.3223  0.3703  0.1215
  903MOL0     C21827   6.374   6.462   8.178  0.0444 -0.4408 -0.3044
  903MOL0     C21828   6.427   6.394   8.290 -0.0164 -0.0703  0.2661
  903MOL0     O21829   6.366   6.298   8.359  0.5888 -0.1961  0.0111
  903MOL0     C21830   6.235   6.241   8.324  0.6570  0.6234 -0.3747
  903MOL0     C21831   6.198   6.122   8.424 -0.0776  0.4012  0.9512
  903MOL0     C21832   6.193   6.162   8.575  0.7796 -0.4184  0.1947
  903MOL0     C21833   6.119   6.056   8.658  0.6487 -0.6500  0.2762
  903MOL0     C21834   6.170   5.926   8.638  1.8259 -0.1338 -0.5678
  903MOL0     C21835   6.203   5.812   8.635  0.3855 -0.4259  0.1315
  903MOL0     C21836   6.557   6.422   8.322 -0.0397  0.0396  0.2028
  903MOL0     C21837   6.625   6.526   8.246 -0.5455  0.2264  0.0534
  903MOL0     H21838   6.642   6.890   7.808 -3.6670 -0.4241  0.0627
  903MOL0     H21839   6.768   7.123   7.788 -3.0878  2.1293  1.0363
  903MOL0     H21840   6.881   7.420   8.100 -0.4416  3.7200 -4.3796
  903MOL0     H21841   6.983   7.262   8.095  0.7599  0.7776  1.2623
  903MOL0     H21842   7.116   7.444   7.990 -0.6047  0.9042 -1.0102
  903MOL0     H21843   7.075   7.314   7.893  1.7187 -0.9702  3.1369
  903MOL0     H21844   6.916   7.443   7.770 -0.0778 -0.6262  0.3266
  903MOL0     H21845   6.868   7.528   7.904 -0.8377 -1.9445  0.5976
  903MOL0     H21846   7.071   7.665   7.909 -1.3051 -0.6808  0.4283
  903MOL0     H21847   7.149   7.588   7.778  0.7151 -0.7463  1.6435
  903MOL0     H21848   6.886   7.727   7.750 -0.3788 -1.4681  2.3328
  903MOL0     H21849   7.054   7.806   7.737  2.1402 -1.3200 -3.0895
  903MOL0     H21850   7.130   7.692   7.552  0.6379 -3.8468 -0.6670
  903MOL0     H21851   7.021   7.564   7.561  0.7524  0.5235  3.6673
  903MOL0     H21852   6.832   7.724   7.531 -0.1633  0.0414  0.2250
  903MOL0     H21853   6.951   7.841   7.474  0.6313  0.2929 -1.9945
  903MOL0     H21854   6.830   7.659   7.293  1.1848  0.9909 -3.5231
  903MOL0     H21855   6.981   7.579   7.324  0.1857  1.5824 -1.5111
  903MOL0     H21856   6.873   7.775   7.062  0.3093 -2.5181  0.7740
  903MOL0     H21857   7.216   7.918   6.899  0.4629 -0.9319  2.8317
  903MOL0     H21858   7.075   7.824   6.848  0.8255 -0.2285  0.1218
  903MOL0     H21859   7.051   8.122   6.912  2.6327 -0.4619 -0.9750
  903MOL0     H21860   6.915   8.011   6.908 -1.0106 -2.5516 -3.2757
  903MOL0     H21861   6.953   7.941   6.686 -0.4310 -0.3477 -1.4036
  903MOL0     H21862   7.116   8.004   6.678 -0.1919 -5.0932  1.9039
  903MOL0     H21863   7.011   8.240   6.675  0.0311  0.0478 -0.5942
  903MOL0     H21864   6.852   8.172   6.712  0.1147  0.3605  1.7139
  903MOL0     H21865   6.862   8.082   6.295  0.4515  0.3531 -1.7587
  903MOL0     H21866   6.697   8.208   6.061 -0.0071 -0.9767 -2.2078
  903MOL0     H21867   6.820   8.319   5.999  1.8592  2.6225  3.7587
  903MOL0     H21868   6.861   8.151   6.043  0.7705 -0.0243 -3.3474
  903MOL0     H21869   6.857   8.644   5.824  1.3155 -0.5444  1.7716
  903MOL0     H21870   6.816   8.856   5.723  0.6843  1.5176  0.0648
  903MOL0     H21871   6.801   9.087   5.670 -0.8460 -2.5930 -3.7837
  903MOL0     H21872   6.628   9.044   5.633 -3.2734  2.6338  1.4256
  903MOL0     H21873   6.712   9.296   5.769 -0.4012 -1.1317  1.4099
  903MOL0     H21874   6.715   9.287   5.592 -0.2318 -0.0535  0.8245
  903MOL0     H21875   6.464   9.226   5.717 -0.2257  0.4739  0.2031
  903MOL0     H21876   6.499   9.279   5.555  0.4304  0.4643  0.2643
  903MOL0     H21877   6.481   9.455   5.812  2.0690  1.5176  0.0405
  903MOL0     H21878   6.578   9.500   5.673 -0.1665 -0.5767  0.6068
  903MOL0     H21879   6.285   9.402   5.673  1.2111 -1.4953  2.0145
  903MOL0     H21880   6.374   9.465   5.535 -0.9110 -0.1294  0.2279
  903MOL0     H21881   6.240   9.636   5.628  1.3500 -0.1582 -0.6601
  903MOL0     H21882   6.285   9.611   5.797  2.4270  0.6154  1.5559
  903MOL0     H21883   6.524   9.700   5.716 -0.2070 -0.7999 -2.8686
  903MOL0     H21884   6.390   9.825   5.726 -0.4630 -0.2492  0.5674
  903MOL0     H21885   6.342   9.802   5.497 -1.2550 -1.1631  0.0833
  903MOL0     H21886   6.452   9.664   5.479 -0.2664 -0.1782  1.9833
  903MOL0     H21887   6.588   8.980   6.066 -0.3291 -0.4996  0.8722
  903MOL0     H21888   6.682   8.786   6.188  2.0769  0.9952  0.1963
  903MOL0     H21889   6.877   8.564   6.418 -1.7435 -1.8416  2.9668
  903MOL0     H21890   6.986   8.392   6.556 -0.4659  0.6970 -1.3968
  903MOL0     H21891   6.698   7.200   8.204  0.8586  0.9828 -0.2880
  903MOL0     H21892   6.595   6.985   8.226 -0.0940  0.0775 -0.1308
  903MOL0     H21893   6.388   6.604   8.023 -3.1268 -3.9927 -0.6008
  903MOL0     H21894   6.270   6.447   8.152  0.9194 -2.4605 -3.1269
  903MOL0     H21895   6.165   6.325   8.320  1.8851  1.7262  0.4307
  903MOL0     H21896   6.234   6.202   8.222 -1.9088  0.3638 -0.3030
  903MOL0     H21897   6.278   6.049   8.409 -2.8410 -2.9219  1.4447
  903MOL0     H21898   6.104   6.080   8.389  0.4828  0.8281 -1.2655
  903MOL0     H21899   6.156   6.265   8.586 -0.2246 -0.8058  0.5437
  903MOL0     H21900   6.294   6.158   8.617 -0.4759 -1.0766  3.5162
  903MOL0     H21901   6.018   6.057   8.615  1.3331  2.8012 -1.7258
  903MOL0     H21902   6.127   6.072   8.765 -0.0668 -0.8939  0.3741
  903MOL0     H21903   6.226   5.709   8.653  0.2152 -0.3521  0.7702
  903MOL0     H21904   6.594   6.373   8.412  0.6663 -0.4342 -0.3309
  903MOL0     H21905   6.715   6.569   8.287 -2.2525  3.4978  0.6755
  904MOL0     O21906   5.539   1.137   3.812 -0.5753  0.0678 -0.5532
  904MOL0     C21907   5.535   1.177   3.693 -0.3077 -0.3769  1.1789
  904MOL0     O21908   5.567   1.303   3.647  0.1086  0.5004 -0.1649
  904MOL0     C21909   5.621   1.406   3.728  0.7654  0.9621  0.1979
  904MOL0     C21910   5.708   1.386   3.835  0.3299 -1.0978  0.4787
  904MOL0     C21911   5.744   1.496   3.918  0.2069  0.5566 -0.0649
  904MOL0     C21912   5.690   1.625   3.886  0.0420 -0.2757  0.2582
  904MOL0     O21913   5.723   1.739   3.958  0.4270  0.3419  0.0725
  904MOL0     C21914   5.788   1.731   4.091  0.4524  0.6286  0.2317
  904MOL0     C21915   5.817   1.880   4.118 -0.0091  0.1984 -0.2854
  904MOL0     C21916   5.942   1.881   4.210 -0.2469 -0.6790 -0.2342
  904MOL0     C21917   5.959   2.013   4.278  0.3030 -0.3058  0.3344
  904MOL0     C21918   6.094   2.047   4.349 -0.0156 -0.1897  0.1493
  904MOL0     C21919   6.142   1.938   4.442 -0.9377  0.2482 -0.5552
  904MOL0     C21920   6.218   1.984   4.563  0.4627  0.3106  0.8213
  904MOL0     C21921   6.356   2.024   4.531 -0.4807  1.3048  0.1357
  904MOL0     N21922   6.398   2.128   4.625 -0.0303  0.0154  0.3063
  904MOL0     C21923   6.416   2.259   4.600 -0.7399  0.5633 -0.0781
  904MOL0     C21924   6.505   2.309   4.691  0.4963  1.4693  0.9776
  904MOL0     C21925   6.535   2.452   4.710 -1.1932 -0.4668 -0.8926
  904MOL0     C21926   6.683   2.480   4.747  0.3458 -1.0582  0.6461
  904MOL0     C21927   6.694   2.627   4.782  0.0280  0.0441  0.0882
  904MOL0     C21928   6.725   2.721   4.669  0.4625  0.8040 -1.2965
  904MOL0     O21929   6.858   2.695   4.629 -0.4480  0.0788 -0.0957
  904MOL0     C21930   6.890   2.788   4.538 -0.6240 -0.7808 -0.6607
  904MOL0     C21931   7.008   2.865   4.565  0.7240 -0.8449 -0.3699
  904MOL0     C21932   7.059   2.960   4.476 -0.3933  0.6435 -1.1473
  904MOL0     C21933   7.174   3.053   4.523 -0.1973  0.1593 -0.5310
  904MOL0     C21934   6.990   2.978   4.353 -0.1681  0.1837 -1.1312
  904MOL0     C21935   7.048   3.058   4.243 -0.4935 -0.6739 -0.3139
  904MOL0     O21936   6.964   3.061   4.125 -0.0589 -0.6805 -0.4338
  904MOL0     C21937   6.981   3.145   4.020  0.2993  0.2018  0.0568
  904MOL0     C21938   7.070   3.241   4.001 -0.3301  0.3245  1.0414
  904MOL0     C21939   7.053   3.337   3.910 -1.0266  0.7067  0.5929
  904MOL0     C21940   6.947   3.334   3.826  0.9774  0.6587  1.0363
  904MOL0     O21941   6.946   3.417   3.718  0.7328 -0.0669 -0.3175
  904MOL0     C21942   6.933   3.558   3.758 -0.7631 -0.6525 -0.2525
  904MOL0     C21943   6.899   3.645   3.638  0.2476 -0.3052  0.5201
  904MOL0     C21944   6.802   3.604   3.533  1.0335 -0.6323 -0.0752
  904MOL0     C21945   6.758   3.719   3.450 -0.0893 -0.7033  0.4109
  904MOL0     C21946   6.655   3.671   3.350  0.5037  1.2188  0.0575
  904MOL0     C21947   6.717   3.580   3.239  0.6030 -0.1053 -0.9495
  904MOL0     C21948   6.646   3.585   3.100 -0.2255  0.4200  0.7669
  904MOL0     C21949   6.699   3.461   3.028  0.4740  0.0472 -0.1986
  904MOL0    Cl21950   6.635   3.306   3.101 -0.0101  0.6630  0.3216
  904MOL0     C21951   6.863   3.223   3.831 -0.4812 -0.8485  0.7445
  904MOL0     C21952   6.879   3.128   3.927 -0.7606  0.9472  0.7209
  904MOL0     O21953   7.169   3.094   4.239 -0.2561  0.5785 -0.1445
  904MOL0     C21954   6.877   2.902   4.325  0.0879 -0.8544 -0.3270
  904MOL0     C21955   6.826   2.803   4.411 -0.7048 -0.3300  0.6179
  904MOL0     N21956   6.526   2.201   4.774 -0.1496  0.0832 -0.1152
  904MOL0     N21957   6.446   2.103   4.748  0.2266  0.5214  0.4765
  904MOL0     C21958   5.612   1.639   3.767  0.0814  0.9820 -0.6783
  904MOL0     C21959   5.583   1.525   3.690  0.8816  0.0645  0.3620
  904MOL0     C21960   5.462   1.094   3.598  0.0836  0.2367 -0.2562
  904MOL0     C21961   5.448   1.134   3.455 -0.3969 -0.2664  0.2448
  904MOL0     C21962   5.395   1.043   3.370 -0.8648 -0.1455  0.4003
  904MOL0     C21963   5.343   0.922   3.405  0.0589 -0.0260  0.5044
  904MOL0     O21964   5.304   0.841   3.297  0.6316 -0.0006 -0.6376
  904MOL0     C21965   5.253   0.715   3.318 -0.0987  0.3165  0.5086
  904MOL0     C21966   5.292   0.637   3.193 -0.1095 -0.9058 -0.3934
  904MOL0     C21967   5.253   0.491   3.221 -0.3842 -0.2226  0.6384
  904MOL0     C21968   5.334   0.398   3.130 -0.0733  0.3289 -0.3967
  904MOL0     C21969   5.322   0.260   3.166  0.5923  0.5629 -0.4219
  904MOL0     C21970   5.315   0.144   3.202 -0.1956  0.2833 -0.1932
  904MOL0     C21971   5.335   0.894   3.544 -0.3601  0.0686  0.3475
  904MOL0     C21972   5.395   0.976   3.641  0.7074  0.2889 -0.1676
  904MOL0     H21973   5.749   1.289   3.858  4.0097  0.3426  0.7592
  904MOL0     H21974   5.798   1.474   4.009 -1.2639  0.1310  0.7250
  904MOL0     H21975   5.712   1.689   4.157  0.6652  0.1946  0.2044
  904MOL0     H21976   5.876   1.666   4.083  0.0367  0.1219 -0.3067
  904MOL0     H21977   5.846   1.931   4.026  0.8138 -1.7720 -1.1925
  904MOL0     H21978   5.730   1.933   4.158 -2.6445 -3.3291 -0.8768
  904MOL0     H21979   5.931   1.796   4.278  0.3836  1.8336  3.3183
  904MOL0     H21980   6.034   1.854   4.158 -0.6023 -0.6144 -0.9046
  904MOL0     H21981   5.939   2.097   4.211 -2.7053  1.0629  2.6632
  904MOL0     H21982   5.876   2.012   4.350 -2.5400  2.8742 -2.5111
  904MOL0     H21983   6.171   2.064   4.273 -1.2832 -0.7762 -1.3192
  904MOL0     H21984   6.073   2.142   4.400 -1.3678 -0.6103  0.4344
  904MOL0     H21985   6.060   1.882   4.489  0.0024  1.0269  2.2275
  904MOL0     H21986   6.206   1.870   4.384  0.8453  0.3791  1.1342
  904MOL0     H21987   6.168   2.073   4.602  1.0850  0.5665  1.0348
  904MOL0     H21988   6.214   1.909   4.643 -0.3531  0.0082  0.5074
  904MOL0     H21989   6.367   2.077   4.436 -0.6394  1.7462  0.3605
  904MOL0     H21990   6.423   1.938   4.526 -2.6251 -0.5428  1.4587
  904MOL0     H21991   6.372   2.317   4.519 -0.1858  2.0303  0.6214
  904MOL0     H21992   6.502   2.512   4.624 -2.0741  0.2880 -0.0480
  904MOL0     H21993   6.470   2.487   4.790  2.3200  2.0620  1.1619
  904MOL0     H21994   6.747   2.449   4.664  1.7219  1.1419  0.8056
  904MOL0     H21995   6.692   2.415   4.834 -2.7934 -0.1869  1.7557
  904MOL0     H21996   6.784   2.640   4.843  0.8111  0.3389 -1.0976
  904MOL0     H21997   6.608   2.663   4.840  0.9212  2.3602  0.0796
  904MOL0     H21998   6.715   2.822   4.707 -0.2656  1.0885 -2.1988
  904MOL0     H21999   6.639   2.706   4.603 -1.2128  0.5385  0.8413
  904MOL0     H22000   7.062   2.853   4.658 -1.3712 -0.5367  0.9456
  904MOL0     H22001   7.267   3.016   4.480  0.5593  1.7028 -0.2788
  904MOL0     H22002   7.176   3.158   4.494  0.2413  0.4843  0.6287
  904MOL0     H22003   7.180   3.054   4.632 -2.5827  1.7417 -0.3493
  904MOL0     H22004   7.152   3.235   4.071  1.0076 -2.1353 -0.5938
  904MOL0     H22005   7.129   3.414   3.913  0.8536 -0.5620 -4.4400
  904MOL0     H22006   6.856   3.565   3.835 -2.3514  2.4020 -1.9261
  904MOL0     H22007   7.029   3.599   3.790  0.7166 -1.4376 -3.2333
  904MOL0     H22008   6.852   3.738   3.669 -0.7376  0.7101 -3.3706
  904MOL0     H22009   6.993   3.672   3.590  0.7787  2.3021  2.8142
  904MOL0     H22010   6.717   3.551   3.577  1.9630 -1.6559  0.5206
  904MOL0     H22011   6.837   3.536   3.454 -0.2834  2.4915 -3.7050
  904MOL0     H22012   6.721   3.800   3.514 -1.0796 -1.9899  1.5263
  904MOL0     H22013   6.842   3.773   3.406 -0.9223 -0.8375 -1.4319
  904MOL0     H22014   6.623   3.762   3.300  1.0252  1.5840  0.3710
  904MOL0     H22015   6.564   3.627   3.392  0.3054  2.2424  0.7541
  904MOL0     H22016   6.820   3.615   3.223  2.4793 -4.6344 -0.4520
  904MOL0     H22017   6.725   3.474   3.262  0.5762  0.2081  0.6189
  904MOL0     H22018   6.672   3.675   3.043 -1.2611  0.5965  0.5522
  904MOL0     H22019   6.538   3.576   3.083 -0.2973  3.7373 -1.6457
  904MOL0     H22020   6.809   3.461   3.022  0.5481 -2.9495 -0.8412
  904MOL0     H22021   6.665   3.464   2.924 -3.0420 -0.5852  0.8028
  904MOL0     H22022   6.787   3.214   3.754  0.5919  2.8351 -0.9938
  904MOL0     H22023   6.801   3.053   3.932 -1.4096  1.4659 -0.9296
  904MOL0     H22024   6.822   2.920   4.233  0.4798 -0.6308 -0.5213
  904MOL0     H22025   6.745   2.747   4.366 -0.1057  1.1216 -2.5459
  904MOL0     H22026   5.590   1.729   3.711 -0.1876  0.6634 -1.0862
  904MOL0     H22027   5.526   1.542   3.599  2.8621  0.3842 -0.8812
  904MOL0     H22028   5.482   1.232   3.423 -0.5697 -0.5008 -0.6936
  904MOL0     H22029   5.386   1.053   3.263  0.6793 -1.6837  0.0800
  904MOL0     H22030   5.281   0.677   3.417 -2.2562  3.3662  2.4549
  904MOL0     H22031   5.145   0.725   3.320 -0.2481 -0.8165 -0.5591
  904MOL0     H22032   5.399   0.655   3.175 -0.4859  1.8546 -0.2324
  904MOL0     H22033   5.234   0.679   3.110  0.9798 -0.1121 -0.7813
  904MOL0     H22034   5.148   0.467   3.205 -0.1596 -0.1707 -1.0705
  904MOL0     H22035   5.279   0.469   3.325 -2.6161  0.3313  1.3705
  904MOL0     H22036   5.439   0.429   3.116  0.0216  0.2331  0.0993
  904MOL0     H22037   5.301   0.410   3.026  0.8489 -0.3111 -0.7783
  904MOL0     H22038   5.303   0.046   3.242 -0.7110  1.1562  1.9448
  904MOL0     H22039   5.305   0.799   3.587 -0.7063  0.8592  1.9472
  904MOL0     H22040   5.398   0.952   3.747 -0.3886 -1.1620 -0.4300
  905MOL0     O22041   4.373  10.570   8.071 -0.0648  0.8379  1.0183
  905MOL0     C22042   4.394  10.619   8.184  0.6725  0.3543  0.0410
  905MOL0     O22043   4.411  10.752   8.212 -0.2761  0.2284  0.6171
  905MOL0     C22044   4.409  10.852   8.120  0.3806 -0.2181  0.1178
  905MOL0     C22045   4.423  10.838   7.983 -0.3725 -0.2829 -0.6228
  905MOL0     C22046   4.439  10.954   7.904 -0.0234 -0.5530  1.3993
  905MOL0     C22047   4.409  11.083   7.958  0.0073  0.1322 -0.1458
  905MOL0     O22048   4.422  11.191   7.869 -0.0186  0.2609 -0.0187
  905MOL0     C22049   4.337  11.303   7.885 -0.0417 -0.3789 -0.8320
  905MOL0     C22050   4.210  11.304   7.798 -0.8057  0.8808 -0.2551
  905MOL0     C22051   4.250  11.317   7.644  0.4607 -0.3026 -0.8210
  905MOL0     C22052   4.288  11.463   7.612 -0.1355  1.0354 -0.5748
  905MOL0     C22053   4.320  11.496   7.470  0.5926 -0.6474  0.1093
  905MOL0     C22054   4.381  11.635   7.455 -0.1660 -0.6578 -0.8981
  905MOL0     C22055   4.433  11.666   7.317  0.6695 -0.4753  0.3251
  905MOL0     C22056   4.324  11.696   7.213 -0.5083 -0.9570  0.5842
  905MOL0     N22057   4.270  11.831   7.214 -0.0766  0.6153  0.2916
  905MOL0     C22058   4.183  11.875   7.309 -0.2841 -0.0024 -0.7656
  905MOL0     C22059   4.113  11.969   7.241  0.2789 -0.2705 -0.5119
  905MOL0     C22060   3.988  12.034   7.285 -0.3081  0.8266 -0.2755
  905MOL0     C22061   3.887  11.951   7.367 -0.6979  0.8243  0.0603
  905MOL0     C22062   3.753  12.017   7.400  0.1966 -0.4491 -0.5178
  905MOL0     C22063   3.677  11.932   7.505  0.6553  1.5755  0.0061
  905MOL0     O22064   3.623  11.810   7.450 -1.1006 -0.1611 -0.5442
  905MOL0     C22065   3.610  11.709   7.542  0.7615  0.5250 -0.2737
  905MOL0     C22066   3.488  11.671   7.594  1.2682  0.3285  0.4874
  905MOL0     C22067   3.469  11.570   7.688 -0.3363  0.8476 -0.3743
  905MOL0     C22068   3.327  11.539   7.737 -0.5374  0.2311 -0.0534
  905MOL0     C22069   3.580  11.487   7.730 -0.2890 -0.3368  1.1773
  905MOL0     C22070   3.576  11.365   7.817  0.2471  0.3762 -0.1539
  905MOL0     O22071   3.685  11.291   7.807  0.4943 -0.1186 -0.1513
  905MOL0     C22072   3.698  11.163   7.864  0.4911 -0.0390  0.7641
  905MOL0     C22073   3.602  11.070   7.892 -1.2085 -0.7059 -0.4837
  905MOL0     C22074   3.641  10.943   7.946  0.7464 -1.4770  0.3109
  905MOL0     C22075   3.779  10.909   7.967  0.7401 -1.0611  0.0405
  905MOL0     O22076   3.812  10.784   8.016  0.4897  0.0282  0.1815
  905MOL0     C22077   3.955  10.741   8.013  0.6964 -0.5279  0.8976
  905MOL0     C22078   3.986  10.597   8.060  0.0530 -0.6730 -0.3459
  905MOL0     C22079   3.963  10.574   8.210  0.1514 -0.5955  1.0382
  905MOL0     C22080   3.988  10.431   8.248 -0.0237  0.5823 -1.1512
  905MOL0     C22081   3.944  10.407   8.393 -0.2575 -0.5659  0.4228
  905MOL0     C22082   4.032  10.310   8.481  1.4736  0.4240  0.6366
  905MOL0     C22083   4.069  10.342   8.622  0.1772  0.7225  0.8590
  905MOL0     C22084   4.077  10.212   8.709 -0.4488 -0.0568 -0.4623
  905MOL0    Cl22085   3.920  10.124   8.739 -0.4532  0.0512  0.2405
  905MOL0     C22086   3.873  11.002   7.925 -0.3073  0.2709  0.3727
  905MOL0     C22087   3.835  11.128   7.886 -0.2692  0.2311  0.5945
  905MOL0     O22088   3.487  11.349   7.898  1.1673 -0.6255  0.1976
  905MOL0     C22089   3.694  11.510   7.658 -1.0775 -0.2341 -0.3872
  905MOL0     C22090   3.713  11.627   7.573 -0.8439 -0.4924  0.1647
  905MOL0     N22091   4.155  11.982   7.112  0.0289 -0.1652  0.2326
  905MOL0     N22092   4.252  11.899   7.101 -0.4677 -0.5643 -0.4226
  905MOL0     C22093   4.367  11.097   8.093  0.0367  0.6696  0.2120
  905MOL0     C22094   4.381  10.978   8.172 -0.1913  0.2409 -0.2943
  905MOL0     C22095   4.413  10.528   8.298 -0.9164 -0.5873 -0.6687
  905MOL0     C22096   4.424  10.396   8.278 -0.3753 -0.8015 -0.6266
  905MOL0     C22097   4.432  10.313   8.397 -0.5540  0.0344  1.4854
  905MOL0     C22098   4.436  10.367   8.524  0.5746 -0.4388 -0.2340
  905MOL0     O22099   4.458  10.276   8.619 -0.1635 -0.7911 -0.1551
  905MOL0     C22100   4.517  10.321   8.746  0.8809  0.5594 -0.4585
  905MOL0     C22101   4.664  10.365   8.739  0.3035  0.2976 -0.7733
  905MOL0     C22102   4.733  10.347   8.877  0.2133 -0.5706 -0.0233
  905MOL0     C22103   4.646  10.392   8.996  0.3323 -0.4670 -0.5928
  905MOL0     C22104   4.743  10.445   9.098 -0.1731  0.6169  0.5431
  905MOL0     C22105   4.797  10.475   9.203 -0.2507  0.6997  0.0368
  905MOL0     C22106   4.423  10.508   8.545 -0.3312  0.4378 -0.2181
  905MOL0     C22107   4.413  10.587   8.429 -0.4375  0.0114  0.3290
  905MOL0     H22108   4.452  10.739   7.948 -2.0447 -1.5339  1.2913
  905MOL0     H22109   4.481  10.941   7.805  0.6158 -0.3160  1.6389
  905MOL0     H22110   4.297  11.321   7.985  0.1779 -4.0216  0.0643
  905MOL0     H22111   4.400  11.390   7.864  1.6844 -1.2990  0.2987
  905MOL0     H22112   4.162  11.206   7.803 -2.0101  1.3571 -1.6832
  905MOL0     H22113   4.131  11.372   7.830 -3.5829 -0.6893 -3.1423
  905MOL0     H22114   4.325  11.245   7.610  0.7891 -0.2029 -0.3029
  905MOL0     H22115   4.159  11.300   7.585 -0.0325 -0.0433 -0.1398
  905MOL0     H22116   4.209  11.524   7.658  1.0486  0.4830  2.4396
  905MOL0     H22117   4.382  11.495   7.659 -0.7880  3.6651 -0.9282
  905MOL0     H22118   4.397  11.429   7.430  0.8520  0.1707 -0.8061
  905MOL0     H22119   4.227  11.477   7.415  0.3869 -2.6977  1.0851
  905MOL0     H22120   4.332  11.712   7.515  1.7231 -0.9536  1.1606
  905MOL0     H22121   4.480  11.628   7.503 -0.3047 -1.0428 -0.6559
  905MOL0     H22122   4.508  11.745   7.328 -1.8160  1.6757  4.8736
  905MOL0     H22123   4.484  11.578   7.276 -0.2670  0.0632 -2.1568
  905MOL0     H22124   4.247  11.619   7.214 -0.7616 -0.7960 -1.7559
  905MOL0     H22125   4.385  11.683   7.123  0.1555 -6.4406  1.5035
  905MOL0     H22126   4.165  11.861   7.415  3.1949  0.3196 -0.0133
  905MOL0     H22127   4.033  12.113   7.346  0.2805 -0.3777  0.9218
  905MOL0     H22128   3.944  12.093   7.205  0.1232  0.4197 -0.8183
  905MOL0     H22129   3.934  11.925   7.463 -3.4135 -0.2380  1.1945
  905MOL0     H22130   3.877  11.848   7.330 -1.8595  1.0440 -0.2775
  905MOL0     H22131   3.702  12.034   7.305 -0.4202  0.0052 -0.1135
  905MOL0     H22132   3.773  12.121   7.425  1.1280 -0.8625  0.5546
  905MOL0     H22133   3.587  11.989   7.533 -1.6345 -1.7283  0.0170
  905MOL0     H22134   3.731  11.911   7.598 -3.1653  0.3056  2.1736
  905MOL0     H22135   3.402  11.730   7.565  1.7374  0.8977  0.2492
  905MOL0     H22136   3.299  11.439   7.704  1.2978  0.7330 -3.5477
  905MOL0     H22137   3.330  11.538   7.847 -1.3446  2.6745  0.0469
  905MOL0     H22138   3.248  11.605   7.702 -1.7169 -0.3038  1.4757
  905MOL0     H22139   3.501  11.085   7.856  0.0537  2.8401 -3.0712
  905MOL0     H22140   3.558  10.880   7.975 -1.6220  0.5981 -1.5468
  905MOL0     H22141   4.005  10.740   7.916 -1.6655 -2.2052 -0.4339
  905MOL0     H22142   4.007  10.811   8.077 -2.1685  2.8987 -0.1932
  905MOL0     H22143   3.925  10.535   7.995 -0.6982 -0.1938 -0.1056
  905MOL0     H22144   4.092  10.576   8.039 -0.6321 -2.1944 -2.5199
  905MOL0     H22145   3.864  10.608   8.243  1.1868 -0.8122  4.8236
  905MOL0     H22146   4.037  10.638   8.260  0.8345 -2.1737  2.1171
  905MOL0     H22147   3.943  10.349   8.189 -0.9176 -1.4521  2.0864
  905MOL0     H22148   4.097  10.426   8.252  0.0450  2.3452  0.3181
  905MOL0     H22149   3.838  10.385   8.408 -0.3148  1.4935  4.0692
  905MOL0     H22150   3.943  10.504   8.443 -1.5708 -0.5390  0.3969
  905MOL0     H22151   3.982  10.212   8.486  0.4141  0.9878  1.6268
  905MOL0     H22152   4.129  10.300   8.432  0.4469  3.0408 -2.2153
  905MOL0     H22153   3.989  10.393   8.675 -1.2484 -2.9074  2.5472
  905MOL0     H22154   4.157  10.406   8.624 -0.7667  2.0976 -0.1405
  905MOL0     H22155   4.120  10.249   8.803 -1.2490  1.6042 -0.7239
  905MOL0     H22156   4.147  10.147   8.655  2.4678  0.4683  2.3937
  905MOL0     H22157   3.981  10.995   7.937 -0.0811  1.6402 -0.5582
  905MOL0     H22158   3.910  11.199   7.854 -2.2476  1.3651 -1.9714
  905MOL0     H22159   3.788  11.457   7.671 -1.2369 -0.1399  1.2667
  905MOL0     H22160   3.801  11.631   7.510 -0.4644 -3.3418  0.3800
  905MOL0     H22161   4.334  11.191   8.136 -4.8133 -0.9898  0.7430
  905MOL0     H22162   4.364  10.992   8.278 -2.1367 -3.7326  0.1101
  905MOL0     H22163   4.423  10.354   8.178  0.3201  0.6794 -1.2938
  905MOL0     H22164   4.445  10.205   8.403  2.6152  0.3302  1.7262
  905MOL0     H22165   4.462  10.410   8.780  0.9836  1.0055 -1.4430
  905MOL0     H22166   4.500  10.241   8.819  2.5678 -1.1856 -1.9084
  905MOL0     H22167   4.671  10.465   8.695  2.8388  0.2323 -0.6786
  905MOL0     H22168   4.706  10.295   8.666 -0.0221 -0.3703 -0.3308
  905MOL0     H22169   4.828  10.401   8.874 -0.6663  1.1168  1.3629
  905MOL0     H22170   4.758  10.240   8.882 -2.2819 -1.1799  0.6390
  905MOL0     H22171   4.587  10.311   9.040  1.5121  0.2251  2.5237
  905MOL0     H22172   4.576  10.471   8.964  0.5035  0.1132  0.4314
  905MOL0     H22173   4.838  10.482   9.302 -3.0254  1.4299  1.2572
  905MOL0     H22174   4.415  10.540   8.648  0.7528 -4.0193  1.4694
  905MOL0     H22175   4.404  10.695   8.442 -0.9075 -0.1185  1.2378
  906MOL0     O22176  10.737   6.850   1.881 -0.2861  0.4854  0.5863
  906MOL0     C22177  10.728   6.734   1.927 -0.9108  0.4574  0.0173
  906MOL0     O22178  10.745   6.709   2.067  0.1527  0.4558 -0.0198
  906MOL0     C22179  10.744   6.792   2.173  0.2792  0.2875 -0.3195
  906MOL0     C22180  10.743   6.727   2.301  0.2535 -0.9308  0.3633
  906MOL0     C22181  10.719   6.802   2.421  0.1062 -0.1800  0.6958
  906MOL0     C22182  10.698   6.939   2.412 -0.0243  0.4762 -0.1147
  906MOL0     O22183  10.655   7.000   2.529 -0.3997 -0.0742 -0.5179
  906MOL0     C22184  10.658   7.145   2.525  0.0918 -1.0887 -0.8860
  906MOL0     C22185  10.658   7.213   2.662 -0.4959 -0.3154  0.0567
  906MOL0     C22186  10.783   7.188   2.741  0.3289 -0.2718  0.3692
  906MOL0     C22187  10.924   7.231   2.681 -0.4546 -0.3164  0.1648
  906MOL0     C22188  11.026   7.239   2.797 -0.0303 -0.4940  0.5720
  906MOL0     C22189  11.168   7.205   2.763  1.4447 -0.1667  1.0830
  906MOL0     C22190  11.219   7.314   2.669 -0.0940  0.6969 -0.1016
  906MOL0     C22191  11.345   7.281   2.596 -0.3930  0.8940  0.7883
  906MOL0     N22192  11.336   7.190   2.485 -0.2294 -0.5986  0.1540
  906MOL0     C22193  11.220   7.163   2.421 -0.1105 -0.0984  0.0335
  906MOL0     C22194  11.264   7.092   2.309  0.0377 -0.5905 -0.6201
  906MOL0     C22195  11.177   7.023   2.206  0.0061  0.5710  0.5719
  906MOL0     C22196  11.121   6.883   2.245 -0.1284 -0.6975 -0.2341
  906MOL0     C22197  11.246   6.790   2.260  0.0686  0.2630 -0.4542
  906MOL0     C22198  11.214   6.647   2.304 -0.6378 -0.2419 -0.6478
  906MOL0     O22199  11.156   6.559   2.196 -0.6495 -0.8276  0.2239
  906MOL0     C22200  11.161   6.422   2.202 -0.8375 -0.7265 -1.2817
  906MOL0     C22201  11.222   6.345   2.303 -0.5772  0.0284 -0.4869
  906MOL0     C22202  11.213   6.206   2.296  0.0348 -1.2561 -0.0302
  906MOL0     C22203  11.256   6.138   2.422 -0.0880  0.2883  0.2870
  906MOL0     C22204  11.168   6.137   2.178  0.5173 -0.5231  0.5160
  906MOL0     C22205  11.165   5.986   2.169 -0.0380 -0.5027 -0.4158
  906MOL0     O22206  11.269   5.922   2.232 -0.0739  0.0675  0.3483
  906MOL0     C22207  11.257   5.794   2.282  0.2545 -0.6046  0.0985
  906MOL0     C22208  11.363   5.705   2.266 -0.1922 -0.4404  0.6845
  906MOL0     C22209  11.353   5.572   2.316  0.3094 -0.0826 -0.1982
  906MOL0     C22210  11.243   5.541   2.390 -0.8356 -0.2143  0.5050
  906MOL0     O22211  11.237   5.421   2.447  0.4330  0.1799  0.2850
  906MOL0     C22212  11.301   5.301   2.387 -0.0368 -0.5840 -0.8444
  906MOL0     C22213  11.224   5.188   2.447 -0.1456 -0.9126 -0.1048
  906MOL0     C22214  11.266   5.054   2.382  0.9217  0.6598 -0.2805
  906MOL0     C22215  11.224   5.039   2.235  0.5881  0.5468  0.0623
  906MOL0     C22216  11.275   4.910   2.183 -0.2266  0.5253 -0.2323
  906MOL0     C22217  11.268   4.878   2.026  0.2968  0.2814 -0.3103
  906MOL0     C22218  11.125   4.897   1.971 -1.4663  0.0013 -0.3416
  906MOL0     C22219  11.016   4.826   2.044 -0.5409  0.3268  0.2289
  906MOL0    Cl22220  11.059   4.650   2.047 -0.1845 -0.8303 -0.1770
  906MOL0     C22221  11.132   5.622   2.404 -0.4617  0.2029 -0.2595
  906MOL0     C22222  11.145   5.751   2.353 -0.0401 -0.1515  0.7883
  906MOL0     O22223  11.074   5.934   2.109  0.4516 -0.4001 -0.4547
  906MOL0     C22224  11.120   6.219   2.067  0.5448 -0.1357 -1.3325
  906MOL0     C22225  11.118   6.355   2.087  0.0060 -0.3824 -0.3617
  906MOL0     N22226  11.403   7.092   2.310  0.0074  0.4096  0.1724
  906MOL0     N22227  11.445   7.150   2.413  0.5769 -0.4088  1.0604
  906MOL0     C22228  10.708   7.001   2.288  0.4214  0.5745 -0.9027
  906MOL0     C22229  10.723   6.932   2.164  0.6648  0.9324  0.4058
  906MOL0     C22230  10.723   6.624   1.820 -0.9049  0.0704 -0.8129
  906MOL0     C22231  10.757   6.492   1.856 -0.2187 -0.5798  1.1343
  906MOL0     C22232  10.733   6.394   1.754  0.3652  0.3646 -0.5473
  906MOL0     C22233  10.688   6.423   1.627  0.2503  0.1361  0.0820
  906MOL0     O22234  10.663   6.340   1.511 -0.3766 -0.6063  0.4706
  906MOL0     C22235  10.652   6.201   1.528 -1.2544  0.1350 -0.0991
  906MOL0     C22236  10.803   6.151   1.528 -0.0013  0.3899  0.3982
  906MOL0     C22237  10.827   6.004   1.486  0.3742 -0.1535  0.7833
  906MOL0     C22238  10.969   5.969   1.490  0.1254  0.4761  0.4468
  906MOL0     C22239  11.011   5.913   1.618 -0.4018 -0.2347 -0.1833
  906MOL0     C22240  11.029   5.836   1.707 -0.1449  0.2965 -0.8820
  906MOL0     C22241  10.682   6.556   1.587 -0.0129  0.1963 -0.1562
  906MOL0     C22242  10.687   6.649   1.682  0.0643  0.8248  0.1691
  906MOL0     H22243  10.747   6.619   2.309  0.4104 -0.9741 -0.2339
  906MOL0     H22244  10.708   6.749   2.515 -0.6117 -0.5845  0.3931
  906MOL0     H22245  10.751   7.181   2.481 -1.3857 -0.2168 -3.5476
  906MOL0     H22246  10.570   7.176   2.467  0.2725 -0.6753 -0.9400
  906MOL0     H22247  10.659   7.320   2.639  0.7795 -0.5543 -1.1061
  906MOL0     H22248  10.573   7.186   2.726 -2.3698  2.5205 -1.0298
  906MOL0     H22249  10.766   7.243   2.834 -2.0696  2.5173 -1.5465
  906MOL0     H22250  10.780   7.087   2.783  0.3924  0.1611  1.4526
  906MOL0     H22251  10.962   7.156   2.610 -0.1759  0.3411 -0.3949
  906MOL0     H22252  10.919   7.329   2.634 -0.7014 -0.1401  0.5546
  906MOL0     H22253  11.021   7.345   2.824 -1.8985  0.3627 -2.6790
  906MOL0     H22254  11.013   7.188   2.893  0.5265  0.4069  1.1412
  906MOL0     H22255  11.237   7.200   2.847  1.7777  0.0085  0.8262
  906MOL0     H22256  11.153   7.109   2.713 -1.2798  0.9282 -0.4323
  906MOL0     H22257  11.148   7.348   2.593 -1.6341 -2.2869 -0.1660
  906MOL0     H22258  11.247   7.401   2.729 -1.4289 -0.3119  2.0920
  906MOL0     H22259  11.410   7.242   2.676  1.0951  2.7566  0.5596
  906MOL0     H22260  11.392   7.370   2.553 -0.2619  0.0247 -0.9649
  906MOL0     H22261  11.116   7.171   2.452  0.5488  0.0793  2.4855
  906MOL0     H22262  11.094   7.091   2.185  0.2032  0.8175  0.5812
  906MOL0     H22263  11.242   7.009   2.119  0.1928  2.3252  0.3788
  906MOL0     H22264  11.046   6.847   2.174  2.1295 -2.9295 -1.6705
  906MOL0     H22265  11.062   6.893   2.336  1.0522 -2.7199  0.8433
  906MOL0     H22266  11.312   6.839   2.333 -0.8416  0.5491  0.1903
  906MOL0     H22267  11.300   6.781   2.166  0.2047  1.0859 -0.4641
  906MOL0     H22268  11.147   6.657   2.390 -1.3535 -3.1254 -0.7543
  906MOL0     H22269  11.305   6.597   2.338 -0.7255  0.3102  0.4343
  906MOL0     H22270  11.255   6.385   2.398  3.9571 -1.9176 -0.9989
  906MOL0     H22271  11.302   6.199   2.499  0.6757 -1.1308  0.9952
  906MOL0     H22272  11.160   6.095   2.455 -0.5011  1.8696  1.2097
  906MOL0     H22273  11.333   6.063   2.401 -1.3577 -0.5828 -1.5579
  906MOL0     H22274  11.442   5.740   2.200 -0.8110  0.8700  0.6060
  906MOL0     H22275  11.429   5.496   2.303  0.4414  0.0826 -0.3863
  906MOL0     H22276  11.284   5.303   2.279 -0.2801  1.9060 -0.8190
  906MOL0     H22277  11.405   5.305   2.422  0.2405  2.7426 -1.7219
  906MOL0     H22278  11.251   5.187   2.553 -0.6906 -2.2581  0.0373
  906MOL0     H22279  11.116   5.208   2.443  0.1832  0.8868 -0.8653
  906MOL0     H22280  11.225   4.975   2.446  2.6364  2.1085  2.8599
  906MOL0     H22281  11.375   5.057   2.389  0.9113  0.0052  0.2615
  906MOL0     H22282  11.117   5.045   2.218  0.7352 -1.1372 -1.7367
  906MOL0     H22283  11.273   5.120   2.179  0.2067  0.2313 -0.7441
  906MOL0     H22284  11.227   4.827   2.236 -1.2515  1.6118  0.6065
  906MOL0     H22285  11.381   4.912   2.212  0.4922  1.2648 -2.6823
  906MOL0     H22286  11.340   4.946   1.979  0.1381  0.4348 -0.3301
  906MOL0     H22287  11.310   4.782   1.994  0.7439  0.2365  0.3706
  906MOL0     H22288  11.119   4.858   1.869 -2.3844 -2.5881  0.6128
  906MOL0     H22289  11.101   5.003   1.975  2.7157  1.1273  2.3355
  906MOL0     H22290  10.920   4.824   1.992 -1.6792  1.2666  2.1889
  906MOL0     H22291  11.003   4.864   2.146  0.5888 -0.8327  0.8262
  906MOL0     H22292  11.039   5.590   2.451 -0.8624  2.8582  0.9519
  906MOL0     H22293  11.073   5.831   2.369 -0.8204 -0.4143 -1.1548
  906MOL0     H22294  11.077   6.173   1.979 -1.3690 -1.9199  0.4131
  906MOL0     H22295  11.077   6.422   2.012  2.1444  0.5874 -0.7380
  906MOL0     H22296  10.680   7.105   2.276 -1.6656  0.0521 -0.9727
  906MOL0     H22297  10.719   6.984   2.069 -2.7807 -1.8328 -1.1868
  906MOL0     H22298  10.783   6.475   1.960 -4.7265 -2.2080  2.2400
  906MOL0     H22299  10.743   6.288   1.777 -1.6592 -0.5001 -3.0815
  906MOL0     H22300  10.588   6.186   1.616 -1.7647  2.3235 -0.0395
  906MOL0     H22301  10.598   6.162   1.441  0.9544 -2.9035 -0.2750
  906MOL0     H22302  10.846   6.168   1.627  1.1986  0.5985 -0.1479
  906MOL0     H22303  10.857   6.221   1.464 -0.5416  0.4316 -0.0190
  906MOL0     H22304  10.792   5.985   1.384 -0.4771 -1.7708  1.3425
  906MOL0     H22305  10.767   5.947   1.557 -0.3462  2.8047  2.7111
  906MOL0     H22306  11.029   6.056   1.461  0.0969 -0.4446 -2.7061
  906MOL0     H22307  10.978   5.896   1.409  2.7287  2.0854 -0.8510
  906MOL0     H22308  11.040   5.765   1.787 -1.0291 -1.0575 -1.9241
  906MOL0     H22309  10.661   6.585   1.485  1.5754  1.1992 -0.2261
  906MOL0     H22310  10.675   6.752   1.647  2.9221  1.8545  1.8452
  907MOL0     O22311   1.599  10.251   6.919 -0.2360  1.0446 -0.3209
  907MOL0     C22312   1.495  10.254   6.973  0.0838 -0.6715 -0.5439
  907MOL0     O22313   1.378  10.196   6.919 -0.1331 -0.2390 -0.2252
  907MOL0     C22314   1.395  10.120   6.799 -0.3899 -0.6262 -0.6098
  907MOL0     C22315   1.444   9.987   6.799  0.2782 -0.7470 -0.4185
  907MOL0     C22316   1.450   9.908   6.682 -0.5462 -0.1731 -0.0029
  907MOL0     C22317   1.408   9.956   6.560  0.0977  0.8583 -0.2792
  907MOL0     O22318   1.423   9.895   6.441  0.3999  0.2233 -0.0037
  907MOL0     C22319   1.434   9.748   6.430  0.5818 -0.0692  0.3167
  907MOL0     C22320   1.576   9.720   6.426 -0.5230  0.7668  0.3790
  907MOL0     C22321   1.611   9.588   6.359 -0.7118  0.6448 -0.5986
  907MOL0     C22322   1.580   9.481   6.457 -0.0426  0.1184 -0.2841
  907MOL0     C22323   1.614   9.346   6.400  1.4175 -0.1011  0.5093
  907MOL0     C22324   1.601   9.227   6.499  0.1059 -0.4715 -0.2461
  907MOL0     C22325   1.595   9.083   6.437  0.2454 -0.4565 -0.0672
  907MOL0     C22326   1.592   8.974   6.539  0.3271  1.9890 -0.5512
  907MOL0     N22327   1.648   8.863   6.478 -1.2256  0.1616  0.1719
  907MOL0     C22328   1.782   8.822   6.474 -0.8086 -0.2741 -0.3120
  907MOL0     C22329   1.774   8.698   6.415  0.2572 -0.6842 -0.3379
  907MOL0     C22330   1.891   8.601   6.398  0.0837 -0.5918 -0.3406
  907MOL0     C22331   2.005   8.654   6.317  0.1545 -0.4244 -0.6372
  907MOL0     C22332   2.010   8.610   6.174 -0.3557  0.4804 -0.6860
  907MOL0     C22333   1.950   8.705   6.075  0.9273 -0.4060 -0.9223
  907MOL0     O22334   1.958   8.648   5.947  0.9409 -1.0024  0.3289
  907MOL0     C22335   1.865   8.546   5.913  0.4644  0.1270 -0.2683
  907MOL0     C22336   1.749   8.511   5.986  0.2828  0.8059  0.0043
  907MOL0     C22337   1.656   8.419   5.945  0.6259  1.0185 -0.0688
  907MOL0     C22338   1.530   8.389   6.030 -0.4250  0.2554 -0.1998
  907MOL0     C22339   1.676   8.358   5.824  0.2102  1.1473  0.0680
  907MOL0     C22340   1.574   8.265   5.762 -0.9190 -0.2638  0.9059
  907MOL0     O22341   1.450   8.279   5.787 -0.0463 -0.7570 -0.7197
  907MOL0     C22342   1.355   8.189   5.737  0.2836 -0.7372 -0.3232
  907MOL0     C22343   1.325   8.084   5.817  0.6501  0.0946 -0.2319
  907MOL0     C22344   1.226   8.004   5.778 -0.5284  0.8903  0.5383
  907MOL0     C22345   1.161   8.014   5.656 -0.7450  0.3883 -0.6257
  907MOL0     O22346   1.065   7.920   5.632  0.0025 -0.7673  0.4341
  907MOL0     C22347   0.967   7.945   5.537 -0.0914  0.0314  0.7733
  907MOL0     C22348   0.855   7.835   5.542  0.8764 -0.8163 -0.2229
  907MOL0     C22349   0.752   7.840   5.429  0.4134  0.1665  0.7209
  907MOL0     C22350   0.621   7.773   5.473 -0.4349  0.2133 -0.2391
  907MOL0     C22351   0.516   7.764   5.354  0.1542 -0.2317 -0.7554
  907MOL0     C22352   0.405   7.667   5.392 -0.0196  0.2960  0.4891
  907MOL0     C22353   0.318   7.641   5.269  0.5057 -0.4322 -0.2392
  907MOL0     C22354   0.232   7.522   5.269 -0.3072 -1.0018 -1.1321
  907MOL0    Cl22355   0.169   7.510   5.102  0.1339 -0.0413 -0.5258
  907MOL0     C22356   1.195   8.117   5.567 -0.1929 -0.5170 -1.0823
  907MOL0     C22357   1.288   8.207   5.615 -0.2520  0.1991  0.0552
  907MOL0     O22358   1.625   8.182   5.691 -0.7415 -0.1129 -0.0903
  907MOL0     C22359   1.788   8.392   5.749  0.5045 -0.3282 -0.8290
  907MOL0     C22360   1.884   8.490   5.789 -0.1785 -0.7727  0.1256
  907MOL0     N22361   1.648   8.676   6.371  0.3023  0.2303 -0.0218
  907MOL0     N22362   1.573   8.765   6.427 -0.3522  0.1734  0.2972
  907MOL0     C22363   1.381  10.092   6.560  0.4584  0.0078 -0.0651
  907MOL0     C22364   1.364  10.176   6.676  0.2240  0.0662  0.5830
  907MOL0     C22365   1.486  10.339   7.101  0.9331 -0.3491 -0.4734
  907MOL0     C22366   1.370  10.339   7.179 -0.8771 -0.5305  0.4434
  907MOL0     C22367   1.364  10.413   7.305  0.2096 -0.1733  0.5308
  907MOL0     C22368   1.471  10.495   7.343 -1.2929  0.2587 -0.9983
  907MOL0     O22369   1.458  10.551   7.458  0.0330 -0.6364 -0.0778
  907MOL0     C22370   1.559  10.636   7.518  0.8874 -0.0354  0.4457
  907MOL0     C22371   1.541  10.641   7.667 -1.0219  0.6104 -0.5748
  907MOL0     C22372   1.403  10.681   7.715  0.0332  0.0946 -0.5373
  907MOL0     C22373   1.385  10.626   7.862 -0.3868 -0.7767  0.3746
  907MOL0     C22374   1.254  10.665   7.922 -0.1653 -0.3858 -0.5900
  907MOL0     C22375   1.144  10.699   7.965  1.0971  0.5266  0.5919
  907MOL0     C22376   1.583  10.502   7.261 -0.4385 -1.1085  0.2726
  907MOL0     C22377   1.594  10.424   7.145  0.3878  0.1241  0.3279
  907MOL0     H22378   1.476   9.957   6.898  0.9842  3.3900  0.8025
  907MOL0     H22379   1.490   9.807   6.682 -4.0526 -1.9170 -4.7937
  907MOL0     H22380   1.390   9.695   6.515 -2.5313  1.4815 -0.1796
  907MOL0     H22381   1.377   9.719   6.341 -0.2191 -1.5353  1.2592
  907MOL0     H22382   1.632   9.801   6.378  1.5790  1.1211  3.1379
  907MOL0     H22383   1.611   9.736   6.528 -2.1118 -0.2860  1.1254
  907MOL0     H22384   1.569   9.577   6.259 -1.9517  0.1094 -0.0411
  907MOL0     H22385   1.719   9.582   6.347 -0.3024  1.9365  1.7480
  907MOL0     H22386   1.634   9.494   6.551 -1.5789 -1.3789  0.8866
  907MOL0     H22387   1.471   9.483   6.471 -0.3140 -2.2345 -1.5383
  907MOL0     H22388   1.556   9.332   6.309  1.4879 -0.9676  0.5821
  907MOL0     H22389   1.713   9.347   6.354  0.2138  1.6114 -2.2557
  907MOL0     H22390   1.687   9.246   6.564  1.8191 -0.4030 -2.4009
  907MOL0     H22391   1.515   9.242   6.564  3.3525  1.8191  4.0259
  907MOL0     H22392   1.524   9.059   6.357  0.0962 -0.6841  0.1313
  907MOL0     H22393   1.689   9.089   6.381  0.8462 -1.3910  0.8092
  907MOL0     H22394   1.494   8.948   6.579  0.6521  0.6380 -0.5883
  907MOL0     H22395   1.660   9.001   6.621  0.3060 -1.8111  0.8803
  907MOL0     H22396   1.872   8.874   6.504 -3.2605  2.5174  3.1752
  907MOL0     H22397   1.932   8.556   6.488  1.2835 -0.4096 -0.7792
  907MOL0     H22398   1.839   8.522   6.343 -1.8978  0.2105  0.2725
  907MOL0     H22399   2.100   8.640   6.369  0.5825  0.8248 -1.0276
  907MOL0     H22400   2.008   8.764   6.316  0.7586 -0.4411 -1.1635
  907MOL0     H22401   1.960   8.513   6.184 -0.8479  0.9308  2.2151
  907MOL0     H22402   2.116   8.588   6.159 -0.7938 -0.5827 -2.6219
  907MOL0     H22403   1.995   8.804   6.083  0.2579 -0.2374  2.1782
  907MOL0     H22404   1.848   8.728   6.108  1.6793  0.6618  0.7743
  907MOL0     H22405   1.723   8.571   6.073 -1.1206  2.2420 -1.3544
  907MOL0     H22406   1.536   8.418   6.135  1.9463 -1.3692  0.2007
  907MOL0     H22407   1.437   8.435   5.997  0.0168  1.8162  0.6309
  907MOL0     H22408   1.519   8.280   6.020 -2.1103  0.5814 -3.3147
  907MOL0     H22409   1.389   8.054   5.900  1.4562  0.5411 -0.6753
  907MOL0     H22410   1.213   7.919   5.844  1.9714 -0.7173 -0.8617
  907MOL0     H22411   0.913   8.038   5.555 -0.4078 -0.3674  1.9817
  907MOL0     H22412   1.003   7.953   5.434 -2.7732  2.9773 -0.0661
  907MOL0     H22413   0.902   7.736   5.544 -0.3009 -1.3844  1.4690
  907MOL0     H22414   0.799   7.843   5.636  2.3362  2.8445  0.4826
  907MOL0     H22415   0.783   7.790   5.337 -2.4753  1.5580 -1.1684
  907MOL0     H22416   0.726   7.943   5.401  1.6051 -0.4116 -3.0616
  907MOL0     H22417   0.645   7.670   5.502 -1.0696  0.4127  1.0685
  907MOL0     H22418   0.574   7.823   5.558  2.7108 -1.9550  3.0899
  907MOL0     H22419   0.566   7.728   5.264 -5.2566  0.0843 -4.3471
  907MOL0     H22420   0.478   7.866   5.343 -0.7477 -0.3528  0.9159
  907MOL0     H22421   0.455   7.574   5.418 -0.9646 -1.1386 -2.3842
  907MOL0     H22422   0.343   7.694   5.479  1.0334 -0.3102  1.4496
  907MOL0     H22423   0.383   7.637   5.181  0.8338  1.2286 -0.1041
  907MOL0     H22424   0.267   7.734   5.243  2.4466  0.8143  0.2313
  907MOL0     H22425   0.154   7.521   5.345  2.8240 -1.4762  2.3376
  907MOL0     H22426   0.287   7.428   5.279  2.0034 -0.0218 -3.2605
  907MOL0     H22427   1.134   8.135   5.479 -0.1003  0.4309 -0.9683
  907MOL0     H22428   1.311   8.292   5.550 -2.7537  1.4527  0.7092
  907MOL0     H22429   1.800   8.358   5.647 -0.9566  2.6520 -2.1232
  907MOL0     H22430   1.965   8.515   5.722 -0.5751 -0.8988 -0.4090
  907MOL0     H22431   1.347  10.126   6.463 -0.5297 -2.1056 -0.5032
  907MOL0     H22432   1.335  10.279   6.663 -0.1981 -0.1726 -0.5710
  907MOL0     H22433   1.285  10.287   7.137 -0.9596 -0.5884  0.6818
  907MOL0     H22434   1.277  10.412   7.370  1.9187  2.2038  3.0566
  907MOL0     H22435   1.661  10.597   7.512  1.8540  2.4197 -0.1260
  907MOL0     H22436   1.555  10.738   7.478  0.6201  0.1650  0.9712
  907MOL0     H22437   1.603  10.721   7.708 -0.3930  0.0889 -0.4829
  907MOL0     H22438   1.580  10.544   7.701 -2.5481  0.0626 -0.3128
  907MOL0     H22439   1.329  10.621   7.662  2.0775 -0.2991 -3.1761
  907MOL0     H22440   1.395  10.790   7.708  0.1522  0.1641  0.2945
  907MOL0     H22441   1.463  10.644   7.937 -0.6583  1.4488  0.1891
  907MOL0     H22442   1.377  10.518   7.845  1.8147 -0.7436 -1.4144
  907MOL0     H22443   1.043  10.732   7.984  0.7743  0.4299 -0.8486
  907MOL0     H22444   1.661  10.573   7.289 -1.6550 -0.8522  3.4562
  907MOL0     H22445   1.673  10.438   7.072 -2.6502  1.4934 -3.0077
  908MOL0     O22446   5.316   5.032   5.849  0.7563  0.4510  0.0172
  908MOL0     C22447   5.218   4.952   5.852 -0.7636 -0.1488 -0.8073
  908MOL0     O22448   5.153   4.913   5.747 -0.6171  0.1177 -0.4455
  908MOL0     C22449   5.185   4.947   5.610  0.5281 -0.5324  0.2578
  908MOL0     C22450   5.278   5.040   5.562  1.0621  0.0892 -1.4544
  908MOL0     C22451   5.293   5.062   5.423 -0.7781 -0.7389 -0.3481
  908MOL0     C22452   5.235   4.990   5.321  0.1894 -0.1013 -0.0618
  908MOL0     O22453   5.246   5.028   5.191 -0.1090 -0.3521  0.2603
  908MOL0     C22454   5.121   5.006   5.115  0.3816  0.2256  0.5964
  908MOL0     C22455   5.119   4.872   5.030  0.7428 -0.4801 -0.0602
  908MOL0     C22456   4.981   4.841   4.960  0.3400 -0.4656  1.0258
  908MOL0     C22457   4.993   4.701   4.889  0.2588 -0.0040  0.7222
  908MOL0     C22458   4.871   4.659   4.806 -0.6453  0.0319  0.1687
  908MOL0     C22459   4.739   4.664   4.882 -0.1573  0.6178 -0.0635
  908MOL0     C22460   4.704   4.544   4.974 -0.1605 -0.1062 -0.9114
  908MOL0     C22461   4.795   4.530   5.099  0.2207  0.4284  1.3563
  908MOL0     N22462   4.749   4.428   5.196  0.4604 -0.0600 -0.5514
  908MOL0     C22463   4.770   4.294   5.172 -0.1274  0.0930 -0.0222
  908MOL0     C22464   4.689   4.237   5.268 -0.2816  0.5526  0.5494
  908MOL0     C22465   4.687   4.085   5.290  0.0157 -0.3456  0.2283
  908MOL0     C22466   4.686   4.042   5.436  0.5495 -0.9306  0.5289
  908MOL0     C22467   4.553   4.064   5.518  1.0371  0.4703  0.6476
  908MOL0     C22468   4.519   3.954   5.614 -1.1144 -0.0984  0.3205
  908MOL0     O22469   4.419   3.988   5.699  0.7363  0.2881  0.7661
  908MOL0     C22470   4.290   3.959   5.665 -0.5349 -0.5508  0.0157
  908MOL0     C22471   4.256   3.900   5.541  0.4425  0.3816 -0.5030
  908MOL0     C22472   4.121   3.879   5.514 -0.8880 -0.1704 -0.0468
  908MOL0     C22473   4.104   3.831   5.372  0.5927  0.3075 -0.1774
  908MOL0     C22474   4.017   3.912   5.604 -0.3127  0.3613 -0.3243
  908MOL0     C22475   3.876   3.907   5.563  0.0280 -0.4168 -0.6739
  908MOL0     O22476   3.842   3.813   5.460 -0.2613 -0.1593 -1.0067
  908MOL0     C22477   3.717   3.809   5.407  1.4738 -0.0005  0.4388
  908MOL0     C22478   3.608   3.792   5.493 -0.2530 -0.3980 -0.1181
  908MOL0     C22479   3.479   3.771   5.439 -0.5219 -0.1752  0.0427
  908MOL0     C22480   3.463   3.770   5.296  0.0976 -0.3978 -0.8449
  908MOL0     O22481   3.330   3.754   5.254 -1.2511  0.2159 -0.4680
  908MOL0     C22482   3.308   3.708   5.121 -0.5450 -0.0043 -0.0572
  908MOL0     C22483   3.194   3.612   5.132  0.4404  0.3023 -0.4330
  908MOL0     C22484   3.166   3.537   5.000  0.1290 -0.0867  0.0459
  908MOL0     C22485   3.075   3.413   5.020 -0.4134 -0.2408  0.1814
  908MOL0     C22486   3.016   3.375   4.885  0.8821 -0.5236  0.3703
  908MOL0     C22487   2.943   3.246   4.921 -0.7719  0.2901  0.5425
  908MOL0     C22488   2.935   3.166   4.788 -0.4731  0.2129 -0.5076
  908MOL0     C22489   2.881   3.024   4.813  0.5303 -0.3166 -0.2814
  908MOL0    Cl22490   2.994   2.901   4.893  0.0398  0.1279 -0.5731
  908MOL0     C22491   3.581   3.784   5.213 -0.8330 -0.9401 -0.0058
  908MOL0     C22492   3.702   3.802   5.270  1.0229 -0.5745  0.3995
  908MOL0     O22493   3.793   3.982   5.609 -0.8254  0.0474 -0.1289
  908MOL0     C22494   4.063   3.972   5.726  0.3973  0.0142  0.2724
  908MOL0     C22495   4.194   3.999   5.758  0.1196 -0.9608  0.4632
  908MOL0     N22496   4.627   4.334   5.343  0.2276 -0.0411 -0.0212
  908MOL0     N22497   4.666   4.447   5.298  0.1023 -0.6708  0.0688
  908MOL0     C22498   5.152   4.893   5.370 -1.0391  0.4865  0.1036
  908MOL0     C22499   5.122   4.880   5.505  0.2477  0.5400 -0.4985
  908MOL0     C22500   5.159   4.911   5.976  0.7864 -0.4951 -0.0880
  908MOL0     C22501   5.237   4.909   6.095  0.2140 -0.0683 -0.2120
  908MOL0     C22502   5.177   4.889   6.223 -0.0566  0.0103  0.0656
  908MOL0     C22503   5.037   4.860   6.235 -0.2430  1.0104 -0.2563
  908MOL0     O22504   4.975   4.857   6.358 -0.5432  0.1844  0.1692
  908MOL0     C22505   5.034   4.746   6.440 -0.3749 -0.5673  0.5839
  908MOL0     C22506   4.921   4.700   6.535  0.3988 -0.3281  0.6479
  908MOL0     C22507   4.986   4.590   6.613  0.3054  0.3649 -0.2327
  908MOL0     C22508   4.899   4.558   6.738 -0.4524 -0.2146  0.1114
  908MOL0     C22509   4.970   4.467   6.828 -0.4399  0.6754  0.2498
  908MOL0     C22510   5.021   4.381   6.896  0.6022  1.5590  0.4834
  908MOL0     C22511   4.966   4.846   6.116  0.2258  0.5200 -0.5947
  908MOL0     C22512   5.023   4.875   5.999  0.4386 -0.3852  0.5928
  908MOL0     H22513   5.330   5.102   5.634 -1.6082  0.6730  0.1078
  908MOL0     H22514   5.347   5.148   5.385  0.8947 -1.6300 -0.1015
  908MOL0     H22515   5.039   5.016   5.187  1.4798  2.4368  1.6390
  908MOL0     H22516   5.102   5.076   5.033  1.8932  1.2133  1.0375
  908MOL0     H22517   5.199   4.873   4.955 -0.8607  0.0170 -1.8732
  908MOL0     H22518   5.139   4.782   5.089  2.3738  0.8198  1.4749
  908MOL0     H22519   4.906   4.844   5.039 -0.1744  1.1978  0.5276
  908MOL0     H22520   4.955   4.916   4.884 -0.8368 -0.4991  1.3738
  908MOL0     H22521   5.086   4.690   4.833  0.3829 -0.3823  0.9994
  908MOL0     H22522   5.004   4.625   4.967 -0.2085 -1.7320 -0.8400
  908MOL0     H22523   4.862   4.720   4.715  3.6079 -0.3086 -0.7146
  908MOL0     H22524   4.891   4.556   4.773  2.2679  0.9976 -1.4858
  908MOL0     H22525   4.734   4.760   4.935 -0.6312  1.5331 -1.6895
  908MOL0     H22526   4.663   4.660   4.804  1.6510 -0.9833 -1.8506
  908MOL0     H22527   4.602   4.553   5.011 -0.1102 -2.5700  0.0059
  908MOL0     H22528   4.706   4.451   4.916  0.5335 -0.1769 -0.7831
  908MOL0     H22529   4.795   4.623   5.156 -0.5258 -0.3177  2.6162
  908MOL0     H22530   4.898   4.508   5.071  0.3658  1.4065  1.0716
  908MOL0     H22531   4.820   4.247   5.088  1.1444  1.1238  0.1259
  908MOL0     H22532   4.596   4.053   5.239  0.8434 -2.0642 -0.2378
  908MOL0     H22533   4.773   4.040   5.239 -0.2970 -1.1040  0.3680
  908MOL0     H22534   4.773   4.090   5.483  0.9523  0.5372 -1.5841
  908MOL0     H22535   4.709   3.935   5.434 -1.7819 -1.6411  3.4676
  908MOL0     H22536   4.465   4.080   5.454  1.2015  4.0432  1.0759
  908MOL0     H22537   4.556   4.163   5.565 -1.7133  1.4704 -1.0050
  908MOL0     H22538   4.602   3.947   5.685  0.8792  1.3108 -1.7278
  908MOL0     H22539   4.503   3.856   5.569 -0.8837  0.1194 -0.2531
  908MOL0     H22540   4.335   3.880   5.470  1.2761 -1.8166  0.9513
  908MOL0     H22541   4.080   3.724   5.371 -1.5620  0.7231 -1.8421
  908MOL0     H22542   4.022   3.884   5.323 -0.0124  0.8330  1.3239
  908MOL0     H22543   4.187   3.847   5.304  0.8786  1.1292  0.3394
  908MOL0     H22544   3.627   3.792   5.600 -3.7033 -0.4600  0.6075
  908MOL0     H22545   3.387   3.767   5.497  0.2469  2.5695  1.6069
  908MOL0     H22546   3.292   3.797   5.059 -2.3381  0.9825  1.7072
  908MOL0     H22547   3.387   3.649   5.075 -2.3515 -1.0900 -1.9473
  908MOL0     H22548   3.212   3.533   5.205 -0.2263  0.0144 -0.5707
  908MOL0     H22549   3.102   3.668   5.152  0.2474  1.5400 -4.1161
  908MOL0     H22550   3.257   3.501   4.950 -2.2621 -2.6390 -2.8464
  908MOL0     H22551   3.125   3.617   4.938  2.7729  1.0977 -0.3125
  908MOL0     H22552   3.143   3.333   5.050  2.0628  1.3965 -0.8192
  908MOL0     H22553   2.993   3.427   5.092 -1.0221  0.3448 -0.6063
  908MOL0     H22554   3.099   3.369   4.815 -0.4496  0.8147 -1.4274
  908MOL0     H22555   2.939   3.446   4.852  0.7031 -0.9493 -0.1285
  908MOL0     H22556   2.994   3.187   4.998 -0.7468 -2.1899 -1.2497
  908MOL0     H22557   2.842   3.268   4.958 -1.1576  3.1493 -1.8207
  908MOL0     H22558   3.032   3.143   4.743 -0.8947  0.8890 -1.7901
  908MOL0     H22559   2.881   3.236   4.724  1.3357  1.7955 -0.3831
  908MOL0     H22560   2.837   2.985   4.721 -1.8040 -1.0422  1.0688
  908MOL0     H22561   2.791   3.042   4.871 -0.2449 -2.1985 -0.8472
  908MOL0     H22562   3.564   3.762   5.108 -0.3361 -1.6107  0.0549
  908MOL0     H22563   3.791   3.818   5.210  0.1259  2.9323 -0.2447
  908MOL0     H22564   3.985   4.001   5.796  0.8315  3.9674 -0.6698
  908MOL0     H22565   4.219   4.042   5.854  0.2723 -2.9037  1.3285
  908MOL0     H22566   5.098   4.834   5.298 -1.1232  0.8367 -0.1218
  908MOL0     H22567   5.049   4.805   5.534  3.9714 -1.9640  3.5382
  908MOL0     H22568   5.344   4.914   6.083  0.2921 -3.7613 -2.8482
  908MOL0     H22569   5.240   4.920   6.306 -0.0721  2.0759 -0.6280
  908MOL0     H22570   5.064   4.661   6.378  1.5633 -1.5366  2.7516
  908MOL0     H22571   5.123   4.783   6.490 -0.3282 -0.1813  0.2233
  908MOL0     H22572   4.842   4.655   6.475  1.6936 -2.4478  0.4488
  908MOL0     H22573   4.889   4.784   6.598 -0.8638 -1.7280  1.9462
  908MOL0     H22574   5.077   4.621   6.666  0.7768 -3.5654  1.6141
  908MOL0     H22575   4.998   4.511   6.538 -1.5823  0.5026 -0.7241
  908MOL0     H22576   4.800   4.522   6.708 -1.0419  1.8900 -0.6828
  908MOL0     H22577   4.880   4.648   6.797  2.4940 -0.7598  2.0721
  908MOL0     H22578   5.069   4.303   6.953  1.0343 -0.1695 -2.0997
  908MOL0     H22579   4.865   4.814   6.140  0.4072  2.1635  3.0305
  908MOL0     H22580   4.963   4.857   5.911  2.4822  0.8391 -1.1494
  909MOL0     O22581   9.005   9.739   7.373  0.2831 -0.0417 -0.4354
  909MOL0     C22582   9.082   9.650   7.337  0.4148  0.0981  0.4027
  909MOL0     O22583   9.119   9.628   7.201  0.2096  0.3803  0.2578
  909MOL0     C22584   9.068   9.702   7.098 -0.1169  0.0524  0.2341
  909MOL0     C22585   9.017   9.835   7.107 -0.4415 -0.6009  0.6061
  909MOL0     C22586   8.953   9.899   7.003  0.7826 -1.1612  0.6552
  909MOL0     C22587   8.918   9.831   6.886  0.3177 -0.2899 -0.3843
  909MOL0     O22588   8.836   9.906   6.799 -1.3042 -0.4420 -0.8209
  909MOL0     C22589   8.803   9.859   6.667  0.1529  0.4659  0.1448
  909MOL0     C22590   8.662   9.858   6.622 -0.6863  0.3614 -1.0258
  909MOL0     C22591   8.576   9.762   6.713 -0.1346 -0.0173 -0.6568
  909MOL0     C22592   8.608   9.616   6.688  0.5665  0.4307 -0.3281
  909MOL0     C22593   8.535   9.513   6.776  0.8638 -0.8495  0.2764
  909MOL0     C22594   8.564   9.366   6.725 -0.3337 -0.1378 -0.5727
  909MOL0     C22595   8.501   9.259   6.813 -0.5069  0.3058  0.4060
  909MOL0     C22596   8.349   9.253   6.818  0.0706 -0.3042 -1.3178
  909MOL0     N22597   8.275   9.210   6.700  0.4854 -0.3270  0.7840
  909MOL0     C22598   8.207   9.281   6.598  0.6455  0.7104 -0.2793
  909MOL0     C22599   8.154   9.182   6.523  0.1686  0.2097 -0.8466
  909MOL0     C22600   8.093   9.213   6.394 -0.3958  0.6823  0.1801
  909MOL0     C22601   8.178   9.261   6.281 -1.3679 -0.0828 -0.6864
  909MOL0     C22602   8.287   9.154   6.248 -0.0180 -1.2605 -0.2096
  909MOL0     C22603   8.380   9.212   6.136 -0.9878 -0.8041 -0.4045
  909MOL0     O22604   8.481   9.292   6.194  0.3347  0.3610  0.1000
  909MOL0     C22605   8.573   9.349   6.110  0.8526  0.1545  0.0956
  909MOL0     C22606   8.698   9.341   6.163 -0.4242  0.4187  0.7938
  909MOL0     C22607   8.803   9.376   6.078  0.4535 -0.0526 -0.7858
  909MOL0     C22608   8.937   9.356   6.149 -0.4324 -0.0469 -0.5537
  909MOL0     C22609   8.784   9.411   5.944  0.1088 -0.3214 -0.1659
  909MOL0     C22610   8.899   9.456   5.854 -0.0823 -0.3394  0.8003
  909MOL0     O22611   9.021   9.394   5.860 -0.1577  1.0924 -0.1819
  909MOL0     C22612   9.135   9.468   5.848 -0.9238 -1.1233 -0.7622
  909MOL0     C22613   9.245   9.408   5.781 -0.6063  0.7861 -0.6124
  909MOL0     C22614   9.372   9.468   5.764 -0.2912  0.6784  0.2693
  909MOL0     C22615   9.385   9.610   5.787 -0.7968 -0.2856  0.5673
  909MOL0     O22616   9.510   9.674   5.767 -0.9259  0.1895 -0.6738
  909MOL0     C22617   9.507   9.798   5.692 -0.0893  0.4307 -0.3539
  909MOL0     C22618   9.546   9.909   5.793  0.3427 -0.6485  0.5127
  909MOL0     C22619   9.693   9.888   5.856  1.0087  0.0889 -0.3820
  909MOL0     C22620   9.714   9.986   5.974  0.0820  1.0589 -0.4514
  909MOL0     C22621   9.863  10.026   6.004 -1.2354 -0.1323  0.0474
  909MOL0     C22622   9.911  10.135   5.908 -0.0552 -0.1709  0.0536
  909MOL0     C22623  10.052  10.176   5.942  0.7291 -0.2287  0.1333
  909MOL0     C22624  10.086  10.314   5.872  0.3867 -0.0966 -0.1981
  909MOL0    Cl22625  10.246  10.366   5.912  0.2559 -0.2560  0.3055
  909MOL0     C22626   9.270   9.682   5.840 -0.1680 -0.1248  0.4013
  909MOL0     C22627   9.149   9.612   5.876 -0.4641 -0.3359  0.3074
  909MOL0     O22628   8.874   9.539   5.764  0.5336  0.1363 -0.0511
  909MOL0     C22629   8.652   9.421   5.900  0.3934 -0.5585 -0.4669
  909MOL0     C22630   8.547   9.405   5.985  0.3668  0.0006  0.1514
  909MOL0     N22631   8.192   9.061   6.576 -0.1782  0.7620 -0.7222
  909MOL0     N22632   8.276   9.077   6.668  0.1441  0.0512 -0.1290
  909MOL0     C22633   8.952   9.694   6.875  1.0365  0.7041 -0.2535
  909MOL0     C22634   9.027   9.632   6.981  0.1654 -0.6971  0.3732
  909MOL0     C22635   9.132   9.545   7.431 -0.1065  0.1488  0.8255
  909MOL0     C22636   9.237   9.458   7.389 -0.3795  0.0835  0.3874
  909MOL0     C22637   9.273   9.344   7.475  0.8677  1.1207 -0.5288
  909MOL0     C22638   9.214   9.321   7.603 -0.4566 -0.8248 -0.3471
  909MOL0     O22639   9.244   9.215   7.688  0.2416 -0.2390 -0.1076
  909MOL0     C22640   9.325   9.256   7.805  0.4083 -0.3168  0.6852
  909MOL0     C22641   9.330   9.155   7.918 -0.4266 -0.0031  0.4838
  909MOL0     C22642   9.387   9.024   7.866  0.5460  0.0096  0.0280
  909MOL0     C22643   9.405   8.925   7.984 -0.2035 -0.2966 -0.2205
  909MOL0     C22644   9.515   8.966   8.065  0.4247 -0.5096 -0.0342
  909MOL0     C22645   9.609   8.974   8.133 -0.7375  0.4897  0.1104
  909MOL0     C22646   9.122   9.417   7.647  0.7134  1.2286  0.3958
  909MOL0     C22647   9.080   9.528   7.560 -0.7515 -0.8738  0.1138
  909MOL0     H22648   9.028   9.892   7.199 -1.4801  0.3872  0.1343
  909MOL0     H22649   8.912   9.999   7.017 -0.8710 -1.6426 -0.3874
  909MOL0     H22650   8.868   9.909   6.595 -1.2895  1.9063 -0.2074
  909MOL0     H22651   8.828   9.753   6.658 -3.2802 -0.3438 -1.4354
  909MOL0     H22652   8.632   9.962   6.638 -1.9890 -0.0774 -0.5414
  909MOL0     H22653   8.656   9.850   6.513 -3.1968  1.1636 -0.9928
  909MOL0     H22654   8.610   9.776   6.816  2.7102 -0.5903 -1.4377
  909MOL0     H22655   8.469   9.786   6.709 -0.1211  0.5248  1.3538
  909MOL0     H22656   8.569   9.596   6.588  0.3988  0.7909 -0.3355
  909MOL0     H22657   8.711   9.578   6.687 -0.4854 -2.7641 -0.8544
  909MOL0     H22658   8.577   9.514   6.876  2.5894 -0.9436 -0.4206
  909MOL0     H22659   8.426   9.527   6.774  1.0892  1.0584 -0.5033
  909MOL0     H22660   8.550   9.358   6.617  2.1658  4.0802 -1.4317
  909MOL0     H22661   8.671   9.349   6.739  0.3126  3.6771  0.1117
  909MOL0     H22662   8.530   9.170   6.757  2.4111  1.4629 -0.0876
  909MOL0     H22663   8.541   9.251   6.915  1.0916 -3.6393 -0.3443
  909MOL0     H22664   8.324   9.357   6.843  3.2692  0.0309  1.1695
  909MOL0     H22665   8.321   9.179   6.894 -2.8812  1.9862  0.0493
  909MOL0     H22666   8.195   9.386   6.575  0.4827  1.1083  1.4824
  909MOL0     H22667   8.036   9.128   6.355 -0.6405  0.5612  0.7984
  909MOL0     H22668   8.022   9.290   6.423 -0.6512  0.2247  0.7810
  909MOL0     H22669   8.226   9.352   6.320 -1.4981 -0.6195  0.7763
  909MOL0     H22670   8.131   9.288   6.186  0.8462  2.4226 -1.2018
  909MOL0     H22671   8.232   9.069   6.206  0.4406 -1.4827 -0.3647
  909MOL0     H22672   8.339   9.118   6.338  0.3466 -0.4026 -0.0719
  909MOL0     H22673   8.318   9.279   6.076 -2.5292  0.6475  2.5570
  909MOL0     H22674   8.430   9.135   6.078 -0.9027  0.4290 -2.0567
  909MOL0     H22675   8.713   9.288   6.257 -0.6775 -1.1401 -0.0114
  909MOL0     H22676   8.998   9.446   6.159 -0.8742  0.6006 -3.0090
  909MOL0     H22677   8.928   9.303   6.244  0.4063 -2.0692 -1.5385
  909MOL0     H22678   8.994   9.285   6.089 -1.3626 -0.8276 -0.5551
  909MOL0     H22679   9.242   9.303   5.755  3.2640  0.4282 -0.2283
  909MOL0     H22680   9.459   9.410   5.737 -0.0987  0.1852  1.8614
  909MOL0     H22681   9.589   9.795   5.620  0.9559  0.6526  0.8049
  909MOL0     H22682   9.407   9.821   5.652 -1.9363  1.8228  4.3743
  909MOL0     H22683   9.557  10.006   5.745 -1.7787 -0.9792 -0.7940
  909MOL0     H22684   9.464   9.918   5.865 -2.1706  1.6455 -2.3434
  909MOL0     H22685   9.772   9.924   5.788  0.3252  1.3708 -0.5254
  909MOL0     H22686   9.718   9.791   5.900 -1.9539  0.1216  1.6474
  909MOL0     H22687   9.663  10.078   5.942 -0.8702  0.6765 -0.0690
  909MOL0     H22688   9.676   9.951   6.070  0.6585  0.7718 -0.3254
  909MOL0     H22689   9.923   9.935   5.995 -2.8848 -1.4621  1.7454
  909MOL0     H22690   9.868  10.045   6.111 -1.5917 -0.3416  0.1050
  909MOL0     H22691   9.913  10.111   5.801  0.4592 -2.0446  0.4394
  909MOL0     H22692   9.844  10.220   5.919  1.8625  1.2097  1.8400
  909MOL0     H22693  10.113  10.104   5.885  0.7650  0.5483 -0.8406
  909MOL0     H22694  10.079  10.174   6.048  1.2771  0.3550  0.0143
  909MOL0     H22695  10.011  10.391   5.893  1.8576  1.4465 -0.3974
  909MOL0     H22696  10.079  10.286   5.766 -0.2207  0.6594 -0.3657
  909MOL0     H22697   9.270   9.789   5.855  2.1901 -0.1644  1.1627
  909MOL0     H22698   9.071   9.668   5.927 -0.3552  4.2345 -3.7267
  909MOL0     H22699   8.633   9.440   5.794  0.3138 -0.8101 -0.4999
  909MOL0     H22700   8.448   9.394   5.942 -0.8034  0.4918  2.5384
  909MOL0     H22701   8.941   9.629   6.789  1.7335  2.2337 -1.5540
  909MOL0     H22702   9.045   9.527   6.963 -1.4119 -0.4348 -3.9837
  909MOL0     H22703   9.273   9.455   7.287  1.5286 -0.3575  1.0394
  909MOL0     H22704   9.323   9.258   7.433 -3.4938 -2.2830  0.4801
  909MOL0     H22705   9.430   9.263   7.778  0.1553  0.9847 -0.0753
  909MOL0     H22706   9.288   9.353   7.841 -2.5547 -1.4274  0.9334
  909MOL0     H22707   9.229   9.143   7.960 -1.1549 -1.8196 -1.5779
  909MOL0     H22708   9.401   9.186   7.995  0.7188 -1.3887  0.0250
  909MOL0     H22709   9.478   9.052   7.812 -2.2383  1.6481 -4.3265
  909MOL0     H22710   9.326   8.982   7.785  0.9802  2.6983 -1.8075
  909MOL0     H22711   9.436   8.831   7.938  0.9998  0.1247 -0.3236
  909MOL0     H22712   9.311   8.911   8.037 -1.2495  0.6762 -1.7204
  909MOL0     H22713   9.703   8.971   8.183 -0.1999 -0.9496 -0.9411
  909MOL0     H22714   9.088   9.401   7.749 -0.8575 -1.9902 -0.4965
  909MOL0     H22715   9.011   9.603   7.598 -1.3572  0.1899 -2.7637
  910MOL0     O22716   0.176   0.396   0.927  0.4000 -0.5008 -0.0450
  910MOL0     C22717   0.169   0.297   1.006  0.1733 -0.3245  0.3016
  910MOL0     O22718   0.253   0.259   1.101  0.1696 -0.6227 -0.9147
  910MOL0     C22719   0.374   0.322   1.109  0.6895 -0.1134 -0.2126
  910MOL0     C22720   0.381   0.433   1.193 -0.4794  1.1735  0.8733
  910MOL0     C22721   0.500   0.486   1.232 -0.5315 -0.8228 -0.4841
  910MOL0     C22722   0.614   0.443   1.169 -0.0550  0.5700  0.4399
  910MOL0     O22723   0.727   0.503   1.204 -0.2483  0.9255 -1.5062
  910MOL0     C22724   0.739   0.635   1.150 -1.0076  0.6382 -0.5553
  910MOL0     C22725   0.884   0.673   1.172 -0.7678 -0.0509  0.5896
  910MOL0     C22726   0.982   0.631   1.051 -0.6524 -0.7226  0.2136
  910MOL0     C22727   1.121   0.570   1.096  0.4801  0.3541  0.4523
  910MOL0     C22728   1.203   0.552   0.965  0.5775  0.4409 -0.9621
  910MOL0     C22729   1.342   0.506   0.995 -0.6079 -0.0202  0.0689
  910MOL0     C22730   1.344   0.357   1.045 -0.7983  0.5308  0.4569
  910MOL0     C22731   1.488   0.325   1.083 -0.6813 -0.0462  0.1936
  910MOL0     N22732   1.514   0.179   1.072 -0.5503 -0.0075 -0.1291
  910MOL0     C22733   1.526   0.113   0.952  0.8411 -0.3561  0.3922
  910MOL0     C22734   1.569  -0.008   0.993 -0.2792  0.2157  0.0742
  910MOL0     C22735   1.593  -0.124   0.889  0.0078 -0.0704  0.6727
  910MOL0     C22736   1.509  -0.250   0.914  0.2434 -1.5701 -0.8628
  910MOL0     C22737   1.361  -0.236   0.884  0.4733 -0.2570 -0.4385
  910MOL0     C22738   1.275  -0.364   0.893 -0.2636  0.0307 -0.5667
  910MOL0     O22739   1.251  -0.410   1.032 -0.3090  0.8628 -1.0387
  910MOL0     C22740   1.187  -0.531   1.044  0.5242 -0.3087  0.0109
  910MOL0     C22741   1.211  -0.602   1.162  0.0137 -0.5387  0.2856
  910MOL0     C22742   1.144  -0.727   1.202  1.0087 -0.3454 -0.6550
  910MOL0     C22743   1.176  -0.783   1.336 -0.1152 -0.3233 -0.5293
  910MOL0     C22744   1.058  -0.784   1.112 -0.2311 -0.8261 -0.0402
  910MOL0     C22745   0.995  -0.918   1.123 -0.3278 -0.1981  0.4812
  910MOL0     O22746   0.964  -0.983   1.002 -0.1571 -0.2254  0.0762
  910MOL0     C22747   0.887  -1.096   0.998  0.3842  0.2367 -0.0632
  910MOL0     C22748   0.944  -1.226   1.035  0.1936 -0.6712  1.3616
  910MOL0     C22749   0.878  -1.335   1.002  0.2074  0.4973 -0.7657
  910MOL0     C22750   0.746  -1.326   0.933 -0.1474  0.1289 -0.2094
  910MOL0     O22751   0.669  -1.438   0.904  0.6135 -0.5006  0.2267
  910MOL0     C22752   0.739  -1.571   0.914 -0.0859  0.1053  0.0805
  910MOL0     C22753   0.642  -1.673   0.867 -1.0143 -0.3222 -0.4220
  910MOL0     C22754   0.507  -1.704   0.937  0.3717  0.4739  0.5483
  910MOL0     C22755   0.527  -1.719   1.090 -0.1903  0.2967  0.2096
  910MOL0     C22756   0.396  -1.791   1.153  0.0155 -0.1162 -1.0518
  910MOL0     C22757   0.296  -1.679   1.187  0.1963  0.9904  0.9800
  910MOL0     C22758   0.167  -1.729   1.251 -0.0075 -1.3076  0.3485
  910MOL0     C22759   0.102  -1.848   1.181  0.2538  0.2868  1.0614
  910MOL0    Cl22760  -0.073  -1.870   1.221  0.3531  0.1065 -0.1094
  910MOL0     C22761   0.686  -1.204   0.900 -0.6408 -1.9152 -0.1577
  910MOL0     C22762   0.757  -1.084   0.942  0.0232  0.3799 -0.2734
  910MOL0     O22763   0.968  -0.957   1.233 -0.4289  0.2405 -0.1517
  910MOL0     C22764   1.033  -0.714   0.991 -0.3156 -0.3118  0.5336
  910MOL0     C22765   1.096  -0.593   0.952 -0.4227 -0.7238 -0.4341
  910MOL0     N22766   1.587  -0.010   1.132  0.6683  0.9402  0.3261
  910MOL0     N22767   1.553   0.109   1.175 -0.1222  0.3586 -0.6944
  910MOL0     C22768   0.613   0.340   1.071  0.3922  0.6755  0.8019
  910MOL0     C22769   0.487   0.286   1.034 -0.6213 -0.2170 -0.4211
  910MOL0     C22770   0.048   0.210   0.989 -0.1878 -0.7668  0.0486
  910MOL0     C22771  -0.047   0.237   0.885 -0.9602  0.0757  0.3460
  910MOL0     C22772  -0.156   0.147   0.862 -0.6718 -0.5491  0.1345
  910MOL0     C22773  -0.181   0.041   0.951  0.1663  0.5880 -1.1724
  910MOL0     O22774  -0.287  -0.044   0.960 -0.0728 -0.3200  0.9788
  910MOL0     C22775  -0.391  -0.027   0.853 -0.7075  0.5959  0.1454
  910MOL0     C22776  -0.507  -0.127   0.861  0.1160  0.0432 -0.1203
  910MOL0     C22777  -0.476  -0.259   0.789 -0.1234 -0.8416 -0.9132
  910MOL0     C22778  -0.584  -0.360   0.816  0.3634  0.8387  0.4366
  910MOL0     C22779  -0.558  -0.495   0.747  0.4509 -0.8680 -0.6079
  910MOL0     C22780  -0.518  -0.599   0.710  0.1907  0.3555  0.1666
  910MOL0     C22781  -0.085   0.027   1.061 -0.7159  0.2530  0.5985
  910MOL0     C22782   0.028   0.099   1.075  0.6938  0.1138  0.3688
  910MOL0     H22783   0.292   0.466   1.245 -1.5952  1.0021 -0.8477
  910MOL0     H22784   0.510   0.567   1.303  3.9219 -2.7488  1.4718
  910MOL0     H22785   0.725   0.628   1.041  0.0073  2.9497 -0.9026
  910MOL0     H22786   0.673   0.709   1.194 -2.1910 -0.9674  0.4491
  910MOL0     H22787   0.898   0.780   1.187 -1.7904  0.2004 -0.1433
  910MOL0     H22788   0.909   0.622   1.266 -1.1316  0.7189  1.1035
  910MOL0     H22789   0.924   0.559   0.993 -2.5533  0.3034  0.7662
  910MOL0     H22790   0.995   0.718   0.987 -0.5207  0.4719  1.8109
  910MOL0     H22791   1.176   0.625   1.173  0.9043  1.2227 -0.4553
  910MOL0     H22792   1.084   0.475   1.136 -1.2664  0.9073  0.2445
  910MOL0     H22793   1.156   0.478   0.899  2.8256 -2.5294  0.5763
  910MOL0     H22794   1.206   0.649   0.913  0.4874  1.6495  1.1803
  910MOL0     H22795   1.399   0.526   0.904  0.9757  0.4962  1.1348
  910MOL0     H22796   1.396   0.568   1.067  2.7779 -1.3235 -1.1409
  910MOL0     H22797   1.284   0.343   1.135 -1.4835 -0.1109 -0.0810
  910MOL0     H22798   1.299   0.291   0.970  0.3834 -0.5726  0.6829
  910MOL0     H22799   1.521   0.367   1.178  0.3396  2.3407 -1.1140
  910MOL0     H22800   1.560   0.368   1.013  2.3654 -1.1964  2.4587
  910MOL0     H22801   1.509   0.154   0.853 -1.4598  1.3505  1.4053
  910MOL0     H22802   1.585  -0.067   0.796  2.4437 -2.4484 -1.1981
  910MOL0     H22803   1.698  -0.154   0.896  0.3545  1.2707  1.4106
  910MOL0     H22804   1.515  -0.290   1.016 -0.2771 -1.5385 -0.8143
  910MOL0     H22805   1.564  -0.329   0.862 -1.1809 -3.5508  0.4564
  910MOL0     H22806   1.364  -0.188   0.786  0.8151  1.2801  0.2799
  910MOL0     H22807   1.319  -0.163   0.955 -1.5437 -2.2030  0.4727
  910MOL0     H22808   1.319  -0.444   0.831 -1.1456 -2.1494  1.4743
  910MOL0     H22809   1.178  -0.336   0.852  0.6811  2.9865 -1.0059
  910MOL0     H22810   1.281  -0.562   1.234 -0.4157 -2.0144  1.5865
  910MOL0     H22811   1.206  -0.710   1.412 -0.1914 -0.4086 -0.4166
  910MOL0     H22812   1.096  -0.828   1.395  3.0689 -2.0822  2.8533
  910MOL0     H22813   1.268  -0.843   1.337  0.7062  0.8806 -0.2101
  910MOL0     H22814   1.035  -1.237   1.093  0.1895 -0.6455  1.3724
  910MOL0     H22815   0.924  -1.433   1.015 -0.3377 -0.3091 -4.0595
  910MOL0     H22816   0.823  -1.563   0.846 -1.7059 -2.1710 -2.3874
  910MOL0     H22817   0.771  -1.588   1.017 -0.9420 -1.2249  0.1556
  910MOL0     H22818   0.628  -1.648   0.761  1.3217 -2.1568 -1.2441
  910MOL0     H22819   0.702  -1.765   0.873  1.4976  1.2516  0.0444
  910MOL0     H22820   0.480  -1.805   0.904  5.7015 -0.6803 -1.3411
  910MOL0     H22821   0.438  -1.624   0.910  0.1297  0.4207  1.0010
  910MOL0     H22822   0.607  -1.789   1.117 -0.1866 -1.3262 -3.3549
  910MOL0     H22823   0.546  -1.622   1.135  0.1193 -0.9699  2.9907
  910MOL0     H22824   0.416  -1.845   1.246  0.6694  0.7622 -0.6662
  910MOL0     H22825   0.352  -1.855   1.077 -0.2541  0.1977 -1.1649
  910MOL0     H22826   0.336  -1.593   1.242 -0.8828  0.3899  2.8250
  910MOL0     H22827   0.262  -1.643   1.089 -0.2595 -2.9502 -0.4876
  910MOL0     H22828   0.107  -1.638   1.263 -2.1081 -2.4572 -0.8072
  910MOL0     H22829   0.207  -1.763   1.347  3.2461 -0.1320 -0.4751
  910MOL0     H22830   0.157  -1.940   1.205 -2.6981 -1.6879  0.9058
  910MOL0     H22831   0.101  -1.833   1.072 -2.5371 -0.7587  0.8532
  910MOL0     H22832   0.600  -1.183   0.837  0.4558  3.4137 -0.3371
  910MOL0     H22833   0.741  -0.982   0.908  2.0746  1.0690  0.6708
  910MOL0     H22834   0.966  -0.762   0.920 -0.3137  0.9494 -0.3592
  910MOL0     H22835   1.071  -0.539   0.861  0.6430  1.6088  0.5675
  910MOL0     H22836   0.703   0.323   1.013 -1.2189 -0.3487 -1.5151
  910MOL0     H22837   0.478   0.200   0.970  0.4684 -0.5992 -0.0795
  910MOL0     H22838  -0.029   0.324   0.823  1.1710  0.3601  1.2645
  910MOL0     H22839  -0.225   0.175   0.784 -0.4160 -0.1093  0.0633
  910MOL0     H22840  -0.429   0.073   0.874  0.5829  0.7550  2.0666
  910MOL0     H22841  -0.336  -0.035   0.758 -0.1565 -0.2519  0.5199
  910MOL0     H22842  -0.594  -0.082   0.812  0.9225 -0.9164 -2.5250
  910MOL0     H22843  -0.529  -0.138   0.968  1.2631 -0.3039  0.0965
  910MOL0     H22844  -0.392  -0.308   0.840  1.2617  0.0953 -2.2412
  910MOL0     H22845  -0.452  -0.235   0.685 -1.9623  0.6051 -1.0439
  910MOL0     H22846  -0.679  -0.328   0.772 -0.6728  1.9410  3.2687
  910MOL0     H22847  -0.611  -0.365   0.922  1.9393 -0.0965  0.8298
  910MOL0     H22848  -0.464  -0.687   0.681  2.0403  1.5366 -0.1422
  910MOL0     H22849  -0.094  -0.046   1.141 -0.7481  1.0972  1.3737
  910MOL0     H22850   0.094   0.077   1.158  0.4303 -0.2642  0.4843
  911MOL0     O22851   3.238   1.991   2.026  0.2360  0.1281  0.3170
  911MOL0     C22852   3.136   1.976   2.090  0.8712 -0.1441 -0.5440
  911MOL0     O22853   3.036   1.884   2.072 -0.0459  0.2043 -0.1444
  911MOL0     C22854   3.027   1.791   1.975  1.2622 -0.8651  0.4800
  911MOL0     C22855   3.084   1.803   1.846 -0.1008  0.5071  0.4990
  911MOL0     C22856   3.065   1.703   1.747  0.5730  0.2679  0.7216
  911MOL0     C22857   2.994   1.581   1.778 -0.1380  0.5776  1.2712
  911MOL0     O22858   2.986   1.487   1.675  0.8104  0.2368 -0.2255
  911MOL0     C22859   3.112   1.443   1.628  0.4318 -0.3118  1.2077
  911MOL0     C22860   3.135   1.305   1.674  0.3158 -0.2898 -0.7088
  911MOL0     C22861   3.203   1.203   1.570 -1.2732 -0.3857 -0.3234
  911MOL0     C22862   3.338   1.270   1.532  0.8359  0.5678  0.9847
  911MOL0     C22863   3.451   1.271   1.636  0.0962 -0.4335 -0.1747
  911MOL0     C22864   3.466   1.136   1.705  0.7762 -0.0694 -0.3946
  911MOL0     C22865   3.556   1.135   1.823  0.0336 -0.0560 -0.6947
  911MOL0     C22866   3.514   1.031   1.945 -0.3202  0.4175  0.2439
  911MOL0     N22867   3.407   1.079   2.026 -0.0521 -0.3025 -0.3943
  911MOL0     C22868   3.275   1.038   2.006 -0.1486  0.5768 -0.1949
  911MOL0     C22869   3.211   1.100   2.105  0.3585 -0.7701  0.1827
  911MOL0     C22870   3.056   1.113   2.120  0.3450 -0.4811 -0.5334
  911MOL0     C22871   2.990   1.154   1.982 -0.5272 -1.3604  0.1219
  911MOL0     C22872   2.838   1.122   1.969 -0.9806 -0.4060 -0.2147
  911MOL0     C22873   2.754   1.184   2.078  0.5136  0.1355 -0.2693
  911MOL0     O22874   2.746   1.128   2.219  0.0817  0.3714 -0.8632
  911MOL0     C22875   2.696   0.998   2.236  0.1820  1.4051 -0.3169
  911MOL0     C22876   2.634   0.926   2.131 -0.3444 -0.1022  0.6580
  911MOL0     C22877   2.619   0.784   2.137  0.8461  0.0674 -0.7037
  911MOL0     C22878   2.570   0.703   2.025 -0.6256  0.3305  0.2278
  911MOL0     C22879   2.676   0.722   2.255  0.2111  0.4548 -0.3978
  911MOL0     C22880   2.679   0.575   2.271  0.0417  0.4562 -0.6021
  911MOL0     O22881   2.790   0.510   2.320  0.7640 -0.3875  0.8980
  911MOL0     C22882   2.779   0.384   2.381  0.1700 -0.4972  0.7938
  911MOL0     C22883   2.685   0.281   2.348  0.1407  0.0383  0.0477
  911MOL0     C22884   2.691   0.149   2.384  0.2895  0.3221  0.5052
  911MOL0     C22885   2.805   0.100   2.448  0.0945  0.4674 -0.4043
  911MOL0     O22886   2.825  -0.029   2.476 -0.2006  0.4655  0.8295
  911MOL0     C22887   2.705  -0.090   2.517 -0.1226  0.0710 -0.5762
  911MOL0     C22888   2.739  -0.222   2.598 -0.3571  0.0896  0.9551
  911MOL0     C22889   2.821  -0.219   2.725  0.4949 -0.3756  0.5766
  911MOL0     C22890   2.854  -0.357   2.784 -0.6078 -1.0880  0.3879
  911MOL0     C22891   2.934  -0.352   2.909  0.6714  0.0057 -0.0191
  911MOL0     C22892   2.970  -0.482   2.970  0.1887  0.0984  0.6860
  911MOL0     C22893   2.987  -0.486   3.117 -1.0623 -0.3266 -0.3643
  911MOL0     C22894   3.109  -0.561   3.158 -0.6110  0.3301 -1.1802
  911MOL0    Cl22895   3.266  -0.479   3.112  0.1883 -0.3633  0.0703
  911MOL0     C22896   2.899   0.189   2.481  0.3696  0.6906 -0.9568
  911MOL0     C22897   2.890   0.327   2.447  0.2536 -0.6882 -0.1821
  911MOL0     O22898   2.570   0.527   2.260  0.5323 -0.8379  0.1280
  911MOL0     C22899   2.730   0.788   2.364 -0.1656 -0.5785  0.2466
  911MOL0     C22900   2.740   0.927   2.353  0.1151  0.4578  0.0857
  911MOL0     N22901   3.311   1.170   2.191  0.5535  0.5237  0.2955
  911MOL0     N22902   3.423   1.159   2.134 -0.1372  0.9142 -0.3948
  911MOL0     C22903   2.931   1.567   1.902  0.8890 -0.4072  0.6779
  911MOL0     C22904   2.954   1.673   1.990 -0.6194 -0.6503  0.2429
  911MOL0     C22905   3.115   2.054   2.214  0.1910  0.0834  0.0694
  911MOL0     C22906   3.210   2.135   2.267 -0.3379  0.7323  0.3518
  911MOL0     C22907   3.200   2.200   2.387  0.4561 -0.5302 -0.1419
  911MOL0     C22908   3.084   2.163   2.467 -0.2544 -0.2240  0.8466
  911MOL0     O22909   3.046   2.225   2.579  0.3607 -0.7109 -0.2276
  911MOL0     C22910   3.133   2.327   2.645 -0.6573  0.6191  0.9268
  911MOL0     C22911   3.066   2.415   2.753  0.7792  0.4189 -0.1402
  911MOL0     C22912   2.941   2.488   2.696  0.6918  0.2326 -0.1504
  911MOL0     C22913   2.870   2.579   2.796 -0.1405  0.5159 -0.3940
  911MOL0     C22914   2.780   2.671   2.729 -0.0190  0.4558  0.7304
  911MOL0     C22915   2.697   2.738   2.672 -0.2403 -0.1211 -0.0718
  911MOL0     C22916   2.980   2.090   2.408  0.3105  0.4212 -0.5924
  911MOL0     C22917   2.996   2.037   2.286 -0.7636  0.1083  0.1469
  911MOL0     H22918   3.147   1.887   1.818  1.8676 -0.6842  1.1618
  911MOL0     H22919   3.117   1.713   1.652  2.6559  0.1999  1.8068
  911MOL0     H22920   3.096   1.449   1.520 -0.6087  2.2229  1.4150
  911MOL0     H22921   3.202   1.502   1.648  0.5742 -1.3267  3.9435
  911MOL0     H22922   3.189   1.314   1.769 -1.8510  1.7231  0.4197
  911MOL0     H22923   3.042   1.254   1.700 -2.3168  1.8150 -4.8752
  911MOL0     H22924   3.235   1.111   1.620  0.8345  0.7414  0.5342
  911MOL0     H22925   3.143   1.178   1.482 -0.9667 -1.7186 -0.1714
  911MOL0     H22926   3.371   1.210   1.446  2.1444  1.2358  0.9890
  911MOL0     H22927   3.326   1.371   1.491 -2.6285 -0.8852 -2.2005
  911MOL0     H22928   3.547   1.296   1.591 -0.0693 -0.1827 -0.3943
  911MOL0     H22929   3.426   1.349   1.709  0.6633  1.2109 -1.6593
  911MOL0     H22930   3.371   1.106   1.752  0.2376  2.4101  0.2765
  911MOL0     H22931   3.488   1.057   1.633 -0.7084 -2.2317  1.4029
  911MOL0     H22932   3.657   1.114   1.788 -0.1305 -1.4219 -0.4257
  911MOL0     H22933   3.552   1.229   1.877  1.9332 -1.7705  2.7742
  911MOL0     H22934   3.603   1.026   2.009 -1.1627 -1.2883  1.3328
  911MOL0     H22935   3.496   0.933   1.900 -0.5587  1.8371 -3.0046
  911MOL0     H22936   3.226   0.971   1.935  1.7406 -2.3138  1.0157
  911MOL0     H22937   3.019   1.021   2.166 -2.5229  0.9137  0.2147
  911MOL0     H22938   3.032   1.193   2.191 -2.0445 -0.5693 -1.1660
  911MOL0     H22939   3.035   1.091   1.904  1.5108 -3.5151  2.8434
  911MOL0     H22940   3.008   1.261   1.965 -1.4059 -0.8630  2.0989
  911MOL0     H22941   2.829   1.013   1.976  1.8740 -0.9244 -2.4688
  911MOL0     H22942   2.804   1.154   1.870  0.6583 -0.5915 -0.8664
  911MOL0     H22943   2.653   1.191   2.036  1.2941 -1.1515 -2.5433
  911MOL0     H22944   2.779   1.290   2.087  0.9681  0.0233 -0.1663
  911MOL0     H22945   2.603   0.959   2.032  1.9050 -2.5064 -0.9898
  911MOL0     H22946   2.550   0.769   1.940 -2.8348  0.9225  1.1559
  911MOL0     H22947   2.641   0.625   1.995  0.3673  0.5421  1.9084
  911MOL0     H22948   2.480   0.647   2.051  0.5924 -1.5185  0.7206
  911MOL0     H22949   2.615   0.294   2.266  1.0853 -1.1098 -0.9864
  911MOL0     H22950   2.608   0.082   2.362  0.3912  0.9302 -2.0096
  911MOL0     H22951   2.636  -0.031   2.578 -0.1852 -2.9761  2.5801
  911MOL0     H22952   2.643  -0.114   2.430  1.5629  0.1900 -1.8518
  911MOL0     H22953   2.643  -0.271   2.617  0.4451 -1.7299  0.5026
  911MOL0     H22954   2.794  -0.284   2.527 -2.0461  0.4079 -0.7282
  911MOL0     H22955   2.769  -0.159   2.800  0.8187  3.1806 -1.7931
  911MOL0     H22956   2.922  -0.181   2.708  1.7507 -2.3326  2.9578
  911MOL0     H22957   2.759  -0.408   2.802 -0.8584 -1.9993 -2.8274
  911MOL0     H22958   2.909  -0.422   2.715 -1.7987  0.6331 -2.3571
  911MOL0     H22959   2.866  -0.300   2.979  0.9104 -0.1340  0.3190
  911MOL0     H22960   3.021  -0.287   2.897  0.2242  0.5658 -0.2891
  911MOL0     H22961   2.895  -0.561   2.956 -0.3903  0.6358  0.6880
  911MOL0     H22962   3.056  -0.518   2.914 -0.4635  1.0716 -1.0207
  911MOL0     H22963   2.901  -0.534   3.165  0.6610 -1.8934  1.3855
  911MOL0     H22964   2.987  -0.388   3.166  1.3090  0.1766 -1.2517
  911MOL0     H22965   3.108  -0.661   3.114  3.0548 -1.5886  2.4542
  911MOL0     H22966   3.101  -0.577   3.265  1.0976 -0.8872 -1.2000
  911MOL0     H22967   2.982   0.145   2.536 -3.2817 -2.2457  2.8695
  911MOL0     H22968   2.981   0.384   2.466 -1.4735  2.2647 -0.1295
  911MOL0     H22969   2.767   0.742   2.455  0.4430  1.0563  0.8580
  911MOL0     H22970   2.787   0.986   2.431  0.4649  0.5635 -0.2041
  911MOL0     H22971   2.871   1.480   1.929  0.3606 -0.1698  0.3001
  911MOL0     H22972   2.930   1.651   2.094 -0.3482  3.5072  1.3548
  911MOL0     H22973   3.296   2.170   2.212 -0.4659  1.6229  0.7079
  911MOL0     H22974   3.284   2.261   2.419 -0.0720 -0.5354  1.3756
  911MOL0     H22975   3.217   2.271   2.687 -0.6231 -2.6119 -2.8929
  911MOL0     H22976   3.161   2.395   2.564 -0.5946 -1.4600 -0.8818
  911MOL0     H22977   3.130   2.488   2.804  1.6187 -3.1194  4.4183
  911MOL0     H22978   3.031   2.351   2.834  0.7772 -0.5274 -0.8660
  911MOL0     H22979   2.871   2.417   2.651 -4.0098  2.6944  2.4281
  911MOL0     H22980   2.976   2.556   2.617 -0.7202  5.2885  3.1024
  911MOL0     H22981   2.942   2.652   2.834 -0.2921  0.8783 -0.7975
  911MOL0     H22982   2.836   2.519   2.881  3.4660 -1.6264 -0.2197
  911MOL0     H22983   2.622   2.800   2.628  0.3521  0.6166 -0.0624
  911MOL0     H22984   2.889   2.059   2.457 -0.3924 -0.5146 -2.4032
  911MOL0     H22985   2.914   1.972   2.258  0.2322 -2.2725  2.3741
  912MOL0     O22986   2.745   4.512   9.357  0.8946  0.2460  0.0929
  912MOL0     C22987   2.717   4.501   9.477  0.4265 -0.7445 -0.0979
  912MOL0     O22988   2.662   4.395   9.535 -0.0450  0.4698 -0.2788
  912MOL0     C22989   2.654   4.280   9.456  0.4019  0.0640  0.3110
  912MOL0     C22990   2.741   4.168   9.487  0.6612  0.2561 -0.3732
  912MOL0     C22991   2.759   4.076   9.384  0.3028  0.6721 -0.3380
  912MOL0     C22992   2.685   4.077   9.264 -0.3140  0.2869  0.8083
  912MOL0     O22993   2.722   3.976   9.181 -0.6272  0.3331 -0.7855
  912MOL0     C22994   2.716   3.999   9.031  0.3809 -0.1506 -1.5416
  912MOL0     C22995   2.856   4.011   8.993 -0.5423  0.2069  0.0776
  912MOL0     C22996   2.926   4.134   9.018  0.7144 -0.0433  1.5949
  912MOL0     C22997   2.877   4.254   8.937  0.4650 -0.0195  0.2608
  912MOL0     C22998   2.954   4.390   8.947 -0.0902  0.3607 -0.0260
  912MOL0     C22999   3.096   4.376   8.888  0.1348  0.8624 -0.1597
  912MOL0     C23000   3.159   4.517   8.853  0.0669  0.6342 -0.0259
  912MOL0     C23001   3.308   4.507   8.806  0.7359 -0.5492  0.2023
  912MOL0     N23002   3.371   4.634   8.781 -0.1643  0.3611 -0.1273
  912MOL0     C23003   3.361   4.699   8.655 -0.3063  0.1922  0.7169
  912MOL0     C23004   3.442   4.802   8.674 -0.5912 -0.5377 -0.1382
  912MOL0     C23005   3.469   4.896   8.563 -0.1473 -0.0851  0.5056
  912MOL0     C23006   3.458   5.045   8.612  0.2691  1.0055  1.6600
  912MOL0     C23007   3.432   5.146   8.500 -0.8105 -0.2141  0.3925
  912MOL0     C23008   3.531   5.134   8.389  0.3954 -0.3106 -0.2668
  912MOL0     O23009   3.510   5.227   8.283 -0.2322 -0.8529  0.1536
  912MOL0     C23010   3.419   5.188   8.177 -0.3084  0.1391 -0.4843
  912MOL0     C23011   3.377   5.061   8.143  0.8669 -1.0675 -0.0611
  912MOL0     C23012   3.264   5.030   8.066  0.2305  0.7613  0.0849
  912MOL0     C23013   3.228   4.892   8.053  0.9622  0.7631  0.2520
  912MOL0     C23014   3.198   5.139   7.994 -0.0746  0.7973  0.0986
  912MOL0     C23015   3.074   5.119   7.920  0.6229 -0.4307  1.5469
  912MOL0     O23016   3.041   5.230   7.847  0.0131  0.2046 -0.3516
  912MOL0     C23017   2.947   5.233   7.751  0.5413  0.4047  0.1865
  912MOL0     C23018   2.968   5.300   7.625  0.0502 -0.1496  0.2104
  912MOL0     C23019   2.862   5.296   7.530 -1.0962 -0.1513  0.6823
  912MOL0     C23020   2.734   5.246   7.556 -0.7148  0.6140 -0.7651
  912MOL0     O23021   2.628   5.252   7.477 -0.5548 -0.0132 -0.5547
  912MOL0     C23022   2.643   5.287   7.338  0.8213  0.6246 -0.3868
  912MOL0     C23023   2.546   5.397   7.321 -0.1283 -0.8532 -0.3581
  912MOL0     C23024   2.504   5.426   7.173 -0.8618  0.2685  0.1393
  912MOL0     C23025   2.369   5.494   7.168  0.1153  0.3608 -0.3700
  912MOL0     C23026   2.322   5.490   7.020  0.5705 -0.1425  0.3906
  912MOL0     C23027   2.167   5.523   6.996 -0.2500  0.8956  0.4816
  912MOL0     C23028   2.123   5.657   7.052 -0.1948  0.4662 -0.5374
  912MOL0     C23029   2.199   5.777   6.998  0.0832 -0.0251 -1.3792
  912MOL0    Cl23030   2.151   5.856   6.840 -0.5432  0.3893 -0.0143
  912MOL0     C23031   2.719   5.182   7.673  0.3920  0.0911 -0.4573
  912MOL0     C23032   2.819   5.181   7.769 -0.6354  0.7997 -0.5648
  912MOL0     O23033   3.021   5.011   7.913 -0.7877 -1.1324 -0.6528
  912MOL0     C23034   3.252   5.262   8.017  0.6291  0.7355  0.6077
  912MOL0     C23035   3.355   5.284   8.110  0.6176 -0.5845  0.4118
  912MOL0     N23036   3.502   4.795   8.792  0.0450 -0.1172 -0.3923
  912MOL0     N23037   3.462   4.699   8.863 -0.0840 -0.1378  0.1055
  912MOL0     C23038   2.590   4.167   9.247  0.4457 -0.6561 -0.2020
  912MOL0     C23039   2.579   4.273   9.343  0.7864 -0.3205 -0.2774
  912MOL0     C23040   2.772   4.612   9.560  0.3466  0.2150 -0.3289
  912MOL0     C23041   2.774   4.615   9.697 -0.5586  0.6199 -0.5684
  912MOL0     C23042   2.838   4.715   9.777  0.5522  0.3699  0.4720
  912MOL0     C23043   2.872   4.837   9.700  0.4907  0.4162  0.7362
  912MOL0     O23044   2.914   4.952   9.754  0.1050  0.0450 -0.1393
  912MOL0     C23045   3.018   4.938   9.854  0.0199 -0.6925 -0.0199
  912MOL0     C23046   3.131   5.041   9.832  0.2463 -0.0444  0.0631
  912MOL0     C23047   3.211   5.049   9.699 -0.8098  0.7508 -0.0067
  912MOL0     C23048   3.329   4.948   9.682  0.2150  0.2054  0.4284
  912MOL0     C23049   3.277   4.814   9.710  0.2839 -0.5470 -0.4725
  912MOL0     C23050   3.251   4.697   9.723 -0.2075  0.7177 -0.1135
  912MOL0     C23051   2.851   4.844   9.564  0.2622 -0.5446  1.3360
  912MOL0     C23052   2.808   4.733   9.492 -1.1252 -0.1126 -0.2166
  912MOL0     H23053   2.813   4.165   9.569  3.6834 -1.0604 -2.8377
  912MOL0     H23054   2.832   3.995   9.386 -0.6837 -0.5084 -3.9708
  912MOL0     H23055   2.670   3.913   8.982 -0.6527 -0.2450 -0.4467
  912MOL0     H23056   2.651   4.082   8.999 -3.0269 -2.5677 -1.3632
  912MOL0     H23057   2.899   3.927   9.050 -2.5712 -1.1492 -0.3024
  912MOL0     H23058   2.867   3.996   8.885  1.5219  0.7620  0.1640
  912MOL0     H23059   2.907   4.171   9.119  1.0475  2.2127  0.8885
  912MOL0     H23060   3.030   4.117   8.988  0.4439 -0.4512  0.8712
  912MOL0     H23061   2.879   4.223   8.832  0.5913  3.0829 -0.7328
  912MOL0     H23062   2.774   4.272   8.969  0.9123  1.2382  1.0794
  912MOL0     H23063   2.899   4.469   8.895 -1.0082 -0.2989 -0.0994
  912MOL0     H23064   2.948   4.423   9.051 -1.9342  0.6217 -0.1775
  912MOL0     H23065   3.154   4.324   8.965 -2.1818  2.0836  2.5919
  912MOL0     H23066   3.096   4.315   8.798  0.7688 -0.3283  0.6218
  912MOL0     H23067   3.102   4.560   8.770  0.2109  1.2469  0.1914
  912MOL0     H23068   3.147   4.599   8.924  0.4429  2.5169 -2.0153
  912MOL0     H23069   3.319   4.464   8.706  0.8355 -0.5154  0.1986
  912MOL0     H23070   3.363   4.444   8.876  0.6401 -1.6688 -0.6913
  912MOL0     H23071   3.312   4.672   8.563  1.1153 -1.1581  0.3011
  912MOL0     H23072   3.572   4.892   8.525 -1.1691 -0.4060 -2.5024
  912MOL0     H23073   3.427   4.862   8.468 -0.7715 -1.9553  1.4036
  912MOL0     H23074   3.540   5.072   8.679  0.0460 -0.6228  2.6362
  912MOL0     H23075   3.367   5.049   8.673 -2.1562 -1.7724 -1.4355
  912MOL0     H23076   3.416   5.251   8.525  1.1568 -0.0553  1.0814
  912MOL0     H23077   3.335   5.121   8.456 -0.6533  2.3898 -1.6683
  912MOL0     H23078   3.552   5.035   8.350  1.4749  0.3335 -1.3879
  912MOL0     H23079   3.623   5.166   8.440  1.0292 -0.6609 -1.1804
  912MOL0     H23080   3.411   4.982   8.209 -0.8388  1.1615  3.8508
  912MOL0     H23081   3.227   4.875   7.945 -1.3285  1.6418  0.0770
  912MOL0     H23082   3.285   4.820   8.112 -1.0914  0.7917  2.4409
  912MOL0     H23083   3.124   4.870   8.081  1.0136 -0.4330 -0.4707
  912MOL0     H23084   3.063   5.349   7.612  0.7344 -1.4559  0.1321
  912MOL0     H23085   2.889   5.338   7.434  0.4701  1.3341  1.7193
  912MOL0     H23086   2.743   5.314   7.303  0.4735  0.8439 -1.2390
  912MOL0     H23087   2.608   5.195   7.292  0.9075  0.1866  0.4078
  912MOL0     H23088   2.459   5.360   7.376  0.6386 -2.2997 -0.0701
  912MOL0     H23089   2.581   5.482   7.381 -2.7419 -0.1522  0.2956
  912MOL0     H23090   2.501   5.335   7.113  2.2154  0.3473 -0.2971
  912MOL0     H23091   2.579   5.490   7.125 -1.0276 -0.0968 -0.6145
  912MOL0     H23092   2.304   5.434   7.232 -0.1646  0.9066 -0.1341
  912MOL0     H23093   2.355   5.594   7.212 -2.6809 -0.2980  0.4496
  912MOL0     H23094   2.331   5.390   6.976  1.0078  0.9447 -2.1889
  912MOL0     H23095   2.381   5.561   6.961  0.7906 -2.1183 -1.9580
  912MOL0     H23096   2.142   5.514   6.890  0.1453 -0.6730  0.4987
  912MOL0     H23097   2.105   5.442   7.034 -0.3791  0.0145 -1.4743
  912MOL0     H23098   2.144   5.650   7.159  1.6341 -2.4380 -0.9916
  912MOL0     H23099   2.019   5.677   7.024 -0.1870  0.7935 -0.3315
  912MOL0     H23100   2.307   5.757   6.990  1.4409  4.2278  2.1521
  912MOL0     H23101   2.197   5.857   7.073  0.2551 -2.1783  1.0478
  912MOL0     H23102   2.627   5.129   7.696  0.0212  1.8839  2.9404
  912MOL0     H23103   2.807   5.139   7.869 -1.0525  0.0032 -0.9461
  912MOL0     H23104   3.203   5.351   7.978 -0.1092  2.1967  4.3803
  912MOL0     H23105   3.392   5.383   8.132 -3.9797  0.5763  4.5145
  912MOL0     H23106   2.528   4.176   9.159 -1.9552 -1.2783  1.3193
  912MOL0     H23107   2.515   4.356   9.313 -0.8056  0.0114  3.4918
  912MOL0     H23108   2.729   4.526   9.741 -1.1193  0.2352 -1.8547
  912MOL0     H23109   2.849   4.711   9.885  1.0337 -1.6160  0.3881
  912MOL0     H23110   2.963   4.959   9.946 -2.8625 -1.3148 -1.4781
  912MOL0     H23111   3.054   4.835   9.865 -0.5917 -0.6654  3.4932
  912MOL0     H23112   3.208   5.036   9.910 -1.2985 -3.9791  1.5340
  912MOL0     H23113   3.090   5.141   9.847 -0.4095 -0.7356  3.6651
  912MOL0     H23114   3.268   5.142   9.690  2.0016 -0.6252  1.9877
  912MOL0     H23115   3.151   5.034   9.609  0.3862  2.9762 -1.2720
  912MOL0     H23116   3.399   4.961   9.765 -1.2812 -2.2628  2.2295
  912MOL0     H23117   3.369   4.973   9.583 -1.7529  2.7965  0.1787
  912MOL0     H23118   3.219   4.597   9.700 -1.0055  1.1534 -0.9411
  912MOL0     H23119   2.881   4.931   9.507  0.1291  0.0867  2.2213
  912MOL0     H23120   2.815   4.743   9.384  1.9675  1.4360  0.0142
  913MOL0     O23121   3.402   8.029   8.503  0.1988 -0.8616  0.7185
  913MOL0     C23122   3.513   7.980   8.476  0.5420 -1.0476  0.0235
  913MOL0     O23123   3.534   7.884   8.377  0.7884 -0.0051  0.1792
  913MOL0     C23124   3.430   7.843   8.297 -0.0016 -1.1830 -0.0363
  913MOL0     C23125   3.452   7.710   8.259  0.5743  0.2920  0.4893
  913MOL0     C23126   3.355   7.643   8.173 -0.5217  0.4175 -0.2958
  913MOL0     C23127   3.242   7.703   8.126  0.0453 -0.2021 -0.3591
  913MOL0     O23128   3.150   7.640   8.045  0.1127 -0.2592  0.4941
  913MOL0     C23129   3.212   7.573   7.932 -0.1892  1.0674 -0.1615
  913MOL0     C23130   3.190   7.655   7.807  0.4400 -0.2996 -0.0773
  913MOL0     C23131   3.054   7.721   7.778 -0.1860 -0.1488 -0.4971
  913MOL0     C23132   3.048   7.768   7.633  0.0694 -0.5523 -0.2288
  913MOL0     C23133   2.903   7.789   7.599  0.1054 -0.8716  0.1634
  913MOL0     C23134   2.887   7.809   7.442 -0.5732 -0.0068 -0.3835
  913MOL0     C23135   2.751   7.794   7.382  0.0353  0.9669 -0.7873
  913MOL0     C23136   2.627   7.750   7.469 -0.4530 -0.1056  0.1477
  913MOL0     N23137   2.643   7.617   7.522  0.0644 -0.1704  1.0161
  913MOL0     C23138   2.650   7.503   7.442  0.3168 -0.3533 -0.5433
  913MOL0     C23139   2.588   7.400   7.511  0.3505  0.7009  0.1323
  913MOL0     C23140   2.567   7.251   7.470 -0.3913  1.8072  0.6579
  913MOL0     C23141   2.573   7.144   7.576 -0.0549  0.0007 -0.0655
  913MOL0     C23142   2.537   6.999   7.519  0.7926  0.3618 -0.7454
  913MOL0     C23143   2.554   6.890   7.621  0.2285  0.4025 -1.0938
  913MOL0     O23144   2.681   6.836   7.606 -1.7313 -0.3903  1.0386
  913MOL0     C23145   2.727   6.742   7.693 -0.2739  0.1260  0.1875
  913MOL0     C23146   2.643   6.664   7.776 -0.1738  0.1623  0.4614
  913MOL0     C23147   2.695   6.561   7.859  0.3911 -1.1282 -0.2134
  913MOL0     C23148   2.597   6.481   7.933  0.3499 -0.0525 -0.8179
  913MOL0     C23149   2.832   6.517   7.846  0.6174  0.3734  0.1198
  913MOL0     C23150   2.907   6.404   7.909 -0.0634 -0.3302  0.1491
  913MOL0     O23151   3.045   6.407   7.916 -0.5462  0.4285 -0.5927
  913MOL0     C23152   3.114   6.304   7.967 -0.1419 -0.3199 -0.1976
  913MOL0     C23153   3.220   6.343   8.050  0.9188 -0.1753  0.2652
  913MOL0     C23154   3.282   6.246   8.129 -0.4795 -0.7489  0.6256
  913MOL0     C23155   3.252   6.110   8.110 -0.5778 -0.0818 -0.0833
  913MOL0     O23156   3.343   6.013   8.155  0.6792 -0.1584 -0.1923
  913MOL0     C23157   3.310   5.868   8.141  1.0697  0.8407  0.6020
  913MOL0     C23158   3.396   5.785   8.235  0.2795 -0.7603  0.2588
  913MOL0     C23159   3.367   5.812   8.388 -0.3649  0.2022  1.7619
  913MOL0     C23160   3.414   5.690   8.478 -0.1031  0.7142 -0.2264
  913MOL0     C23161   3.407   5.728   8.624  0.2549 -0.4717  0.4654
  913MOL0     C23162   3.488   5.631   8.720 -0.6637 -0.3266  0.2836
  913MOL0     C23163   3.630   5.601   8.689  0.8735  0.3087  0.4262
  913MOL0     C23164   3.713   5.557   8.794  0.2689 -0.0799 -0.7762
  913MOL0    Cl23165   3.633   5.419   8.878 -0.2883  0.1931 -0.2921
  913MOL0     C23166   3.158   6.078   8.016  0.3129  0.6138 -0.3659
  913MOL0     C23167   3.075   6.165   7.942 -0.1438 -0.6747 -0.0946
  913MOL0     O23168   2.832   6.308   7.947  0.5658  0.1849  0.6915
  913MOL0     C23169   2.907   6.602   7.762 -0.3529  0.2383  0.0536
  913MOL0     C23170   2.859   6.712   7.689 -0.1326  1.0957  0.1075
  913MOL0     N23171   2.549   7.452   7.634 -0.3926  0.4930  0.3024
  913MOL0     N23172   2.582   7.577   7.639 -0.3049 -0.4208  0.2898
  913MOL0     C23173   3.232   7.835   8.163  0.3103 -0.2892 -0.6505
  913MOL0     C23174   3.315   7.905   8.250 -0.4569 -0.4837  0.1630
  913MOL0     C23175   3.619   8.021   8.562 -0.2820 -0.6905 -0.2813
  913MOL0     C23176   3.593   8.120   8.664  0.0723  0.2574 -0.6228
  913MOL0     C23177   3.693   8.155   8.759  0.0954  0.7355 -0.7026
  913MOL0     C23178   3.813   8.089   8.759 -0.5608  0.3973  0.0301
  913MOL0     O23179   3.899   8.122   8.856  0.3231  0.0058 -0.3432
  913MOL0     C23180   3.979   8.237   8.819 -0.9691  0.0528  0.5623
  913MOL0     C23181   4.122   8.258   8.874 -0.2631 -0.3955  0.4386
  913MOL0     C23182   4.199   8.122   8.861  0.0017  1.2906  0.0202
  913MOL0     C23183   4.275   8.120   8.724  0.1042 -0.1215 -0.0998
  913MOL0     C23184   4.407   8.189   8.742  0.6107  0.2293  0.3784
  913MOL0     C23185   4.515   8.236   8.746 -0.1080 -0.0968 -0.0390
  913MOL0     C23186   3.836   7.975   8.668 -0.2880 -0.1580  0.2055
  913MOL0     C23187   3.740   7.949   8.568 -0.2488 -0.3676  0.7152
  913MOL0     H23188   3.537   7.656   8.298  0.7278 -0.0524 -0.2888
  913MOL0     H23189   3.376   7.538   8.157  3.0399  0.7378  1.3450
  913MOL0     H23190   3.320   7.563   7.948  0.0610  2.7408 -0.6005
  913MOL0     H23191   3.170   7.473   7.917  2.0567 -0.1324  1.1048
  913MOL0     H23192   3.251   7.746   7.813 -0.9928  0.6967 -0.2368
  913MOL0     H23193   3.222   7.591   7.725  2.4419  2.6517 -1.7922
  913MOL0     H23194   2.981   7.640   7.787  0.6919 -0.7891  1.5207
  913MOL0     H23195   3.007   7.789   7.849  0.5410 -0.2241  0.0704
  913MOL0     H23196   3.107   7.859   7.622  1.1249 -0.8123  2.5893
  913MOL0     H23197   3.094   7.703   7.558  0.7750  0.0982 -0.3677
  913MOL0     H23198   2.840   7.703   7.626 -3.1125  1.6734  1.4034
  913MOL0     H23199   2.858   7.868   7.659  1.9943 -1.0610  1.9111
  913MOL0     H23200   2.912   7.915   7.438  0.2024 -0.2174 -2.2470
  913MOL0     H23201   2.958   7.749   7.385  0.0273  1.2885 -1.0311
  913MOL0     H23202   2.724   7.882   7.323 -1.7382  2.2123  1.7022
  913MOL0     H23203   2.751   7.708   7.314  0.0386  0.8532 -0.6446
  913MOL0     H23204   2.541   7.750   7.400  1.5184 -0.7218 -2.4850
  913MOL0     H23205   2.610   7.826   7.546 -1.4267  0.8356 -0.9530
  913MOL0     H23206   2.689   7.493   7.341 -1.4362 -2.0290 -1.1048
  913MOL0     H23207   2.475   7.231   7.414  0.7178 -3.2880  0.1953
  913MOL0     H23208   2.644   7.231   7.395 -1.7161 -1.8640  0.0641
  913MOL0     H23209   2.517   7.179   7.663 -1.5804  1.7337 -1.6664
  913MOL0     H23210   2.679   7.143   7.603 -0.4083  1.4803  1.5684
  913MOL0     H23211   2.602   6.978   7.434  0.7209  1.2967 -1.0362
  913MOL0     H23212   2.439   6.999   7.472  0.3588  0.5254  0.1324
  913MOL0     H23213   2.478   6.812   7.607 -1.8559  2.0825  0.1748
  913MOL0     H23214   2.547   6.913   7.728  1.7595 -7.1448  1.2117
  913MOL0     H23215   2.535   6.670   7.766 -0.1693 -2.0253 -1.8566
  913MOL0     H23216   2.635   6.457   8.033  0.8446  1.3374 -0.6484
  913MOL0     H23217   2.506   6.541   7.940  1.0330  1.0314 -0.9727
  913MOL0     H23218   2.548   6.394   7.889 -1.2462 -0.1233  0.9965
  913MOL0     H23219   3.260   6.442   8.071 -1.8284  0.5503  2.7986
  913MOL0     H23220   3.365   6.282   8.189 -0.9569 -0.1921  0.9609
  913MOL0     H23221   3.210   5.837   8.172  0.0510 -2.5312 -4.6735
  913MOL0     H23222   3.324   5.847   8.034 -2.5926  1.5695 -0.1287
  913MOL0     H23223   3.392   5.677   8.219  0.3858 -0.5790 -1.0847
  913MOL0     H23224   3.500   5.802   8.206  0.3203 -1.0188  0.2531
  913MOL0     H23225   3.260   5.823   8.405 -0.7653 -2.1155  1.1550
  913MOL0     H23226   3.433   5.890   8.427 -0.7161 -0.3760  3.6545
  913MOL0     H23227   3.348   5.608   8.448 -0.6780  0.3092  2.0153
  913MOL0     H23228   3.510   5.646   8.449  0.8520  1.8765  1.0814
  913MOL0     H23229   3.309   5.713   8.671  0.5122 -2.0980  0.5465
  913MOL0     H23230   3.442   5.830   8.641  1.8234  0.0822 -4.5344
  913MOL0     H23231   3.481   5.665   8.823 -0.2586 -1.6566  0.7711
  913MOL0     H23232   3.459   5.525   8.716 -0.3164 -0.4691  1.3398
  913MOL0     H23233   3.666   5.700   8.657 -0.1708  1.0988  1.5901
  913MOL0     H23234   3.634   5.524   8.611 -0.9103 -0.8049  1.3624
  913MOL0     H23235   3.742   5.627   8.872 -2.0141 -2.6939  2.7355
  913MOL0     H23236   3.806   5.524   8.747  0.2880 -2.7975  0.9307
  913MOL0     H23237   3.134   5.973   8.008 -1.0537  0.8582  0.1259
  913MOL0     H23238   3.002   6.139   7.867  1.5249 -1.4957 -1.5154
  913MOL0     H23239   3.008   6.572   7.734  0.3410  0.0510  2.5140
  913MOL0     H23240   2.924   6.759   7.617 -0.0436 -1.2372 -1.4475
  913MOL0     H23241   3.152   7.902   8.135  0.7900 -0.1494 -1.7113
  913MOL0     H23242   3.293   8.004   8.289  1.3214  0.0233 -0.0087
  913MOL0     H23243   3.503   8.178   8.682  0.6585  1.4565 -1.4275
  913MOL0     H23244   3.686   8.231   8.836  1.1810  0.0811  0.0715
  913MOL0     H23245   3.984   8.244   8.710 -3.6663  1.3949  0.4440
  913MOL0     H23246   3.908   8.318   8.838 -1.2582  0.3059 -1.3298
  913MOL0     H23247   4.122   8.296   8.976 -1.3424 -0.2206  0.3852
  913MOL0     H23248   4.176   8.338   8.821  1.4702  1.3059  4.4048
  913MOL0     H23249   4.124   8.043   8.868  2.2144 -1.1694 -1.9889
  913MOL0     H23250   4.267   8.116   8.946 -1.3753 -3.0325  1.0504
  913MOL0     H23251   4.211   8.165   8.648  0.9484 -0.8748 -1.2938
  913MOL0     H23252   4.290   8.015   8.695 -0.5714  0.1330 -1.4904
  913MOL0     H23253   4.610   8.281   8.769  1.0139 -4.0495  5.0235
  913MOL0     H23254   3.917   7.903   8.677 -0.5226 -0.2931  1.5524
  913MOL0     H23255   3.756   7.860   8.508  0.4142 -2.1758  3.3879
  914MOL0     O23256  10.430   0.799  10.434 -0.0370 -0.1831 -0.5751
  914MOL0     C23257  10.437   0.920  10.428 -0.0097 -0.7878  0.6876
  914MOL0     O23258  10.334   1.004  10.381  0.1871  0.2071  0.1449
  914MOL0     C23259  10.211   0.944  10.348  0.0077 -0.4258 -0.1074
  914MOL0     C23260  10.200   0.838  10.269  0.3056  1.2411  0.5521
  914MOL0     C23261  10.080   0.778  10.232 -0.3795  0.8195 -0.3981
  914MOL0     C23262   9.964   0.824  10.271  0.7330  0.3414  0.5578
  914MOL0     O23263   9.847   0.773  10.223 -0.1820  0.1872  0.5144
  914MOL0     C23264   9.766   0.863  10.152  0.6165  0.0052  0.7034
  914MOL0     C23265   9.814   0.877  10.000 -1.2024  0.7730 -0.3718
  914MOL0     C23266   9.811   0.748   9.924  0.0261  0.1075 -0.5769
  914MOL0     C23267   9.663   0.718   9.890  0.0008 -0.0003  0.0886
  914MOL0     C23268   9.676   0.583   9.825 -0.1756  0.2644 -0.0837
  914MOL0     C23269   9.518   0.538   9.811 -0.2999  1.3693  0.4648
  914MOL0     C23270   9.496   0.450   9.685 -0.1284  0.3249  0.2867
  914MOL0     C23271   9.357   0.384   9.694 -0.7235  0.4464  0.3264
  914MOL0     N23272   9.340   0.330   9.561 -0.2139 -0.5234 -0.3054
  914MOL0     C23273   9.318   0.379   9.435  0.5285  0.3493  0.0506
  914MOL0     C23274   9.326   0.281   9.344 -0.8831 -0.4348  0.3372
  914MOL0     C23275   9.303   0.280   9.203 -0.9452 -0.7705  0.7577
  914MOL0     C23276   9.154   0.275   9.167 -0.1782 -0.2213  0.4745
  914MOL0     C23277   9.099   0.128   9.204 -0.5241 -0.1206 -0.8505
  914MOL0     C23278   8.959   0.095   9.146  0.2974 -0.2070  0.2077
  914MOL0     O23279   8.858   0.195   9.188 -0.5908  1.0619 -0.3035
  914MOL0     C23280   8.727   0.188   9.149 -0.1645  0.2794 -0.5110
  914MOL0     C23281   8.629   0.204   9.249 -0.0585  1.1034 -0.5925
  914MOL0     C23282   8.503   0.239   9.215  0.2599  0.1875 -0.0408
  914MOL0     C23283   8.408   0.272   9.323 -0.1548 -0.1042 -0.4675
  914MOL0     C23284   8.465   0.245   9.077 -0.6949  0.6828  0.7091
  914MOL0     C23285   8.332   0.280   9.030 -0.2944  0.4736  0.6028
  914MOL0     O23286   8.323   0.377   8.932  0.0012 -0.4965  0.2153
  914MOL0     C23287   8.209   0.390   8.852  0.4087  0.7654 -0.1150
  914MOL0     C23288   8.215   0.349   8.719 -0.1222  0.0980  1.0100
  914MOL0     C23289   8.085   0.342   8.643 -0.6299 -0.1156 -0.5065
  914MOL0     C23290   7.970   0.392   8.697 -0.4694 -0.7371 -0.0125
  914MOL0     O23291   7.866   0.404   8.616 -0.4009 -0.4129 -0.6737
  914MOL0     C23292   7.746   0.352   8.670  0.7782  0.7459 -0.0460
  914MOL0     C23293   7.663   0.336   8.545 -0.7515  0.9564 -0.7303
  914MOL0     C23294   7.520   0.301   8.588 -0.0626  0.0549 -0.3497
  914MOL0     C23295   7.485   0.169   8.532 -0.0639 -0.2297 -0.2552
  914MOL0     C23296   7.359   0.099   8.586  0.0201  0.3191 -0.1771
  914MOL0     C23297   7.378   0.032   8.716  0.8366  0.2319 -0.2030
  914MOL0     C23298   7.261   0.035   8.812 -0.7501  0.3182 -0.0872
  914MOL0     C23299   7.168   0.156   8.810  0.2078  0.9527  0.0782
  914MOL0    Cl23300   7.041   0.128   8.686  0.5491  0.2348 -0.2410
  914MOL0     C23301   7.971   0.450   8.825 -1.7270  0.3016  0.0254
  914MOL0     C23302   8.092   0.448   8.899 -0.5033  0.5866 -0.4204
  914MOL0     O23303   8.244   0.204   9.069  0.7703  0.2483 -0.4298
  914MOL0     C23304   8.560   0.213   8.976 -0.3001  0.4349 -0.4364
  914MOL0     C23305   8.702   0.187   9.014  0.7746 -0.2232  0.1960
  914MOL0     N23306   9.369   0.167   9.416 -0.6958  0.1990  0.4664
  914MOL0     N23307   9.377   0.201   9.540  0.3023 -0.8012 -0.5657
  914MOL0     C23308   9.966   0.948  10.345  0.3559  0.2355 -0.1302
  914MOL0     C23309  10.086   0.990  10.396 -0.1009 -0.5994 -0.2620
  914MOL0     C23310  10.565   0.987  10.458  0.9086 -0.4028  0.4718
  914MOL0     C23311  10.685   0.941  10.402  0.0426 -0.2662  0.2722
  914MOL0     C23312  10.808   1.005  10.423  0.1707 -0.2780 -0.6546
  914MOL0     C23313  10.806   1.119  10.507 -0.5353 -0.1905  0.1708
  914MOL0     O23314  10.934   1.167  10.539  1.3799 -0.0129 -0.2412
  914MOL0     C23315  10.947   1.216  10.673  0.4074 -0.1720  0.1392
  914MOL0     C23316  11.090   1.287  10.678  0.3524 -0.1745  0.2288
  914MOL0     C23317  11.099   1.389  10.793  0.4263 -0.1505 -1.1598
  914MOL0     C23318  11.090   1.332  10.940 -0.5683 -0.5814 -0.5941
  914MOL0     C23319  11.152   1.420  11.043  0.4599  0.5597  0.4214
  914MOL0     C23320  11.227   1.480  11.110 -1.2447 -0.0226 -0.4514
  914MOL0     C23321  10.692   1.165  10.572 -0.4870  0.4145  0.0150
  914MOL0     C23322  10.575   1.094  10.546  0.7441  0.0772  0.2201
  914MOL0     H23323  10.290   0.784  10.244 -0.4467  0.6170 -0.9455
  914MOL0     H23324  10.082   0.692  10.165 -2.9071 -2.5428  3.3770
  914MOL0     H23325   9.664   0.824  10.151  1.8981 -3.8368  1.8892
  914MOL0     H23326   9.750   0.960  10.199 -1.7867 -0.5305  1.1122
  914MOL0     H23327   9.763   0.954   9.942  0.0715  0.0942 -2.5256
  914MOL0     H23328   9.919   0.909   9.999 -1.2277  0.9457  0.7284
  914MOL0     H23329   9.866   0.761   9.830  0.0822  4.9043 -0.1190
  914MOL0     H23330   9.857   0.664   9.976  2.8848  1.6746 -0.3501
  914MOL0     H23331   9.592   0.714   9.972 -3.4415  4.4417 -2.2466
  914MOL0     H23332   9.624   0.795   9.823 -3.1936 -0.6242  1.0935
  914MOL0     H23333   9.709   0.592   9.721 -1.6100 -2.5242 -0.8717
  914MOL0     H23334   9.743   0.511   9.873  0.6557  0.8464 -0.3457
  914MOL0     H23335   9.499   0.468   9.893 -4.3727  2.4733  0.6481
  914MOL0     H23336   9.451   0.623   9.822 -1.2332  0.4710  2.0640
  914MOL0     H23337   9.489   0.505   9.591  0.4729  0.2929  0.2183
  914MOL0     H23338   9.576   0.379   9.663  0.2900  1.4791 -2.3693
  914MOL0     H23339   9.276   0.456   9.707 -0.8840  0.6896 -1.6055
  914MOL0     H23340   9.361   0.294   9.756  3.0653 -0.6883 -1.2137
  914MOL0     H23341   9.282   0.477   9.406 -2.7382 -1.3527 -2.2722
  914MOL0     H23342   9.342   0.376   9.169 -0.2623 -1.2690  0.1098
  914MOL0     H23343   9.366   0.202   9.159 -0.2999  0.3981 -0.4650
  914MOL0     H23344   9.139   0.282   9.059 -2.9354 -0.1804  0.7785
  914MOL0     H23345   9.114   0.364   9.217  2.0214 -0.9502  3.8638
  914MOL0     H23346   9.093   0.122   9.313 -3.2435 -0.6072 -0.9468
  914MOL0     H23347   9.174   0.059   9.165 -1.2340  0.8429 -4.3373
  914MOL0     H23348   8.939  -0.008   9.174  1.0151  0.3570  3.0781
  914MOL0     H23349   8.964   0.095   9.036  0.3162 -0.8441  0.2086
  914MOL0     H23350   8.668   0.192   9.349  1.6591 -0.0231 -1.3404
  914MOL0     H23351   8.456   0.323   9.407  1.5506 -1.4686 -0.5598
  914MOL0     H23352   8.329   0.340   9.287 -2.5678 -1.0495  2.5879
  914MOL0     H23353   8.365   0.181   9.364  0.6596  0.1067  0.9014
  914MOL0     H23354   8.304   0.312   8.670 -2.2729 -2.2425 -1.4590
  914MOL0     H23355   8.086   0.312   8.539 -1.8174 -1.8566 -0.0619
  914MOL0     H23356   7.764   0.259   8.725 -0.4538 -0.2439 -1.2450
  914MOL0     H23357   7.693   0.415   8.741 -2.5591 -1.3039 -0.5222
  914MOL0     H23358   7.667   0.431   8.490  2.2388  0.3763 -1.7186
  914MOL0     H23359   7.711   0.264   8.478 -0.6448  0.5077 -0.1754
  914MOL0     H23360   7.457   0.384   8.554  0.0650  0.8397  1.2228
  914MOL0     H23361   7.510   0.293   8.697 -0.2279  2.0553 -0.1819
  914MOL0     H23362   7.477   0.186   8.424 -2.7697  1.0237  0.0404
  914MOL0     H23363   7.555   0.089   8.554  0.5487 -0.3493 -2.3801
  914MOL0     H23364   7.328   0.021   8.516  2.3019 -2.3199  1.5602
  914MOL0     H23365   7.285   0.180   8.587 -1.5882 -1.0778  1.5042
  914MOL0     H23366   7.406  -0.074   8.709 -1.0463 -0.7820  4.2590
  914MOL0     H23367   7.462   0.087   8.760 -1.2257  0.8393  3.3582
  914MOL0     H23368   7.295   0.026   8.916  2.5447  0.6676 -1.0126
  914MOL0     H23369   7.202  -0.057   8.805  1.6209 -1.3927  1.0522
  914MOL0     H23370   7.222   0.250   8.794  0.8851  0.4276 -0.7997
  914MOL0     H23371   7.117   0.171   8.905 -0.1898  0.3086 -0.0307
  914MOL0     H23372   7.891   0.514   8.860 -1.6276  0.5604 -0.2157
  914MOL0     H23373   8.096   0.505   8.992  0.5064  0.2304 -0.2288
  914MOL0     H23374   8.524   0.207   8.873 -0.0299  1.7843 -0.6286
  914MOL0     H23375   8.772   0.160   8.935 -2.4498 -2.5663 -2.1725
  914MOL0     H23376   9.876   1.001  10.371  0.8503  0.0761  2.1475
  914MOL0     H23377  10.071   1.084  10.449 -0.3155 -0.2036 -1.0026
  914MOL0     H23378  10.702   0.851  10.344  0.3879  0.0773 -0.1660
  914MOL0     H23379  10.904   0.961  10.398  0.5147 -0.5365  0.9715
  914MOL0     H23380  10.868   1.285  10.704 -0.1814 -1.3142  1.2721
  914MOL0     H23381  10.930   1.138  10.748 -0.1805  0.9152  1.1956
  914MOL0     H23382  11.103   1.332  10.579 -1.7306  2.3772  1.0155
  914MOL0     H23383  11.177   1.222  10.692  1.8551  1.4115 -1.2859
  914MOL0     H23384  11.026   1.470  10.783 -0.6969 -1.3737 -3.5476
  914MOL0     H23385  11.201   1.428  10.782  0.1817  0.1166 -2.7578
  914MOL0     H23386  11.142   1.236  10.928 -0.5797 -0.4777 -1.4931
  914MOL0     H23387  10.987   1.308  10.968 -0.1906 -1.0470  0.4842
  914MOL0     H23388  11.299   1.546  11.155 -1.0362 -0.7261  0.2554
  914MOL0     H23389  10.692   1.251  10.638  1.4347  0.5104 -0.0821
  914MOL0     H23390  10.481   1.141  10.576  2.6324  4.1341  0.5411
  915MOL0     O23391  10.638  10.378   7.289  1.1843 -0.5107 -0.0675
  915MOL0     C23392  10.727  10.453   7.252 -0.6756  0.9992 -0.2360
  915MOL0     O23393  10.848  10.466   7.322  0.3452 -0.1672  1.3126
  915MOL0     C23394  10.879  10.401   7.435 -0.4720  0.3581 -0.7109
  915MOL0     C23395  10.947  10.281   7.431 -0.1863  0.5977 -0.3711
  915MOL0     C23396  10.993  10.218   7.553  1.0907 -0.3573  0.5241
  915MOL0     C23397  10.938  10.256   7.675  0.1525 -0.5068 -0.1281
  915MOL0     O23398  10.974  10.206   7.795  0.1192 -0.1245  0.3934
  915MOL0     C23399  11.088  10.113   7.810 -0.3169  0.2554  0.0921
  915MOL0     C23400  11.095  10.077   7.960 -0.8908 -0.4088 -1.0759
  915MOL0     C23401  11.178  10.177   8.043  0.1894 -1.0839  0.0074
  915MOL0     C23402  11.190  10.126   8.186  0.5481  0.0164 -0.8710
  915MOL0     C23403  11.260  10.236   8.277 -0.1152 -0.4267 -0.4789
  915MOL0     C23404  11.410  10.263   8.236  0.1074  0.0880  0.0549
  915MOL0     C23405  11.480  10.332   8.355  0.3284  0.4919  0.4119
  915MOL0     C23406  11.627  10.371   8.328 -0.4107 -0.1627  0.1474
  915MOL0     N23407  11.639  10.476   8.235 -0.1433 -0.2137 -0.0438
  915MOL0     C23408  11.628  10.609   8.272 -0.4489 -0.3890  0.4833
  915MOL0     C23409  11.614  10.669   8.155 -1.3530  0.1026  0.6896
  915MOL0     C23410  11.616  10.817   8.132 -1.1609  0.2947  1.0576
  915MOL0     C23411  11.734  10.891   8.194  0.3385 -0.2145  0.2581
  915MOL0     C23412  11.874  10.827   8.162 -0.0111 -0.1559  0.4427
  915MOL0     C23413  11.903  10.812   8.010  0.5389 -1.0621 -0.2109
  915MOL0     O23414  11.904  10.931   7.928  0.1328  0.1594 -0.5457
  915MOL0     C23415  12.005  11.026   7.954 -0.1982  0.1944  0.2980
  915MOL0     C23416  12.136  10.988   7.996  0.2423  0.6410  0.6580
  915MOL0     C23417  12.245  11.074   7.989 -0.8307 -0.2049 -0.4050
  915MOL0     C23418  12.381  11.012   8.043  0.8272  0.3785  0.7074
  915MOL0     C23419  12.223  11.206   7.942  0.3543  0.2216  0.9783
  915MOL0     C23420  12.325  11.308   7.938 -0.3104  0.0487  0.1117
  915MOL0     O23421  12.333  11.363   7.812 -0.1144 -0.4596 -0.1264
  915MOL0     C23422  12.395  11.485   7.796 -0.4150 -0.6887 -0.7723
  915MOL0     C23423  12.480  11.508   7.683 -0.7929  0.1424 -0.6034
  915MOL0     C23424  12.537  11.627   7.657  0.0958  0.0373 -1.4785
  915MOL0     C23425  12.524  11.737   7.751  0.0919  0.7755 -0.7317
  915MOL0     O23426  12.563  11.867   7.730 -0.1225  0.2872 -0.1715
  915MOL0     C23427  12.694  11.884   7.689  0.2528  0.6089  0.3257
  915MOL0     C23428  12.716  12.035   7.676 -0.8021 -0.7663 -0.1774
  915MOL0     C23429  12.852  12.042   7.608 -0.5290 -0.0136  0.4820
  915MOL0     C23430  12.896  12.185   7.580  0.6844 -0.9430 -0.3316
  915MOL0     C23431  13.032  12.210   7.520  0.0168 -0.3812  1.1950
  915MOL0     C23432  13.033  12.338   7.439 -0.5973  0.2003  0.4856
  915MOL0     C23433  13.155  12.336   7.349 -0.6589  0.0304 -0.3686
  915MOL0     C23434  13.145  12.432   7.234  0.3866  0.2368 -0.4613
  915MOL0    Cl23435  13.054  12.381   7.085 -0.3935 -0.2451  0.3859
  915MOL0     C23436  12.447  11.713   7.873 -0.1877 -0.0312  0.1860
  915MOL0     C23437  12.377  11.588   7.884 -0.2362 -1.0720  0.5842
  915MOL0     O23438  12.391  11.339   8.032 -0.0145 -0.4898 -0.3145
  915MOL0     C23439  12.088  11.246   7.900  0.4598  0.4050  0.4224
  915MOL0     C23440  11.980  11.153   7.906 -0.3517 -0.9910  0.1941
  915MOL0     N23441  11.618  10.570   8.056  0.5394  0.5685  0.0124
  915MOL0     N23442  11.632  10.448   8.106 -0.0618 -0.2604  0.0228
  915MOL0     C23443  10.857  10.371   7.673  0.0407  0.2611 -0.6911
  915MOL0     C23444  10.830  10.441   7.553  0.1079  0.4980 -0.7114
  915MOL0     C23445  10.702  10.544   7.129 -0.5179 -0.2790 -0.3406
  915MOL0     C23446  10.597  10.524   7.039  0.2815  0.4789 -0.5414
  915MOL0     C23447  10.570  10.613   6.936  0.2706  0.4709  1.3935
  915MOL0     C23448  10.655  10.729   6.923  0.5963 -0.6971  0.3196
  915MOL0     O23449  10.644  10.825   6.827  0.0189  0.1670 -1.0390
  915MOL0     C23450  10.551  10.808   6.722 -0.0913  0.4865  0.8473
  915MOL0     C23451  10.603  10.860   6.587  0.1333 -1.0367  0.7203
  915MOL0     C23452  10.738  10.802   6.555  0.3063  0.1286  0.3310
  915MOL0     C23453  10.781  10.825   6.409 -0.7946 -0.2974 -0.0578
  915MOL0     C23454  10.792  10.969   6.379  0.0870 -0.1076  0.1559
  915MOL0     C23455  10.822  11.079   6.351 -0.9941  0.2902  0.4255
  915MOL0     C23456  10.747  10.753   7.019  0.5675 -0.0000 -0.4273
  915MOL0     C23457  10.780  10.658   7.110  0.4590  0.4904  0.6547
  915MOL0     H23458  10.963  10.236   7.333 -1.7876 -2.2253  0.5673
  915MOL0     H23459  11.059  10.132   7.552  0.6775 -0.7639  2.4897
  915MOL0     H23460  11.063  10.023   7.752 -3.1133  0.3691  0.9636
  915MOL0     H23461  11.181  10.157   7.775 -0.6452  0.7163 -0.2066
  915MOL0     H23462  11.005  10.052   8.018  0.9162 -0.6457  1.8077
  915MOL0     H23463  11.149   9.982   7.956 -0.4043 -0.1365 -1.0457
  915MOL0     H23464  11.276  10.201   7.999  0.0997  0.3405  0.5426
  915MOL0     H23465  11.118  10.268   8.042  0.8476 -0.6369  0.2729
  915MOL0     H23466  11.087  10.118   8.223  0.2086  1.9806 -1.2457
  915MOL0     H23467  11.252  10.037   8.192  0.6988  0.1174  5.2328
  915MOL0     H23468  11.212  10.335   8.283  1.9172  0.5197  1.9318
  915MOL0     H23469  11.261  10.194   8.378  1.4419  1.0284  0.1619
  915MOL0     H23470  11.473  10.175   8.222  2.8548  1.9290 -0.0743
  915MOL0     H23471  11.423  10.319   8.143  1.4582 -1.1713 -0.5419
  915MOL0     H23472  11.416  10.418   8.380  0.8851  0.9928  0.1554
  915MOL0     H23473  11.478  10.264   8.440  0.2559 -1.3676 -1.0284
  915MOL0     H23474  11.685  10.287   8.289  0.1754  0.6732 -0.8225
  915MOL0     H23475  11.675  10.416   8.416 -1.1939  2.8011 -0.8131
  915MOL0     H23476  11.631  10.667   8.363 -3.3373  0.5585  0.0846
  915MOL0     H23477  11.620  10.837   8.025 -1.4662  0.3397  1.0554
  915MOL0     H23478  11.525  10.854   8.179 -1.9930  0.5536 -0.6644
  915MOL0     H23479  11.725  10.890   8.303  2.3864 -1.9000  0.4766
  915MOL0     H23480  11.731  10.996   8.166  1.5847 -0.9211 -2.8896
  915MOL0     H23481  11.882  10.726   8.204  0.0441 -0.3310  0.0194
  915MOL0     H23482  11.959  10.888   8.195 -0.6107  1.2983 -0.6016
  915MOL0     H23483  11.825  10.747   7.968 -1.0450 -0.8499  2.2011
  915MOL0     H23484  11.995  10.755   7.992  0.8528  0.3001 -3.6604
  915MOL0     H23485  12.152  10.887   8.032  0.5755  0.9011  1.2710
  915MOL0     H23486  12.367  10.906   8.069 -0.0308  0.1560 -0.5599
  915MOL0     H23487  12.454  11.006   7.962  3.6707 -0.2217  3.1395
  915MOL0     H23488  12.417  11.061   8.134 -0.8583  0.0325  1.6201
  915MOL0     H23489  12.515  11.429   7.617 -0.4602 -0.9632  0.8341
  915MOL0     H23490  12.575  11.632   7.555  0.5132  3.2262 -1.2457
  915MOL0     H23491  12.765  11.850   7.765  0.3916  2.6175  1.1491
  915MOL0     H23492  12.720  11.849   7.589 -3.5025  3.6054 -1.9771
  915MOL0     H23493  12.644  12.096   7.621 -1.3945 -0.4887  0.8766
  915MOL0     H23494  12.715  12.085   7.773 -1.2283 -0.0212 -0.5603
  915MOL0     H23495  12.837  11.982   7.518 -3.0264 -2.6776  2.5013
  915MOL0     H23496  12.920  11.993   7.678 -1.5974 -0.8635  0.9578
  915MOL0     H23497  12.823  12.232   7.513  3.1401  0.0324 -2.4991
  915MOL0     H23498  12.880  12.243   7.672 -1.0848 -0.2457 -1.0342
  915MOL0     H23499  13.059  12.116   7.471  2.6984  0.6942  0.4040
  915MOL0     H23500  13.107  12.222   7.599  0.6429 -1.9138  0.8783
  915MOL0     H23501  12.946  12.361   7.377 -0.1041  0.6184 -0.0605
  915MOL0     H23502  13.042  12.421   7.509  1.6901 -1.4159  2.2774
  915MOL0     H23503  13.181  12.243   7.298  2.3979  1.5986 -1.9376
  915MOL0     H23504  13.251  12.356   7.397 -0.7485 -1.1848  0.3574
  915MOL0     H23505  13.244  12.456   7.193  0.6290 -1.3285 -0.8509
  915MOL0     H23506  13.117  12.529   7.276  2.1345  0.0861  1.2058
  915MOL0     H23507  12.438  11.779   7.959 -0.2656 -2.0004  1.7544
  915MOL0     H23508  12.311  11.563   7.967 -3.4663 -2.2955 -2.1311
  915MOL0     H23509  12.072  11.344   7.857 -1.3308  1.0032  2.2585
  915MOL0     H23510  11.882  11.178   7.867 -0.7470  2.7248  2.9821
  915MOL0     H23511  10.827  10.410   7.769 -4.3077  0.2264 -1.8392
  915MOL0     H23512  10.773  10.534   7.558  0.7595  0.8468  1.1374
  915MOL0     H23513  10.522  10.445   7.045  1.7760 -1.2349 -2.6131
  915MOL0     H23514  10.483  10.598   6.872  1.8700 -2.4496 -0.3258
  915MOL0     H23515  10.521  10.705   6.704 -3.6132  0.9372  3.1578
  915MOL0     H23516  10.464  10.866   6.755 -2.4825 -1.6799 -1.2734
  915MOL0     H23517  10.604  10.969   6.575 -2.9088 -1.1920 -2.7451
  915MOL0     H23518  10.530  10.836   6.509 -0.4643  1.3082  0.4659
  915MOL0     H23519  10.731  10.693   6.555 -0.5187  0.1541 -1.4584
  915MOL0     H23520  10.811  10.842   6.627 -2.1876  1.2140  2.4175
  915MOL0     H23521  10.704  10.790   6.340 -3.2949  2.0283  1.3456
  915MOL0     H23522  10.877  10.774   6.394 -0.5083  0.5533 -1.2195
  915MOL0     H23523  10.850  11.181   6.336 -1.3607  0.6169  1.8523
  915MOL0     H23524  10.809  10.842   7.018 -1.2630  1.3214 -0.9932
  915MOL0     H23525  10.856  10.677   7.185 -1.1594 -0.6254  2.6710
  916MOL0     O23526   3.641   6.937   8.575 -0.1386  0.0179  0.0293
  916MOL0     C23527   3.611   6.886   8.685 -0.0438  0.8068  0.0588
  916MOL0     O23528   3.567   6.758   8.696  0.5439 -0.5440  0.0154
  916MOL0     C23529   3.558   6.666   8.578  1.7949 -0.2962  0.0292
  916MOL0     C23530   3.676   6.653   8.501  1.3328 -0.4456  0.5651
  916MOL0     C23531   3.663   6.580   8.384 -0.2489 -1.0852 -0.3790
  916MOL0     C23532   3.542   6.513   8.346 -0.5035  0.6433 -0.6142
  916MOL0     O23533   3.527   6.426   8.241 -0.2752  0.0862 -0.2912
  916MOL0     C23534   3.646   6.385   8.178  0.1844  0.0423  0.2247
  916MOL0     C23535   3.657   6.484   8.062  0.4383  0.5407  0.0517
  916MOL0     C23536   3.788   6.483   7.991  0.1976 -0.0144 -1.0073
  916MOL0     C23537   3.801   6.610   7.895 -0.4693  0.3075  0.5094
  916MOL0     C23538   3.937   6.604   7.816  0.0189  0.1924  0.6483
  916MOL0     C23539   3.985   6.718   7.741 -0.0681 -1.7498  0.5400
  916MOL0     C23540   4.072   6.684   7.622 -1.3259 -0.4272 -0.3270
  916MOL0     C23541   4.085   6.810   7.527  0.4029 -0.0653  0.4521
  916MOL0     N23542   4.156   6.921   7.583 -0.4918 -0.6059 -1.1405
  916MOL0     C23543   4.284   6.917   7.622 -0.5019  0.1199  0.5152
  916MOL0     C23544   4.316   7.040   7.660  1.0706 -0.1474  0.1640
  916MOL0     C23545   4.452   7.078   7.693  0.6882 -0.8717 -0.7583
  916MOL0     C23546   4.470   7.075   7.844 -0.2751  0.1207 -0.0919
  916MOL0     C23547   4.619   7.110   7.866 -0.4878  0.9308 -0.7069
  916MOL0     C23548   4.716   7.002   7.822 -0.4126 -0.4757 -0.1152
  916MOL0     O23549   4.675   6.884   7.891 -0.4192  0.3602  0.1513
  916MOL0     C23550   4.764   6.788   7.890 -0.3939  0.1366 -0.2930
  916MOL0     C23551   4.897   6.791   7.849 -0.4627  0.0141 -0.1514
  916MOL0     C23552   4.988   6.682   7.845 -0.9033  0.1287 -1.5744
  916MOL0     C23553   5.118   6.686   7.761 -0.4343 -0.2911  0.5592
  916MOL0     C23554   4.943   6.566   7.910 -0.1891  0.1793 -0.0956
  916MOL0     C23555   5.033   6.450   7.950  0.5876 -1.2146  0.1948
  916MOL0     O23556   4.972   6.333   7.975  0.1609  0.5261  0.3118
  916MOL0     C23557   5.029   6.226   8.040  0.8890  0.0354 -0.1036
  916MOL0     C23558   4.998   6.099   7.983  0.1948 -0.6484 -0.5564
  916MOL0     C23559   5.088   5.991   8.010  0.1592 -0.2273  0.0577
  916MOL0     C23560   5.194   6.007   8.110  0.4314  0.7941 -0.0608
  916MOL0     O23561   5.279   5.910   8.153 -0.1715 -0.3457  0.3917
  916MOL0     C23562   5.294   5.796   8.073 -0.4308  0.4482  1.4154
  916MOL0     C23563   5.424   5.737   8.122 -0.2813  0.8509 -0.0227
  916MOL0     C23564   5.473   5.617   8.033 -0.7492 -0.1962 -0.8839
  916MOL0     C23565   5.558   5.518   8.106  0.0779  0.3700 -1.1562
  916MOL0     C23566   5.695   5.563   8.161 -0.4107  0.3767  0.7147
  916MOL0     C23567   5.777   5.620   8.045  1.0507  1.4319  0.0711
  916MOL0     C23568   5.915   5.649   8.086 -0.5720 -0.5280  0.1348
  916MOL0     C23569   5.993   5.515   8.120  1.0094 -0.1838  0.4859
  916MOL0    Cl23570   6.011   5.429   7.966 -0.1301 -0.3672 -0.8281
  916MOL0     C23571   5.198   6.125   8.179 -0.2155  0.2546  0.3816
  916MOL0     C23572   5.119   6.230   8.139 -0.9050  0.2829 -0.9548
  916MOL0     O23573   5.153   6.473   7.944 -0.7461  0.7768 -0.3859
  916MOL0     C23574   4.810   6.563   7.954  0.0618  0.3170 -0.5659
  916MOL0     C23575   4.722   6.668   7.931  0.7146 -0.7730  0.2736
  916MOL0     N23576   4.199   7.116   7.661  0.2958  0.0327  1.0194
  916MOL0     N23577   4.102   7.039   7.625  0.0954  0.5976 -0.0061
  916MOL0     C23578   3.434   6.530   8.436  0.2136 -0.1529  1.5880
  916MOL0     C23579   3.440   6.600   8.549  0.8503 -0.1070  0.5784
  916MOL0     C23580   3.610   6.958   8.805 -0.3025 -0.1565  0.6780
  916MOL0     C23581   3.715   7.054   8.824  0.7830 -0.3259  0.8165
  916MOL0     C23582   3.724   7.115   8.949 -0.3846 -0.3019 -0.3835
  916MOL0     C23583   3.621   7.094   9.049  0.4375  0.7432 -0.1743
  916MOL0     O23584   3.627   7.189   9.148 -0.4822 -0.0449 -0.4846
  916MOL0     C23585   3.547   7.176   9.263 -0.1709 -0.5509 -0.4360
  916MOL0     C23586   3.608   7.244   9.387 -0.2819  0.4893 -0.4828
  916MOL0     C23587   3.684   7.145   9.479  0.4474 -0.5459 -0.1530
  916MOL0     C23588   3.757   7.225   9.590  0.5771  0.0924 -0.4717
  916MOL0     C23589   3.823   7.144   9.696  0.2565 -0.9254 -0.5712
  916MOL0     C23590   3.862   7.075   9.789 -0.1555 -0.6456 -0.2554
  916MOL0     C23591   3.514   7.005   9.017 -0.0264 -0.2517 -0.1653
  916MOL0     C23592   3.512   6.939   8.897  0.4516 -0.1512  0.6240
  916MOL0     H23593   3.760   6.714   8.533 -0.1990  1.9078  0.3503
  916MOL0     H23594   3.746   6.587   8.314 -1.0665 -1.2374 -1.4004
  916MOL0     H23595   3.744   6.388   8.227  1.9713 -1.7924 -2.9027
  916MOL0     H23596   3.647   6.287   8.131  1.1189  0.2201 -0.1617
  916MOL0     H23597   3.572   6.457   7.998  0.0198  0.1895  0.7427
  916MOL0     H23598   3.650   6.580   8.114 -0.8047 -1.0641  3.1127
  916MOL0     H23599   3.866   6.472   8.067 -2.1789 -0.4487  1.5459
  916MOL0     H23600   3.794   6.389   7.935 -0.4370 -0.9072  0.3747
  916MOL0     H23601   3.716   6.609   7.826  0.8741 -2.7659 -1.2964
  916MOL0     H23602   3.796   6.705   7.949 -0.7928 -0.6561  2.2487
  916MOL0     H23603   4.016   6.567   7.881 -0.6922 -0.2125  1.3036
  916MOL0     H23604   3.924   6.523   7.744  2.4425  1.7950 -1.7714
  916MOL0     H23605   3.895   6.774   7.714  0.3150 -1.6032 -0.4634
  916MOL0     H23606   4.044   6.780   7.808  0.5404 -1.2105 -0.4617
  916MOL0     H23607   4.170   6.644   7.650  0.8215  2.5410 -2.8967
  916MOL0     H23608   4.022   6.611   7.558 -4.3936  1.3047 -0.0650
  916MOL0     H23609   3.989   6.849   7.492  1.7574  1.4833 -1.7608
  916MOL0     H23610   4.143   6.775   7.441  1.3196 -2.4549  1.9176
  916MOL0     H23611   4.353   6.833   7.625  0.7639  1.1383  1.5503
  916MOL0     H23612   4.528   7.012   7.650  3.0038 -0.4334  2.3080
  916MOL0     H23613   4.476   7.180   7.660 -2.3423 -0.3432 -1.6914
  916MOL0     H23614   4.449   6.974   7.879 -0.2151 -0.1175 -0.7213
  916MOL0     H23615   4.403   7.151   7.885 -0.9505 -1.4771  1.9593
  916MOL0     H23616   4.639   7.146   7.968 -0.9630  1.0939 -0.6707
  916MOL0     H23617   4.652   7.190   7.799 -1.2843  0.0038 -2.2584
  916MOL0     H23618   4.811   7.043   7.858 -1.1270  0.3641  0.8534
  916MOL0     H23619   4.711   6.994   7.713  1.1918  4.4469 -0.8156
  916MOL0     H23620   4.930   6.881   7.797 -0.2897 -1.4513 -2.7391
  916MOL0     H23621   5.124   6.601   7.692  1.9248  0.1850  0.1251
  916MOL0     H23622   5.106   6.762   7.683 -1.5268  0.7696  1.6980
  916MOL0     H23623   5.211   6.718   7.808  0.6638  3.4427 -3.5570
  916MOL0     H23624   4.913   6.089   7.916 -0.6002 -2.7716  0.6726
  916MOL0     H23625   5.075   5.894   7.964  2.0335  0.1515 -1.3929
  916MOL0     H23626   5.206   5.735   8.096 -2.3363  2.2105 -0.7461
  916MOL0     H23627   5.302   5.819   7.966 -1.9277  1.7638  1.5601
  916MOL0     H23628   5.507   5.809   8.130  0.0640  0.2090  3.7281
  916MOL0     H23629   5.404   5.700   8.222 -2.1934 -0.6482 -0.9105
  916MOL0     H23630   5.528   5.658   7.948  0.7012 -0.6242 -0.1917
  916MOL0     H23631   5.380   5.569   8.002 -3.1725  1.8184  2.6107
  916MOL0     H23632   5.500   5.473   8.187  2.0864 -0.4178 -0.0607
  916MOL0     H23633   5.579   5.429   8.045  1.2682  0.5730 -1.0844
  916MOL0     H23634   5.743   5.474   8.202 -1.1467 -0.0638  0.6427
  916MOL0     H23635   5.681   5.637   8.240 -1.0296  1.2171 -0.1475
  916MOL0     H23636   5.779   5.559   7.954  1.7779  3.0864 -1.0636
  916MOL0     H23637   5.736   5.717   8.016 -1.4277  0.4412  0.0613
  916MOL0     H23638   5.929   5.722   8.165 -0.3043  0.9934 -1.2683
  916MOL0     H23639   5.957   5.717   8.011 -1.2159  2.2414  2.1321
  916MOL0     H23640   5.953   5.453   8.200 -0.0923  0.3627  0.3887
  916MOL0     H23641   6.098   5.532   8.147  0.7357 -1.1224  2.2898
  916MOL0     H23642   5.276   6.164   8.244  0.4022  2.3244 -1.4624
  916MOL0     H23643   5.138   6.329   8.178  4.5346 -0.6492 -0.3599
  916MOL0     H23644   4.770   6.482   8.015  1.2588 -1.8046 -2.4529
  916MOL0     H23645   4.617   6.663   7.954 -0.1791  0.6056 -2.9351
  916MOL0     H23646   3.345   6.474   8.410 -1.5658  3.5936 -1.3206
  916MOL0     H23647   3.355   6.629   8.610  0.0665 -2.6741  0.8451
  916MOL0     H23648   3.790   7.078   8.749  1.2604 -1.6596  0.8519
  916MOL0     H23649   3.799   7.192   8.959  0.4192 -1.2958  1.8364
  916MOL0     H23650   3.449   7.216   9.235  0.1812 -0.2984 -1.3526
  916MOL0     H23651   3.535   7.070   9.290  0.3851 -0.4830  0.1118
  916MOL0     H23652   3.521   7.277   9.445  0.6685  0.0302  1.2694
  916MOL0     H23653   3.671   7.327   9.354  1.8559 -2.2578 -4.0417
  916MOL0     H23654   3.756   7.083   9.423 -0.1588  1.7435 -3.7800
  916MOL0     H23655   3.607   7.081   9.523 -0.0875 -0.0055 -0.2922
  916MOL0     H23656   3.685   7.295   9.633  0.7238 -0.7534  1.2196
  916MOL0     H23657   3.837   7.287   9.546  0.7639  0.8669  0.9174
  916MOL0     H23658   3.911   7.008   9.857  1.3066 -0.5672 -1.1828
  916MOL0     H23659   3.431   6.990   9.085  0.0877 -1.3988 -0.2556
  916MOL0     H23660   3.434   6.871   8.864 -2.4781  1.9525  2.7658
  917MOL0     O23661  10.856   3.294  10.520 -0.7079 -0.2041 -0.5535
  917MOL0     C23662  10.849   3.257  10.402  0.7405 -0.2147 -1.4196
  917MOL0     O23663  10.745   3.194  10.353  0.1423  0.3469 -0.0297
  917MOL0     C23664  10.632   3.189  10.435  0.5939  1.1129 -0.2140
  917MOL0     C23665  10.512   3.232  10.386  0.5604  0.0957 -0.2471
  917MOL0     C23666  10.395   3.209  10.462 -0.3984  0.3927  0.8640
  917MOL0     C23667  10.386   3.162  10.588  0.0336 -0.0590 -1.5242
  917MOL0     O23668  10.265   3.156  10.646  0.7782  0.1218 -0.4770
  917MOL0     C23669  10.257   3.097  10.776  0.5793  0.6073 -0.6876
  917MOL0     C23670  10.114   3.120  10.828  0.3066  0.7824  0.3975
  917MOL0     C23671  10.111   3.094  10.981  0.8798 -0.1789  0.8856
  917MOL0     C23672   9.975   3.060  11.038  0.1362  0.3185 -1.0155
  917MOL0     C23673   9.977   3.043  11.193  0.5286 -1.4350  0.4765
  917MOL0     C23674  10.029   3.177  11.275 -0.7587 -0.1481 -0.1103
  917MOL0     C23675   9.979   3.163  11.421  0.7161  0.9066 -0.2739
  917MOL0     C23676  10.042   3.264  11.517  0.3610  0.1637 -0.5653
  917MOL0     N23677   9.997   3.264  11.651  0.8500 -0.1221 -0.1573
  917MOL0     C23678   9.864   3.298  11.681  1.1438  0.2895  0.3186
  917MOL0     C23679   9.857   3.301  11.822  0.3518  0.6683  0.8149
  917MOL0     C23680   9.745   3.318  11.916  0.1312 -0.6919 -0.1733
  917MOL0     C23681   9.732   3.470  11.929  0.8823 -0.4601  0.5402
  917MOL0     C23682   9.626   3.516  12.023  0.7653  0.6545  0.5019
  917MOL0     C23683   9.618   3.670  12.022  0.4631 -0.5591  0.2785
  917MOL0     O23684   9.744   3.739  12.050 -0.3445 -0.3115  0.3651
  917MOL0     C23685   9.786   3.851  11.981 -0.0252 -0.2489  0.5017
  917MOL0     C23686   9.699   3.930  11.907  0.2019 -0.3288 -0.8090
  917MOL0     C23687   9.754   4.034  11.823 -0.5180  0.9270 -0.2766
  917MOL0     C23688   9.656   4.126  11.755  0.2989  0.9888  0.5855
  917MOL0     C23689   9.895   4.045  11.801  0.9498 -0.3401 -0.7268
  917MOL0     C23690   9.972   4.111  11.685 -0.3266 -0.3753  0.2913
  917MOL0     O23691  10.106   4.069  11.660 -0.0205  0.4276  0.0834
  917MOL0     C23692  10.182   4.136  11.574 -0.0729  0.2237 -0.6221
  917MOL0     C23693  10.241   4.252  11.618 -0.7770 -0.0224  0.2379
  917MOL0     C23694  10.326   4.323  11.538 -0.5467  0.1873 -0.0948
  917MOL0     C23695  10.337   4.291  11.396 -0.6551 -0.0598 -0.4730
  917MOL0     O23696  10.393   4.375  11.304  0.7456  0.2346 -0.6679
  917MOL0     C23697  10.367   4.514  11.338  0.0317  0.8743 -0.0758
  917MOL0     C23698  10.434   4.600  11.227  0.0255  0.1429 -0.3876
  917MOL0     C23699  10.407   4.539  11.084  0.0980  0.2770 -0.5834
  917MOL0     C23700  10.423   4.645  10.976 -0.5065  1.0666  0.6585
  917MOL0     C23701  10.436   4.581  10.842 -0.0731 -1.5914  0.4268
  917MOL0     C23702  10.337   4.460  10.814 -0.6418  0.2999 -0.9088
  917MOL0     C23703  10.375   4.407  10.673 -0.1608 -0.7021 -0.7372
  917MOL0     C23704  10.274   4.330  10.593  0.5015 -0.0404  0.4615
  917MOL0    Cl23705  10.129   4.413  10.550 -0.5968  0.3287 -0.0302
  917MOL0     C23706  10.276   4.174  11.349  0.3249  0.3874 -0.8472
  917MOL0     C23707  10.192   4.100  11.437 -0.6561  0.2834 -0.5386
  917MOL0     O23708   9.909   4.180  11.605  0.0181 -0.1127  0.1874
  917MOL0     C23709   9.977   3.973  11.889 -0.0858  0.1729 -0.9835
  917MOL0     C23710   9.921   3.877  11.969 -0.1869  0.7840  0.2403
  917MOL0     N23711   9.974   3.247  11.866 -0.7297 -0.0992  0.2687
  917MOL0     N23712  10.051   3.216  11.770  0.4260 -0.0683  0.1658
  917MOL0     C23713  10.510   3.120  10.632  0.0151 -0.5325 -0.0052
  917MOL0     C23714  10.632   3.125  10.560  0.1472 -0.6416  0.7797
  917MOL0     C23715  10.977   3.278  10.322  1.3708 -0.4178  0.5843
  917MOL0     C23716  11.076   3.381  10.341  0.2620 -0.2579 -0.1797
  917MOL0     C23717  11.189   3.398  10.253  0.3148 -0.7299  0.5475
  917MOL0     C23718  11.186   3.322  10.134 -0.4433  0.5815 -0.7905
  917MOL0     O23719  11.277   3.359  10.042 -0.1076 -0.5971  0.3241
  917MOL0     C23720  11.303   3.278   9.928 -0.1124  0.8420  0.0284
  917MOL0     C23721  11.443   3.301   9.888  0.5345 -0.0289 -0.5114
  917MOL0     C23722  11.547   3.262   9.988  0.3063 -0.1769  0.3551
  917MOL0     C23723  11.692   3.250   9.927  0.5798  1.6552 -0.2966
  917MOL0     C23724  11.740   3.374   9.875 -0.8732 -0.4497  0.9412
  917MOL0     C23725  11.806   3.460   9.819 -0.1322 -1.2027  0.4812
  917MOL0     C23726  11.090   3.221  10.118  0.0697  0.0359  0.0473
  917MOL0     C23727  10.987   3.204  10.208 -0.0641 -0.4718 -0.2431
  917MOL0     H23728  10.512   3.272  10.285  0.5852  2.2384  0.5553
  917MOL0     H23729  10.297   3.219  10.416  0.1305 -1.3410 -0.7911
  917MOL0     H23730  10.286   2.992  10.767  2.0335  0.8951  0.2607
  917MOL0     H23731  10.331   3.149  10.838  0.8507 -2.8851  2.2955
  917MOL0     H23732  10.086   3.223  10.809  1.2221  1.4017  2.1514
  917MOL0     H23733  10.051   3.046  10.777  2.6579 -1.8074  0.9824
  917MOL0     H23734  10.184   3.017  11.010  3.3075  1.8684  0.4975
  917MOL0     H23735  10.141   3.187  11.030  0.1108  1.4777 -1.5930
  917MOL0     H23736   9.902   3.138  11.011  0.6554  1.0185 -0.4402
  917MOL0     H23737   9.936   2.967  10.995  0.1197  0.3546 -1.0783
  917MOL0     H23738   9.878   3.023  11.236  0.5337  0.1920  1.3167
  917MOL0     H23739  10.048   2.962  11.210 -0.2823 -3.8238 -5.1331
  917MOL0     H23740  10.138   3.171  11.266 -0.8278 -1.7998 -0.0858
  917MOL0     H23741  10.001   3.273  11.231  4.5833  1.1960 -1.3614
  917MOL0     H23742   9.869   3.162  11.427  0.4534  6.2352  1.0354
  917MOL0     H23743  10.021   3.065  11.444  0.3420  0.1681 -2.4659
  917MOL0     H23744  10.021   3.361  11.471 -0.6930 -0.2597 -1.0157
  917MOL0     H23745  10.148   3.238  11.518  0.1939 -0.5455  1.0249
  917MOL0     H23746   9.787   3.324  11.609 -0.7885 -1.1887  1.7491
  917MOL0     H23747   9.656   3.263  11.881 -0.1015  0.2692 -1.1328
  917MOL0     H23748   9.779   3.280  12.013 -2.1943  0.2770  1.1199
  917MOL0     H23749   9.686   3.494  11.832 -0.4421 -1.7804  0.8021
  917MOL0     H23750   9.835   3.498  11.954  0.5550 -1.9278  4.1327
  917MOL0     H23751   9.653   3.475  12.121  0.4103 -4.0928 -1.1112
  917MOL0     H23752   9.532   3.468  11.993  1.3780  0.8894 -2.0000
  917MOL0     H23753   9.538   3.691  12.093 -0.6777 -2.0161 -0.5240
  917MOL0     H23754   9.586   3.691  11.919 -2.3099 -0.8659  0.9996
  917MOL0     H23755   9.591   3.917  11.906  0.2844 -2.0101  1.9662
  917MOL0     H23756   9.691   4.229  11.750  3.0069  0.1191 -2.0976
  917MOL0     H23757   9.629   4.089  11.655 -0.3448  1.3741  0.6160
  917MOL0     H23758   9.570   4.119  11.821  0.1347 -2.1222  0.2167
  917MOL0     H23759  10.208   4.295  11.712 -0.4194 -0.9600  0.7964
  917MOL0     H23760  10.383   4.402  11.585  0.2305  1.3806 -2.8328
  917MOL0     H23761  10.260   4.538  11.337 -0.2636 -0.0321  2.6171
  917MOL0     H23762  10.413   4.551  11.430  2.1857  1.5977 -1.3816
  917MOL0     H23763  10.410   4.705  11.240  1.2359  0.7794 -2.8215
  917MOL0     H23764  10.543   4.589  11.234 -0.0382 -1.2860 -1.1954
  917MOL0     H23765  10.316   4.479  11.073 -0.2316  0.9827 -1.9081
  917MOL0     H23766  10.478   4.458  11.067 -0.4864  0.1842 -2.8244
  917MOL0     H23767  10.333   4.702  10.954  0.1388  1.7654 -0.2809
  917MOL0     H23768  10.497   4.722  11.004  3.1513 -1.7323 -0.4790
  917MOL0     H23769  10.540   4.551  10.828  1.7431  2.4274  3.4931
  917MOL0     H23770  10.415   4.656  10.765 -1.7026  0.1179  2.4098
  917MOL0     H23771  10.362   4.381  10.886  1.8819  1.6042 -0.2299
  917MOL0     H23772  10.233   4.494  10.822 -1.4457 -1.1357 -3.8763
  917MOL0     H23773  10.465   4.347  10.686  1.8423  2.0559 -1.0096
  917MOL0     H23774  10.405   4.495  10.616 -1.9069  0.7712  0.4740
  917MOL0     H23775  10.246   4.233  10.637 -0.7965  0.8475  1.6702
  917MOL0     H23776  10.309   4.304  10.492 -2.8078  1.3031 -1.1921
  917MOL0     H23777  10.279   4.141  11.245 -0.7306 -0.9490 -0.4806
  917MOL0     H23778  10.151   4.008  11.397 -0.1656 -0.6516  1.0119
  917MOL0     H23779  10.083   3.992  11.877 -0.0816  1.0690  0.2322
  917MOL0     H23780   9.982   3.821  12.039 -0.5532 -0.0604 -0.1050
  917MOL0     H23781  10.516   3.066  10.726  0.0442 -3.0955 -1.3854
  917MOL0     H23782  10.730   3.090  10.589  1.2991 -0.9092 -2.9121
  917MOL0     H23783  11.066   3.459  10.415  1.0348 -0.1595 -0.1703
  917MOL0     H23784  11.257   3.482  10.268 -1.7632  1.2386 -0.5313
  917MOL0     H23785  11.304   3.170   9.945  1.7947  0.1819 -3.3624
  917MOL0     H23786  11.220   3.299   9.861 -2.2268 -0.9569  1.9369
  917MOL0     H23787  11.449   3.410   9.877 -2.2885  0.2417 -0.1832
  917MOL0     H23788  11.459   3.246   9.795 -0.7856  0.5918 -1.1311
  917MOL0     H23789  11.530   3.164  10.035  0.4263 -0.9299 -1.1103
  917MOL0     H23790  11.549   3.330  10.074  0.7843 -1.4691  1.4056
  917MOL0     H23791  11.690   3.168   9.855  0.1528  0.1113  1.4022
  917MOL0     H23792  11.762   3.208  10.000 -1.6709 -0.0086  1.0269
  917MOL0     H23793  11.858   3.551   9.799 -0.8302  0.0425  3.7229
  917MOL0     H23794  11.096   3.172  10.022 -0.2530  2.5861 -1.3693
  917MOL0     H23795  10.914   3.129  10.178 -1.4752  1.4202 -1.8418
  918MOL0     O23796   3.225   7.843   6.598 -0.4355  0.0074  0.4422
  918MOL0     C23797   3.340   7.805   6.581  0.5501 -1.2404  0.7535
  918MOL0     O23798   3.383   7.687   6.519 -0.7212  0.2713 -0.2775
  918MOL0     C23799   3.294   7.602   6.484  0.1945  0.7494  0.7604
  918MOL0     C23800   3.270   7.489   6.569 -0.4029  0.2081  0.9647
  918MOL0     C23801   3.190   7.384   6.534  0.3705 -0.9546 -0.3604
  918MOL0     C23802   3.109   7.392   6.417  0.7534  0.3635  0.3925
  918MOL0     O23803   3.011   7.289   6.410 -0.0327 -0.7720 -0.4890
  918MOL0     C23804   2.950   7.254   6.282 -0.4272 -0.6839 -0.5332
  918MOL0     C23805   2.828   7.167   6.298 -0.7069  0.1881  0.5705
  918MOL0     C23806   2.797   7.118   6.155  0.1928 -0.3384 -0.3884
  918MOL0     C23807   2.674   7.018   6.176 -0.9273 -0.9452 -0.1571
  918MOL0     C23808   2.612   6.974   6.047  0.4445 -0.9176 -0.0370
  918MOL0     C23809   2.530   7.090   5.969  0.1596 -0.4942 -0.5441
  918MOL0     C23810   2.434   7.024   5.864 -0.0005  0.4041 -0.0061
  918MOL0     C23811   2.494   6.950   5.746 -0.7673  1.2359  0.1287
  918MOL0     N23812   2.560   7.045   5.662 -0.2182 -0.0668  0.4235
  918MOL0     C23813   2.697   7.043   5.642  0.6294  0.4300  0.5098
  918MOL0     C23814   2.725   7.154   5.571  1.0939 -0.2641 -0.8498
  918MOL0     C23815   2.853   7.204   5.517 -0.0414  0.2502 -0.5583
  918MOL0     C23816   2.890   7.334   5.592  0.3875  0.2495 -1.2117
  918MOL0     C23817   2.875   7.327   5.748  0.2919 -0.5370  0.1515
  918MOL0     C23818   2.947   7.442   5.810  0.9848 -0.3819  0.4010
  918MOL0     O23819   2.989   7.417   5.951 -0.3612  0.0297  0.6306
  918MOL0     C23820   3.120   7.456   5.975  0.1449  0.7224  0.7898
  918MOL0     C23821   3.230   7.375   6.017  0.7965  0.3818 -0.0936
  918MOL0     C23822   3.349   7.426   6.059 -0.9476 -0.4557 -0.9923
  918MOL0     C23823   3.450   7.341   6.120 -0.3253  1.2149 -0.9903
  918MOL0     C23824   3.376   7.562   6.034 -0.2985  0.7983 -0.5649
  918MOL0     C23825   3.513   7.635   6.065  0.5978  1.2312 -0.1754
  918MOL0     O23826   3.633   7.561   6.045 -0.2291 -0.5686 -0.5533
  918MOL0     C23827   3.739   7.653   6.038  0.5053  0.2679 -0.8122
  918MOL0     C23828   3.816   7.664   5.925  0.3013  0.6016 -0.1205
  918MOL0     C23829   3.945   7.712   5.924  0.0478 -0.2237  0.0815
  918MOL0     C23830   3.992   7.784   6.037  0.3959  0.1418  0.2236
  918MOL0     O23831   4.112   7.851   6.067 -0.0091 -0.8332  0.0346
  918MOL0     C23832   4.193   7.903   5.962 -0.2820  0.1900 -0.9116
  918MOL0     C23833   4.307   7.992   6.020  0.5109 -0.4499  0.0142
  918MOL0     C23834   4.233   8.105   6.074 -0.2525  0.1551  0.5092
  918MOL0     C23835   4.328   8.221   6.116  0.9378 -1.1129 -1.1706
  918MOL0     C23836   4.233   8.335   6.147 -0.3892 -0.4142  0.3500
  918MOL0     C23837   4.170   8.328   6.289 -0.7163 -0.0664 -0.0127
  918MOL0     C23838   4.090   8.456   6.320 -0.4744 -0.1931  0.3424
  918MOL0     C23839   4.094   8.485   6.470  0.3409  0.6812 -0.2005
  918MOL0    Cl23840   4.046   8.324   6.542  0.3156 -0.1127  0.0544
  918MOL0     C23841   3.909   7.796   6.152 -1.1860 -0.4281  1.0968
  918MOL0     C23842   3.789   7.726   6.155 -0.2618 -0.0932  0.2851
  918MOL0     O23843   3.501   7.751   6.089 -0.0829  0.3452  0.4091
  918MOL0     C23844   3.272   7.643   5.988  0.0763  0.1705 -1.1414
  918MOL0     C23845   3.147   7.587   5.964 -0.8665 -0.1406  0.1688
  918MOL0     N23846   2.603   7.215   5.533 -0.0638  0.2256 -0.0710
  918MOL0     N23847   2.509   7.154   5.586 -0.2790  0.8789 -0.2048
  918MOL0     C23848   3.128   7.504   6.334 -0.2711  0.1036  0.4597
  918MOL0     C23849   3.223   7.600   6.365 -0.2864  1.3269 -0.2900
  918MOL0     C23850   3.445   7.888   6.633  0.2234  0.1012 -0.1979
  918MOL0     C23851   3.581   7.845   6.628 -0.5670  0.1261  0.6138
  918MOL0     C23852   3.685   7.934   6.655 -0.1773  0.2008  0.2722
  918MOL0     C23853   3.658   8.055   6.717  0.4241  0.0313  0.7537
  918MOL0     O23854   3.759   8.148   6.741  0.1975  0.2125  0.3354
  918MOL0     C23855   3.745   8.286   6.781 -0.2163  0.5056  0.6405
  918MOL0     C23856   3.702   8.367   6.658  0.3168 -0.0578  0.1730
  918MOL0     C23857   3.730   8.517   6.672 -0.0032 -0.4621  0.4198
  918MOL0     C23858   3.639   8.594   6.572  0.2761 -0.3841  0.0997
  918MOL0     C23859   3.652   8.741   6.598 -0.2443 -0.0953 -0.4963
  918MOL0     C23860   3.637   8.852   6.641 -0.6578 -0.5213 -0.2607
  918MOL0     C23861   3.520   8.089   6.735  1.1569  0.1867 -0.4989
  918MOL0     C23862   3.417   8.003   6.689  0.5183 -0.1762 -0.4302
  918MOL0     H23863   3.326   7.478   6.661  0.9142 -7.2018 -0.0612
  918MOL0     H23864   3.170   7.306   6.607  0.0295 -0.4405  0.0936
  918MOL0     H23865   2.919   7.346   6.232  2.6883  1.4844  1.1679
  918MOL0     H23866   3.026   7.198   6.227  1.9593 -1.0147  2.8158
  918MOL0     H23867   2.866   7.083   6.357  1.3064 -0.5329 -1.5777
  918MOL0     H23868   2.749   7.221   6.351 -0.9613 -0.0518  0.4406
  918MOL0     H23869   2.760   7.199   6.092 -0.1407 -0.9620 -1.0079
  918MOL0     H23870   2.887   7.080   6.105  0.5609  0.2730 -0.1924
  918MOL0     H23871   2.718   6.927   6.219 -0.5754 -0.1474  1.2150
  918MOL0     H23872   2.611   7.040   6.262 -0.2454 -0.0911  0.1349
  918MOL0     H23873   2.686   6.927   5.981 -0.0313 -1.8997  0.0962
  918MOL0     H23874   2.538   6.897   6.074  0.4935 -1.6457 -1.8339
  918MOL0     H23875   2.477   7.152   6.041  1.7834  3.6136 -2.5344
  918MOL0     H23876   2.602   7.156   5.920  1.3279 -0.9366  0.5246
  918MOL0     H23877   2.367   6.961   5.923 -1.4404  1.3376 -0.5912
  918MOL0     H23878   2.378   7.109   5.823  1.3230  0.7326 -1.1976
  918MOL0     H23879   2.413   6.898   5.695  0.5171  0.0562 -0.7517
  918MOL0     H23880   2.572   6.880   5.778 -0.5378  0.2349 -2.4559
  918MOL0     H23881   2.766   6.974   5.688  3.3933  2.3131 -0.5561
  918MOL0     H23882   2.931   7.128   5.527  1.6514  2.1318  1.9154
  918MOL0     H23883   2.832   7.222   5.411  0.8255 -0.2630 -0.8305
  918MOL0     H23884   2.818   7.413   5.566 -0.4608 -0.9575 -2.6555
  918MOL0     H23885   2.995   7.357   5.573  0.3817  2.0680  0.5150
  918MOL0     H23886   2.912   7.228   5.778  2.2450 -0.3797 -1.5268
  918MOL0     H23887   2.770   7.323   5.780 -0.4319 -0.0815 -1.9837
  918MOL0     H23888   2.876   7.525   5.800 -1.6187 -2.5916 -0.6764
  918MOL0     H23889   3.037   7.463   5.752  0.8557  4.7030  1.5748
  918MOL0     H23890   3.195   7.277   6.048  1.2068  0.2997  0.1182
  918MOL0     H23891   3.542   7.325   6.063  0.7922 -0.7971  1.1927
  918MOL0     H23892   3.480   7.374   6.220 -0.9885 -1.1940  0.0650
  918MOL0     H23893   3.399   7.246   6.139  0.7681  0.1954 -2.8376
  918MOL0     H23894   3.775   7.623   5.833 -1.4677  2.9854 -0.4882
  918MOL0     H23895   4.011   7.707   5.837  0.0885  2.9827 -0.1781
  918MOL0     H23896   4.243   7.823   5.907  1.7815  1.3978 -0.8901
  918MOL0     H23897   4.119   7.954   5.900 -1.1507  1.7807  1.2790
  918MOL0     H23898   4.375   7.938   6.086  0.2161  0.2925  0.9509
  918MOL0     H23899   4.362   8.028   5.932 -0.8965 -3.8251 -2.4260
  918MOL0     H23900   4.169   8.072   6.157  0.3923  1.8373  1.7416
  918MOL0     H23901   4.167   8.138   5.994 -1.5404 -5.1384 -1.0346
  918MOL0     H23902   4.378   8.196   6.210 -3.0230 -0.5930  1.2897
  918MOL0     H23903   4.393   8.238   6.029  0.4277 -0.5264 -1.4440
  918MOL0     H23904   4.150   8.342   6.076 -0.1572 -1.1145 -0.0008
  918MOL0     H23905   4.293   8.425   6.132  0.9048 -1.6468 -2.9100
  918MOL0     H23906   4.102   8.243   6.285  0.4380 -1.0046 -0.2311
  918MOL0     H23907   4.245   8.315   6.367 -2.2619  0.0745  1.5387
  918MOL0     H23908   3.987   8.450   6.284 -0.4669  2.3623 -0.2646
  918MOL0     H23909   4.128   8.544   6.267  2.2916 -2.1900 -1.3037
  918MOL0     H23910   4.025   8.563   6.503 -1.4353 -0.5509 -0.8464
  918MOL0     H23911   4.196   8.511   6.500  0.5507 -0.4068  0.0711
  918MOL0     H23912   3.925   7.868   6.231 -0.6448 -0.0954  0.6907
  918MOL0     H23913   3.722   7.735   6.240 -1.3172 -1.3584 -0.3690
  918MOL0     H23914   3.281   7.751   5.977 -1.5743  0.4508 -0.0187
  918MOL0     H23915   3.060   7.650   5.949 -1.6728 -0.7759  1.8629
  918MOL0     H23916   3.073   7.507   6.240 -0.2244  1.2185  0.4586
  918MOL0     H23917   3.248   7.677   6.291  0.7040  0.2289 -1.1379
  918MOL0     H23918   3.604   7.744   6.597 -1.1525 -0.3841  1.7601
  918MOL0     H23919   3.785   7.893   6.644 -0.9999 -1.5367 -1.1790
  918MOL0     H23920   3.669   8.300   6.858  0.5184 -1.0247  1.7076
  918MOL0     H23921   3.835   8.330   6.824 -1.4597  1.2447  2.6288
  918MOL0     H23922   3.594   8.359   6.649  0.2206 -0.4490  1.4383
  918MOL0     H23923   3.741   8.319   6.568  1.4897 -0.0036  0.6348
  918MOL0     H23924   3.833   8.538   6.642  0.1524 -1.1024  0.4969
  918MOL0     H23925   3.716   8.538   6.778  1.3229 -1.0256  0.7263
  918MOL0     H23926   3.534   8.575   6.597 -0.0232  1.0074  0.0231
  918MOL0     H23927   3.666   8.562   6.471  1.6273 -0.9145  0.6092
  918MOL0     H23928   3.619   8.954   6.668  1.4714 -0.3309  0.6248
  918MOL0     H23929   3.488   8.186   6.770  2.6530  0.0856  1.2950
  918MOL0     H23930   3.313   8.031   6.702  0.8690 -0.2489  6.7731
  919MOL0     O23931   2.616   3.793   7.786 -0.0757 -0.2723 -0.7511
  919MOL0     C23932   2.611   3.712   7.696  1.1660 -0.1249 -0.5509
  919MOL0     O23933   2.503   3.621   7.674 -0.7172 -0.6870 -0.1583
  919MOL0     C23934   2.396   3.637   7.755 -0.8427 -0.3827  0.5015
  919MOL0     C23935   2.372   3.537   7.847  0.5565  0.4408  0.1356
  919MOL0     C23936   2.260   3.545   7.933  0.0994 -0.3706  0.7326
  919MOL0     C23937   2.170   3.652   7.915  0.3154 -0.2169  0.2869
  919MOL0     O23938   2.052   3.661   7.985 -1.3856 -0.1090  0.2143
  919MOL0     C23939   2.016   3.584   8.098  0.5709  0.0176  0.2896
  919MOL0     C23940   1.878   3.629   8.128  0.5043  0.1054 -0.1479
  919MOL0     C23941   1.862   3.779   8.134  0.0475  0.4105 -0.0768
  919MOL0     C23942   1.734   3.823   8.203 -0.1233 -0.6481  0.9122
  919MOL0     C23943   1.718   3.971   8.195  0.8849 -0.2090  0.5219
  919MOL0     C23944   1.693   4.029   8.055  0.2193 -0.8988  0.5758
  919MOL0     C23945   1.623   4.170   8.056  0.6772  0.1428 -0.8362
  919MOL0     C23946   1.706   4.282   8.126 -0.6829  0.4236  0.2699
  919MOL0     N23947   1.653   4.417   8.097 -0.6616  0.2633  0.1856
  919MOL0     C23948   1.719   4.521   8.055  0.8163  0.0877 -0.9316
  919MOL0     C23949   1.649   4.634   8.085  0.0284  0.1294  0.2520
  919MOL0     C23950   1.705   4.778   8.115 -0.2704 -0.4572 -0.4699
  919MOL0     C23951   1.825   4.814   8.045 -0.4439 -0.5060  0.6764
  919MOL0     C23952   1.888   4.948   8.065  0.2003  0.2353  0.0115
  919MOL0     C23953   1.905   4.997   8.212  0.1410 -0.4908 -0.0992
  919MOL0     O23954   2.004   4.917   8.273  0.0234 -0.2592 -0.2297
  919MOL0     C23955   2.043   4.938   8.400 -0.3755 -0.7757  0.1116
  919MOL0     C23956   2.161   4.887   8.437  0.5285  0.1482  0.0358
  919MOL0     C23957   2.217   4.896   8.567  0.3104  0.6403  0.2863
  919MOL0     C23958   2.341   4.817   8.598  0.2444  0.1421 -0.1008
  919MOL0     C23959   2.145   4.969   8.659  1.0207  0.1912 -0.2424
  919MOL0     C23960   2.181   4.985   8.800 -0.7712 -0.9283 -0.5914
  919MOL0     O23961   2.078   4.999   8.889  0.0335 -0.3797  0.4034
  919MOL0     C23962   2.091   5.030   9.022  0.3983  0.6496 -0.0126
  919MOL0     C23963   2.200   5.032   9.103 -0.0282 -0.6302 -0.1559
  919MOL0     C23964   2.191   5.082   9.235  0.5190 -0.2014 -0.0843
  919MOL0     C23965   2.066   5.127   9.279 -0.2087  0.1078 -0.6428
  919MOL0     O23966   2.053   5.205   9.397 -0.5532  0.9263 -0.0608
  919MOL0     C23967   1.924   5.238   9.452 -0.5024  0.2018 -0.4620
  919MOL0     C23968   1.947   5.310   9.593  0.5185  0.9379 -0.1794
  919MOL0     C23969   1.820   5.311   9.674 -0.0620  0.0060 -0.3411
  919MOL0     C23970   1.840   5.327   9.832 -0.8455  0.4018  0.3288
  919MOL0     C23971   1.716   5.281   9.907 -1.5254  1.3099  0.4726
  919MOL0     C23972   1.739   5.303  10.056  0.7336 -0.1243 -0.1540
  919MOL0     C23973   1.610   5.287  10.145  0.2385 -0.2641  0.4483
  919MOL0     C23974   1.640   5.245  10.289 -1.4072  0.0769 -0.4809
  919MOL0    Cl23975   1.506   5.208  10.378 -0.1421  0.0648 -0.1422
  919MOL0     C23976   1.954   5.104   9.199 -0.8086 -0.2748  0.0373
  919MOL0     C23977   1.970   5.040   9.081 -0.9282  0.1143  0.0517
  919MOL0     O23978   2.297   4.990   8.838  0.0619  0.0803  0.1516
  919MOL0     C23979   2.019   5.025   8.619 -0.2164 -0.5854  0.5293
  919MOL0     C23980   1.969   5.016   8.493  0.1408  1.2616  0.2351
  919MOL0     N23981   1.520   4.589   8.120  0.1168  0.8314 -0.0995
  919MOL0     N23982   1.521   4.459   8.131 -0.0718 -0.0550  0.1037
  919MOL0     C23983   2.187   3.746   7.805 -1.2702 -0.8679  0.6099
  919MOL0     C23984   2.309   3.735   7.726  0.1097  0.1728  0.6423
  919MOL0     C23985   2.717   3.705   7.596 -1.0265 -0.8939  0.4221
  919MOL0     C23986   2.820   3.806   7.597  1.5793 -0.0819  0.5084
  919MOL0     C23987   2.916   3.805   7.495  0.1002 -0.0410  0.3544
  919MOL0     C23988   2.910   3.711   7.390 -0.4100  0.5612  0.1715
  919MOL0     O23989   3.009   3.722   7.298 -0.4690 -0.5648  0.6090
  919MOL0     C23990   3.017   3.614   7.198  0.7859 -0.2987 -0.4155
  919MOL0     C23991   3.125   3.642   7.107 -0.2550 -0.9580  0.1414
  919MOL0     C23992   3.128   3.579   6.975  0.3477  0.5485  0.0057
  919MOL0     C23993   3.258   3.584   6.907  0.3030  0.1696  0.0053
  919MOL0     C23994   3.263   3.488   6.793 -1.2029 -0.8144 -0.1659
  919MOL0     C23995   3.273   3.402   6.712 -0.2308  0.2297  0.0887
  919MOL0     C23996   2.811   3.618   7.392 -0.1649 -0.1552 -0.0070
  919MOL0     C23997   2.717   3.608   7.501 -0.8835  0.7508 -0.7969
  919MOL0     H23998   2.439   3.452   7.857  1.7311  0.9574 -2.4506
  919MOL0     H23999   2.240   3.470   8.008 -0.0093 -0.9930  0.0869
  919MOL0     H24000   2.028   3.476   8.084  1.4132  0.4250 -3.1751
  919MOL0     H24001   2.077   3.611   8.185  2.9266 -0.6758 -1.0378
  919MOL0     H24002   1.800   3.602   8.055  0.7783 -2.5391  0.4279
  919MOL0     H24003   1.840   3.576   8.216  2.0136 -3.0372 -1.2289
  919MOL0     H24004   1.957   3.830   8.156  0.6305 -0.0047 -1.5043
  919MOL0     H24005   1.859   3.812   8.030  2.5983 -2.0110 -1.0573
  919MOL0     H24006   1.642   3.774   8.170 -0.0261  0.6909 -1.5256
  919MOL0     H24007   1.744   3.793   8.308 -1.6820 -0.2311  1.2073
  919MOL0     H24008   1.634   4.005   8.257  2.6723  2.9533  1.4047
  919MOL0     H24009   1.815   4.009   8.226  0.2847  3.6863 -1.7221
  919MOL0     H24010   1.787   4.046   8.001 -1.3803  3.5739 -1.2683
  919MOL0     H24011   1.623   3.968   7.997 -3.6142  0.5945  3.2344
  919MOL0     H24012   1.627   4.199   7.951  3.1194  0.4676 -0.7268
  919MOL0     H24013   1.519   4.174   8.088  1.2338  1.8348  1.0210
  919MOL0     H24014   1.811   4.274   8.098 -0.3850 -0.2976  1.5079
  919MOL0     H24015   1.703   4.257   8.232  0.1472 -1.1412 -0.0476
  919MOL0     H24016   1.826   4.521   8.034  1.6382  0.6699  2.6406
  919MOL0     H24017   1.629   4.856   8.123 -1.6255 -1.7410 -0.3788
  919MOL0     H24018   1.741   4.753   8.216 -2.7430  0.6090  0.7739
  919MOL0     H24019   1.821   4.800   7.936  2.6897 -1.0314  0.5500
  919MOL0     H24020   1.898   4.739   8.076 -2.4089 -2.2181  1.3980
  919MOL0     H24021   1.824   5.024   8.019 -0.7597  0.7822  2.1509
  919MOL0     H24022   1.984   4.960   8.014  0.6042 -2.1552  0.1170
  919MOL0     H24023   1.815   4.982   8.273  1.5800 -2.4978  1.6714
  919MOL0     H24024   1.937   5.101   8.219 -2.5308  0.3233  1.3056
  919MOL0     H24025   2.222   4.823   8.373 -1.7896 -1.1837 -0.9740
  919MOL0     H24026   2.375   4.745   8.523 -0.0668 -0.3800  0.2570
  919MOL0     H24027   2.424   4.887   8.613 -1.0346  1.6610  0.1772
  919MOL0     H24028   2.340   4.760   8.691  3.6758 -1.8438 -1.0935
  919MOL0     H24029   2.298   4.995   9.073 -0.3894  0.9240 -3.6878
  919MOL0     H24030   2.278   5.110   9.294  2.3575 -2.6360 -1.4821
  919MOL0     H24031   1.846   5.289   9.395 -2.7352 -1.5082  0.8493
  919MOL0     H24032   1.885   5.141   9.484  0.9126  0.1186  1.1547
  919MOL0     H24033   2.019   5.258   9.657  1.4720  0.0519 -1.9043
  919MOL0     H24034   1.987   5.411   9.584  2.0762  0.3705  0.1602
  919MOL0     H24035   1.767   5.215   9.666 -1.2733  0.7220 -1.4213
  919MOL0     H24036   1.756   5.383   9.622 -0.4324 -1.8639 -2.6947
  919MOL0     H24037   1.923   5.263   9.864 -1.4263 -1.1817 -1.1695
  919MOL0     H24038   1.868   5.424   9.875  1.8891 -0.1111 -0.1025
  919MOL0     H24039   1.691   5.175   9.899 -0.4293  0.6751  3.8905
  919MOL0     H24040   1.628   5.341   9.882 -2.0851  0.7184  0.9639
  919MOL0     H24041   1.815   5.230  10.084 -1.9252 -3.4939 -0.9622
  919MOL0     H24042   1.773   5.402  10.085  1.6111 -0.4744  0.0266
  919MOL0     H24043   1.533   5.225  10.098  0.9329 -0.9320  0.1805
  919MOL0     H24044   1.555   5.382  10.140 -2.2772 -1.6941 -0.9267
  919MOL0     H24045   1.696   5.328  10.332 -0.6640 -0.2001 -0.8908
  919MOL0     H24046   1.707   5.158  10.286  2.6981  2.9913 -2.9008
  919MOL0     H24047   1.861   5.152   9.228 -0.5095  0.5109 -0.2836
  919MOL0     H24048   1.879   5.019   9.025  0.6250 -1.4969 -2.0072
  919MOL0     H24049   1.946   5.068   8.687 -2.1248 -2.1604 -0.4364
  919MOL0     H24050   1.879   5.068   8.463 -1.2365 -0.3435  1.3356
  919MOL0     H24051   2.111   3.820   7.784 -0.4441  0.3933  1.9307
  919MOL0     H24052   2.313   3.809   7.647  3.5946 -0.3824  0.1514
  919MOL0     H24053   2.813   3.889   7.666  1.9036 -0.8580  1.5116
  919MOL0     H24054   3.002   3.871   7.485 -0.3554  0.3437 -1.4641
  919MOL0     H24055   3.016   3.516   7.247 -2.0494 -0.0071  0.3160
  919MOL0     H24056   2.924   3.626   7.141  1.8796  0.8335 -2.0415
  919MOL0     H24057   3.223   3.632   7.155  0.8637  1.0390 -1.5118
  919MOL0     H24058   3.112   3.750   7.091 -2.3928 -1.2368 -0.2120
  919MOL0     H24059   3.045   3.610   6.912  0.2217  1.8053  0.7528
  919MOL0     H24060   3.112   3.472   6.995 -1.5014  1.0736  1.6449
  919MOL0     H24061   3.343   3.559   6.971 -1.8862 -0.9071  2.7050
  919MOL0     H24062   3.274   3.685   6.868  0.9471  0.4423  0.9342
  919MOL0     H24063   3.278   3.311   6.655 -3.7946  1.5610 -2.6840
  919MOL0     H24064   2.817   3.547   7.310  2.1999  1.8954 -1.7459
  919MOL0     H24065   2.637   3.535   7.489  0.0662 -0.1475 -1.8745
  920MOL0     O24066   5.980   0.861   8.336 -0.5510 -0.7839 -0.5668
  920MOL0     C24067   5.948   0.746   8.313  0.9026  0.4060 -0.4064
  920MOL0     O24068   5.989   0.643   8.378  0.3066 -0.1433 -0.7562
  920MOL0     C24069   5.997   0.663   8.513 -1.2432  0.4213  0.6704
  920MOL0     C24070   5.877   0.664   8.591 -0.4230 -0.0170 -0.5168
  920MOL0     C24071   5.877   0.710   8.724  0.0857  0.3713 -0.1764
  920MOL0     C24072   6.000   0.739   8.790 -0.2889  0.5365 -0.2870
  920MOL0     O24073   5.980   0.750   8.922  0.5601 -0.5719 -0.0939
  920MOL0     C24074   6.078   0.796   9.020 -0.2173 -0.5533  0.2930
  920MOL0     C24075   5.990   0.861   9.126 -1.0886  1.1337 -0.2696
  920MOL0     C24076   6.070   0.928   9.238 -0.3829 -0.5533 -0.1426
  920MOL0     C24077   5.980   1.010   9.320  0.0031 -0.2851 -0.4889
  920MOL0     C24078   6.056   1.082   9.432  0.1548 -0.2031 -0.1740
  920MOL0     C24079   5.962   1.157   9.525  0.6973 -0.0708  0.3919
  920MOL0     C24080   6.036   1.230   9.634 -0.3160 -0.1813  0.3478
  920MOL0     C24081   5.941   1.321   9.717  0.1236 -0.5629  1.2924
  920MOL0     N24082   6.003   1.358   9.846  0.5250 -0.3401 -0.5460
  920MOL0     C24083   6.122   1.416   9.871  0.0488  0.1136 -0.6030
  920MOL0     C24084   6.136   1.422  10.004 -0.0185  0.4354  1.1178
  920MOL0     C24085   6.245   1.485  10.093  0.1751  0.1146  0.5547
  920MOL0     C24086   6.220   1.641  10.094 -0.1304  0.5694 -0.8053
  920MOL0     C24087   6.084   1.684  10.158  0.5321 -1.1362  0.6415
  920MOL0     C24088   6.039   1.623  10.288 -0.1257 -0.0259  0.4046
  920MOL0     O24089   6.108   1.682  10.406  0.0727  0.0457  1.1462
  920MOL0     C24090   6.045   1.647  10.525 -0.3521 -0.8001 -0.9347
  920MOL0     C24091   5.982   1.530  10.545  0.2777  0.3454 -0.0697
  920MOL0     C24092   5.910   1.505  10.665 -1.2092  0.5411  0.2712
  920MOL0     C24093   5.818   1.383  10.678  0.4537 -0.3201 -0.3337
  920MOL0     C24094   5.931   1.587  10.776  1.0004 -0.2358 -0.2305
  920MOL0     C24095   5.888   1.568  10.919  0.7290  0.6232  1.4080
  920MOL0     O24096   5.918   1.449  10.967 -0.3828 -0.4112 -0.2095
  920MOL0     C24097   5.876   1.415  11.093 -0.7127 -1.1697 -0.3912
  920MOL0     C24098   5.847   1.498  11.211 -0.5639  0.3370  0.1941
  920MOL0     C24099   5.809   1.445  11.330  0.8234  0.3951  0.3486
  920MOL0     C24100   5.808   1.302  11.350 -0.2031 -0.5749  0.0071
  920MOL0     O24101   5.786   1.266  11.478 -0.0993  0.4471  0.1458
  920MOL0     C24102   5.890   1.200  11.553 -0.0281 -0.3198  0.5144
  920MOL0     C24103   5.810   1.133  11.666 -0.2572 -0.3536  0.3912
  920MOL0     C24104   5.895   1.029  11.739 -0.5133 -0.4765 -0.1067
  920MOL0     C24105   6.004   1.088  11.829 -0.8214 -0.0154 -0.3071
  920MOL0     C24106   6.085   0.975  11.895 -0.4056  0.2616 -0.0058
  920MOL0     C24107   6.153   0.881  11.799 -0.9006  0.6532  0.7646
  920MOL0     C24108   6.237   0.770  11.864  0.2691 -0.5614 -0.5189
  920MOL0     C24109   6.278   0.664  11.767 -1.4651  0.8190  0.0205
  920MOL0    Cl24110   6.326   0.519  11.858 -0.3112 -0.2681  0.1651
  920MOL0     C24111   5.841   1.221  11.241 -0.0720  0.0512  0.0561
  920MOL0     C24112   5.875   1.277  11.119 -0.6738 -0.7483  0.5130
  920MOL0     O24113   5.816   1.662  10.962 -0.1832  0.1385  0.7304
  920MOL0     C24114   6.011   1.702  10.759 -0.8362 -0.1618  0.6560
  920MOL0     C24115   6.070   1.732  10.636 -0.1771 -0.8742  0.5761
  920MOL0     N24116   6.018   1.385  10.058  0.5693  0.8398 -0.3220
  920MOL0     N24117   5.944   1.331   9.966 -0.6405  0.0265  0.1240
  920MOL0     C24118   6.126   0.736   8.713  0.3339 -0.3372  0.7298
  920MOL0     C24119   6.122   0.700   8.574 -0.1332 -0.1787 -0.0367
  920MOL0     C24120   5.832   0.715   8.221  0.3166 -0.3115 -0.0762
  920MOL0     C24121   5.762   0.823   8.161 -0.4567  0.1750  0.3522
  920MOL0     C24122   5.652   0.805   8.077  0.4891 -0.6031 -0.2851
  920MOL0     C24123   5.609   0.678   8.033  0.4218 -0.8069  0.3810
  920MOL0     O24124   5.511   0.634   7.943 -0.1839  0.0256 -0.3219
  920MOL0     C24125   5.448   0.728   7.850 -0.6894 -0.2314  0.0439
  920MOL0     C24126   5.318   0.670   7.808  0.8818  0.0418  0.4613
  920MOL0     C24127   5.198   0.698   7.909  0.8766 -0.3780  0.4339
  920MOL0     C24128   5.060   0.693   7.828  0.4600 -0.7143 -0.9217
  920MOL0     C24129   4.968   0.789   7.904 -0.1847  0.3692  0.1960
  920MOL0     C24130   4.907   0.868   7.962  0.0751  0.1605 -0.1474
  920MOL0     C24131   5.672   0.569   8.099  0.4254  0.1047  0.4263
  920MOL0     C24132   5.787   0.589   8.186 -0.9270  0.8268  1.3857
  920MOL0     H24133   5.776   0.639   8.560 -0.7921 -0.4319  0.9112
  920MOL0     H24134   5.779   0.725   8.769  0.1052  0.5834 -0.2011
  920MOL0     H24135   6.120   0.697   9.041  2.7876  0.5626  0.0743
  920MOL0     H24136   6.154   0.859   8.972  0.7066 -0.3036  1.9873
  920MOL0     H24137   5.926   0.932   9.073  0.6427 -0.0085 -4.2709
  920MOL0     H24138   5.924   0.784   9.168 -2.5404  3.3350  1.7742
  920MOL0     H24139   6.127   0.855   9.297 -0.9086 -1.4039 -0.6570
  920MOL0     H24140   6.142   0.993   9.189 -2.0248  1.3716 -0.1236
  920MOL0     H24141   5.920   1.082   9.263 -1.5808 -0.8167  0.4383
  920MOL0     H24142   5.913   0.948   9.382  2.5079  0.4667  3.2643
  920MOL0     H24143   6.117   1.012   9.490  1.5938  0.8171 -0.3780
  920MOL0     H24144   6.106   1.159   9.372 -2.1737  0.2182 -1.7112
  920MOL0     H24145   5.907   1.236   9.474  1.6413  0.0955 -0.3939
  920MOL0     H24146   5.888   1.091   9.572 -0.1973  0.7493  0.1771
  920MOL0     H24147   6.084   1.152   9.693 -0.3682 -3.3263 -3.3432
  920MOL0     H24148   6.119   1.290   9.595 -1.0079  0.0771 -0.7643
  920MOL0     H24149   5.847   1.268   9.738  0.2725 -1.9141 -1.0701
  920MOL0     H24150   5.909   1.405   9.655  0.8243 -2.3516 -1.7305
  920MOL0     H24151   6.195   1.457   9.802 -1.3210 -1.1584 -2.9488
  920MOL0     H24152   6.239   1.432  10.189 -2.7851 -1.0095 -0.1278
  920MOL0     H24153   6.345   1.461  10.058 -0.0060 -1.9548  1.3142
  920MOL0     H24154   6.233   1.677   9.992  0.4285  1.5382 -0.4048
  920MOL0     H24155   6.307   1.681  10.148 -0.3413 -0.8742  0.7069
  920MOL0     H24156   6.002   1.672  10.087  0.7635 -2.9158  0.6051
  920MOL0     H24157   6.106   1.788  10.183  3.5368 -1.9019  1.6375
  920MOL0     H24158   6.077   1.520  10.286 -0.3231 -0.1106  1.0673
  920MOL0     H24159   5.932   1.632  10.305  0.4202  3.6699  2.9307
  920MOL0     H24160   5.965   1.458  10.465 -2.9762 -1.0515  1.6945
  920MOL0     H24161   5.763   1.382  10.772  0.8510  0.4414 -0.0857
  920MOL0     H24162   5.744   1.396  10.599 -1.2017 -0.6054  1.1266
  920MOL0     H24163   5.877   1.291  10.687 -1.8310 -1.7171  1.1836
  920MOL0     H24164   5.839   1.606  11.212 -0.9059  0.3106  0.3558
  920MOL0     H24165   5.782   1.507  11.414  0.6848  0.4578  0.2591
  920MOL0     H24166   5.939   1.125  11.489  0.5896  0.6510 -0.1820
  920MOL0     H24167   5.970   1.271  11.575  0.5854 -1.2499  1.3075
  920MOL0     H24168   5.773   1.206  11.738  1.6343  0.5832  0.4935
  920MOL0     H24169   5.739   1.078  11.604  2.4930 -4.7768  0.7275
  920MOL0     H24170   5.936   0.963  11.662 -2.5886 -0.4081 -1.3555
  920MOL0     H24171   5.831   0.957  11.791 -1.3634 -0.6090 -1.2967
  920MOL0     H24172   6.077   1.149  11.776 -0.2404  1.7489  2.3534
  920MOL0     H24173   5.965   1.150  11.910 -2.1414 -0.9702 -0.1783
  920MOL0     H24174   6.018   0.921  11.963 -1.9536  3.3647  1.1282
  920MOL0     H24175   6.157   1.011  11.969 -0.4476 -0.0967  0.2179
  920MOL0     H24176   6.074   0.840  11.736 -1.7493  0.5532  1.8606
  920MOL0     H24177   6.226   0.942  11.745  3.0973 -2.1600  2.4234
  920MOL0     H24178   6.167   0.738  11.942  0.8400  2.5013  1.4622
  920MOL0     H24179   6.326   0.815  11.909  0.8879 -0.4371 -1.8226
  920MOL0     H24180   6.362   0.695  11.703  2.1000 -0.7177  3.5217
  920MOL0     H24181   6.186   0.645  11.711 -0.8791 -3.4572  0.1861
  920MOL0     H24182   5.846   1.114  11.253  2.6654  0.1999  0.7928
  920MOL0     H24183   5.911   1.220  11.034 -1.0247  2.8026 -2.2516
  920MOL0     H24184   6.033   1.771  10.840  1.6117  0.6691 -0.6187
  920MOL0     H24185   6.143   1.812  10.626  0.0930 -1.1596  0.2170
  920MOL0     H24186   6.220   0.739   8.766  0.9272  0.1198 -0.3394
  920MOL0     H24187   6.203   0.703   8.503 -0.5743 -0.0135 -0.5360
  920MOL0     H24188   5.790   0.924   8.191 -1.2160  0.1045  1.3793
  920MOL0     H24189   5.597   0.891   8.040 -3.3161 -2.5732  0.2818
  920MOL0     H24190   5.430   0.827   7.893 -1.7080 -1.7306  3.4139
  920MOL0     H24191   5.518   0.737   7.767  3.7349  0.3764  3.4705
  920MOL0     H24192   5.338   0.563   7.795  1.0470  0.1905 -0.6585
  920MOL0     H24193   5.309   0.717   7.710 -0.2919 -0.7370  0.1715
  920MOL0     H24194   5.216   0.785   7.973  0.7925 -0.4363  0.5367
  920MOL0     H24195   5.200   0.611   7.976 -0.6795 -1.0861 -0.4046
  920MOL0     H24196   5.021   0.591   7.833  0.6334 -0.7363  0.8103
  920MOL0     H24197   5.070   0.733   7.727 -2.8411  1.8845 -0.4225
  920MOL0     H24198   4.858   0.942   8.023  1.2202  1.5491 -0.8593
  920MOL0     H24199   5.641   0.467   8.075  3.4244 -1.0136  0.9494
  920MOL0     H24200   5.849   0.508   8.222 -1.8744  0.1087  1.4347
  921MOL0     O24201   5.529   4.826   2.299  0.2573  0.7433  0.3806
  921MOL0     C24202   5.562   4.926   2.364 -0.8181  0.3448  0.2052
  921MOL0     O24203   5.518   5.053   2.344  0.0406 -0.1936  0.6454
  921MOL0     C24204   5.441   5.084   2.232 -1.2351  0.0268  0.3037
  921MOL0     C24205   5.475   5.030   2.103 -0.5907 -0.4829  0.3633
  921MOL0     C24206   5.396   5.074   1.993  0.0636  0.1859  0.4915
  921MOL0     C24207   5.296   5.166   2.011  0.4514  0.3347  0.9019
  921MOL0     O24208   5.221   5.182   1.892  0.1586  0.3878  0.3685
  921MOL0     C24209   5.167   5.310   1.873 -0.0843 -0.4410 -0.0981
  921MOL0     C24210   5.121   5.320   1.723 -0.9987 -0.1122 -0.7090
  921MOL0     C24211   5.120   5.462   1.658 -0.2547 -0.8947  0.4629
  921MOL0     C24212   5.100   5.466   1.500  0.0191 -0.5883 -1.0181
  921MOL0     C24213   5.115   5.609   1.441  0.4493  0.3624  1.4654
  921MOL0     C24214   5.113   5.596   1.286  0.7758 -0.8941  0.3254
  921MOL0     C24215   5.138   5.739   1.220 -0.6148 -0.5516  0.0081
  921MOL0     C24216   5.281   5.799   1.249  0.3312  0.1668  0.0259
  921MOL0     N24217   5.302   5.927   1.172  1.3282 -0.5271 -0.0225
  921MOL0     C24218   5.224   6.042   1.173  0.3796  0.7302  0.8376
  921MOL0     C24219   5.277   6.110   1.075  0.5088  0.2537 -0.1234
  921MOL0     C24220   5.234   6.257   1.065 -0.0310 -0.1678  0.5918
  921MOL0     C24221   5.290   6.337   0.950 -0.4883  0.0091  0.6615
  921MOL0     C24222   5.261   6.490   0.964  0.8100  0.9750  0.5244
  921MOL0     C24223   5.346   6.558   1.064  0.2795 -1.3546 -0.5816
  921MOL0     O24224   5.271   6.657   1.144  0.5273  0.1913  0.2308
  921MOL0     C24225   5.302   6.655   1.280  0.1452  0.2517  0.0248
  921MOL0     C24226   5.202   6.668   1.373 -0.4826 -0.2531 -0.4025
  921MOL0     C24227   5.231   6.667   1.506 -1.1121  0.2044  1.5237
  921MOL0     C24228   5.114   6.672   1.604 -0.2240  1.4768  0.0276
  921MOL0     C24229   5.366   6.670   1.541 -0.5257  0.2695 -0.2813
  921MOL0     C24230   5.421   6.686   1.680 -0.1017  0.1044 -0.4858
  921MOL0     O24231   5.545   6.730   1.699 -0.7432 -0.2791  0.2442
  921MOL0     C24232   5.578   6.776   1.826 -0.6274 -0.4799 -0.0680
  921MOL0     C24233   5.489   6.858   1.915 -1.5645  0.3728  0.5644
  921MOL0     C24234   5.537   6.899   2.041  0.0498  0.5112 -0.3659
  921MOL0     C24235   5.671   6.890   2.075 -1.0296  0.3428  0.3424
  921MOL0     O24236   5.738   6.955   2.173  0.2041 -0.6487 -0.1496
  921MOL0     C24237   5.680   6.941   2.297  0.3034  0.5213 -0.7289
  921MOL0     C24238   5.617   7.072   2.327 -0.6492  0.2024  0.6566
  921MOL0     C24239   5.505   7.082   2.446 -0.8891  0.4671  0.8077
  921MOL0     C24240   5.379   7.041   2.366 -0.0175 -0.1819 -0.4637
  921MOL0     C24241   5.261   7.020   2.461  0.0298 -0.4365  0.7082
  921MOL0     C24242   5.202   7.162   2.495 -0.7018  0.2504  0.5688
  921MOL0     C24243   5.067   7.145   2.577 -0.1677  0.4888  0.2222
  921MOL0     C24244   4.949   7.110   2.487  0.7767  0.9079 -0.3212
  921MOL0    Cl24245   4.812   7.078   2.592 -0.0512  0.2964 -0.0221
  921MOL0     C24246   5.758   6.813   1.981 -0.1893  0.0292 -0.4932
  921MOL0     C24247   5.717   6.766   1.865  0.4334  0.5564  0.4564
  921MOL0     O24248   5.343   6.639   1.769 -1.1599 -0.3095 -0.1588
  921MOL0     C24249   5.469   6.663   1.454  1.2662  0.7503 -0.0815
  921MOL0     C24250   5.438   6.655   1.321 -0.8695  0.2943 -0.4465
  921MOL0     N24251   5.376   6.046   1.006 -0.2432  0.6740  0.1756
  921MOL0     N24252   5.380   5.927   1.065 -0.5495  0.3213 -0.2933
  921MOL0     C24253   5.274   5.230   2.129  0.1556  0.0778 -0.6977
  921MOL0     C24254   5.339   5.185   2.244  0.5388 -0.7700  0.4450
  921MOL0     C24255   5.670   4.913   2.462  0.3023  0.4593 -0.3941
  921MOL0     C24256   5.693   5.013   2.554  0.0936 -0.0852  0.8076
  921MOL0     C24257   5.803   4.997   2.653  0.5952 -0.2155  0.1844
  921MOL0     C24258   5.872   4.880   2.664 -0.4967  0.2647 -0.1093
  921MOL0     O24259   5.983   4.873   2.745  0.0470 -0.0205  0.0707
  921MOL0     C24260   6.040   4.977   2.834 -1.3607  0.0434 -0.8838
  921MOL0     C24261   6.176   5.011   2.775 -0.2987 -0.2233 -0.0402
  921MOL0     C24262   6.280   4.897   2.772  0.4058  0.3456 -0.2805
  921MOL0     C24263   6.381   4.907   2.892 -0.5773  0.2618 -0.0736
  921MOL0     C24264   6.313   4.885   3.021  0.1357  0.0214  0.3270
  921MOL0     C24265   6.273   4.869   3.137  0.0480 -0.7324  0.2019
  921MOL0     C24266   5.844   4.775   2.580  0.8290 -0.4269  0.8283
  921MOL0     C24267   5.747   4.803   2.477  0.6075 -0.3499 -1.0788
  921MOL0     H24268   5.552   4.957   2.080  0.8346 -0.7637  4.9030
  921MOL0     H24269   5.409   5.042   1.891  0.8681  2.7763 -0.3011
  921MOL0     H24270   5.086   5.319   1.946  1.2428  0.0685  1.3593
  921MOL0     H24271   5.233   5.391   1.903 -0.0813 -0.0681 -1.0639
  921MOL0     H24272   5.193   5.263   1.663  3.0754  1.2482  2.4426
  921MOL0     H24273   5.021   5.277   1.708 -1.4327  0.7018 -0.2393
  921MOL0     H24274   5.026   5.503   1.697  0.7739  1.1145  0.9500
  921MOL0     H24275   5.208   5.522   1.683  0.6804 -2.9757  2.5331
  921MOL0     H24276   5.164   5.393   1.450 -1.4530 -1.4706 -1.6716
  921MOL0     H24277   4.996   5.435   1.489 -1.5849  2.0363  3.7181
  921MOL0     H24278   5.021   5.663   1.462  0.5260  0.5358  1.3669
  921MOL0     H24279   5.202   5.663   1.479  0.7396  1.5289 -0.6786
  921MOL0     H24280   5.202   5.538   1.259  2.5923  0.9032  2.0665
  921MOL0     H24281   5.019   5.552   1.252  0.1596  1.6165 -1.5474
  921MOL0     H24282   5.123   5.739   1.112  1.0963 -2.7824 -0.2881
  921MOL0     H24283   5.063   5.807   1.261 -1.9848 -2.5996  1.1190
  921MOL0     H24284   5.354   5.723   1.222  0.6710  0.1834  0.8437
  921MOL0     H24285   5.289   5.823   1.356 -1.8987 -2.9943  1.0234
  921MOL0     H24286   5.155   6.064   1.254  1.1493 -2.2822  2.4495
  921MOL0     H24287   5.125   6.267   1.056  0.2417  1.2952 -1.7027
  921MOL0     H24288   5.266   6.296   1.162 -3.2818 -0.1448  1.7958
  921MOL0     H24289   5.250   6.292   0.858 -0.7507  0.4123  0.5765
  921MOL0     H24290   5.398   6.323   0.939 -0.3137  1.1840  0.8271
  921MOL0     H24291   5.153   6.503   0.977  1.2195  3.8251  1.9138
  921MOL0     H24292   5.287   6.527   0.865  0.0229  1.2706  0.4175
  921MOL0     H24293   5.428   6.612   1.016 -1.0123  2.5684  1.1715
  921MOL0     H24294   5.398   6.477   1.115  2.3082 -0.9633 -1.9402
  921MOL0     H24295   5.098   6.672   1.343  0.4327 -1.6749 -4.4532
  921MOL0     H24296   5.018   6.670   1.553 -1.2681  0.6190  1.9008
  921MOL0     H24297   5.112   6.580   1.663 -1.9927 -0.0264 -2.2175
  921MOL0     H24298   5.114   6.759   1.671  5.8754  1.6314  0.3328
  921MOL0     H24299   5.386   6.872   1.883 -2.4488 -4.0819  0.7457
  921MOL0     H24300   5.456   6.936   2.103 -1.1822 -1.6651 -0.6131
  921MOL0     H24301   5.598   6.870   2.299  0.4977  0.3054 -0.1658
  921MOL0     H24302   5.752   6.911   2.374 -0.7765 -0.2648  0.0087
  921MOL0     H24303   5.702   7.136   2.356  1.5448 -1.8900 -0.7818
  921MOL0     H24304   5.565   7.103   2.236  1.2800  1.4618 -0.0868
  921MOL0     H24305   5.497   7.186   2.480  0.5622  0.9637 -0.2699
  921MOL0     H24306   5.527   7.011   2.527 -1.0550 -0.1127  0.3493
  921MOL0     H24307   5.356   7.108   2.283  0.0117 -0.3180 -0.5829
  921MOL0     H24308   5.394   6.947   2.312 -1.8503  0.7673 -2.8399
  921MOL0     H24309   5.291   6.961   2.548 -0.8745 -0.9662  0.6675
  921MOL0     H24310   5.179   6.968   2.412 -3.2112  2.9192  2.0920
  921MOL0     H24311   5.286   7.212   2.544  2.1144 -0.8741 -2.7199
  921MOL0     H24312   5.181   7.221   2.405 -2.4260 -1.0108  0.0837
  921MOL0     H24313   5.052   7.232   2.641 -0.8972 -0.0896  0.8519
  921MOL0     H24314   5.089   7.064   2.647  0.2462 -1.8087 -2.3886
  921MOL0     H24315   4.956   7.038   2.406  0.6532  0.3219  0.1855
  921MOL0     H24316   4.938   7.204   2.432  0.7901  0.5522 -0.9345
  921MOL0     H24317   5.862   6.790   2.001 -0.2420  0.9283  0.9712
  921MOL0     H24318   5.781   6.704   1.802  2.8969  1.7030  1.7122
  921MOL0     H24319   5.573   6.651   1.484  1.2498  3.2933  1.2436
  921MOL0     H24320   5.520   6.633   1.253 -0.5242 -1.7068  0.5263
  921MOL0     H24321   5.209   5.317   2.128  0.3369  0.3541 -4.3194
  921MOL0     H24322   5.325   5.251   2.330 -1.9184  5.6096 -4.0528
  921MOL0     H24323   5.651   5.113   2.545  1.5520  0.5022  0.2758
  921MOL0     H24324   5.829   5.092   2.699  1.2688 -0.8319  1.1358
  921MOL0     H24325   5.974   5.064   2.840  0.8397  1.7268  0.0445
  921MOL0     H24326   6.063   4.945   2.936  3.4540  2.7323 -0.8418
  921MOL0     H24327   6.222   5.097   2.824  1.0112 -3.0079  4.1760
  921MOL0     H24328   6.150   5.049   2.676 -1.6391  2.9113  1.3468
  921MOL0     H24329   6.341   4.910   2.682  1.1217  0.6067  0.2352
  921MOL0     H24330   6.226   4.803   2.759  0.0307  0.3425  1.1241
  921MOL0     H24331   6.436   5.001   2.903 -4.8053  2.6680  4.1672
  921MOL0     H24332   6.452   4.826   2.872  0.8013  1.6607 -1.0570
  921MOL0     H24333   6.263   4.856   3.243  0.1647 -0.9302  0.1897
  921MOL0     H24334   5.904   4.684   2.574 -0.3061 -1.2516  1.5500
  921MOL0     H24335   5.734   4.721   2.406  1.4250 -1.0940 -0.3958
  922MOL0     O24336   4.726   2.499   8.191  0.0039 -0.3462 -0.8489
  922MOL0     C24337   4.835   2.437   8.175  0.7125 -1.0193 -0.2270
  922MOL0     O24338   4.960   2.486   8.198  0.7294 -0.9433  0.0345
  922MOL0     C24339   4.986   2.618   8.241  0.7487  0.1058  0.0827
  922MOL0     C24340   5.037   2.633   8.370 -0.3756 -0.6976 -0.0671
  922MOL0     C24341   5.077   2.756   8.420 -0.3582  0.3178  0.6392
  922MOL0     C24342   5.056   2.867   8.341 -0.4542 -0.7896 -1.2796
  922MOL0     O24343   5.114   2.978   8.398  0.2550 -0.4899 -1.0278
  922MOL0     C24344   5.108   3.099   8.322  0.0670  0.2823 -0.2079
  922MOL0     C24345   5.156   3.219   8.403  0.7085 -0.1965 -0.1734
  922MOL0     C24346   5.067   3.266   8.522 -0.9059 -0.5946 -0.1648
  922MOL0     C24347   5.074   3.168   8.641  0.5227 -0.3848 -0.6683
  922MOL0     C24348   5.211   3.201   8.716 -0.4966  0.0511  0.1177
  922MOL0     C24349   5.242   3.088   8.816 -0.2844 -0.2417 -0.6841
  922MOL0     C24350   5.359   3.123   8.915  0.6996  0.2475  1.2504
  922MOL0     C24351   5.380   3.013   9.021 -0.0645 -0.4806  0.5352
  922MOL0     N24352   5.258   2.969   9.087 -0.9030 -0.2179  1.0207
  922MOL0     C24353   5.191   2.847   9.073  0.5370  0.1522 -0.5490
  922MOL0     C24354   5.092   2.862   9.165 -0.8549 -0.0705  0.3498
  922MOL0     C24355   4.996   2.755   9.206 -0.1753  0.4583 -0.5330
  922MOL0     C24356   4.908   2.724   9.087 -0.2705  0.1322  0.3735
  922MOL0     C24357   4.767   2.700   9.137 -0.9037  0.2996 -0.1079
  922MOL0     C24358   4.673   2.670   9.018  0.1256  0.3624 -0.4918
  922MOL0     O24359   4.663   2.785   8.935 -0.2585 -0.4405 -0.0400
  922MOL0     C24360   4.604   2.760   8.812 -0.2974  0.1489 -0.5031
  922MOL0     C24361   4.662   2.814   8.701  0.6049 -0.1451  0.0014
  922MOL0     C24362   4.616   2.803   8.570 -0.1178 -0.4307 -0.7830
  922MOL0     C24363   4.676   2.882   8.455 -0.2230 -0.4623  0.7373
  922MOL0     C24364   4.508   2.722   8.545  0.4575 -0.5556  0.9742
  922MOL0     C24365   4.431   2.698   8.415 -0.0332 -0.0618  0.2434
  922MOL0     O24366   4.416   2.562   8.390 -0.3621  0.4923 -0.2930
  922MOL0     C24367   4.341   2.531   8.279  0.0170  0.7266  0.2465
  922MOL0     C24368   4.230   2.439   8.289 -1.0857  0.4888 -0.5661
  922MOL0     C24369   4.161   2.391   8.174 -0.0070 -0.5335  0.3670
  922MOL0     C24370   4.219   2.431   8.046  1.0721 -0.5678 -0.5348
  922MOL0     O24371   4.143   2.402   7.934 -0.4978 -0.8799 -0.6501
  922MOL0     C24372   4.121   2.262   7.912 -0.8567  0.9832  0.8065
  922MOL0     C24373   4.220   2.216   7.815  0.3796  0.7071  0.4171
  922MOL0     C24374   4.201   2.064   7.783  0.5860 -0.7995 -0.2367
  922MOL0     C24375   4.264   1.986   7.898  0.2612  1.0047  0.2808
  922MOL0     C24376   4.279   1.837   7.850  0.2677  0.0130 -0.6538
  922MOL0     C24377   4.298   1.732   7.966  0.3094 -0.8901 -0.1135
  922MOL0     C24378   4.233   1.771   8.102 -0.1190 -0.3454 -0.4850
  922MOL0     C24379   4.233   1.654   8.197 -1.0798 -0.1164  0.6595
  922MOL0    Cl24380   4.396   1.629   8.261  0.2439 -0.3863  0.2520
  922MOL0     C24381   4.333   2.510   8.037 -0.3980  0.4195 -0.3144
  922MOL0     C24382   4.394   2.564   8.153 -0.0318 -0.7285  0.6363
  922MOL0     O24383   4.402   2.790   8.342  0.3219 -0.2214 -0.1644
  922MOL0     C24384   4.451   2.654   8.658 -0.1375  0.2280  0.5837
  922MOL0     C24385   4.498   2.676   8.792  0.4898 -0.7404 -0.7109
  922MOL0     N24386   5.110   2.971   9.239 -0.2874 -0.6110  0.0949
  922MOL0     N24387   5.204   3.037   9.192 -0.4861  1.0004  0.7927
  922MOL0     C24388   5.001   2.862   8.212  0.3851 -0.4644  0.2384
  922MOL0     C24389   4.964   2.735   8.157 -0.4460  0.5480  0.6527
  922MOL0     C24390   4.827   2.289   8.127  0.3584  0.7364 -0.4615
  922MOL0     C24391   4.697   2.225   8.121 -1.0734  0.0313  0.8078
  922MOL0     C24392   4.694   2.089   8.105 -0.0379  0.4401 -0.2494
  922MOL0     C24393   4.813   2.010   8.092  0.6090 -0.0718  0.2061
  922MOL0     O24394   4.797   1.879   8.079  0.4389 -0.0021 -0.8372
  922MOL0     C24395   4.914   1.796   8.070 -0.0690  0.4393 -0.7670
  922MOL0     C24396   4.896   1.651   8.049  1.0938 -0.1067  0.2821
  922MOL0     C24397   4.812   1.574   8.159  0.1956 -0.4874  0.3110
  922MOL0     C24398   4.690   1.509   8.101 -0.6049 -0.9502  0.4030
  922MOL0     C24399   4.715   1.414   7.994 -0.4950  0.1594  0.0065
  922MOL0     C24400   4.744   1.320   7.918  0.2983  1.0951 -0.7399
  922MOL0     C24401   4.933   2.079   8.125  0.9332  0.4013  0.0719
  922MOL0     C24402   4.942   2.214   8.136  0.4607 -0.2085  0.4940
  922MOL0     H24403   5.036   2.544   8.431  0.1553  0.8092  2.2864
  922MOL0     H24404   5.110   2.780   8.521 -0.2909  3.4032 -0.0072
  922MOL0     H24405   5.159   3.088   8.227  0.0573  1.8139 -0.4266
  922MOL0     H24406   5.004   3.127   8.300 -0.4193  2.9955  4.2311
  922MOL0     H24407   5.262   3.196   8.417  0.6581  0.2185  0.9311
  922MOL0     H24408   5.143   3.303   8.333  2.5968  0.0173 -0.3230
  922MOL0     H24409   5.107   3.361   8.559 -0.3058 -1.4702  1.5336
  922MOL0     H24410   4.964   3.256   8.486 -0.4923 -2.6694 -0.9057
  922MOL0     H24411   5.002   3.181   8.722  0.0271 -2.1200 -0.8072
  922MOL0     H24412   5.060   3.064   8.612 -2.8957  0.2280 -1.5874
  922MOL0     H24413   5.291   3.204   8.641 -0.3151  3.5081  0.2854
  922MOL0     H24414   5.213   3.304   8.753 -0.3529  0.8330 -1.9047
  922MOL0     H24415   5.151   3.078   8.875  0.3826  0.5634  0.5177
  922MOL0     H24416   5.252   3.000   8.751 -1.3944 -1.7618  1.1260
  922MOL0     H24417   5.450   3.135   8.856  1.4555 -1.8083  1.9243
  922MOL0     H24418   5.324   3.209   8.973  0.0783  1.5849 -0.9999
  922MOL0     H24419   5.443   3.056   9.100  1.0970 -1.3949  0.1134
  922MOL0     H24420   5.426   2.927   8.973 -1.0635 -0.0479 -1.2903
  922MOL0     H24421   5.228   2.765   9.012 -1.1842 -0.4175 -0.8756
  922MOL0     H24422   5.065   2.673   9.231  1.8046  1.7369 -1.5493
  922MOL0     H24423   4.928   2.786   9.286 -0.6293  1.2091 -1.1990
  922MOL0     H24424   4.937   2.633   9.034  1.0217  0.5668  0.3156
  922MOL0     H24425   4.908   2.815   9.026  0.3606 -2.0516 -3.1846
  922MOL0     H24426   4.746   2.792   9.193 -0.3992  1.6826 -2.0773
  922MOL0     H24427   4.768   2.620   9.211  2.3133  0.4518  0.1871
  922MOL0     H24428   4.574   2.643   9.056 -0.6467  0.6617 -2.1705
  922MOL0     H24429   4.706   2.580   8.965 -1.5708 -1.5513  1.5045
  922MOL0     H24430   4.746   2.880   8.720  1.0562 -0.3559 -1.2026
  922MOL0     H24431   4.652   2.988   8.467 -0.8890 -0.8062  2.8369
  922MOL0     H24432   4.785   2.873   8.447 -0.3232  0.1776 -2.8317
  922MOL0     H24433   4.642   2.847   8.358  0.5697 -1.9689  0.9700
  922MOL0     H24434   4.197   2.398   8.384 -0.8880 -0.1965 -0.7871
  922MOL0     H24435   4.078   2.321   8.176 -1.8647  1.4898 -1.2089
  922MOL0     H24436   4.127   2.200   8.002 -0.5370 -0.3672 -0.1068
  922MOL0     H24437   4.021   2.242   7.871 -0.1292  2.0875 -1.7316
  922MOL0     H24438   4.215   2.268   7.719 -0.8108 -0.2486 -0.0652
  922MOL0     H24439   4.321   2.246   7.842  1.8226  1.8091 -4.9572
  922MOL0     H24440   4.255   2.045   7.689 -0.3975 -0.6372 -0.8486
  922MOL0     H24441   4.099   2.031   7.762  0.8940 -2.5948  0.8810
  922MOL0     H24442   4.358   2.034   7.928  0.8762 -0.3158  0.5236
  922MOL0     H24443   4.209   2.002   7.992 -0.2268  0.1687  0.1471
  922MOL0     H24444   4.364   1.838   7.780  0.0458  0.3752 -0.9217
  922MOL0     H24445   4.186   1.811   7.800 -2.2775 -2.0144  4.4277
  922MOL0     H24446   4.263   1.638   7.923  2.0390 -0.4011 -2.8882
  922MOL0     H24447   4.406   1.720   7.979  1.0020  2.9104 -1.0855
  922MOL0     H24448   4.128   1.791   8.077  0.0060  0.3573 -0.4758
  922MOL0     H24449   4.291   1.853   8.146 -1.2516 -0.0373  0.5024
  922MOL0     H24450   4.198   1.562   8.150  0.5225 -0.0445 -0.7547
  922MOL0     H24451   4.161   1.683   8.274 -4.0330  0.1955 -2.0376
  922MOL0     H24452   4.371   2.526   7.936 -1.1799  0.1246 -0.6729
  922MOL0     H24453   4.486   2.618   8.132 -1.1073  0.5222 -1.1039
  922MOL0     H24454   4.365   2.588   8.646  0.1468 -0.0172 -0.2150
  922MOL0     H24455   4.454   2.636   8.882 -1.0898  0.3075 -0.9711
  922MOL0     H24456   4.992   2.951   8.150 -1.6495 -1.8036 -1.5369
  922MOL0     H24457   4.930   2.725   8.054 -1.6184 -3.7139  1.2656
  922MOL0     H24458   4.609   2.286   8.141 -1.4421 -0.8932  2.0598
  922MOL0     H24459   4.597   2.041   8.107  0.2236 -0.0743  0.9229
  922MOL0     H24460   4.965   1.839   7.982 -1.0664  3.4710 -0.0061
  922MOL0     H24461   4.974   1.810   8.160 -0.4714 -1.8621 -0.0890
  922MOL0     H24462   5.000   1.622   8.064  1.5953  1.3479 -0.1928
  922MOL0     H24463   4.872   1.641   7.942  0.4644 -1.5218  0.5335
  922MOL0     H24464   4.777   1.648   8.232 -1.2570 -1.6338  0.8325
  922MOL0     H24465   4.868   1.499   8.216 -0.6423  1.3861  3.9346
  922MOL0     H24466   4.633   1.591   8.057  3.6414  1.9732 -0.3104
  922MOL0     H24467   4.659   1.450   8.188 -0.0952 -0.3730  0.9859
  922MOL0     H24468   4.774   1.239   7.854 -0.4458 -0.3339  0.6474
  922MOL0     H24469   5.025   2.023   8.134  0.8102  0.4453  1.8928
  922MOL0     H24470   5.040   2.258   8.150 -1.3085  3.4647  2.9982
  923MOL0     O24471   6.007  10.250   7.706 -0.4125  0.4511 -0.0458
  923MOL0     C24472   5.956  10.347   7.750  0.1940 -0.2833 -0.3305
  923MOL0     O24473   6.009  10.435   7.836  0.0202 -0.4906 -0.0747
  923MOL0     C24474   6.132  10.403   7.874 -0.2862 -0.8384 -0.3048
  923MOL0     C24475   6.240  10.427   7.794  0.3779 -0.0925  0.0857
  923MOL0     C24476   6.369  10.399   7.827  0.2279 -0.2863  0.6199
  923MOL0     C24477   6.401  10.340   7.948 -0.4019 -0.1067  0.6841
  923MOL0     O24478   6.537  10.317   7.992 -0.1969  0.1157  0.4879
  923MOL0     C24479   6.604  10.443   8.011  0.5061 -0.0769 -0.4261
  923MOL0     C24480   6.723  10.416   8.089 -0.8923 -0.4867  0.4516
  923MOL0     C24481   6.677  10.381   8.233 -0.5881  0.7293 -0.6072
  923MOL0     C24482   6.792  10.403   8.331  0.3189  0.0288  0.1591
  923MOL0     C24483   6.793  10.321   8.456 -0.3322  0.4371 -0.2935
  923MOL0     C24484   6.847  10.180   8.438  0.3181  0.1796  0.5465
  923MOL0     C24485   6.876  10.112   8.569  0.0616 -0.0833 -0.1577
  923MOL0     C24486   6.889   9.963   8.551  0.2828  0.0804  0.2305
  923MOL0     N24487   6.757   9.900   8.565 -0.0910 -0.1033  0.6043
  923MOL0     C24488   6.643   9.901   8.488  0.3356 -0.3249 -0.2521
  923MOL0     C24489   6.548   9.840   8.573 -0.7913  0.7773  0.0745
  923MOL0     C24490   6.390   9.834   8.541 -0.9811  0.4122  0.6136
  923MOL0     C24491   6.350   9.915   8.416  1.1839  1.0006 -0.6279
  923MOL0     C24492   6.386  10.061   8.396  0.2119  0.4431  0.1569
  923MOL0     C24493   6.346  10.139   8.517 -0.5697  0.7989  1.0541
  923MOL0     O24494   6.416  10.259   8.525 -0.2413  0.4958 -0.6658
  923MOL0     C24495   6.349  10.378   8.512  0.5593  0.4234  0.1106
  923MOL0     C24496   6.323  10.442   8.388  0.0678  0.4432 -0.1812
  923MOL0     C24497   6.288  10.576   8.375 -0.8997 -0.3366 -0.3738
  923MOL0     C24498   6.252  10.626   8.242 -0.1211 -0.0625 -0.1250
  923MOL0     C24499   6.266  10.653   8.493  0.1741  0.6578  0.9643
  923MOL0     C24500   6.210  10.789   8.504 -0.1754  0.3777  0.1657
  923MOL0     O24501   6.223  10.849   8.632  0.5132 -0.3089 -0.1663
  923MOL0     C24502   6.143  10.951   8.679 -0.2182 -0.9043 -0.1440
  923MOL0     C24503   6.065  11.042   8.598 -0.6759  0.2349 -0.1672
  923MOL0     C24504   5.999  11.148   8.659  0.0110 -0.0114  0.4802
  923MOL0     C24505   6.008  11.158   8.801 -0.6221 -0.3399  0.6578
  923MOL0     O24506   5.940  11.244   8.882 -0.1561 -0.4986 -0.6899
  923MOL0     C24507   5.933  11.380   8.851  0.2633 -0.6140 -0.7135
  923MOL0     C24508   5.829  11.447   8.944 -0.7633 -0.1071  0.0229
  923MOL0     C24509   5.790  11.588   8.908 -0.0870  0.0019 -0.5913
  923MOL0     C24510   5.679  11.626   8.999  0.0317 -0.3321 -0.0550
  923MOL0     C24511   5.632  11.774   8.969 -0.0506  0.3644  0.0302
  923MOL0     C24512   5.548  11.836   9.093 -0.6014  0.0849 -0.4749
  923MOL0     C24513   5.478  11.965   9.037 -0.6272 -0.6507  0.0137
  923MOL0     C24514   5.345  11.935   8.974  0.4717  0.4567 -0.2900
  923MOL0    Cl24515   5.260  12.076   8.910 -0.0116 -0.2667  0.1810
  923MOL0     C24516   6.085  11.069   8.875 -0.6062  0.1492  0.5350
  923MOL0     C24517   6.143  10.966   8.819  0.3111  0.2401  0.9659
  923MOL0     O24518   6.148  10.834   8.409  0.4550 -0.1695 -0.8184
  923MOL0     C24519   6.282  10.589   8.622  0.4691 -0.3200  0.5666
  923MOL0     C24520   6.326  10.460   8.629  0.2520  0.4743 -0.6330
  923MOL0     N24521   6.609   9.788   8.687  0.3447 -0.4917 -0.4037
  923MOL0     N24522   6.736   9.817   8.670  0.4057  0.3481 -0.6675
  923MOL0     C24523   6.294  10.294   8.030  0.1746  0.0515 -0.4482
  923MOL0     C24524   6.158  10.328   7.992  1.0948 -0.1773 -0.6823
  923MOL0     C24525   5.829  10.385   7.682  0.8695 -0.4143 -0.3444
  923MOL0     C24526   5.794  10.329   7.556 -0.5383 -0.5432 -0.7134
  923MOL0     C24527   5.668  10.357   7.502 -0.0410  0.5625  0.1989
  923MOL0     C24528   5.576  10.427   7.575  0.4152 -0.3398  1.0471
  923MOL0     O24529   5.453  10.443   7.512  0.4054 -0.7485 -1.6610
  923MOL0     C24530   5.380  10.567   7.532  0.8251  0.2753  0.5493
  923MOL0     C24531   5.253  10.563   7.444  0.7154  0.3554  0.0256
  923MOL0     C24532   5.267  10.496   7.307 -0.4244 -0.7168  0.3231
  923MOL0     C24533   5.143  10.512   7.227  0.7772 -0.1618 -0.3987
  923MOL0     C24534   5.022  10.456   7.299  1.3024  0.6851 -0.8479
  923MOL0     C24535   4.920  10.413   7.361 -1.0399  0.1084 -0.1438
  923MOL0     C24536   5.603  10.467   7.698 -0.3056  0.1609 -0.8041
  923MOL0     C24537   5.725  10.446   7.753  0.0387 -0.3020  0.0113
  923MOL0     H24538   6.224  10.478   7.699 -1.3645  0.7550  0.7861
  923MOL0     H24539   6.449  10.414   7.755 -0.9838 -1.3536 -1.0176
  923MOL0     H24540   6.628  10.487   7.913 -0.5654  1.1023 -0.1830
  923MOL0     H24541   6.534  10.512   8.059 -0.0357  0.3530 -1.7780
  923MOL0     H24542   6.778  10.336   8.039  2.0166  1.6755 -0.0123
  923MOL0     H24543   6.790  10.502   8.086  0.1956 -1.3477 -1.3501
  923MOL0     H24544   6.596  10.445   8.268  1.4358  1.6072  2.9171
  923MOL0     H24545   6.636  10.279   8.226 -2.8265  1.4999  0.2661
  923MOL0     H24546   6.892  10.397   8.287 -0.7807  1.0134 -2.7074
  923MOL0     H24547   6.787  10.507   8.365 -1.7329  0.5853 -1.5962
  923MOL0     H24548   6.864  10.376   8.519 -1.7153  0.6527  1.1087
  923MOL0     H24549   6.695  10.315   8.502 -0.6519  1.3330 -0.8261
  923MOL0     H24550   6.776  10.125   8.375 -0.0955  0.8748  0.3874
  923MOL0     H24551   6.943  10.182   8.385  0.5265  0.7890  0.9374
  923MOL0     H24552   6.979  10.147   8.586  1.1954 -1.5279 -3.2489
  923MOL0     H24553   6.806  10.125   8.652 -0.6382 -0.1746 -0.7284
  923MOL0     H24554   6.944   9.926   8.638  1.3815 -0.4836 -0.6696
  923MOL0     H24555   6.944   9.929   8.463 -0.4234  3.9631 -1.9486
  923MOL0     H24556   6.627   9.950   8.393 -2.5690 -1.8104 -0.6624
  923MOL0     H24557   6.363   9.730   8.522  0.1984  0.4123 -1.3764
  923MOL0     H24558   6.339   9.871   8.630 -1.5585  0.1786  0.3792
  923MOL0     H24559   6.243   9.891   8.417  1.3570 -0.1799  2.6316
  923MOL0     H24560   6.401   9.869   8.331  2.9828  2.2630 -0.2955
  923MOL0     H24561   6.332  10.111   8.315  2.1319 -0.2764 -1.6468
  923MOL0     H24562   6.492  10.080   8.379 -0.1393  0.6299 -2.2452
  923MOL0     H24563   6.381  10.086   8.606  0.7224 -1.8426 -0.9087
  923MOL0     H24564   6.237  10.151   8.523 -0.5238  3.1140 -0.9973
  923MOL0     H24565   6.327  10.378   8.300  0.4910 -1.1587  0.9424
  923MOL0     H24566   6.145  10.648   8.247  0.3896  2.6934  3.5558
  923MOL0     H24567   6.315  10.714   8.221  0.3202 -0.1705  0.7189
  923MOL0     H24568   6.275  10.559   8.159 -1.9076  1.2005 -1.7246
  923MOL0     H24569   6.052  11.024   8.492  2.3522 -0.7652 -0.4665
  923MOL0     H24570   5.936  11.217   8.603  0.9510 -3.0875 -5.0577
  923MOL0     H24571   6.034  11.420   8.842 -0.8609  2.4235 -1.1516
  923MOL0     H24572   5.896  11.391   8.748  0.4935  1.5221 -0.6061
  923MOL0     H24573   5.743  11.381   8.952 -0.6543 -0.2399  0.1038
  923MOL0     H24574   5.867  11.444   9.046 -3.7859 -2.3042  1.2078
  923MOL0     H24575   5.779  11.590   8.799  4.1106 -0.8658 -1.2023
  923MOL0     H24576   5.877  11.654   8.924 -2.1434  2.7334  0.0783
  923MOL0     H24577   5.593  11.558   9.003 -1.6902  1.7731  2.7672
  923MOL0     H24578   5.715  11.631   9.102 -0.7342  1.0465  0.1797
  923MOL0     H24579   5.567  11.768   8.881 -0.1869  3.0596 -0.1424
  923MOL0     H24580   5.722  11.831   8.947  1.3348 -2.5200 -2.6582
  923MOL0     H24581   5.464  11.775   9.129  0.9910 -2.0695 -0.2324
  923MOL0     H24582   5.604  11.867   9.182 -1.0811 -0.3379 -0.0141
  923MOL0     H24583   5.550  12.014   8.971 -1.2305 -1.6528 -1.4425
  923MOL0     H24584   5.464  12.030   9.124  1.5724  1.3222 -0.9878
  923MOL0     H24585   5.285  11.885   9.050  0.8466  2.6298  1.5259
  923MOL0     H24586   5.360  11.860   8.896  1.2981  1.6763 -1.3479
  923MOL0     H24587   6.081  11.082   8.983 -0.0873 -1.8382  0.8398
  923MOL0     H24588   6.206  10.888   8.862  1.4876  0.4473 -0.3179
  923MOL0     H24589   6.265  10.641   8.716  2.3645 -0.2353  0.8842
  923MOL0     H24590   6.357  10.420   8.725 -0.1108  0.9878 -0.2949
  923MOL0     H24591   6.305  10.251   8.129  0.1818  4.7293  1.8487
  923MOL0     H24592   6.078  10.328   8.066  3.0275  3.1590  1.7183
  923MOL0     H24593   5.860  10.263   7.501 -2.9542 -2.0559 -1.9442
  923MOL0     H24594   5.626  10.320   7.409 -0.8496  1.1913  0.3006
  923MOL0     H24595   5.362  10.589   7.638  1.0297 -0.3954  0.7317
  923MOL0     H24596   5.448  10.644   7.496  0.5871  0.2067 -0.0608
  923MOL0     H24597   5.220  10.666   7.430 -1.0843 -0.3416 -1.1025
  923MOL0     H24598   5.178  10.509   7.502 -1.7208  2.3824 -1.0680
  923MOL0     H24599   5.298  10.393   7.327 -1.2339 -0.4181  3.6872
  923MOL0     H24600   5.357  10.535   7.258  2.0871 -3.9120  1.9179
  923MOL0     H24601   5.158  10.455   7.135  2.9213  1.0224 -0.8567
  923MOL0     H24602   5.132  10.616   7.195 -1.4221  0.3016  1.5924
  923MOL0     H24603   4.834  10.377   7.414 -2.1688  2.6602 -0.0892
  923MOL0     H24604   5.524  10.513   7.756 -1.5202 -0.2449 -2.0804
  923MOL0     H24605   5.722  10.473   7.859  1.1973 -0.0706  0.0053
  924MOL0     O24606   2.591   8.629   9.775 -0.6017 -0.1577 -0.3719
  924MOL0     C24607   2.488   8.567   9.803 -0.0870 -1.0713 -0.3757
  924MOL0     O24608   2.461   8.439   9.787  0.3409  1.0361 -0.4297
  924MOL0     C24609   2.542   8.350   9.711 -0.8274 -0.1793 -0.2976
  924MOL0     C24610   2.681   8.346   9.726  0.6952  0.3530  0.5556
  924MOL0     C24611   2.749   8.251   9.658  0.7159 -1.1569  0.1416
  924MOL0     C24612   2.697   8.164   9.574  0.0499 -0.5024  0.6590
  924MOL0     O24613   2.788   8.087   9.518 -0.1333  0.1448  0.4877
  924MOL0     C24614   2.742   8.005   9.411  0.4598 -0.3301 -0.5674
  924MOL0     C24615   2.865   7.927   9.359  0.8226 -0.7786  0.2472
  924MOL0     C24616   2.836   7.827   9.254 -0.2908  0.1104  0.1925
  924MOL0     C24617   2.952   7.794   9.162  0.2357  0.3722 -0.5872
  924MOL0     C24618   2.983   7.891   9.045 -0.4174  0.3681 -0.1361
  924MOL0     C24619   2.875   7.897   8.942 -0.3361  0.4433  0.5094
  924MOL0     C24620   2.916   7.967   8.812  0.0926  0.5632 -0.4156
  924MOL0     C24621   2.994   8.100   8.830  0.4714 -0.2948 -0.7568
  924MOL0     N24622   2.989   8.175   8.706 -0.1373  0.6054 -0.6140
  924MOL0     C24623   3.109   8.190   8.632 -0.2847 -0.6636  0.6257
  924MOL0     C24624   3.092   8.296   8.551  1.0516  0.6055 -0.0790
  924MOL0     C24625   3.198   8.376   8.479  0.1692 -0.1593  0.2089
  924MOL0     C24626   3.212   8.305   8.346  0.3652 -0.0633  0.5285
  924MOL0     C24627   3.321   8.382   8.268 -0.9429 -0.1087 -0.0824
  924MOL0     C24628   3.464   8.352   8.313 -0.1425  0.8140 -0.2883
  924MOL0     O24629   3.504   8.224   8.280  0.2482 -0.0554  0.4220
  924MOL0     C24630   3.635   8.214   8.256 -0.2147 -0.6738 -0.9337
  924MOL0     C24631   3.741   8.263   8.330  0.8892 -0.0383 -0.4457
  924MOL0     C24632   3.883   8.234   8.313  0.3821  0.3533 -0.0183
  924MOL0     C24633   3.982   8.303   8.405 -0.1846 -0.1370  0.0495
  924MOL0     C24634   3.912   8.164   8.193  0.0023 -0.1447 -0.5652
  924MOL0     C24635   4.048   8.128   8.157  0.3280  0.1028 -0.5486
  924MOL0     O24636   4.058   8.042   8.058  0.5846 -1.0557 -0.0770
  924MOL0     C24637   4.181   8.010   8.013 -0.9322  0.6451  0.5888
  924MOL0     C24638   4.278   7.960   8.106 -0.3248 -0.3822  0.3287
  924MOL0     C24639   4.412   7.958   8.053 -0.0570  0.5126  0.7269
  924MOL0     C24640   4.437   7.970   7.913 -0.4149  0.0437  0.2770
  924MOL0     O24641   4.567   7.933   7.885  0.4394  0.2394 -0.5571
  924MOL0     C24642   4.622   8.010   7.780 -0.7165 -0.2867  0.9455
  924MOL0     C24643   4.748   7.921   7.752  0.4080 -0.1749 -0.4740
  924MOL0     C24644   4.818   7.973   7.623  0.8497 -0.4600 -0.4207
  924MOL0     C24645   4.937   8.064   7.658  0.2717  0.7399 -0.3896
  924MOL0     C24646   5.010   8.091   7.527  0.2735 -0.6576  0.6972
  924MOL0     C24647   5.155   8.141   7.556  1.0230 -0.0553 -0.5576
  924MOL0     C24648   5.131   8.271   7.629  0.2576 -0.0903 -0.7644
  924MOL0     C24649   5.264   8.342   7.659  0.0723 -0.1120  0.4247
  924MOL0    Cl24650   5.228   8.436   7.807  0.2505 -0.1135 -0.0507
  924MOL0     C24651   4.330   7.988   7.816  0.6673 -1.0785 -0.4062
  924MOL0     C24652   4.204   8.012   7.869  0.2443  1.2559  0.0494
  924MOL0     O24653   4.138   8.171   8.223 -0.1153  0.2467  0.4294
  924MOL0     C24654   3.801   8.114   8.123  0.2466 -0.7779 -0.0027
  924MOL0     C24655   3.669   8.144   8.152  0.4851  0.8246 -0.8138
  924MOL0     N24656   2.957   8.344   8.578  0.1650 -0.1415 -0.2973
  924MOL0     N24657   2.897   8.268   8.666  0.4111  0.2468  0.3609
  924MOL0     C24658   2.554   8.165   9.558 -0.4404  0.2686  0.1946
  924MOL0     C24659   2.479   8.262   9.629  0.5289 -0.2175 -0.8342
  924MOL0     C24660   2.369   8.643   9.853 -1.2298 -0.7185  0.3090
  924MOL0     C24661   2.372   8.763   9.923 -0.1202 -0.1831 -0.7913
  924MOL0     C24662   2.257   8.823   9.971 -0.3486 -0.6260  0.3122
  924MOL0     C24663   2.131   8.770   9.950 -0.9661 -0.9772  0.0360
  924MOL0     O24664   2.026   8.846   9.984 -0.0258  0.3412 -0.2978
  924MOL0     C24665   1.910   8.777  10.036 -0.5767  0.5648 -1.1308
  924MOL0     C24666   1.851   8.844  10.164  0.8214 -0.2373 -0.0282
  924MOL0     C24667   1.771   8.981  10.128  0.4559  0.6349 -0.0004
  924MOL0     C24668   1.741   9.062  10.254 -0.3568 -0.1284  0.2233
  924MOL0     C24669   1.839   9.154  10.313  0.0803  0.5562 -0.3998
  924MOL0     C24670   1.922   9.236  10.342  1.0786  0.4346 -0.2486
  924MOL0     C24671   2.124   8.644   9.876 -0.0350 -0.2201  0.4957
  924MOL0     C24672   2.242   8.588   9.822  0.5369  0.0388 -0.1583
  924MOL0     H24673   2.724   8.427   9.785 -0.0320  1.1513  0.0002
  924MOL0     H24674   2.856   8.261   9.670  0.6340  3.6852 -0.9706
  924MOL0     H24675   2.676   7.929   9.453  0.0900  0.8556  1.1497
  924MOL0     H24676   2.690   8.074   9.345 -1.1769 -0.2619  0.7333
  924MOL0     H24677   2.940   7.993   9.315 -0.4167  0.9084  0.5770
  924MOL0     H24678   2.919   7.878   9.440 -0.7675  0.3039  2.0420
  924MOL0     H24679   2.828   7.733   9.310  2.5571 -1.7675 -2.2348
  924MOL0     H24680   2.745   7.848   9.196 -1.3887 -0.0974  1.7832
  924MOL0     H24681   3.047   7.786   9.216  1.3246  1.3745 -2.2489
  924MOL0     H24682   2.934   7.693   9.126  1.8341 -1.1488  2.4786
  924MOL0     H24683   3.005   7.996   9.063 -0.3842  0.9392 -2.9437
  924MOL0     H24684   3.070   7.853   8.991  0.0183  0.9304  0.1611
  924MOL0     H24685   2.826   7.806   8.907  2.2662 -0.9391  0.2385
  924MOL0     H24686   2.797   7.956   8.991 -0.8387  0.5220 -0.3518
  924MOL0     H24687   2.971   7.895   8.751 -2.2738 -2.3304  0.6494
  924MOL0     H24688   2.825   7.980   8.753 -0.1479 -0.2788 -0.2426
  924MOL0     H24689   3.099   8.089   8.860  1.4978  0.1507 -3.8245
  924MOL0     H24690   2.938   8.156   8.906 -0.6105  0.5139 -2.1183
  924MOL0     H24691   3.202   8.139   8.656  1.6158  1.1499 -2.1947
  924MOL0     H24692   3.158   8.476   8.463  0.7892  0.0930  0.2068
  924MOL0     H24693   3.292   8.381   8.535  0.4531 -0.4321 -0.2285
  924MOL0     H24694   3.128   8.340   8.285  1.1032  1.8335  0.5343
  924MOL0     H24695   3.235   8.198   8.348 -0.4218 -0.2816 -1.1771
  924MOL0     H24696   3.305   8.490   8.269  0.9830  0.2553 -1.6973
  924MOL0     H24697   3.330   8.366   8.160  5.0008 -0.8034  0.1530
  924MOL0     H24698   3.490   8.371   8.418  1.4520  0.6091 -0.6274
  924MOL0     H24699   3.520   8.425   8.254 -1.9384 -0.3559 -3.7236
  924MOL0     H24700   3.716   8.328   8.413 -0.0187 -0.7399 -0.1606
  924MOL0     H24701   3.911   8.367   8.459 -0.3905  1.6814 -2.2269
  924MOL0     H24702   4.036   8.233   8.470 -0.1709  0.0629  0.2566
  924MOL0     H24703   4.051   8.369   8.352  1.4284  0.0106  2.1985
  924MOL0     H24704   4.255   7.940   8.210  0.5913 -1.1306  0.4011
  924MOL0     H24705   4.500   7.936   8.112  1.7863 -5.4947 -3.3658
  924MOL0     H24706   4.561   8.014   7.689 -0.5880  0.4254  0.8823
  924MOL0     H24707   4.644   8.111   7.816 -3.7578  0.6508  0.5207
  924MOL0     H24708   4.804   7.933   7.844 -2.7193  4.9777  1.1739
  924MOL0     H24709   4.720   7.816   7.737 -0.0188  0.2535 -3.3923
  924MOL0     H24710   4.737   8.017   7.564  0.7374  0.3228  0.2992
  924MOL0     H24711   4.861   7.884   7.576 -1.4061 -1.5740 -0.4873
  924MOL0     H24712   4.904   8.164   7.688 -1.6294 -0.1004  0.5666
  924MOL0     H24713   5.005   8.023   7.733 -1.2797 -2.1387 -0.4030
  924MOL0     H24714   4.956   8.170   7.474 -0.5338  0.3600  2.9192
  924MOL0     H24715   5.021   8.009   7.456  0.7105  1.4875 -1.9175
  924MOL0     H24716   5.210   8.067   7.614 -1.5343 -0.0107  2.1585
  924MOL0     H24717   5.204   8.153   7.459  2.0713 -1.4082 -0.2217
  924MOL0     H24718   5.093   8.268   7.731 -0.5193  3.7862 -0.7667
  924MOL0     H24719   5.065   8.345   7.583 -0.2670  0.4079  0.7220
  924MOL0     H24720   5.301   8.405   7.577 -0.5959 -2.0501 -1.4697
  924MOL0     H24721   5.343   8.268   7.673  0.5358 -0.1028 -1.8079
  924MOL0     H24722   4.357   7.984   7.711  0.8435 -3.3437 -0.3305
  924MOL0     H24723   4.125   8.030   7.797  1.0299  1.8908 -0.6722
  924MOL0     H24724   3.813   8.056   8.032  2.3570 -0.3540 -0.0560
  924MOL0     H24725   3.593   8.097   8.090 -0.3819  0.7579  0.2559
  924MOL0     H24726   2.509   8.088   9.495 -0.7067  0.1482  0.5296
  924MOL0     H24727   2.372   8.270   9.614  0.2247 -0.6313  0.9472
  924MOL0     H24728   2.460   8.811   9.964 -0.7930 -0.6055  1.2134
  924MOL0     H24729   2.248   8.912  10.033 -2.6208  0.4436 -1.4128
  924MOL0     H24730   1.834   8.754   9.961 -1.1438 -0.6657 -0.2225
  924MOL0     H24731   1.927   8.677  10.078 -0.3593  1.3840  0.8434
  924MOL0     H24732   1.938   8.857  10.230  1.5546 -0.1920 -0.9730
  924MOL0     H24733   1.780   8.779  10.215 -0.3683  1.0469  0.0190
  924MOL0     H24734   1.676   8.944  10.090  0.8969 -0.8933  0.3231
  924MOL0     H24735   1.816   9.032  10.042  0.8477  1.0427  0.4399
  924MOL0     H24736   1.712   8.987  10.328 -3.9952  2.3271  1.5734
  924MOL0     H24737   1.645   9.111  10.237 -0.8592 -2.0565 -3.3177
  924MOL0     H24738   2.000   9.303  10.374 -0.2908  1.8838  0.1884
  924MOL0     H24739   2.033   8.590   9.852  0.4806 -0.7151 -0.3773
  924MOL0     H24740   2.228   8.495   9.769  2.1883 -0.9383  1.0222
  925MOL0     O24741  10.417   8.405   6.671  0.4003 -0.1809  0.8423
  925MOL0     C24742  10.321   8.472   6.633  0.1009  0.7193  0.4103
  925MOL0     O24743  10.272   8.472   6.504  0.1512 -0.4009 -0.6766
  925MOL0     C24744  10.345   8.399   6.420 -0.0744 -0.0543  0.8251
  925MOL0     C24745  10.310   8.267   6.397 -0.0569  0.0403 -0.3873
  925MOL0     C24746  10.390   8.185   6.313 -0.4767 -0.0112  1.7313
  925MOL0     C24747  10.505   8.240   6.244 -0.5018  0.7903  0.3644
  925MOL0     O24748  10.573   8.167   6.151  0.0882  0.0464  0.2465
  925MOL0     C24749  10.609   8.027   6.159 -0.2938 -0.5415 -0.5891
  925MOL0     C24750  10.727   7.996   6.250 -0.2740 -0.3834 -1.0689
  925MOL0     C24751  10.788   7.859   6.244  0.8349 -0.6657  0.3399
  925MOL0     C24752  10.934   7.847   6.278 -0.5122  0.1233 -0.1404
  925MOL0     C24753  10.976   7.710   6.330 -0.5029 -0.2076 -0.3835
  925MOL0     C24754  10.988   7.599   6.226  0.4728  0.4049  1.3126
  925MOL0     C24755  11.020   7.459   6.280 -0.1448 -0.7215  1.1791
  925MOL0     C24756  11.053   7.370   6.160 -0.2439 -0.6794  0.0730
  925MOL0     N24757  11.203   7.386   6.117  0.4307  0.5286 -0.2145
  925MOL0     C24758  11.241   7.439   5.997  0.7876 -0.0822 -0.7547
  925MOL0     C24759  11.375   7.423   5.999 -0.5796  0.3915  0.3290
  925MOL0     C24760  11.453   7.486   5.879 -1.1406 -0.2801  0.0172
  925MOL0     C24761  11.514   7.626   5.917 -1.3330 -0.9496 -0.5438
  925MOL0     C24762  11.628   7.603   6.020 -0.5299 -0.0039 -0.1261
  925MOL0     C24763  11.663   7.742   6.084 -0.5987 -0.7876  0.3284
  925MOL0     O24764  11.778   7.733   6.169  0.3569  1.4334 -0.3062
  925MOL0     C24765  11.871   7.829   6.150 -2.0578  0.2371 -0.1807
  925MOL0     C24766  11.995   7.794   6.093 -0.5705 -0.2701 -0.2892
  925MOL0     C24767  12.091   7.889   6.069 -0.6654  0.2979  0.4331
  925MOL0     C24768  12.215   7.846   5.999  0.6897  0.3182 -0.7071
  925MOL0     C24769  12.061   8.025   6.104 -0.3012 -1.1619  0.2042
  925MOL0     C24770  12.158   8.142   6.101 -0.2423  0.0779 -0.1690
  925MOL0     O24771  12.101   8.267   6.118  1.1268 -0.7180  0.3295
  925MOL0     C24772  12.180   8.377   6.125 -1.3312 -0.2256  0.1218
  925MOL0     C24773  12.187   8.471   6.019  0.1701  0.5957  0.3437
  925MOL0     C24774  12.257   8.594   6.041 -0.3881  0.1985  0.1214
  925MOL0     C24775  12.333   8.611   6.152  0.5016  0.4331 -0.9529
  925MOL0     O24776  12.391   8.723   6.196 -0.1046 -0.0423  0.1893
  925MOL0     C24777  12.388   8.842   6.123  0.5290 -0.0812 -0.6497
  925MOL0     C24778  12.479   8.821   6.006  0.4291  0.5207 -0.7566
  925MOL0     C24779  12.488   8.951   5.918 -0.0285 -0.3444 -0.2149
  925MOL0     C24780  12.596   8.933   5.814 -0.1795 -0.2733 -0.4373
  925MOL0     C24781  12.550   8.973   5.672  0.1538  0.5705  0.2190
  925MOL0     C24782  12.671   8.985   5.570 -0.3718  0.0689  0.4756
  925MOL0     C24783  12.626   9.025   5.431 -0.8420  0.0863  0.3531
  925MOL0     C24784  12.658   8.924   5.311 -0.8236 -0.5503 -0.1260
  925MOL0    Cl24785  12.833   8.878   5.326 -0.1022 -0.0739 -0.0968
  925MOL0     C24786  12.337   8.505   6.248  0.2586  0.2918  0.7093
  925MOL0     C24787  12.256   8.390   6.241 -0.7861 -0.5335 -0.8592
  925MOL0     O24788  12.275   8.114   6.090  0.0485  0.0747 -0.0132
  925MOL0     C24789  11.938   8.057   6.163  0.2765 -0.5938 -0.6129
  925MOL0     C24790  11.849   7.957   6.193 -0.7959  0.0592  0.1708
  925MOL0     N24791  11.413   7.364   6.120 -0.7773  0.4606  0.2049
  925MOL0     N24792  11.310   7.343   6.200  0.6194 -0.4604 -0.3659
  925MOL0     C24793  10.530   8.374   6.259 -0.2665 -0.5316  0.4337
  925MOL0     C24794  10.455   8.458   6.345 -0.7483 -0.1802  0.2424
  925MOL0     C24795  10.252   8.551   6.735 -0.1086 -0.9648 -0.3059
  925MOL0     C24796  10.154   8.643   6.694  0.0096 -0.0239 -0.2273
  925MOL0     C24797  10.091   8.730   6.783 -0.2945  1.4419 -0.5192
  925MOL0     C24798  10.130   8.731   6.920  0.5293 -0.0062 -0.0461
  925MOL0     O24799  10.066   8.827   6.999  0.3239 -0.1394  0.4760
  925MOL0     C24800  10.002   8.772   7.118 -0.8029 -0.0150 -0.3647
  925MOL0     C24801   9.882   8.680   7.090 -0.0315  0.7216 -0.6217
  925MOL0     C24802   9.825   8.611   7.222 -0.0186 -0.7548 -0.3754
  925MOL0     C24803   9.915   8.504   7.292  0.7967 -0.6700 -0.0769
  925MOL0     C24804   9.892   8.504   7.434 -0.6360 -0.8317 -0.2206
  925MOL0     C24805   9.880   8.502   7.555  0.4168 -0.1114  0.2922
  925MOL0     C24806  10.232   8.640   6.957  0.7038 -0.0191 -0.5140
  925MOL0     C24807  10.299   8.552   6.869  0.2617 -0.8367 -0.3844
  925MOL0     H24808  10.219   8.226   6.439  0.5348  0.1547  1.0666
  925MOL0     H24809  10.359   8.081   6.303 -0.4834  0.1845 -1.1508
  925MOL0     H24810  10.520   7.968   6.187 -0.0274 -0.7702 -0.2075
  925MOL0     H24811  10.630   7.995   6.057  3.0796  3.0286 -1.2383
  925MOL0     H24812  10.813   8.063   6.240 -1.1752  0.9914 -0.0563
  925MOL0     H24813  10.700   8.024   6.352  1.3547 -0.3385 -0.6245
  925MOL0     H24814  10.729   7.801   6.316  2.9247 -1.0540  1.8326
  925MOL0     H24815  10.770   7.825   6.142  0.7188  0.1261  0.0916
  925MOL0     H24816  10.994   7.884   6.194 -1.7234  3.5689  0.3506
  925MOL0     H24817  10.954   7.905   6.368 -4.6366 -1.9535  2.4266
  925MOL0     H24818  11.070   7.725   6.385 -0.3309  1.8682 -1.1680
  925MOL0     H24819  10.907   7.667   6.404 -1.2725 -3.5512 -2.7941
  925MOL0     H24820  10.894   7.603   6.171  1.5314  0.5441 -0.5633
  925MOL0     H24821  11.065   7.622   6.152 -0.6443 -0.2093 -0.0965
  925MOL0     H24822  11.104   7.458   6.351 -0.2200 -0.7637  1.2688
  925MOL0     H24823  10.931   7.416   6.329 -0.1317  0.3276  2.1441
  925MOL0     H24824  10.983   7.387   6.078 -0.9522  1.9552  1.1307
  925MOL0     H24825  11.052   7.269   6.203  2.7287  0.5022  3.4152
  925MOL0     H24826  11.174   7.475   5.920 -0.0734  1.7914  0.7661
  925MOL0     H24827  11.533   7.413   5.863  0.3854  1.6130 -1.5524
  925MOL0     H24828  11.389   7.491   5.791  1.7685  1.5741 -2.1922
  925MOL0     H24829  11.444   7.701   5.953  2.1218  2.7735 -0.8162
  925MOL0     H24830  11.549   7.659   5.819 -3.3483 -1.4676 -1.4839
  925MOL0     H24831  11.715   7.571   5.961  0.8325  2.5840  0.3101
  925MOL0     H24832  11.600   7.532   6.098 -0.8842  0.5246  0.2304
  925MOL0     H24833  11.581   7.774   6.150 -0.1584  1.0865  0.0229
  925MOL0     H24834  11.670   7.824   6.012  0.9395 -0.9600  0.2411
  925MOL0     H24835  12.023   7.702   6.042  0.2724  0.5847 -1.4253
  925MOL0     H24836  12.300   7.914   6.009 -0.4501  1.9537 -1.5691
  925MOL0     H24837  12.256   7.754   6.041  2.7212  1.7632  0.6259
  925MOL0     H24838  12.195   7.837   5.892 -0.6822 -2.0611 -0.3316
  925MOL0     H24839  12.139   8.453   5.923  1.3117  2.7308 -0.6977
  925MOL0     H24840  12.247   8.676   5.970 -2.1741  1.3800  1.6474
  925MOL0     H24841  12.287   8.875   6.096  0.6027  2.8257  2.0253
  925MOL0     H24842  12.413   8.929   6.183 -2.8837 -0.1846  1.2004
  925MOL0     H24843  12.573   8.786   6.050 -0.8041  0.0308  1.7161
  925MOL0     H24844  12.446   8.739   5.942 -0.3281  1.6752 -1.8894
  925MOL0     H24845  12.495   9.031   5.992  1.3670 -1.2328  0.6849
  925MOL0     H24846  12.391   8.961   5.869  0.2501  3.0959 -0.2931
  925MOL0     H24847  12.689   8.980   5.848 -0.4899 -0.1146  0.2033
  925MOL0     H24848  12.622   8.827   5.808 -0.0730 -0.4638  2.2748
  925MOL0     H24849  12.506   9.073   5.681 -2.0381 -0.2612 -0.4934
  925MOL0     H24850  12.463   8.914   5.640 -1.1937  2.9799 -0.8625
  925MOL0     H24851  12.728   9.068   5.613 -0.8990  0.2471  0.8473
  925MOL0     H24852  12.732   8.896   5.589 -1.6548 -1.1820 -0.9141
  925MOL0     H24853  12.662   9.127   5.412 -1.8671  0.7290  1.6827
  925MOL0     H24854  12.517   9.030   5.439 -0.8771 -0.0332 -0.0352
  925MOL0     H24855  12.630   8.980   5.221 -3.4201  1.2370  1.6415
  925MOL0     H24856  12.590   8.838   5.315 -4.9431  2.4154  0.6754
  925MOL0     H24857  12.369   8.518   6.351  2.1795 -2.2862  0.5371
  925MOL0     H24858  12.240   8.320   6.322 -0.1405  0.1081 -0.1691
  925MOL0     H24859  11.923   8.151   6.215 -1.8507 -1.1848 -0.0528
  925MOL0     H24860  11.756   7.981   6.243 -0.5548 -0.2688  0.7933
  925MOL0     H24861  10.617   8.417   6.211 -1.7480 -1.1975 -3.1719
  925MOL0     H24862  10.468   8.565   6.354  0.5252  0.0934 -3.3140
  925MOL0     H24863  10.121   8.647   6.591 -0.8176 -0.1241  0.0272
  925MOL0     H24864  10.012   8.792   6.745 -2.3676 -0.5703  0.2714
  925MOL0     H24865  10.075   8.714   7.175 -2.8783 -2.5656 -0.1181
  925MOL0     H24866   9.964   8.847   7.187  2.5517  0.2585  1.3867
  925MOL0     H24867   9.909   8.594   7.028  1.2486  0.1377  0.6965
  925MOL0     H24868   9.804   8.734   7.036 -0.7337  1.8249  1.3747
  925MOL0     H24869   9.722   8.574   7.214 -0.2327 -0.3590  0.4478
  925MOL0     H24870   9.822   8.693   7.294  0.7212 -1.0844  0.0466
  925MOL0     H24871  10.022   8.525   7.280  0.7610 -0.6834 -0.4353
  925MOL0     H24872   9.898   8.404   7.252  3.1771 -1.5694  0.9785
  925MOL0     H24873   9.860   8.519   7.659  1.6234  0.4167  0.4584
  925MOL0     H24874  10.265   8.660   7.059  1.7150  2.0041 -1.2003
  925MOL0     H24875  10.385   8.497   6.903  1.8676  1.7021 -0.0687
  926MOL0     O24876   1.216   6.654   7.682  0.2611  0.5352 -0.2187
  926MOL0     C24877   1.236   6.743   7.763  0.2537 -0.3906 -1.3770
  926MOL0     O24878   1.260   6.723   7.899  0.2388  0.0055 -0.3465
  926MOL0     C24879   1.235   6.596   7.940 -0.9290  0.2651 -0.2618
  926MOL0     C24880   1.107   6.535   7.947 -0.5536 -1.1724 -0.1968
  926MOL0     C24881   1.098   6.403   7.984  0.5279  0.2668 -0.9693
  926MOL0     C24882   1.203   6.317   7.997 -0.0088  0.1374  0.0941
  926MOL0     O24883   1.172   6.187   8.014  0.5328  0.1641  0.0045
  926MOL0     C24884   1.059   6.128   7.951  0.0249  0.2059 -0.1325
  926MOL0     C24885   1.084   5.986   7.910  0.7080 -0.1920  0.3697
  926MOL0     C24886   1.130   5.892   8.024  0.4193 -0.7300 -0.3704
  926MOL0     C24887   1.284   5.873   8.024 -0.2032 -0.1846  0.0908
  926MOL0     C24888   1.344   5.788   8.144  0.7039 -0.5200  1.1572
  926MOL0     C24889   1.351   5.637   8.124 -0.4230  0.8013 -0.4804
  926MOL0     C24890   1.450   5.580   8.229  0.2190 -0.0024  0.4825
  926MOL0     C24891   1.381   5.517   8.354 -0.7044 -1.1142  0.6330
  926MOL0     N24892   1.278   5.590   8.422  0.2832  0.1989  1.1575
  926MOL0     C24893   1.285   5.718   8.464 -0.5330  0.8592  0.4868
  926MOL0     C24894   1.160   5.748   8.510 -0.3061  0.9951  0.7872
  926MOL0     C24895   1.093   5.866   8.586  0.7511 -0.2942  0.0928
  926MOL0     C24896   1.157   6.001   8.597 -0.3499 -0.4352  0.2640
  926MOL0     C24897   1.204   6.061   8.456  0.1409 -0.1009  0.6382
  926MOL0     C24898   1.075   6.090   8.369 -0.5126  0.0031  0.4273
  926MOL0     O24899   0.984   6.186   8.423  0.2382 -0.7147 -0.7756
  926MOL0     C24900   0.977   6.311   8.373 -0.4408  0.0401  0.2593
  926MOL0     C24901   1.098   6.377   8.348 -0.0661 -0.4935  0.2319
  926MOL0     C24902   1.099   6.514   8.319 -0.2906 -0.6140 -0.0731
  926MOL0     C24903   1.238   6.562   8.291  0.4075 -0.1146 -0.4991
  926MOL0     C24904   0.973   6.576   8.290  0.3587  0.9101  0.0361
  926MOL0     C24905   0.965   6.719   8.245  0.1350  0.6292  0.0947
  926MOL0     O24906   0.872   6.750   8.156  0.3301 -0.0472 -0.0077
  926MOL0     C24907   0.844   6.888   8.140  0.3403 -0.0465  0.4762
  926MOL0     C24908   0.943   6.973   8.081  0.3001  0.0896 -0.7898
  926MOL0     C24909   0.916   7.109   8.055  0.0078  0.5582  0.0000
  926MOL0     C24910   0.800   7.165   8.096  0.3559 -0.4057  0.0077
  926MOL0     O24911   0.758   7.300   8.070  0.8457 -0.2310 -0.2854
  926MOL0     C24912   0.833   7.375   7.977  0.4176 -0.0057  0.9529
  926MOL0     C24913   0.731   7.481   7.921  1.0627 -0.2497  0.2290
  926MOL0     C24914   0.795   7.593   7.835  0.1353 -0.4832  0.6424
  926MOL0     C24915   0.688   7.687   7.777 -0.0630 -0.0102  0.4983
  926MOL0     C24916   0.751   7.824   7.748 -0.4786  0.6567 -0.6766
  926MOL0     C24917   0.657   7.929   7.687 -0.2463 -0.5436  0.3369
  926MOL0     C24918   0.546   7.964   7.787  0.8496 -0.2438  0.1073
  926MOL0     C24919   0.480   8.097   7.748  0.7873 -0.4723  0.4771
  926MOL0    Cl24920   0.335   8.119   7.824 -0.2857 -0.2912  0.8814
  926MOL0     C24921   0.697   7.087   8.147 -0.5908  0.2817 -0.2188
  926MOL0     C24922   0.720   6.943   8.154  0.1932  0.1078  0.6521
  926MOL0     O24923   1.036   6.801   8.300  0.1110 -1.2718 -0.1772
  926MOL0     C24924   0.855   6.507   8.325  0.6759 -0.0954 -0.6106
  926MOL0     C24925   0.858   6.374   8.359 -1.0822  0.1956  0.1250
  926MOL0     N24926   1.085   5.629   8.500 -0.3601 -0.6163  0.0781
  926MOL0     N24927   1.157   5.534   8.456  0.1685 -0.7924  0.0599
  926MOL0     C24928   1.329   6.372   7.984 -0.2053 -0.5867  0.3977
  926MOL0     C24929   1.339   6.511   7.964  0.0966 -0.6200 -0.4973
  926MOL0     C24930   1.200   6.884   7.729  0.0012  0.4396 -0.6165
  926MOL0     C24931   1.219   6.988   7.821 -0.2450  1.0359 -0.3498
  926MOL0     C24932   1.158   7.115   7.791 -0.3417  0.8394  0.5516
  926MOL0     C24933   1.095   7.134   7.665 -0.3680 -0.2061 -0.0945
  926MOL0     O24934   1.040   7.267   7.647 -0.1733  0.4925  0.3625
  926MOL0     C24935   0.975   7.297   7.520  0.0686  0.2551 -0.2334
  926MOL0     C24936   1.079   7.349   7.417 -0.2451  0.3482  0.2415
  926MOL0     C24937   1.125   7.485   7.441  0.1040 -0.8007  0.4159
  926MOL0     C24938   1.168   7.565   7.315  0.1057  0.5149  0.5700
  926MOL0     C24939   1.056   7.644   7.254 -0.4595 -1.0291 -0.9027
  926MOL0     C24940   0.964   7.695   7.193  1.5031 -0.2632  0.3579
  926MOL0     C24941   1.096   7.032   7.568  0.5588 -0.4364  0.0078
  926MOL0     C24942   1.141   6.906   7.610 -0.2916 -0.5269  0.7346
  926MOL0     H24943   1.023   6.602   7.929  0.6388  1.3921  2.7558
  926MOL0     H24944   0.997   6.365   7.995  1.0314 -1.6854 -2.4230
  926MOL0     H24945   0.970   6.132   8.014 -0.4573  1.2414 -0.8408
  926MOL0     H24946   1.039   6.188   7.861  2.5877 -0.5301 -1.2791
  926MOL0     H24947   0.986   5.952   7.874  0.7326  1.2819 -1.2205
  926MOL0     H24948   1.153   5.978   7.826 -0.3987 -1.9569 -0.4453
  926MOL0     H24949   1.098   5.920   8.124 -2.3830  2.0463 -1.8877
  926MOL0     H24950   1.088   5.793   8.001 -0.7600 -0.5171  0.8139
  926MOL0     H24951   1.310   5.833   7.926 -2.3422 -0.8796 -0.2399
  926MOL0     H24952   1.334   5.970   8.034 -1.3836  0.6243 -1.3926
  926MOL0     H24953   1.442   5.833   8.158 -0.3871  1.7812  1.8842
  926MOL0     H24954   1.281   5.811   8.230  1.8387  2.0192  1.4016
  926MOL0     H24955   1.251   5.593   8.128 -0.1356  0.2121  0.1868
  926MOL0     H24956   1.405   5.619   8.030  1.1531  0.3880  0.4592
  926MOL0     H24957   1.497   5.499   8.172 -1.6859  0.5090 -1.9927
  926MOL0     H24958   1.526   5.651   8.262  0.8066  1.0362 -2.7478
  926MOL0     H24959   1.449   5.485   8.434 -0.6029 -4.5108 -0.6394
  926MOL0     H24960   1.337   5.426   8.313  0.6404 -1.1693 -0.7900
  926MOL0     H24961   1.373   5.781   8.464  0.6012 -0.5988 -1.7626
  926MOL0     H24962   0.990   5.875   8.552 -0.1013 -2.4720  1.8968
  926MOL0     H24963   1.089   5.849   8.694  2.7553  1.8132  0.6001
  926MOL0     H24964   1.239   5.997   8.669 -0.6117 -3.6215  0.5403
  926MOL0     H24965   1.083   6.074   8.632 -0.7321 -0.4279 -0.5347
  926MOL0     H24966   1.276   5.993   8.409 -0.3903  1.6201 -3.0097
  926MOL0     H24967   1.250   6.158   8.477 -1.9712  1.4689 -1.4565
  926MOL0     H24968   1.033   5.991   8.348  2.2390 -1.2048  0.1929
  926MOL0     H24969   1.116   6.129   8.275 -0.0125 -1.8245 -0.1515
  926MOL0     H24970   1.195   6.329   8.343 -0.8228 -2.1905  0.8491
  926MOL0     H24971   1.298   6.476   8.261  0.2162 -2.0364  3.8387
  926MOL0     H24972   1.240   6.633   8.209 -4.5549  0.4939 -0.4398
  926MOL0     H24973   1.268   6.614   8.382  1.0668 -0.0999 -0.7247
  926MOL0     H24974   1.038   6.936   8.044 -0.6943 -0.4704 -2.9569
  926MOL0     H24975   0.987   7.171   8.001 -0.6091 -1.0300 -2.8583
  926MOL0     H24976   0.924   7.417   8.020 -0.3991  2.0455  0.7570
  926MOL0     H24977   0.875   7.323   7.890 -0.0069  1.1013  0.0734
  926MOL0     H24978   0.651   7.428   7.869 -0.4845  0.1045  2.1169
  926MOL0     H24979   0.681   7.525   8.008 -0.8563 -2.3125  0.2542
  926MOL0     H24980   0.871   7.556   7.766  1.4911 -1.1257  2.4087
  926MOL0     H24981   0.858   7.649   7.904 -1.2326  2.7983 -0.5872
  926MOL0     H24982   0.647   7.649   7.682 -0.7709 -2.5850  1.7445
  926MOL0     H24983   0.606   7.697   7.849 -0.5202 -1.1864  0.1691
  926MOL0     H24984   0.832   7.799   7.679  1.2216  0.1724  1.3960
  926MOL0     H24985   0.799   7.866   7.836 -1.2574  2.2612 -0.9731
  926MOL0     H24986   0.720   8.015   7.661 -0.2085 -0.9131 -0.8401
  926MOL0     H24987   0.630   7.891   7.588 -0.2300  0.3071 -0.0098
  926MOL0     H24988   0.586   7.971   7.889  1.8279 -2.9389 -0.0165
  926MOL0     H24989   0.464   7.893   7.778 -0.1449  1.2027 -5.0212
  926MOL0     H24990   0.471   8.117   7.641  0.2752  1.4480  0.8467
  926MOL0     H24991   0.552   8.174   7.778  1.6832  0.5052 -3.6386
  926MOL0     H24992   0.600   7.127   8.174 -1.6517 -1.6053 -1.0372
  926MOL0     H24993   0.637   6.876   8.175 -1.2598  0.9064 -2.0023
  926MOL0     H24994   0.754   6.542   8.307 -1.0716 -2.5581  2.9768
  926MOL0     H24995   0.766   6.320   8.379 -3.5967  4.2077  0.5064
  926MOL0     H24996   1.410   6.301   7.992  1.3652  1.0870  0.1930
  926MOL0     H24997   1.439   6.553   7.954 -1.1652  2.4074 -1.6999
  926MOL0     H24998   1.266   6.958   7.914  1.1170 -4.6573 -2.4543
  926MOL0     H24999   1.160   7.190   7.870 -0.8568  0.3395  1.0389
  926MOL0     H25000   0.939   7.199   7.485  1.1240 -0.0791 -0.4050
  926MOL0     H25001   0.891   7.366   7.528  0.8545  1.0230  2.2863
  926MOL0     H25002   1.032   7.340   7.319 -2.1084  1.0519  1.0070
  926MOL0     H25003   1.160   7.278   7.406  1.9697  2.6016  1.0655
  926MOL0     H25004   1.208   7.458   7.508 -0.2183 -3.5902 -0.1863
  926MOL0     H25005   1.056   7.546   7.499  1.0057 -0.8093  1.5436
  926MOL0     H25006   1.213   7.496   7.242  2.1184  1.7821  0.5565
  926MOL0     H25007   1.237   7.641   7.352  2.0258  0.5832 -2.7034
  926MOL0     H25008   0.878   7.722   7.136 -0.1029 -2.1305  1.7818
  926MOL0     H25009   1.049   7.034   7.470 -2.0705 -1.8748  1.1236
  926MOL0     H25010   1.131   6.833   7.530 -0.7276  2.5698 -2.2993
  927MOL0     O25011   7.632  10.536   5.454  0.1998 -0.3052 -0.0288
  927MOL0     C25012   7.555  10.444   5.441 -0.2923  0.4781 -1.6696
  927MOL0     O25013   7.420  10.448   5.484 -0.2509 -0.5434  0.4912
  927MOL0     C25014   7.381  10.563   5.548 -0.1915  0.0464 -0.1664
  927MOL0     C25015   7.381  10.688   5.475  0.7121  0.6431 -0.7756
  927MOL0     C25016   7.317  10.800   5.532 -0.9707  0.5656 -0.3084
  927MOL0     C25017   7.275  10.798   5.667 -0.3054  0.8949  0.5326
  927MOL0     O25018   7.226  10.906   5.739 -0.3738 -0.2209  0.7651
  927MOL0     C25019   7.105  10.962   5.683 -0.7991 -0.4941  0.3592
  927MOL0     C25020   6.995  10.862   5.702 -0.8139  0.3790  0.5075
  927MOL0     C25021   6.858  10.921   5.686  0.3697 -0.0192  0.1016
  927MOL0     C25022   6.747  10.810   5.689  0.7027 -1.0398  0.5996
  927MOL0     C25023   6.634  10.861   5.593 -0.9941  0.4719  0.2149
  927MOL0     C25024   6.492  10.808   5.626 -0.1381  0.0843  0.7235
  927MOL0     C25025   6.407  10.787   5.501 -0.5239 -0.0973  0.5705
  927MOL0     C25026   6.259  10.787   5.518 -0.0489  0.4488  0.7483
  927MOL0     N25027   6.211  10.700   5.629 -0.1889  1.2658  0.7729
  927MOL0     C25028   6.242  10.569   5.648 -0.3940  0.4805  0.0244
  927MOL0     C25029   6.193  10.531   5.771 -0.2827 -1.0278  0.4402
  927MOL0     C25030   6.227  10.402   5.842 -0.2816  0.5530  0.7188
  927MOL0     C25031   6.234  10.415   5.997 -0.4088  0.1790 -0.8111
  927MOL0     C25032   6.278  10.282   6.053 -0.0241  0.3504  0.0552
  927MOL0     C25033   6.279  10.272   6.194 -0.1940  0.7478 -0.7553
  927MOL0     O25034   6.312  10.136   6.227 -0.0841 -0.0472 -0.3527
  927MOL0     C25035   6.243  10.079   6.334 -0.0801 -0.2182  0.1347
  927MOL0     C25036   6.169  10.146   6.421 -0.3747 -1.5192 -0.1877
  927MOL0     C25037   6.104  10.078   6.527  0.4444  0.8191  0.8088
  927MOL0     C25038   6.039  10.170   6.627 -0.2248 -0.2957  0.5690
  927MOL0     C25039   6.106   9.935   6.528  0.5460 -0.8375  0.4801
  927MOL0     C25040   6.031   9.861   6.629 -0.0049  0.7996 -0.2053
  927MOL0     O25041   5.906   9.920   6.663  0.0808 -0.1940  0.4106
  927MOL0     C25042   5.812   9.851   6.728  0.1376  1.1921 -0.3761
  927MOL0     C25043   5.841   9.776   6.849 -0.5074 -0.0182 -0.2042
  927MOL0     C25044   5.739   9.708   6.912 -0.5677 -0.7770 -0.1188
  927MOL0     C25045   5.616   9.737   6.893 -0.0435  0.2546 -0.5738
  927MOL0     O25046   5.540   9.687   6.995  0.0026  0.5492 -0.6308
  927MOL0     C25047   5.400   9.710   6.987  0.0572  0.5758 -0.0342
  927MOL0     C25048   5.327   9.600   7.066  0.5133 -0.1335  0.2839
  927MOL0     C25049   5.181   9.591   7.031 -0.0507  0.0195 -0.7369
  927MOL0     C25050   5.108   9.711   7.075  1.2970 -0.7217  0.8025
  927MOL0     C25051   4.958   9.697   7.070  0.0661 -0.4155 -0.0593
  927MOL0     C25052   4.892   9.647   6.934 -0.6946 -0.0799 -0.0597
  927MOL0     C25053   4.916   9.742   6.810 -2.2873 -0.6711 -0.3064
  927MOL0     C25054   5.044   9.712   6.726  0.2699  0.1348 -0.2037
  927MOL0    Cl25055   5.057   9.821   6.590 -0.2202 -0.2784  0.3409
  927MOL0     C25056   5.579   9.818   6.789 -0.7185  0.2060  0.4461
  927MOL0     C25057   5.678   9.865   6.699 -0.0223 -1.2777  0.9244
  927MOL0     O25058   6.066   9.746   6.661  0.0681  0.0665  0.1860
  927MOL0     C25059   6.182   9.865   6.431  0.0051  0.0401  0.2145
  927MOL0     C25060   6.254   9.942   6.338 -0.1440  0.4842 -0.2278
  927MOL0     N25061   6.116  10.636   5.813 -0.1765 -0.3379 -0.9192
  927MOL0     N25062   6.139  10.740   5.734 -0.0301  0.3683 -0.1604
  927MOL0     C25063   7.286  10.675   5.735  0.9400  0.1883 -1.0676
  927MOL0     C25064   7.341  10.563   5.681 -0.4709  0.9754  0.4602
  927MOL0     C25065   7.612  10.331   5.372  0.0496 -0.5260  1.0383
  927MOL0     C25066   7.553  10.202   5.392  0.1395 -1.2124  0.4395
  927MOL0     C25067   7.601  10.095   5.326 -0.0336  0.3284 -0.7509
  927MOL0     C25068   7.689  10.100   5.226 -0.5832  0.7876  0.8792
  927MOL0     O25069   7.732  10.004   5.143 -0.6583  0.7491  0.5508
  927MOL0     C25070   7.670   9.872   5.158  0.3924 -1.0404  0.3396
  927MOL0     C25071   7.713   9.769   5.055 -0.9849  0.3053 -0.1059
  927MOL0     C25072   7.830   9.690   5.100  0.6190 -0.4313  0.0376
  927MOL0     C25073   7.870   9.596   4.983  0.0622  0.3042 -0.4864
  927MOL0     C25074   7.793   9.470   4.974  0.3770  0.2433 -0.3086
  927MOL0     C25075   7.737   9.362   4.976 -0.1407 -0.5348 -1.0058
  927MOL0     C25076   7.756  10.222   5.211 -0.7409  1.1929  0.1891
  927MOL0     C25077   7.715  10.339   5.280  0.1411  0.3625 -0.0884
  927MOL0     H25078   7.431  10.694   5.378  0.0417  0.0281 -1.1644
  927MOL0     H25079   7.316  10.902   5.495  0.2426  2.7261  4.6940
  927MOL0     H25080   7.083  11.052   5.742 -2.7476 -2.2257  2.4740
  927MOL0     H25081   7.116  10.976   5.576 -0.6294 -1.6569  0.2165
  927MOL0     H25082   7.016  10.798   5.616  2.7591  2.8517 -0.6768
  927MOL0     H25083   7.003  10.814   5.800 -3.3430  0.7729  0.9820
  927MOL0     H25084   6.836  10.984   5.773  0.7700 -0.9802  0.9251
  927MOL0     H25085   6.869  10.976   5.592  2.2104 -4.2788 -2.4285
  927MOL0     H25086   6.769  10.708   5.659  0.4873 -2.9070  5.7577
  927MOL0     H25087   6.705  10.806   5.790 -2.6034 -0.5614 -0.6144
  927MOL0     H25088   6.629  10.970   5.602 -2.0155  0.4971 -0.5601
  927MOL0     H25089   6.666  10.837   5.491  0.4349  0.2439  0.6867
  927MOL0     H25090   6.487  10.719   5.690 -1.7444 -0.1980  0.2618
  927MOL0     H25091   6.432  10.888   5.672 -2.7825  0.2306 -2.5507
  927MOL0     H25092   6.439  10.866   5.431  1.4619 -1.1950  0.1503
  927MOL0     H25093   6.441  10.699   5.445 -2.0403  0.0054 -0.5782
  927MOL0     H25094   6.205  10.761   5.427 -2.3636  2.2783  1.4789
  927MOL0     H25095   6.215  10.884   5.543 -0.0001  0.4895  0.6774
  927MOL0     H25096   6.322  10.522   5.591 -2.6517 -0.3389 -2.7438
  927MOL0     H25097   6.160  10.325   5.801 -1.4817  2.3369 -0.8499
  927MOL0     H25098   6.328  10.373   5.814 -1.2306 -0.1704 -2.3040
  927MOL0     H25099   6.134  10.437   6.034  0.0375 -1.3261  1.4998
  927MOL0     H25100   6.307  10.494   6.020  1.4160 -0.7909 -2.8897
  927MOL0     H25101   6.379  10.259   6.016 -0.3671 -0.2205 -0.5650
  927MOL0     H25102   6.215  10.198   6.022  0.3637 -0.5782  1.6645
  927MOL0     H25103   6.173  10.287   6.214 -0.3945  2.8466 -2.8266
  927MOL0     H25104   6.352  10.344   6.231 -1.6105  2.5817 -1.3595
  927MOL0     H25105   6.178  10.254   6.425 -1.0257 -1.4731  0.2206
  927MOL0     H25106   6.090  10.157   6.724  2.1101 -0.8319 -0.6439
  927MOL0     H25107   6.058  10.273   6.596 -2.2707  0.8664  2.8520
  927MOL0     H25108   5.931  10.162   6.617 -0.0017 -2.2092 -0.9762
  927MOL0     H25109   5.942   9.768   6.887 -0.2530  2.8200 -0.1200
  927MOL0     H25110   5.787   9.649   6.990  2.2443  0.2125 -0.9661
  927MOL0     H25111   5.372   9.806   7.031  0.6655  0.0067  1.7072
  927MOL0     H25112   5.352   9.703   6.889 -2.0844 -0.0089  0.9834
  927MOL0     H25113   5.372   9.502   7.043 -2.4898 -1.7724  0.8558
  927MOL0     H25114   5.354   9.618   7.170 -0.6160  0.8153  0.4298
  927MOL0     H25115   5.142   9.503   7.083 -3.8319  2.8041  1.6953
  927MOL0     H25116   5.173   9.555   6.928  4.1391 -2.8632 -0.3035
  927MOL0     H25117   5.137   9.739   7.176 -2.2613 -2.4175  2.4693
  927MOL0     H25118   5.149   9.789   7.010  2.7389 -0.3337  2.1164
  927MOL0     H25119   4.912   9.792   7.101 -1.2345 -1.8332  2.7031
  927MOL0     H25120   4.920   9.637   7.153  2.0995 -1.3133  0.2803
  927MOL0     H25121   4.937   9.551   6.905  6.8857  2.2017  1.7211
  927MOL0     H25122   4.786   9.641   6.959 -0.4077  2.1907  2.1182
  927MOL0     H25123   4.904   9.845   6.844 -1.7553 -1.6018  3.1048
  927MOL0     H25124   4.829   9.734   6.744 -0.9078  1.1148 -2.4990
  927MOL0     H25125   5.052   9.606   6.702  1.0064 -0.3279  1.8410
  927MOL0     H25126   5.131   9.731   6.789  1.3433  0.5953 -1.7866
  927MOL0     H25127   5.472   9.836   6.780 -1.1295 -2.6152 -1.4783
  927MOL0     H25128   5.638   9.931   6.623  1.3483 -0.1615  1.1514
  927MOL0     H25129   6.181   9.758   6.445  0.0553 -0.2972 -1.9488
  927MOL0     H25130   6.327   9.901   6.268 -0.6517 -0.5855 -0.1457
  927MOL0     H25131   7.236  10.665   5.831  3.1754 -0.1089  0.1490
  927MOL0     H25132   7.331  10.470   5.736 -2.8005  1.7506  1.4692
  927MOL0     H25133   7.468  10.184   5.458 -0.4226 -2.6022 -0.6132
  927MOL0     H25134   7.556  10.000   5.355 -2.7975  2.0017  0.8570
  927MOL0     H25135   7.685   9.823   5.255 -1.8182 -4.1853 -0.7618
  927MOL0     H25136   7.562   9.889   5.161  0.7529  1.5269  1.8611
  927MOL0     H25137   7.739   9.809   4.956  0.7604 -2.4146 -0.8519
  927MOL0     H25138   7.625   9.707   5.038  1.0570 -2.3561 -1.7492
  927MOL0     H25139   7.809   9.639   5.194 -2.0902 -1.5413 -1.0807
  927MOL0     H25140   7.918   9.751   5.124  2.0728 -2.3763 -0.0410
  927MOL0     H25141   7.969   9.557   5.010 -2.2277 -5.9460  0.5257
  927MOL0     H25142   7.874   9.644   4.885  2.2693 -0.2385 -0.7239
  927MOL0     H25143   7.698   9.262   4.977 -2.9955  0.4055  2.5396
  927MOL0     H25144   7.839  10.236   5.143 -0.2250 -1.9285  0.0340
  927MOL0     H25145   7.758  10.437   5.259 -0.7055  1.2646  2.0829
  928MOL0     O25146   0.230  10.746   6.210  0.0172  0.4561 -0.5521
  928MOL0     C25147   0.255  10.850   6.263  0.5132  0.2879 -0.0767
  928MOL0     O25148   0.323  10.884   6.374 -0.1747 -0.3365  0.0490
  928MOL0     C25149   0.389  10.803   6.466  0.3008  0.3504  0.5320
  928MOL0     C25150   0.364  10.664   6.469  0.0488  0.7805 -0.7163
  928MOL0     C25151   0.434  10.580   6.570  0.7032 -1.0548  0.8772
  928MOL0     C25152   0.536  10.631   6.649  0.0881  0.8467  0.1579
  928MOL0     O25153   0.599  10.546   6.737 -0.8300 -0.0125 -0.1283
  928MOL0     C25154   0.666  10.609   6.846 -0.3357 -0.1883  0.0916
  928MOL0     C25155   0.733  10.505   6.941  0.4506  0.6278 -0.5669
  928MOL0     C25156   0.797  10.566   7.059 -0.4675  0.8887  0.3326
  928MOL0     C25157   0.893  10.472   7.123  0.1368 -0.1365  0.4951
  928MOL0     C25158   0.852  10.426   7.255 -0.1454 -0.0114  0.0544
  928MOL0     C25159   0.943  10.315   7.318 -0.3046  0.5490 -0.9521
  928MOL0     C25160   0.985  10.189   7.229 -1.3350 -0.9559  0.2934
  928MOL0     C25161   0.879  10.086   7.198  0.4416 -0.2067  0.0044
  928MOL0     N25162   0.929   9.982   7.114 -0.1160 -0.2847  0.0815
  928MOL0     C25163   0.994   9.990   6.996  1.0778 -0.3947  0.5499
  928MOL0     C25164   0.980   9.876   6.934 -0.0455 -0.1443 -0.1904
  928MOL0     C25165   1.026   9.842   6.794 -1.2270  0.7853  0.3203
  928MOL0     C25166   0.898   9.788   6.722  0.0946 -0.6989  0.2743
  928MOL0     C25167   0.928   9.791   6.564  0.1751  0.4848  0.1212
  928MOL0     C25168   0.813   9.724   6.482 -0.1375 -0.5878 -0.3072
  928MOL0     O25169   0.808   9.581   6.499  0.0106 -0.7504 -0.1748
  928MOL0     C25170   0.723   9.504   6.423  0.3087  0.2858 -0.7476
  928MOL0     C25171   0.608   9.553   6.367  0.6131 -0.5106 -0.1450
  928MOL0     C25172   0.513   9.473   6.304  0.6077  2.0285  0.3929
  928MOL0     C25173   0.396   9.539   6.262  0.5461 -0.0869  0.2383
  928MOL0     C25174   0.540   9.330   6.289 -0.1690 -0.8141 -0.1481
  928MOL0     C25175   0.460   9.240   6.208  0.3909 -0.6345  0.0037
  928MOL0     O25176   0.359   9.285   6.126  0.0029  0.1385 -0.8685
  928MOL0     C25177   0.252   9.198   6.107  0.1534  0.3079  0.6822
  928MOL0     C25178   0.213   9.168   5.977  0.3394  0.2522  0.0995
  928MOL0     C25179   0.107   9.077   5.951  1.0058 -0.5698  0.3736
  928MOL0     C25180   0.029   9.015   6.049 -1.2185 -0.5571  1.0183
  928MOL0     O25181  -0.076   8.941   6.014  0.0520  0.5964  0.2732
  928MOL0     C25182  -0.144   8.875   6.118 -0.1971  0.5298 -0.0822
  928MOL0     C25183  -0.273   8.803   6.066 -0.1019  0.7359 -0.3106
  928MOL0     C25184  -0.322   8.692   6.157  0.1271  0.6340 -0.2479
  928MOL0     C25185  -0.367   8.743   6.293 -0.1272 -0.2805  0.7628
  928MOL0     C25186  -0.360   8.623   6.394  0.7496  0.8383 -0.5380
  928MOL0     C25187  -0.471   8.519   6.357  0.3031  0.2776 -0.6458
  928MOL0     C25188  -0.493   8.429   6.480 -0.4691  0.9299 -0.4773
  928MOL0     C25189  -0.602   8.321   6.447  0.5041 -0.4361 -0.1719
  928MOL0    Cl25190  -0.644   8.191   6.572 -1.0858 -0.4024  0.1512
  928MOL0     C25191   0.081   9.035   6.180  0.2248  0.4731 -0.5712
  928MOL0     C25192   0.189   9.116   6.209 -0.3077  0.2004  0.0337
  928MOL0     O25193   0.488   9.122   6.218  0.6944 -0.3944  0.0034
  928MOL0     C25194   0.656   9.280   6.349  0.4604  0.1387 -0.1545
  928MOL0     C25195   0.746   9.364   6.414  0.2543  0.3756  0.2695
  928MOL0     N25196   0.909   9.792   7.019 -0.0446 -0.1411 -0.0207
  928MOL0     N25197   0.889   9.855   7.133  0.2276 -0.7466 -0.1657
  928MOL0     C25198   0.568  10.769   6.633  0.4214 -0.7226 -0.6952
  928MOL0     C25199   0.485  10.852   6.558  0.4927 -0.1403 -0.0619
  928MOL0     C25200   0.190  10.972   6.204  0.8591  0.1781  0.6011
  928MOL0     C25201   0.230  11.098   6.246 -0.1174 -0.1752  0.1542
  928MOL0     C25202   0.185  11.214   6.179  0.4076  0.6284 -0.6108
  928MOL0     C25203   0.084  11.200   6.085 -0.4422  0.8795  0.8017
  928MOL0     O25204   0.050  11.307   6.011  1.0332 -0.7506  0.0648
  928MOL0     C25205   0.034  11.304   5.867  0.2240 -0.4144  0.0656
  928MOL0     C25206   0.078  11.439   5.803  0.4952  0.2970  0.0687
  928MOL0     C25207   0.213  11.428   5.735  0.0514  0.0172 -0.6227
  928MOL0     C25208   0.220  11.339   5.612 -1.1252  0.2998 -0.5995
  928MOL0     C25209   0.125  11.370   5.502  0.2631 -0.1216 -0.2684
  928MOL0     C25210   0.049  11.390   5.412  0.1121  0.0109  2.0293
  928MOL0     C25211   0.035  11.074   6.050  0.5075  0.1494 -0.5628
  928MOL0     C25212   0.088  10.958   6.105  0.3612 -0.5968  0.0867
  928MOL0     H25213   0.279  10.629   6.410 -1.5863  1.2357  1.2570
  928MOL0     H25214   0.402  10.481   6.601  3.2219 -2.2121  0.0023
  928MOL0     H25215   0.747  10.675   6.814 -1.8650  1.0874 -1.3237
  928MOL0     H25216   0.593  10.665   6.904  1.7849 -1.4997  4.4486
  928MOL0     H25217   0.660  10.436   6.984  0.3799 -1.5506 -3.8442
  928MOL0     H25218   0.803  10.436   6.892 -2.2567 -2.0361 -0.9494
  928MOL0     H25219   0.850  10.659   7.035  0.4705  0.3284  0.1740
  928MOL0     H25220   0.718  10.599   7.128 -0.1607 -1.1390  1.7476
  928MOL0     H25221   0.920  10.387   7.059 -2.6171  1.5639 -3.3042
  928MOL0     H25222   0.982  10.532   7.145 -1.0226  0.4702  4.1655
  928MOL0     H25223   0.845  10.509   7.326 -1.6240 -0.9622  1.1079
  928MOL0     H25224   0.755  10.374   7.263  0.2240 -0.4819  2.0200
  928MOL0     H25225   1.043  10.352   7.340 -0.7670 -0.4179  3.8156
  928MOL0     H25226   0.910  10.277   7.415  0.7739  1.3165 -0.2719
  928MOL0     H25227   1.036  10.223   7.139  0.9299 -4.9068 -0.1569
  928MOL0     H25228   1.063  10.133   7.283  1.8246 -1.8584 -4.6022
  928MOL0     H25229   0.800  10.143   7.149 -0.9508 -0.5498  1.7586
  928MOL0     H25230   0.826  10.039   7.281  0.1468  0.5259  0.2422
  928MOL0     H25231   1.065  10.056   6.948  2.3984 -3.8699 -2.7956
  928MOL0     H25232   1.069   9.925   6.738 -1.1492  0.0813 -0.6889
  928MOL0     H25233   1.105   9.767   6.802 -1.9221 -0.2583 -1.8257
  928MOL0     H25234   0.810   9.852   6.739  0.7882  0.1919  0.5485
  928MOL0     H25235   0.879   9.689   6.763  2.1560 -1.0332  0.4972
  928MOL0     H25236   1.012   9.727   6.533  1.1460  0.9219  1.7301
  928MOL0     H25237   0.950   9.895   6.539  3.0550  0.0300  0.4120
  928MOL0     H25238   0.835   9.739   6.376 -2.2698  2.5030 -0.4650
  928MOL0     H25239   0.721   9.780   6.501 -0.6885 -0.8460 -2.0137
  928MOL0     H25240   0.594   9.660   6.374 -0.2459 -0.5549 -1.0554
  928MOL0     H25241   0.407   9.648   6.264 -0.8911  0.1111 -0.8770
  928MOL0     H25242   0.366   9.514   6.160 -0.9918 -1.8360  1.0636
  928MOL0     H25243   0.314   9.509   6.328 -0.8430  0.7851 -1.0034
  928MOL0     H25244   0.266   9.201   5.888 -0.0475 -2.5595 -1.2802
  928MOL0     H25245   0.071   9.054   5.851 -1.1270  2.3228  0.3199
  928MOL0     H25246  -0.076   8.808   6.171  0.5051  1.8289  0.7269
  928MOL0     H25247  -0.186   8.949   6.187 -3.3003 -0.7469 -0.4301
  928MOL0     H25248  -0.353   8.875   6.046  0.5895  1.1425 -1.6863
  928MOL0     H25249  -0.248   8.750   5.973  1.6768  0.4878  0.2596
  928MOL0     H25250  -0.236   8.625   6.167  1.5949  2.6694  1.6704
  928MOL0     H25251  -0.413   8.643   6.121  1.3398 -0.1293 -2.4763
  928MOL0     H25252  -0.289   8.816   6.318 -0.6517  1.0396 -1.2426
  928MOL0     H25253  -0.466   8.787   6.300 -0.7954 -1.6077  0.1050
  928MOL0     H25254  -0.372   8.659   6.497  3.4881  1.4392 -0.3570
  928MOL0     H25255  -0.262   8.577   6.405  0.7339  0.9137 -0.0364
  928MOL0     H25256  -0.567   8.564   6.327 -1.3019 -2.1937  0.4594
  928MOL0     H25257  -0.452   8.455   6.271 -2.5935  0.2282 -1.3642
  928MOL0     H25258  -0.513   8.493   6.566  1.8529  1.2262 -0.1121
  928MOL0     H25259  -0.405   8.368   6.504 -1.2316  0.1553  0.4524
  928MOL0     H25260  -0.566   8.263   6.361  1.4485  0.8832 -0.6954
  928MOL0     H25261  -0.691   8.382   6.427  4.0381  4.8365 -1.7646
  928MOL0     H25262   0.024   9.002   6.267  1.0314 -4.4338 -1.6497
  928MOL0     H25263   0.208   9.141   6.313  1.2287  2.0294 -0.6219
  928MOL0     H25264   0.682   9.176   6.332  0.5937  0.3335 -1.1988
  928MOL0     H25265   0.833   9.324   6.464  0.0058  1.2942  1.4921
  928MOL0     H25266   0.650  10.823   6.679  0.4044 -0.7787 -0.6008
  928MOL0     H25267   0.510  10.957   6.546 -1.8935  0.6178  0.8624
  928MOL0     H25268   0.303  11.108   6.325  0.0486  0.7648 -0.1137
  928MOL0     H25269   0.218  11.312   6.210 -2.6367  1.6825 -0.3694
  928MOL0     H25270   0.099  11.225   5.829  0.6172 -1.1228  2.1079
  928MOL0     H25271  -0.072  11.291   5.842 -1.0004  1.3779  3.6751
  928MOL0     H25272   0.094  11.513   5.882  5.2474 -0.7937  0.4006
  928MOL0     H25273   0.000  11.480   5.738 -0.5687 -4.5079 -2.1361
  928MOL0     H25274   0.275  11.384   5.814 -2.5739 -1.3880  0.8053
  928MOL0     H25275   0.258  11.521   5.701 -3.3712  2.4319  0.9480
  928MOL0     H25276   0.205  11.236   5.647  1.4648 -0.6617 -2.0448
  928MOL0     H25277   0.323  11.342   5.575 -0.0259 -2.6025  1.8227
  928MOL0     H25278   0.005  11.424   5.320  0.7822 -1.9548  0.9222
  928MOL0     H25279  -0.044  11.068   5.976 -0.9334  0.1089  0.9227
  928MOL0     H25280   0.055  10.865   6.060  0.6352  0.1014 -1.6516
  929MOL0     O25281   2.913   9.182   7.933  0.1615 -0.0690 -0.3700
  929MOL0     C25282   2.950   9.185   7.812  0.0446 -0.2624  0.7174
  929MOL0     O25283   3.041   9.085   7.752  0.3886  0.0591 -0.6989
  929MOL0     C25284   3.088   8.977   7.824  0.6028  0.2640  1.4536
  929MOL0     C25285   3.012   8.902   7.918  0.3591 -0.3052  0.3406
  929MOL0     C25286   3.054   8.782   7.969  0.3208 -0.0769 -0.8562
  929MOL0     C25287   3.174   8.727   7.921  0.2813  0.5823  0.6040
  929MOL0     O25288   3.213   8.597   7.964 -0.2028 -0.0332  0.6608
  929MOL0     C25289   3.340   8.540   7.937  0.3947 -0.6094 -0.4677
  929MOL0     C25290   3.451   8.617   8.017  0.3973  0.3789 -0.4274
  929MOL0     C25291   3.584   8.545   7.978 -0.1147 -0.3718  0.5215
  929MOL0     C25292   3.703   8.623   8.031 -0.6175  0.2090 -0.0498
  929MOL0     C25293   3.840   8.545   8.040  0.3902 -1.4540  1.3828
  929MOL0     C25294   3.944   8.634   8.108 -0.2111 -0.3480  0.6016
  929MOL0     C25295   4.086   8.586   8.114 -0.5148  0.0005 -0.1067
  929MOL0     C25296   4.164   8.644   8.234  0.7962 -0.0928  0.5863
  929MOL0     N25297   4.167   8.795   8.241  0.2061 -0.4893  0.5865
  929MOL0     C25298   4.264   8.883   8.188 -0.0404 -0.1994  0.7514
  929MOL0     C25299   4.247   9.003   8.252 -0.7728 -0.1821  0.0279
  929MOL0     C25300   4.308   9.135   8.247  0.3352  0.7506  0.3074
  929MOL0     C25301   4.346   9.186   8.102  1.4116  0.0789  0.0342
  929MOL0     C25302   4.222   9.227   8.025  0.1067 -0.3520 -0.2771
  929MOL0     C25303   4.270   9.311   7.908  0.5258 -0.0433 -0.5797
  929MOL0     O25304   4.344   9.233   7.822 -0.5019 -0.6073 -0.3074
  929MOL0     C25305   4.324   9.245   7.689 -0.8122 -0.6039  0.3909
  929MOL0     C25306   4.273   9.360   7.620  0.8468 -0.3116 -0.4394
  929MOL0     C25307   4.255   9.363   7.481 -0.9874  1.0454 -0.5223
  929MOL0     C25308   4.193   9.479   7.417  0.4269  0.5238  0.9013
  929MOL0     C25309   4.308   9.253   7.402 -0.3564 -0.0191  0.6781
  929MOL0     C25310   4.300   9.246   7.254 -0.5295 -0.6705 -0.6452
  929MOL0     O25311   4.271   9.360   7.182 -0.2940 -0.3999 -0.4193
  929MOL0     C25312   4.304   9.368   7.048 -0.2940 -0.1006  0.6201
  929MOL0     C25313   4.206   9.390   6.959 -0.9839 -1.5171  0.3880
  929MOL0     C25314   4.222   9.383   6.823  0.0381  0.1352  0.8052
  929MOL0     C25315   4.356   9.368   6.772  0.6545 -0.5885 -0.4073
  929MOL0     O25316   4.355   9.361   6.633  0.1157 -0.0194 -0.7188
  929MOL0     C25317   4.466   9.289   6.572 -0.6018 -0.6202 -0.4493
  929MOL0     C25318   4.454   9.289   6.417  0.2670  0.1419  0.1412
  929MOL0     C25319   4.371   9.174   6.355 -0.2528  0.9451 -0.4192
  929MOL0     C25320   4.237   9.178   6.401  0.3448  0.8830  0.1185
  929MOL0     C25321   4.147   9.059   6.364  0.2455 -0.5768 -1.0743
  929MOL0     C25322   4.088   9.057   6.222  0.4055 -0.2416  0.8693
  929MOL0     C25323   3.977   8.956   6.194  0.4374  0.3220  0.1282
  929MOL0     C25324   4.012   8.802   6.200  0.6824  0.5961 -0.9347
  929MOL0    Cl25325   3.860   8.714   6.178  0.0783 -0.7913  0.2718
  929MOL0     C25326   4.458   9.359   6.865 -0.2242  0.6572  0.1613
  929MOL0     C25327   4.435   9.350   6.998 -0.0038  0.6371 -0.0979
  929MOL0     O25328   4.307   9.137   7.210 -0.2758 -0.4113  0.9189
  929MOL0     C25329   4.361   9.135   7.471  0.3827  1.3567  0.5922
  929MOL0     C25330   4.362   9.134   7.609  0.6029 -1.0392 -1.0565
  929MOL0     N25331   4.135   8.991   8.336 -0.3947  0.4067 -0.7686
  929MOL0     N25332   4.085   8.872   8.324  0.1714 -0.8903  0.6112
  929MOL0     C25333   3.257   8.803   7.837  0.4957  0.2521  0.2872
  929MOL0     C25334   3.214   8.927   7.776  0.0726 -0.1908  0.3050
  929MOL0     C25335   2.910   9.301   7.729  0.5693  0.4387  0.0845
  929MOL0     C25336   2.817   9.401   7.764 -0.8823 -0.4348 -0.1461
  929MOL0     C25337   2.786   9.498   7.670  0.3743 -0.7553  0.3178
  929MOL0     C25338   2.835   9.503   7.541 -0.8160  0.3869  0.8143
  929MOL0     O25339   2.788   9.600   7.457  0.2342  0.7798  0.2192
  929MOL0     C25340   2.701   9.548   7.353 -0.2654 -0.0957 -0.7680
  929MOL0     C25341   2.767   9.593   7.233  0.4702  0.2037  0.0439
  929MOL0     C25342   2.682   9.567   7.108  0.3913  0.0214 -0.1360
  929MOL0     C25343   2.593   9.692   7.090 -0.0573  0.4120 -0.0116
  929MOL0     C25344   2.672   9.803   7.032  0.1001  0.0362  0.7708
  929MOL0     C25345   2.730   9.895   6.985 -0.5878 -0.1453 -0.2608
  929MOL0     C25346   2.932   9.411   7.508 -0.9130 -0.1106 -0.7087
  929MOL0     C25347   2.978   9.308   7.599  1.2850 -1.2404 -0.8288
  929MOL0     H25348   2.911   8.931   7.945 -0.0672 -3.4805  2.6633
  929MOL0     H25349   2.988   8.709   8.014  0.9987 -0.5505 -0.6122
  929MOL0     H25350   3.337   8.434   7.963  0.4456 -0.2522  1.0872
  929MOL0     H25351   3.357   8.538   7.828  3.9225 -2.1592 -0.0542
  929MOL0     H25352   3.457   8.724   7.996 -0.2109  0.5281  0.1167
  929MOL0     H25353   3.429   8.604   8.124 -1.5176  1.6304 -0.6242
  929MOL0     H25354   3.586   8.438   8.001  2.0994 -0.8400 -1.4800
  929MOL0     H25355   3.604   8.552   7.871 -3.0594  0.1592 -0.0682
  929MOL0     H25356   3.714   8.707   7.963  0.1327  2.0768  2.2431
  929MOL0     H25357   3.682   8.665   8.130  0.7550  1.2436 -0.1762
  929MOL0     H25358   3.825   8.464   8.111  0.5707 -0.0833  3.0657
  929MOL0     H25359   3.862   8.517   7.937 -0.7693  3.2787 -0.4458
  929MOL0     H25360   3.939   8.729   8.055 -0.2749 -1.9667 -2.5028
  929MOL0     H25361   3.908   8.635   8.211  0.0756  0.7002  0.6957
  929MOL0     H25362   4.087   8.478   8.133  1.8512  0.4200  3.0935
  929MOL0     H25363   4.141   8.607   8.021  4.2711  0.0578  2.4154
  929MOL0     H25364   4.268   8.612   8.242  1.9539  3.6072  2.7852
  929MOL0     H25365   4.122   8.607   8.329 -0.0464 -0.4831  0.0782
  929MOL0     H25366   4.350   8.853   8.129  0.5498  0.5947  1.1884
  929MOL0     H25367   4.247   9.204   8.305  0.2107  0.6981  0.2405
  929MOL0     H25368   4.401   9.112   8.301  1.7655 -0.8732 -2.5633
  929MOL0     H25369   4.397   9.111   8.042  2.4755 -0.6942  1.8265
  929MOL0     H25370   4.418   9.268   8.116  0.2902  0.6729  3.4370
  929MOL0     H25371   4.166   9.285   8.100 -2.1817 -1.2673 -1.2020
  929MOL0     H25372   4.168   9.140   7.987 -2.2364  1.1508 -0.5824
  929MOL0     H25373   4.325   9.400   7.941  0.9032 -0.0363 -1.2228
  929MOL0     H25374   4.180   9.348   7.859  0.3584 -1.8707 -1.7380
  929MOL0     H25375   4.239   9.452   7.666  0.6540  1.1039 -3.1726
  929MOL0     H25376   4.115   9.453   7.345 -0.4998 -1.0436  2.4005
  929MOL0     H25377   4.132   9.529   7.493  1.5081 -1.5680  3.2958
  929MOL0     H25378   4.253   9.558   7.370 -0.7232  0.6450 -0.4470
  929MOL0     H25379   4.110   9.401   7.007  0.7923 -0.3263  4.0492
  929MOL0     H25380   4.138   9.383   6.755  0.5577 -2.5891  0.0363
  929MOL0     H25381   4.557   9.338   6.607  0.5361 -2.4329 -0.7616
  929MOL0     H25382   4.485   9.190   6.617 -3.1316  0.7420  4.3635
  929MOL0     H25383   4.414   9.386   6.389 -1.8510  0.2216  3.0675
  929MOL0     H25384   4.558   9.289   6.381  0.5134 -2.9699  0.5270
  929MOL0     H25385   4.406   9.071   6.367 -1.4474 -0.4555 -6.2179
  929MOL0     H25386   4.382   9.176   6.247  2.4006 -0.4325 -0.2620
  929MOL0     H25387   4.220   9.175   6.509  3.6850 -1.7888  0.7504
  929MOL0     H25388   4.186   9.269   6.370  0.4362  0.0590 -2.6577
  929MOL0     H25389   4.062   9.056   6.433 -0.1070 -0.4040 -1.4946
  929MOL0     H25390   4.196   8.963   6.380  1.8333  0.3928  0.2248
  929MOL0     H25391   4.076   9.163   6.197  3.6902  0.8260  3.0343
  929MOL0     H25392   4.163   9.018   6.152  0.8998 -0.3872  1.4698
  929MOL0     H25393   3.936   8.976   6.095  0.0615 -1.2566 -0.0525
  929MOL0     H25394   3.893   8.979   6.260  0.4484 -0.6236  0.4773
  929MOL0     H25395   4.062   8.782   6.295  2.1904  1.5553 -1.4966
  929MOL0     H25396   4.075   8.772   6.115 -0.5127  1.1051 -2.0468
  929MOL0     H25397   4.558   9.356   6.821 -0.5890  0.6646 -0.6969
  929MOL0     H25398   4.515   9.324   7.066  1.0187  1.9320 -0.7745
  929MOL0     H25399   4.408   9.050   7.421  0.3618  2.3622 -1.2310
  929MOL0     H25400   4.401   9.048   7.662 -1.8017  0.0022  2.8622
  929MOL0     H25401   3.354   8.763   7.808  0.6517 -2.0767  3.5698
  929MOL0     H25402   3.265   8.995   7.708 -1.5202  0.2158 -0.5363
  929MOL0     H25403   2.761   9.405   7.857 -2.6149 -0.1114 -1.1530
  929MOL0     H25404   2.718   9.577   7.700  0.9038 -0.1204 -0.1414
  929MOL0     H25405   2.693   9.439   7.356 -0.7790 -0.0807 -1.4279
  929MOL0     H25406   2.599   9.588   7.359 -0.2493  0.7316 -4.1308
  929MOL0     H25407   2.855   9.529   7.235 -0.3127 -0.9048  0.0532
  929MOL0     H25408   2.801   9.697   7.232  1.5638 -0.1293 -2.0066
  929MOL0     H25409   2.628   9.473   7.125  1.9867 -0.8806  0.0793
  929MOL0     H25410   2.744   9.543   7.021 -0.6200 -1.2908 -0.5308
  929MOL0     H25411   2.538   9.725   7.178  1.7582  0.1770  1.2694
  929MOL0     H25412   2.530   9.680   7.001 -0.6060  2.0796  0.1168
  929MOL0     H25413   2.780   9.975   6.934 -0.8340 -0.1603 -0.5259
  929MOL0     H25414   2.966   9.406   7.405 -0.4934  0.7793 -0.6217
  929MOL0     H25415   3.050   9.233   7.566  0.4671 -0.5527 -4.6578
  930MOL0     O25416   2.380   7.663   9.775 -0.8995  0.1007 -1.0615
  930MOL0     C25417   2.455   7.756   9.736  0.7960 -0.7760 -0.3180
  930MOL0     O25418   2.430   7.840   9.637 -0.5766 -0.6480  1.4736
  930MOL0     C25419   2.298   7.855   9.586  0.3281  0.3776  0.3274
  930MOL0     C25420   2.258   7.774   9.479 -0.3898 -0.7707 -0.8354
  930MOL0     C25421   2.130   7.792   9.434 -0.1921  0.3356  0.7001
  930MOL0     C25422   2.045   7.896   9.477  0.4555 -0.7588  0.2106
  930MOL0     O25423   1.913   7.911   9.435  0.3134  0.0965 -0.1321
  930MOL0     C25424   1.844   7.795   9.369 -1.4833 -1.0954 -0.4620
  930MOL0     C25425   1.697   7.826   9.350  0.3947 -0.2450  0.0296
  930MOL0     C25426   1.669   7.916   9.223  0.2864 -0.6815  0.1611
  930MOL0     C25427   1.518   7.906   9.186 -0.2208  0.1032  0.4869
  930MOL0     C25428   1.476   7.765   9.142  0.2673  0.3902 -0.5345
  930MOL0     C25429   1.341   7.780   9.079  0.4173 -0.2927  0.3289
  930MOL0     C25430   1.269   7.654   9.035  0.3941 -0.2035 -0.0494
  930MOL0     C25431   1.200   7.579   9.148  0.3364 -0.2205  0.7598
  930MOL0     N25432   1.099   7.485   9.101 -0.2236 -0.3022 -0.1349
  930MOL0     C25433   1.118   7.406   8.990 -0.3960 -0.3388  0.7253
  930MOL0     C25434   0.999   7.370   8.940  0.0333 -0.0797 -0.4718
  930MOL0     C25435   0.976   7.287   8.819  0.1991  0.0244 -0.1395
  930MOL0     C25436   0.924   7.147   8.851  0.3881  0.0349  0.5192
  930MOL0     C25437   1.001   7.064   8.960  0.0333 -0.5681  0.2304
  930MOL0     C25438   0.952   6.922   8.988  0.6901  0.3571 -0.3966
  930MOL0     O25439   1.016   6.822   8.911 -0.6653  0.6918  0.8069
  930MOL0     C25440   0.993   6.689   8.928  0.3048 -0.1738  0.1795
  930MOL0     C25441   1.065   6.605   8.844  0.5206 -0.1016  0.0046
  930MOL0     C25442   1.036   6.463   8.857  0.9843 -0.3489  0.3306
  930MOL0     C25443   1.098   6.378   8.745  0.5988 -0.2982 -0.0292
  930MOL0     C25444   0.953   6.419   8.964  0.6518 -0.6270 -0.8327
  930MOL0     C25445   0.932   6.275   8.994  0.8383  1.9454 -0.3685
  930MOL0     O25446   0.866   6.255   9.113 -0.8881 -0.4159 -0.7865
  930MOL0     C25447   0.827   6.121   9.135 -0.7488 -0.7839 -0.1910
  930MOL0     C25448   0.704   6.081   9.089  0.2650 -0.5503 -0.6354
  930MOL0     C25449   0.662   5.948   9.117 -0.8058  0.1664  0.3392
  930MOL0     C25450   0.748   5.855   9.176 -0.3191  0.5057 -0.2522
  930MOL0     O25451   0.711   5.718   9.187 -0.0852  1.0146 -0.2352
  930MOL0     C25452   0.668   5.695   9.322  0.0120 -0.1918 -0.3530
  930MOL0     C25453   0.720   5.558   9.368 -1.1630 -0.2637  0.1811
  930MOL0     C25454   0.704   5.537   9.524  0.1671 -0.4281  0.2668
  930MOL0     C25455   0.723   5.387   9.547 -0.3129  0.7042  0.0316
  930MOL0     C25456   0.701   5.344   9.699  0.0458  0.1077 -0.2231
  930MOL0     C25457   0.827   5.360   9.798  0.6082 -0.6044  0.3041
  930MOL0     C25458   0.780   5.350   9.945 -0.0299  0.0303 -0.0742
  930MOL0     C25459   0.701   5.472   9.989 -0.0694  1.5604 -0.6441
  930MOL0    Cl25460   0.532   5.427  10.002 -0.1035  0.2537 -0.5410
  930MOL0     C25461   0.876   5.902   9.217 -0.0606  0.4140 -0.8268
  930MOL0     C25462   0.912   6.034   9.208 -0.3891  0.0931  0.2043
  930MOL0     O25463   0.967   6.185   8.916  0.4504 -0.3857 -0.7419
  930MOL0     C25464   0.890   6.511   9.044  0.7796 -0.0569  0.0013
  930MOL0     C25465   0.893   6.646   9.021  0.8911 -1.1100  0.4301
  930MOL0     N25466   0.901   7.435   9.015  0.3540  0.2436 -0.4433
  930MOL0     N25467   0.966   7.506   9.102  0.2348 -0.2451 -0.0954
  930MOL0     C25468   2.101   7.984   9.577 -0.1423 -0.2486 -0.4501
  930MOL0     C25469   2.223   7.960   9.632 -0.3396 -1.0246  0.1925
  930MOL0     C25470   2.581   7.774   9.810  0.8699  0.6923  0.4671
  930MOL0     C25471   2.635   7.907   9.814  0.2369 -0.2846  0.3699
  930MOL0     C25472   2.768   7.917   9.858 -0.9543 -0.0681 -0.5917
  930MOL0     C25473   2.850   7.812   9.891  0.2447  1.4161 -0.9511
  930MOL0     O25474   2.977   7.832   9.936  0.3382  0.5322 -0.4887
  930MOL0     C25475   3.078   7.866   9.849  0.0301  1.0098  0.5719
  930MOL0     C25476   3.167   7.737   9.810  0.1986 -0.1680  0.3433
  930MOL0     C25477   3.199   7.656   9.937  0.0135  0.1125  0.3590
  930MOL0     C25478   3.268   7.744  10.032  0.4164  0.3203 -0.0436
  930MOL0     C25479   3.402   7.791   9.994 -0.8967  1.0679 -0.7889
  930MOL0     C25480   3.519   7.808   9.981 -0.1809  0.3448  0.1886
  930MOL0     C25481   2.791   7.682   9.878 -0.2427  0.5443 -0.6227
  930MOL0     C25482   2.658   7.662   9.842  0.3628 -0.5457  0.2337
  930MOL0     H25483   2.312   7.685   9.446 -1.6032 -1.1809 -1.7821
  930MOL0     H25484   2.093   7.724   9.359 -1.4232 -0.5966  2.0864
  930MOL0     H25485   1.886   7.760   9.274 -1.6055 -0.5178 -0.7322
  930MOL0     H25486   1.858   7.706   9.432  1.4864 -0.1294  0.4092
  930MOL0     H25487   1.648   7.730   9.336  1.3877 -0.4502 -2.3629
  930MOL0     H25488   1.655   7.876   9.439  1.7426 -0.9077  1.0816
  930MOL0     H25489   1.692   8.020   9.249  0.6162 -0.4807 -0.8853
  930MOL0     H25490   1.728   7.894   9.133 -1.3258  0.6675 -1.2946
  930MOL0     H25491   1.456   7.950   9.265  1.3108  0.8347  1.3291
  930MOL0     H25492   1.503   7.966   9.095 -2.1470 -2.0456 -0.7026
  930MOL0     H25493   1.554   7.734   9.071 -0.0295 -0.4618 -0.4940
  930MOL0     H25494   1.466   7.697   9.226 -2.8656  2.6371  1.1133
  930MOL0     H25495   1.281   7.840   9.149 -0.2529 -1.0250  0.4025
  930MOL0     H25496   1.344   7.847   8.993  0.8864  2.4793  2.3804
  930MOL0     H25497   1.189   7.681   8.965  1.2548 -2.9164 -2.2649
  930MOL0     H25498   1.330   7.588   8.973 -0.8222 -1.3157 -0.0950
  930MOL0     H25499   1.156   7.649   9.219 -1.0023  0.4469 -0.6708
  930MOL0     H25500   1.273   7.514   9.197 -1.7016 -2.4245  1.0025
  930MOL0     H25501   1.213   7.373   8.949 -1.0757 -0.4215 -0.8585
  930MOL0     H25502   0.921   7.340   8.741 -1.1272  1.0546  1.4390
  930MOL0     H25503   1.077   7.267   8.781  1.6521  3.4441  1.5073
  930MOL0     H25504   0.938   7.097   8.754  0.0507 -0.0334  0.5013
  930MOL0     H25505   0.818   7.152   8.880  0.4442 -2.0002  1.1942
  930MOL0     H25506   0.986   7.123   9.050 -0.0325  3.9568 -2.4141
  930MOL0     H25507   1.106   7.055   8.931  0.6491  3.8702  0.4370
  930MOL0     H25508   0.847   6.919   8.960  0.7797  0.7727 -0.7972
  930MOL0     H25509   0.958   6.890   9.092 -3.5389 -2.6866 -0.8488
  930MOL0     H25510   1.132   6.640   8.765  1.3136  0.8435  1.0510
  930MOL0     H25511   1.182   6.315   8.777  2.6894  2.1883 -0.3251
  930MOL0     H25512   1.022   6.315   8.699  0.8951  0.0115 -0.9509
  930MOL0     H25513   1.133   6.431   8.657  1.6525  1.2165  1.2365
  930MOL0     H25514   0.637   6.153   9.043  1.5957  0.4783 -1.0468
  930MOL0     H25515   0.562   5.909   9.100  0.7800 -4.3510  0.2898
  930MOL0     H25516   0.715   5.770   9.386  0.1015 -1.2020  0.8052
  930MOL0     H25517   0.559   5.704   9.319  0.1577  3.4836  0.2566
  930MOL0     H25518   0.665   5.489   9.304  0.2060  0.1686 -1.5450
  930MOL0     H25519   0.827   5.551   9.346 -0.8818 -3.3302  1.9068
  930MOL0     H25520   0.605   5.564   9.561  0.2867  0.5807 -0.1103
  930MOL0     H25521   0.771   5.601   9.582  0.1775 -0.2051  0.0105
  930MOL0     H25522   0.657   5.330   9.481  2.1190 -0.9759 -1.1231
  930MOL0     H25523   0.828   5.377   9.518 -0.1733  3.8181 -0.8363
  930MOL0     H25524   0.681   5.237   9.692  0.5753 -0.0092 -0.0240
  930MOL0     H25525   0.612   5.397   9.736 -0.1519 -0.9307  0.8447
  930MOL0     H25526   0.893   5.275   9.781  2.0264  0.3048  1.0914
  930MOL0     H25527   0.891   5.446   9.779  0.1674 -0.0492  1.2488
  930MOL0     H25528   0.857   5.347  10.022 -0.7265  2.9369  0.8654
  930MOL0     H25529   0.729   5.253   9.943  0.3830 -0.1952 -2.0527
  930MOL0     H25530   0.704   5.564   9.930  1.0067  1.9723  0.0283
  930MOL0     H25531   0.736   5.499  10.089 -0.2443 -0.6870  0.0681
  930MOL0     H25532   0.938   5.832   9.273 -0.3490  2.1225  1.8212
  930MOL0     H25533   1.000   6.085   9.245 -0.3149  1.3607 -1.5999
  930MOL0     H25534   0.839   6.484   9.135 -0.0697  0.9052 -0.1669
  930MOL0     H25535   0.834   6.715   9.080  0.2523 -1.0998 -0.2018
  930MOL0     H25536   2.045   8.071   9.611 -0.1832  0.8490 -3.0945
  930MOL0     H25537   2.254   8.025   9.712 -1.9918 -2.1376  1.8103
  930MOL0     H25538   2.575   7.992   9.783 -2.9983 -2.0355  1.3896
  930MOL0     H25539   2.807   8.017   9.870  0.1182 -0.3329 -1.6024
  930MOL0     H25540   3.047   7.901   9.750  0.6220  1.8319  0.6699
  930MOL0     H25541   3.149   7.937   9.892  2.9593 -2.4964  2.1360
  930MOL0     H25542   3.250   7.757   9.741 -0.1082  0.1882  0.0772
  930MOL0     H25543   3.097   7.673   9.755 -1.2203  0.3860  1.4453
  930MOL0     H25544   3.241   7.558   9.913 -0.9966  0.2341 -2.2312
  930MOL0     H25545   3.104   7.639   9.988  1.0939 -2.4773  1.6879
  930MOL0     H25546   3.285   7.688  10.125 -0.3681  1.5336  0.8567
  930MOL0     H25547   3.201   7.827  10.056  0.2897  0.9107 -2.2545
  930MOL0     H25548   3.619   7.834   9.955  0.0878 -3.5483 -3.9856
  930MOL0     H25549   2.837   7.588   9.908  2.9436  2.3510  0.6681
  930MOL0     H25550   2.620   7.560   9.831 -1.4639 -0.0267  1.2773
  931MOL0     O25551   4.226   6.553   3.410  0.5532 -0.2997  0.6195
  931MOL0     C25552   4.272   6.666   3.387 -0.5765  1.1676 -0.8951
  931MOL0     O25553   4.289   6.770   3.481  0.1941  0.3270  0.5721
  931MOL0     C25554   4.230   6.747   3.607 -0.3070  0.0056  0.5329
  931MOL0     C25555   4.326   6.742   3.704  0.0937  0.2356 -0.5666
  931MOL0     C25556   4.291   6.723   3.842  0.1946  0.1875 -0.1582
  931MOL0     C25557   4.156   6.719   3.882  0.2417 -0.6636  0.6538
  931MOL0     O25558   4.102   6.700   4.010  0.5448 -0.5122  0.0210
  931MOL0     C25559   4.199   6.694   4.117  0.4250 -0.2706 -0.5739
  931MOL0     C25560   4.123   6.683   4.244 -0.0101  0.3234 -0.4938
  931MOL0     C25561   4.203   6.712   4.376  0.2513  0.4755  0.1777
  931MOL0     C25562   4.352   6.660   4.376 -0.2650  0.7935 -0.1435
  931MOL0     C25563   4.411   6.687   4.517 -0.4033  1.3378  1.0541
  931MOL0     C25564   4.556   6.631   4.518  0.2209  0.3386  0.3955
  931MOL0     C25565   4.614   6.689   4.639 -0.4184 -0.6954 -0.9971
  931MOL0     C25566   4.763   6.644   4.653  1.0541 -0.1596  0.4959
  931MOL0     N25567   4.775   6.509   4.727  0.2590  0.5310 -0.0257
  931MOL0     C25568   4.757   6.482   4.856  0.0982  0.2936 -0.0282
  931MOL0     C25569   4.782   6.347   4.878  0.3242  0.0579 -0.3030
  931MOL0     C25570   4.780   6.273   5.006  1.2780 -0.3265 -0.0870
  931MOL0     C25571   4.918   6.256   5.065 -0.9372  0.3167  0.0367
  931MOL0     C25572   4.920   6.169   5.198  0.5461  0.2202  0.8187
  931MOL0     C25573   4.890   6.021   5.189 -0.0162  0.5992 -0.6582
  931MOL0     O25574   4.953   5.957   5.075 -0.3218 -0.4348 -0.5353
  931MOL0     C25575   5.018   5.841   5.107 -0.2663 -0.2383 -0.2916
  931MOL0     C25576   4.970   5.734   5.181 -0.0566  0.1465 -0.1099
  931MOL0     C25577   5.036   5.607   5.191 -0.1296 -0.2745 -0.4782
  931MOL0     C25578   4.968   5.478   5.253 -0.5020  0.5163  0.6331
  931MOL0     C25579   5.168   5.604   5.137  0.5285  0.4089 -0.0009
  931MOL0     C25580   5.263   5.492   5.149  0.8593  0.1723 -0.2352
  931MOL0     O25581   5.324   5.453   5.039  0.3905  0.4222  0.3355
  931MOL0     C25582   5.419   5.356   5.043  0.9013 -0.5002 -0.1623
  931MOL0     C25583   5.391   5.240   4.963  0.1639  0.6121 -0.5581
  931MOL0     C25584   5.471   5.129   4.955  0.6519 -0.2616 -0.2600
  931MOL0     C25585   5.585   5.132   5.038 -0.0110  0.1759  0.3755
  931MOL0     O25586   5.676   5.027   5.026  0.5791 -0.6080 -0.4215
  931MOL0     C25587   5.819   5.057   4.995 -0.3586 -0.0085  0.2573
  931MOL0     C25588   5.907   4.989   5.099  0.2940  0.1634  0.0328
  931MOL0     C25589   5.903   4.837   5.087 -0.5550  0.0844 -0.6232
  931MOL0     C25590   5.996   4.771   5.186  0.2555  0.2383 -0.0908
  931MOL0     C25591   5.941   4.762   5.335  0.2406  0.1875 -0.0786
  931MOL0     C25592   5.828   4.658   5.348  0.4219  0.2004  1.1236
  931MOL0     C25593   5.877   4.519   5.353 -0.4594 -0.0316  0.0920
  931MOL0     C25594   5.785   4.424   5.431 -0.2471  0.0024 -0.4039
  931MOL0    Cl25595   5.838   4.260   5.457  0.0227  0.2826  0.7580
  931MOL0     C25596   5.612   5.237   5.121  0.5693  0.3840 -0.4475
  931MOL0     C25597   5.527   5.348   5.123  0.2953  0.5127 -1.0195
  931MOL0     O25598   5.293   5.469   5.263  0.5519 -0.0551 -0.6888
  931MOL0     C25599   5.226   5.710   5.069  0.7943  0.1982 -0.1768
  931MOL0     C25600   5.148   5.830   5.051  0.4418 -0.2678 -0.7774
  931MOL0     N25601   4.817   6.300   4.756  0.3886  0.3146  0.6000
  931MOL0     N25602   4.826   6.394   4.673  0.2090 -0.0300  0.6503
  931MOL0     C25603   4.062   6.722   3.773  0.7926  0.2553  0.4524
  931MOL0     C25604   4.097   6.738   3.634  0.4090 -0.4499 -0.5665
  931MOL0     C25605   4.329   6.684   3.251 -0.1102 -0.4279 -0.7422
  931MOL0     C25606   4.322   6.588   3.148 -0.1730 -0.5697  1.1103
  931MOL0     C25607   4.378   6.615   3.026  0.2657  0.2567 -0.2107
  931MOL0     C25608   4.447   6.737   2.997 -0.1858 -0.7019 -1.0333
  931MOL0     O25609   4.504   6.769   2.874 -0.4882  0.1800 -0.3399
  931MOL0     C25610   4.468   6.698   2.755  0.1979  0.0233 -0.7570
  931MOL0     C25611   4.544   6.750   2.634  0.3329  1.0361 -0.9712
  931MOL0     C25612   4.680   6.682   2.619  0.9405  0.2870  0.7258
  931MOL0     C25613   4.777   6.739   2.507  0.9119 -0.3096  0.4177
  931MOL0     C25614   4.700   6.749   2.377 -0.4919 -0.0079 -0.4516
  931MOL0     C25615   4.637   6.783   2.279  0.3726 -0.2270  0.0960
  931MOL0     C25616   4.447   6.832   3.105  0.5242  0.2679  0.1752
  931MOL0     C25617   4.383   6.812   3.224  0.8677 -0.7302 -0.4578
  931MOL0     H25618   4.430   6.760   3.678  0.7436  2.3502  2.7613
  931MOL0     H25619   4.366   6.702   3.917 -0.9168 -2.1275  0.4017
  931MOL0     H25620   4.277   6.617   4.122  2.1663  1.4930  3.1197
  931MOL0     H25621   4.258   6.786   4.125  0.9013 -0.5325 -1.0316
  931MOL0     H25622   4.038   6.751   4.248 -1.1202 -0.8967 -2.0379
  931MOL0     H25623   4.082   6.584   4.267  0.9704 -0.3230 -1.4450
  931MOL0     H25624   4.207   6.820   4.363 -0.2213  0.5499  0.6289
  931MOL0     H25625   4.155   6.692   4.472  2.8296 -2.9264  0.9393
  931MOL0     H25626   4.362   6.551   4.369 -1.1505  0.7940 -1.8111
  931MOL0     H25627   4.416   6.693   4.294 -0.1378 -1.5623 -1.0867
  931MOL0     H25628   4.399   6.793   4.538  0.8524  2.0654 -1.4679
  931MOL0     H25629   4.350   6.629   4.587 -0.8072  0.6981  0.2006
  931MOL0     H25630   4.536   6.523   4.517  0.7972  0.1233 -3.1400
  931MOL0     H25631   4.608   6.649   4.423 -2.2626 -3.5051 -1.9826
  931MOL0     H25632   4.608   6.797   4.625 -2.4601 -0.4552  1.0741
  931MOL0     H25633   4.554   6.672   4.729 -2.6395 -0.2036 -2.2868
  931MOL0     H25634   4.812   6.718   4.717 -0.6453  1.5104 -0.0313
  931MOL0     H25635   4.800   6.648   4.550 -1.7206 -0.1035 -0.5687
  931MOL0     H25636   4.727   6.550   4.935 -0.8029 -3.9403  3.6540
  931MOL0     H25637   4.705   6.325   5.067  1.4700  1.0838 -1.0158
  931MOL0     H25638   4.738   6.175   4.981 -3.9739  2.1899 -2.6623
  931MOL0     H25639   4.960   6.355   5.087  0.3042  0.3116 -2.0377
  931MOL0     H25640   4.986   6.205   4.996 -2.6420 -4.1511  1.2884
  931MOL0     H25641   4.860   6.210   5.280 -0.7744 -0.7887  0.3935
  931MOL0     H25642   5.023   6.173   5.232  0.9167  2.9857 -0.3625
  931MOL0     H25643   4.782   6.004   5.190 -0.0551  0.0035  3.5634
  931MOL0     H25644   4.910   5.976   5.287 -5.2167 -1.0805 -0.0382
  931MOL0     H25645   4.867   5.735   5.218  0.7076 -0.1484  2.1949
  931MOL0     H25646   5.028   5.448   5.339 -0.2986  3.3376  1.5857
  931MOL0     H25647   4.867   5.502   5.285 -0.5678  2.1352 -0.6258
  931MOL0     H25648   4.984   5.409   5.169 -0.4512  3.1449 -1.6848
  931MOL0     H25649   5.294   5.245   4.915  0.1918  4.5030 -0.5145
  931MOL0     H25650   5.440   5.046   4.893 -1.2857 -0.8762  1.4243
  931MOL0     H25651   5.844   5.014   4.897 -0.3116 -0.5552  0.5096
  931MOL0     H25652   5.844   5.163   4.983  0.6414 -0.5463 -4.2054
  931MOL0     H25653   6.005   5.028   5.071 -0.2298 -0.0479 -2.2818
  931MOL0     H25654   5.880   5.031   5.197 -0.3889 -1.4083  0.5711
  931MOL0     H25655   5.932   4.821   4.982 -0.4431  1.7505 -0.8661
  931MOL0     H25656   5.800   4.800   5.096 -1.2362  1.2554 -2.8407
  931MOL0     H25657   6.031   4.674   5.150  0.9441 -0.1246  1.4828
  931MOL0     H25658   6.089   4.827   5.195  0.1820  0.4034 -0.3504
  931MOL0     H25659   5.913   4.865   5.360  3.4144  1.4005 -1.0212
  931MOL0     H25660   6.032   4.745   5.393 -0.8306  2.3251  2.4476
  931MOL0     H25661   5.784   4.681   5.445 -0.8993  0.9881  0.3753
  931MOL0     H25662   5.745   4.675   5.279  0.5068  2.7214  1.5574
  931MOL0     H25663   5.980   4.520   5.388 -1.6300  3.0268  4.3064
  931MOL0     H25664   5.877   4.488   5.248 -1.9846 -0.9141  0.3156
  931MOL0     H25665   5.691   4.417   5.375 -1.4794  1.7302  1.3181
  931MOL0     H25666   5.755   4.464   5.529 -2.0924 -0.1462 -0.8723
  931MOL0     H25667   5.698   5.238   5.188  0.7614 -2.3608 -0.5373
  931MOL0     H25668   5.546   5.426   5.196  1.5074  0.6029 -1.4125
  931MOL0     H25669   5.333   5.715   5.050  0.8276  2.0824  0.3119
  931MOL0     H25670   5.187   5.917   4.998 -1.6232  2.7143  2.2038
  931MOL0     H25671   3.957   6.705   3.797  0.7970 -0.2279  0.1182
  931MOL0     H25672   4.019   6.759   3.562  0.9639  2.8271 -0.3365
  931MOL0     H25673   4.266   6.495   3.157  0.1586 -0.8464  0.3754
  931MOL0     H25674   4.365   6.537   2.952 -0.6016 -0.0318  0.2268
  931MOL0     H25675   4.486   6.592   2.773 -3.0371 -0.8033 -1.7580
  931MOL0     H25676   4.360   6.689   2.739 -0.3975  1.6733  1.6203
  931MOL0     H25677   4.573   6.853   2.654  1.4932 -0.0396  4.7148
  931MOL0     H25678   4.476   6.739   2.550  0.0810  2.9265 -1.0598
  931MOL0     H25679   4.654   6.580   2.589  2.1198  0.9591 -3.1897
  931MOL0     H25680   4.723   6.684   2.719 -0.6436 -0.4580  1.4597
  931MOL0     H25681   4.859   6.667   2.500 -0.5637 -1.9017 -3.8719
  931MOL0     H25682   4.814   6.837   2.539 -0.6207  0.2411  0.6144
  931MOL0     H25683   4.584   6.807   2.189 -0.2983  0.7493  0.7296
  931MOL0     H25684   4.502   6.925   3.091  2.0216 -0.5012  0.6882
  931MOL0     H25685   4.366   6.892   3.295 -1.8493 -0.1911 -1.5944
  932MOL0     O25686  11.038   1.556   7.873  0.8773  0.3060 -0.7269
  932MOL0     C25687  10.978   1.453   7.886 -0.1908 -0.3949 -0.4626
  932MOL0     O25688  10.854   1.431   7.839 -0.4323  1.1372 -0.2907
  932MOL0     C25689  10.788   1.532   7.769  0.3100  0.1156 -0.6017
  932MOL0     C25690  10.815   1.559   7.634 -0.5165  0.1183 -0.5072
  932MOL0     C25691  10.736   1.658   7.564 -0.7019  1.0997 -0.3195
  932MOL0     C25692  10.651   1.736   7.631  0.8839 -0.3511  0.2716
  932MOL0     O25693  10.600   1.830   7.553  0.5854  0.0568  0.1421
  932MOL0     C25694  10.520   1.929   7.608 -1.0034 -0.2103 -0.0419
  932MOL0     C25695  10.479   2.027   7.502  0.1176  0.1507 -0.0914
  932MOL0     C25696  10.595   2.090   7.438  0.0213 -0.5464  0.6202
  932MOL0     C25697  10.548   2.204   7.340  0.3114  0.1653 -1.5494
  932MOL0     C25698  10.666   2.240   7.249 -0.0203 -0.7737 -0.4370
  932MOL0     C25699  10.640   2.367   7.172 -0.0772  0.0186  0.2564
  932MOL0     C25700  10.752   2.397   7.069  0.4433  0.4416 -0.7411
  932MOL0     C25701  10.754   2.542   7.013 -0.3167  0.8939  0.2187
  932MOL0     N25702  10.846   2.554   6.905 -0.9719 -1.2954 -0.7712
  932MOL0     C25703  10.975   2.607   6.915  1.1436  1.0318  0.0641
  932MOL0     C25704  11.010   2.606   6.783  0.3728 -0.0512  0.0848
  932MOL0     C25705  11.133   2.668   6.721 -0.2016 -0.6074  0.4274
  932MOL0     C25706  11.155   2.634   6.575  0.5984  0.0545 -0.3456
  932MOL0     C25707  11.167   2.482   6.540 -0.0925  1.5615 -0.3082
  932MOL0     C25708  11.298   2.432   6.599  0.1297  1.1488 -0.2095
  932MOL0     O25709  11.312   2.298   6.567  1.1609  0.7603 -0.7050
  932MOL0     C25710  11.315   2.192   6.659 -0.4839 -0.3703 -0.7203
  932MOL0     C25711  11.292   2.194   6.797 -1.1976 -0.2272  0.5822
  932MOL0     C25712  11.316   2.083   6.883 -0.1458  0.7353  0.0205
  932MOL0     C25713  11.276   2.094   7.029 -0.4745 -0.1973 -0.0918
  932MOL0     C25714  11.362   1.961   6.814 -0.3293  0.5106 -0.6091
  932MOL0     C25715  11.392   1.834   6.881 -0.1270 -0.2602 -0.4918
  932MOL0     O25716  11.422   1.726   6.802 -0.4647  0.2940  0.2479
  932MOL0     C25717  11.458   1.612   6.876 -0.1136 -0.7173  0.2222
  932MOL0     C25718  11.377   1.506   6.856  0.0169 -0.8200 -0.7884
  932MOL0     C25719  11.408   1.384   6.917  0.3929  0.1844 -0.1082
  932MOL0     C25720  11.513   1.379   7.010  0.6100 -0.1562  0.1495
  932MOL0     O25721  11.545   1.270   7.085  0.1733 -0.9535 -0.6522
  932MOL0     C25722  11.434   1.177   7.114  0.2083 -1.1386  0.1130
  932MOL0     C25723  11.489   1.090   7.234  0.4612 -0.9629 -0.8513
  932MOL0     C25724  11.608   1.010   7.213  0.1944 -0.1472 -0.0856
  932MOL0     C25725  11.666   0.934   7.335  0.0834 -0.6229  0.0509
  932MOL0     C25726  11.711   0.791   7.298  0.8449 -0.4488  0.2124
  932MOL0     C25727  11.700   0.691   7.419  0.7894  0.1199 -0.0250
  932MOL0     C25728  11.755   0.555   7.383  0.8601  0.1400 -1.2820
  932MOL0     C25729  11.751   0.452   7.488  0.5113  0.2124  0.2059
  932MOL0    Cl25730  11.692   0.300   7.441  0.0566  0.2658 -0.2544
  932MOL0     C25731  11.601   1.490   7.023 -0.0515 -0.1012  0.4393
  932MOL0     C25732  11.570   1.610   6.958  0.1063 -1.0210  0.1114
  932MOL0     O25733  11.363   1.832   7.000  0.4615  0.5642  0.9550
  932MOL0     C25734  11.386   1.964   6.677 -0.7106 -0.7033  0.1257
  932MOL0     C25735  11.356   2.079   6.604 -1.1600 -0.0772 -0.1712
  932MOL0     N25736  10.898   2.575   6.706 -0.1011  0.4464 -0.5376
  932MOL0     N25737  10.806   2.529   6.780 -0.8310 -0.1517  0.5948
  932MOL0     C25738  10.627   1.713   7.764  0.9317 -0.3142  0.0800
  932MOL0     C25739  10.692   1.608   7.833 -0.2579 -0.7657  0.2452
  932MOL0     C25740  11.044   1.349   7.981 -0.0188 -1.3044  0.7897
  932MOL0     C25741  11.165   1.377   8.045 -0.5187  0.0619  1.1063
  932MOL0     C25742  11.236   1.278   8.123 -0.1228 -0.3500  0.5182
  932MOL0     C25743  11.194   1.145   8.113 -0.8180 -0.2660 -0.8706
  932MOL0     O25744  11.264   1.041   8.180  0.4609 -0.0988 -0.5204
  932MOL0     C25745  11.258   0.903   8.125 -0.5341  0.3116 -0.0667
  932MOL0     C25746  11.331   0.807   8.221  0.0588 -0.5499  0.9092
  932MOL0     C25747  11.263   0.776   8.355 -0.0648  0.8593 -0.4274
  932MOL0     C25748  11.134   0.697   8.341 -0.3100  0.2173 -0.0414
  932MOL0     C25749  11.134   0.563   8.276  0.4558  0.1461 -0.4262
  932MOL0     C25750  11.146   0.462   8.216 -0.8519  0.4459  1.0030
  932MOL0     C25751  11.073   1.119   8.041  0.8174  0.1145  1.0541
  932MOL0     C25752  10.996   1.219   7.982  0.2489  0.3574  0.5941
  932MOL0     H25753  10.897   1.500   7.594  0.5598  0.4560  1.0896
  932MOL0     H25754  10.761   1.677   7.460 -3.7631 -0.3816 -1.4119
  932MOL0     H25755  10.433   1.890   7.663  1.0831 -1.6533  2.4436
  932MOL0     H25756  10.573   1.984   7.687 -2.7616 -0.4313  1.3791
  932MOL0     H25757  10.417   1.975   7.429 -0.2740 -0.9963  1.0273
  932MOL0     H25758  10.411   2.104   7.539 -2.0006 -1.4508 -0.4556
  932MOL0     H25759  10.662   2.124   7.517 -0.9276  1.4939  0.6056
  932MOL0     H25760  10.640   2.009   7.379 -2.0003 -0.8510 -0.6123
  932MOL0     H25761  10.465   2.164   7.281 -1.1378  0.4301  0.2232
  932MOL0     H25762  10.525   2.293   7.400 -1.3901 -1.6376  0.6150
  932MOL0     H25763  10.750   2.278   7.309 -2.1953  2.8270  0.6042
  932MOL0     H25764  10.697   2.158   7.182  3.4123  1.3956 -1.7761
  932MOL0     H25765  10.548   2.369   7.113 -0.1336 -0.5009  0.3191
  932MOL0     H25766  10.641   2.447   7.246  3.8335  1.6075 -1.2287
  932MOL0     H25767  10.852   2.385   7.111 -1.1595 -3.6167  2.6514
  932MOL0     H25768  10.746   2.325   6.986  5.3978 -0.6140 -0.5135
  932MOL0     H25769  10.770   2.615   7.093  0.6566  0.2473  0.6414
  932MOL0     H25770  10.655   2.564   6.974  1.4781  3.5580 -3.4685
  932MOL0     H25771  11.039   2.625   7.001  0.5846 -0.0542  0.7364
  932MOL0     H25772  11.120   2.776   6.727  0.2410 -0.5579  6.2351
  932MOL0     H25773  11.221   2.659   6.785  3.3127 -0.6079 -3.9614
  932MOL0     H25774  11.250   2.680   6.548  1.2609 -1.6592 -1.0855
  932MOL0     H25775  11.082   2.677   6.505  0.0818 -0.0326  0.1314
  932MOL0     H25776  11.168   2.458   6.434  0.7983  0.5585 -0.0838
  932MOL0     H25777  11.081   2.420   6.570  1.5642  0.8304  3.5530
  932MOL0     H25778  11.308   2.441   6.707  2.5907 -0.6067 -0.2194
  932MOL0     H25779  11.381   2.498   6.572  0.0087  1.3387 -0.1232
  932MOL0     H25780  11.248   2.278   6.849  0.2170 -0.1605  1.7443
  932MOL0     H25781  11.235   2.000   7.068 -1.2852  0.3930  0.5027
  932MOL0     H25782  11.363   2.121   7.089  0.2789 -1.0577 -0.7714
  932MOL0     H25783  11.195   2.163   7.055 -2.5440 -2.8531  0.9611
  932MOL0     H25784  11.293   1.516   6.787  0.2498  1.4391 -0.8278
  932MOL0     H25785  11.343   1.298   6.904 -2.0174  1.7977  0.5079
  932MOL0     H25786  11.346   1.234   7.147 -0.2503 -0.4266 -2.0967
  932MOL0     H25787  11.408   1.111   7.031  0.4873 -1.1650  0.0456
  932MOL0     H25788  11.516   1.153   7.319 -0.5929 -1.4913 -0.1074
  932MOL0     H25789  11.399   1.042   7.271 -2.3839  2.6733 -2.4321
  932MOL0     H25790  11.686   1.067   7.161 -0.1603  0.7575  0.3702
  932MOL0     H25791  11.574   0.932   7.143  1.9892 -0.5468 -0.5710
  932MOL0     H25792  11.750   0.988   7.379  1.6132 -0.2964 -3.0115
  932MOL0     H25793  11.588   0.927   7.411  1.0696 -1.0396  1.0386
  932MOL0     H25794  11.817   0.786   7.270  0.8699 -0.1097  0.2392
  932MOL0     H25795  11.644   0.745   7.226  0.9434 -0.6730  0.2645
  932MOL0     H25796  11.756   0.737   7.501 -1.3734  3.3329 -0.1668
  932MOL0     H25797  11.598   0.677   7.458  0.4200 -0.1243 -1.0573
  932MOL0     H25798  11.854   0.551   7.338  0.6063 -0.9704 -1.7770
  932MOL0     H25799  11.681   0.521   7.309 -0.4426  1.1756 -0.4971
  932MOL0     H25800  11.684   0.479   7.569 -3.0580 -0.5011 -2.2599
  932MOL0     H25801  11.851   0.439   7.529 -0.2135 -2.6166  1.2926
  932MOL0     H25802  11.685   1.497   7.091  0.2411  3.4510 -0.0917
  932MOL0     H25803  11.627   1.701   6.963  1.5834 -1.9702  1.6404
  932MOL0     H25804  11.427   1.879   6.623  1.8702  0.4687  0.1422
  932MOL0     H25805  11.374   2.071   6.497 -1.3495 -2.9874 -0.0574
  932MOL0     H25806  10.554   1.774   7.817 -0.3374 -1.6446 -0.0766
  932MOL0     H25807  10.666   1.612   7.938 -1.8054  2.0071 -0.1289
  932MOL0     H25808  11.201   1.479   8.049  0.6545 -0.1742 -1.3725
  932MOL0     H25809  11.326   1.294   8.182 -0.5382 -0.3953  1.1711
  932MOL0     H25810  11.156   0.867   8.107  0.0305  0.1552 -3.7654
  932MOL0     H25811  11.309   0.903   8.028  1.0630 -3.9544  0.5674
  932MOL0     H25812  11.423   0.864   8.240 -0.6331  0.8780  0.1769
  932MOL0     H25813  11.364   0.717   8.170  1.9910  0.1790  0.7515
  932MOL0     H25814  11.250   0.870   8.411 -1.7212  0.2540  0.2530
  932MOL0     H25815  11.337   0.725   8.418 -3.0384 -0.1846  2.4958
  932MOL0     H25816  11.066   0.755   8.278  2.4069  1.2756 -2.2075
  932MOL0     H25817  11.082   0.694   8.437  1.5475 -1.5053  1.0165
  932MOL0     H25818  11.170   0.363   8.184  0.6116  1.2820 -0.6274
  932MOL0     H25819  11.040   1.016   8.029 -0.1707  0.3726  1.4908
  932MOL0     H25820  10.896   1.202   7.944 -0.2080 -2.5881  2.7217
  933MOL0     O25821   5.474   1.247   9.901 -0.3920 -0.3990 -0.0827
  933MOL0     C25822   5.432   1.239  10.012  1.3090  0.3874  0.3910
  933MOL0     O25823   5.338   1.155  10.054 -0.1187  0.3692  0.2163
  933MOL0     C25824   5.266   1.085   9.958 -0.0119  0.6415  0.0523
  933MOL0     C25825   5.333   0.987   9.879 -1.3841 -0.0818  0.9668
  933MOL0     C25826   5.265   0.915   9.784 -0.2563 -0.0886  0.0163
  933MOL0     C25827   5.124   0.947   9.765  0.1326  1.6169 -0.6298
  933MOL0     O25828   5.047   0.906   9.656  0.2931  0.4203 -0.3469
  933MOL0     C25829   5.126   0.891   9.534 -0.5930  0.2768 -0.2264
  933MOL0     C25830   5.033   0.901   9.411 -0.9950 -0.5046 -0.1593
  933MOL0     C25831   5.023   0.792   9.304  0.1602 -0.7156 -0.1377
  933MOL0     C25832   5.139   0.687   9.299 -0.0098 -0.2256 -0.2856
  933MOL0     C25833   5.276   0.745   9.277 -0.0359  0.0059  0.8127
  933MOL0     C25834   5.293   0.864   9.179  0.2641  0.9774  1.2468
  933MOL0     C25835   5.434   0.858   9.108  0.8481  0.5786  0.8852
  933MOL0     C25836   5.476   1.005   9.058  0.8358  0.0712 -0.7963
  933MOL0     N25837   5.534   0.998   8.928 -0.4576 -0.1068 -0.2175
  933MOL0     C25838   5.467   0.997   8.806  0.6113 -0.3760  0.1126
  933MOL0     C25839   5.561   0.995   8.706  0.3775 -0.3033 -0.2064
  933MOL0     C25840   5.543   0.956   8.566 -0.2913  0.2514  0.4045
  933MOL0     C25841   5.522   1.078   8.481  0.0779 -0.8463 -0.4958
  933MOL0     C25842   5.624   1.203   8.506 -0.1240 -0.2104 -0.0831
  933MOL0     C25843   5.767   1.171   8.458 -0.0544 -0.8296 -0.8160
  933MOL0     O25844   5.760   1.113   8.330  0.1849 -0.2524  0.6106
  933MOL0     C25845   5.753   1.218   8.235  0.4822  0.9292 -0.2877
  933MOL0     C25846   5.871   1.280   8.200 -0.5638 -1.1450  0.0837
  933MOL0     C25847   5.879   1.386   8.113  0.8690 -0.5711 -0.2250
  933MOL0     C25848   6.005   1.474   8.119  0.3940  0.4559 -0.0920
  933MOL0     C25849   5.762   1.409   8.033 -0.0151 -0.6336 -0.5647
  933MOL0     C25850   5.756   1.510   7.921 -1.0977 -1.1871  0.5561
  933MOL0     O25851   5.645   1.499   7.843 -0.5853  0.7536  0.1527
  933MOL0     C25852   5.600   1.587   7.750 -0.2024  0.3650  0.3306
  933MOL0     C25853   5.523   1.550   7.639  0.2332 -0.4649  0.4691
  933MOL0     C25854   5.485   1.639   7.534 -0.4340  0.0456 -1.1169
  933MOL0     C25855   5.525   1.778   7.549 -0.3086 -0.4348  0.2736
  933MOL0     O25856   5.495   1.868   7.448 -0.4619  0.0176  0.5210
  933MOL0     C25857   5.600   1.966   7.428 -0.4058 -0.1219  0.3626
  933MOL0     C25858   5.564   2.049   7.306  0.1440 -0.3272 -0.1409
  933MOL0     C25859   5.678   2.150   7.288 -0.4238  0.1748 -0.0473
  933MOL0     C25860   5.651   2.270   7.198 -1.2100 -0.5980  0.7549
  933MOL0     C25861   5.786   2.335   7.159  0.1536  0.4133 -0.1829
  933MOL0     C25862   5.755   2.430   7.049 -0.0693 -0.9751  1.0061
  933MOL0     C25863   5.893   2.502   7.000 -1.1927 -0.1629  0.6851
  933MOL0     C25864   5.869   2.614   6.896 -0.0844  0.3701  0.0892
  933MOL0    Cl25865   5.749   2.738   6.966 -0.3612  0.3471  0.1169
  933MOL0     C25866   5.588   1.820   7.666  0.5630 -0.2933 -0.4090
  933MOL0     C25867   5.624   1.727   7.759 -0.5575  0.7198  0.1440
  933MOL0     O25868   5.838   1.606   7.921 -0.7402 -0.2517  0.3162
  933MOL0     C25869   5.648   1.337   8.060  0.5468  0.2588 -0.5048
  933MOL0     C25870   5.638   1.247   8.158 -0.5296 -0.5875  0.1957
  933MOL0     N25871   5.681   1.015   8.770 -0.1351  0.2324 -0.5675
  933MOL0     N25872   5.660   1.016   8.904 -0.0302 -0.1302  0.5372
  933MOL0     C25873   5.055   1.036   9.847 -0.0231 -0.4306 -0.2691
  933MOL0     C25874   5.127   1.098   9.943 -0.7934 -0.6197 -0.8444
  933MOL0     C25875   5.494   1.319  10.118  0.3359  0.5950  0.2305
  933MOL0     C25876   5.612   1.394  10.083  0.2723  1.0065  0.5227
  933MOL0     C25877   5.689   1.455  10.178 -0.4237 -0.6761  0.4900
  933MOL0     C25878   5.645   1.480  10.311  0.3140  0.7646  0.2229
  933MOL0     O25879   5.703   1.564  10.401 -0.2736  0.1139  0.2950
  933MOL0     C25880   5.632   1.636  10.506 -0.6942  0.7231  0.1848
  933MOL0     C25881   5.543   1.734  10.439 -0.4840  0.8807 -0.1671
  933MOL0     C25882   5.426   1.769  10.518 -0.0330 -0.9123  0.4262
  933MOL0     C25883   5.468   1.820  10.658 -0.7305  1.0347  0.0891
  933MOL0     C25884   5.348   1.833  10.734  0.2072  0.7566  0.0353
  933MOL0     C25885   5.250   1.865  10.797  0.6588  0.6803 -0.1166
  933MOL0     C25886   5.526   1.403  10.347 -0.3885  0.7617  0.7716
  933MOL0     C25887   5.453   1.332  10.252  0.0893  0.2102 -0.4688
  933MOL0     H25888   5.438   0.969   9.897 -0.0005  2.5864 -3.1605
  933MOL0     H25889   5.309   0.851   9.709 -3.6357 -3.2150  0.4489
  933MOL0     H25890   5.194   0.975   9.521 -0.3141  0.4806  2.1086
  933MOL0     H25891   5.185   0.798   9.535  0.1623  0.4830  4.8986
  933MOL0     H25892   4.926   0.916   9.427 -1.9349 -1.5647 -4.3678
  933MOL0     H25893   5.065   0.993   9.362  1.1391  0.8020  3.2836
  933MOL0     H25894   4.927   0.741   9.318 -1.2914  1.7421 -0.4818
  933MOL0     H25895   5.011   0.842   9.208 -1.6687 -0.3319  0.2399
  933MOL0     H25896   5.128   0.631   9.393 -1.0410 -0.6145 -0.6174
  933MOL0     H25897   5.116   0.616   9.219 -0.4497  0.3047 -0.6390
  933MOL0     H25898   5.319   0.773   9.374 -2.0085  4.6183  0.6363
  933MOL0     H25899   5.344   0.667   9.243  0.1267  1.5792 -2.9626
  933MOL0     H25900   5.225   0.871   9.093  1.8418  0.9919 -0.0620
  933MOL0     H25901   5.281   0.952   9.243 -2.5047 -0.2962  2.6291
  933MOL0     H25902   5.506   0.821   9.181  1.6312  0.7328  0.2082
  933MOL0     H25903   5.421   0.789   9.024 -1.9902  1.1046  0.8011
  933MOL0     H25904   5.548   1.043   9.132 -0.4936 -2.5380  2.0971
  933MOL0     H25905   5.391   1.073   9.058  0.3113 -0.5068  1.2742
  933MOL0     H25906   5.360   0.981   8.806  0.5072  0.1954 -1.4373
  933MOL0     H25907   5.628   0.898   8.528 -0.3595 -0.4510  1.2785
  933MOL0     H25908   5.453   0.895   8.556  0.1231 -0.4158  0.6910
  933MOL0     H25909   5.419   1.110   8.503  0.6430  0.3604  0.5208
  933MOL0     H25910   5.529   1.043   8.377  0.5530 -0.3787 -0.6237
  933MOL0     H25911   5.613   1.259   8.600  1.2031  1.4323 -0.8647
  933MOL0     H25912   5.591   1.276   8.432 -0.1036 -1.6622 -1.5902
  933MOL0     H25913   5.819   1.106   8.530  1.3372  0.6093 -0.4722
  933MOL0     H25914   5.810   1.270   8.471 -2.1910  0.0918 -0.3717
  933MOL0     H25915   5.971   1.255   8.235  0.3870  0.5403 -1.2962
  933MOL0     H25916   6.046   1.430   8.027  0.6874 -4.0098  1.9378
  933MOL0     H25917   5.982   1.579   8.102 -0.0846  0.1109 -1.7956
  933MOL0     H25918   6.062   1.447   8.208  0.4400 -1.3455 -0.6163
  933MOL0     H25919   5.509   1.443   7.626  2.8723 -0.6738 -1.6166
  933MOL0     H25920   5.425   1.622   7.445 -0.9149 -1.3238 -0.5583
  933MOL0     H25921   5.600   2.032   7.515 -0.6404  0.3730 -0.0097
  933MOL0     H25922   5.700   1.923   7.420  0.2371  1.3466  0.1630
  933MOL0     H25923   5.537   1.988   7.219 -0.5897 -1.3589  0.7697
  933MOL0     H25924   5.479   2.115   7.325 -0.0180  0.2606 -2.6256
  933MOL0     H25925   5.761   2.091   7.247  0.4125  2.3384 -1.6698
  933MOL0     H25926   5.690   2.183   7.392 -2.6381 -4.2801  1.9012
  933MOL0     H25927   5.598   2.225   7.113 -0.6417  0.8554 -0.4195
  933MOL0     H25928   5.586   2.348   7.236  1.4101  1.9164  0.4216
  933MOL0     H25929   5.851   2.259   7.115 -2.1958 -1.2258 -1.0262
  933MOL0     H25930   5.843   2.385   7.238 -0.2625  1.7075 -0.6791
  933MOL0     H25931   5.711   2.377   6.965 -2.1919  2.0017  0.0927
  933MOL0     H25932   5.688   2.508   7.086  1.2163 -0.2946  2.0117
  933MOL0     H25933   5.967   2.437   6.952  0.7625  2.0700  0.4553
  933MOL0     H25934   5.943   2.552   7.083 -1.3846  2.6712 -0.7866
  933MOL0     H25935   5.832   2.571   6.802  1.8316  0.0149 -0.5340
  933MOL0     H25936   5.957   2.678   6.888 -0.6879  1.7716  3.1887
  933MOL0     H25937   5.613   1.925   7.681 -2.9554  0.9266 -1.9451
  933MOL0     H25938   5.666   1.760   7.854  1.1386  4.0090 -1.5775
  933MOL0     H25939   5.559   1.347   8.000 -1.9560 -1.8119  2.5460
  933MOL0     H25940   5.539   1.206   8.172 -1.1666  1.2071  1.3452
  933MOL0     H25941   4.951   1.052   9.821  0.4612  1.5687 -1.1494
  933MOL0     H25942   5.081   1.174  10.006  1.9607 -1.0998  1.9859
  933MOL0     H25943   5.642   1.398   9.979 -0.2090 -3.1881  0.0149
  933MOL0     H25944   5.781   1.501  10.146  0.7083 -0.3586  3.7746
  933MOL0     H25945   5.575   1.558  10.557  1.0753  1.0102  2.7455
  933MOL0     H25946   5.698   1.688  10.575  0.4221  2.3201 -1.9570
  933MOL0     H25947   5.516   1.696  10.341  1.3946 -0.6643 -0.1394
  933MOL0     H25948   5.596   1.827  10.414  0.1752  0.0353 -2.0995
  933MOL0     H25949   5.352   1.690  10.534 -2.6590  1.9943  4.1898
  933MOL0     H25950   5.370   1.844  10.462 -0.6965 -3.4741 -2.6504
  933MOL0     H25951   5.526   1.910  10.636 -1.1919  1.2060 -0.4488
  933MOL0     H25952   5.528   1.750  10.718  0.5898  1.2480 -0.9421
  933MOL0     H25953   5.160   1.876  10.855  0.2661 -1.9086 -0.1452
  933MOL0     H25954   5.498   1.412  10.451  0.0102 -0.1231  0.9638
  933MOL0     H25955   5.364   1.276  10.279  2.1607 -2.4447  1.2938
  934MOL0     O25956   7.052   6.314   2.065  0.0036  0.2371 -0.1370
  934MOL0     C25957   7.039   6.193   2.069  0.3168 -0.5523 -0.0127
  934MOL0     O25958   6.957   6.120   1.991  0.7710 -0.4253  0.6546
  934MOL0     C25959   6.869   6.166   1.892 -0.3965 -0.3631 -0.1831
  934MOL0     C25960   6.900   6.275   1.809 -1.2752  0.6685  0.2489
  934MOL0     C25961   6.830   6.285   1.690  0.1183 -0.2621 -0.5763
  934MOL0     C25962   6.717   6.203   1.665 -0.2223 -0.0384  0.2692
  934MOL0     O25963   6.638   6.227   1.552  1.3130 -0.4928 -0.1492
  934MOL0     C25964   6.492   6.246   1.574  0.4598  0.6171  0.8636
  934MOL0     C25965   6.402   6.209   1.453 -0.5461 -0.1139 -1.5262
  934MOL0     C25966   6.408   6.061   1.405  0.3012 -0.5358 -0.3846
  934MOL0     C25967   6.288   6.022   1.327  0.2902 -1.2578  0.3860
  934MOL0     C25968   6.308   5.896   1.244 -0.2863 -0.3675  0.0914
  934MOL0     C25969   6.338   5.768   1.326 -0.2511  0.3132 -1.0829
  934MOL0     C25970   6.240   5.648   1.289 -0.4954 -0.4923 -0.4879
  934MOL0     C25971   6.297   5.519   1.356  0.4818 -0.3827 -0.2894
  934MOL0     N25972   6.348   5.527   1.484 -0.0498  0.2306 -0.4154
  934MOL0     C25973   6.471   5.490   1.523 -0.9879 -0.2391 -0.4869
  934MOL0     C25974   6.461   5.469   1.655 -0.4049  0.0511 -0.5877
  934MOL0     C25975   6.577   5.452   1.752  0.8619  0.1846  0.1695
  934MOL0     C25976   6.554   5.303   1.800  0.0425 -0.1612 -0.2562
  934MOL0     C25977   6.684   5.267   1.889  0.9591 -0.2410  0.2578
  934MOL0     C25978   6.693   5.117   1.925  0.3133 -0.0314  0.5015
  934MOL0     O25979   6.723   5.043   1.804 -0.2592  0.1150  0.0241
  934MOL0     C25980   6.643   4.939   1.782 -0.7627  0.8223  0.0338
  934MOL0     C25981   6.588   4.928   1.659 -0.4784  0.8703 -0.7412
  934MOL0     C25982   6.496   4.823   1.632  0.0032 -0.5274 -1.1681
  934MOL0     C25983   6.426   4.826   1.498 -0.1046  0.1724 -0.0864
  934MOL0     C25984   6.461   4.725   1.732 -0.7946  0.1176  0.6579
  934MOL0     C25985   6.367   4.611   1.723  0.2144  0.0100 -1.3741
  934MOL0     O25986   6.361   4.518   1.820 -0.5059  0.6525  0.2158
  934MOL0     C25987   6.246   4.448   1.835 -0.6171  0.2455  0.1574
  934MOL0     C25988   6.132   4.486   1.916 -0.0091  0.3569 -0.5651
  934MOL0     C25989   6.025   4.402   1.927  0.0002 -0.2872 -0.2408
  934MOL0     C25990   6.017   4.284   1.844  0.1939 -0.3585  0.3088
  934MOL0     O25991   5.912   4.204   1.840  0.1969  0.0810  0.0335
  934MOL0     C25992   5.783   4.260   1.830 -0.4776  0.0703 -0.1332
  934MOL0     C25993   5.701   4.179   1.722 -0.3404  0.6682 -0.4120
  934MOL0     C25994   5.564   4.242   1.697 -0.4657  0.7591  0.3491
  934MOL0     C25995   5.472   4.177   1.799 -0.5732 -0.5669 -0.8832
  934MOL0     C25996   5.340   4.243   1.793  0.1926  0.0069 -0.1072
  934MOL0     C25997   5.258   4.198   1.916 -0.0726  0.6576  1.3241
  934MOL0     C25998   5.133   4.285   1.916 -0.5416 -0.6424 -0.2413
  934MOL0     C25999   5.045   4.247   2.029 -0.3854 -1.0715  0.3415
  934MOL0    Cl26000   4.977   4.094   2.031  0.3534  0.0395  0.1485
  934MOL0     C26001   6.114   4.258   1.749  0.1754  0.5229 -0.1475
  934MOL0     C26002   6.232   4.331   1.748 -0.2989 -1.0316 -0.0772
  934MOL0     O26003   6.309   4.610   1.621  0.1456  0.7450  0.5235
  934MOL0     C26004   6.530   4.741   1.849  0.4532  0.2296 -0.2487
  934MOL0     C26005   6.627   4.837   1.867 -1.1174 -0.8945  0.2982
  934MOL0     N26006   6.328   5.494   1.703  0.4911 -0.3001  0.5289
  934MOL0     N26007   6.266   5.538   1.598 -0.3086  0.1362 -0.1558
  934MOL0     C26008   6.682   6.113   1.762  0.4253  0.0375  0.4943
  934MOL0     C26009   6.760   6.090   1.871  0.4339  0.6970  0.2496
  934MOL0     C26010   7.133   6.114   2.148  0.2326 -0.6199  0.6122
  934MOL0     C26011   7.123   5.977   2.178 -1.0538 -0.4592  1.0597
  934MOL0     C26012   7.206   5.907   2.274 -0.3646 -0.1118 -0.1657
  934MOL0     C26013   7.297   5.980   2.343 -0.7828  0.7270 -0.2087
  934MOL0     O26014   7.382   5.928   2.437 -0.6668 -0.6273  1.0145
  934MOL0     C26015   7.380   5.787   2.450  0.4044  1.0764 -0.0113
  934MOL0     C26016   7.458   5.753   2.583  0.3389 -0.3203  0.4920
  934MOL0     C26017   7.441   5.613   2.626  0.6400  0.1545  0.0289
  934MOL0     C26018   7.433   5.601   2.784  0.0293  0.7782 -0.9022
  934MOL0     C26019   7.311   5.548   2.852  0.3387  0.5867  0.0421
  934MOL0     C26020   7.200   5.508   2.891 -0.2929  0.0076 -0.0013
  934MOL0     C26021   7.307   6.119   2.322  0.3830 -1.2292 -0.1596
  934MOL0     C26022   7.232   6.176   2.217 -0.4053  0.2483  0.0383
  934MOL0     H26023   6.990   6.329   1.836  0.5079 -2.0476  0.1584
  934MOL0     H26024   6.867   6.368   1.630  0.7380  0.2342  0.4740
  934MOL0     H26025   6.462   6.185   1.660 -0.1985 -0.6424 -0.2262
  934MOL0     H26026   6.476   6.349   1.608 -2.6932  1.2191 -1.9303
  934MOL0     H26027   6.304   6.250   1.476  0.1618  2.5950 -2.9460
  934MOL0     H26028   6.442   6.268   1.370  1.9357 -0.2796 -0.5453
  934MOL0     H26029   6.500   6.062   1.345  0.6189 -2.5177  0.0018
  934MOL0     H26030   6.427   5.995   1.490 -2.0410 -0.2024  0.4639
  934MOL0     H26031   6.201   6.007   1.393  0.0919 -1.7631  0.0185
  934MOL0     H26032   6.259   6.105   1.263  2.8585  0.2415  1.0564
  934MOL0     H26033   6.220   5.884   1.180  0.0104 -1.4869 -0.1307
  934MOL0     H26034   6.390   5.910   1.173 -0.1252  2.5675  0.7410
  934MOL0     H26035   6.442   5.733   1.324 -0.6992 -1.0416 -2.3665
  934MOL0     H26036   6.317   5.793   1.430 -1.9796  0.7471 -1.5081
  934MOL0     H26037   6.137   5.677   1.313  0.0558  0.1736  1.3291
  934MOL0     H26038   6.240   5.632   1.181 -4.5227 -0.5181 -0.6594
  934MOL0     H26039   6.378   5.501   1.284 -0.2842  1.5905 -1.7292
  934MOL0     H26040   6.229   5.434   1.349 -2.0680  1.6162 -1.3533
  934MOL0     H26041   6.561   5.491   1.461 -0.4079 -2.8007  0.1759
  934MOL0     H26042   6.667   5.451   1.690  1.4596 -0.6486  1.0321
  934MOL0     H26043   6.583   5.532   1.826  1.0546  0.8694 -0.5644
  934MOL0     H26044   6.544   5.228   1.721  1.5047  0.3968 -1.0012
  934MOL0     H26045   6.464   5.297   1.861 -1.0098  1.6964 -1.5223
  934MOL0     H26046   6.680   5.316   1.987 -0.6049 -1.9577  1.1156
  934MOL0     H26047   6.774   5.307   1.841 -0.1709  0.1126 -1.7095
  934MOL0     H26048   6.601   5.083   1.973 -2.2741  0.6455 -3.5028
  934MOL0     H26049   6.781   5.104   1.989  0.3027 -2.6903  0.0996
  934MOL0     H26050   6.605   5.004   1.583  0.2592 -1.8334 -3.4580
  934MOL0     H26051   6.464   4.913   1.443  0.9639 -0.0035  0.3438
  934MOL0     H26052   6.455   4.738   1.441 -1.0438 -0.1050 -0.1447
  934MOL0     H26053   6.318   4.832   1.512 -0.3317  1.3218 -1.9118
  934MOL0     H26054   6.147   4.566   1.988 -0.2660 -0.1885  0.1047
  934MOL0     H26055   5.942   4.420   1.995 -0.1355  0.3045 -0.5566
  934MOL0     H26056   5.728   4.250   1.924 -1.3420 -0.4819 -0.6869
  934MOL0     H26057   5.781   4.368   1.812  0.1627  0.9624  4.0552
  934MOL0     H26058   5.756   4.176   1.628  1.2439 -3.8719  0.3924
  934MOL0     H26059   5.692   4.074   1.753  2.0010  0.1277 -1.3978
  934MOL0     H26060   5.519   4.201   1.606 -3.1493  0.3796  1.7490
  934MOL0     H26061   5.570   4.351   1.699  2.9748  0.7473 -1.4879
  934MOL0     H26062   5.470   4.069   1.779 -0.6688 -0.9768  1.0958
  934MOL0     H26063   5.512   4.176   1.901 -0.6428 -2.5933 -0.8295
  934MOL0     H26064   5.287   4.211   1.702 -0.2037 -1.6185  0.6629
  934MOL0     H26065   5.359   4.351   1.789 -0.8478  0.3038  1.7873
  934MOL0     H26066   5.236   4.091   1.912  1.8963  0.1486 -3.5961
  934MOL0     H26067   5.317   4.213   2.007  2.6289 -4.7090  0.8272
  934MOL0     H26068   5.069   4.275   1.828 -1.5133  2.0068  0.0704
  934MOL0     H26069   5.142   4.392   1.935 -1.9221  0.0318 -2.9606
  934MOL0     H26070   4.966   4.323   2.030  1.2285  0.6838  0.1391
  934MOL0     H26071   5.089   4.252   2.129  3.2864 -1.2011 -1.1060
  934MOL0     H26072   6.109   4.178   1.676  4.0992 -0.4402  0.4140
  934MOL0     H26073   6.305   4.305   1.671 -2.4619 -0.9014 -2.3090
  934MOL0     H26074   6.507   4.681   1.937 -2.5488 -1.3353 -1.9391
  934MOL0     H26075   6.699   4.828   1.948 -0.3723 -0.6586 -0.3375
  934MOL0     H26076   6.600   6.041   1.758  1.1479 -0.7677 -0.2119
  934MOL0     H26077   6.743   5.997   1.925  0.3353 -0.6874 -2.0256
  934MOL0     H26078   7.048   5.926   2.118 -2.3928  3.0457 -0.5031
  934MOL0     H26079   7.201   5.800   2.255 -1.0576  0.1680 -1.7192
  934MOL0     H26080   7.276   5.758   2.467 -1.6348  6.8816 -0.5163
  934MOL0     H26081   7.419   5.729   2.366 -1.3091 -0.9640  0.5039
  934MOL0     H26082   7.431   5.821   2.665 -1.0549  1.1095 -1.0789
  934MOL0     H26083   7.566   5.761   2.569  0.1848 -0.9941 -1.4270
  934MOL0     H26084   7.521   5.551   2.584 -2.1373 -2.6970 -1.4888
  934MOL0     H26085   7.350   5.573   2.579  0.9788 -0.2867 -0.2641
  934MOL0     H26086   7.451   5.693   2.842 -4.0557  1.2221 -0.0076
  934MOL0     H26087   7.516   5.533   2.802 -0.2466  0.1659 -1.8911
  934MOL0     H26088   7.112   5.464   2.934  0.2791 -0.7273  0.4613
  934MOL0     H26089   7.374   6.185   2.376 -1.1660  1.6522 -1.4903
  934MOL0     H26090   7.261   6.280   2.202  1.9921 -0.4480 -0.4425
  935MOL0     O26091   2.435   7.187   0.223 -0.1584  0.8288  0.1992
  935MOL0     C26092   2.407   7.269   0.302 -0.2270 -0.3429 -0.1316
  935MOL0     O26093   2.307   7.365   0.278  0.5485 -0.2337 -0.0193
  935MOL0     C26094   2.236   7.364   0.161 -0.5029  1.4158 -1.0225
  935MOL0     C26095   2.207   7.494   0.118  0.5459  0.0641  0.2715
  935MOL0     C26096   2.140   7.511  -0.010  0.1706 -0.3479  1.2276
  935MOL0     C26097   2.098   7.406  -0.093 -0.3205 -0.5538 -0.0449
  935MOL0     O26098   2.031   7.421  -0.215 -0.0594  0.3189  0.5478
  935MOL0     C26099   2.028   7.548  -0.269 -0.8560 -0.3913  0.4066
  935MOL0     C26100   1.944   7.554  -0.395  0.8633 -0.8241 -0.8467
  935MOL0     C26101   1.999   7.496  -0.526 -0.4920  0.5091 -0.2735
  935MOL0     C26102   1.896   7.497  -0.637 -0.4220  0.8572  0.6821
  935MOL0     C26103   1.953   7.409  -0.744 -0.3783 -0.3771 -0.4590
  935MOL0     C26104   1.863   7.405  -0.864  0.3567 -0.4261  0.5751
  935MOL0     C26105   1.883   7.268  -0.940  0.0942  0.0776  0.6995
  935MOL0     C26106   1.807   7.261  -1.071  0.8131  0.4417 -0.1942
  935MOL0     N26107   1.907   7.295  -1.166 -0.0485  0.3226 -0.0356
  935MOL0     C26108   2.002   7.216  -1.221  0.1999 -0.1446 -0.5589
  935MOL0     C26109   2.068   7.297  -1.307  0.6693 -0.1994 -0.1617
  935MOL0     C26110   2.179   7.240  -1.379  0.0578 -0.0330  0.9141
  935MOL0     C26111   2.243   7.319  -1.496 -0.3859 -0.7431  0.5852
  935MOL0     C26112   2.142   7.375  -1.597  0.4204  0.0969 -0.9064
  935MOL0     C26113   2.189   7.364  -1.738 -0.3303  0.3187 -0.6311
  935MOL0     O26114   2.082   7.401  -1.831 -0.2803 -0.2392  0.0188
  935MOL0     C26115   2.101   7.412  -1.965  1.3189 -0.4590  0.3333
  935MOL0     C26116   2.212   7.368  -2.035 -0.7483  0.5985 -0.4280
  935MOL0     C26117   2.222   7.361  -2.169  0.7371 -0.2124  0.6919
  935MOL0     C26118   2.341   7.308  -2.236 -0.9498  0.5309 -0.3019
  935MOL0     C26119   2.113   7.400  -2.246 -0.6038 -0.5045 -0.5213
  935MOL0     C26120   2.096   7.401  -2.397  0.0377 -0.4065  0.4340
  935MOL0     O26121   2.014   7.485  -2.463  0.5938  0.3701  0.5031
  935MOL0     C26122   1.946   7.423  -2.563 -0.4699  0.0114  0.4361
  935MOL0     C26123   1.815   7.383  -2.539  0.8085  0.3179  0.1319
  935MOL0     C26124   1.740   7.337  -2.643  0.7850  0.2906 -0.2517
  935MOL0     C26125   1.787   7.328  -2.772  1.0699 -0.4115 -0.1725
  935MOL0     O26126   1.702   7.268  -2.861 -0.3604  0.4994  0.1382
  935MOL0     C26127   1.714   7.328  -2.988  0.4529  0.7828  0.2382
  935MOL0     C26128   1.590   7.303  -3.075 -0.1987  0.4674  0.6691
  935MOL0     C26129   1.585   7.378  -3.216 -0.3317 -0.0105 -0.3446
  935MOL0     C26130   1.585   7.537  -3.216 -0.0330  0.2071 -0.5228
  935MOL0     C26131   1.592   7.587  -3.363  0.2650 -0.1747  1.3109
  935MOL0     C26132   1.624   7.737  -3.370 -0.3933  0.2740 -0.9305
  935MOL0     C26133   1.505   7.817  -3.313 -0.1319  1.1233  0.4029
  935MOL0     C26134   1.503   7.963  -3.354 -0.0537  0.9181  0.3358
  935MOL0    Cl26135   1.339   8.023  -3.310 -0.1586 -0.3804 -0.1460
  935MOL0     C26136   1.918   7.362  -2.795 -0.2965  0.5567  0.4103
  935MOL0     C26137   2.000   7.415  -2.694  0.3121 -0.4091  1.1557
  935MOL0     O26138   2.162   7.316  -2.449 -0.2551 -0.3221  0.3190
  935MOL0     C26139   2.005   7.448  -2.178  0.3000 -0.4274 -0.1684
  935MOL0     C26140   1.991   7.451  -2.046 -0.2915  0.0470 -0.7841
  935MOL0     N26141   2.003   7.419  -1.315 -0.1263 -0.2608 -0.4171
  935MOL0     N26142   1.910   7.419  -1.227  1.0264  0.1480  0.5438
  935MOL0     C26143   2.125   7.279  -0.048 -0.2173  0.0763  0.4066
  935MOL0     C26144   2.203   7.258   0.064  0.4983 -0.3942 -0.2836
  935MOL0     C26145   2.473   7.260   0.437 -0.5786 -0.6705 -0.8606
  935MOL0     C26146   2.581   7.177   0.467 -0.4271 -0.1213  0.0915
  935MOL0     C26147   2.624   7.166   0.600 -0.3042  0.1780 -0.1321
  935MOL0     C26148   2.563   7.245   0.698  0.1277 -0.2503 -0.3490
  935MOL0     O26149   2.605   7.235   0.835 -0.1715 -0.2961  0.0164
  935MOL0     C26150   2.643   7.109   0.897  0.4320  1.0407 -0.0512
  935MOL0     C26151   2.601   7.101   1.046  0.4187 -0.1313  0.8119
  935MOL0     C26152   2.538   6.964   1.066 -0.0926  1.0411 -0.3416
  935MOL0     C26153   2.531   6.922   1.208  0.5177 -0.0193  0.1152
  935MOL0     C26154   2.660   6.928   1.278  1.3418 -0.4792  1.4933
  935MOL0     C26155   2.776   6.923   1.322  0.4307 -0.0823  0.6301
  935MOL0     C26156   2.453   7.329   0.666 -0.3667  0.0897  0.7671
  935MOL0     C26157   2.411   7.338   0.538  0.0365  0.5483 -0.3489
  935MOL0     H26158   2.243   7.582   0.171  0.1871 -0.1895  0.9447
  935MOL0     H26159   2.123   7.618  -0.018  4.3828  0.4239  0.1395
  935MOL0     H26160   1.985   7.619  -0.197  0.9982 -0.5341  1.7586
  935MOL0     H26161   2.126   7.586  -0.298 -0.2424 -3.2178 -1.5957
  935MOL0     H26162   1.851   7.501  -0.370  0.9874 -0.7632 -0.2432
  935MOL0     H26163   1.914   7.659  -0.407 -0.4586 -0.7565  2.1743
  935MOL0     H26164   2.092   7.546  -0.554 -1.0674  4.5359  3.7652
  935MOL0     H26165   2.027   7.391  -0.518  0.0051  0.3753 -2.9066
  935MOL0     H26166   1.807   7.450  -0.593 -0.0317 -2.4687 -1.7133
  935MOL0     H26167   1.869   7.594  -0.679 -1.5675  2.5639  4.7790
  935MOL0     H26168   2.053   7.447  -0.766  1.6832 -3.5670  2.2982
  935MOL0     H26169   1.966   7.310  -0.697  0.0167  0.6566  1.7431
  935MOL0     H26170   1.760   7.403  -0.828  0.6778 -0.9635  1.4897
  935MOL0     H26171   1.863   7.486  -0.937 -0.3798  0.3932  1.4587
  935MOL0     H26172   1.985   7.229  -0.939 -1.0036 -3.2873 -1.2791
  935MOL0     H26173   1.845   7.182  -0.884 -0.2224 -0.4429 -0.2855
  935MOL0     H26174   1.727   7.334  -1.083 -0.1399  0.1019  3.1497
  935MOL0     H26175   1.778   7.157  -1.082  0.8895  0.3578  0.3814
  935MOL0     H26176   2.024   7.113  -1.195  0.3734  0.2542  0.9841
  935MOL0     H26177   2.260   7.224  -1.307  3.2565 -1.1638 -2.6232
  935MOL0     H26178   2.147   7.140  -1.411 -1.9849  1.2773 -1.5043
  935MOL0     H26179   2.317   7.256  -1.547 -1.9543 -1.7691 -0.5330
  935MOL0     H26180   2.303   7.403  -1.460  0.4463 -1.0024 -0.1518
  935MOL0     H26181   2.128   7.483  -1.586 -3.9454 -0.5774  3.1142
  935MOL0     H26182   2.048   7.322  -1.584  0.2542  1.0545  3.0398
  935MOL0     H26183   2.238   7.269  -1.758 -0.8997 -0.0637 -0.2445
  935MOL0     H26184   2.270   7.437  -1.748  0.2027 -0.1718 -0.0248
  935MOL0     H26185   2.293   7.322  -1.979  0.8500  2.3821 -1.1790
  935MOL0     H26186   2.379   7.387  -2.301 -1.0064  1.2022  0.4661
  935MOL0     H26187   2.416   7.267  -2.168  3.1376  0.3091 -4.4574
  935MOL0     H26188   2.309   7.219  -2.292 -0.0581  1.1096 -1.7824
  935MOL0     H26189   1.761   7.396  -2.446  1.2490 -1.6507  0.6888
  935MOL0     H26190   1.642   7.295  -2.622  2.8299 -3.7322  2.6125
  935MOL0     H26191   1.720   7.435  -2.968 -1.4428  0.3860  3.5627
  935MOL0     H26192   1.798   7.288  -3.046 -0.6224 -2.7713  0.8687
  935MOL0     H26193   1.577   7.194  -3.078 -1.6621  0.6317 -1.0183
  935MOL0     H26194   1.506   7.337  -3.015 -0.3549  0.5414  0.4118
  935MOL0     H26195   1.494   7.342  -3.264 -0.3388 -1.6833  0.8183
  935MOL0     H26196   1.663   7.346  -3.286 -1.2870  0.4693 -1.6554
  935MOL0     H26197   1.492   7.566  -3.165 -0.1498  1.2990 -1.3326
  935MOL0     H26198   1.672   7.572  -3.158  0.4458 -0.2335 -0.9703
  935MOL0     H26199   1.498   7.570  -3.416  2.3342 -0.3386 -2.7308
  935MOL0     H26200   1.675   7.543  -3.420 -0.0660  1.8159 -0.8754
  935MOL0     H26201   1.716   7.758  -3.315 -1.5425 -1.8240  2.1216
  935MOL0     H26202   1.633   7.762  -3.476  0.4257  1.0277 -0.6889
  935MOL0     H26203   1.508   7.803  -3.205  2.8347 -1.9200  0.0681
  935MOL0     H26204   1.411   7.770  -3.343 -0.2820  2.4612 -1.3912
  935MOL0     H26205   1.523   7.963  -3.461 -0.7518  1.3060  0.2006
  935MOL0     H26206   1.582   8.011  -3.296 -1.3277  2.0764  1.1873
  935MOL0     H26207   1.970   7.346  -2.889  2.3457 -5.6319  2.4102
  935MOL0     H26208   2.103   7.444  -2.714  0.6069 -1.2795  1.3944
  935MOL0     H26209   1.911   7.476  -2.226  1.1235  1.6552 -0.6657
  935MOL0     H26210   1.905   7.492  -1.995 -0.8685 -4.0365  2.0215
  935MOL0     H26211   2.107   7.193  -0.111  0.2668 -0.0018  0.3732
  935MOL0     H26212   2.245   7.160   0.087 -0.0630 -1.3308 -2.9551
  935MOL0     H26213   2.625   7.116   0.389  1.0602  0.7728  0.1914
  935MOL0     H26214   2.698   7.091   0.624 -1.3249 -1.1479 -0.9797
  935MOL0     H26215   2.592   7.029   0.842  1.1504 -1.3387  2.5374
  935MOL0     H26216   2.752   7.104   0.885  0.2591 -2.2145 -1.4930
  935MOL0     H26217   2.530   7.177   1.082  1.5735  0.2550  2.4269
  935MOL0     H26218   2.690   7.122   1.106  0.6035  0.4536  0.3454
  935MOL0     H26219   2.602   6.881   1.033 -1.9936 -0.8718  0.5107
  935MOL0     H26220   2.439   6.957   1.019 -1.1220  0.2461  1.8042
  935MOL0     H26221   2.495   6.819   1.219 -0.7094  0.0278 -2.7208
  935MOL0     H26222   2.461   6.993   1.252 -0.1274 -0.2802 -0.4737
  935MOL0     H26223   2.877   6.925   1.356  0.9177 -0.9135 -0.6871
  935MOL0     H26224   2.400   7.385   0.742 -0.5820  0.7145  0.1627
  935MOL0     H26225   2.315   7.388   0.524 -0.4648 -0.7276 -1.8656
  936MOL0     O26226   1.284   6.376   6.677  0.9713 -0.0820 -0.2972
  936MOL0     C26227   1.244   6.491   6.683  0.5238 -0.5236 -0.8805
  936MOL0     O26228   1.300   6.609   6.635 -0.2270  0.6485 -0.5286
  936MOL0     C26229   1.420   6.581   6.561  1.8752 -1.0371  0.9529
  936MOL0     C26230   1.541   6.641   6.586  0.3744  0.8768 -0.8583
  936MOL0     C26231   1.655   6.588   6.521  0.0490  0.1805 -0.7558
  936MOL0     C26232   1.646   6.494   6.423 -0.1466  0.0624  0.6033
  936MOL0     O26233   1.772   6.450   6.380  0.0731 -1.2071 -0.4646
  936MOL0     C26234   1.787   6.411   6.244  0.1318  0.1023  0.1515
  936MOL0     C26235   1.904   6.321   6.224 -0.1884 -1.2906  0.2776
  936MOL0     C26236   2.027   6.394   6.290  0.5701  0.5560  0.1929
  936MOL0     C26237   2.145   6.302   6.326  0.3403 -0.9253 -0.4567
  936MOL0     C26238   2.216   6.249   6.192  0.8134  0.2172 -0.1815
  936MOL0     C26239   2.334   6.165   6.214 -0.0989 -0.4208 -0.3362
  936MOL0     C26240   2.396   6.126   6.082 -0.2278  0.4578 -0.4142
  936MOL0     C26241   2.525   6.035   6.086 -0.3684  0.3924 -0.9517
  936MOL0     N26242   2.561   5.986   5.953 -0.6564 -0.7298  0.9547
  936MOL0     C26243   2.679   6.019   5.882 -0.0194  0.1682 -0.2352
  936MOL0     C26244   2.655   5.980   5.760 -0.3060  0.4149 -0.1481
  936MOL0     C26245   2.751   6.002   5.648  0.5502 -0.1262  0.0100
  936MOL0     C26246   2.834   5.883   5.624  0.3689  1.1377 -0.9405
  936MOL0     C26247   2.936   5.902   5.514 -0.3191  0.6273 -0.0028
  936MOL0     C26248   3.002   5.778   5.447  0.0766  0.1816  0.5533
  936MOL0     O26249   3.107   5.721   5.534  0.6022  0.1557 -0.1819
  936MOL0     C26250   3.162   5.601   5.488 -0.5601 -0.7069  0.5137
  936MOL0     C26251   3.266   5.554   5.569  0.0631 -0.5921 -0.6580
  936MOL0     C26252   3.328   5.437   5.547 -0.3354 -0.4511  0.6091
  936MOL0     C26253   3.423   5.384   5.659  0.9241 -0.2339  0.1987
  936MOL0     C26254   3.296   5.362   5.432 -0.2812 -0.5656  0.0250
  936MOL0     C26255   3.369   5.241   5.398 -0.5470  0.1698  0.6328
  936MOL0     O26256   3.499   5.247   5.404 -0.8632 -0.1036 -0.7174
  936MOL0     C26257   3.578   5.139   5.364  0.6291  0.0910  0.3476
  936MOL0     C26258   3.559   5.008   5.413 -0.1004 -0.5105  0.3946
  936MOL0     C26259   3.656   4.912   5.390 -1.0177  0.0756  0.7465
  936MOL0     C26260   3.763   4.952   5.303 -0.8757  0.4604 -0.8605
  936MOL0     O26261   3.876   4.869   5.281  0.5515 -0.3823 -0.1331
  936MOL0     C26262   3.872   4.724   5.277  0.5202 -0.6800  0.4165
  936MOL0     C26263   3.933   4.659   5.405  0.2064  0.3398  0.0954
  936MOL0     C26264   3.875   4.512   5.426  0.5428  0.8588  0.6189
  936MOL0     C26265   3.735   4.506   5.468 -0.3040  0.0267  0.0922
  936MOL0     C26266   3.679   4.371   5.486 -0.7587  0.3392 -0.2680
  936MOL0     C26267   3.651   4.312   5.349  0.9691  1.1660 -0.2617
  936MOL0     C26268   3.602   4.164   5.355  0.3328 -0.7488  0.4415
  936MOL0     C26269   3.464   4.144   5.419 -0.8618  0.1698 -0.5049
  936MOL0    Cl26270   3.322   4.221   5.332  0.6774 -0.4515  0.3658
  936MOL0     C26271   3.776   5.075   5.242  0.2607 -0.8452 -0.3934
  936MOL0     C26272   3.685   5.172   5.279 -0.3813 -0.2332  0.1807
  936MOL0     O26273   3.308   5.152   5.349 -0.4527 -0.4873  0.1788
  936MOL0     C26274   3.199   5.408   5.342  0.5348 -0.2537 -0.0904
  936MOL0     C26275   3.141   5.529   5.371  0.0563 -0.5016  0.2448
  936MOL0     N26276   2.538   5.911   5.759  0.6669  0.1488  0.1129
  936MOL0     N26277   2.486   5.911   5.877 -0.5693  0.3190  0.5008
  936MOL0     C26278   1.519   6.456   6.384 -0.2950  0.8484  0.5780
  936MOL0     C26279   1.408   6.503   6.449 -0.0450  0.2230 -0.0268
  936MOL0     C26280   1.114   6.510   6.754  0.1502  0.1838  0.1274
  936MOL0     C26281   1.034   6.621   6.725  0.1090 -0.2217 -0.8685
  936MOL0     C26282   0.909   6.641   6.783  0.6694 -0.5710 -0.4068
  936MOL0     C26283   0.865   6.546   6.877  0.0598  0.3765 -1.0075
  936MOL0     O26284   0.739   6.537   6.923  0.1411 -1.0482 -0.0924
  936MOL0     C26285   0.704   6.452   7.038  0.1585 -0.3902  0.3084
  936MOL0     C26286   0.567   6.466   7.076 -0.1142 -1.1564  0.0873
  936MOL0     C26287   0.536   6.610   7.130 -0.3997  0.5708 -0.3740
  936MOL0     C26288   0.416   6.604   7.225  0.0995  0.0873 -0.3885
  936MOL0     C26289   0.309   6.506   7.183  0.3054 -0.1500 -0.0862
  936MOL0     C26290   0.213   6.436   7.139 -0.6967 -0.7564 -0.4596
  936MOL0     C26291   0.955   6.447   6.924 -0.2629 -0.6266  0.4634
  936MOL0     C26292   1.087   6.429   6.871  0.4862 -1.2567 -1.5062
  936MOL0     H26293   1.541   6.701   6.676 -0.5394  3.5263 -2.5321
  936MOL0     H26294   1.750   6.635   6.541 -1.4114  3.2473 -0.4078
  936MOL0     H26295   1.704   6.357   6.199  1.1878 -0.9451 -0.6028
  936MOL0     H26296   1.799   6.503   6.187 -1.4814  0.4719  0.3770
  936MOL0     H26297   1.867   6.230   6.272 -0.4713 -0.6356  1.3289
  936MOL0     H26298   1.925   6.299   6.118  0.2238  0.2804  0.0107
  936MOL0     H26299   2.061   6.458   6.209  1.5262 -3.0222 -2.5182
  936MOL0     H26300   2.001   6.436   6.388  0.5189 -0.1795  0.5065
  936MOL0     H26301   2.226   6.343   6.388  0.5814 -2.6218  0.3959
  936MOL0     H26302   2.096   6.224   6.384 -1.8900 -1.9081 -3.4270
  936MOL0     H26303   2.150   6.179   6.139  2.4953 -3.8189  2.5994
  936MOL0     H26304   2.236   6.334   6.126 -1.5064  0.7081 -0.3400
  936MOL0     H26305   2.410   6.222   6.268 -2.1011  4.9220 -2.4774
  936MOL0     H26306   2.308   6.073   6.265  1.1820 -0.0333  1.0733
  936MOL0     H26307   2.319   6.083   6.018  0.5645  0.8723 -1.6690
  936MOL0     H26308   2.427   6.220   6.037  0.4198  1.0861  1.2417
  936MOL0     H26309   2.517   5.951   6.155  0.8942 -0.0077 -1.2611
  936MOL0     H26310   2.606   6.091   6.135 -0.2355 -1.8483  1.5972
  936MOL0     H26311   2.759   6.086   5.914 -0.0882  0.5183 -0.7775
  936MOL0     H26312   2.693   6.027   5.559  1.0027 -1.5027 -0.7109
  936MOL0     H26313   2.812   6.090   5.667 -0.1394  0.2374  0.5706
  936MOL0     H26314   2.776   5.791   5.609  1.0886  0.4517  0.2940
  936MOL0     H26315   2.892   5.867   5.716 -0.0400 -1.2303 -1.0376
  936MOL0     H26316   3.015   5.973   5.542  0.1628 -0.2297  0.8723
  936MOL0     H26317   2.881   5.955   5.436 -3.2067  0.1093  1.5510
  936MOL0     H26318   3.047   5.816   5.354  0.0054  0.5445  0.6680
  936MOL0     H26319   2.926   5.705   5.418 -0.8826  0.7332  1.6330
  936MOL0     H26320   3.283   5.621   5.653 -1.9563 -2.1526  1.1023
  936MOL0     H26321   3.379   5.386   5.759  1.6730 -2.3039  0.6084
  936MOL0     H26322   3.468   5.286   5.642  1.6979 -0.3175  2.4570
  936MOL0     H26323   3.505   5.456   5.668 -0.7060  1.8591 -0.6206
  936MOL0     H26324   3.471   4.982   5.471  0.2082 -1.8425  0.2807
  936MOL0     H26325   3.648   4.808   5.420  2.3977 -0.3576  0.5258
  936MOL0     H26326   3.770   4.686   5.261  0.1588 -0.0290  1.0926
  936MOL0     H26327   3.945   4.695   5.201  1.9097  3.6725 -0.1912
  936MOL0     H26328   4.042   4.653   5.406  0.2523  1.1084  0.6579
  936MOL0     H26329   3.913   4.724   5.491 -0.7471 -0.8979  0.8446
  936MOL0     H26330   3.933   4.463   5.505 -1.8332  2.7707  3.7409
  936MOL0     H26331   3.883   4.458   5.331 -2.7248  0.5988  0.3869
  936MOL0     H26332   3.720   4.568   5.557  2.4943  1.3725 -0.2505
  936MOL0     H26333   3.679   4.565   5.395  2.7176  2.8166 -0.2287
  936MOL0     H26334   3.587   4.380   5.545 -1.5508 -0.3340 -1.3499
  936MOL0     H26335   3.757   4.303   5.520 -0.4799 -1.0999 -3.4419
  936MOL0     H26336   3.565   4.368   5.310  2.1862  3.3320  0.0212
  936MOL0     H26337   3.733   4.325   5.278  1.2508 -2.2961 -0.7054
  936MOL0     H26338   3.682   4.110   5.407  1.0324  1.2983  1.6129
  936MOL0     H26339   3.596   4.118   5.256  2.0826  1.6754 -0.8773
  936MOL0     H26340   3.473   4.185   5.521  0.4109  1.8561 -1.2459
  936MOL0     H26341   3.447   4.037   5.434  0.1602 -0.0055 -0.5032
  936MOL0     H26342   3.862   5.091   5.177 -0.2998  1.3821 -0.6660
  936MOL0     H26343   3.695   5.272   5.237 -0.1255 -0.8066 -1.1761
  936MOL0     H26344   3.175   5.362   5.247 -1.2023 -2.1454  1.2014
  936MOL0     H26345   3.067   5.572   5.304 -3.3047  0.9414  4.4393
  936MOL0     H26346   1.502   6.379   6.309 -2.6348  0.6022  1.3068
  936MOL0     H26347   1.313   6.461   6.417  0.9350  0.3779 -3.4708
  936MOL0     H26348   1.052   6.697   6.650 -2.3669  4.1434  2.4875
  936MOL0     H26349   0.852   6.733   6.777  1.4262  0.1910  2.5530
  936MOL0     H26350   0.717   6.348   7.008 -1.4508 -1.3285  2.5674
  936MOL0     H26351   0.770   6.479   7.121  2.6353  0.9630 -1.9566
  936MOL0     H26352   0.534   6.403   7.159 -1.2426 -0.9982 -0.2179
  936MOL0     H26353   0.498   6.435   6.997  0.0571 -1.3294  0.0036
  936MOL0     H26354   0.508   6.672   7.044 -0.9017 -1.2043 -1.5611
  936MOL0     H26355   0.623   6.648   7.183 -0.9932  1.0040  0.3196
  936MOL0     H26356   0.379   6.706   7.208  2.3988  0.6768 -2.3939
  936MOL0     H26357   0.440   6.592   7.331 -1.2014 -0.2620 -0.1114
  936MOL0     H26358   0.135   6.372   7.102 -1.1173 -0.6422  0.2143
  936MOL0     H26359   0.933   6.380   7.006  1.7540 -1.5969  0.2949
  936MOL0     H26360   1.155   6.356   6.912 -0.4875 -1.1268  0.4592
  937MOL0     O26361   6.243  11.288   6.521 -0.2353 -0.9102  0.4973
  937MOL0     C26362   6.165  11.327   6.435  0.2262 -0.5079  0.3067
  937MOL0     O26363   6.115  11.457   6.421 -0.2526  0.7870 -0.0716
  937MOL0     C26364   6.156  11.550   6.520 -0.8103 -0.1085  0.6476
  937MOL0     C26365   6.086  11.580   6.637 -0.1088  0.6583  1.4814
  937MOL0     C26366   6.125  11.685   6.715 -0.4215  0.4712 -0.6196
  937MOL0     C26367   6.243  11.754   6.696  1.0191  0.6550  0.2131
  937MOL0     O26368   6.284  11.849   6.776  0.6692 -0.0201  0.4062
  937MOL0     C26369   6.312  11.798   6.910 -0.8702 -0.1889  0.6015
  937MOL0     C26370   6.421  11.882   6.982 -0.3571  0.1640 -0.0113
  937MOL0     C26371   6.352  12.021   7.021 -0.7257  0.1786 -0.0582
  937MOL0     C26372   6.342  12.117   6.900  0.4699 -0.4090 -0.0954
  937MOL0     C26373   6.465  12.146   6.808 -0.3887  0.7493  0.0803
  937MOL0     C26374   6.450  12.242   6.688  0.7211 -1.6304  0.7996
  937MOL0     C26375   6.311  12.235   6.616 -0.6246  0.9194 -0.4217
  937MOL0     C26376   6.313  12.305   6.474 -0.6318  0.4986 -0.0150
  937MOL0     N26377   6.355  12.442   6.484 -0.0182 -0.6224  0.0561
  937MOL0     C26378   6.307  12.527   6.583 -0.6296 -0.9608 -0.3105
  937MOL0     C26379   6.390  12.632   6.584 -0.2513  0.9304  0.7201
  937MOL0     C26380   6.373  12.736   6.684 -0.5372 -0.5872  0.3988
  937MOL0     C26381   6.499  12.781   6.763  1.2636 -0.6530  0.0064
  937MOL0     C26382   6.567  12.676   6.846  0.0352  0.5963  0.0868
  937MOL0     C26383   6.509  12.655   6.986 -0.1111  0.5196  0.6419
  937MOL0     O26384   6.530  12.758   7.082  0.2088 -0.4600  1.0957
  937MOL0     C26385   6.647  12.758   7.148  0.3680  0.3159  1.4044
  937MOL0     C26386   6.642  12.848   7.251  0.8361  0.6787 -0.9754
  937MOL0     C26387   6.752  12.872   7.334 -0.2223 -0.9247  0.1725
  937MOL0     C26388   6.731  12.985   7.438 -0.0106  0.9937  0.0744
  937MOL0     C26389   6.863  12.794   7.326 -0.7217 -0.3133 -0.7900
  937MOL0     C26390   6.977  12.816   7.421  0.8449  1.1950  0.4351
  937MOL0     O26391   6.948  12.837   7.552  0.3626 -0.4854  0.0402
  937MOL0     C26392   7.053  12.841   7.641  0.4103 -0.0268 -0.4099
  937MOL0     C26393   7.158  12.935   7.648  0.4818 -0.2321  0.8053
  937MOL0     C26394   7.253  12.925   7.751 -0.0665  0.8222  0.3381
  937MOL0     C26395   7.253  12.835   7.858 -0.6830  0.1936 -0.8302
  937MOL0     O26396   7.360  12.840   7.939 -0.4982 -0.3367 -0.7174
  937MOL0     C26397   7.397  12.715   7.991 -0.0563  1.0633  0.1628
  937MOL0     C26398   7.555  12.721   8.025 -0.4893 -0.5099  0.4876
  937MOL0     C26399   7.583  12.627   8.134  0.2341  0.8974 -0.5084
  937MOL0     C26400   7.533  12.691   8.273 -0.2357 -0.3064  1.1326
  937MOL0     C26401   7.572  12.617   8.403  0.5712  0.5476  0.0206
  937MOL0     C26402   7.485  12.490   8.427  0.2223  0.1709  0.3122
  937MOL0     C26403   7.521  12.403   8.549  0.0061 -0.3483  0.6497
  937MOL0     C26404   7.605  12.281   8.493  0.4145  0.8269 -0.6648
  937MOL0    Cl26405   7.513  12.181   8.370 -0.6716  0.1512  0.1340
  937MOL0     C26406   7.145  12.751   7.860 -0.7152  0.0642 -0.3242
  937MOL0     C26407   7.047  12.754   7.754  0.1163  0.5751 -1.3275
  937MOL0     O26408   7.093  12.807   7.370 -0.2713 -0.0554  0.0038
  937MOL0     C26409   6.870  12.701   7.219  0.0913  0.6685 -0.4136
  937MOL0     C26410   6.761  12.670   7.136  0.2280  0.6529  0.2955
  937MOL0     N26411   6.473  12.617   6.468  0.3174 -0.3320  0.3730
  937MOL0     N26412   6.457  12.505   6.426  0.2526  0.0822  0.3586
  937MOL0     C26413   6.319  11.730   6.580 -0.5592  0.8470  0.9258
  937MOL0     C26414   6.280  11.622   6.494  0.7160 -0.1030 -0.5791
  937MOL0     C26415   6.093  11.216   6.361 -0.3407 -0.4931  0.3805
  937MOL0     C26416   5.990  11.261   6.277  0.0934  0.0636  0.0162
  937MOL0     C26417   5.948  11.171   6.174  0.4059  0.0382 -0.6651
  937MOL0     C26418   5.987  11.034   6.179 -0.2782  0.1228 -0.0818
  937MOL0     O26419   5.924  10.936   6.108  0.0462 -0.5554  0.2922
  937MOL0     C26420   5.846  10.961   5.989  0.2574  0.5345  0.0300
  937MOL0     C26421   5.789  10.823   5.951 -0.0998 -0.6621 -0.2565
  937MOL0     C26422   5.704  10.825   5.819  0.1817  0.7682 -0.1301
  937MOL0     C26423   5.645  10.684   5.790 -0.3712 -0.0686  0.0021
  937MOL0     C26424   5.560  10.616   5.887  0.0126  0.5181  1.3493
  937MOL0     C26425   5.487  10.579   5.976 -0.4169 -0.8724 -0.3137
  937MOL0     C26426   6.066  10.985   6.279 -0.2955  0.2499  1.1629
  937MOL0     C26427   6.127  11.079   6.369 -0.0822 -0.7855  0.1911
  937MOL0     H26428   6.007  11.512   6.665  0.0133 -0.0025  0.3279
  937MOL0     H26429   6.067  11.708   6.804  3.8209  0.8157  2.3106
  937MOL0     H26430   6.219  11.790   6.967 -1.1073 -0.6357  0.1655
  937MOL0     H26431   6.355  11.697   6.909  2.8594  1.2348  0.2996
  937MOL0     H26432   6.462  11.839   7.074  1.7845  3.3939  0.7442
  937MOL0     H26433   6.505  11.886   6.912 -1.1263  0.6197 -0.9340
  937MOL0     H26434   6.256  12.022   7.074 -1.1132 -0.9558 -0.7130
  937MOL0     H26435   6.414  12.073   7.094  0.9222 -0.3006 -1.0733
  937MOL0     H26436   6.252  12.082   6.847 -0.2869  0.9772  0.2212
  937MOL0     H26437   6.307  12.214   6.936  0.8548  1.1419 -3.4573
  937MOL0     H26438   6.546  12.184   6.871 -0.2475  1.1616 -0.3479
  937MOL0     H26439   6.488  12.048   6.764  0.6136  1.2448 -0.5220
  937MOL0     H26440   6.471  12.344   6.722 -2.0215 -1.2805  1.6573
  937MOL0     H26441   6.530  12.218   6.617  0.6177 -0.4924  0.2726
  937MOL0     H26442   6.301  12.129   6.588  3.7576  0.3661 -0.5447
  937MOL0     H26443   6.237  12.276   6.685  1.1921  1.5711  1.2311
  937MOL0     H26444   6.223  12.294   6.413 -0.0786  2.0120 -1.1588
  937MOL0     H26445   6.389  12.258   6.411 -1.8441 -0.4152 -0.8352
  937MOL0     H26446   6.233  12.504   6.658  0.2135 -0.3575  0.7318
  937MOL0     H26447   6.340  12.825   6.631 -4.7649 -1.1602  1.6645
  937MOL0     H26448   6.303  12.723   6.768  1.6560 -2.4226  2.0681
  937MOL0     H26449   6.474  12.864   6.831 -0.3868 -2.3602  1.5866
  937MOL0     H26450   6.579  12.814   6.695  0.8810 -0.2611 -0.2580
  937MOL0     H26451   6.674  12.692   6.862  0.3582 -2.0230  0.9835
  937MOL0     H26452   6.566  12.580   6.793  0.0097  1.6700 -1.9408
  937MOL0     H26453   6.557  12.567   7.029 -0.8915  1.2770  3.2646
  937MOL0     H26454   6.403  12.636   6.967 -0.5150  3.4039 -0.4629
  937MOL0     H26455   6.549  12.905   7.254  0.4204 -0.0180  0.3535
  937MOL0     H26456   6.672  12.931   7.513 -1.7156 -1.7730 -3.0466
  937MOL0     H26457   6.821  13.044   7.461  0.9226 -0.5297  0.5205
  937MOL0     H26458   6.666  13.060   7.392 -0.4385 -0.4739 -1.8029
  937MOL0     H26459   7.180  13.008   7.571  3.4968  0.4110  2.1238
  937MOL0     H26460   7.339  12.991   7.738 -1.2486  1.9059 -3.1323
  937MOL0     H26461   7.349  12.698   8.087  2.1875 -1.4503  0.9745
  937MOL0     H26462   7.364  12.631   7.929 -3.5945  1.1699  1.7023
  937MOL0     H26463   7.621  12.708   7.939 -0.6618  1.4563 -0.0087
  937MOL0     H26464   7.573  12.821   8.066  0.9433 -1.1491  1.4996
  937MOL0     H26465   7.692  12.619   8.143  0.3900 -0.8241 -2.7808
  937MOL0     H26466   7.551  12.524   8.114 -2.4064  1.9277 -2.1974
  937MOL0     H26467   7.579  12.789   8.279  0.6425 -0.4972 -1.4905
  937MOL0     H26468   7.424  12.701   8.282 -0.1526 -0.1417  2.1124
  937MOL0     H26469   7.557  12.675   8.495  0.7706  1.9119 -0.7863
  937MOL0     H26470   7.679  12.598   8.405  0.6845  1.2041  0.2844
  937MOL0     H26471   7.380  12.514   8.443 -0.2834 -1.7735  0.1159
  937MOL0     H26472   7.492  12.426   8.339 -0.0427  2.1584 -1.2464
  937MOL0     H26473   7.429  12.382   8.604  0.3169 -0.7486  1.0200
  937MOL0     H26474   7.578  12.457   8.626  0.5036  1.4588 -0.9030
  937MOL0     H26475   7.639  12.219   8.576  2.2308  0.9606 -1.2580
  937MOL0     H26476   7.691  12.327   8.443  0.7518  2.6050  1.4279
  937MOL0     H26477   7.146  12.684   7.946  2.0316 -1.1523 -1.1970
  937MOL0     H26478   6.957  12.695   7.768  0.5731  0.0244 -0.6396
  937MOL0     H26479   6.959  12.640   7.215 -1.6101 -2.5158  3.2481
  937MOL0     H26480   6.769  12.590   7.062  3.1248  1.5935 -0.5181
  937MOL0     H26481   6.406  11.790   6.556  0.8009 -1.3712  0.0341
  937MOL0     H26482   6.334  11.606   6.402  0.7588  1.5469 -0.8690
  937MOL0     H26483   5.957  11.365   6.278  2.2371  0.7962  0.3114
  937MOL0     H26484   5.865  11.207   6.113  1.1655  1.0538 -1.1219
  937MOL0     H26485   5.771  11.041   5.991 -0.0759  0.2095  0.8152
  937MOL0     H26486   5.918  10.984   5.911  3.8871 -3.0826  1.9798
  937MOL0     H26487   5.740  10.773   6.035  0.1342 -1.3606 -0.5298
  937MOL0     H26488   5.882  10.766   5.938 -0.6876 -1.5276 -0.7614
  937MOL0     H26489   5.767  10.856   5.735  5.5272 -2.1349  2.3058
  937MOL0     H26490   5.616  10.886   5.843 -1.8211 -2.6858  2.1834
  937MOL0     H26491   5.724  10.609   5.777 -1.3210 -0.9193 -1.0142
  937MOL0     H26492   5.585  10.698   5.700 -1.5312  2.1354  1.0363
  937MOL0     H26493   5.438  10.527   6.056  1.0020 -2.2572 -0.2886
  937MOL0     H26494   6.060  10.877   6.283  1.7171  0.0235 -0.4767
  937MOL0     H26495   6.195  11.051   6.448  0.1343 -2.1679 -0.4464
  938MOL0     O26496   5.827   6.713   1.417 -0.2209 -0.0982  0.5824
  938MOL0     C26497   5.835   6.817   1.477 -0.6853  0.6005  0.0059
  938MOL0     O26498   5.926   6.838   1.584  0.6591  0.7730 -0.2280
  938MOL0     C26499   6.044   6.769   1.602  0.8007  0.1757  0.8178
  938MOL0     C26500   6.116   6.696   1.503 -1.0101 -0.4132 -0.2204
  938MOL0     C26501   6.233   6.622   1.542  0.6846  0.2843 -0.1589
  938MOL0     C26502   6.276   6.626   1.678  0.0332 -0.1547  0.1498
  938MOL0     O26503   6.397   6.567   1.702  0.0955  0.3752 -0.4543
  938MOL0     C26504   6.475   6.613   1.807  0.4983 -0.8764 -1.1858
  938MOL0     C26505   6.612   6.559   1.787  0.4190  0.7616  0.8888
  938MOL0     C26506   6.726   6.584   1.885 -0.3191  0.8792  1.0727
  938MOL0     C26507   6.674   6.556   2.024  0.3939  0.2953 -0.4402
  938MOL0     C26508   6.769   6.607   2.132  0.6014  0.6798  0.1296
  938MOL0     C26509   6.730   6.573   2.279 -0.5060  0.1206 -0.3764
  938MOL0     C26510   6.775   6.683   2.382  1.1376  0.2265  0.3870
  938MOL0     C26511   6.699   6.819   2.373  0.1591 -0.8605 -1.2262
  938MOL0     N26512   6.561   6.824   2.414  0.3207  0.0016 -0.1627
  938MOL0     C26513   6.454   6.770   2.351 -0.0088  1.2484  0.8269
  938MOL0     C26514   6.347   6.791   2.437  0.3689  0.8171 -0.4277
  938MOL0     C26515   6.209   6.752   2.416 -0.4139  0.4320  0.0011
  938MOL0     C26516   6.114   6.866   2.452 -0.5115  0.3737  0.7180
  938MOL0     C26517   6.138   6.982   2.350 -0.1272 -0.3717 -0.0634
  938MOL0     C26518   6.086   7.116   2.403  0.3528  0.2291 -0.2824
  938MOL0     O26519   6.109   7.216   2.304 -0.3950  0.3111  0.6235
  938MOL0     C26520   6.092   7.343   2.350  0.2754  0.0975  0.2230
  938MOL0     C26521   6.039   7.387   2.469  0.2100  0.5141 -0.5924
  938MOL0     C26522   6.029   7.522   2.506  0.7314 -0.3537 -0.1533
  938MOL0     C26523   5.980   7.559   2.644 -0.1152 -0.1779  0.1118
  938MOL0     C26524   6.057   7.627   2.413 -0.9546 -0.3468 -0.8303
  938MOL0     C26525   6.021   7.771   2.438 -1.0062  0.8587 -0.0442
  938MOL0     O26526   6.112   7.852   2.387  0.1135  0.5257  0.0178
  938MOL0     C26527   6.089   7.987   2.355  0.6174  0.4263  0.3079
  938MOL0     C26528   5.983   8.069   2.393  1.0435 -0.6693  0.1332
  938MOL0     C26529   5.977   8.210   2.367 -0.2382 -0.2265 -0.1622
  938MOL0     C26530   6.076   8.261   2.279  0.7592 -0.3084 -0.8046
  938MOL0     O26531   6.089   8.398   2.264  0.4821 -0.3351 -0.0154
  938MOL0     C26532   6.026   8.494   2.349  0.3319 -0.2428  0.3723
  938MOL0     C26533   6.090   8.631   2.332 -0.8170 -0.2075  0.2598
  938MOL0     C26534   6.122   8.683   2.191 -0.3897 -0.5814 -0.9838
  938MOL0     C26535   6.224   8.802   2.191 -0.7684  0.0385  0.5869
  938MOL0     C26536   6.261   8.833   2.041  0.7939 -0.6673 -0.2056
  938MOL0     C26537   6.347   8.956   2.028 -0.5703  0.3171  0.1730
  938MOL0     C26538   6.354   9.024   1.881 -0.0618  0.8041  0.4489
  938MOL0     C26539   6.387   8.927   1.777 -0.0761  0.4928  0.1612
  938MOL0    Cl26540   6.413   9.023   1.623  0.3502 -0.1457 -0.7234
  938MOL0     C26541   6.173   8.178   2.230  0.2400  0.7764 -0.8458
  938MOL0     C26542   6.183   8.046   2.277 -0.1979 -0.0047 -0.9758
  938MOL0     O26543   5.918   7.804   2.498 -0.1727  0.7488  0.1065
  938MOL0     C26544   6.115   7.577   2.291  0.9173  0.7923  0.7309
  938MOL0     C26545   6.126   7.441   2.263 -0.0742 -0.1133 -0.5027
  938MOL0     N26546   6.413   6.833   2.554  0.7569  0.1033 -0.5684
  938MOL0     N26547   6.525   6.871   2.534 -0.5024 -0.3649  0.0678
  938MOL0     C26548   6.198   6.693   1.770  0.4288  0.0279 -0.2385
  938MOL0     C26549   6.086   6.768   1.732  0.8382 -0.3731 -0.0324
  938MOL0     C26550   5.734   6.913   1.458  0.8306  0.0239  0.1580
  938MOL0     C26551   5.667   6.978   1.567 -1.6180 -0.5108 -0.2305
  938MOL0     C26552   5.569   7.066   1.548 -0.7662 -0.2329  0.1019
  938MOL0     C26553   5.495   7.081   1.428 -0.9711 -1.0776 -0.3709
  938MOL0     O26554   5.387   7.166   1.420  0.6869  0.3900 -0.2582
  938MOL0     C26555   5.297   7.151   1.308  0.1293 -0.3692  0.2078
  938MOL0     C26556   5.166   7.089   1.352  0.3537 -1.3254  0.3758
  938MOL0     C26557   5.056   7.112   1.251  0.2522 -0.4036  0.5753
  938MOL0     C26558   4.923   7.064   1.288  1.7693 -0.6286 -0.7515
  938MOL0     C26559   4.902   6.915   1.306 -0.0430  0.3430  0.1699
  938MOL0     C26560   4.877   6.797   1.301  0.1351  0.7703  0.1207
  938MOL0     C26561   5.556   7.015   1.321  0.5876 -0.0045 -0.0529
  938MOL0     C26562   5.668   6.938   1.335 -0.0337  0.3062  0.1135
  938MOL0     H26563   6.089   6.718   1.401  0.5956  1.9785 -0.2200
  938MOL0     H26564   6.294   6.575   1.465 -1.8768 -1.8962 -1.0251
  938MOL0     H26565   6.471   6.721   1.823  1.9844 -0.8396 -0.9340
  938MOL0     H26566   6.432   6.567   1.897 -1.4843  1.4237 -0.8313
  938MOL0     H26567   6.583   6.454   1.779  1.9710  0.4206 -1.6110
  938MOL0     H26568   6.639   6.594   1.686 -0.4027  0.8245  0.6897
  938MOL0     H26569   6.811   6.519   1.863 -0.8807  1.1366 -2.5156
  938MOL0     H26570   6.757   6.688   1.872 -0.9660  0.9286 -0.2130
  938MOL0     H26571   6.581   6.611   2.035  0.6253  0.7545 -0.7420
  938MOL0     H26572   6.649   6.450   2.034  1.6139  0.1018  0.9564
  938MOL0     H26573   6.860   6.548   2.116  0.9037  0.1859  3.1373
  938MOL0     H26574   6.795   6.713   2.121  0.8081  0.6450  0.2687
  938MOL0     H26575   6.623   6.551   2.287 -0.7080  0.7672 -1.0906
  938MOL0     H26576   6.783   6.482   2.304 -0.2663  0.2510 -0.4079
  938MOL0     H26577   6.759   6.655   2.487 -1.7944 -0.8721 -0.2407
  938MOL0     H26578   6.881   6.710   2.377  1.4777 -0.5481  2.3003
  938MOL0     H26579   6.693   6.870   2.276 -1.6440  2.7986  0.5767
  938MOL0     H26580   6.752   6.890   2.437 -1.3678 -1.2555  0.5778
  938MOL0     H26581   6.450   6.739   2.247  1.1928 -0.3843  1.2151
  938MOL0     H26582   6.199   6.709   2.316  1.3642  1.1922 -0.5349
  938MOL0     H26583   6.176   6.667   2.477 -2.6406 -0.6022 -2.4353
  938MOL0     H26584   6.128   6.904   2.554 -1.8076  1.2159  0.6103
  938MOL0     H26585   6.008   6.841   2.438 -0.8170  1.5053  0.8704
  938MOL0     H26586   6.110   6.967   2.246  3.1463 -2.4614 -0.7896
  938MOL0     H26587   6.246   6.997   2.338 -0.1565  0.2199  0.3679
  938MOL0     H26588   6.124   7.155   2.497 -1.7144  3.2715 -0.5354
  938MOL0     H26589   5.978   7.109   2.419  0.4089 -1.8697 -0.6169
  938MOL0     H26590   5.993   7.336   2.552 -2.8589  2.0978 -1.1764
  938MOL0     H26591   5.872   7.545   2.632  0.3161 -2.5369 -1.6703
  938MOL0     H26592   6.016   7.481   2.711 -0.0554 -1.9917 -1.9315
  938MOL0     H26593   6.012   7.658   2.679 -0.1186 -0.8985  2.2913
  938MOL0     H26594   5.919   8.026   2.469  0.3263  0.7161  0.3514
  938MOL0     H26595   5.905   8.272   2.420  0.4971  0.5736 -0.0823
  938MOL0     H26596   5.923   8.516   2.319  0.4963 -2.7884 -2.4989
  938MOL0     H26597   6.022   8.469   2.455  3.9842  3.4633  1.6695
  938MOL0     H26598   6.020   8.705   2.374  0.5867  1.5324 -0.3657
  938MOL0     H26599   6.169   8.627   2.407  0.7354  3.7236 -0.9446
  938MOL0     H26600   6.042   8.712   2.123  1.0653  0.7201 -2.2042
  938MOL0     H26601   6.162   8.597   2.136  0.7831 -1.6899  1.4183
  938MOL0     H26602   6.190   8.890   2.246  0.3076  0.1335  1.1189
  938MOL0     H26603   6.316   8.767   2.240 -1.2831 -2.2931  0.0260
  938MOL0     H26604   6.168   8.863   1.991  1.3208  0.9767 -0.2594
  938MOL0     H26605   6.310   8.744   2.000  3.2324  1.2235 -1.7057
  938MOL0     H26606   6.308   9.042   2.084  0.3700  1.7410 -1.2874
  938MOL0     H26607   6.448   8.928   2.057 -0.8863 -0.4368  0.5679
  938MOL0     H26608   6.438   9.093   1.874  1.2825 -0.8177 -0.0002
  938MOL0     H26609   6.260   9.074   1.853  0.3429  2.0525  1.2384
  938MOL0     H26610   6.307   8.854   1.764  2.2694 -2.6277  1.7581
  938MOL0     H26611   6.486   8.886   1.799 -0.1602 -0.3316 -0.9081
  938MOL0     H26612   6.252   8.228   2.175 -0.5029 -0.3449 -3.0642
  938MOL0     H26613   6.274   7.992   2.252 -0.3174 -1.5328  1.5772
  938MOL0     H26614   6.159   7.643   2.217 -0.7324  2.9697  1.5802
  938MOL0     H26615   6.178   7.415   2.171  1.7243  0.6115  0.2532
  938MOL0     H26616   6.225   6.683   1.875  1.8506 -1.4230 -0.6867
  938MOL0     H26617   6.030   6.824   1.806 -0.7740  0.4607 -1.8059
  938MOL0     H26618   5.714   6.978   1.665  6.0963  2.7932 -3.1283
  938MOL0     H26619   5.535   7.127   1.631 -0.7867  0.3456 -0.3267
  938MOL0     H26620   5.269   7.246   1.262  0.8442  0.6589  1.8073
  938MOL0     H26621   5.332   7.091   1.223 -2.3588 -1.5453 -0.0829
  938MOL0     H26622   5.141   7.149   1.439  0.1795  2.1135 -1.8772
  938MOL0     H26623   5.185   6.981   1.363 -3.1732 -2.7891 -4.3527
  938MOL0     H26624   5.087   7.073   1.154 -1.0842  0.3601 -0.1765
  938MOL0     H26625   5.053   7.221   1.241  1.2150 -0.5330 -1.7817
  938MOL0     H26626   4.854   7.094   1.208 -0.6552 -3.1947  0.2182
  938MOL0     H26627   4.880   7.120   1.371  3.5599  1.1565 -0.9698
  938MOL0     H26628   4.850   6.693   1.294  2.7610 -0.3828  3.9406
  938MOL0     H26629   5.515   7.023   1.221  0.6481  0.5794 -0.0360
  938MOL0     H26630   5.698   6.884   1.246 -3.8051  1.4708 -2.0946
  939MOL0     O26631   5.677  10.978   9.586  1.1606 -0.4611  0.0238
  939MOL0     C26632   5.663  10.855   9.618 -0.4657 -0.4601  0.9751
  939MOL0     O26633   5.738  10.796   9.715 -0.4162  0.5646  0.3818
  939MOL0     C26634   5.813  10.872   9.801 -0.3998  0.4238  0.7044
  939MOL0     C26635   5.923  10.810   9.866  0.0768 -0.1311 -0.1045
  939MOL0     C26636   5.991  10.881   9.963 -0.2755  0.1098 -0.2717
  939MOL0     C26637   5.967  11.010  10.001 -0.0558 -0.2443 -0.2096
  939MOL0     O26638   6.030  11.059  10.116 -0.4685  0.7782  0.0929
  939MOL0     C26639   6.075  11.193  10.112  0.6255  0.7801 -0.3578
  939MOL0     C26640   6.188  11.206  10.003 -0.8817 -0.0419 -0.2105
  939MOL0     C26641   6.264  11.339  10.037 -0.6508  0.5935 -0.5003
  939MOL0     C26642   6.329  11.331  10.184  0.0271 -0.4895 -0.2138
  939MOL0     C26643   6.434  11.435  10.207  0.2548  1.2162  0.8590
  939MOL0     C26644   6.472  11.440  10.357 -0.1295  0.6640  0.5694
  939MOL0     C26645   6.578  11.543  10.407  0.1156  1.1470 -0.1900
  939MOL0     C26646   6.541  11.685  10.372 -0.8591  0.7209  0.0200
  939MOL0     N26647   6.642  11.788  10.415  0.0283 -0.5717  1.4626
  939MOL0     C26648   6.645  11.868  10.519 -1.0820  0.4180  0.3673
  939MOL0     C26649   6.757  11.941  10.523  0.2765 -0.0494 -0.6957
  939MOL0     C26650   6.783  12.044  10.625 -0.0681  0.1723 -0.4704
  939MOL0     C26651   6.715  12.037  10.761  0.0360  0.8345 -1.0542
  939MOL0     C26652   6.746  11.906  10.845  0.3065  0.8309 -0.4988
  939MOL0     C26653   6.622  11.849  10.903 -0.0879 -0.7823 -0.1507
  939MOL0     O26654   6.643  11.733  10.974 -0.4340  0.9207 -0.0558
  939MOL0     C26655   6.548  11.663  11.045  0.5362 -0.7779 -0.4206
  939MOL0     C26656   6.589  11.542  11.104  0.7485 -0.5639 -0.1120
  939MOL0     C26657   6.505  11.461  11.175  0.4493 -0.8499  0.0743
  939MOL0     C26658   6.565  11.348  11.257  0.2345  0.5889  0.1191
  939MOL0     C26659   6.369  11.507  11.187  0.1989  0.2125  0.4804
  939MOL0     C26660   6.271  11.437  11.272 -1.0560 -0.5655  1.2984
  939MOL0     O26661   6.297  11.304  11.301  0.2753  0.2485  0.1149
  939MOL0     C26662   6.221  11.223  11.381  0.1256 -0.1694 -0.5938
  939MOL0     C26663   6.081  11.225  11.389 -0.0364  0.3130  0.1770
  939MOL0     C26664   6.020  11.137  11.475  0.3387 -0.1930  0.2825
  939MOL0     C26665   6.091  11.043  11.547 -0.3292  0.2984  0.5582
  939MOL0     O26666   6.025  10.968  11.641 -0.2940  0.2065  0.4919
  939MOL0     C26667   5.949  10.843  11.600 -0.6272 -0.9815 -0.3476
  939MOL0     C26668   6.045  10.733  11.579 -0.1897  1.0888  1.0244
  939MOL0     C26669   5.964  10.600  11.576 -0.6867  0.2738 -0.2561
  939MOL0     C26670   6.047  10.472  11.574  0.2007 -0.2104 -0.2621
  939MOL0     C26671   5.959  10.358  11.591 -0.1970  0.7752 -0.0561
  939MOL0     C26672   6.039  10.230  11.588 -0.0277  0.9758  0.4347
  939MOL0     C26673   5.955  10.104  11.620 -0.8249  0.9821  0.3256
  939MOL0     C26674   6.061  10.008  11.680 -0.3806  1.3380 -0.3879
  939MOL0    Cl26675   5.966   9.870  11.727 -0.1579  0.1682  0.6622
  939MOL0     C26676   6.225  11.025  11.527  0.8838  0.6096  1.0433
  939MOL0     C26677   6.286  11.118  11.437 -0.8466 -0.0067 -0.7311
  939MOL0     O26678   6.163  11.501  11.299 -0.4122  0.1406 -0.8330
  939MOL0     C26679   6.332  11.635  11.134 -0.5032  0.4661  0.2267
  939MOL0     C26680   6.420  11.716  11.064 -0.0582 -0.6213 -0.6709
  939MOL0     N26681   6.816  11.916  10.402 -0.4321  0.1844  0.3814
  939MOL0     N26682   6.752  11.820  10.343 -0.2832 -0.1496  0.3964
  939MOL0     C26683   5.857  11.070   9.945 -0.5383 -1.2458 -0.5841
  939MOL0     C26684   5.783  11.006   9.842 -0.5195  0.0832 -0.3527
  939MOL0     C26685   5.571  10.764   9.548 -0.0982  0.1466 -0.5060
  939MOL0     C26686   5.550  10.632   9.590  0.3455 -0.0402 -0.3343
  939MOL0     C26687   5.481  10.546   9.508  0.2263  0.2432  0.0869
  939MOL0     C26688   5.415  10.596   9.386 -0.1968 -1.0175 -1.2430
  939MOL0     O26689   5.355  10.509   9.299 -0.1703 -0.2788 -0.2379
  939MOL0     C26690   5.286  10.552   9.183  0.0724 -0.7563 -0.0411
  939MOL0     C26691   5.218  10.437   9.112 -0.0384 -0.0101  0.8996
  939MOL0     C26692   5.170  10.486   8.984  0.7115 -0.2676  0.9077
  939MOL0     C26693   5.123  10.358   8.906 -0.8491  0.7591  0.4250
  939MOL0     C26694   5.095  10.398   8.771  0.6305  0.2675 -0.5505
  939MOL0     C26695   5.085  10.440   8.661  0.6289  0.2964 -0.0388
  939MOL0     C26696   5.429  10.731   9.356  0.2071  0.1437 -0.6722
  939MOL0     C26697   5.510  10.805   9.427 -0.5892 -1.2012 -0.5349
  939MOL0     H26698   5.945  10.706   9.845  1.2324 -0.5357  2.7220
  939MOL0     H26699   6.078  10.830  10.002 -0.9738 -1.9386 -1.2456
  939MOL0     H26700   5.988  11.251  10.080 -1.3977 -2.3349 -0.8934
  939MOL0     H26701   6.093  11.223  10.216 -2.0827  2.6803 -0.3374
  939MOL0     H26702   6.258  11.126  10.029 -0.7140  0.0980 -0.2350
  939MOL0     H26703   6.169  11.200   9.895 -0.5180 -1.9372 -0.1966
  939MOL0     H26704   6.342  11.359   9.964  2.1629 -1.7590  1.6269
  939MOL0     H26705   6.198  11.427  10.036 -0.8060  0.7123  3.4389
  939MOL0     H26706   6.251  11.354  10.258  1.1932  3.1846  0.0549
  939MOL0     H26707   6.369  11.230  10.195 -1.1146 -0.8315  1.1145
  939MOL0     H26708   6.520  11.411  10.143  1.1470  1.6165  1.8935
  939MOL0     H26709   6.406  11.530  10.161  0.4001  1.0882  0.5023
  939MOL0     H26710   6.381  11.464  10.412 -0.8682  2.8953 -1.4410
  939MOL0     H26711   6.514  11.343  10.386 -0.9200  0.3621  0.7156
  939MOL0     H26712   6.586  11.518  10.513  1.7445 -0.0074 -0.5586
  939MOL0     H26713   6.668  11.500  10.363 -0.3961 -3.8894  2.8817
  939MOL0     H26714   6.447  11.720  10.417 -0.1340  1.7554  0.7699
  939MOL0     H26715   6.526  11.689  10.264  0.8147 -3.6775 -0.5711
  939MOL0     H26716   6.583  11.868  10.607 -2.4988  1.2570 -0.5904
  939MOL0     H26717   6.892  12.039  10.640  0.2360  1.2746 -2.0988
  939MOL0     H26718   6.767  12.145  10.586  3.2534 -0.2988 -3.5469
  939MOL0     H26719   6.610  12.053  10.737 -0.4066 -0.8378 -0.3476
  939MOL0     H26720   6.752  12.113  10.830 -0.1905 -2.0843  2.6001
  939MOL0     H26721   6.816  11.915  10.928 -0.5868  0.5178  0.3146
  939MOL0     H26722   6.765  11.820  10.779 -3.2938  0.3197 -1.0654
  939MOL0     H26723   6.543  11.839  10.828 -1.0485 -2.9804  1.0588
  939MOL0     H26724   6.586  11.926  10.972  1.3159  0.1941 -0.4629
  939MOL0     H26725   6.694  11.513  11.095  1.2851  0.4944  2.0466
  939MOL0     H26726   6.533  11.357  11.362  0.7325  0.3047  0.3010
  939MOL0     H26727   6.534  11.249  11.222  2.6163 -0.8336  1.6802
  939MOL0     H26728   6.674  11.348  11.261  0.2078  1.4273  2.8149
  939MOL0     H26729   6.001  11.284  11.346  0.4497  0.1154 -1.0379
  939MOL0     H26730   5.913  11.136  11.496  0.1828  2.5875  0.0118
  939MOL0     H26731   5.880  10.816  11.681 -1.1288 -1.6625 -0.9967
  939MOL0     H26732   5.892  10.862  11.509  1.1170 -1.9347 -1.7166
  939MOL0     H26733   6.111  10.757  11.494  0.3628 -1.8909  0.5158
  939MOL0     H26734   6.111  10.727  11.666 -0.5186 -0.8132  1.1680
  939MOL0     H26735   5.906  10.597  11.483  0.6312  1.4500 -1.1628
  939MOL0     H26736   5.903  10.584  11.665  3.0017  0.2741  2.5095
  939MOL0     H26737   6.101  10.471  11.478  0.6331  3.5629 -0.2092
  939MOL0     H26738   6.125  10.474  11.650  0.1324 -0.7989 -0.1663
  939MOL0     H26739   5.882  10.347  11.515 -0.0829 -0.1963 -0.0428
  939MOL0     H26740   5.912  10.368  11.690  4.0848 -1.0719  2.4654
  939MOL0     H26741   6.084  10.223  11.488  3.2693  3.3433  1.6024
  939MOL0     H26742   6.129  10.236  11.650  0.1687 -0.6516  0.3389
  939MOL0     H26743   5.907  10.059  11.532  1.5599 -3.8974  1.1538
  939MOL0     H26744   5.874  10.120  11.693 -0.8582 -0.8838  0.7456
  939MOL0     H26745   6.113  10.045  11.769 -0.5289 -2.1911  1.3272
  939MOL0     H26746   6.138   9.974  11.611  1.1832  1.3224  1.2730
  939MOL0     H26747   6.275  10.955  11.593  1.5143 -1.5025 -1.4685
  939MOL0     H26748   6.391  11.115  11.411 -1.3178  0.0349 -2.8070
  939MOL0     H26749   6.236  11.685  11.146 -0.4171  0.9105 -0.7998
  939MOL0     H26750   6.396  11.814  11.025 -0.3252 -0.7614 -0.8567
  939MOL0     H26751   5.827  11.168   9.980  0.5010 -1.3386  0.6284
  939MOL0     H26752   5.706  11.075   9.808 -3.0642 -0.8622  2.9420
  939MOL0     H26753   5.586  10.594   9.685 -1.1698  2.1411  1.2333
  939MOL0     H26754   5.481  10.444   9.545  2.6776 -0.8193 -2.4391
  939MOL0     H26755   5.203  10.621   9.206  0.3600 -0.5427  0.3654
  939MOL0     H26756   5.357  10.607   9.120 -0.6623  1.5416  1.0061
  939MOL0     H26757   5.132  10.408   9.173 -0.2309  1.6698  1.4749
  939MOL0     H26758   5.292  10.359   9.090  0.9377  1.4949 -1.5756
  939MOL0     H26759   5.251  10.536   8.931  1.5919 -2.5218 -0.0170
  939MOL0     H26760   5.092  10.560   9.004 -0.7182 -1.5760  0.3845
  939MOL0     H26761   5.035  10.306   8.944 -0.8011 -1.0563 -1.7748
  939MOL0     H26762   5.206  10.287   8.904 -1.6882 -0.2332  0.0438
  939MOL0     H26763   5.065  10.477   8.563 -2.8677  1.4352  0.9537
  939MOL0     H26764   5.382  10.778   9.270 -2.1295 -3.3063 -1.4513
  939MOL0     H26765   5.532  10.902   9.382  1.2845 -0.2146  2.2023
  940MOL0     O26766   1.927   0.884   1.341 -0.1477 -0.3466 -0.0842
  940MOL0     C26767   1.846   0.977   1.337 -0.4211 -0.3833 -0.1891
  940MOL0     O26768   1.749   0.999   1.243 -0.1201 -0.0440 -0.5638
  940MOL0     C26769   1.729   0.906   1.137 -0.1620  0.0290 -0.2323
  940MOL0     C26770   1.602   0.876   1.102  0.4323 -0.0720  0.6837
  940MOL0     C26771   1.569   0.794   0.998 -0.0154 -0.1367 -0.0150
  940MOL0     C26772   1.660   0.731   0.923  0.5027 -0.2068  0.2336
  940MOL0     O26773   1.607   0.668   0.816 -0.0684 -0.2008 -0.4812
  940MOL0     C26774   1.671   0.687   0.695 -0.5764  0.8867 -0.8550
  940MOL0     C26775   1.602   0.609   0.575  0.1727 -0.9681  0.8536
  940MOL0     C26776   1.491   0.707   0.530 -0.3143  0.3149 -0.5948
  940MOL0     C26777   1.528   0.845   0.457 -0.0045  0.2241 -0.1555
  940MOL0     C26778   1.398   0.907   0.400  0.8956 -0.3810 -1.0710
  940MOL0     C26779   1.366   1.043   0.463  0.2412 -0.3672 -0.5548
  940MOL0     C26780   1.290   1.150   0.385  0.0275  0.4523  0.3186
  940MOL0     C26781   1.371   1.210   0.263  0.1148 -0.0080 -0.3012
  940MOL0     N26782   1.499   1.289   0.288 -0.2503 -0.8508  0.0909
  940MOL0     C26783   1.498   1.383   0.391  0.7233 -0.1791 -0.4748
  940MOL0     C26784   1.624   1.432   0.390  0.9832  1.4285  0.2116
  940MOL0     C26785   1.684   1.536   0.478 -0.0594 -0.2841 -0.1819
  940MOL0     C26786   1.797   1.485   0.565  0.2662 -0.5791  0.6183
  940MOL0     C26787   1.825   1.573   0.689 -0.2139  0.4776  0.4598
  940MOL0     C26788   1.891   1.708   0.657 -0.4480  0.4489  0.2933
  940MOL0     O26789   1.800   1.818   0.663  0.5325  0.2189 -0.2741
  940MOL0     C26790   1.767   1.909   0.567  0.2505  0.1491 -0.2118
  940MOL0     C26791   1.704   2.028   0.612  0.0196  0.1852  0.8795
  940MOL0     C26792   1.660   2.131   0.518  0.4239 -0.0609  0.0597
  940MOL0     C26793   1.585   2.253   0.561 -0.0728 -0.1650  0.0306
  940MOL0     C26794   1.674   2.110   0.385 -0.9560 -0.2518 -0.3575
  940MOL0     C26795   1.610   2.190   0.278 -0.0325  0.2828 -0.9534
  940MOL0     O26796   1.482   2.156   0.249  0.4488 -0.5866 -0.6062
  940MOL0     C26797   1.445   2.229   0.139  0.5771 -0.3106 -0.0737
  940MOL0     C26798   1.485   2.191   0.010 -0.2888  0.0177 -0.5493
  940MOL0     C26799   1.433   2.258  -0.104 -0.4346 -0.8000 -0.5643
  940MOL0     C26800   1.333   2.356  -0.083  0.2180 -0.3631 -0.2860
  940MOL0     O26801   1.268   2.406  -0.193 -0.0892 -0.1492  0.7041
  940MOL0     C26802   1.239   2.543  -0.189 -0.1742 -0.1438 -0.4013
  940MOL0     C26803   1.366   2.624  -0.183 -0.0466 -1.0120  0.3040
  940MOL0     C26804   1.342   2.771  -0.202  0.3008  0.0942  0.4857
  940MOL0     C26805   1.482   2.854  -0.205 -0.2671  0.9238  0.3280
  940MOL0     C26806   1.557   2.838  -0.342 -0.5930 -0.6719  0.2396
  940MOL0     C26807   1.705   2.848  -0.338  1.2054  0.3384 -0.2691
  940MOL0     C26808   1.759   2.851  -0.483  1.1841  0.3376  0.9216
  940MOL0     C26809   1.897   2.909  -0.486 -0.7982  0.0803  1.0283
  940MOL0    Cl26810   1.958   2.906  -0.657 -0.5846  0.2366  0.2915
  940MOL0     C26811   1.299   2.397   0.055 -0.4353 -0.9093  0.1379
  940MOL0     C26812   1.355   2.333   0.165  0.2720 -0.1037  0.8330
  940MOL0     O26813   1.686   2.266   0.224  0.6156 -0.7073 -0.8151
  940MOL0     C26814   1.741   1.994   0.341  0.0644  0.0855 -0.4190
  940MOL0     C26815   1.784   1.895   0.429  0.1059 -0.1120 -0.3869
  940MOL0     N26816   1.697   1.366   0.295  0.6780  0.1607  0.1499
  940MOL0     N26817   1.623   1.281   0.235 -0.5236 -0.8778  1.2143
  940MOL0     C26818   1.792   0.769   0.940 -0.0529 -1.7814  0.8483
  940MOL0     C26819   1.828   0.847   1.059 -0.2509 -0.3727 -0.0167
  940MOL0     C26820   1.860   1.095   1.430 -0.8752 -0.4036  0.3274
  940MOL0     C26821   1.847   1.231   1.391  0.4596  0.0676 -0.0772
  940MOL0     C26822   1.880   1.334   1.475 -0.3068 -0.5304  0.1618
  940MOL0     C26823   1.919   1.310   1.608  0.9758  0.0090 -0.1066
  940MOL0     O26824   1.961   1.415   1.684  1.1465  0.5117 -0.2961
  940MOL0     C26825   2.083   1.476   1.653  0.0223  0.3532  0.5321
  940MOL0     C26826   2.195   1.394   1.715 -0.2079  0.0481 -0.2987
  940MOL0     C26827   2.176   1.356   1.864 -0.5197  0.9633 -0.2359
  940MOL0     C26828   2.277   1.259   1.918 -1.2614 -0.0543 -0.0364
  940MOL0     C26829   2.406   1.325   1.928 -0.9327 -0.6713 -0.3810
  940MOL0     C26830   2.509   1.393   1.935  0.0879 -0.7016  0.3030
  940MOL0     C26831   1.919   1.179   1.654  0.6060  0.0193  0.4639
  940MOL0     C26832   1.892   1.076   1.568  0.7993 -0.0854  0.6648
  940MOL0     H26833   1.507   0.908   1.144 -1.2918 -3.8609  0.0812
  940MOL0     H26834   1.465   0.770   0.979  0.2716 -2.1224  0.7102
  940MOL0     H26835   1.673   0.796   0.682 -4.2907  1.4552  1.8102
  940MOL0     H26836   1.773   0.650   0.705 -0.6336  1.2762  2.0350
  940MOL0     H26837   1.672   0.611   0.492 -1.0796 -1.5146 -0.2492
  940MOL0     H26838   1.573   0.505   0.592 -0.2498 -1.3880 -2.0202
  940MOL0     H26839   1.468   0.655   0.436  3.2161 -0.6516 -1.0502
  940MOL0     H26840   1.413   0.706   0.606  1.2885 -2.6700  1.2055
  940MOL0     H26841   1.563   0.917   0.532 -0.3640 -1.2485  1.4697
  940MOL0     H26842   1.601   0.828   0.377  2.2998 -0.5633  2.0042
  940MOL0     H26843   1.405   0.916   0.291 -2.4045  0.4810 -1.3270
  940MOL0     H26844   1.319   0.831   0.402  0.7017 -0.2484 -2.5419
  940MOL0     H26845   1.306   1.027   0.553  0.1804 -0.6306 -0.6395
  940MOL0     H26846   1.467   1.082   0.477  1.2789 -3.1255  0.3074
  940MOL0     H26847   1.192   1.120   0.346  0.4106  0.8337 -1.0207
  940MOL0     H26848   1.268   1.227   0.459 -1.7538 -1.7682  2.2428
  940MOL0     H26849   1.309   1.293   0.230  0.8454  2.4538  3.7629
  940MOL0     H26850   1.391   1.142   0.180  1.9686  1.8494 -1.4810
  940MOL0     H26851   1.415   1.416   0.453  0.7248  0.7723 -0.9514
  940MOL0     H26852   1.727   1.611   0.411 -0.4935 -0.1320 -0.3007
  940MOL0     H26853   1.608   1.594   0.532 -1.7143  0.6194 -3.1916
  940MOL0     H26854   1.889   1.476   0.506 -1.1306 -2.0645 -1.4776
  940MOL0     H26855   1.772   1.383   0.595 -1.2673 -0.2756  0.4658
  940MOL0     H26856   1.897   1.516   0.748 -1.1349 -1.8305 -0.5294
  940MOL0     H26857   1.735   1.589   0.749 -0.5926  0.4869 -0.1001
  940MOL0     H26858   1.928   1.714   0.555 -0.8719 -1.2002  0.0133
  940MOL0     H26859   1.974   1.716   0.728  1.3350  1.3584 -1.8174
  940MOL0     H26860   1.691   2.043   0.719  0.6237  0.6668  0.8949
  940MOL0     H26861   1.660   2.329   0.585 -1.8981  1.7605 -0.1783
  940MOL0     H26862   1.512   2.291   0.490  0.2720  0.7974  0.1740
  940MOL0     H26863   1.526   2.241   0.653  1.1598 -0.0608  0.8686
  940MOL0     H26864   1.557   2.112  -0.010 -0.0306  0.0720  0.1332
  940MOL0     H26865   1.460   2.225  -0.204 -0.7126  0.6703 -1.1429
  940MOL0     H26866   1.196   2.579  -0.283  1.2340  0.9086 -0.6778
  940MOL0     H26867   1.168   2.568  -0.111  0.3041  2.0896 -0.6261
  940MOL0     H26868   1.417   2.598  -0.089  2.2400 -2.8544 -1.3132
  940MOL0     H26869   1.425   2.584  -0.266 -0.4168 -1.9033  0.4596
  940MOL0     H26870   1.270   2.816  -0.134 -2.3824 -3.6576  0.4013
  940MOL0     H26871   1.302   2.793  -0.302 -1.0054  3.3339  1.5954
  940MOL0     H26872   1.468   2.962  -0.191  1.6060  1.3686 -0.9579
  940MOL0     H26873   1.546   2.828  -0.121 -0.1732 -0.2155 -0.0799
  940MOL0     H26874   1.523   2.917  -0.411 -2.6278 -0.2229  1.6494
  940MOL0     H26875   1.533   2.745  -0.394 -2.8847  1.1003 -2.1562
  940MOL0     H26876   1.733   2.941  -0.289 -0.5368 -0.3491  2.2358
  940MOL0     H26877   1.752   2.767  -0.281  3.2334  1.7480  0.1879
  940MOL0     H26878   1.694   2.902  -0.555 -2.2095 -3.8490  0.6206
  940MOL0     H26879   1.747   2.748  -0.517 -0.0857  0.7723 -0.0410
  940MOL0     H26880   1.959   2.847  -0.421 -0.4449 -2.2824 -1.4012
  940MOL0     H26881   1.898   3.015  -0.458  1.4283  0.9975 -1.9307
  940MOL0     H26882   1.221   2.472   0.065 -2.5696 -2.8535 -1.0074
  940MOL0     H26883   1.312   2.345   0.264 -0.0184 -3.1337  1.1764
  940MOL0     H26884   1.759   1.989   0.234  2.5247  0.3609 -0.0728
  940MOL0     H26885   1.831   1.806   0.388  1.5730  0.2173  0.5119
  940MOL0     H26886   1.867   0.734   0.869 -0.0695 -3.0367  1.4253
  940MOL0     H26887   1.933   0.863   1.078 -0.1206 -2.4279  1.2398
  940MOL0     H26888   1.830   1.247   1.285  1.2669 -2.8969 -0.7398
  940MOL0     H26889   1.883   1.432   1.429 -1.3991 -0.1694  0.8163
  940MOL0     H26890   2.091   1.475   1.544  0.3437  0.7460  0.5530
  940MOL0     H26891   2.080   1.575   1.699 -2.7871  2.4154 -3.5453
  940MOL0     H26892   2.291   1.442   1.691  1.3169 -0.4845  3.9183
  940MOL0     H26893   2.193   1.301   1.656 -0.0667  0.0090 -0.2423
  940MOL0     H26894   2.070   1.331   1.877 -0.4830  0.9190 -0.0250
  940MOL0     H26895   2.196   1.453   1.911  1.2918 -0.2186  1.6041
  940MOL0     H26896   2.291   1.177   1.846  2.0918  0.5204 -0.1829
  940MOL0     H26897   2.242   1.222   2.015  1.8740  0.8338  1.5624
  940MOL0     H26898   2.597   1.452   1.948  0.4439 -1.0867 -0.3345
  940MOL0     H26899   1.953   1.152   1.753 -0.3291 -1.3727  0.4336
  940MOL0     H26900   1.914   0.981   1.616  1.5620  1.2071  3.0355
  941MOL0     O26901   8.833   3.827   2.761 -0.1422 -0.0521  0.0308
  941MOL0     C26902   8.766   3.769   2.850 -0.4691 -0.8328  0.3054
  941MOL0     O26903   8.716   3.828   2.964  0.5711  0.2104  0.6897
  941MOL0     C26904   8.739   3.966   2.977  0.0316  0.6564 -0.2221
  941MOL0     C26905   8.635   4.061   3.022  0.9190  0.0899 -0.0499
  941MOL0     C26906   8.663   4.194   3.030  1.1073 -0.1967  0.7042
  941MOL0     C26907   8.792   4.247   2.999 -0.3693 -0.6290 -0.4246
  941MOL0     O26908   8.833   4.382   3.019  0.8090  0.7905  0.1213
  941MOL0     C26909   8.744   4.489   3.008  0.3474  0.1380 -0.1536
  941MOL0     C26910   8.806   4.632   3.035 -0.9361  1.0590 -0.2796
  941MOL0     C26911   8.864   4.685   2.902 -0.7758  0.3374 -0.7269
  941MOL0     C26912   8.900   4.830   2.938 -0.8732 -0.1186  0.3076
  941MOL0     C26913   8.962   4.910   2.829 -0.7080  0.3360 -0.0153
  941MOL0     C26914   9.092   4.849   2.767  0.9864  0.2364 -0.1406
  941MOL0     C26915   9.117   4.936   2.643 -0.4537 -0.1355 -0.6334
  941MOL0     C26916   9.254   4.906   2.584  0.1477  0.3855  0.5176
  941MOL0     N26917   9.298   5.018   2.497  0.5747 -0.5122  0.5953
  941MOL0     C26918   9.252   5.032   2.370  0.8328 -1.2382  0.0585
  941MOL0     C26919   9.342   5.102   2.305 -0.7855 -0.0586  0.5714
  941MOL0     C26920   9.332   5.159   2.165 -0.3479  0.1183 -0.0767
  941MOL0     C26921   9.384   5.070   2.055 -0.4121  0.5655  0.2755
  941MOL0     C26922   9.347   5.138   1.912 -0.4636  0.8931 -0.4996
  941MOL0     C26923   9.199   5.115   1.880 -0.1262 -0.8546 -0.6453
  941MOL0     O26924   9.145   5.152   1.758  0.0066 -0.3833 -0.3888
  941MOL0     C26925   9.175   5.285   1.736  1.2895 -0.2352  1.0431
  941MOL0     C26926   9.174   5.394   1.823  0.4609 -0.0205  0.7678
  941MOL0     C26927   9.207   5.526   1.793 -0.4981 -0.5835 -0.5482
  941MOL0     C26928   9.193   5.629   1.900 -0.6125 -1.5395 -0.8197
  941MOL0     C26929   9.248   5.549   1.660  0.2185  0.0278  0.6963
  941MOL0     C26930   9.283   5.687   1.611  1.4886  1.2944 -0.2376
  941MOL0     O26931   9.404   5.701   1.552 -0.7181  0.2083 -0.1744
  941MOL0     C26932   9.446   5.821   1.501 -0.2941  0.2152  0.2597
  941MOL0     C26933   9.524   5.822   1.390  0.4062 -0.3761  1.2457
  941MOL0     C26934   9.575   5.936   1.332 -0.8227  0.0997 -0.1249
  941MOL0     C26935   9.543   6.064   1.387 -0.4052 -0.1408 -0.7457
  941MOL0     O26936   9.606   6.178   1.337  0.0098 -0.0390 -0.2876
  941MOL0     C26937   9.600   6.198   1.192  0.0315  0.6374 -0.9512
  941MOL0     C26938   9.628   6.340   1.152 -0.6329 -0.2180  0.9111
  941MOL0     C26939   9.544   6.449   1.222 -0.2477  0.4054 -0.3176
  941MOL0     C26940   9.618   6.580   1.224  0.1076 -0.1815  0.6326
  941MOL0     C26941   9.519   6.684   1.284  0.0446 -0.2042  0.0452
  941MOL0     C26942   9.586   6.817   1.303 -0.0622  1.0758 -0.4298
  941MOL0     C26943   9.482   6.908   1.363  0.6937  0.7914  0.6008
  941MOL0     C26944   9.504   7.054   1.349 -0.8341  0.2496  0.5816
  941MOL0    Cl26945   9.637   7.096   1.454 -0.1786 -0.1634 -0.1228
  941MOL0     C26946   9.472   6.071   1.505  0.8762 -0.4084  0.7875
  941MOL0     C26947   9.426   5.947   1.556  0.3314  0.0669  0.9012
  941MOL0     O26948   9.183   5.764   1.616 -0.2516 -0.0718 -0.2867
  941MOL0     C26949   9.248   5.443   1.565 -0.0957  0.1685 -0.0123
  941MOL0     C26950   9.218   5.315   1.610  0.1433 -0.1391 -0.7347
  941MOL0     N26951   9.459   5.123   2.385  0.6759  0.6502  0.8548
  941MOL0     N26952   9.428   5.076   2.505  0.5879 -0.1101 -0.0777
  941MOL0     C26953   8.890   4.155   2.980 -0.1243  0.6295 -0.0473
  941MOL0     C26954   8.867   4.020   2.972 -0.4254  0.3436 -0.2785
  941MOL0     C26955   8.720   3.639   2.812 -0.8059  0.4667  0.5831
  941MOL0     C26956   8.730   3.592   2.685  0.4382  0.1492 -0.4368
  941MOL0     C26957   8.686   3.462   2.651 -0.0921  0.5660 -1.5310
  941MOL0     C26958   8.629   3.380   2.749 -0.2850  0.5737 -0.6233
  941MOL0     O26959   8.605   3.247   2.708  0.4435 -0.5852 -0.5577
  941MOL0     C26960   8.532   3.160   2.788  0.4467 -0.2106 -0.1848
  941MOL0     C26961   8.512   3.028   2.702  0.4609  0.0253  0.1329
  941MOL0     C26962   8.425   2.932   2.787  0.0537 -0.5937  0.5716
  941MOL0     C26963   8.408   2.797   2.721 -0.2782  0.3748  0.1314
  941MOL0     C26964   8.284   2.727   2.761  0.5206 -0.0411  0.2718
  941MOL0     C26965   8.183   2.671   2.801  0.0175  0.0947  0.2906
  941MOL0     C26966   8.618   3.429   2.879  0.1561  0.3528 -0.5418
  941MOL0     C26967   8.654   3.557   2.904  0.2373 -1.2240 -0.3283
  941MOL0     H26968   8.533   4.024   3.027  0.6298  0.9776  0.7819
  941MOL0     H26969   8.581   4.264   3.042  1.2763  0.5790 -2.0780
  941MOL0     H26970   8.696   4.489   2.909 -2.3102  2.5189  1.0001
  941MOL0     H26971   8.665   4.477   3.083  0.4613  0.6611  0.0508
  941MOL0     H26972   8.725   4.698   3.066 -1.6050  0.8939 -1.6367
  941MOL0     H26973   8.878   4.631   3.118 -2.6668 -1.3261  1.3378
  941MOL0     H26974   8.958   4.632   2.889  0.1985  0.9526  2.6992
  941MOL0     H26975   8.797   4.679   2.816  0.0685  2.1605 -1.5667
  941MOL0     H26976   8.807   4.881   2.966 -0.6681 -0.6817  2.1597
  941MOL0     H26977   8.971   4.821   3.021 -2.2072  2.4268  1.8597
  941MOL0     H26978   8.886   4.923   2.751 -0.6540 -0.0438 -0.1328
  941MOL0     H26979   8.996   5.004   2.872 -1.2200  0.5561 -0.0773
  941MOL0     H26980   9.176   4.863   2.837  0.4134  0.7940  0.4507
  941MOL0     H26981   9.083   4.742   2.744  0.4776 -0.1584  1.7180
  941MOL0     H26982   9.046   4.901   2.567 -0.6881 -2.6426  0.6115
  941MOL0     H26983   9.110   5.044   2.660  4.3555  0.1676  0.8804
  941MOL0     H26984   9.245   4.812   2.528 -1.4593  0.6818  0.2120
  941MOL0     H26985   9.329   4.890   2.662  1.2385 -0.5038 -0.6549
  941MOL0     H26986   9.156   5.002   2.330  0.4366 -1.3092  1.0310
  941MOL0     H26987   9.223   5.165   2.163 -0.4785 -1.8550 -0.8253
  941MOL0     H26988   9.383   5.255   2.149 -1.4860  0.5491 -1.2712
  941MOL0     H26989   9.345   4.968   2.049  1.1403  0.0474 -2.2256
  941MOL0     H26990   9.493   5.074   2.061 -0.1101 -3.8918  1.8361
  941MOL0     H26991   9.409   5.087   1.838  0.0035  1.1914 -0.3203
  941MOL0     H26992   9.371   5.245   1.914 -2.5467  1.5334 -3.3535
  941MOL0     H26993   9.136   5.149   1.963  0.0970 -1.8913 -0.0225
  941MOL0     H26994   9.193   5.007   1.891 -2.3315 -0.9127 -2.0561
  941MOL0     H26995   9.117   5.362   1.909 -3.0011  2.5273 -0.3758
  941MOL0     H26996   9.090   5.634   1.937  0.3559  1.3624  1.9629
  941MOL0     H26997   9.261   5.600   1.981 -0.8541  0.1662  0.0434
  941MOL0     H26998   9.215   5.729   1.862 -1.5066 -0.1591  1.9675
  941MOL0     H26999   9.559   5.726   1.352  2.7253 -0.6185  3.7096
  941MOL0     H27000   9.657   5.921   1.263  0.6961  1.7408  1.2108
  941MOL0     H27001   9.671   6.138   1.134  1.7588 -1.6346  3.1038
  941MOL0     H27002   9.494   6.188   1.169 -0.8485  1.8358  2.1302
  941MOL0     H27003   9.734   6.364   1.160 -0.3763 -1.3099  0.8415
  941MOL0     H27004   9.601   6.345   1.046 -2.5045 -1.6905  1.2683
  941MOL0     H27005   9.535   6.409   1.324 -0.6239 -2.3905 -1.3726
  941MOL0     H27006   9.447   6.473   1.179  0.5602  3.8668 -0.5224
  941MOL0     H27007   9.703   6.565   1.291 -0.6406 -3.3225  1.0664
  941MOL0     H27008   9.652   6.630   1.133 -1.0514 -0.0901  0.2206
  941MOL0     H27009   9.475   6.645   1.376 -1.1370  0.5187 -0.2019
  941MOL0     H27010   9.432   6.700   1.220  0.2849  2.1973  0.2338
  941MOL0     H27011   9.664   6.797   1.377 -3.2021  0.0715  2.9341
  941MOL0     H27012   9.635   6.857   1.214 -1.7235  2.1224 -0.9322
  941MOL0     H27013   9.474   6.881   1.469  0.4159  1.0486  0.6432
  941MOL0     H27014   9.384   6.894   1.316  0.5913 -1.1802  1.3025
  941MOL0     H27015   9.419   7.111   1.387 -2.3285 -2.2141  1.1946
  941MOL0     H27016   9.525   7.078   1.244  0.9478 -2.1740  0.2779
  941MOL0     H27017   9.455   6.167   1.552 -2.3571 -0.8874  0.8304
  941MOL0     H27018   9.368   5.936   1.647  1.1872 -0.8876  1.3527
  941MOL0     H27019   9.269   5.456   1.460 -1.4789  1.2647 -0.1906
  941MOL0     H27020   9.213   5.233   1.539 -2.4800 -1.0037  0.3248
  941MOL0     H27021   8.990   4.198   2.981 -1.4051  4.0263  2.3629
  941MOL0     H27022   8.954   3.955   2.966 -0.3347 -0.0339  3.1320
  941MOL0     H27023   8.752   3.665   2.607 -0.9054  0.0121 -0.9731
  941MOL0     H27024   8.701   3.434   2.547 -0.9480  2.0842 -2.0912
  941MOL0     H27025   8.591   3.148   2.879  1.2465  1.2129 -0.4873
  941MOL0     H27026   8.433   3.198   2.811  0.4108  1.1982 -2.3573
  941MOL0     H27027   8.605   2.979   2.675  0.6123  0.9120 -1.0144
  941MOL0     H27028   8.454   3.058   2.614  0.2820  0.8640  0.5170
  941MOL0     H27029   8.326   2.980   2.790 -2.0222 -4.4965  0.9910
  941MOL0     H27030   8.460   2.923   2.890 -0.2471  1.0880  0.8597
  941MOL0     H27031   8.486   2.732   2.762 -0.2585 -0.7875 -1.6572
  941MOL0     H27032   8.418   2.807   2.613  4.0221 -3.1915 -0.0889
  941MOL0     H27033   8.091   2.631   2.836 -0.1565  1.8064  1.9626
  941MOL0     H27034   8.583   3.375   2.966  2.8080 -1.4191 -0.4831
  941MOL0     H27035   8.639   3.585   3.008 -0.7390  3.0721 -1.4686
  942MOL0     O27036   5.954   5.810  10.064 -0.1566 -0.0634 -0.2376
  942MOL0     C27037   5.988   5.845  10.176 -0.2042 -0.3992 -0.4155
  942MOL0     O27038   5.982   5.974  10.226 -0.4783  0.6210  0.5773
  942MOL0     C27039   5.928   6.065  10.149 -0.5705 -0.3282 -0.4223
  942MOL0     C27040   5.835   6.157  10.209 -0.4412 -0.8423  0.5040
  942MOL0     C27041   5.813   6.281  10.140 -0.1457 -0.0675 -0.4112
  942MOL0     C27042   5.864   6.306  10.012  0.6073 -0.0438  1.1219
  942MOL0     O27043   5.801   6.414   9.943  0.8579  0.0295  1.6690
  942MOL0     C27044   5.811   6.411   9.797  0.0161  0.5435 -0.0775
  942MOL0     C27045   5.714   6.500   9.723  0.0036  0.5635 -0.0823
  942MOL0     C27046   5.696   6.644   9.769 -0.1167  0.8505  0.2561
  942MOL0     C27047   5.610   6.733   9.679 -0.6225  0.5960 -0.3692
  942MOL0     C27048   5.599   6.877   9.729  0.5733  0.0259 -0.4400
  942MOL0     C27049   5.555   6.970   9.612 -0.9398 -0.2039 -0.2743
  942MOL0     C27050   5.486   7.095   9.664 -0.7922  0.0038  0.2467
  942MOL0     C27051   5.409   7.164   9.548  0.2980 -0.3657  0.0289
  942MOL0     N27052   5.342   7.291   9.595 -0.6315  0.4018  0.4940
  942MOL0     C27053   5.402   7.399   9.645  0.2359 -0.1369 -0.4979
  942MOL0     C27054   5.300   7.492   9.654 -0.3882  0.4605 -0.5738
  942MOL0     C27055   5.339   7.630   9.710  0.1966  0.8129 -0.4317
  942MOL0     C27056   5.277   7.749   9.620  0.5567  0.7072 -0.5998
  942MOL0     C27057   5.257   7.874   9.698 -0.4940  0.1282 -0.0297
  942MOL0     C27058   5.157   7.855   9.812 -1.1125  0.3616  0.6707
  942MOL0     O27059   5.120   7.981   9.868 -0.0512  0.6981 -0.2603
  942MOL0     C27060   5.153   8.003   9.997 -0.7542 -0.0019  1.0563
  942MOL0     C27061   5.219   8.127  10.031  0.2524  0.2673 -0.3293
  942MOL0     C27062   5.257   8.162  10.161 -0.5416  0.4218 -0.1954
  942MOL0     C27063   5.323   8.293  10.194  0.2346  0.8325  0.7999
  942MOL0     C27064   5.237   8.062  10.261 -0.6427 -0.0669  0.2817
  942MOL0     C27065   5.272   8.073  10.403 -0.1103  0.2291 -0.4058
  942MOL0     O27066   5.220   7.972  10.476 -0.6770 -0.8604 -0.0730
  942MOL0     C27067   5.212   7.996  10.605 -0.5529 -0.2310 -0.1458
  942MOL0     C27068   5.113   8.082  10.640  0.2614  0.2856  0.1867
  942MOL0     C27069   5.085   8.113  10.769 -0.3280 -0.9991 -0.5311
  942MOL0     C27070   5.168   8.055  10.878  0.3607 -0.4203  1.4247
  942MOL0     O27071   5.144   8.073  11.019  0.9639  0.5804 -0.2168
  942MOL0     C27072   5.086   8.202  11.058 -0.7384 -1.0682 -0.5653
  942MOL0     C27073   5.144   8.268  11.186 -0.0538  0.2064  0.5004
  942MOL0     C27074   5.305   8.289  11.174  1.6710 -0.8595  0.2148
  942MOL0     C27075   5.349   8.341  11.315  0.2028 -0.4951  0.0869
  942MOL0     C27076   5.491   8.305  11.345 -0.1063 -0.1132  0.0776
  942MOL0     C27077   5.539   8.345  11.483 -0.3063  0.2609  0.2976
  942MOL0     C27078   5.692   8.326  11.479  0.2737  0.7963  0.1353
  942MOL0     C27079   5.748   8.403  11.604  0.9869  0.1932  0.3480
  942MOL0    Cl27080   5.679   8.323  11.746  0.2609  0.3976 -0.5509
  942MOL0     C27081   5.269   7.966  10.839  0.1402 -0.3186 -0.1925
  942MOL0     C27082   5.290   7.936  10.704 -0.0069 -0.4211 -0.1418
  942MOL0     O27083   5.354   8.157  10.441 -0.2193 -0.0323  0.2656
  942MOL0     C27084   5.174   7.938  10.226  1.0127 -1.3743  0.8419
  942MOL0     C27085   5.117   7.921  10.100  0.0753  0.5708 -0.0166
  942MOL0     N27086   5.181   7.428   9.624  0.3573  0.4484 -1.2796
  942MOL0     N27087   5.203   7.313   9.598  0.1477 -0.2785  0.2699
  942MOL0     C27088   5.943   6.207   9.947 -0.3792  0.2158 -0.4188
  942MOL0     C27089   5.976   6.090  10.022  0.4442  0.3593  0.0924
  942MOL0     C27090   6.045   5.749  10.271  0.3079  0.7098  0.6147
  942MOL0     C27091   6.082   5.789  10.397 -0.0610 -0.3791 -0.1799
  942MOL0     C27092   6.124   5.687  10.493  0.8192  0.0656  0.0815
  942MOL0     C27093   6.138   5.553  10.456 -0.6778 -0.3017 -0.7875
  942MOL0     O27094   6.173   5.466  10.559  0.0495  0.4659  0.0057
  942MOL0     C27095   6.161   5.320  10.534 -0.0123 -0.1314  0.4122
  942MOL0     C27096   6.286   5.249  10.473  0.4465  0.6812 -0.1865
  942MOL0     C27097   6.272   5.096  10.462  0.3777 -0.3709  0.6619
  942MOL0     C27098   6.291   5.015  10.597  0.4262 -0.1548 -0.0690
  942MOL0     C27099   6.238   4.884  10.569 -1.0126 -0.3794  0.3247
  942MOL0     C27100   6.209   4.770  10.558  0.4328  0.1793  0.3291
  942MOL0     C27101   6.104   5.519  10.325 -0.3582  0.7981 -0.4584
  942MOL0     C27102   6.053   5.610  10.232 -0.8722 -0.1698  0.3782
  942MOL0     H27103   5.784   6.151  10.305  0.7053 -3.9654  1.0215
  942MOL0     H27104   5.743   6.351  10.184  1.6592  2.1889 -0.8907
  942MOL0     H27105   5.914   6.443   9.777  1.3933 -2.0746  2.1025
  942MOL0     H27106   5.799   6.310   9.757 -0.1273 -0.1822  1.6823
  942MOL0     H27107   5.745   6.502   9.618  1.6296  0.4810  0.3700
  942MOL0     H27108   5.610   6.466   9.731  0.5866 -1.5624 -0.8026
  942MOL0     H27109   5.655   6.622   9.868  0.6122 -1.3317  0.1247
  942MOL0     H27110   5.793   6.691   9.788 -0.4728  0.8286  2.4324
  942MOL0     H27111   5.654   6.738   9.579  3.3524 -0.2964  1.1822
  942MOL0     H27112   5.510   6.689   9.678  0.2606 -2.0710  4.0048
  942MOL0     H27113   5.525   6.885   9.809 -0.5533  1.1452 -1.5410
  942MOL0     H27114   5.693   6.918   9.767  0.8582  0.3986 -1.4922
  942MOL0     H27115   5.648   6.994   9.559 -0.4324  1.0176  1.1190
  942MOL0     H27116   5.493   6.920   9.537 -1.7780  1.3068 -0.6244
  942MOL0     H27117   5.416   7.070   9.744 -3.0518  2.2122 -0.8835
  942MOL0     H27118   5.570   7.153   9.703  1.3784 -2.4143 -0.5789
  942MOL0     H27119   5.338   7.096   9.500 -2.2139  1.4258  1.0328
  942MOL0     H27120   5.484   7.186   9.471 -0.7332 -0.1546 -0.9340
  942MOL0     H27121   5.505   7.397   9.678 -0.7866  0.6291  3.2956
  942MOL0     H27122   5.323   7.637   9.818  2.8263  0.7575  0.0227
  942MOL0     H27123   5.445   7.656   9.705 -0.1723  3.1788  1.7408
  942MOL0     H27124   5.184   7.720   9.571  1.4507  0.1443 -2.0083
  942MOL0     H27125   5.338   7.760   9.530  2.8711 -0.3767  0.7109
  942MOL0     H27126   5.222   7.948   9.625 -3.1884 -1.8801 -0.9831
  942MOL0     H27127   5.356   7.915   9.719  0.7566 -1.1705 -2.9353
  942MOL0     H27128   5.198   7.789   9.889 -0.1604 -0.9876 -0.9234
  942MOL0     H27129   5.066   7.805   9.778 -0.7385  1.7011 -2.6887
  942MOL0     H27130   5.231   8.197   9.949 -0.5295  1.0450  0.2090
  942MOL0     H27131   5.352   8.334  10.096 -0.9503 -1.4143 -0.5787
  942MOL0     H27132   5.251   8.357  10.245 -3.2590 -0.8799 -1.5887
  942MOL0     H27133   5.416   8.287  10.251  0.5660 -2.1868  0.0917
  942MOL0     H27134   5.051   8.125  10.563 -1.8728 -2.0730  0.4511
  942MOL0     H27135   5.003   8.182  10.787  0.5527 -0.4022  1.4646
  942MOL0     H27136   5.099   8.281  10.983 -3.4688  1.2077  1.1356
  942MOL0     H27137   4.977   8.194  11.069 -1.3674  3.6288 -1.0508
  942MOL0     H27138   5.098   8.363  11.215  0.9482  0.7507  0.3540
  942MOL0     H27139   5.115   8.194  11.262  0.0598 -2.9804 -2.3424
  942MOL0     H27140   5.336   8.358  11.096  0.4611 -1.5120 -0.8848
  942MOL0     H27141   5.343   8.189  11.151 -1.8611 -2.2477 -0.1493
  942MOL0     H27142   5.338   8.450  11.321 -0.5351 -0.4150 -1.9885
  942MOL0     H27143   5.283   8.300  11.393 -0.3885  1.7317  0.8495
  942MOL0     H27144   5.553   8.348  11.266  1.9302 -1.4451  0.8484
  942MOL0     H27145   5.498   8.196  11.338  1.9710 -0.2001  2.2890
  942MOL0     H27146   5.513   8.450  11.501 -1.0978  0.3318 -1.1007
  942MOL0     H27147   5.489   8.289  11.562  1.0476  0.2766  1.1972
  942MOL0     H27148   5.739   8.376  11.395  1.2210 -1.0957 -0.5285
  942MOL0     H27149   5.716   8.219  11.469 -1.0483  0.5662 -0.8421
  942MOL0     H27150   5.713   8.506  11.599  0.8788  0.1357 -0.0568
  942MOL0     H27151   5.858   8.397  11.607  1.0303  0.9078  0.4235
  942MOL0     H27152   5.315   7.921  10.927 -1.5676 -0.2839  0.7531
  942MOL0     H27153   5.381   7.887  10.674  0.7087  0.4026  0.6264
  942MOL0     H27154   5.145   7.859  10.294 -0.2472 -3.9964 -2.5173
  942MOL0     H27155   5.071   7.824  10.086  0.8077  0.4740 -2.1242
  942MOL0     H27156   5.995   6.209   9.851  1.5955 -1.6472  0.5256
  942MOL0     H27157   6.054   6.023   9.988  2.0095  1.1491  1.9469
  942MOL0     H27158   6.068   5.889  10.438 -0.3093 -1.9220  3.9294
  942MOL0     H27159   6.138   5.720  10.595 -0.7800  2.1985 -0.3179
  942MOL0     H27160   6.149   5.279  10.635 -0.1502 -3.7481 -0.9430
  942MOL0     H27161   6.075   5.293  10.473 -0.3005 -1.1571  1.2486
  942MOL0     H27162   6.374   5.266  10.535 -0.1223  1.9472  0.2939
  942MOL0     H27163   6.311   5.292  10.376  0.7027  1.1289  0.0778
  942MOL0     H27164   6.350   5.062  10.394 -1.2211  0.3666 -1.6732
  942MOL0     H27165   6.176   5.078  10.414  0.9487 -1.5618 -0.0504
  942MOL0     H27166   6.242   5.061  10.683 -0.9261 -0.5048 -0.6220
  942MOL0     H27167   6.395   5.007  10.628  0.0892 -0.4315  1.0308
  942MOL0     H27168   6.198   4.664  10.551 -0.5009  0.3553 -1.4993
  942MOL0     H27169   6.121   5.414  10.305  0.7935  0.1650  3.1331
  942MOL0     H27170   6.012   5.578  10.137 -0.5710  1.4582 -0.3290
  943MOL0     O27171  11.135   9.400   9.332  0.0010  0.3725 -0.3699
  943MOL0     C27172  11.197   9.431   9.431  0.3397 -0.5164  1.0648
  943MOL0     O27173  11.142   9.461   9.556  0.0595 -0.3604  0.6239
  943MOL0     C27174  11.015   9.489   9.582 -0.8545 -0.9381  0.2875
  943MOL0     C27175  10.915   9.507   9.480 -0.1980  0.0331 -0.5293
  943MOL0     C27176  10.796   9.553   9.525  0.3667  0.0111  0.6531
  943MOL0     C27177  10.762   9.568   9.658 -0.1730  0.6156 -0.0657
  943MOL0     O27178  10.636   9.614   9.686 -0.8491 -0.4962 -0.3094
  943MOL0     C27179  10.615   9.705   9.796 -0.0616  0.4508  0.1790
  943MOL0     C27180  10.562   9.839   9.737 -0.2425 -0.6388  0.1325
  943MOL0     C27181  10.532   9.950   9.844 -0.0861  1.0509 -0.2055
  943MOL0     C27182  10.513  10.087   9.779  0.0880  0.4940 -0.8984
  943MOL0     C27183  10.456  10.188   9.872  0.1114 -0.0519 -0.4009
  943MOL0     C27184  10.400  10.311   9.806  0.8982 -0.2218 -0.4499
  943MOL0     C27185  10.364  10.423   9.901  0.7558 -0.3988  0.0941
  943MOL0     C27186  10.330  10.548   9.815  0.6650  0.4076 -0.4680
  943MOL0     N27187  10.233  10.639   9.877  0.1242  0.0953 -0.2585
  943MOL0     C27188  10.199  10.656  10.007 -0.3220  0.1294  0.5691
  943MOL0     C27189  10.107  10.758  10.005  0.2787  0.0545 -0.5928
  943MOL0     C27190  10.032  10.820  10.130  0.7337 -0.8415 -0.3352
  943MOL0     C27191   9.894  10.748  10.147 -1.2964 -0.1567  0.3840
  943MOL0     C27192   9.840  10.765  10.287  0.5885  0.0061  0.1099
  943MOL0     C27193   9.688  10.769  10.297 -0.2859  0.2240 -0.6725
  943MOL0     O27194   9.640  10.884  10.224  0.4169 -0.1210  0.0714
  943MOL0     C27195   9.498  10.907  10.228 -0.5220  0.0549 -0.1458
  943MOL0     C27196   9.440  10.999  10.142 -0.6843  0.0827  0.1960
  943MOL0     C27197   9.298  11.025  10.154  0.1134  0.2857  0.0395
  943MOL0     C27198   9.245  11.135  10.061  0.0398  0.3665 -0.2487
  943MOL0     C27199   9.209  10.958  10.247  1.3736 -0.1051 -0.4741
  943MOL0     C27200   9.065  10.977  10.273 -0.6977  1.0779 -0.6731
  943MOL0     O27201   9.012  10.985  10.405 -0.4902 -0.0729  0.1654
  943MOL0     C27202   8.875  10.986  10.422  0.3949 -1.1968 -0.5882
  943MOL0     C27203   8.792  11.081  10.354  0.1063 -0.9653 -0.0066
  943MOL0     C27204   8.652  11.085  10.388 -0.3225  0.0451  0.3857
  943MOL0     C27205   8.598  10.982  10.467 -0.6424  0.7256  0.4728
  943MOL0     O27206   8.461  10.976  10.491 -0.3326  0.1800  0.3302
  943MOL0     C27207   8.379  11.069  10.421  1.5382 -0.2687 -0.1486
  943MOL0     C27208   8.223  11.052  10.456 -0.6636 -0.8974  0.7488
  943MOL0     C27209   8.183  10.902  10.442  0.3465 -0.0396 -1.2275
  943MOL0     C27210   8.048  10.884  10.369 -0.1634  0.0833  0.1445
  943MOL0     C27211   7.994  10.741  10.379  0.3942 -0.2894 -0.1499
  943MOL0     C27212   8.037  10.649  10.268 -0.6657  0.2389 -0.0607
  943MOL0     C27213   7.961  10.519  10.255  0.2001  0.3965  0.5417
  943MOL0     C27214   8.009  10.415  10.156 -0.3904  0.1138  0.6765
  943MOL0    Cl27215   7.901  10.278  10.163  0.1150  0.2216 -0.0305
  943MOL0     C27216   8.682  10.889  10.527  0.4597 -0.6958 -0.5536
  943MOL0     C27217   8.817  10.888  10.503  0.3445  0.8520 -0.8779
  943MOL0     O27218   9.000  10.991  10.167 -0.3881  0.2625 -0.0477
  943MOL0     C27219   9.270  10.871  10.332 -0.1658  0.3599  0.4931
  943MOL0     C27220   9.410  10.834  10.310  0.3820 -0.1957 -0.8311
  943MOL0     N27221  10.097  10.805   9.876  0.2086 -0.2280  0.4579
  943MOL0     N27222  10.175  10.735   9.806  0.4200  1.0050 -0.4017
  943MOL0     C27223  10.866   9.557   9.755  0.1072  0.1670  0.3548
  943MOL0     C27224  10.990   9.510   9.720  0.9788 -0.1371  0.4104
  943MOL0     C27225  11.345   9.442   9.424  0.2677 -0.2518  0.3528
  943MOL0     C27226  11.415   9.410   9.307 -0.2088  0.3602 -0.9857
  943MOL0     C27227  11.555   9.395   9.313  0.1724  0.3834 -0.3053
  943MOL0     C27228  11.626   9.406   9.435 -1.0731 -0.8659  0.5684
  943MOL0     O27229  11.758   9.393   9.448 -0.7661 -0.4752 -0.4396
  943MOL0     C27230  11.824   9.299   9.357  0.9166  0.2068  0.1733
  943MOL0     C27231  11.949   9.234   9.403 -0.0673  0.3264 -0.7452
  943MOL0     C27232  11.995   9.121   9.316 -0.1471  0.0743  0.9540
  943MOL0     C27233  12.143   9.141   9.284 -0.2360 -0.6606  0.8118
  943MOL0     C27234  12.221   9.060   9.368 -0.1490  0.0006  0.1320
  943MOL0     C27235  12.287   8.975   9.423 -0.3572 -0.0723  0.8118
  943MOL0     C27236  11.557   9.453   9.552 -0.5249 -0.5736  0.2095
  943MOL0     C27237  11.418   9.468   9.548 -0.7604 -0.7387  0.3063
  943MOL0     H27238  10.927   9.498   9.373 -1.2998  0.1179 -0.6688
  943MOL0     H27239  10.720   9.564   9.449 -0.1300  0.5201  1.2090
  943MOL0     H27240  10.546   9.668   9.872 -0.0098  0.9903  0.4914
  943MOL0     H27241  10.704   9.729   9.855 -0.4598  3.8414 -0.4035
  943MOL0     H27242  10.633   9.875   9.662 -0.4249 -1.2401 -0.3340
  943MOL0     H27243  10.465   9.807   9.697  0.8162 -2.6950 -0.8956
  943MOL0     H27244  10.439   9.919   9.892  1.3456 -2.9202  0.4045
  943MOL0     H27245  10.613   9.955   9.917  0.6846  0.3539 -0.9877
  943MOL0     H27246  10.599  10.127   9.726 -1.0526  2.6450 -1.2444
  943MOL0     H27247  10.440  10.069   9.700 -0.3436  0.3993 -0.4836
  943MOL0     H27248  10.380  10.151   9.941  1.0333  0.3007  0.8254
  943MOL0     H27249  10.545  10.215   9.930  0.7334  0.0660 -1.3778
  943MOL0     H27250  10.478  10.349   9.740 -1.3770  1.0217 -2.5938
  943MOL0     H27251  10.316  10.277   9.744  1.2692  1.1128 -1.7272
  943MOL0     H27252  10.277  10.397   9.961  0.7224  0.7304  0.5603
  943MOL0     H27253  10.442  10.449   9.973  1.2479  0.8242 -0.8339
  943MOL0     H27254  10.299  10.517   9.715  1.1425  0.0125 -0.4975
  943MOL0     H27255  10.428  10.594   9.798  1.0193  0.4473  1.4198
  943MOL0     H27256  10.232  10.607  10.098  1.7932  1.7089  0.7417
  943MOL0     H27257  10.096  10.821  10.218  2.0861 -3.8190 -1.1510
  943MOL0     H27258  10.008  10.925  10.114  1.7972 -0.7285 -1.3822
  943MOL0     H27259   9.909  10.643  10.123  2.4269  0.4084 -0.3138
  943MOL0     H27260   9.825  10.793  10.075 -1.2615 -1.9786 -0.8470
  943MOL0     H27261   9.883  10.861  10.318 -1.1205  0.7314  0.3000
  943MOL0     H27262   9.878  10.683  10.349  3.2192 -0.1084 -1.5103
  943MOL0     H27263   9.653  10.772  10.401  1.9608  0.0121  0.1454
  943MOL0     H27264   9.650  10.679  10.247  1.7989 -0.6735 -0.7391
  943MOL0     H27265   9.495  11.060  10.071 -0.4264 -2.2612 -1.7127
  943MOL0     H27266   9.189  11.209  10.119  0.6397 -0.3593  1.2998
  943MOL0     H27267   9.325  11.180  10.001  1.9243 -0.9886  1.1419
  943MOL0     H27268   9.168  11.095   9.994  1.3039 -0.3288 -1.3115
  943MOL0     H27269   8.841  11.160  10.298  0.7835 -0.0625  1.7846
  943MOL0     H27270   8.594  11.167  10.347 -1.3953 -0.7432  0.2822
  943MOL0     H27271   8.401  11.171  10.453  3.0841 -0.1465 -1.4932
  943MOL0     H27272   8.387  11.054  10.313 -2.0490  0.2425 -0.5938
  943MOL0     H27273   8.209  11.074  10.562  2.7517  2.7972  0.6666
  943MOL0     H27274   8.158  11.110  10.390  2.4369  0.9073 -0.9812
  943MOL0     H27275   8.173  10.867  10.545  0.2387  0.2587 -1.1383
  943MOL0     H27276   8.270  10.845  10.407  2.2228 -0.7542  3.8346
  943MOL0     H27277   7.972  10.950  10.412  1.1613  0.5188  1.9450
  943MOL0     H27278   8.057  10.913  10.264  1.4186  0.6266  0.4068
  943MOL0     H27279   7.885  10.744  10.389  0.4878  2.0093  0.8037
  943MOL0     H27280   8.031  10.702  10.474 -3.1847 -0.3846  1.3544
  943MOL0     H27281   8.027  10.708  10.176 -2.5136  0.5186  0.2766
  943MOL0     H27282   8.141  10.619  10.283  0.6446  3.0375 -2.5529
  943MOL0     H27283   7.857  10.552  10.243  0.4070  0.6163 -0.8153
  943MOL0     H27284   7.965  10.486  10.360 -0.3624  4.2128  1.9066
  943MOL0     H27285   8.108  10.391  10.193  0.4090  3.4095  0.9778
  943MOL0     H27286   8.016  10.453  10.053 -2.1650 -1.4721 -0.1081
  943MOL0     H27287   8.632  10.806  10.576 -3.5476  1.9565  0.3550
  943MOL0     H27288   8.869  10.806  10.552 -0.6334  1.8267  2.0207
  943MOL0     H27289   9.219  10.815  10.409  0.5532  0.9646  1.4367
  943MOL0     H27290   9.442  10.755  10.377 -2.4953 -0.3657  0.4473
  943MOL0     H27291  10.836   9.580   9.856  2.2213  2.3478  0.5842
  943MOL0     H27292  11.069   9.499   9.795  0.5787 -0.2626  0.8222
  943MOL0     H27293  11.358   9.389   9.217 -0.9496 -2.3231  0.0223
  943MOL0     H27294  11.604   9.385   9.216 -0.1157  0.3590 -0.4475
  943MOL0     H27295  11.746   9.232   9.319 -2.2759  4.2234 -1.0774
  943MOL0     H27296  11.856   9.353   9.267  0.0954 -2.2775 -1.7288
  943MOL0     H27297  11.916   9.185   9.496 -2.8378 -0.9062 -2.2594
  943MOL0     H27298  12.017   9.317   9.423 -2.3551  1.8450  1.2701
  943MOL0     H27299  11.947   9.147   9.221 -0.7505 -0.6158  1.0634
  943MOL0     H27300  11.968   9.016   9.330  0.3486 -1.0220 -4.2035
  943MOL0     H27301  12.173   9.245   9.299  2.3869 -1.1671 -0.3362
  943MOL0     H27302  12.159   9.098   9.185 -2.5619  0.2412 -0.0241
  943MOL0     H27303  12.350   8.900   9.465 -0.1910 -0.1714  0.3917
  943MOL0     H27304  11.607   9.470   9.646  0.1776  1.1621 -0.4423
  943MOL0     H27305  11.366   9.485   9.642 -1.3553 -0.0243 -0.1346
  944MOL0     O27306  10.136  11.200   2.874  0.1378  1.2626  0.5529
  944MOL0     C27307  10.054  11.295   2.873  0.0880  0.4894  0.6355
  944MOL0     O27308  10.089  11.425   2.848 -0.4070 -0.5185 -0.4433
  944MOL0     C27309  10.223  11.448   2.835 -0.4956 -0.6062  0.9933
  944MOL0     C27310  10.271  11.454   2.703  0.1138  0.5684 -0.3183
  944MOL0     C27311  10.401  11.503   2.677 -0.0608 -0.7877  0.3183
  944MOL0     C27312  10.478  11.557   2.784 -0.2528  0.5846  0.4010
  944MOL0     O27313  10.600  11.613   2.750  0.4120  0.6691  0.3684
  944MOL0     C27314  10.690  11.659   2.850 -0.3332 -0.5960 -0.1320
  944MOL0     C27315  10.820  11.690   2.781 -0.5877 -0.1196 -0.8358
  944MOL0     C27316  10.909  11.572   2.727 -0.4171 -0.6359 -0.6798
  944MOL0     C27317  11.026  11.536   2.830  0.2386 -0.5896  0.4517
  944MOL0     C27318  11.128  11.431   2.767  0.2657 -0.0293 -1.0810
  944MOL0     C27319  11.079  11.284   2.784 -0.4880  0.2201 -0.8926
  944MOL0     C27320  11.121  11.227   2.919  0.0380  0.1019  0.4854
  944MOL0     C27321  11.078  11.078   2.919 -0.9822  0.0085 -0.5144
  944MOL0     N27322  11.123  11.006   3.043  0.3734 -0.4931 -0.5052
  944MOL0     C27323  11.103  11.040   3.176 -0.0091 -0.5158 -0.1902
  944MOL0     C27324  11.123  10.923   3.240 -0.8448  0.3166  0.1176
  944MOL0     C27325  11.126  10.917   3.393 -0.8230  0.3997 -0.1547
  944MOL0     C27326  11.001  10.853   3.442 -0.6031  0.0286 -0.0917
  944MOL0     C27327  10.872  10.939   3.427 -1.0374 -0.5578  1.0535
  944MOL0     C27328  10.749  10.867   3.485  0.5198  0.5349  0.6832
  944MOL0     O27329  10.642  10.958   3.499 -0.3774  0.0147  0.8968
  944MOL0     C27330  10.525  10.903   3.558 -1.2038 -0.0842 -0.1493
  944MOL0     C27331  10.415  10.898   3.476  0.5500  0.4927  0.4324
  944MOL0     C27332  10.290  10.872   3.526 -1.0597 -0.3303 -0.2559
  944MOL0     C27333  10.178  10.862   3.431 -0.2951 -0.1509 -0.5785
  944MOL0     C27334  10.278  10.823   3.660 -0.1329  0.3379 -0.8814
  944MOL0     C27335  10.155  10.786   3.726 -0.2429  0.2468 -0.3430
  944MOL0     O27336  10.136  10.661   3.782  0.3607  0.2394 -0.2539
  944MOL0     C27337  10.011  10.634   3.842  0.3592  0.4481  0.5121
  944MOL0     C27338   9.948  10.705   3.941  0.4501 -0.4568 -0.5207
  944MOL0     C27339   9.817  10.663   3.988  0.5923 -0.1902 -1.1615
  944MOL0     C27340   9.759  10.545   3.938  0.7499  0.1974 -0.4631
  944MOL0     O27341   9.628  10.509   3.978 -0.2904 -0.6695  0.9868
  944MOL0     C27342   9.618  10.390   4.061  0.0760 -1.5632  0.0531
  944MOL0     C27343   9.616  10.426   4.204 -0.6118 -0.7240 -0.6785
  944MOL0     C27344   9.489  10.394   4.285  0.3506 -0.1276  0.1621
  944MOL0     C27345   9.502  10.421   4.435  0.3347 -0.3884 -0.1817
  944MOL0     C27346   9.384  10.368   4.516  0.5925  0.2656 -1.1186
  944MOL0     C27347   9.409  10.338   4.663 -0.1936  0.2899  0.7547
  944MOL0     C27348   9.282  10.332   4.752  0.2523  0.6737  0.3251
  944MOL0     C27349   9.298  10.379   4.896 -0.2194  0.0827  0.9489
  944MOL0    Cl27350   9.321  10.221   4.990  0.5577  0.2633 -0.2583
  944MOL0     C27351   9.830  10.473   3.849 -0.2794 -0.9551  0.0730
  944MOL0     C27352   9.957  10.513   3.801  0.8594 -0.3850 -0.0393
  944MOL0     O27353  10.070  10.883   3.738  0.2427 -0.3542 -0.1763
  944MOL0     C27354  10.393  10.810   3.735 -1.1671  0.1188  0.8427
  944MOL0     C27355  10.515  10.858   3.692  0.6005 -0.0079  0.6613
  944MOL0     N27356  11.163  10.828   3.149  0.0854  0.1111  0.1988
  944MOL0     N27357  11.160  10.871   3.031  0.2541  0.7042  0.0003
  944MOL0     C27358  10.428  11.551   2.916  0.1881  1.3654 -0.4996
  944MOL0     C27359  10.295  11.504   2.938 -0.1236  0.7791  0.2579
  944MOL0     C27360   9.913  11.269   2.909 -0.4902  0.1092 -0.0942
  944MOL0     C27361   9.860  11.150   2.970 -1.1133 -1.3248 -0.1049
  944MOL0     C27362   9.726  11.133   2.992 -0.2179 -0.6580 -0.5858
  944MOL0     C27363   9.638  11.240   2.962  0.0181 -0.1591 -0.7399
  944MOL0     O27364   9.508  11.227   2.994 -0.5899 -0.8540 -0.1184
  944MOL0     C27365   9.457  11.103   3.056 -0.0627  0.4620 -0.2351
  944MOL0     C27366   9.304  11.111   3.059  0.3883  1.2424 -0.3659
  944MOL0     C27367   9.248  11.228   3.134  0.0813 -0.2181  0.2568
  944MOL0     C27368   9.318  11.235   3.271 -0.3224  0.0989 -0.1039
  944MOL0     C27369   9.284  11.120   3.356  0.5808 -0.0542  0.0095
  944MOL0     C27370   9.245  11.031   3.429 -0.3450  1.0283  0.0220
  944MOL0     C27371   9.680  11.350   2.891  0.7676 -0.1259 -0.1779
  944MOL0     C27372   9.817  11.365   2.871 -0.1090  0.3319  0.6685
  944MOL0     H27373  10.194  11.431   2.630 -0.3943  2.5232 -0.4732
  944MOL0     H27374  10.422  11.497   2.571 -1.0257 -1.9507  0.1717
  944MOL0     H27375  10.657  11.755   2.893  2.8442  1.6667 -2.3060
  944MOL0     H27376  10.710  11.580   2.923 -1.2142 -2.5837 -1.9427
  944MOL0     H27377  10.791  11.764   2.705 -0.7724 -0.1246 -0.7723
  944MOL0     H27378  10.882  11.742   2.854 -3.9181  1.9916  0.7670
  944MOL0     H27379  10.852  11.488   2.686 -1.0356 -0.3607 -0.3969
  944MOL0     H27380  10.956  11.622   2.643 -0.2411  1.1948  0.4536
  944MOL0     H27381  11.082  11.627   2.851 -0.0726  0.7764 -3.6948
  944MOL0     H27382  10.984  11.491   2.921 -1.8300 -1.2872 -0.7798
  944MOL0     H27383  11.140  11.454   2.661  0.9614 -1.9046 -1.4427
  944MOL0     H27384  11.218  11.438   2.829  0.7472 -2.8558 -1.3180
  944MOL0     H27385  10.970  11.272   2.786 -0.3416 -1.7205 -2.1947
  944MOL0     H27386  11.112  11.215   2.706 -0.1525  0.7685 -1.2379
  944MOL0     H27387  11.228  11.244   2.937 -0.4575  2.3952  1.6921
  944MOL0     H27388  11.063  11.264   3.004  1.9181 -0.3203  2.0253
  944MOL0     H27389  11.110  11.023   2.831 -0.8268 -0.3179 -0.2569
  944MOL0     H27390  10.969  11.086   2.926 -0.9700 -0.3980  0.3022
  944MOL0     H27391  11.060  11.126   3.227  0.5071  0.1942 -0.9232
  944MOL0     H27392  11.214  10.870   3.440 -1.4397  0.5335  1.1691
  944MOL0     H27393  11.131  11.021   3.427 -0.5405  0.8148 -1.4434
  944MOL0     H27394  11.019  10.836   3.548  0.9729 -0.7268 -0.4569
  944MOL0     H27395  10.993  10.755   3.395 -2.1366 -0.1616  0.4899
  944MOL0     H27396  10.856  10.968   3.323 -0.0867 -1.6488  0.5791
  944MOL0     H27397  10.881  11.032   3.483 -1.4712  1.8651 -2.5508
  944MOL0     H27398  10.786  10.820   3.577  2.9468 -1.9186 -1.3637
  944MOL0     H27399  10.716  10.785   3.420  1.7349  0.4110  0.1852
  944MOL0     H27400  10.435  10.923   3.373  1.6608 -3.3396 -0.4029
  944MOL0     H27401  10.194  10.877   3.324  0.2535 -2.3528 -0.8540
  944MOL0     H27402  10.159  10.755   3.443  2.0798 -0.4060  1.9526
  944MOL0     H27403  10.094  10.923   3.466 -2.6168 -2.4938 -1.6835
  944MOL0     H27404   9.997  10.794   3.978 -1.6326 -0.5315  2.8286
  944MOL0     H27405   9.751  10.714   4.058  1.8009  1.0891 -0.8948
  944MOL0     H27406   9.528  10.336   4.028  1.3907 -3.5273 -0.4591
  944MOL0     H27407   9.699  10.318   4.049  0.1897 -1.3487 -0.5591
  944MOL0     H27408   9.709  10.382   4.242 -0.8029  1.4262  2.7734
  944MOL0     H27409   9.629  10.533   4.224 -2.6011 -0.6551  0.4650
  944MOL0     H27410   9.472  10.286   4.276  2.0509 -0.7258  2.8157
  944MOL0     H27411   9.407  10.448   4.238 -0.7067 -1.1387  0.8110
  944MOL0     H27412   9.596  10.374   4.466  2.1088  0.4502 -3.7416
  944MOL0     H27413   9.514  10.526   4.463  0.3064 -0.9706  2.1401
  944MOL0     H27414   9.338  10.282   4.469  2.3650 -1.0861 -0.5108
  944MOL0     H27415   9.308  10.446   4.505 -1.4916 -1.7291 -1.5341
  944MOL0     H27416   9.471  10.248   4.674  0.2485  0.7317  2.2244
  944MOL0     H27417   9.473  10.420   4.700 -0.3740  0.2531  1.1477
  944MOL0     H27418   9.232  10.235   4.746  0.0981  0.8469 -1.9750
  944MOL0     H27419   9.208  10.404   4.716  0.4318  1.1882  0.9499
  944MOL0     H27420   9.206  10.434   4.919 -1.6495 -0.4306 -2.8666
  944MOL0     H27421   9.384  10.445   4.909 -1.9734  2.7185  0.1177
  944MOL0     H27422   9.763  10.402   3.800 -2.3945  0.0252  1.4078
  944MOL0     H27423  10.012  10.457   3.726  1.4273  2.6109 -2.0213
  944MOL0     H27424  10.387  10.755   3.829 -1.4135 -1.1951  0.0753
  944MOL0     H27425  10.598  10.856   3.762 -1.2802 -2.0394  3.0292
  944MOL0     H27426  10.489  11.597   2.993  0.0240 -1.7924  1.7634
  944MOL0     H27427  10.240  11.493   3.031 -1.2817 -0.7620 -0.5538
  944MOL0     H27428   9.932  11.070   2.990  1.6560 -0.0132 -3.7025
  944MOL0     H27429   9.689  11.038   3.031 -0.2228  0.1805  1.6405
  944MOL0     H27430   9.481  11.016   2.994  0.8035 -0.8375  1.8325
  944MOL0     H27431   9.493  11.082   3.157  0.2105  0.7296 -0.2754
  944MOL0     H27432   9.271  11.023   3.115  1.9831  0.1914 -1.0048
  944MOL0     H27433   9.261  11.099   2.959 -2.2108  1.3890  0.6508
  944MOL0     H27434   9.142  11.216   3.158 -0.7922  3.0179 -1.3300
  944MOL0     H27435   9.266  11.323   3.084  1.7658  0.8585  2.7172
  944MOL0     H27436   9.290  11.313   3.342 -0.5853 -2.1312  2.3947
  944MOL0     H27437   9.424  11.255   3.250 -0.3593  0.0272 -0.3630
  944MOL0     H27438   9.215  10.944   3.483 -1.5009 -1.4776 -4.1953
  944MOL0     H27439   9.602  11.422   2.867  2.4108  1.4471 -1.1166
  944MOL0     H27440   9.852  11.457   2.824 -4.6248  2.0526  0.2162
  945MOL0     O27441   7.065   4.208   7.262 -0.1851 -0.5240  0.0200
  945MOL0     C27442   7.138   4.266   7.350 -0.5543 -0.6484 -0.2348
  945MOL0     O27443   7.093   4.293   7.478 -0.0141  0.0749  0.6557
  945MOL0     C27444   6.957   4.312   7.496 -0.0599 -0.5718 -0.2987
  945MOL0     C27445   6.877   4.402   7.420 -0.5849 -0.7424  0.4651
  945MOL0     C27446   6.733   4.408   7.437 -0.0118  1.0862  0.5828
  945MOL0     C27447   6.666   4.324   7.533  0.4070 -0.2662  0.4904
  945MOL0     O27448   6.532   4.328   7.557  0.0225  0.0332  0.8496
  945MOL0     C27449   6.439   4.379   7.461  0.0585 -0.0211  0.7653
  945MOL0     C27450   6.293   4.359   7.514  0.0683  0.3677 -1.1339
  945MOL0     C27451   6.194   4.321   7.405  0.6997 -0.2034  0.4219
  945MOL0     C27452   6.155   4.431   7.305 -0.4238  0.2858  1.3520
  945MOL0     C27453   6.123   4.577   7.354 -0.0797  0.2708 -0.2291
  945MOL0     C27454   5.982   4.582   7.427  0.1543  0.8066  1.5294
  945MOL0     C27455   5.951   4.733   7.451 -0.3033 -0.1532  0.7746
  945MOL0     C27456   5.830   4.775   7.532 -0.3104 -0.0947  0.4149
  945MOL0     N27457   5.701   4.763   7.475  0.4657  0.1506 -0.4959
  945MOL0     C27458   5.596   4.684   7.511  0.4702  0.9135  0.3412
  945MOL0     C27459   5.504   4.696   7.405  0.8622  0.0380 -0.0139
  945MOL0     C27460   5.372   4.624   7.387  0.1795 -0.5076  0.6981
  945MOL0     C27461   5.378   4.471   7.363  0.6775 -0.1989 -0.1746
  945MOL0     C27462   5.424   4.442   7.221 -0.5587 -0.6920 -1.4668
  945MOL0     C27463   5.496   4.311   7.222 -0.7801  0.5269 -0.3154
  945MOL0     O27464   5.424   4.186   7.244 -0.0784 -0.2798  0.1140
  945MOL0     C27465   5.341   4.153   7.136  1.1919  0.3471 -0.2871
  945MOL0     C27466   5.219   4.089   7.178  0.0343 -0.9425  0.3812
  945MOL0     C27467   5.134   4.042   7.077  0.5776  1.1349 -0.3940
  945MOL0     C27468   4.995   3.977   7.121  0.6310  0.3816  0.4037
  945MOL0     C27469   5.175   4.042   6.937 -0.3520 -0.4710  0.4771
  945MOL0     C27470   5.108   3.952   6.843 -0.3346 -0.9989  0.0244
  945MOL0     O27471   5.062   4.004   6.723 -0.3843 -0.0640 -0.4187
  945MOL0     C27472   5.033   3.921   6.622 -0.1728 -0.4444 -0.7678
  945MOL0     C27473   4.903   3.882   6.603 -1.4221  0.8704  0.0152
  945MOL0     C27474   4.863   3.810   6.490  0.0467 -1.0744  0.1131
  945MOL0     C27475   4.958   3.783   6.392 -0.8586 -0.9272  0.9762
  945MOL0     O27476   4.943   3.709   6.277  0.2963  0.2810 -0.1774
  945MOL0     C27477   4.814   3.659   6.248  0.1944  0.2667  1.0424
  945MOL0     C27478   4.723   3.779   6.198 -0.5920  1.0573 -0.3560
  945MOL0     C27479   4.713   3.778   6.047 -0.2965  0.1891  0.7676
  945MOL0     C27480   4.686   3.911   5.982 -0.7594  0.2284  0.7148
  945MOL0     C27481   4.531   3.942   5.990 -0.2285 -0.0775  0.0771
  945MOL0     C27482   4.493   4.004   6.117 -0.2295 -0.8580 -0.6122
  945MOL0     C27483   4.351   4.043   6.107 -0.1939  0.4805 -0.7080
  945MOL0     C27484   4.311   4.090   6.246  1.1680 -0.2234  0.0929
  945MOL0    Cl27485   4.136   4.145   6.236  0.6214 -0.3342 -0.0628
  945MOL0     C27486   5.090   3.827   6.411  0.8652 -0.2916 -0.5866
  945MOL0     C27487   5.128   3.905   6.520 -0.4522 -0.6668 -0.1538
  945MOL0     O27488   5.114   3.833   6.867 -0.0792 -0.2920 -0.9389
  945MOL0     C27489   5.292   4.100   6.905  0.3894  0.3244 -0.1362
  945MOL0     C27490   5.377   4.154   7.004  0.1689 -0.4073  0.7678
  945MOL0     N27491   5.553   4.803   7.325 -0.1597  0.2501 -0.1369
  945MOL0     N27492   5.662   4.844   7.369 -0.7475  0.0180  0.2567
  945MOL0     C27493   6.754   4.265   7.619  1.1190  0.0745  0.4627
  945MOL0     C27494   6.888   4.246   7.601 -0.2607 -0.4867 -0.4405
  945MOL0     C27495   7.277   4.294   7.320  0.5293 -1.4306  0.2298
  945MOL0     C27496   7.337   4.258   7.204 -0.5972  0.0482  0.8058
  945MOL0     C27497   7.466   4.289   7.173  0.6810  0.1475  0.3479
  945MOL0     C27498   7.543   4.376   7.254 -0.5099 -0.0606  0.3083
  945MOL0     O27499   7.659   4.404   7.200 -0.3241 -0.5851  0.0915
  945MOL0     C27500   7.753   4.478   7.288 -0.5197  0.3642  0.3824
  945MOL0     C27501   7.879   4.538   7.231  0.1487 -0.2417 -0.4722
  945MOL0     C27502   7.855   4.673   7.157 -0.0567  0.8674  1.2913
  945MOL0     C27503   7.864   4.800   7.228  0.1642  0.2218  0.3474
  945MOL0     C27504   7.989   4.824   7.309 -0.8132 -0.4062 -0.3826
  945MOL0     C27505   8.079   4.841   7.394  0.2178  0.0293 -0.3897
  945MOL0     C27506   7.492   4.418   7.371 -0.3287 -1.8524  0.3409
  945MOL0     C27507   7.354   4.384   7.403  0.2367  0.6577 -0.4301
  945MOL0     H27508   6.921   4.477   7.355 -1.5887 -1.2278 -0.8174
  945MOL0     H27509   6.677   4.487   7.388 -2.1692  0.4285  1.8743
  945MOL0     H27510   6.457   4.485   7.439 -0.9431 -0.2327 -1.3290
  945MOL0     H27511   6.440   4.326   7.366 -0.3346 -0.4480  0.9911
  945MOL0     H27512   6.308   4.277   7.585 -2.6526 -0.2743 -1.1752
  945MOL0     H27513   6.249   4.446   7.564  1.0579  1.9388 -2.8789
  945MOL0     H27514   6.242   4.243   7.345 -0.0747  0.1632 -0.7102
  945MOL0     H27515   6.095   4.285   7.435  0.2652 -2.1953 -2.9078
  945MOL0     H27516   6.241   4.442   7.238 -2.8904 -1.4912 -2.4823
  945MOL0     H27517   6.086   4.379   7.237  5.0168 -2.2882 -2.9821
  945MOL0     H27518   6.197   4.610   7.427  2.2986 -0.0020 -2.3985
  945MOL0     H27519   6.135   4.638   7.264 -1.2041  0.2652 -0.3981
  945MOL0     H27520   5.898   4.543   7.369  0.4086  1.7343  0.4900
  945MOL0     H27521   5.987   4.519   7.516 -0.0084 -0.5927  0.5748
  945MOL0     H27522   6.048   4.764   7.492  0.7016 -0.2943 -1.4030
  945MOL0     H27523   5.936   4.779   7.353  0.0752 -0.2473  0.6755
  945MOL0     H27524   5.843   4.880   7.560  3.2917  1.0809 -4.4032
  945MOL0     H27525   5.825   4.723   7.628  1.3440  1.6252  1.5215
  945MOL0     H27526   5.586   4.620   7.598 -2.6949  2.7168  1.4915
  945MOL0     H27527   5.307   4.652   7.471 -1.1743 -0.3421 -0.3593
  945MOL0     H27528   5.312   4.669   7.307 -2.5200 -1.0271  2.3018
  945MOL0     H27529   5.274   4.437   7.369  0.6198  0.0246  0.1376
  945MOL0     H27530   5.431   4.435   7.452 -0.8094 -0.6148  0.5899
  945MOL0     H27531   5.486   4.521   7.176 -0.2324  1.1664  1.9210
  945MOL0     H27532   5.339   4.437   7.152 -1.6780  0.2035 -0.2128
  945MOL0     H27533   5.576   4.325   7.297 -0.7657 -2.0454  0.2234
  945MOL0     H27534   5.552   4.312   7.128 -0.0914 -1.2231  0.0491
  945MOL0     H27535   5.184   4.097   7.281 -2.0458 -2.7013 -0.1323
  945MOL0     H27536   4.926   4.037   7.060  0.8363  0.9368  0.7120
  945MOL0     H27537   4.983   3.872   7.093 -0.3927  0.3164  1.0223
  945MOL0     H27538   4.968   3.998   7.225 -0.6064  0.0779  0.1594
  945MOL0     H27539   4.826   3.898   6.677 -0.2273 -1.6091  1.9502
  945MOL0     H27540   4.762   3.769   6.489  0.4984 -2.3240 -2.3472
  945MOL0     H27541   4.819   3.571   6.182  0.8606  1.6384 -0.8126
  945MOL0     H27542   4.768   3.624   6.341 -1.7489  0.1197  0.0895
  945MOL0     H27543   4.621   3.754   6.229  0.0675 -3.5918 -1.2199
  945MOL0     H27544   4.765   3.872   6.239  1.2286  1.4647 -2.8952
  945MOL0     H27545   4.638   3.712   6.003  0.5506  1.5190 -3.0659
  945MOL0     H27546   4.807   3.745   6.002 -1.4189 -1.0247 -0.8158
  945MOL0     H27547   4.752   3.982   6.033 -2.2499  2.8622 -0.8065
  945MOL0     H27548   4.716   3.905   5.876 -1.7539  2.3101  0.2799
  945MOL0     H27549   4.464   3.865   5.949  0.4533 -1.1205  0.8719
  945MOL0     H27550   4.518   4.025   5.920 -4.3639 -1.5595 -1.2270
  945MOL0     H27551   4.510   3.934   6.200 -1.4208  1.3713  1.6492
  945MOL0     H27552   4.547   4.098   6.130 -1.9237  0.1401 -0.5291
  945MOL0     H27553   4.281   3.965   6.074  1.2595 -2.0781  1.8155
  945MOL0     H27554   4.339   4.125   6.036 -1.1605 -0.1044 -1.2551
  945MOL0     H27555   4.365   4.183   6.267 -0.7315  0.8471  0.4387
  945MOL0     H27556   4.315   4.006   6.315 -2.5270 -1.4841 -0.9957
  945MOL0     H27557   5.156   3.807   6.326  0.7370 -0.6254 -0.6118
  945MOL0     H27558   5.226   3.948   6.536 -0.7396  0.9739 -2.4502
  945MOL0     H27559   5.327   4.114   6.803  1.3194 -2.3858 -0.2535
  945MOL0     H27560   5.472   4.197   6.974 -1.6532  2.0946 -2.0289
  945MOL0     H27561   6.711   4.207   7.700 -1.0309  2.8549  1.4739
  945MOL0     H27562   6.941   4.183   7.672  1.5959 -0.3763 -1.6658
  945MOL0     H27563   7.284   4.204   7.127  0.1079 -1.9657  1.6777
  945MOL0     H27564   7.501   4.260   7.074 -2.3942 -0.5502 -0.6170
  945MOL0     H27565   7.692   4.562   7.322  1.7671  1.4660  2.0368
  945MOL0     H27566   7.782   4.412   7.371 -0.0905  0.5122  0.3524
  945MOL0     H27567   7.911   4.448   7.176  1.0129 -1.4324  1.8185
  945MOL0     H27568   7.955   4.562   7.305 -1.3039 -1.1855  1.3978
  945MOL0     H27569   7.751   4.672   7.122  0.6774  1.5205 -1.0840
  945MOL0     H27570   7.926   4.685   7.074  0.4759 -2.5237  1.1126
  945MOL0     H27571   7.790   4.805   7.308 -0.0654 -2.0835  0.3519
  945MOL0     H27572   7.835   4.881   7.161  1.7612  0.0751 -0.5846
  945MOL0     H27573   8.136   4.845   7.484  0.6615  1.1604 -0.7026
  945MOL0     H27574   7.542   4.480   7.445 -0.0721  0.4932 -1.6496
  945MOL0     H27575   7.318   4.408   7.502 -3.5906 -1.6092 -1.0875
  946MOL0     O27576  10.528   5.197  11.352  0.1325  0.3921 -0.4682
  946MOL0     C27577  10.653   5.177  11.342 -0.6531  0.6877  0.1810
  946MOL0     O27578  10.749   5.258  11.292 -1.4781 -0.1910 -0.4649
  946MOL0     C27579  10.709   5.380  11.245  0.6487 -0.0547  1.0416
  946MOL0     C27580  10.675   5.475  11.334 -1.1366 -0.4978 -0.1830
  946MOL0     C27581  10.644   5.603  11.304 -0.0374  0.1686  0.5740
  946MOL0     C27582  10.635   5.632  11.164 -0.2303  0.5995 -0.1079
  946MOL0     O27583  10.613   5.756  11.106 -0.5467 -0.7223 -0.0290
  946MOL0     C27584  10.671   5.866  11.181 -0.0331  0.2279 -0.3033
  946MOL0     C27585  10.579   5.931  11.283  0.4175  0.5885 -0.0270
  946MOL0     C27586  10.635   6.069  11.321  1.1779 -0.8718  0.1256
  946MOL0     C27587  10.580   6.157  11.438 -0.3698  0.3876  0.1973
  946MOL0     C27588  10.474   6.253  11.382  0.6846  0.8831 -0.0792
  946MOL0     C27589  10.535   6.385  11.327 -0.1448 -0.2400  0.5425
  946MOL0     C27590  10.444   6.504  11.346  0.4293 -0.4961 -0.8000
  946MOL0     C27591  10.294   6.486  11.322  0.0754  0.1614 -0.5768
  946MOL0     N27592  10.210   6.599  11.376 -0.5093  0.4534  0.9235
  946MOL0     C27593  10.198   6.639  11.507  0.6918 -0.9557 -0.5349
  946MOL0     C27594  10.137   6.761  11.500  0.5442  0.3725 -0.2870
  946MOL0     C27595  10.102   6.848  11.618 -0.7209 -0.3767 -0.1945
  946MOL0     C27596   9.955   6.878  11.645  0.3395 -0.2890  0.9893
  946MOL0     C27597   9.912   6.975  11.541 -0.0393  0.9244  1.4637
  946MOL0     C27598   9.783   7.029  11.574  0.8783 -0.8612 -0.1696
  946MOL0     O27599   9.738   7.133  11.484  0.2467  0.7680  0.3909
  946MOL0     C27600   9.811   7.245  11.452 -0.7280 -0.9297 -0.2015
  946MOL0     C27601   9.843   7.276  11.328  0.0400 -0.1707  0.8209
  946MOL0     C27602   9.926   7.374  11.288 -0.2616 -0.2067  0.4530
  946MOL0     C27603   9.949   7.379  11.141 -0.1625 -0.3180 -0.2416
  946MOL0     C27604   9.996   7.447  11.389  0.1427 -0.4466  0.0329
  946MOL0     C27605  10.101   7.546  11.368  0.4598 -0.6753  0.2186
  946MOL0     O27606  10.145   7.609  11.484 -1.1050 -0.5311 -0.3057
  946MOL0     C27607  10.252   7.695  11.470  0.4219 -0.5851  1.0836
  946MOL0     C27608  10.372   7.658  11.414  0.0092  0.3961  0.1289
  946MOL0     C27609  10.483   7.744  11.430 -0.0808 -0.6140  0.6055
  946MOL0     C27610  10.469   7.871  11.485  0.1400  0.1267  0.3879
  946MOL0     O27611  10.588   7.943  11.507 -0.1777  0.1937 -0.1185
  946MOL0     C27612  10.604   8.056  11.594 -0.6147 -0.0696 -0.3527
  946MOL0     C27613  10.747   8.108  11.585  0.1419 -0.3093  0.2292
  946MOL0     C27614  10.849   8.007  11.631 -0.1086  1.3786 -1.1789
  946MOL0     C27615  10.993   8.037  11.576 -0.5229  0.5256 -0.0983
  946MOL0     C27616  11.113   7.966  11.639  0.0764  0.1878 -0.1760
  946MOL0     C27617  11.145   7.980  11.790 -0.3809 -0.1328  0.8046
  946MOL0     C27618  11.240   8.099  11.806 -0.4048  0.1061  0.4962
  946MOL0     C27619  11.300   8.112  11.944 -0.5001  0.4147  0.7959
  946MOL0    Cl27620  11.401   8.256  11.968 -0.3650 -0.0238  0.8791
  946MOL0     C27621  10.343   7.920  11.515  0.4881  0.5337 -0.6782
  946MOL0     C27622  10.239   7.828  11.513  1.4296  0.0908  0.0177
  946MOL0     O27623  10.128   7.581  11.256 -0.2356  0.6175  0.9803
  946MOL0     C27624   9.963   7.414  11.521  0.1969  0.5260 -0.2676
  946MOL0     C27625   9.870   7.312  11.558 -0.3850  0.4974 -0.6461
  946MOL0     N27626  10.125   6.801  11.368  0.1451  0.3693  0.2462
  946MOL0     N27627  10.169   6.703  11.297 -0.5046  1.1081  0.0159
  946MOL0     C27628  10.656   5.530  11.070  0.0941  0.4833  0.5386
  946MOL0     C27629  10.696   5.403  11.104  0.3589  0.5101  0.0478
  946MOL0     C27630  10.709   5.046  11.399  0.7524 -0.3078  0.6619
  946MOL0     C27631  10.846   5.029  11.407  0.6459  0.0245  0.8541
  946MOL0     C27632  10.897   4.914  11.471 -0.4424 -1.0662  0.3918
  946MOL0     C27633  10.815   4.802  11.499 -0.5700 -0.4842  0.9704
  946MOL0     O27634  10.859   4.692  11.561  0.2684 -0.6699  0.3109
  946MOL0     C27635  10.988   4.673  11.621 -0.2685 -0.9745 -0.8806
  946MOL0     C27636  10.993   4.561  11.726 -0.1590  0.5310  1.0850
  946MOL0     C27637  10.903   4.585  11.852 -0.1520 -0.0254 -0.2019
  946MOL0     C27638  10.765   4.539  11.840  0.0448 -0.9488  0.2174
  946MOL0     C27639  10.687   4.545  11.959  0.7072 -0.5425 -0.4624
  946MOL0     C27640  10.623   4.535  12.066  0.1326 -0.5056  0.3705
  946MOL0     C27641  10.675   4.823  11.483  0.9314 -0.4278  0.2966
  946MOL0     C27642  10.624   4.946  11.441  0.0486  0.3956 -0.3229
  946MOL0     H27643  10.679   5.446  11.438  3.7259 -2.5888 -0.6331
  946MOL0     H27644  10.616   5.680  11.375  2.2584  1.3919  0.2441
  946MOL0     H27645  10.762   5.825  11.226 -0.1281 -0.2888 -0.5764
  946MOL0     H27646  10.699   5.934  11.100  0.3259 -1.3183 -1.5265
  946MOL0     H27647  10.477   5.944  11.246  1.3421 -0.4824 -3.3321
  946MOL0     H27648  10.585   5.862  11.368 -0.7283  0.2111 -0.2310
  946MOL0     H27649  10.740   6.051  11.345  1.8559  2.0928 -0.2586
  946MOL0     H27650  10.636   6.133  11.232  0.3213  1.0731  1.4467
  946MOL0     H27651  10.550   6.108  11.532 -4.7845  0.3648 -1.0414
  946MOL0     H27652  10.658   6.227  11.470 -0.5479  0.3532  0.7192
  946MOL0     H27653  10.425   6.203  11.298 -0.2061  0.7386  0.5150
  946MOL0     H27654  10.409   6.278  11.466  2.7414  3.4954  0.8769
  946MOL0     H27655  10.623   6.405  11.389 -1.2668 -0.9499  2.4643
  946MOL0     H27656  10.581   6.392  11.228 -1.9622  5.6821 -0.2339
  946MOL0     H27657  10.461   6.542  11.447 -0.9342 -0.2147 -0.6523
  946MOL0     H27658  10.473   6.576  11.269  2.8274 -2.6530 -2.0909
  946MOL0     H27659  10.262   6.392  11.369 -1.6378 -0.5944 -3.0431
  946MOL0     H27660  10.278   6.470  11.215 -0.7985  0.8256 -0.5626
  946MOL0     H27661  10.240   6.591  11.594 -1.4734  0.3580  1.3399
  946MOL0     H27662  10.130   6.783  11.701 -2.7434 -0.6660  0.3118
  946MOL0     H27663  10.160   6.941  11.621 -0.5194 -0.5018  2.8582
  946MOL0     H27664   9.949   6.926  11.744  0.4611  1.5889  0.1242
  946MOL0     H27665   9.894   6.787  11.638  2.0480 -1.4848  1.2121
  946MOL0     H27666   9.898   6.924  11.445  0.4090 -1.2454  2.4810
  946MOL0     H27667   9.988   7.053  11.525 -3.3525  3.5806 -4.6776
  946MOL0     H27668   9.779   7.071  11.675 -0.5804 -1.1519 -0.0874
  946MOL0     H27669   9.714   6.945  11.579  1.0535 -1.0688 -1.0098
  946MOL0     H27670   9.793   7.203  11.266 -1.5927  0.3058  1.5300
  946MOL0     H27671   9.917   7.287  11.092  0.4001 -1.6975  1.8468
  946MOL0     H27672   9.900   7.465  11.094  0.6568 -0.2227 -0.9541
  946MOL0     H27673  10.056   7.377  11.118  0.0794  1.4573  0.5421
  946MOL0     H27674  10.394   7.553  11.394  1.3445  0.3059  1.8076
  946MOL0     H27675  10.577   7.710  11.388  1.6826  4.3693 -0.1369
  946MOL0     H27676  10.530   8.134  11.574 -0.3783  0.9521  2.3217
  946MOL0     H27677  10.597   8.029  11.700  0.2046 -1.4297 -0.6261
  946MOL0     H27678  10.765   8.123  11.478  2.7069  0.5442  0.7051
  946MOL0     H27679  10.767   8.200  11.641 -0.6386 -0.0297  0.0559
  946MOL0     H27680  10.810   7.908  11.610  2.0470  0.7204 -2.3847
  946MOL0     H27681  10.858   8.013  11.740 -0.1647 -0.4038 -1.0596
  946MOL0     H27682  10.982   7.999  11.474 -1.2929  1.3703 -0.3393
  946MOL0     H27683  11.016   8.144  11.580 -0.2267  0.4552  0.0761
  946MOL0     H27684  11.199   7.998  11.579 -0.5595 -2.7942 -2.9067
  946MOL0     H27685  11.111   7.857  11.631  3.6503 -0.2949  2.6736
  946MOL0     H27686  11.052   7.992  11.846 -0.3142  2.0440  0.5317
  946MOL0     H27687  11.192   7.891  11.833 -1.8634 -1.2588  0.1747
  946MOL0     H27688  11.187   8.190  11.775 -0.4848 -0.4613 -1.1337
  946MOL0     H27689  11.319   8.087  11.732  0.6868 -0.4756  1.7093
  946MOL0     H27690  11.364   8.028  11.974  1.8652  1.9249  0.2447
  946MOL0     H27691  11.216   8.129  12.012  1.1979  2.8994  2.4569
  946MOL0     H27692  10.319   8.015  11.561  2.5133  1.1283 -0.7595
  946MOL0     H27693  10.149   7.863  11.564  0.4510 -2.6463  0.3264
  946MOL0     H27694  10.018   7.468  11.598  0.6765  1.1351 -1.0265
  946MOL0     H27695   9.839   7.287  11.659 -0.3635  2.2860 -0.1640
  946MOL0     H27696  10.636   5.542  10.964 -0.1814  2.7696  0.7902
  946MOL0     H27697  10.712   5.331  11.024 -1.9809 -0.1432  0.0846
  946MOL0     H27698  10.922   5.106  11.393  0.4562  0.1942  0.7540
  946MOL0     H27699  11.002   4.916  11.498 -1.1450  1.2117  3.5149
  946MOL0     H27700  11.058   4.642  11.542 -1.0402  1.3392 -2.5884
  946MOL0     H27701  11.024   4.762  11.672 -0.6891  1.5215 -4.5923
  946MOL0     H27702  11.097   4.530  11.740  0.0869  1.9176  2.6292
  946MOL0     H27703  10.944   4.481  11.669 -1.7766  1.7163  0.7438
  946MOL0     H27704  10.910   4.692  11.874  0.9489  0.1496 -1.2597
  946MOL0     H27705  10.960   4.533  11.929  1.7665  1.1254 -0.7865
  946MOL0     H27706  10.766   4.432  11.814 -2.3775 -1.0536  0.2929
  946MOL0     H27707  10.722   4.587  11.752  2.9630 -2.1668 -2.0264
  946MOL0     H27708  10.570   4.516  12.157 -2.8878  1.5068 -0.7940
  946MOL0     H27709  10.600   4.746  11.501 -0.4047  0.0753 -2.4867
  946MOL0     H27710  10.516   4.944  11.447  0.1016 -2.5077  2.4665
  947MOL0     O27711   8.757   8.431  11.127  0.9428  0.5026 -0.1038
  947MOL0     C27712   8.782   8.533  11.062  0.7132  0.2025  0.7495
  947MOL0     O27713   8.835   8.643  11.113 -0.0159 -0.1032  0.5768
  947MOL0     C27714   8.863   8.674  11.247 -0.1681 -0.4515  0.0900
  947MOL0     C27715   8.920   8.798  11.271  0.9169  0.3151 -0.2676
  947MOL0     C27716   8.946   8.846  11.395 -0.4150 -0.6809  0.4331
  947MOL0     C27717   8.932   8.760  11.503  0.9778 -0.8291 -0.6053
  947MOL0     O27718   8.975   8.807  11.626  0.2447  0.5481  0.6562
  947MOL0     C27719   8.954   8.743  11.751  0.1655 -0.1885  0.2051
  947MOL0     C27720   9.077   8.788  11.843  0.2749  0.3045 -0.4654
  947MOL0     C27721   9.115   8.931  11.834 -0.1038  0.4270  0.7046
  947MOL0     C27722   9.242   8.955  11.912 -0.2697 -0.0782  0.3951
  947MOL0     C27723   9.285   9.087  11.851 -0.1649 -0.3960  1.0911
  947MOL0     C27724   9.426   9.128  11.885  0.1597  0.1191 -0.2613
  947MOL0     C27725   9.456   9.268  11.830 -0.1975  0.6535 -0.8924
  947MOL0     C27726   9.582   9.327  11.906  0.7691 -0.4274  0.4953
  947MOL0     N27727   9.540   9.423  12.014 -0.4042  0.6874  0.6621
  947MOL0     C27728   9.600   9.541  12.046  0.0400  0.4103  0.4372
  947MOL0     C27729   9.535   9.579  12.153 -0.5028 -0.2257 -0.4266
  947MOL0     C27730   9.569   9.694  12.241  0.3991  0.5320  1.0537
  947MOL0     C27731   9.673   9.657  12.348 -0.5456 -0.9614 -0.1752
  947MOL0     C27732   9.685   9.746  12.472  1.0815 -0.1680 -0.1435
  947MOL0     C27733   9.567   9.733  12.565  0.8347 -0.2064 -0.6594
  947MOL0     O27734   9.598   9.629  12.658 -0.3197  0.0110 -0.0803
  947MOL0     C27735   9.485   9.561  12.691 -0.6190  0.1437 -1.3518
  947MOL0     C27736   9.444   9.560  12.819 -0.6724 -0.5607  0.3779
  947MOL0     C27737   9.321   9.504  12.853  0.4686 -0.7676  0.3010
  947MOL0     C27738   9.299   9.480  13.000 -0.1151 -0.7241  0.3732
  947MOL0     C27739   9.234   9.443  12.751 -0.2627 -0.6995 -0.5760
  947MOL0     C27740   9.095   9.381  12.776  0.8075 -0.0693  0.4551
  947MOL0     O27741   9.043   9.303  12.672  0.3408 -0.2689 -0.0942
  947MOL0     C27742   8.936   9.226  12.711  0.4291 -0.4849 -0.5684
  947MOL0     C27743   8.808   9.264  12.656 -0.3099 -1.0741 -0.0310
  947MOL0     C27744   8.700   9.188  12.682 -0.3003 -0.0875  0.2827
  947MOL0     C27745   8.704   9.068  12.755  0.3021  0.2890  0.4831
  947MOL0     O27746   8.600   8.986  12.785  0.4513 -0.7603  0.2409
  947MOL0     C27747   8.479   8.986  12.712  0.2198 -0.5701  0.4781
  947MOL0     C27748   8.368   8.935  12.795 -0.5359  0.3782 -0.3846
  947MOL0     C27749   8.346   9.024  12.912 -0.3245 -0.5970 -1.1283
  947MOL0     C27750   8.221   8.989  12.983  0.7638 -1.0866  0.0919
  947MOL0     C27751   8.197   9.045  13.125 -0.5647  0.5772 -0.5363
  947MOL0     C27752   8.219   9.194  13.128  0.5781  0.7567 -0.4148
  947MOL0     C27753   8.170   9.264  13.254  0.5094 -0.3197  0.8222
  947MOL0     C27754   8.217   9.401  13.254  0.4327 -0.3272 -0.9372
  947MOL0    Cl27755   8.147   9.512  13.113 -0.2602 -0.6537  0.5875
  947MOL0     C27756   8.835   9.028  12.799  0.1404  0.1706  0.8051
  947MOL0     C27757   8.951   9.104  12.777  1.5067  0.9177  0.4876
  947MOL0     O27758   9.033   9.425  12.869 -0.8519 -0.2178  0.5547
  947MOL0     C27759   9.297   9.427  12.623 -0.4574 -0.6405 -0.3543
  947MOL0     C27760   9.416   9.488  12.590  0.3787  0.5358  0.7860
  947MOL0     N27761   9.447   9.485  12.192  0.4468 -0.2895 -0.2432
  947MOL0     N27762   9.440   9.398  12.102 -0.9892 -0.2405  0.0809
  947MOL0     C27763   8.872   8.636  11.484  0.2067  0.9022  0.6411
  947MOL0     C27764   8.846   8.590  11.355 -0.0051 -0.5153 -0.3078
  947MOL0     C27765   8.742   8.527  10.923  0.0654  0.3162  0.1164
  947MOL0     C27766   8.703   8.408  10.851 -0.5583 -0.1469 -0.5476
  947MOL0     C27767   8.659   8.408  10.723 -0.7853  0.3323 -0.2402
  947MOL0     C27768   8.653   8.529  10.655 -0.0849 -0.7815 -0.2628
  947MOL0     O27769   8.600   8.524  10.530 -0.3550 -0.2325  0.9182
  947MOL0     C27770   8.699   8.507  10.433  0.4192  0.4533 -0.2578
  947MOL0     C27771   8.642   8.543  10.294  0.4280  0.3885 -0.3976
  947MOL0     C27772   8.657   8.694  10.261  0.6158  0.8391 -0.1323
  947MOL0     C27773   8.804   8.743  10.255 -0.4400 -0.0599  0.1868
  947MOL0     C27774   8.818   8.825  10.132 -0.0669  1.9677  1.0245
  947MOL0     C27775   8.853   8.911  10.047 -0.3058 -0.1730 -0.6464
  947MOL0     C27776   8.702   8.647  10.716  0.4464  0.3149  0.0421
  947MOL0     C27777   8.740   8.646  10.851  0.7278  0.4474 -0.8499
  947MOL0     H27778   8.918   8.870  11.189 -3.3456 -0.1760 -0.8581
  947MOL0     H27779   8.983   8.945  11.418 -0.0652 -1.1400  1.9282
  947MOL0     H27780   8.852   8.748  11.789 -0.8085 -2.7264 -1.8039
  947MOL0     H27781   8.953   8.635  11.733 -2.8032 -0.0173 -1.2695
  947MOL0     H27782   9.061   8.767  11.949 -0.7318 -0.9716 -0.8393
  947MOL0     H27783   9.160   8.723  11.814 -2.1207 -2.1621 -2.3548
  947MOL0     H27784   9.129   8.946  11.727  0.1981 -0.0505  0.6716
  947MOL0     H27785   9.038   9.001  11.866  1.3188  1.7298  1.4087
  947MOL0     H27786   9.224   8.953  12.020 -0.2731 -0.0680  0.3948
  947MOL0     H27787   9.321   8.884  11.890 -1.3289 -0.2617 -3.4375
  947MOL0     H27788   9.287   9.074  11.743 -0.3501 -2.0092  1.2659
  947MOL0     H27789   9.216   9.169  11.877  1.7391  1.4767  0.4721
  947MOL0     H27790   9.419   9.137  11.994  0.5798 -1.1604 -0.1188
  947MOL0     H27791   9.497   9.048  11.864 -1.9974 -1.7672 -0.6184
  947MOL0     H27792   9.463   9.251  11.722 -2.5361 -1.7626 -0.7523
  947MOL0     H27793   9.370   9.336  11.837 -1.7513 -0.9979 -2.6339
  947MOL0     H27794   9.636   9.396  11.840 -0.9370  1.0962  0.5972
  947MOL0     H27795   9.655   9.256  11.946 -1.1166 -1.6408  1.9268
  947MOL0     H27796   9.686   9.577  11.990  2.8813 -3.0417  2.1035
  947MOL0     H27797   9.605   9.783  12.187  1.1159  1.6744  3.2967
  947MOL0     H27798   9.470   9.712  12.284  0.3478 -2.1428  2.2524
  947MOL0     H27799   9.770   9.660  12.296  1.5424  0.5667  3.4293
  947MOL0     H27800   9.669   9.553  12.380  0.1253 -0.2235  2.5859
  947MOL0     H27801   9.685   9.849  12.437 -1.5921  0.9315  2.6670
  947MOL0     H27802   9.778   9.718  12.522  0.7061 -4.2334 -1.3441
  947MOL0     H27803   9.478   9.706  12.507  0.3920 -0.6173  0.1944
  947MOL0     H27804   9.562   9.835  12.605  3.6869 -0.9199  1.8734
  947MOL0     H27805   9.504   9.612  12.893 -1.5391 -0.5222  1.0752
  947MOL0     H27806   9.197   9.456  13.031 -1.3388  2.5246 -0.6951
  947MOL0     H27807   9.378   9.407  13.021  2.5196  1.2378 -2.0292
  947MOL0     H27808   9.318   9.571  13.058 -2.9929 -0.0713  0.4563
  947MOL0     H27809   8.796   9.360  12.606 -0.8883 -0.6312  0.9098
  947MOL0     H27810   8.604   9.223  12.644  0.8792  4.2428  0.7932
  947MOL0     H27811   8.457   9.085  12.670 -0.9222 -0.3116  1.6359
  947MOL0     H27812   8.496   8.912  12.633 -0.1317  0.6342 -0.7523
  947MOL0     H27813   8.273   8.929  12.742 -1.8894  0.8332  1.8888
  947MOL0     H27814   8.386   8.833  12.829  1.4506  0.9163  0.3022
  947MOL0     H27815   8.341   9.128  12.878 -0.1102 -0.1272  0.2061
  947MOL0     H27816   8.435   9.019  12.976  0.1407  2.5527 -1.3322
  947MOL0     H27817   8.132   9.031  12.934  0.5894  3.7901  3.8711
  947MOL0     H27818   8.207   8.880  12.986 -1.3695 -0.8150  1.3107
  947MOL0     H27819   8.259   9.007  13.207 -0.5417 -1.0449 -1.2752
  947MOL0     H27820   8.094   9.024  13.153 -0.4599 -1.2033 -1.3530
  947MOL0     H27821   8.326   9.217  13.120  0.5581  1.3552  0.7662
  947MOL0     H27822   8.169   9.242  13.044 -1.7331  0.7519  0.8743
  947MOL0     H27823   8.188   9.228  13.355 -3.4133  2.4668  2.7766
  947MOL0     H27824   8.062   9.261  13.238  0.8380 -2.4771 -1.8500
  947MOL0     H27825   8.324   9.407  13.272 -0.1380  1.8225  2.8390
  947MOL0     H27826   8.183   9.443  13.349  2.8257  0.5526 -0.4174
  947MOL0     H27827   8.842   8.935  12.855 -2.8755 -0.5410  0.1711
  947MOL0     H27828   9.041   9.057  12.816  1.7977 -0.6890 -1.9241
  947MOL0     H27829   9.237   9.378  12.546 -1.5938  1.4226 -0.8534
  947MOL0     H27830   9.457   9.493  12.490  1.1656 -1.6859  0.9417
  947MOL0     H27831   8.855   8.570  11.569 -4.2714  1.8067  0.7122
  947MOL0     H27832   8.809   8.489  11.350 -3.2818  0.5784 -0.2847
  947MOL0     H27833   8.708   8.316  10.908 -0.6997 -0.8003 -1.5589
  947MOL0     H27834   8.621   8.312  10.691 -2.1164 -0.1101  2.4101
  947MOL0     H27835   8.784   8.573  10.451  1.2601 -0.1760 -1.7992
  947MOL0     H27836   8.736   8.404  10.431 -1.4524 -0.2514 -1.2809
  947MOL0     H27837   8.541   8.503  10.281  0.0690  1.5908 -1.4724
  947MOL0     H27838   8.697   8.483  10.222 -0.8382 -2.1073  0.5918
  947MOL0     H27839   8.606   8.743  10.345  1.4678  1.3027  0.1369
  947MOL0     H27840   8.628   8.711  10.157  3.1938 -0.6903 -1.2097
  947MOL0     H27841   8.873   8.658  10.258  2.1637  1.9356  1.4663
  947MOL0     H27842   8.827   8.815  10.334 -0.4194 -1.4761  1.5124
  947MOL0     H27843   8.878   8.994   9.984  1.1809 -0.1284 -0.0352
  947MOL0     H27844   8.707   8.740  10.660  2.7818  0.1226 -0.1615
  947MOL0     H27845   8.761   8.738  10.905  4.5128  0.0865 -1.4390
  948MOL0     O27846   4.634   6.397   8.684  1.0802  0.8783  0.1887
  948MOL0     C27847   4.542   6.378   8.760 -0.2551  1.1596  0.0163
  948MOL0     O27848   4.494   6.468   8.845  0.4468  0.9868 -0.7107
  948MOL0     C27849   4.510   6.593   8.814 -0.9286 -0.6472 -0.1297
  948MOL0     C27850   4.578   6.676   8.906 -0.1838 -0.7277  0.4613
  948MOL0     C27851   4.590   6.814   8.877 -0.6093 -0.1875  0.1038
  948MOL0     C27852   4.530   6.873   8.771  0.1844  0.6974  0.2145
  948MOL0     O27853   4.517   7.007   8.740 -0.3434 -0.3543  0.1668
  948MOL0     C27854   4.633   7.042   8.652 -0.4560  0.4800  0.7529
  948MOL0     C27855   4.771   7.069   8.726 -0.9310 -0.0763  0.4935
  948MOL0     C27856   4.769   7.167   8.841 -0.6318 -0.7976 -0.7162
  948MOL0     C27857   4.911   7.190   8.907 -0.3279 -0.0953  0.7981
  948MOL0     C27858   4.901   7.322   8.987 -0.2524  0.9371  0.8047
  948MOL0     C27859   5.034   7.351   9.064 -1.5118  0.6698  0.6040
  948MOL0     C27860   5.022   7.467   9.170 -0.4510 -1.2676 -0.8725
  948MOL0     C27861   4.960   7.428   9.306 -0.4046 -0.0342 -0.3313
  948MOL0     N27862   4.820   7.433   9.318 -0.3100 -0.2280 -0.6431
  948MOL0     C27863   4.759   7.549   9.348  0.3764  0.0710  0.0179
  948MOL0     C27864   4.625   7.523   9.352 -0.5245  0.2452 -0.6776
  948MOL0     C27865   4.513   7.617   9.385 -0.6575 -0.6953 -1.0098
  948MOL0     C27866   4.380   7.557   9.331 -1.6752  0.2977 -0.4436
  948MOL0     C27867   4.265   7.655   9.330  0.7370 -0.2346  0.8041
  948MOL0     C27868   4.180   7.626   9.459  0.1906 -0.7540  1.0332
  948MOL0     O27869   4.257   7.642   9.574 -0.3250 -0.0806  0.8159
  948MOL0     C27870   4.187   7.628   9.693  0.5654 -0.6241  0.2454
  948MOL0     C27871   4.264   7.641   9.799  0.3367 -0.2603 -0.8792
  948MOL0     C27872   4.213   7.649   9.933 -0.8835  0.1485  0.5329
  948MOL0     C27873   4.306   7.696  10.046 -0.4328  0.8270 -0.3989
  948MOL0     C27874   4.078   7.617   9.955  0.0075 -0.7966  0.6510
  948MOL0     C27875   4.010   7.626  10.083  0.6571  0.2989  0.1278
  948MOL0     O27876   3.916   7.542  10.109  0.3122  0.1854 -0.7741
  948MOL0     C27877   3.835   7.556  10.215  0.4712 -1.1498 -0.8273
  948MOL0     C27878   3.746   7.663  10.240  0.6088  0.0325 -0.0261
  948MOL0     C27879   3.654   7.654  10.342  0.0283  0.3683  0.7552
  948MOL0     C27880   3.647   7.538  10.428 -0.5305  0.1185  0.6194
  948MOL0     O27881   3.563   7.514  10.540  0.6149 -0.2513  0.6887
  948MOL0     C27882   3.483   7.615  10.579  0.5515 -0.0557 -0.7642
  948MOL0     C27883   3.536   7.693  10.699 -0.3464 -0.4882 -1.1194
  948MOL0     C27884   3.521   7.622  10.827  0.8745  0.1795 -0.0428
  948MOL0     C27885   3.372   7.639  10.889 -0.1430  0.7213 -0.0820
  948MOL0     C27886   3.368   7.788  10.929  0.9553  0.2871  0.4556
  948MOL0     C27887   3.262   7.814  11.037 -0.9106 -0.0269 -0.2966
  948MOL0     C27888   3.235   7.968  11.055  0.5312 -0.0564 -0.4309
  948MOL0     C27889   3.169   7.992  11.185  0.2567 -0.0257 -0.7160
  948MOL0    Cl27890   3.096   8.157  11.203 -0.4235  0.0264  0.1004
  948MOL0     C27891   3.732   7.429  10.397 -0.3341 -0.8586  0.4992
  948MOL0     C27892   3.824   7.436  10.285  0.9000 -0.1099 -0.7517
  948MOL0     O27893   4.043   7.719  10.158 -0.6627 -0.0198 -0.8206
  948MOL0     C27894   4.005   7.587   9.837  0.1338 -0.7766 -0.5818
  948MOL0     C27895   4.051   7.600   9.711 -0.5069 -0.0103 -0.3753
  948MOL0     N27896   4.614   7.378   9.344 -0.4880 -0.5247 -0.0270
  948MOL0     N27897   4.734   7.327   9.319  0.4012 -0.4344  0.0831
  948MOL0     C27898   4.451   6.789   8.679 -0.2278 -0.2754  1.2637
  948MOL0     C27899   4.438   6.646   8.706 -0.2822  0.4583 -0.2545
  948MOL0     C27900   4.475   6.249   8.748 -0.1850  0.5386  1.3054
  948MOL0     C27901   4.486   6.172   8.626 -0.8454  0.7767  0.0636
  948MOL0     C27902   4.447   6.034   8.628  0.2940  0.7293 -0.5675
  948MOL0     C27903   4.381   5.977   8.734 -0.1467 -0.4544 -0.7867
  948MOL0     O27904   4.315   5.862   8.723  0.1226 -0.2598  0.0597
  948MOL0     C27905   4.286   5.805   8.598 -0.1269 -0.5696 -0.0760
  948MOL0     C27906   4.195   5.690   8.628 -0.8417 -0.0449  0.4808
  948MOL0     C27907   4.275   5.570   8.688  0.0968 -0.7025 -0.6678
  948MOL0     C27908   4.205   5.441   8.654  0.2460  0.1311  0.1857
  948MOL0     C27909   4.219   5.332   8.755 -1.3066  0.1472  0.6254
  948MOL0     C27910   4.220   5.228   8.822 -0.0384  1.1082 -0.4952
  948MOL0     C27911   4.367   6.057   8.847  0.5063 -0.2975 -0.5165
  948MOL0     C27912   4.421   6.185   8.860 -0.5135  0.0033 -0.3296
  948MOL0     H27913   4.630   6.634   8.992 -0.8970 -2.8630 -0.0823
  948MOL0     H27914   4.636   6.883   8.946  2.9528  0.1095 -2.2786
  948MOL0     H27915   4.659   6.971   8.572  3.7646  2.4226  0.0891
  948MOL0     H27916   4.605   7.133   8.598  2.0707  1.6565  1.2740
  948MOL0     H27917   4.814   6.971   8.750 -0.7874 -0.0565  0.3238
  948MOL0     H27918   4.846   7.115   8.661 -0.5972 -2.7599 -1.1875
  948MOL0     H27919   4.721   7.261   8.811 -1.0894  0.0607  2.4364
  948MOL0     H27920   4.701   7.137   8.921 -2.2542  3.7872 -0.0654
  948MOL0     H27921   4.938   7.105   8.970  1.7018  0.4224  0.6960
  948MOL0     H27922   4.991   7.204   8.834 -3.4880  2.4700 -2.5650
  948MOL0     H27923   4.873   7.407   8.924 -1.3616  3.0842  3.9738
  948MOL0     H27924   4.815   7.307   9.053  0.9289 -1.0905  1.9902
  948MOL0     H27925   5.077   7.271   9.125  0.7859  1.4882  0.1502
  948MOL0     H27926   5.095   7.377   8.978 -2.7359  0.6136 -0.3025
  948MOL0     H27927   5.112   7.519   9.203 -2.2741 -0.0930  2.8554
  948MOL0     H27928   4.965   7.548   9.123  2.2097  0.8989 -0.5907
  948MOL0     H27929   4.989   7.494   9.389 -1.1154  2.2769 -1.8144
  948MOL0     H27930   5.000   7.332   9.341  0.6084  0.9869  1.5116
  948MOL0     H27931   4.802   7.647   9.364  0.1496  0.0215  1.0045
  948MOL0     H27932   4.524   7.626   9.493  1.7341  1.3926 -1.3335
  948MOL0     H27933   4.526   7.717   9.343 -2.8793 -0.4088 -1.1377
  948MOL0     H27934   4.345   7.481   9.402 -1.0757  1.3639  1.0667
  948MOL0     H27935   4.394   7.512   9.233 -5.1155 -1.3091 -0.3235
  948MOL0     H27936   4.203   7.641   9.241  0.8152  0.5412  0.6164
  948MOL0     H27937   4.296   7.760   9.328 -1.0724  0.3327  0.0170
  948MOL0     H27938   4.140   7.524   9.456  0.0847 -0.7016 -0.2816
  948MOL0     H27939   4.092   7.692   9.455  1.1991  0.6054  0.2997
  948MOL0     H27940   4.372   7.646   9.791  0.2434  2.0613 -1.3754
  948MOL0     H27941   4.282   7.655  10.145  2.0043 -0.8417 -0.4205
  948MOL0     H27942   4.410   7.671  10.023 -1.8993 -2.4000 -4.8004
  948MOL0     H27943   4.307   7.805  10.062  0.7388  0.7983 -0.1548
  948MOL0     H27944   3.739   7.743  10.167 -1.8040  0.8981  1.0543
  948MOL0     H27945   3.581   7.729  10.369 -0.0640  1.3824 -2.0210
  948MOL0     H27946   3.448   7.674  10.494 -0.7656 -0.3496 -0.4496
  948MOL0     H27947   3.386   7.577  10.612 -0.9176  1.7004 -2.7380
  948MOL0     H27948   3.642   7.706  10.674 -0.1745  1.6453  0.4196
  948MOL0     H27949   3.498   7.796  10.694 -1.4389 -0.9234 -4.4682
  948MOL0     H27950   3.600   7.650  10.897 -2.2033  2.1365  2.9601
  948MOL0     H27951   3.545   7.516  10.814 -0.0299 -0.2629  1.5862
  948MOL0     H27952   3.292   7.616  10.819  0.9561 -0.8184 -0.8733
  948MOL0     H27953   3.364   7.576  10.978 -3.4898  1.0936 -0.0036
  948MOL0     H27954   3.344   7.849  10.841  0.2083  0.9034  1.0650
  948MOL0     H27955   3.468   7.812  10.966  0.4659  2.9525  0.3054
  948MOL0     H27956   3.169   7.757  11.023 -0.7881 -1.0187  2.4624
  948MOL0     H27957   3.303   7.775  11.130  0.4018 -0.3297 -0.9844
  948MOL0     H27958   3.189   8.014  10.967  0.7101  0.9434 -0.0166
  948MOL0     H27959   3.334   8.016  11.062  1.2587 -1.0676 -2.6524
  948MOL0     H27960   3.218   7.968  11.280 -0.1003  3.5745  0.5430
  948MOL0     H27961   3.075   7.937  11.180  0.3525 -0.5689  1.8863
  948MOL0     H27962   3.727   7.330  10.442 -0.0241  0.2273  3.0670
  948MOL0     H27963   3.882   7.350  10.253 -2.3414 -2.3064 -1.3092
  948MOL0     H27964   3.899   7.572   9.851  0.2095 -0.0634  0.9544
  948MOL0     H27965   3.995   7.584   9.620  0.6150  4.8380 -2.1735
  948MOL0     H27966   4.387   6.840   8.608 -1.0585 -1.7643  0.8843
  948MOL0     H27967   4.368   6.588   8.646 -0.8296  2.2868 -1.4441
  948MOL0     H27968   4.531   6.210   8.535  1.7516 -0.3138  0.7921
  948MOL0     H27969   4.456   5.977   8.536  1.5003  0.1670 -0.1148
  948MOL0     H27970   4.227   5.874   8.537 -0.5283  0.7371  1.7171
  948MOL0     H27971   4.374   5.781   8.538  2.8557 -1.9669  4.3405
  948MOL0     H27972   4.163   5.665   8.527  0.5259 -2.5951  0.5963
  948MOL0     H27973   4.105   5.696   8.690 -1.1186 -3.4160  0.5982
  948MOL0     H27974   4.284   5.569   8.797  0.2078 -1.2043 -0.6791
  948MOL0     H27975   4.378   5.574   8.650  1.2582 -1.8534  2.0988
  948MOL0     H27976   4.222   5.413   8.550 -1.3152  0.5179 -0.1980
  948MOL0     H27977   4.100   5.472   8.652  0.6678  1.5938 -1.0302
  948MOL0     H27978   4.227   5.138   8.879 -2.0188  0.1743 -1.6371
  948MOL0     H27979   4.313   6.030   8.937 -0.3681  0.4831 -0.7936
  948MOL0     H27980   4.440   6.233   8.956  2.4391 -1.7816  0.1138
  949MOL0     O27981  10.784   6.411   7.731 -0.0929  0.0375 -0.9169
  949MOL0     C27982  10.907   6.419   7.753  0.2169 -0.4514 -0.6411
  949MOL0     O27983  11.007   6.386   7.665 -0.1170  0.5538  0.0869
  949MOL0     C27984  10.968   6.375   7.538 -0.4014 -0.7606  0.9023
  949MOL0     C27985  10.944   6.248   7.483  0.1827  1.5218  1.5303
  949MOL0     C27986  10.928   6.235   7.340 -0.3771 -0.1236 -0.1628
  949MOL0     C27987  10.920   6.350   7.259  0.0451 -0.9555 -0.8380
  949MOL0     O27988  10.905   6.313   7.131 -0.1054  0.5756 -0.2898
  949MOL0     C27989  10.809   6.379   7.055 -0.8309  0.0617 -0.3193
  949MOL0     C27990  10.666   6.354   7.105  1.0696  0.5800 -1.0742
  949MOL0     C27991  10.556   6.395   7.014 -0.4646 -1.1164 -0.4431
  949MOL0     C27992  10.436   6.304   7.037 -0.0770 -0.7256 -0.1453
  949MOL0     C27993  10.303   6.360   6.994  0.9780 -0.6694 -0.0645
  949MOL0     C27994  10.300   6.400   6.850  1.1335  0.8546  0.1745
  949MOL0     C27995  10.161   6.412   6.800  0.3500 -0.4252 -0.0613
  949MOL0     C27996  10.095   6.549   6.834 -0.4436 -0.1412  1.8053
  949MOL0     N27997   9.950   6.560   6.788  0.9727 -0.3660 -0.3279
  949MOL0     C27998   9.884   6.464   6.717 -0.3846 -0.5017  0.0917
  949MOL0     C27999   9.772   6.520   6.684  0.3886 -0.1533 -0.6634
  949MOL0     C28000   9.652   6.453   6.623  1.0488 -0.0480  0.2819
  949MOL0     C28001   9.664   6.317   6.560  0.1118  0.0461 -0.8747
  949MOL0     C28002   9.753   6.307   6.435  0.1111  0.5337  0.2627
  949MOL0     C28003   9.710   6.404   6.330 -0.3090  0.7469  0.7064
  949MOL0     O28004   9.829   6.424   6.255  0.1098  0.1513  0.5996
  949MOL0     C28005   9.815   6.454   6.120 -0.0781 -0.0238 -0.2875
  949MOL0     C28006   9.937   6.487   6.064  0.0303  0.6963  0.2133
  949MOL0     C28007   9.955   6.530   5.932 -1.7600 -0.4608 -0.5550
  949MOL0     C28008  10.096   6.560   5.896  0.4723 -0.5146  0.2721
  949MOL0     C28009   9.836   6.521   5.846  0.4004  0.3673 -0.5208
  949MOL0     C28010   9.844   6.554   5.706 -0.3027 -0.0206  0.3663
  949MOL0     O28011   9.957   6.609   5.648 -0.8946  1.1806  0.0062
  949MOL0     C28012   9.975   6.582   5.510 -0.3282 -0.1761 -0.8940
  949MOL0     C28013   9.893   6.649   5.421  0.1957  0.7150  0.4478
  949MOL0     C28014   9.915   6.647   5.285  0.3148  0.0698 -1.5899
  949MOL0     C28015  10.030   6.577   5.229 -0.3112  0.0157 -0.4718
  949MOL0     O28016  10.041   6.569   5.096  0.3935  0.2397  0.8459
  949MOL0     C28017  10.164   6.631   5.054  0.0512 -0.1689  1.0039
  949MOL0     C28018  10.131   6.716   4.926 -0.8957 -0.2135 -0.1714
  949MOL0     C28019  10.251   6.787   4.861 -0.2569 -0.6354 -0.9723
  949MOL0     C28020  10.219   6.847   4.738  0.3620 -0.7144  0.3940
  949MOL0     C28021  10.335   6.911   4.661 -0.0767  0.7705  0.1464
  949MOL0     C28022  10.294   6.995   4.545  0.6061 -0.6240  0.0421
  949MOL0     C28023  10.408   7.041   4.451  0.0746 -0.1839 -0.5175
  949MOL0     C28024  10.369   7.165   4.367 -0.6713  0.3243 -0.9976
  949MOL0    Cl28025  10.525   7.252   4.323 -0.1074  0.4417 -0.2026
  949MOL0     C28026  10.107   6.503   5.324 -0.4422 -1.5996 -0.9119
  949MOL0     C28027  10.089   6.512   5.463 -0.8510  0.3138  0.7591
  949MOL0     O28028   9.742   6.516   5.643  0.5295 -0.7064 -0.3203
  949MOL0     C28029   9.715   6.485   5.905 -0.6927 -0.2305  0.1529
  949MOL0     C28030   9.702   6.471   6.038 -0.5986 -0.2926  0.0317
  949MOL0     N28031   9.758   6.655   6.740 -0.4928  0.5001  1.0862
  949MOL0     N28032   9.864   6.662   6.816  0.2514 -0.8639  0.7573
  949MOL0     C28033  10.941   6.473   7.313  0.2507 -0.1486 -0.4762
  949MOL0     C28034  10.959   6.487   7.455  0.2130 -1.3455 -0.1574
  949MOL0     C28035  10.945   6.460   7.892 -0.2730 -0.2028  0.2155
  949MOL0     C28036  11.073   6.506   7.913 -0.5084 -0.8182  0.4661
  949MOL0     C28037  11.112   6.557   8.039  0.1613 -0.5529  0.7906
  949MOL0     C28038  11.013   6.555   8.139 -0.8451 -0.0812  0.9814
  949MOL0     O28039  11.038   6.608   8.264  0.9588  0.0796 -0.8917
  949MOL0     C28040  11.018   6.517   8.373  0.4068  0.3617 -0.0564
  949MOL0     C28041  11.071   6.569   8.510 -0.1392 -0.0509 -0.6015
  949MOL0     C28042  11.188   6.664   8.515  0.7677  0.3299  0.7357
  949MOL0     C28043  11.159   6.804   8.555 -0.5066  0.4651  0.2283
  949MOL0     C28044  11.070   6.871   8.453  0.5353 -0.0248 -1.0588
  949MOL0     C28045  11.006   6.932   8.369 -0.6628  0.0032  1.1628
  949MOL0     C28046  10.881   6.524   8.113  0.9008 -0.0364  0.5161
  949MOL0     C28047  10.844   6.468   7.994 -0.1852 -0.5638  0.5616
  949MOL0     H28048  10.957   6.165   7.552 -2.8581  0.2583  0.7559
  949MOL0     H28049  10.909   6.133   7.306  0.3521 -0.5145  0.5658
  949MOL0     H28050  10.819   6.488   7.050 -1.6164  0.0888 -2.4682
  949MOL0     H28051  10.837   6.349   6.954  3.3673  2.1163  0.0203
  949MOL0     H28052  10.668   6.247   7.123  0.2572  0.2697 -2.6208
  949MOL0     H28053  10.656   6.398   7.205 -0.8055 -1.5695 -0.2337
  949MOL0     H28054  10.536   6.500   7.036  0.0702 -0.8941 -0.9746
  949MOL0     H28055  10.583   6.410   6.909 -2.8173  0.4391 -0.9093
  949MOL0     H28056  10.455   6.216   6.974  2.5916 -0.0470 -0.4010
  949MOL0     H28057  10.425   6.270   7.140  0.9748 -4.6917 -1.1634
  949MOL0     H28058  10.225   6.286   7.018 -1.6637  1.2533 -2.0741
  949MOL0     H28059  10.273   6.443   7.060  1.3807 -0.4971 -0.0963
  949MOL0     H28060  10.362   6.488   6.835  0.0982  1.7559  1.0508
  949MOL0     H28061  10.342   6.316   6.793 -0.2997 -1.3457  2.1742
  949MOL0     H28062  10.175   6.401   6.692  0.8102 -3.3250  0.2257
  949MOL0     H28063  10.110   6.321   6.833  0.6957 -0.1172  1.3823
  949MOL0     H28064  10.146   6.615   6.762  1.1919 -0.4559  2.6182
  949MOL0     H28065  10.123   6.583   6.934  1.0882  1.3090  0.9385
  949MOL0     H28066   9.925   6.370   6.680 -2.3707 -0.4342 -2.6373
  949MOL0     H28067   9.580   6.445   6.704 -2.6547 -0.0179 -2.7272
  949MOL0     H28068   9.603   6.523   6.554  2.7010  0.5002 -0.4028
  949MOL0     H28069   9.566   6.273   6.540  0.0945 -1.1104  1.3954
  949MOL0     H28070   9.703   6.254   6.641 -3.0685  0.8320  1.4371
  949MOL0     H28071   9.725   6.207   6.401 -1.7345 -0.5381  4.2709
  949MOL0     H28072   9.858   6.306   6.466  0.1846 -0.2232  0.0061
  949MOL0     H28073   9.695   6.505   6.370  1.6158  1.0378  0.8086
  949MOL0     H28074   9.627   6.363   6.272  0.0544  1.4562 -0.3647
  949MOL0     H28075  10.015   6.483   6.139  0.3891 -3.5800 -0.1626
  949MOL0     H28076  10.162   6.576   5.982 -0.1869  3.5724  0.1834
  949MOL0     H28077  10.129   6.483   5.825 -0.1404  0.4787 -1.1180
  949MOL0     H28078  10.090   6.656   5.845  2.5371 -0.4763  0.0290
  949MOL0     H28079   9.803   6.702   5.451  1.2189  1.1037  3.1200
  949MOL0     H28080   9.838   6.700   5.230  1.5290  1.6250 -1.8806
  949MOL0     H28081  10.221   6.686   5.129  0.9504  0.4439 -0.0991
  949MOL0     H28082  10.242   6.561   5.025  2.9095  3.0074  0.4616
  949MOL0     H28083  10.102   6.643   4.850  2.5956 -0.4285 -1.5128
  949MOL0     H28084  10.053   6.792   4.936 -2.2559 -1.3797 -1.4285
  949MOL0     H28085  10.333   6.717   4.842  1.7432  1.0073  1.1014
  949MOL0     H28086  10.299   6.867   4.918  1.9834 -0.6045 -2.7823
  949MOL0     H28087  10.192   6.775   4.660  1.6706  0.2399 -1.0015
  949MOL0     H28088  10.145   6.926   4.750  1.9790  1.0526 -0.7965
  949MOL0     H28089  10.403   6.840   4.613 -0.3307  0.6093  0.0201
  949MOL0     H28090  10.403   6.965   4.727  0.9013  1.2061 -1.1843
  949MOL0     H28091  10.224   6.940   4.482 -0.2382  1.1384 -0.6329
  949MOL0     H28092  10.241   7.078   4.594 -0.2577 -1.5272  0.6773
  949MOL0     H28093  10.441   6.963   4.381  0.0802  1.7840 -2.8639
  949MOL0     H28094  10.496   7.075   4.506 -0.4894 -1.2871  1.1480
  949MOL0     H28095  10.293   7.227   4.416 -1.6844 -0.9634 -0.8943
  949MOL0     H28096  10.327   7.140   4.269  1.0492 -1.6213 -1.2927
  949MOL0     H28097  10.193   6.463   5.271  1.6131 -1.6684  2.2523
  949MOL0     H28098  10.160   6.472   5.535 -1.0805 -1.6486 -0.0370
  949MOL0     H28099   9.625   6.480   5.845 -0.7191 -1.2812  0.2766
  949MOL0     H28100   9.599   6.465   6.071 -1.0972  1.5995 -0.9981
  949MOL0     H28101  10.955   6.552   7.240  2.0498 -0.6286 -0.7043
  949MOL0     H28102  10.994   6.582   7.494  0.5889 -2.3654  2.1679
  949MOL0     H28103  11.145   6.498   7.832 -2.2364 -2.0006 -1.0484
  949MOL0     H28104  11.212   6.601   8.042  0.1306 -0.1272 -2.1173
  949MOL0     H28105  10.909   6.503   8.379  0.6689 -1.3668  1.8070
  949MOL0     H28106  11.070   6.424   8.348 -0.3117 -0.0694  0.0266
  949MOL0     H28107  11.106   6.482   8.566 -1.4445  0.1416  0.5691
  949MOL0     H28108  10.993   6.613   8.572  0.5606  2.1696 -1.1806
  949MOL0     H28109  11.243   6.658   8.421  1.3510 -1.1178  1.1519
  949MOL0     H28110  11.259   6.615   8.581 -2.8801 -3.2952  2.4126
  949MOL0     H28111  11.252   6.861   8.544 -0.7711  0.7666 -0.5774
  949MOL0     H28112  11.122   6.807   8.658  0.5547 -0.2459  0.6449
  949MOL0     H28113  10.961   7.003   8.303 -2.0059  0.2523  2.3021
  949MOL0     H28114  10.800   6.534   8.185  0.4764 -1.9620  0.3673
  949MOL0     H28115  10.746   6.425   7.976  0.1412 -2.2803  2.5137
  950MOL0     O28116   6.935   5.212   3.749  0.2819  0.5801 -0.3960
  950MOL0     C28117   6.852   5.259   3.829 -0.7819 -0.2296 -0.1743
  950MOL0     O28118   6.881   5.288   3.959  0.3870  0.4724 -0.5205
  950MOL0     C28119   7.013   5.285   3.997  0.7550 -0.3628 -0.0016
  950MOL0     C28120   7.067   5.212   4.108 -0.0069 -1.1704 -0.7485
  950MOL0     C28121   7.202   5.212   4.134 -0.7057 -0.1444 -0.0434
  950MOL0     C28122   7.288   5.294   4.063  1.0456  0.2376  0.5897
  950MOL0     O28123   7.424   5.285   4.084 -0.1543  0.5632  0.0923
  950MOL0     C28124   7.506   5.409   4.075  0.4352  0.5743  0.2755
  950MOL0     C28125   7.629   5.402   4.164  0.4011  0.6507 -0.1941
  950MOL0     C28126   7.720   5.295   4.114 -0.2151 -0.4850  0.0523
  950MOL0     C28127   7.809   5.235   4.220  0.8639  0.1145 -0.7548
  950MOL0     C28128   7.920   5.148   4.166  0.5250  0.2203  0.5205
  950MOL0     C28129   7.861   5.035   4.073  0.6286 -0.2263 -0.2523
  950MOL0     C28130   7.987   4.943   4.052 -0.2501  0.2366  0.0659
  950MOL0     C28131   7.947   4.844   3.938  0.1287 -0.3675 -0.0832
  950MOL0     N28132   7.866   4.726   3.979 -0.2275  0.3984 -0.2706
  950MOL0     C28133   7.910   4.633   4.066 -0.9357  0.0472 -0.2627
  950MOL0     C28134   7.805   4.548   4.080  0.1579  0.4694  0.1761
  950MOL0     C28135   7.802   4.420   4.172  0.3086  0.2134  0.0660
  950MOL0     C28136   7.857   4.466   4.309  0.5644 -0.1565  0.4191
  950MOL0     C28137   7.869   4.351   4.409 -0.4902  0.2668 -0.6441
  950MOL0     C28138   7.741   4.280   4.461  0.5226 -0.4827 -0.0369
  950MOL0     O28139   7.787   4.162   4.517  0.7095 -0.6036 -0.1248
  950MOL0     C28140   7.800   4.049   4.432 -0.0350 -0.0369  0.1579
  950MOL0     C28141   7.798   4.051   4.297  0.6205 -0.0465  0.8771
  950MOL0     C28142   7.801   3.940   4.207 -0.5003  0.3623 -0.7098
  950MOL0     C28143   7.795   3.984   4.067  0.3418  0.5162 -0.2157
  950MOL0     C28144   7.800   3.816   4.262  0.0233  1.2793 -0.0410
  950MOL0     C28145   7.776   3.696   4.177 -0.3626  0.6950 -0.3389
  950MOL0     O28146   7.769   3.579   4.247 -0.2123  0.8181  0.6526
  950MOL0     C28147   7.731   3.467   4.168  1.0782 -0.5687  0.4898
  950MOL0     C28148   7.829   3.383   4.110 -0.1265 -0.1494 -1.3143
  950MOL0     C28149   7.789   3.266   4.046  0.2686  0.3727  0.0415
  950MOL0     C28150   7.652   3.240   4.022  0.6217  0.2663  0.7720
  950MOL0     O28151   7.599   3.133   3.949  0.3581  0.2740  0.1727
  950MOL0     C28152   7.503   3.160   3.845 -1.0697  1.0598 -0.1419
  950MOL0     C28153   7.362   3.101   3.867 -1.0538  0.8732  0.3139
  950MOL0     C28154   7.356   2.947   3.895 -0.9848  0.6229 -0.2063
  950MOL0     C28155   7.210   2.910   3.927 -0.2743  0.0571  1.0683
  950MOL0     C28156   7.189   2.764   3.936  0.7195 -0.0874 -0.3891
  950MOL0     C28157   7.253   2.686   4.051  0.7654  0.5813 -0.5675
  950MOL0     C28158   7.155   2.576   4.100 -0.4142 -0.0363  1.0380
  950MOL0     C28159   7.023   2.633   4.163 -0.2602  0.2832 -0.2316
  950MOL0    Cl28160   6.931   2.495   4.228 -0.4596 -0.0475 -0.6307
  950MOL0     C28161   7.557   3.327   4.074 -0.2525  0.5032  0.3223
  950MOL0     C28162   7.602   3.435   4.154  0.4043  1.1732  0.4885
  950MOL0     O28163   7.760   3.706   4.060  0.0785  0.0844  0.1475
  950MOL0     C28164   7.813   3.804   4.398 -0.1328  1.2307 -0.5805
  950MOL0     C28165   7.816   3.920   4.478  0.5630 -0.6321 -0.9331
  950MOL0     N28166   7.711   4.595   3.987 -0.3624 -0.4093 -0.0800
  950MOL0     N28167   7.741   4.700   3.932 -0.3375 -0.1106  0.3301
  950MOL0     C28168   7.240   5.373   3.957 -0.1319  0.4949 -0.4175
  950MOL0     C28169   7.095   5.372   3.937  0.0753 -0.6362  0.1059
  950MOL0     C28170   6.715   5.274   3.779  0.6870 -0.5643 -0.3601
  950MOL0     C28171   6.619   5.342   3.858  0.0556 -0.0911  0.1202
  950MOL0     C28172   6.489   5.372   3.805 -0.5821  0.2366  0.2277
  950MOL0     C28173   6.447   5.341   3.680 -0.7552  0.4703  0.1596
  950MOL0     O28174   6.318   5.376   3.652 -0.4526  0.3219  0.0005
  950MOL0     C28175   6.250   5.305   3.555  0.0220  0.7125  0.1376
  950MOL0     C28176   6.200   5.160   3.600  0.2617 -0.2844 -0.0002
  950MOL0     C28177   6.084   5.168   3.691 -0.0351 -0.5830 -0.0941
  950MOL0     C28178   5.957   5.233   3.639  0.1005  0.2642  0.3823
  950MOL0     C28179   5.892   5.174   3.528 -0.1691  0.4713  1.2444
  950MOL0     C28180   5.824   5.139   3.438  0.8554 -0.0453 -0.5162
  950MOL0     C28181   6.539   5.260   3.605 -0.8263  0.6127  0.1272
  950MOL0     C28182   6.666   5.230   3.650 -0.4053 -0.5383 -0.0108
  950MOL0     H28183   6.996   5.148   4.160  1.6104 -3.5301 -1.2663
  950MOL0     H28184   7.235   5.142   4.211 -0.6697 -0.0052  0.0684
  950MOL0     H28185   7.526   5.416   3.967 -1.6396  2.0378 -0.0717
  950MOL0     H28186   7.444   5.498   4.088 -1.0468 -0.0140 -2.0645
  950MOL0     H28187   7.688   5.495   4.162 -1.9021  2.2208  0.1958
  950MOL0     H28188   7.602   5.384   4.269 -2.5707  1.8941 -0.6207
  950MOL0     H28189   7.665   5.211   4.071  0.8109 -0.4764 -1.3634
  950MOL0     H28190   7.783   5.321   4.029  1.0673 -2.9141  0.1699
  950MOL0     H28191   7.856   5.308   4.287  2.4897 -2.2828  0.8813
  950MOL0     H28192   7.746   5.178   4.289  2.4835  3.5271  4.1515
  950MOL0     H28193   7.995   5.191   4.099 -1.2537 -0.1501 -1.8292
  950MOL0     H28194   7.975   5.103   4.250  0.7979  0.3066  0.3910
  950MOL0     H28195   7.774   4.986   4.118 -0.3284  1.4612 -0.1688
  950MOL0     H28196   7.824   5.070   3.976  3.0633  2.1771 -0.4290
  950MOL0     H28197   8.057   5.011   4.002 -1.2419 -0.5676 -2.6454
  950MOL0     H28198   8.023   4.898   4.144 -3.3861 -0.6881  0.9657
  950MOL0     H28199   8.034   4.800   3.886 -0.8143 -2.4673 -0.0007
  950MOL0     H28200   7.895   4.896   3.857  1.6910  2.3536  0.5394
  950MOL0     H28201   8.009   4.626   4.111 -1.2837  1.8843  0.8679
  950MOL0     H28202   7.702   4.376   4.184 -0.4353  2.0476  0.8559
  950MOL0     H28203   7.860   4.339   4.126 -1.8032 -1.4276  0.1368
  950MOL0     H28204   7.795   4.534   4.368 -2.5791 -0.7653 -1.9151
  950MOL0     H28205   7.955   4.513   4.296 -0.4503  2.0102  0.1651
  950MOL0     H28206   7.927   4.395   4.490 -0.1066  1.8965 -1.7582
  950MOL0     H28207   7.928   4.276   4.356  0.5896  0.5688  0.1096
  950MOL0     H28208   7.663   4.265   4.386  0.1771 -1.5828  0.5143
  950MOL0     H28209   7.685   4.333   4.539 -0.2649 -2.1249  0.5492
  950MOL0     H28210   7.798   4.146   4.243  0.2371 -0.6318 -0.1706
  950MOL0     H28211   7.773   4.089   4.047 -2.8097  0.7045  3.1011
  950MOL0     H28212   7.892   3.958   4.025 -0.6380  0.3055 -2.5101
  950MOL0     H28213   7.713   3.936   4.012  0.5034 -0.7532  0.6042
  950MOL0     H28214   7.936   3.401   4.110 -0.5338  2.6207 -0.7531
  950MOL0     H28215   7.848   3.203   3.981 -1.1131  0.6886 -1.5850
  950MOL0     H28216   7.495   3.267   3.827 -2.0003  0.5593 -3.2434
  950MOL0     H28217   7.534   3.106   3.755  0.5682  2.2104 -0.3252
  950MOL0     H28218   7.321   3.162   3.948  1.4098  0.1287  2.2598
  950MOL0     H28219   7.300   3.111   3.777 -1.8805 -1.6703  0.5239
  950MOL0     H28220   7.424   2.913   3.974  2.0202  1.5546 -2.1725
  950MOL0     H28221   7.389   2.890   3.807 -1.4194 -1.4455  0.9101
  950MOL0     H28222   7.168   2.961   4.014 -2.1176 -1.7680  1.3208
  950MOL0     H28223   7.147   2.948   3.845 -0.0777  1.4363  1.5215
  950MOL0     H28224   7.216   2.718   3.841 -0.1477 -0.4139 -0.4912
  950MOL0     H28225   7.080   2.761   3.940  0.7055  0.8435  2.4123
  950MOL0     H28226   7.347   2.645   4.011  0.7400  2.1279 -2.3434
  950MOL0     H28227   7.287   2.747   4.135 -1.2976  2.0401 -0.7272
  950MOL0     H28228   7.190   2.491   4.160 -0.3005 -1.7158 -1.3002
  950MOL0     H28229   7.123   2.523   4.010  1.8315 -1.9855  1.2693
  950MOL0     H28230   6.959   2.679   4.087 -0.1201  2.2103  0.7641
  950MOL0     H28231   7.049   2.698   4.247  1.3341  3.0953 -2.6771
  950MOL0     H28232   7.450   3.313   4.065 -0.3481 -1.4366  3.4083
  950MOL0     H28233   7.534   3.494   4.214 -0.9290 -1.7372  2.0453
  950MOL0     H28234   7.811   3.712   4.454  1.3927  0.2084 -2.0900
  950MOL0     H28235   7.838   3.910   4.584  0.0798 -1.3910 -0.9034
  950MOL0     H28236   7.295   5.449   3.902  0.1359  1.7522  1.4921
  950MOL0     H28237   7.050   5.437   3.863  2.4355  1.2534  0.2211
  950MOL0     H28238   6.648   5.372   3.959 -2.5442  1.2537  0.5543
  950MOL0     H28239   6.443   5.422   3.890  0.3749  0.0674  0.8614
  950MOL0     H28240   6.169   5.366   3.513 -0.6761  0.5307  1.1669
  950MOL0     H28241   6.311   5.267   3.473 -2.5902 -2.1164 -0.6974
  950MOL0     H28242   6.283   5.125   3.661 -0.8841 -0.6344  1.4159
  950MOL0     H28243   6.181   5.102   3.509 -2.0447  0.2757  0.0459
  950MOL0     H28244   6.113   5.224   3.780 -1.8630  0.3322 -0.0309
  950MOL0     H28245   6.052   5.066   3.715  1.8920 -1.1244  0.3822
  950MOL0     H28246   5.978   5.340   3.626 -2.0865  0.9103  1.5723
  950MOL0     H28247   5.873   5.231   3.709 -0.4582  0.1818 -0.2787
  950MOL0     H28248   5.763   5.093   3.363 -1.5350  1.4260  0.4213
  950MOL0     H28249   6.517   5.214   3.509 -0.7466 -1.7429  1.1566
  950MOL0     H28250   6.730   5.167   3.589  2.3244 -1.0699  3.0680
  951MOL0     O28251   8.444   3.959   5.747 -1.2098 -0.0332 -0.2369
  951MOL0     C28252   8.363   3.881   5.789  0.3653  0.2788  0.7554
  951MOL0     O28253   8.282   3.917   5.890 -1.1929  0.4536  0.3703
  951MOL0     C28254   8.266   4.046   5.926  0.6495  0.6376 -0.1060
  951MOL0     C28255   8.317   4.166   5.863 -1.2261 -0.4273  0.3444
  951MOL0     C28256   8.301   4.294   5.921  0.4120  0.5370 -0.4659
  951MOL0     C28257   8.216   4.307   6.035 -0.2032 -1.5352 -0.2834
  951MOL0     O28258   8.205   4.424   6.100 -0.3648 -1.1762 -0.3711
  951MOL0     C28259   8.288   4.539   6.073 -0.2643 -0.8487  0.4228
  951MOL0     C28260   8.438   4.520   6.123 -0.9674  0.0082  0.9380
  951MOL0     C28261   8.465   4.432   6.250  1.5166 -0.3551 -0.3486
  951MOL0     C28262   8.412   4.475   6.386  0.6732  0.0639 -0.0255
  951MOL0     C28263   8.442   4.356   6.481 -0.1389  0.0771 -0.4524
  951MOL0     C28264   8.387   4.378   6.611 -0.1157  0.0701 -0.7090
  951MOL0     C28265   8.472   4.483   6.688  0.1292  0.2705 -0.2680
  951MOL0     C28266   8.437   4.486   6.840  0.7066 -0.6173  0.3963
  951MOL0     N28267   8.556   4.530   6.920  0.5401  0.2676  0.4109
  951MOL0     C28268   8.583   4.662   6.945  0.6815  0.7006  0.2772
  951MOL0     C28269   8.697   4.666   7.003 -0.2424  0.1612  0.2486
  951MOL0     C28270   8.775   4.789   7.024 -0.2602  0.4032 -0.4641
  951MOL0     C28271   8.822   4.771   7.167  0.1474 -0.6200 -1.0894
  951MOL0     C28272   8.933   4.877   7.208 -1.4793  0.0109  0.5444
  951MOL0     C28273   8.890   5.014   7.234 -1.3964 -0.2342 -0.0154
  951MOL0     O28274   8.871   5.022   7.379 -0.5252  0.0095  0.0853
  951MOL0     C28275   8.745   5.024   7.430 -0.1357  0.0266  0.3329
  951MOL0     C28276   8.623   4.994   7.369  0.2193 -0.2604  0.4029
  951MOL0     C28277   8.498   5.017   7.433 -1.4260  0.8850 -0.2532
  951MOL0     C28278   8.375   4.980   7.357 -0.2626 -0.6893 -0.6061
  951MOL0     C28279   8.491   5.061   7.575 -0.1619 -0.6438 -0.0037
  951MOL0     C28280   8.371   5.083   7.659 -0.5770 -0.0105 -0.4230
  951MOL0     O28281   8.252   5.040   7.615  0.2171 -0.5030  0.1537
  951MOL0     C28282   8.146   5.053   7.697 -0.3278 -1.0874 -0.2483
  951MOL0     C28283   8.027   5.091   7.630  0.6209 -0.3239  0.1487
  951MOL0     C28284   7.906   5.125   7.694 -0.0905  0.5227 -0.0581
  951MOL0     C28285   7.902   5.107   7.831  0.3245 -0.2312  0.4191
  951MOL0     O28286   7.783   5.120   7.904  0.2079  0.2766  0.3226
  951MOL0     C28287   7.658   5.094   7.834  0.5624 -0.3208  0.8410
  951MOL0     C28288   7.599   5.236   7.819  0.8427  0.1170  0.1425
  951MOL0     C28289   7.463   5.227   7.750 -0.3927  0.7822 -0.6234
  951MOL0     C28290   7.462   5.216   7.597 -1.2436  0.2926 -0.5271
  951MOL0     C28291   7.318   5.185   7.541 -0.0407 -0.7325 -0.8460
  951MOL0     C28292   7.213   5.287   7.593 -0.3362  0.5657 -0.6365
  951MOL0     C28293   7.078   5.259   7.530 -0.3078 -0.4716  0.5018
  951MOL0     C28294   6.950   5.285   7.615 -0.7039  0.5052 -0.2142
  951MOL0    Cl28295   6.828   5.177   7.533 -0.2305 -0.2519 -0.1878
  951MOL0     C28296   8.022   5.079   7.899 -0.8315  0.5509 -0.4083
  951MOL0     C28297   8.142   5.040   7.834 -0.6003  0.5330  0.3697
  951MOL0     O28298   8.389   5.154   7.760 -0.4012 -0.3390 -1.0141
  951MOL0     C28299   8.623   5.097   7.625 -0.0960 -0.0950 -0.9222
  951MOL0     C28300   8.745   5.080   7.556 -0.5638 -0.1740  0.4961
  951MOL0     N28301   8.735   4.537   7.029 -0.1073 -0.4817  0.1590
  951MOL0     N28302   8.641   4.454   6.998 -0.1133  0.4135 -0.3468
  951MOL0     C28303   8.157   4.187   6.089 -0.4742  0.7741  0.0795
  951MOL0     C28304   8.195   4.057   6.042  0.2882  0.3131 -0.1263
  951MOL0     C28305   8.348   3.753   5.724 -0.2401  0.9558  0.2191
  951MOL0     C28306   8.439   3.703   5.625  0.0518 -0.2759 -0.4343
  951MOL0     C28307   8.413   3.587   5.550  0.5905  0.3096 -1.0936
  951MOL0     C28308   8.297   3.515   5.580 -0.5121  1.3003 -0.5065
  951MOL0     O28309   8.278   3.408   5.502 -0.5031  0.3697 -0.0416
  951MOL0     C28310   8.159   3.329   5.512 -0.1428  0.1816 -1.5374
  951MOL0     C28311   8.157   3.238   5.393  0.0631 -0.0799 -0.5346
  951MOL0     C28312   8.137   3.103   5.436 -0.0646  0.6549  0.6318
  951MOL0     C28313   8.120   2.999   5.320 -0.7710  0.3031  1.0502
  951MOL0     C28314   8.118   2.864   5.370 -0.8421  0.5754 -0.7900
  951MOL0     C28315   8.112   2.744   5.398  0.4862  0.0802  0.3128
  951MOL0     C28316   8.204   3.565   5.678 -0.4473  0.8935 -0.5684
  951MOL0     C28317   8.232   3.683   5.749 -0.4099  0.0587 -0.1886
  951MOL0     H28318   8.380   4.158   5.775 -1.5757 -1.3795  0.1661
  951MOL0     H28319   8.333   4.374   5.855  0.5555  1.9275  1.2218
  951MOL0     H28320   8.275   4.562   5.967 -1.7938  2.2651  1.1646
  951MOL0     H28321   8.240   4.623   6.123  3.1862  2.3499 -1.1513
  951MOL0     H28322   8.504   4.481   6.045 -1.5189 -0.5453  0.7411
  951MOL0     H28323   8.480   4.620   6.137 -2.1437  0.5846  0.4862
  951MOL0     H28324   8.420   4.333   6.238  0.4692 -0.3412  2.7133
  951MOL0     H28325   8.566   4.390   6.251  1.3231 -0.9225 -1.5665
  951MOL0     H28326   8.447   4.576   6.409  3.2951 -0.2415 -2.1481
  951MOL0     H28327   8.305   4.489   6.367  1.0578  0.5080 -2.2130
  951MOL0     H28328   8.417   4.255   6.449  3.5582 -1.2301  0.3681
  951MOL0     H28329   8.551   4.358   6.494 -0.0864  0.5578 -0.9519
  951MOL0     H28330   8.281   4.402   6.601  0.0283  0.0409 -2.5995
  951MOL0     H28331   8.392   4.295   6.683  1.4759  3.1278  3.0961
  951MOL0     H28332   8.575   4.447   6.682 -0.8163 -2.4686 -1.8361
  951MOL0     H28333   8.458   4.581   6.643 -1.5846 -1.1751 -3.2271
  951MOL0     H28334   8.413   4.387   6.878  0.7071 -0.8057 -0.0806
  951MOL0     H28335   8.355   4.558   6.852  1.9115  0.5836  1.8285
  951MOL0     H28336   8.525   4.753   6.937  0.2007  0.5579  1.8087
  951MOL0     H28337   8.860   4.794   6.956 -0.6039  0.4901 -0.8853
  951MOL0     H28338   8.719   4.882   7.034  1.1298  1.2659 -0.5236
  951MOL0     H28339   8.876   4.678   7.189 -1.4414 -0.9949  1.7671
  951MOL0     H28340   8.743   4.788   7.241  1.6770 -2.0315  0.9889
  951MOL0     H28341   9.001   4.881   7.123 -1.8706 -0.6580  0.1910
  951MOL0     H28342   9.000   4.841   7.287 -0.0183  0.1583 -0.5777
  951MOL0     H28343   8.797   5.039   7.183 -2.1845  3.7365  2.8947
  951MOL0     H28344   8.965   5.088   7.206 -3.1927  1.3116 -0.9157
  951MOL0     H28345   8.617   4.968   7.263  2.7637 -1.8926  0.5684
  951MOL0     H28346   8.393   4.964   7.250 -2.3224 -3.2636 -0.6673
  951MOL0     H28347   8.343   4.877   7.379  1.8916 -2.1113 -3.4516
  951MOL0     H28348   8.298   5.057   7.362  1.0362  0.6122  0.3383
  951MOL0     H28349   8.027   5.083   7.521  2.3478 -0.1407  0.1159
  951MOL0     H28350   7.820   5.177   7.655 -4.1613 -0.3730  6.1915
  951MOL0     H28351   7.659   5.042   7.738 -0.6936  0.0554  0.6076
  951MOL0     H28352   7.585   5.036   7.891  2.9056 -4.1847  0.2436
  951MOL0     H28353   7.589   5.272   7.922 -1.4988  1.9982 -0.6370
  951MOL0     H28354   7.655   5.304   7.754 -1.1896 -0.1496 -2.0161
  951MOL0     H28355   7.407   5.317   7.777 -1.9924 -0.3280 -0.1531
  951MOL0     H28356   7.398   5.153   7.796 -0.6307  2.9431  2.9207
  951MOL0     H28357   7.501   5.309   7.554  1.0889 -1.2195 -1.8867
  951MOL0     H28358   7.528   5.135   7.565 -2.2738  0.1828 -2.5701
  951MOL0     H28359   7.301   5.082   7.574  0.9981 -1.0279 -1.2075
  951MOL0     H28360   7.323   5.201   7.433  0.0726 -0.8533 -0.8587
  951MOL0     H28361   7.204   5.274   7.701 -0.4058  0.8277 -0.6104
  951MOL0     H28362   7.235   5.393   7.579 -2.0580  0.8401 -1.5254
  951MOL0     H28363   7.079   5.160   7.483 -1.2050  0.4201 -1.5123
  951MOL0     H28364   7.064   5.324   7.444 -0.0079 -0.5373  0.4049
  951MOL0     H28365   6.917   5.389   7.604 -1.2669  0.2747 -0.7935
  951MOL0     H28366   6.967   5.260   7.720  1.3842  3.4601  0.2578
  951MOL0     H28367   8.026   5.059   8.006  2.6303  0.7664 -0.3994
  951MOL0     H28368   8.231   5.006   7.887  1.3994  0.2904 -2.8633
  951MOL0     H28369   8.647   5.130   7.725 -1.1244 -3.5663  0.5928
  951MOL0     H28370   8.842   5.102   7.600 -0.4319  0.7149 -0.2225
  951MOL0     H28371   8.093   4.205   6.175  1.5223 -3.1238  2.6850
  951MOL0     H28372   8.156   3.969   6.091 -3.5977  3.2041  2.6656
  951MOL0     H28373   8.528   3.761   5.603 -0.6875  0.5213 -1.4132
  951MOL0     H28374   8.473   3.555   5.465 -0.3641 -3.0529 -0.6696
  951MOL0     H28375   8.178   3.267   5.600  1.6419  1.5074 -0.9191
  951MOL0     H28376   8.079   3.401   5.531 -0.7584 -1.3560  3.0620
  951MOL0     H28377   8.247   3.250   5.332  0.3681  1.7399  0.2087
  951MOL0     H28378   8.080   3.272   5.323  0.2652  2.7915  0.5293
  951MOL0     H28379   8.040   3.096   5.486 -1.6314 -2.4478 -2.4270
  951MOL0     H28380   8.217   3.067   5.501 -1.3164 -0.3172  1.6910
  951MOL0     H28381   8.214   3.008   5.265  0.8787 -2.2523  3.2275
  951MOL0     H28382   8.043   3.004   5.242  0.1693 -2.6301 -0.2145
  951MOL0     H28383   8.096   2.640   5.413 -3.7124  0.6567  1.0275
  951MOL0     H28384   8.102   3.531   5.691 -1.6299  2.6428 -4.0659
  951MOL0     H28385   8.145   3.717   5.805  0.6804  4.0337 -0.6156
  952MOL0     O28386  10.450   9.767   7.070 -0.1345  0.1169  0.2166
  952MOL0     C28387  10.486   9.736   6.959 -0.6090 -0.3206  0.1517
  952MOL0     O28388  10.595   9.666   6.928  0.1441  0.5425 -0.4930
  952MOL0     C28389  10.683   9.621   7.022  0.0500 -0.2897 -0.0568
  952MOL0     C28390  10.822   9.630   6.993 -0.3661 -0.0038 -0.7219
  952MOL0     C28391  10.903   9.577   7.091  0.2205  0.4355  0.4445
  952MOL0     C28392  10.857   9.506   7.194 -0.7334  0.8185  0.3372
  952MOL0     O28393  10.959   9.467   7.277  0.5860 -0.1957 -0.7487
  952MOL0     C28394  10.941   9.344   7.356 -1.5634  0.0543  0.4269
  952MOL0     C28395  11.082   9.285   7.406  0.3916 -0.6163  1.5797
  952MOL0     C28396  11.075   9.152   7.477  0.3474  1.0527  0.7218
  952MOL0     C28397  10.938   9.121   7.545 -0.0180  0.6136 -1.0187
  952MOL0     C28398  10.943   8.995   7.629  0.1066  0.7634 -0.2613
  952MOL0     C28399  10.807   8.957   7.685  0.1529  1.0161  0.3896
  952MOL0     C28400  10.827   8.838   7.777 -0.1438 -0.7104  0.0609
  952MOL0     C28401  10.697   8.759   7.806 -0.0505 -0.5334  0.2166
  952MOL0     N28402  10.607   8.833   7.898 -0.5487  0.8470  0.5608
  952MOL0     C28403  10.536   8.948   7.863 -1.1166  0.1943 -0.6235
  952MOL0     C28404  10.481   8.986   7.981 -0.1155  0.5369  0.8717
  952MOL0     C28405  10.390   9.107   7.999 -0.5679 -0.3066 -0.0661
  952MOL0     C28406  10.317   9.103   8.124 -1.4499 -0.2291 -0.1823
  952MOL0     C28407  10.214   8.986   8.133  0.7858  0.2620  0.0063
  952MOL0     C28408  10.076   9.046   8.162 -0.8497  0.0168 -0.2474
  952MOL0     O28409  10.088   9.121   8.280  1.0497  0.7774 -0.3093
  952MOL0     C28410   9.971   9.166   8.329  0.4180 -0.5078 -0.4831
  952MOL0     C28411   9.954   9.198   8.466  0.5698 -1.1739  0.1505
  952MOL0     C28412   9.836   9.266   8.521 -0.5154 -0.7759  0.3579
  952MOL0     C28413   9.856   9.298   8.666  0.5995 -0.3786 -0.5216
  952MOL0     C28414   9.729   9.306   8.437 -0.3733 -0.3013 -0.5656
  952MOL0     C28415   9.604   9.373   8.487 -0.1532  0.0191  0.7458
  952MOL0     O28416   9.590   9.426   8.612  0.0831 -0.7931 -0.4284
  952MOL0     C28417   9.457   9.464   8.632 -0.5669  0.7690 -0.2931
  952MOL0     C28418   9.410   9.442   8.764 -0.4541  0.3108 -0.6960
  952MOL0     C28419   9.287   9.481   8.799  1.6000 -1.3268 -0.0541
  952MOL0     C28420   9.190   9.538   8.722 -0.8022  0.9665  0.1607
  952MOL0     O28421   9.073   9.566   8.778 -0.4647  0.5312 -0.2036
  952MOL0     C28422   8.986   9.639   8.687  0.9644 -0.5643 -0.4336
  952MOL0     C28423   8.865   9.683   8.774 -0.0367  0.5413  0.3367
  952MOL0     C28424   8.908   9.792   8.863 -0.1461  0.4305 -0.4913
  952MOL0     C28425   8.895   9.749   9.012 -0.2727 -0.8303  0.6937
  952MOL0     C28426   8.982   9.844   9.092 -0.3555  1.0889 -1.0140
  952MOL0     C28427   8.909   9.979   9.101  0.0560 -0.3728 -0.3881
  952MOL0     C28428   8.936  10.074   9.221  0.0312  0.3143 -0.7732
  952MOL0     C28429   8.903   9.993   9.344  0.1482  0.5367 -0.6358
  952MOL0    Cl28430   8.730   9.965   9.358 -0.0109 -0.3088  0.9850
  952MOL0     C28431   9.234   9.582   8.592 -0.0591  1.2397  0.5911
  952MOL0     C28432   9.369   9.539   8.549  0.4581 -0.5874  0.5803
  952MOL0     O28433   9.513   9.361   8.396  0.2022  1.2148  0.5525
  952MOL0     C28434   9.747   9.273   8.298 -0.1479  0.3019  0.0455
  952MOL0     C28435   9.862   9.202   8.250  0.3534  0.1355  0.3984
  952MOL0     N28436  10.531   8.903   8.082  0.6586  0.0417  0.2481
  952MOL0     N28437  10.599   8.810   8.030 -0.7309  0.5071 -0.0372
  952MOL0     C28438  10.722   9.485   7.213 -0.4260 -0.0632  0.1975
  952MOL0     C28439  10.638   9.547   7.128 -0.1836  0.0021 -1.0417
  952MOL0     C28440  10.390   9.770   6.851 -0.4534 -0.7042 -0.5835
  952MOL0     C28441  10.261   9.810   6.876  0.5750  0.4846 -0.2944
  952MOL0     C28442  10.179   9.865   6.775  0.0279  0.7664  0.6803
  952MOL0     C28443  10.218   9.875   6.653 -0.7223 -0.6580  0.1111
  952MOL0     O28444  10.124   9.914   6.560 -0.3084 -0.1301 -0.1504
  952MOL0     C28445  10.147   9.875   6.417 -0.1938  0.4070 -0.5362
  952MOL0     C28446  10.029   9.799   6.354  0.5558 -0.3039 -0.0608
  952MOL0     C28447   9.981   9.672   6.434  0.5200  0.9635 -0.6493
  952MOL0     C28448  10.068   9.545   6.399  0.6457 -0.0901  1.2526
  952MOL0     C28449  10.018   9.499   6.267 -0.0240  0.1521  0.3291
  952MOL0     C28450   9.971   9.470   6.159 -0.0233 -0.8207 -0.8044
  952MOL0     C28451  10.352   9.833   6.622 -0.8548 -0.3272 -0.0954
  952MOL0     C28452  10.436   9.779   6.725  0.0979  0.5094 -0.5642
  952MOL0     H28453  10.868   9.681   6.909  0.6779 -0.0715 -0.1966
  952MOL0     H28454  11.009   9.592   7.075 -0.7738  5.6468 -4.7861
  952MOL0     H28455  10.883   9.369   7.445 -2.6997  0.3120 -0.3688
  952MOL0     H28456  10.882   9.266   7.306 -1.4784 -0.1875  0.7023
  952MOL0     H28457  11.149   9.263   7.323 -2.4968 -2.1836 -0.4769
  952MOL0     H28458  11.124   9.366   7.467 -0.9078  1.4035 -0.0655
  952MOL0     H28459  11.098   9.066   7.413  0.1377 -1.4046  3.7004
  952MOL0     H28460  11.148   9.157   7.559  0.7944  1.7906  0.2895
  952MOL0     H28461  10.914   9.206   7.611  4.0357  1.2627 -0.1239
  952MOL0     H28462  10.862   9.093   7.471 -0.7413  2.0245 -0.8596
  952MOL0     H28463  10.986   8.905   7.584  2.8367  0.0654  3.3074
  952MOL0     H28464  11.010   9.000   7.716 -2.7005  2.4832  2.0015
  952MOL0     H28465  10.771   9.030   7.758  2.9668 -0.0691  3.0472
  952MOL0     H28466  10.735   8.934   7.605  0.6937 -0.1202  0.2141
  952MOL0     H28467  10.912   8.778   7.744  0.9320  1.7142 -1.9863
  952MOL0     H28468  10.868   8.870   7.873 -2.7714  2.0344  0.4345
  952MOL0     H28469  10.725   8.658   7.838  0.7538 -0.2739  0.3451
  952MOL0     H28470  10.642   8.737   7.713 -2.4686  1.3909  1.0864
  952MOL0     H28471  10.529   8.993   7.765 -1.1083  0.3334 -0.5601
  952MOL0     H28472  10.457   9.191   7.981  2.2881 -2.4440 -0.2246
  952MOL0     H28473  10.318   9.121   7.918  2.1151  3.6275 -2.1307
  952MOL0     H28474  10.272   9.201   8.138 -0.3969  0.1308  0.8557
  952MOL0     H28475  10.386   9.098   8.209 -1.3881 -0.7013 -0.2563
  952MOL0     H28476  10.231   8.907   8.207 -1.2165 -0.9253 -0.6965
  952MOL0     H28477  10.202   8.938   8.035 -0.0304  0.0716  0.1891
  952MOL0     H28478  10.008   8.962   8.182  2.3902 -2.3251  1.9225
  952MOL0     H28479  10.029   9.092   8.075 -3.0880 -0.5733  0.5844
  952MOL0     H28480  10.040   9.159   8.519  0.0992 -1.1611  0.9326
  952MOL0     H28481   9.928   9.235   8.719  2.8988  2.1195 -0.4447
  952MOL0     H28482   9.893   9.399   8.687  0.8549 -0.5202 -0.2848
  952MOL0     H28483   9.754   9.284   8.704 -0.4304  1.1892 -2.5499
  952MOL0     H28484   9.459   9.375   8.833 -1.1848 -2.3170 -2.5694
  952MOL0     H28485   9.254   9.449   8.897 -1.7725 -0.8313 -0.8894
  952MOL0     H28486   9.030   9.729   8.642 -1.1208 -0.0625 -1.5917
  952MOL0     H28487   8.949   9.577   8.605  0.8794  0.1169 -0.9210
  952MOL0     H28488   8.783   9.704   8.705 -1.6769  2.2338  2.6571
  952MOL0     H28489   8.821   9.600   8.830  0.6527  0.7741  1.2581
  952MOL0     H28490   8.841   9.878   8.852 -0.2357  0.4073 -0.1182
  952MOL0     H28491   9.013   9.814   8.840  0.0296  0.1951  0.0883
  952MOL0     H28492   8.791   9.753   9.048 -0.1642  1.0950  0.9355
  952MOL0     H28493   8.922   9.644   9.022 -1.0151 -1.1933 -0.7888
  952MOL0     H28494   9.081   9.857   9.047 -1.0815 -0.4733 -3.2379
  952MOL0     H28495   8.993   9.781   9.180 -1.6653  0.3388 -1.3655
  952MOL0     H28496   8.928  10.033   9.009 -1.6416  0.7066 -0.1456
  952MOL0     H28497   8.803   9.954   9.109  0.0756 -0.4602 -0.4072
  952MOL0     H28498   8.867  10.158   9.223  0.5344  0.7380  0.9218
  952MOL0     H28499   9.042  10.103   9.225 -0.1576  1.1354 -1.4153
  952MOL0     H28500   8.928  10.046   9.436  4.1704  1.3616 -2.0146
  952MOL0     H28501   8.951   9.895   9.345 -1.8097 -0.4649 -0.6131
  952MOL0     H28502   9.175   9.635   8.519  3.2418  2.4514 -1.4317
  952MOL0     H28503   9.387   9.587   8.453 -2.7289  1.4061  0.8107
  952MOL0     H28504   9.674   9.318   8.232 -2.5194 -3.2277 -0.0362
  952MOL0     H28505   9.844   9.179   8.146 -1.0509 -4.8102  1.4275
  952MOL0     H28506  10.688   9.421   7.293 -4.7646  0.8342 -0.6474
  952MOL0     H28507  10.533   9.530   7.153 -0.7824  3.5550 -0.4994
  952MOL0     H28508  10.222   9.800   6.977 -1.1059  2.5509 -0.6623
  952MOL0     H28509  10.083   9.906   6.804 -0.3894  0.9447 -0.8425
  952MOL0     H28510  10.173   9.962   6.355  0.0709  0.0371 -0.9549
  952MOL0     H28511  10.237   9.814   6.403  0.0462  0.6122  0.0658
  952MOL0     H28512  10.028   9.766   6.250 -1.4528  0.3911 -0.3074
  952MOL0     H28513   9.939   9.862   6.361 -2.0149 -3.8585  1.8878
  952MOL0     H28514   9.879   9.642   6.408  0.7752  0.2172 -0.8079
  952MOL0     H28515   9.994   9.693   6.541  2.7782 -0.7269 -0.5049
  952MOL0     H28516  10.048   9.458   6.463  0.7301 -2.3679 -1.6172
  952MOL0     H28517  10.175   9.569   6.391  0.3368  0.7388 -1.1572
  952MOL0     H28518   9.933   9.454   6.061 -1.0825 -1.9614 -0.2430
  952MOL0     H28519  10.391   9.851   6.522 -1.1544 -2.5735 -0.6703
  952MOL0     H28520  10.532   9.735   6.699 -0.5384 -0.7598 -0.8229
  953MOL0     O28521   5.602   6.233  10.493 -0.0389 -0.0674  1.3452
  953MOL0     C28522   5.603   6.355  10.483  0.1796 -0.3071 -0.2917
  953MOL0     O28523   5.713   6.430  10.503 -0.5085 -0.7155 -0.1657
  953MOL0     C28524   5.834   6.387  10.530  0.7035  0.7157  0.3101
  953MOL0     C28525   5.936   6.450  10.471  0.5189 -0.7958  0.0191
  953MOL0     C28526   6.058   6.408  10.500 -0.7234 -0.0980  0.1669
  953MOL0     C28527   6.084   6.290  10.570 -0.2103 -0.6675  0.6355
  953MOL0     O28528   6.221   6.264  10.589  0.0278  0.6118  0.1820
  953MOL0     C28529   6.247   6.122  10.575 -0.0467 -0.3535  0.3210
  953MOL0     C28530   6.409   6.097  10.577 -0.2410  0.3825 -0.5400
  953MOL0     C28531   6.449   5.965  10.503 -0.3690 -1.2312 -0.1618
  953MOL0     C28532   6.452   5.848  10.599  0.4981  0.5107  0.4346
  953MOL0     C28533   6.519   5.723  10.543 -1.0195 -0.1735 -0.1002
  953MOL0     C28534   6.504   5.599  10.623 -0.0924 -0.4584  0.6675
  953MOL0     C28535   6.583   5.607  10.757 -0.7161  0.5167 -0.2662
  953MOL0     C28536   6.554   5.470  10.840  0.3440  0.1853  0.3640
  953MOL0     N28537   6.644   5.479  10.960  0.3368  0.3837 -0.0947
  953MOL0     C28538   6.779   5.475  10.947  0.1572  0.0633 -0.0428
  953MOL0     C28539   6.830   5.544  11.053  0.6218  0.7627  0.2753
  953MOL0     C28540   6.966   5.571  11.093 -1.7910 -0.2872 -0.4992
  953MOL0     C28541   7.072   5.508  11.013  0.4449  0.8574 -0.1155
  953MOL0     C28542   7.214   5.537  11.066 -0.0920 -0.9218 -1.0095
  953MOL0     C28543   7.246   5.533  11.217  0.9675 -0.0308  0.7591
  953MOL0     O28544   7.186   5.410  11.253  0.0759  0.1568  0.3279
  953MOL0     C28545   7.230   5.347  11.357 -0.3518 -0.1793  0.0781
  953MOL0     C28546   7.181   5.223  11.384  0.1349  0.4422  0.3968
  953MOL0     C28547   7.231   5.133  11.486 -0.7596  0.3580 -0.6855
  953MOL0     C28548   7.171   5.001  11.498  0.1094 -0.0020  0.6588
  953MOL0     C28549   7.325   5.182  11.578 -0.9861  0.6906  0.7988
  953MOL0     C28550   7.375   5.097  11.695 -1.0059  0.4291 -0.4037
  953MOL0     O28551   7.398   4.961  11.666  0.4821  0.7333  0.2247
  953MOL0     C28552   7.436   4.870  11.760 -0.0674 -1.0665 -0.1532
  953MOL0     C28553   7.386   4.861  11.888  0.3394  0.1402 -0.8102
  953MOL0     C28554   7.432   4.772  11.986  0.2310  0.1646 -0.1541
  953MOL0     C28555   7.554   4.703  11.958  0.7279  0.4245  0.5621
  953MOL0     O28556   7.620   4.604  12.031  0.3729  0.2726 -0.3177
  953MOL0     C28557   7.576   4.605  12.165  0.4052 -0.4538 -0.8826
  953MOL0     C28558   7.693   4.565  12.250 -0.7492  0.2352 -1.2250
  953MOL0     C28559   7.675   4.543  12.397 -0.7270 -0.2039 -0.9461
  953MOL0     C28560   7.563   4.437  12.436 -0.3456 -0.2957  0.6691
  953MOL0     C28561   7.572   4.398  12.586 -0.2862  0.0620 -0.9447
  953MOL0     C28562   7.534   4.509  12.685  0.5279 -0.4811  0.3993
  953MOL0     C28563   7.534   4.446  12.828  0.5842  1.0781 -0.8555
  953MOL0     C28564   7.516   4.527  12.955 -0.3364  0.5292 -0.5317
  953MOL0    Cl28565   7.530   4.414  13.083  0.1969 -0.2622  0.1703
  953MOL0     C28566   7.598   4.700  11.824  0.8798  0.1900  0.5412
  953MOL0     C28567   7.544   4.792  11.725 -0.2801 -0.0201 -0.3645
  953MOL0     O28568   7.392   5.153  11.805 -0.1037  0.5122  0.4330
  953MOL0     C28569   7.365   5.315  11.563 -1.0773 -0.4388 -0.0094
  953MOL0     C28570   7.324   5.392  11.456 -1.0751  0.0375 -0.3753
  953MOL0     N28571   6.726   5.557  11.141 -0.0863 -0.3781 -0.0813
  953MOL0     N28572   6.612   5.531  11.082 -0.4182 -0.7019 -0.8086
  953MOL0     C28573   5.978   6.220  10.632 -0.8274 -0.3338  0.0156
  953MOL0     C28574   5.855   6.270  10.609  0.0987  0.0897  0.4003
  953MOL0     C28575   5.477   6.425  10.471  0.1755  0.1210 -0.2836
  953MOL0     C28576   5.355   6.359  10.439  0.5107 -0.2828  0.4231
  953MOL0     C28577   5.237   6.430  10.416 -0.1878  0.0300 -0.0830
  953MOL0     C28578   5.224   6.561  10.457  0.4670 -1.2494 -0.1627
  953MOL0     O28579   5.102   6.618  10.456  0.7901  0.1731  0.8488
  953MOL0     C28580   5.086   6.747  10.389 -1.1800  0.5829  0.1681
  953MOL0     C28581   4.976   6.819  10.458 -0.3312 -0.0456  0.6300
  953MOL0     C28582   5.024   6.963  10.504  0.7542 -0.1082 -0.2337
  953MOL0     C28583   5.131   6.970  10.606  0.9597  0.0260  1.1885
  953MOL0     C28584   5.078   6.968  10.740  0.9366 -0.8569 -0.6101
  953MOL0     C28585   5.050   6.967  10.857  0.8040  0.1198  0.5026
  953MOL0     C28586   5.338   6.625  10.496 -0.3116 -0.1021 -1.5370
  953MOL0     C28587   5.461   6.561  10.496 -0.2039  1.0298  0.2907
  953MOL0     H28588   5.916   6.540  10.414  0.3455 -0.8788 -0.0495
  953MOL0     H28589   6.144   6.465  10.467 -0.1321 -1.5493 -0.9246
  953MOL0     H28590   6.198   6.071  10.659 -0.1980 -0.0576  0.4138
  953MOL0     H28591   6.202   6.084  10.484  0.5720 -0.7225  0.1658
  953MOL0     H28592   6.453   6.174  10.513 -0.7064 -0.1107 -1.4833
  953MOL0     H28593   6.444   6.104  10.680  1.2782 -1.8357 -0.8537
  953MOL0     H28594   6.390   5.941  10.414 -2.2508 -0.3440  0.7877
  953MOL0     H28595   6.549   5.982  10.463  0.0621 -1.1062  0.9554
  953MOL0     H28596   6.493   5.877  10.696 -1.3390 -1.8207  2.0355
  953MOL0     H28597   6.353   5.817  10.634  1.3043 -0.2629  2.1062
  953MOL0     H28598   6.488   5.710  10.439 -2.0544 -0.4761  0.2374
  953MOL0     H28599   6.627   5.740  10.548 -0.6914 -1.6338 -1.5086
  953MOL0     H28600   6.399   5.573  10.633  0.6026 -3.8936  0.3950
  953MOL0     H28601   6.545   5.515  10.566  0.0079 -0.5522  0.8806
  953MOL0     H28602   6.688   5.613  10.725 -0.6272 -1.2612 -0.3811
  953MOL0     H28603   6.563   5.700  10.811  0.6803  1.4244 -1.2499
  953MOL0     H28604   6.571   5.386  10.773 -0.0433 -0.7906  1.4573
  953MOL0     H28605   6.448   5.467  10.866  0.4818 -0.0676  0.9114
  953MOL0     H28606   6.832   5.441  10.859 -0.9881 -1.8803 -0.0354
  953MOL0     H28607   6.992   5.677  11.085  1.4424 -1.0315 -1.4762
  953MOL0     H28608   6.973   5.544  11.198 -2.7764 -1.6732 -0.7614
  953MOL0     H28609   7.074   5.540  10.909  3.4147 -0.8776 -0.7123
  953MOL0     H28610   7.050   5.401  11.010  1.3337  0.6820 -2.4608
  953MOL0     H28611   7.239   5.633  11.021 -1.7127 -0.0945 -0.2147
  953MOL0     H28612   7.278   5.459  11.022 -1.0011 -0.9601 -2.3356
  953MOL0     H28613   7.213   5.618  11.277 -0.9092  0.5601 -1.0088
  953MOL0     H28614   7.355   5.526  11.215  0.8541 -4.2146 -1.5460
  953MOL0     H28615   7.109   5.182  11.315  2.1237 -2.4169 -0.1504
  953MOL0     H28616   7.115   4.997  11.592 -0.3116 -0.5078  0.3915
  953MOL0     H28617   7.094   4.984  11.422 -0.5678  1.8672  0.8739
  953MOL0     H28618   7.243   4.920  11.485  0.1026 -0.0384  0.8435
  953MOL0     H28619   7.304   4.927  11.914  0.9142  1.0232 -1.2079
  953MOL0     H28620   7.377   4.773  12.079 -4.2626  3.9593 -2.4541
  953MOL0     H28621   7.547   4.706  12.195  0.3847 -0.7372  0.0755
  953MOL0     H28622   7.483   4.549  12.182  0.4108  0.0205  0.8818
  953MOL0     H28623   7.734   4.467  12.226  4.1299  0.1364  5.0880
  953MOL0     H28624   7.775   4.637  12.246  0.2252 -0.5190  1.9821
  953MOL0     H28625   7.634   4.635  12.438  0.5022  0.5633 -1.3862
  953MOL0     H28626   7.770   4.515  12.442 -0.6626 -2.1408 -2.1513
  953MOL0     H28627   7.462   4.472  12.413 -0.7295 -1.9542 -0.3359
  953MOL0     H28628   7.580   4.353  12.369 -1.6300  0.3149 -0.4727
  953MOL0     H28629   7.676   4.377  12.614 -0.3494 -0.1501 -0.8698
  953MOL0     H28630   7.503   4.317  12.608  0.6269 -0.2014  1.1520
  953MOL0     H28631   7.595   4.600  12.682  3.3042 -2.2441 -0.5426
  953MOL0     H28632   7.434   4.543  12.655 -0.4056 -1.3069  2.3906
  953MOL0     H28633   7.637   4.411  12.836 -0.3991 -1.8174  0.9546
  953MOL0     H28634   7.475   4.354  12.839  2.8710 -0.4579 -0.7686
  953MOL0     H28635   7.418   4.575  12.950 -0.1613  0.7833 -2.2745
  953MOL0     H28636   7.583   4.613  12.960 -1.2215  1.2462 -0.6176
  953MOL0     H28637   7.679   4.637  11.789 -1.0202 -1.0988 -1.8786
  953MOL0     H28638   7.581   4.794  11.623  1.3070  1.0298  0.1928
  953MOL0     H28639   7.420   5.380  11.630 -0.0080 -0.0886 -1.2027
  953MOL0     H28640   7.354   5.496  11.454  0.3641 -0.3476  0.0114
  953MOL0     H28641   5.973   6.131  10.693 -2.3672 -0.3648 -0.1166
  953MOL0     H28642   5.768   6.227  10.658  0.1459 -0.9877 -0.4262
  953MOL0     H28643   5.349   6.251  10.434 -2.6277 -0.2732  1.2678
  953MOL0     H28644   5.146   6.381  10.383 -1.5223  0.9785  2.0157
  953MOL0     H28645   5.179   6.803  10.397 -0.7799 -0.1235  0.6277
  953MOL0     H28646   5.072   6.729  10.282  0.0898 -1.3159  0.2678
  953MOL0     H28647   4.947   6.752  10.540  0.1448 -3.5198 -1.8444
  953MOL0     H28648   4.884   6.843  10.405 -1.1885  1.2860  2.5766
  953MOL0     H28649   4.937   7.001  10.558  0.6139 -0.8686  0.0951
  953MOL0     H28650   5.036   7.017  10.410 -0.3184 -2.3347 -1.7516
  953MOL0     H28651   5.181   7.065  10.585 -0.1534  0.3846  0.0251
  953MOL0     H28652   5.212   6.897  10.612  3.7609  2.8737  0.7398
  953MOL0     H28653   5.005   6.966  10.954  0.6831 -2.6694  0.5148
  953MOL0     H28654   5.338   6.727  10.533  0.3419  0.4793 -3.0668
  953MOL0     H28655   5.540   6.624  10.535 -2.2419  2.8992  1.6733
  954MOL0     O28656   1.208   6.787   0.923  0.5583  0.2583 -0.0676
  954MOL0     C28657   1.168   6.701   1.005 -0.2360 -1.1867  0.3222
  954MOL0     O28658   1.040   6.689   1.046 -0.8371  0.4552  0.3721
  954MOL0     C28659   0.948   6.760   0.975  0.6492  0.3735 -1.0088
  954MOL0     C28660   0.934   6.895   0.981 -0.4475 -0.2075  0.2156
  954MOL0     C28661   0.840   6.962   0.907  0.6384  0.1209 -1.0558
  954MOL0     C28662   0.748   6.897   0.818 -0.6561  0.2405 -1.0251
  954MOL0     O28663   0.671   6.970   0.725  0.6863 -0.4378  0.0711
  954MOL0     C28664   0.623   7.108   0.754 -0.0539  0.4528  0.7035
  954MOL0     C28665   0.520   7.099   0.857  0.1443  0.7329 -0.4156
  954MOL0     C28666   0.380   7.066   0.799 -0.8617  0.2806 -0.3297
  954MOL0     C28667   0.354   6.912   0.768  0.6360  0.2172 -0.3168
  954MOL0     C28668   0.206   6.881   0.732 -1.3944  0.4760  0.3231
  954MOL0     C28669   0.180   6.742   0.685  0.3696  0.4326 -0.0282
  954MOL0     C28670   0.224   6.715   0.544  0.1216  1.5695  0.5332
  954MOL0     C28671   0.189   6.575   0.490  0.6301  0.6302  0.8700
  954MOL0     N28672   0.044   6.542   0.484  0.0094  0.4864  0.1934
  954MOL0     C28673  -0.032   6.576   0.373  0.8287  0.7122 -0.4044
  954MOL0     C28674  -0.152   6.512   0.390 -0.6197 -0.5650 -0.1194
  954MOL0     C28675  -0.267   6.522   0.291 -0.2438  0.2778  0.1006
  954MOL0     C28676  -0.279   6.378   0.216 -0.1507  0.7268  0.1566
  954MOL0     C28677  -0.338   6.270   0.318 -0.1835 -0.3059 -0.7997
  954MOL0     C28678  -0.328   6.128   0.253 -0.2737 -0.2077  0.3562
  954MOL0     O28679  -0.410   6.041   0.330  0.2499  0.1209 -0.1415
  954MOL0     C28680  -0.385   5.907   0.311  1.2402 -1.1234 -0.7768
  954MOL0     C28681  -0.309   5.859   0.210 -0.4671  0.3452  0.5533
  954MOL0     C28682  -0.285   5.723   0.176  0.3383  0.5123  0.5782
  954MOL0     C28683  -0.204   5.686   0.048  0.1271  0.8450 -0.2589
  954MOL0     C28684  -0.344   5.629   0.257  0.2084 -0.4952  0.3394
  954MOL0     C28685  -0.343   5.489   0.242  1.3932  0.2893 -0.0444
  954MOL0     O28686  -0.299   5.418   0.355  1.0587  0.3631 -0.6802
  954MOL0     C28687  -0.290   5.278   0.338 -0.2512 -0.3241 -0.3105
  954MOL0     C28688  -0.401   5.201   0.327  0.0241 -0.4814  1.1194
  954MOL0     C28689  -0.392   5.068   0.323 -0.2084 -0.3890 -0.4616
  954MOL0     C28690  -0.270   5.009   0.363  0.7955  0.4789  0.0225
  954MOL0     O28691  -0.265   4.870   0.376  0.3935  0.2177 -0.2106
  954MOL0     C28692  -0.189   4.834   0.490 -0.6523 -0.0031  0.0320
  954MOL0     C28693  -0.092   4.720   0.447 -0.6692  0.2322 -0.0328
  954MOL0     C28694  -0.172   4.591   0.438 -0.7908 -0.4788  0.3077
  954MOL0     C28695  -0.185   4.519   0.570  0.3021 -0.7773 -0.3325
  954MOL0     C28696  -0.254   4.387   0.546  0.5735 -0.6230  1.2955
  954MOL0     C28697  -0.298   4.325   0.679 -0.0411  0.0257 -0.1891
  954MOL0     C28698  -0.406   4.221   0.670  0.0770 -0.2566  0.2915
  954MOL0     C28699  -0.539   4.276   0.618  1.1311 -0.2414  0.1117
  954MOL0    Cl28700  -0.655   4.146   0.638  0.5900 -0.1176 -0.2876
  954MOL0     C28701  -0.156   5.086   0.364  0.3714 -0.3101  0.4349
  954MOL0     C28702  -0.165   5.225   0.356 -0.6509 -0.1813 -0.0752
  954MOL0     O28703  -0.357   5.441   0.130 -0.3476 -0.3503  0.9304
  954MOL0     C28704  -0.425   5.674   0.359 -0.1016  0.0317 -0.8760
  954MOL0     C28705  -0.441   5.810   0.389 -0.1632  0.1259 -0.7901
  954MOL0     N28706  -0.136   6.451   0.511 -0.1596  0.3603  0.0470
  954MOL0     N28707  -0.022   6.453   0.559 -0.1350  0.5220  0.7706
  954MOL0     C28708   0.759   6.759   0.817 -0.9415  0.0582 -0.5297
  954MOL0     C28709   0.861   6.689   0.894  0.4682 -0.1685  0.0890
  954MOL0     C28710   1.271   6.604   1.053  0.6032  0.5990  0.2319
  954MOL0     C28711   1.243   6.515   1.152 -0.4129  1.1455  0.8844
  954MOL0     C28712   1.328   6.422   1.210  0.0690  0.4327 -0.0969
  954MOL0     C28713   1.460   6.421   1.175  0.1603 -1.4925  1.1324
  954MOL0     O28714   1.543   6.328   1.221 -0.7326 -0.1718 -0.2995
  954MOL0     C28715   1.655   6.388   1.288  0.1547 -0.2577  0.0123
  954MOL0     C28716   1.616   6.408   1.438  0.6162  0.2293  0.8850
  954MOL0     C28717   1.721   6.498   1.492 -0.1052 -0.8683 -0.4599
  954MOL0     C28718   1.738   6.467   1.645 -0.1363  0.6028 -0.2003
  954MOL0     C28719   1.787   6.332   1.674 -0.1994 -0.0086 -0.3638
  954MOL0     C28720   1.829   6.218   1.699 -0.4456 -1.3299  0.3621
  954MOL0     C28721   1.493   6.515   1.078 -0.0566 -0.7815 -0.1748
  954MOL0     C28722   1.404   6.606   1.014 -0.8926  0.3320  0.5445
  954MOL0     H28723   1.011   6.943   1.042  0.2848 -2.9691  1.6455
  954MOL0     H28724   0.841   7.071   0.906 -2.7304  0.2405 -0.7688
  954MOL0     H28725   0.715   7.160   0.785  0.3040  2.4267 -3.0797
  954MOL0     H28726   0.595   7.166   0.666 -1.9363 -0.6143  0.5549
  954MOL0     H28727   0.548   7.017   0.923 -0.4021  1.8563  1.2948
  954MOL0     H28728   0.504   7.194   0.909 -3.2994 -0.1031  0.3446
  954MOL0     H28729   0.305   7.104   0.870 -0.3673  3.7711 -1.4555
  954MOL0     H28730   0.369   7.132   0.712 -0.0352 -0.5470 -1.0758
  954MOL0     H28731   0.420   6.892   0.683 -0.4187 -0.9917 -0.8973
  954MOL0     H28732   0.383   6.858   0.858  0.6052  3.3152  1.6985
  954MOL0     H28733   0.145   6.892   0.822  1.7284 -0.1420  2.6642
  954MOL0     H28734   0.168   6.959   0.665  2.2491  0.8598 -1.5005
  954MOL0     H28735   0.207   6.659   0.750 -0.0006 -1.3976 -2.1075
  954MOL0     H28736   0.071   6.741   0.672  0.2909  1.8616  0.3190
  954MOL0     H28737   0.184   6.788   0.474 -3.2406 -1.3529 -0.9385
  954MOL0     H28738   0.333   6.721   0.531  0.0422  5.3559  0.5786
  954MOL0     H28739   0.235   6.486   0.535  0.5944 -1.2282 -2.3847
  954MOL0     H28740   0.209   6.581   0.383 -0.3979 -2.5408  0.3685
  954MOL0     H28741  -0.004   6.624   0.280  0.7765 -2.1122 -1.9883
  954MOL0     H28742  -0.353   6.544   0.353  0.7348  0.2214  1.5220
  954MOL0     H28743  -0.253   6.607   0.224  1.2786 -0.4414 -0.5592
  954MOL0     H28744  -0.178   6.353   0.183 -0.5041 -2.2087  1.0151
  954MOL0     H28745  -0.344   6.391   0.129 -1.4877  0.1322  1.0361
  954MOL0     H28746  -0.445   6.284   0.334 -0.4084 -1.2379 -1.3708
  954MOL0     H28747  -0.284   6.280   0.412  1.7146  0.0834 -1.8830
  954MOL0     H28748  -0.222   6.106   0.265 -0.3810 -0.6024  0.5798
  954MOL0     H28749  -0.362   6.142   0.150 -2.9058 -3.5788  0.5783
  954MOL0     H28750  -0.271   5.932   0.139 -3.1302  1.7378  0.4239
  954MOL0     H28751  -0.114   5.641   0.090 -0.0882  2.9103  2.7463
  954MOL0     H28752  -0.272   5.621  -0.007 -0.9694  0.7122  1.1826
  954MOL0     H28753  -0.170   5.769  -0.013  0.8153 -0.1804 -1.3041
  954MOL0     H28754  -0.496   5.255   0.327 -0.8444 -1.9510  0.6323
  954MOL0     H28755  -0.485   5.017   0.300 -0.3883 -1.8282  2.8774
  954MOL0     H28756  -0.129   4.912   0.538  0.8628 -1.9148  1.4243
  954MOL0     H28757  -0.249   4.807   0.578 -0.1809  1.0054  0.6820
  954MOL0     H28758  -0.041   4.743   0.353 -0.0997  3.3212  0.8905
  954MOL0     H28759  -0.012   4.702   0.518 -0.1452 -1.7424 -1.0536
  954MOL0     H28760  -0.106   4.533   0.372  0.5348 -0.4694  1.5776
  954MOL0     H28761  -0.272   4.594   0.395  0.0485 -1.2142 -1.8760
  954MOL0     H28762  -0.086   4.501   0.614  0.7827  1.5999 -0.2938
  954MOL0     H28763  -0.240   4.586   0.637  0.1351  2.9405 -3.7684
  954MOL0     H28764  -0.196   4.318   0.484  0.6578  1.0814 -0.6353
  954MOL0     H28765  -0.347   4.404   0.492 -1.0758 -0.1798  4.0811
  954MOL0     H28766  -0.209   4.278   0.721 -0.0140  2.0291  2.2082
  954MOL0     H28767  -0.330   4.405   0.746  0.2711  2.0544 -2.3372
  954MOL0     H28768  -0.443   4.180   0.764  1.6792 -1.2352  0.5248
  954MOL0     H28769  -0.364   4.141   0.610  2.0977  1.6243 -0.9496
  954MOL0     H28770  -0.543   4.309   0.514 -0.6011  0.3466  0.3374
  954MOL0     H28771  -0.569   4.363   0.678  1.7175  0.5011 -0.6454
  954MOL0     H28772  -0.056   5.043   0.368  0.2645 -0.6887 -0.6074
  954MOL0     H28773  -0.079   5.291   0.357 -1.5222  0.9951  0.5614
  954MOL0     H28774  -0.486   5.604   0.415 -0.2119 -0.1566 -1.2256
  954MOL0     H28775  -0.501   5.842   0.474  0.0620 -0.9656 -0.2010
  954MOL0     H28776   0.707   6.703   0.740 -1.6494 -0.2951  0.1909
  954MOL0     H28777   0.863   6.580   0.892  2.9945 -0.1629 -0.5143
  954MOL0     H28778   1.148   6.512   1.204 -2.4043 -3.9324 -2.3044
  954MOL0     H28779   1.294   6.354   1.288 -2.7366  3.1448  1.2195
  954MOL0     H28780   1.734   6.312   1.288 -0.5693 -1.0480 -1.5389
  954MOL0     H28781   1.688   6.488   1.258  1.5476 -0.7053 -0.0215
  954MOL0     H28782   1.602   6.316   1.497 -1.4845 -2.7679 -3.7273
  954MOL0     H28783   1.518   6.457   1.443  0.3281 -0.1522 -0.6446
  954MOL0     H28784   1.702   6.605   1.479  4.1142 -0.0137 -0.9502
  954MOL0     H28785   1.815   6.483   1.438  0.7221  2.7720 -0.2463
  954MOL0     H28786   1.646   6.493   1.699 -0.5920  3.3130 -2.0954
  954MOL0     H28787   1.809   6.537   1.689 -1.6852  3.2761 -1.7026
  954MOL0     H28788   1.872   6.122   1.722  2.0293 -0.3252  0.2229
  954MOL0     H28789   1.594   6.524   1.038  0.3271 -0.9544  0.7167
  954MOL0     H28790   1.442   6.674   0.938  0.9512  0.1575  1.2502
  955MOL0     O28791   8.414   2.219   4.060  0.7701  0.3521  0.0358
  955MOL0     C28792   8.349   2.112   4.035  0.4275  0.0879 -0.2271
  955MOL0     O28793   8.348   1.999   4.106 -0.6686  0.2930 -0.0637
  955MOL0     C28794   8.407   1.974   4.227 -0.4767 -0.8543 -0.6434
  955MOL0     C28795   8.442   1.843   4.262  0.6391  0.2986 -0.4260
  955MOL0     C28796   8.487   1.805   4.395 -0.4336  0.4763  0.1207
  955MOL0     C28797   8.496   1.894   4.496  0.0880 -0.3383 -0.9785
  955MOL0     O28798   8.527   1.850   4.623 -0.8066  0.0543 -0.1133
  955MOL0     C28799   8.574   1.947   4.725 -0.2258  0.7593  0.5065
  955MOL0     C28800   8.626   1.847   4.836  0.2123 -0.5308  0.0887
  955MOL0     C28801   8.662   1.922   4.964  0.6795 -0.2286 -0.9974
  955MOL0     C28802   8.751   1.839   5.054  0.2805  0.7606  0.6959
  955MOL0     C28803   8.747   1.866   5.198 -1.2595 -0.0312 -0.6146
  955MOL0     C28804   8.846   1.778   5.287  0.0096 -0.4306  0.3127
  955MOL0     C28805   8.838   1.626   5.279  0.2859 -0.0316 -0.8550
  955MOL0     C28806   8.935   1.579   5.387 -0.3627  0.4903 -0.2246
  955MOL0     N28807   8.886   1.599   5.526 -0.2856 -0.0279  0.4638
  955MOL0     C28808   8.790   1.530   5.598  0.9089 -0.0256 -0.6251
  955MOL0     C28809   8.794   1.585   5.726 -0.1048  1.0037  0.0422
  955MOL0     C28810   8.699   1.546   5.836  0.2228 -0.2011 -0.5303
  955MOL0     C28811   8.551   1.585   5.808  1.0599 -0.2027  0.3569
  955MOL0     C28812   8.447   1.492   5.877  0.2163 -0.3045  0.2005
  955MOL0     C28813   8.476   1.485   6.023 -0.0278 -0.3918 -0.6303
  955MOL0     O28814   8.547   1.363   6.057 -0.0463 -0.0505  0.7574
  955MOL0     C28815   8.662   1.370   6.132 -0.6102  0.6567 -0.7998
  955MOL0     C28816   8.716   1.478   6.208 -0.3693  0.0472 -0.5276
  955MOL0     C28817   8.829   1.464   6.285 -0.8686 -0.0553 -0.1832
  955MOL0     C28818   8.884   1.594   6.348 -0.5356 -0.0583 -0.0335
  955MOL0     C28819   8.896   1.334   6.311  0.1517 -0.2496 -0.0027
  955MOL0     C28820   9.023   1.314   6.398  0.3059  0.0490  0.2693
  955MOL0     O28821   9.068   1.185   6.410 -0.1154 -0.0366  0.0125
  955MOL0     C28822   9.190   1.164   6.460 -0.8348 -1.0390 -0.0782
  955MOL0     C28823   9.212   1.037   6.522  0.2120  1.0482 -0.2746
  955MOL0     C28824   9.341   0.999   6.571 -0.1483 -0.3116  0.2739
  955MOL0     C28825   9.447   1.091   6.563 -0.7739  0.4344 -0.3191
  955MOL0     O28826   9.575   1.064   6.604 -0.9126 -0.8943  0.2691
  955MOL0     C28827   9.598   0.939   6.668 -0.4472 -1.0260  0.4155
  955MOL0     C28828   9.743   0.935   6.705 -0.1666  0.6729  0.8012
  955MOL0     C28829   9.799   0.795   6.713  0.8407  1.2726 -0.3849
  955MOL0     C28830   9.709   0.697   6.796  1.0451 -0.2333 -0.1073
  955MOL0     C28831   9.779   0.593   6.869  1.3581  0.0750 -0.2898
  955MOL0     C28832   9.669   0.511   6.935 -0.6259 -0.5940  0.7330
  955MOL0     C28833   9.717   0.374   7.007  1.0858  0.6102  0.4415
  955MOL0     C28834   9.835   0.393   7.097 -0.0993 -1.0475 -0.1456
  955MOL0    Cl28835   9.859   0.247   7.191  0.3408 -0.4900  0.4781
  955MOL0     C28836   9.419   1.212   6.519 -0.3882  0.3130  0.8847
  955MOL0     C28837   9.303   1.250   6.463 -0.2566 -0.1215 -0.8173
  955MOL0     O28838   9.053   1.407   6.464 -0.7704 -0.2852  0.0159
  955MOL0     C28839   8.832   1.229   6.244  0.6414  0.3760  0.9978
  955MOL0     C28840   8.729   1.254   6.157  1.1853  0.4212 -0.4001
  955MOL0     N28841   8.893   1.679   5.733  0.0234 -0.0249  0.6324
  955MOL0     N28842   8.949   1.688   5.613 -0.0880  0.6334  0.5161
  955MOL0     C28843   8.471   2.034   4.459 -0.2954  1.2308  0.5827
  955MOL0     C28844   8.433   2.064   4.326 -0.9323 -0.7873  0.1728
  955MOL0     C28845   8.254   2.109   3.920  0.6645  0.2777  0.8165
  955MOL0     C28846   8.138   2.030   3.922 -0.4442  0.1104  0.6203
  955MOL0     C28847   8.051   2.039   3.811 -0.7784  0.3365 -0.8454
  955MOL0     C28848   8.087   2.108   3.698  0.4647 -1.1385  0.3447
  955MOL0     O28849   8.007   2.135   3.585  0.2258 -0.5815 -0.0239
  955MOL0     C28850   8.032   2.040   3.477  0.3194 -0.0235  0.1839
  955MOL0     C28851   7.967   1.895   3.487 -0.4022 -0.2583 -1.0264
  955MOL0     C28852   7.822   1.901   3.524  0.7416  0.3305  0.0640
  955MOL0     C28853   7.760   1.761   3.537  0.5307 -0.5122  0.6061
  955MOL0     C28854   7.812   1.677   3.644 -0.1558 -1.2330  0.3416
  955MOL0     C28855   7.868   1.599   3.717 -0.8496 -0.6815  0.0715
  955MOL0     C28856   8.204   2.183   3.698 -0.0881  0.0722  0.3361
  955MOL0     C28857   8.287   2.191   3.809  1.0006  0.5130 -0.7372
  955MOL0     H28858   8.435   1.779   4.175  0.3449 -0.5452  0.2040
  955MOL0     H28859   8.511   1.702   4.416 -1.6336 -0.6717 -3.3557
  955MOL0     H28860   8.657   2.009   4.691  0.0855  0.7341  1.2055
  955MOL0     H28861   8.498   2.009   4.774  0.1480  0.0025  2.1239
  955MOL0     H28862   8.558   1.761   4.843  0.8271 -1.3285 -2.4754
  955MOL0     H28863   8.721   1.803   4.803  0.7983 -0.1501  1.2139
  955MOL0     H28864   8.708   2.020   4.949  1.0597 -0.2660 -0.1427
  955MOL0     H28865   8.576   1.946   5.028  0.9578 -1.0571 -0.3023
  955MOL0     H28866   8.721   1.734   5.039 -0.6791  0.7443  2.4531
  955MOL0     H28867   8.854   1.846   5.016  1.0201 -0.2789  2.3920
  955MOL0     H28868   8.775   1.972   5.197 -1.1100 -0.0580 -2.2182
  955MOL0     H28869   8.646   1.855   5.236 -1.0775  2.5914  0.8313
  955MOL0     H28870   8.943   1.819   5.258 -0.7288  2.0743  1.1038
  955MOL0     H28871   8.819   1.816   5.386  0.6043 -2.2110  1.2035
  955MOL0     H28872   8.736   1.594   5.305  0.1832 -0.4794 -1.7659
  955MOL0     H28873   8.867   1.586   5.181  0.5789 -0.6504 -0.5201
  955MOL0     H28874   9.027   1.628   5.355 -3.0954  2.7571 -6.0963
  955MOL0     H28875   8.956   1.472   5.385 -0.7719  0.3029  2.0899
  955MOL0     H28876   8.726   1.454   5.555 -0.0111  0.9125 -0.9721
  955MOL0     H28877   8.700   1.439   5.858 -2.7236 -0.1853  0.1785
  955MOL0     H28878   8.726   1.608   5.922  1.1096  0.4973 -1.2910
  955MOL0     H28879   8.532   1.576   5.701  4.2598 -0.4364 -0.2948
  955MOL0     H28880   8.538   1.689   5.839 -3.0913 -0.0419 -1.2674
  955MOL0     H28881   8.436   1.398   5.822 -2.6712  0.3769 -0.5764
  955MOL0     H28882   8.350   1.539   5.862  1.1088  1.0788 -1.5724
  955MOL0     H28883   8.395   1.476   6.096  0.7571 -0.0608  0.3009
  955MOL0     H28884   8.534   1.572   6.053  1.1537 -2.0276  2.2829
  955MOL0     H28885   8.678   1.580   6.195  2.8931  1.6389  1.2378
  955MOL0     H28886   8.985   1.611   6.309 -0.0224  0.5742  1.5083
  955MOL0     H28887   8.817   1.677   6.323  0.8227  1.0632 -0.0117
  955MOL0     H28888   8.898   1.584   6.456  1.6901 -0.3334 -0.3171
  955MOL0     H28889   9.136   0.960   6.535  1.5362 -0.5108 -1.3516
  955MOL0     H28890   9.352   0.902   6.618  3.1795  0.4683  1.4280
  955MOL0     H28891   9.527   0.925   6.750  0.2522 -5.9784  0.4389
  955MOL0     H28892   9.566   0.862   6.598 -0.1851 -2.6531  2.0180
  955MOL0     H28893   9.792   1.001   6.631 -0.8181  0.4073  0.1265
  955MOL0     H28894   9.771   0.978   6.802  3.4332  3.2495 -1.1187
  955MOL0     H28895   9.893   0.801   6.770  1.3227 -0.1250 -0.9785
  955MOL0     H28896   9.824   0.752   6.615  1.4191  3.7693 -1.4071
  955MOL0     H28897   9.647   0.759   6.861 -0.1557 -0.2349 -1.2177
  955MOL0     H28898   9.636   0.653   6.728  0.3584 -0.2847  0.6567
  955MOL0     H28899   9.835   0.634   6.954 -0.8186 -0.1971  1.3459
  955MOL0     H28900   9.850   0.532   6.811 -0.4243 -1.2316 -1.2145
  955MOL0     H28901   9.634   0.578   7.014 -2.3069 -1.7400  1.0194
  955MOL0     H28902   9.583   0.487   6.872 -2.1607  0.6185  2.2728
  955MOL0     H28903   9.745   0.307   6.926  0.7525  2.6906 -1.5240
  955MOL0     H28904   9.637   0.323   7.061  1.1799  0.3062  0.2973
  955MOL0     H28905   9.821   0.473   7.170 -1.8547  0.8221 -2.3518
  955MOL0     H28906   9.926   0.413   7.040 -0.9369  0.9338 -0.9030
  955MOL0     H28907   9.496   1.286   6.503 -1.1657  0.8863 -0.3370
  955MOL0     H28908   9.305   1.348   6.415  0.7984 -0.0176 -0.5977
  955MOL0     H28909   8.870   1.127   6.244 -0.7824 -0.1737  1.2489
  955MOL0     H28910   8.686   1.168   6.106  1.2106 -0.0171  0.3085
  955MOL0     H28911   8.472   2.112   4.534 -0.3361 -0.1900  2.0986
  955MOL0     H28912   8.429   2.171   4.306 -0.8627 -0.3647  2.2215
  955MOL0     H28913   8.130   1.964   4.008  0.8698 -2.6403 -1.2415
  955MOL0     H28914   7.966   1.972   3.816  1.8359 -3.1791  0.9556
  955MOL0     H28915   8.002   2.082   3.381 -0.1179  1.1978  0.8346
  955MOL0     H28916   8.141   2.035   3.483  0.1812 -2.5102  2.8427
  955MOL0     H28917   8.029   1.848   3.564  0.5090  1.9079 -0.3634
  955MOL0     H28918   7.972   1.834   3.396 -0.6626  1.5629 -2.3104
  955MOL0     H28919   7.753   1.965   3.468 -0.8694 -3.1540 -2.2603
  955MOL0     H28920   7.807   1.951   3.621 -0.3512 -0.0550  0.1069
  955MOL0     H28921   7.781   1.713   3.441  2.2518  0.0423  0.6708
  955MOL0     H28922   7.653   1.767   3.560  0.5304 -0.9361  0.7248
  955MOL0     H28923   7.909   1.561   3.809 -0.7971  1.6477  1.0756
  955MOL0     H28924   8.219   2.245   3.611 -1.9957  0.7484  0.4349
  955MOL0     H28925   8.379   2.248   3.799  2.4661 -1.7882 -1.2553
  956MOL0     O28926   6.287   2.465   4.307  1.0067 -0.8151  1.2018
  956MOL0     C28927   6.195   2.546   4.285  0.1801  0.4171  0.1203
  956MOL0     O28928   6.097   2.593   4.372 -0.2461  0.0820 -0.0018
  956MOL0     C28929   6.117   2.539   4.491  0.6945 -0.2395  0.4010
  956MOL0     C28930   6.067   2.420   4.535  0.0590 -0.0012 -0.5692
  956MOL0     C28931   6.095   2.371   4.667 -0.3460  0.0242 -0.3191
  956MOL0     C28932   6.164   2.462   4.756 -0.2312  0.5784  0.0847
  956MOL0     O28933   6.188   2.439   4.891 -0.0056  0.1799 -0.3435
  956MOL0     C28934   6.130   2.327   4.947  0.0975 -0.0065 -0.3163
  956MOL0     C28935   6.086   2.368   5.083  0.2816 -0.1603 -0.3295
  956MOL0     C28936   6.007   2.241   5.155 -0.5095 -0.1659 -0.4362
  956MOL0     C28937   6.010   2.287   5.305  0.5335 -0.2086  0.3215
  956MOL0     C28938   5.996   2.175   5.413 -1.0123 -1.0826 -0.2108
  956MOL0     C28939   6.054   2.222   5.552  0.8687 -0.4154 -0.3119
  956MOL0     C28940   5.958   2.335   5.610 -1.3797  0.2021 -0.3309
  956MOL0     C28941   5.813   2.306   5.642  0.4950  0.1593  0.4140
  956MOL0     N28942   5.711   2.359   5.545 -0.0356 -0.8776  0.2322
  956MOL0     C28943   5.641   2.290   5.447 -0.2055 -0.2933 -0.7031
  956MOL0     C28944   5.565   2.385   5.384  0.7385  0.5483 -0.3781
  956MOL0     C28945   5.459   2.346   5.283 -0.0336 -0.7584 -1.1990
  956MOL0     C28946   5.318   2.316   5.349 -0.6588 -0.3144 -0.2693
  956MOL0     C28947   5.226   2.208   5.283 -0.0479  0.9070  0.0871
  956MOL0     C28948   5.295   2.093   5.199 -0.6200 -0.0438  0.1619
  956MOL0     O28949   5.378   2.017   5.288  0.2095  0.1789 -0.3546
  956MOL0     C28950   5.499   1.954   5.258  0.8390 -0.3206 -0.5686
  956MOL0     C28951   5.559   1.872   5.352  0.1353  0.3690  0.1694
  956MOL0     C28952   5.690   1.812   5.327  0.4787  0.6608 -0.8334
  956MOL0     C28953   5.741   1.720   5.432 -0.5512 -0.1879  0.1692
  956MOL0     C28954   5.760   1.824   5.196  0.7065  0.8853  0.0727
  956MOL0     C28955   5.889   1.772   5.144  0.0641  0.3639  0.1714
  956MOL0     O28956   5.953   1.836   5.038  0.2860 -0.0121 -0.4091
  956MOL0     C28957   6.058   1.769   4.961  0.6950  0.3676  0.5691
  956MOL0     C28958   6.178   1.834   4.930  0.1903  0.2650  0.6124
  956MOL0     C28959   6.277   1.771   4.858 -0.0110  0.4350 -0.1791
  956MOL0     C28960   6.255   1.642   4.798  0.3646 -0.7550  0.3553
  956MOL0     O28961   6.344   1.567   4.724 -0.8081  0.1441  0.5253
  956MOL0     C28962   6.465   1.622   4.680 -0.4748  0.3800 -0.5280
  956MOL0     C28963   6.529   1.542   4.568 -0.0352  0.5168 -0.2008
  956MOL0     C28964   6.535   1.393   4.578  0.5247 -0.2532 -0.3106
  956MOL0     C28965   6.572   1.338   4.433 -0.2376  0.6890  0.6396
  956MOL0     C28966   6.568   1.182   4.438  0.5117  0.1045  0.1346
  956MOL0     C28967   6.635   1.127   4.317  0.0134  0.6840 -0.2222
  956MOL0     C28968   6.607   0.977   4.285  0.1135  0.2718  0.7754
  956MOL0     C28969   6.712   0.925   4.192  0.1367  0.2867 -0.2470
  956MOL0    Cl28970   6.729   0.757   4.211  0.0907  0.3102  0.3042
  956MOL0     C28971   6.130   1.581   4.818 -0.3951  0.5091 -0.3994
  956MOL0     C28972   6.036   1.640   4.903 -0.0932 -0.3475  0.6390
  956MOL0     O28973   5.921   1.665   5.187 -0.6631 -0.2833  0.9846
  956MOL0     C28974   5.681   1.896   5.098 -0.8753  0.1644  0.3526
  956MOL0     C28975   5.553   1.958   5.124 -0.0464 -0.6768  0.0948
  956MOL0     N28976   5.590   2.512   5.431 -0.5788  0.3860 -0.1008
  956MOL0     N28977   5.674   2.490   5.534  0.2417  0.1140 -0.8648
  956MOL0     C28978   6.224   2.579   4.704  0.3012  0.7485 -0.5775
  956MOL0     C28979   6.193   2.622   4.577  0.4536 -0.0890 -0.4786
  956MOL0     C28980   6.173   2.590   4.148 -0.5364  0.4019 -0.0726
  956MOL0     C28981   6.233   2.520   4.044 -0.2043 -0.5400  0.5459
  956MOL0     C28982   6.218   2.566   3.912  0.6792 -0.6589  1.0698
  956MOL0     C28983   6.140   2.678   3.886 -0.1332 -0.5832  0.3939
  956MOL0     O28984   6.130   2.717   3.752  0.1504  0.0522 -0.7974
  956MOL0     C28985   6.039   2.819   3.705 -0.9812  0.4886  0.4433
  956MOL0     C28986   5.890   2.776   3.730  0.0820  0.2151  0.2197
  956MOL0     C28987   5.845   2.681   3.620 -0.7950  0.8713 -0.1920
  956MOL0     C28988   5.728   2.595   3.672 -0.3957 -1.0670  0.1279
  956MOL0     C28989   5.679   2.505   3.567 -0.4934  0.6260 -0.2574
  956MOL0     C28990   5.633   2.439   3.482 -0.7737 -0.5891 -0.0300
  956MOL0     C28991   6.082   2.740   3.991  0.0918  0.2553 -0.1130
  956MOL0     C28992   6.099   2.704   4.122  0.6199  0.1712  0.0360
  956MOL0     H28993   6.020   2.358   4.460 -0.5164  0.8218 -0.9034
  956MOL0     H28994   6.061   2.269   4.679  0.3091 -0.2776 -0.9453
  956MOL0     H28995   6.044   2.287   4.893  1.3832 -2.6597 -0.5444
  956MOL0     H28996   6.203   2.246   4.950  1.1272  0.8950 -0.1566
  956MOL0     H28997   6.178   2.388   5.139 -0.2159 -2.8404  1.6624
  956MOL0     H28998   6.020   2.454   5.092  1.3306  0.7414 -0.9819
  956MOL0     H28999   5.907   2.232   5.111 -1.6040  3.0467  1.1156
  956MOL0     H29000   6.063   2.149   5.135 -2.5428 -1.0701 -2.3747
  956MOL0     H29001   6.105   2.337   5.326  0.8290 -0.7660  0.3365
  956MOL0     H29002   5.941   2.371   5.314  0.6285  0.0191 -0.8977
  956MOL0     H29003   5.893   2.141   5.431 -0.0393 -2.6133  3.4304
  956MOL0     H29004   6.056   2.094   5.371  0.7374  0.5202 -0.9246
  956MOL0     H29005   6.073   2.144   5.627  2.7274  0.8653  0.6131
  956MOL0     H29006   6.153   2.265   5.536 -0.0446  1.9863  0.0730
  956MOL0     H29007   6.010   2.359   5.703  0.0565 -0.2675 -0.9924
  956MOL0     H29008   5.974   2.416   5.538 -0.0959  0.1662 -0.0993
  956MOL0     H29009   5.780   2.344   5.740 -1.1617 -0.7734  0.2683
  956MOL0     H29010   5.804   2.197   5.644  2.0543  0.0160  1.1880
  956MOL0     H29011   5.653   2.184   5.429  1.7564 -0.0317 -1.1067
  956MOL0     H29012   5.441   2.422   5.206 -3.0016 -1.6909 -1.5563
  956MOL0     H29013   5.494   2.252   5.239 -0.3147 -1.8727  0.8308
  956MOL0     H29014   5.276   2.416   5.359 -0.4022  0.1476 -2.9865
  956MOL0     H29015   5.332   2.276   5.450  0.3628  2.0072  0.5709
  956MOL0     H29016   5.146   2.251   5.223  0.2354  0.4466 -0.6459
  956MOL0     H29017   5.175   2.169   5.372  1.5251 -0.8270  0.3041
  956MOL0     H29018   5.354   2.140   5.121  0.4470 -0.4866  0.6800
  956MOL0     H29019   5.218   2.031   5.154  0.3793 -1.2544  0.0636
  956MOL0     H29020   5.514   1.873   5.451  1.2087  3.3164  0.7233
  956MOL0     H29021   5.732   1.616   5.398  0.1725  0.1550 -1.1198
  956MOL0     H29022   5.843   1.746   5.462 -1.1080  1.4774  0.7384
  956MOL0     H29023   5.680   1.739   5.521 -1.4528  0.9918 -0.6682
  956MOL0     H29024   6.206   1.936   4.956 -0.0583 -0.0069  2.0017
  956MOL0     H29025   6.374   1.818   4.855  1.6242 -2.0570  4.2359
  956MOL0     H29026   6.468   1.726   4.644  1.2804  0.6718  0.3249
  956MOL0     H29027   6.525   1.626   4.771 -1.4779  1.1057  0.1255
  956MOL0     H29028   6.472   1.571   4.479 -1.2744  4.9284  1.7307
  956MOL0     H29029   6.630   1.579   4.549  0.3866 -1.4047 -2.1135
  956MOL0     H29030   6.440   1.345   4.606 -0.0014  0.6394 -0.5142
  956MOL0     H29031   6.607   1.366   4.655  0.5522  1.6732  0.3958
  956MOL0     H29032   6.493   1.371   4.365 -1.0464 -1.0237  0.6948
  956MOL0     H29033   6.666   1.367   4.385 -1.4187  1.5971 -1.2398
  956MOL0     H29034   6.464   1.153   4.453  1.4351 -2.7400  1.7069
  956MOL0     H29035   6.640   1.158   4.517  0.3602  0.5129  0.4015
  956MOL0     H29036   6.612   1.197   4.236 -0.9869 -0.1940 -0.7197
  956MOL0     H29037   6.742   1.138   4.337 -0.2948 -1.4471  3.3661
  956MOL0     H29038   6.501   0.961   4.264 -0.3852  3.8201  0.0065
  956MOL0     H29039   6.629   0.921   4.377  3.4317  0.4139  0.2130
  956MOL0     H29040   6.805   0.980   4.209  1.9003 -1.3005 -3.6232
  956MOL0     H29041   6.676   0.945   4.091 -4.8471  4.6091  1.9231
  956MOL0     H29042   6.118   1.483   4.774  3.4884 -0.1096 -0.4232
  956MOL0     H29043   5.945   1.581   4.914  1.0314 -3.1862 -3.2671
  956MOL0     H29044   5.722   1.919   5.000 -0.1681  2.3202  1.1067
  956MOL0     H29045   5.502   2.004   5.040 -1.4922 -3.7448 -0.8859
  956MOL0     H29046   6.287   2.641   4.767  1.4721 -0.3975 -0.5645
  956MOL0     H29047   6.210   2.726   4.550  0.3666 -0.1871 -0.9277
  956MOL0     H29048   6.291   2.431   4.063  0.2450 -0.3732 -0.0367
  956MOL0     H29049   6.270   2.514   3.833 -1.1595  2.5257 -2.5421
  956MOL0     H29050   6.060   2.905   3.769 -0.2298 -0.3162  1.3014
  956MOL0     H29051   6.045   2.852   3.601  1.1249 -0.2058  0.2939
  956MOL0     H29052   5.839   2.872   3.721 -1.6166 -0.7108 -0.4562
  956MOL0     H29053   5.870   2.738   3.830 -1.6506  0.4542  0.0036
  956MOL0     H29054   5.924   2.611   3.592 -0.5343  0.8330  0.6317
  956MOL0     H29055   5.816   2.740   3.532 -0.1647 -1.5127 -2.1038
  956MOL0     H29056   5.659   2.673   3.706 -1.7825 -1.1087 -2.3973
  956MOL0     H29057   5.768   2.534   3.754  0.9865  2.0638  1.9658
  956MOL0     H29058   5.578   2.380   3.410  0.0504  0.0485 -1.2073
  956MOL0     H29059   6.038   2.839   3.981 -3.5293 -1.3885 -2.4339
  956MOL0     H29060   6.059   2.764   4.203 -0.9402 -5.8625  4.4642
  957MOL0     O29061   4.257  11.522   3.816  0.2897 -0.6480  0.5096
  957MOL0     C29062   4.300  11.440   3.890 -0.0095 -0.1754 -0.5519
  957MOL0     O29063   4.377  11.332   3.857 -0.2585  0.0875  0.0550
  957MOL0     C29064   4.445  11.318   3.738 -0.0971 -0.2912  0.2732
  957MOL0     C29065   4.462  11.401   3.631  0.5331  0.3458  0.7092
  957MOL0     C29066   4.526  11.353   3.513  0.3631 -0.5505  0.5243
  957MOL0     C29067   4.586  11.222   3.500  0.1348  0.5413  0.0389
  957MOL0     O29068   4.652  11.171   3.392 -0.3177  1.0963  0.2274
  957MOL0     C29069   4.665  11.254   3.274 -0.0561  0.3343  0.3797
  957MOL0     C29070   4.757  11.191   3.171 -0.1476 -0.4444 -0.3088
  957MOL0     C29071   4.740  11.043   3.155  0.5202  0.0452  0.3150
  957MOL0     C29072   4.824  10.993   3.043  0.1162  0.0372  0.7126
  957MOL0     C29073   4.824  10.838   3.040  0.0899 -1.2535 -0.3545
  957MOL0     C29074   4.907  10.778   2.933  1.0016 -0.0997  0.5839
  957MOL0     C29075   5.058  10.817   2.920 -0.8017  0.5820  0.4034
  957MOL0     C29076   5.133  10.798   3.046 -0.1144 -0.2701 -1.0121
  957MOL0     N29077   5.236  10.896   3.078 -0.6840 -0.0832 -0.0765
  957MOL0     C29078   5.220  11.015   3.138  0.8227 -0.0177 -0.1048
  957MOL0     C29079   5.349  11.062   3.151 -0.4022 -0.5217 -0.1558
  957MOL0     C29080   5.394  11.179   3.240 -0.6010  0.0404  0.3590
  957MOL0     C29081   5.387  11.128   3.384  0.0631 -1.0779  0.0544
  957MOL0     C29082   5.440  11.251   3.471 -0.5002 -0.5669 -0.0823
  957MOL0     C29083   5.409  11.242   3.614  0.1664 -0.8619 -0.5754
  957MOL0     O29084   5.277  11.289   3.660  0.1702 -0.3214 -0.2002
  957MOL0     C29085   5.247  11.268   3.797 -0.2674 -0.0260  0.0911
  957MOL0     C29086   5.284  11.160   3.876 -0.2558 -0.8009 -0.6718
  957MOL0     C29087   5.253  11.152   4.010 -0.9560 -0.2847 -0.3413
  957MOL0     C29088   5.297  11.024   4.095  0.2334 -0.4052 -0.0722
  957MOL0     C29089   5.168  11.247   4.066 -0.3414 -0.3802 -0.2810
  957MOL0     C29090   5.125  11.250   4.215 -0.4263 -0.0161  0.0010
  957MOL0     O29091   5.155  11.364   4.270  0.4193 -0.0835 -0.0615
  957MOL0     C29092   5.141  11.383   4.407  0.0015  0.4465 -0.8458
  957MOL0     C29093   5.022  11.382   4.471  0.6220 -0.3536  0.5145
  957MOL0     C29094   4.998  11.414   4.605  0.4371  0.5091 -1.4442
  957MOL0     C29095   5.105  11.449   4.683 -0.6677 -0.2659  0.8078
  957MOL0     O29096   5.075  11.490   4.809  0.2719 -0.1569  0.4578
  957MOL0     C29097   5.162  11.592   4.862  0.6097 -1.6242  0.2241
  957MOL0     C29098   5.086  11.643   4.981  0.5886 -0.3468 -0.1657
  957MOL0     C29099   5.075  11.544   5.102  1.3130  0.1067  0.3153
  957MOL0     C29100   4.955  11.575   5.195 -1.0957 -0.2109 -0.0971
  957MOL0     C29101   4.988  11.709   5.258 -0.0681 -0.2011  0.1347
  957MOL0     C29102   4.888  11.772   5.362  0.1943 -0.2717 -0.6333
  957MOL0     C29103   4.949  11.884   5.451  0.0567  0.3910  0.4341
  957MOL0     C29104   4.850  11.930   5.554 -0.1824  0.4157 -0.1840
  957MOL0    Cl29105   4.841  11.807   5.691  0.5869 -0.0521  0.4684
  957MOL0     C29106   5.237  11.441   4.627  0.0813 -0.1265 -0.4346
  957MOL0     C29107   5.256  11.400   4.487  0.2449 -0.0863  0.3172
  957MOL0     O29108   5.081  11.151   4.274 -0.0558  0.3972  0.5731
  957MOL0     C29109   5.126  11.355   3.985  0.4004  0.5972 -0.9461
  957MOL0     C29110   5.175  11.366   3.851  0.1503 -0.3317  0.2513
  957MOL0     N29111   5.438  10.977   3.094 -0.9182  0.3256 -0.4796
  957MOL0     N29112   5.364  10.873   3.059 -0.2642 -1.0096 -0.2601
  957MOL0     C29113   4.580  11.144   3.620  1.1068 -0.6805  0.1935
  957MOL0     C29114   4.515  11.197   3.737 -0.3647 -0.5471  1.0506
  957MOL0     C29115   4.264  11.466   4.032 -1.2241  0.4086  0.5890
  957MOL0     C29116   4.224  11.588   4.090  0.5896 -0.0748 -0.1961
  957MOL0     C29117   4.187  11.593   4.221 -0.5760 -0.1699 -0.4604
  957MOL0     C29118   4.201  11.488   4.306 -0.0556  1.1355 -0.5690
  957MOL0     O29119   4.176  11.494   4.444 -0.2174  1.1139 -0.2739
  957MOL0     C29120   4.198  11.375   4.530 -0.3194  0.8585 -0.3239
  957MOL0     C29121   4.167  11.415   4.674  0.4058  0.1914 -0.8277
  957MOL0     C29122   4.252  11.534   4.722  0.3778  0.5246  0.9175
  957MOL0     C29123   4.203  11.593   4.858  0.3990  0.8453 -0.0157
  957MOL0     C29124   4.164  11.481   4.962  0.7291 -0.1307  0.5309
  957MOL0     C29125   4.130  11.386   5.023 -0.6986  0.1841 -0.6888
  957MOL0     C29126   4.260  11.371   4.247  0.5827  0.5009  0.7892
  957MOL0     C29127   4.287  11.358   4.117  0.2770  0.5420  0.3124
  957MOL0     H29128   4.432  11.505   3.636 -2.4200 -0.2850 -1.3499
  957MOL0     H29129   4.545  11.428   3.436  0.7762  0.4212  1.5376
  957MOL0     H29130   4.565  11.282   3.239  0.7878  4.4934  0.6994
  957MOL0     H29131   4.712  11.348   3.305 -0.7412 -0.1336  3.0728
  957MOL0     H29132   4.747  11.255   3.083  0.4214  1.2040  0.7706
  957MOL0     H29133   4.860  11.207   3.205  0.0811  0.8344 -1.5455
  957MOL0     H29134   4.779  10.994   3.244  3.3724 -1.2334 -1.4924
  957MOL0     H29135   4.636  11.018   3.132  0.4513  1.8386 -1.5890
  957MOL0     H29136   4.781  11.031   2.951  1.1336 -1.9728 -0.6694
  957MOL0     H29137   4.923  11.036   3.063 -0.1098 -0.4549  3.2231
  957MOL0     H29138   4.854  10.803   3.139  1.9586 -0.6744 -0.6859
  957MOL0     H29139   4.726  10.794   3.018 -0.7750  0.4610 -0.1347
  957MOL0     H29140   4.899  10.669   2.925 -2.7932  0.1383 -1.0979
  957MOL0     H29141   4.872  10.803   2.832  2.8639  1.5144  0.2925
  957MOL0     H29142   5.109  10.758   2.844 -0.4303  0.7667  0.5065
  957MOL0     H29143   5.063  10.925   2.901  1.7122  0.2685 -1.1049
  957MOL0     H29144   5.169  10.695   3.040 -1.0086 -0.5844 -1.1004
  957MOL0     H29145   5.070  10.809   3.134  0.9483  1.6841 -0.4307
  957MOL0     H29146   5.130  11.058   3.180 -0.3353 -1.6518 -0.7713
  957MOL0     H29147   5.494  11.209   3.210 -1.4297 -1.2137 -4.4523
  957MOL0     H29148   5.321  11.259   3.223 -1.9159 -1.1109  0.3172
  957MOL0     H29149   5.447  11.039   3.401  1.1291  0.0039  2.5037
  957MOL0     H29150   5.284  11.112   3.419 -0.7780 -0.3132 -1.8726
  957MOL0     H29151   5.394  11.343   3.432  0.3392  0.1668  0.6333
  957MOL0     H29152   5.546  11.260   3.448 -0.7058  3.2354 -0.1671
  957MOL0     H29153   5.482  11.301   3.670 -0.6500 -0.0234 -0.3702
  957MOL0     H29154   5.417  11.138   3.645  1.1186 -0.5078  0.4616
  957MOL0     H29155   5.329  11.076   3.825 -2.9116 -0.9134 -3.0816
  957MOL0     H29156   5.406  11.033   4.088  0.1705 -0.6305 -1.9439
  957MOL0     H29157   5.272  11.042   4.200 -0.6945  2.1741 -0.6575
  957MOL0     H29158   5.250  10.933   4.058 -2.3773  1.2078 -1.0410
  957MOL0     H29159   4.925  11.373   4.421  0.6682 -1.5616  0.6182
  957MOL0     H29160   4.897  11.416   4.643  0.4626 -1.8495 -1.0924
  957MOL0     H29161   5.260  11.552   4.889  0.8842 -4.1447 -3.7625
  957MOL0     H29162   5.170  11.670   4.785  3.0230 -1.8318  0.2094
  957MOL0     H29163   5.137  11.734   5.014  2.9945 -1.1662 -1.4494
  957MOL0     H29164   4.988  11.681   4.951  0.6655  0.4543  0.5444
  957MOL0     H29165   5.163  11.540   5.167  1.6247  1.1039 -0.0346
  957MOL0     H29166   5.063  11.443   5.060  1.8262  0.3665 -0.4647
  957MOL0     H29167   4.858  11.571   5.144 -0.8099 -0.3585 -0.6395
  957MOL0     H29168   4.954  11.493   5.267  1.3997  0.6645  1.0519
  957MOL0     H29169   4.996  11.783   5.177 -1.5356  2.4394  2.2349
  957MOL0     H29170   5.083  11.704   5.312  0.7937  2.6326 -0.9648
  957MOL0     H29171   4.787  11.794   5.327 -0.7287  0.0907  2.0228
  957MOL0     H29172   4.866  11.686   5.426  0.2403 -2.4355 -3.3422
  957MOL0     H29173   4.991  11.964   5.390  3.8054 -1.1977  0.6012
  957MOL0     H29174   5.034  11.834   5.499  0.7183 -2.5422 -3.3340
  957MOL0     H29175   4.751  11.946   5.510  0.4748 -0.0411 -1.9213
  957MOL0     H29176   4.893  12.018   5.602  1.3103 -1.8641  3.1202
  957MOL0     H29177   5.324  11.465   4.688 -1.4073 -0.5995  1.9907
  957MOL0     H29178   5.353  11.388   4.439 -1.1577 -2.6998 -2.1801
  957MOL0     H29179   5.064  11.438   4.017  1.2318  0.8708  0.0230
  957MOL0     H29180   5.137  11.444   3.785  1.1771 -2.0333 -2.5236
  957MOL0     H29181   4.616  11.042   3.615 -0.3647 -1.2465  0.6413
  957MOL0     H29182   4.512  11.127   3.820  2.4252 -0.7432  1.0860
  957MOL0     H29183   4.217  11.676   4.028  1.4235 -1.2484 -2.0290
  957MOL0     H29184   4.124  11.675   4.254  0.1513 -0.3519  1.5363
  957MOL0     H29185   4.140  11.287   4.500  1.8448 -1.1642  1.0668
  957MOL0     H29186   4.304  11.351   4.540 -0.0851  1.5069 -1.1209
  957MOL0     H29187   4.187  11.337   4.749  0.9864 -1.1945 -2.3588
  957MOL0     H29188   4.060  11.431   4.663  0.0429 -1.5377 -0.2217
  957MOL0     H29189   4.271  11.612   4.647  1.0134 -1.1011 -0.7018
  957MOL0     H29190   4.350  11.487   4.737  0.2323 -0.0528  0.1592
  957MOL0     H29191   4.124  11.664   4.832 -2.3500 -2.1193 -0.2918
  957MOL0     H29192   4.292  11.653   4.879 -1.2825  3.7335 -0.5908
  957MOL0     H29193   4.098  11.306   5.086 -3.0430  2.3448  1.0963
  957MOL0     H29194   4.260  11.278   4.303  0.3059 -1.0814 -1.6532
  957MOL0     H29195   4.321  11.261   4.080 -1.0720 -0.5031  1.6719
  958MOL0     O29196  10.492   9.036  10.261 -0.6698 -0.2069  0.6032
  958MOL0     C29197  10.572   9.034  10.355  0.2013 -0.8514  0.5393
  958MOL0     O29198  10.617   8.924  10.414  0.8229  0.8197  0.0642
  958MOL0     C29199  10.571   8.789  10.381 -0.5161 -0.3434 -0.1715
  958MOL0     C29200  10.468   8.750  10.298  0.7471  0.0080  0.4604
  958MOL0     C29201  10.442   8.618  10.280 -0.2232 -0.4393  0.8398
  958MOL0     C29202  10.508   8.514  10.348  0.0820  0.7552 -0.2288
  958MOL0     O29203  10.480   8.385  10.308  0.5792 -0.2050  0.4695
  958MOL0     C29204  10.574   8.293  10.364 -1.2338 -0.0096  0.7569
  958MOL0     C29205  10.529   8.155  10.332 -0.0282  0.5619 -0.3166
  958MOL0     C29206  10.392   8.113  10.389  0.0396 -0.3609  0.5963
  958MOL0     C29207  10.393   8.060  10.523  0.3233  0.2875  0.9071
  958MOL0     C29208  10.256   8.017  10.569 -0.1983  0.1960 -0.5237
  958MOL0     C29209  10.268   7.929  10.702  0.2545  0.0358 -1.0004
  958MOL0     C29210  10.335   7.985  10.825  0.2881  0.2382 -0.4532
  958MOL0     C29211  10.236   8.080  10.908 -0.1921  0.1490 -0.9080
  958MOL0     N29212  10.216   8.216  10.847 -0.9130  0.4632  0.1331
  958MOL0     C29213  10.318   8.303  10.827 -0.6301  0.4374  0.0263
  958MOL0     C29214  10.254   8.425  10.808 -0.6799  0.3296  0.8138
  958MOL0     C29215  10.324   8.553  10.770 -0.1716 -0.3030 -0.1717
  958MOL0     C29216  10.311   8.659  10.884  0.3330  0.0390  0.7108
  958MOL0     C29217  10.414   8.767  10.866 -1.1359 -0.5047 -0.1819
  958MOL0     C29218  10.380   8.874  10.765  0.4349  0.7215  0.5959
  958MOL0     O29219  10.457   8.985  10.785 -0.5901 -0.2509  0.6455
  958MOL0     C29220  10.400   9.099  10.736  0.0928 -0.1543  0.3778
  958MOL0     C29221  10.432   9.211  10.812  0.2764  0.6944  0.8714
  958MOL0     C29222  10.389   9.338  10.778  0.0933 -0.1815 -0.3417
  958MOL0     C29223  10.471   9.446  10.844  0.0349 -0.0352 -0.3149
  958MOL0     C29224  10.306   9.356  10.669  0.5565 -1.0623  0.0465
  958MOL0     C29225  10.273   9.490  10.616 -0.6369 -0.4594 -0.2155
  958MOL0     O29226  10.284   9.500  10.473  0.4792 -0.5328 -0.5878
  958MOL0     C29227  10.319   9.623  10.419 -0.8603 -0.8663 -1.1921
  958MOL0     C29228  10.408   9.698  10.483 -0.4064 -0.5514 -0.5222
  958MOL0     C29229  10.436   9.824  10.437  0.5189 -1.5268 -0.6486
  958MOL0     C29230  10.375   9.865  10.315  0.3089 -0.0600 -0.6772
  958MOL0     O29231  10.421   9.977  10.263  0.7560 -0.5187  0.4554
  958MOL0     C29232  10.316  10.066  10.209  1.1549  0.3494 -1.3671
  958MOL0     C29233  10.201  10.093  10.304 -0.5475  0.6225 -0.1627
  958MOL0     C29234  10.114  10.207  10.248 -0.3248 -0.2454  0.1401
  958MOL0     C29235   9.984  10.241  10.335  0.0173 -0.7678 -0.1922
  958MOL0     C29236   9.898  10.364  10.280 -0.4630 -0.1461 -0.0889
  958MOL0     C29237   9.767  10.370  10.342  0.2330 -0.2836 -0.6548
  958MOL0     C29238   9.756  10.322  10.491  0.5917  0.2508 -0.0184
  958MOL0     C29239   9.618  10.351  10.546  0.4070  0.3128 -0.5596
  958MOL0    Cl29240   9.589  10.523  10.565  0.0614  0.0856  0.2476
  958MOL0     C29241  10.277   9.784  10.256  0.2023 -0.3948  0.0085
  958MOL0     C29242  10.246   9.670  10.310 -0.8961  0.1579  0.2483
  958MOL0     O29243  10.243   9.585  10.690 -0.5135  0.0368  0.3314
  958MOL0     C29244  10.259   9.242  10.607 -0.3819  0.5832  0.0159
  958MOL0     C29245  10.310   9.113  10.640 -0.6231 -0.9873 -0.0342
  958MOL0     N29246  10.119   8.412  10.823 -0.5285  0.1500 -1.1562
  958MOL0     N29247  10.101   8.288  10.846  0.2904 -0.2711  0.0057
  958MOL0     C29248  10.623   8.553  10.432 -0.6742 -0.1977 -0.3259
  958MOL0     C29249  10.650   8.688  10.451  0.7846 -0.7003  0.0707
  958MOL0     C29250  10.616   9.162  10.411 -0.1804 -0.9851 -0.9155
  958MOL0     C29251  10.652   9.175  10.549 -0.4856 -0.6634 -0.2472
  958MOL0     C29252  10.687   9.290  10.617  0.3087 -0.0129  0.8073
  958MOL0     C29253  10.666   9.413  10.538  0.2702  0.6560 -0.5903
  958MOL0     O29254  10.688   9.536  10.595 -0.7905  0.2284 -0.5030
  958MOL0     C29255  10.758   9.640  10.529 -0.0321  0.2304  1.1381
  958MOL0     C29256  10.783   9.755  10.625  1.0317 -0.3007 -0.0090
  958MOL0     C29257  10.886   9.736  10.735 -0.0269  0.4440 -1.2519
  958MOL0     C29258  10.845   9.644  10.854 -0.3436  0.5153  0.2317
  958MOL0     C29259  10.728   9.690  10.923  0.1957  0.5190  0.3166
  958MOL0     C29260  10.631   9.738  10.987  0.4841  0.0734 -0.4793
  958MOL0     C29261  10.626   9.403  10.407 -0.3914 -0.0673  0.1605
  958MOL0     C29262  10.606   9.281  10.340 -0.2157  0.3908  0.0356
  958MOL0     H29263  10.402   8.817  10.244  2.6060  2.1563  0.7485
  958MOL0     H29264  10.350   8.603  10.224 -0.7710  1.3042  1.2042
  958MOL0     H29265  10.679   8.296  10.335 -1.9206  1.1443 -1.8663
  958MOL0     H29266  10.564   8.303  10.473 -3.9792 -2.6519  0.8785
  958MOL0     H29267  10.523   8.150  10.223 -0.5549  1.9414 -0.3712
  958MOL0     H29268  10.602   8.084  10.372  0.0125 -0.9174 -2.8444
  958MOL0     H29269  10.325   8.200  10.387  1.7498  1.0716  2.3969
  958MOL0     H29270  10.341   8.034  10.333 -3.2749  0.4798  2.1590
  958MOL0     H29271  10.457   7.971  10.518 -1.8597 -1.3106  0.0908
  958MOL0     H29272  10.435   8.135  10.591 -3.5638  3.4660  0.1414
  958MOL0     H29273  10.201   8.109  10.587 -2.7481 -1.1954 -0.7845
  958MOL0     H29274  10.209   7.966  10.485 -0.1132 -0.7300 -0.0247
  958MOL0     H29275  10.169   7.899  10.738 -0.1114  0.5516 -1.5569
  958MOL0     H29276  10.311   7.833  10.670  0.5205  1.0578 -3.9592
  958MOL0     H29277  10.371   7.908  10.894 -1.0897 -0.3421 -0.3543
  958MOL0     H29278  10.428   8.037  10.797  0.1102  0.1968 -1.1399
  958MOL0     H29279  10.269   8.109  11.008 -0.3503 -0.4175 -0.6877
  958MOL0     H29280  10.142   8.027  10.927 -0.9260  2.5890  3.5639
  958MOL0     H29281  10.423   8.276  10.815 -0.2942  1.6945  0.0338
  958MOL0     H29282  10.432   8.542  10.757 -0.1475 -0.3204  0.0563
  958MOL0     H29283  10.280   8.587  10.675  1.2307 -5.7541 -3.1916
  958MOL0     H29284  10.350   8.599  10.967  2.5244  0.5354  0.0854
  958MOL0     H29285  10.212   8.699  10.908 -0.9899  0.0391 -3.8326
  958MOL0     H29286  10.516   8.731  10.845 -1.4954 -1.3940 -0.4450
  958MOL0     H29287  10.423   8.819  10.962 -1.7885 -1.8250  0.6130
  958MOL0     H29288  10.275   8.901  10.780  0.1448  0.3695 -0.6692
  958MOL0     H29289  10.384   8.848  10.659 -1.2613  2.4575  0.0481
  958MOL0     H29290  10.507   9.191  10.888  2.8037 -0.8095 -1.8377
  958MOL0     H29291  10.536   9.413  10.926 -1.2168 -2.1881 -0.1019
  958MOL0     H29292  10.531   9.489  10.764 -0.5282 -1.0926 -1.3406
  958MOL0     H29293  10.402   9.519  10.888  3.0306  2.6583  0.2364
  958MOL0     H29294  10.456   9.665  10.575 -2.1205 -1.4218  0.1109
  958MOL0     H29295  10.510   9.895  10.472 -2.0910  1.0290  0.1382
  958MOL0     H29296  10.363  10.160  10.180  0.2039  2.0686  2.0334
  958MOL0     H29297  10.266  10.019  10.124 -0.4093 -0.6595  0.0454
  958MOL0     H29298  10.131  10.009  10.312  0.2341  0.1525  3.3896
  958MOL0     H29299  10.227  10.112  10.409  1.5454  0.7558 -0.6728
  958MOL0     H29300  10.079  10.181  10.147  1.7474 -1.0993 -0.4124
  958MOL0     H29301  10.172  10.296  10.221 -1.7613  1.1884  1.5686
  958MOL0     H29302   9.919  10.154  10.346 -0.6400 -0.2092  0.4593
  958MOL0     H29303  10.015  10.276  10.434 -0.1055  0.3816 -0.5415
  958MOL0     H29304   9.885  10.345  10.172  1.7265  2.8823 -1.0086
  958MOL0     H29305   9.957  10.451  10.306  0.1625 -0.5450 -0.1515
  958MOL0     H29306   9.727  10.468  10.316 -0.2970 -0.4600 -0.5097
  958MOL0     H29307   9.705  10.291  10.297  1.1375 -1.8984  0.8003
  958MOL0     H29308   9.833  10.366  10.555  1.0996  0.3823 -0.7051
  958MOL0     H29309   9.754  10.214  10.510 -0.8567  0.5203  1.6263
  958MOL0     H29310   9.598  10.305  10.643  3.1087  2.8829  1.4078
  958MOL0     H29311   9.557  10.303  10.469 -1.0652  1.0120  0.1305
  958MOL0     H29312  10.220   9.813  10.168 -0.6293 -2.4049 -0.1700
  958MOL0     H29313  10.177   9.602  10.259  1.6254 -2.1924 -0.3099
  958MOL0     H29314  10.199   9.256  10.518  0.3694 -4.9674 -1.7539
  958MOL0     H29315  10.285   9.029  10.577 -1.8572  1.2166 -2.7146
  958MOL0     H29316  10.685   8.485  10.488  2.2258  0.6269 -2.3020
  958MOL0     H29317  10.733   8.707  10.519  0.0948 -1.1295  1.0624
  958MOL0     H29318  10.671   9.090  10.614  2.3891  0.6218  0.7251
  958MOL0     H29319  10.720   9.301  10.720  1.6902 -0.6821  0.4581
  958MOL0     H29320  10.852   9.609  10.481  2.3644  1.7111  4.4596
  958MOL0     H29321  10.696   9.677  10.447  2.7454  0.6712 -0.9445
  958MOL0     H29322  10.689   9.788  10.669  1.1309  3.0241 -1.9342
  958MOL0     H29323  10.813   9.839  10.561 -2.1270  0.8496 -0.1520
  958MOL0     H29324  10.912   9.834  10.776  3.8131 -1.9613  2.8999
  958MOL0     H29325  10.981   9.701  10.694 -0.0925  1.1223 -2.0082
  958MOL0     H29326  10.929   9.647  10.925  0.6923 -1.3299 -0.8355
  958MOL0     H29327  10.848   9.542  10.815  2.8737  1.1087 -1.4266
  958MOL0     H29328  10.544   9.782  11.030  0.2522 -0.4040 -0.4508
  958MOL0     H29329  10.618   9.493  10.347 -0.4569 -0.0886  0.1387
  958MOL0     H29330  10.584   9.283  10.233 -0.5426  0.9774  0.1140
  959MOL0     O29331   8.579   3.847  10.491  0.8578  0.2448  0.6407
  959MOL0     C29332   8.644   3.911  10.410 -0.1478  0.6148  1.2038
  959MOL0     O29333   8.778   3.897  10.384  0.0101  0.5167 -0.2122
  959MOL0     C29334   8.851   3.781  10.399  0.6593 -0.8362  0.9281
  959MOL0     C29335   8.989   3.776  10.369  0.3677 -1.0073  0.0227
  959MOL0     C29336   9.063   3.659  10.388 -0.6606 -0.0825  0.2748
  959MOL0     C29337   9.008   3.540  10.428 -0.3968 -1.0025  0.5517
  959MOL0     O29338   9.100   3.438  10.449 -0.2268 -0.4726 -0.6226
  959MOL0     C29339   9.078   3.355  10.567 -0.0360 -0.4631 -0.6151
  959MOL0     C29340   9.214   3.284  10.590  0.6599 -0.6527 -0.1151
  959MOL0     C29341   9.318   3.375  10.666  0.1813  0.7795  0.7737
  959MOL0     C29342   9.457   3.339  10.604  0.1448 -0.5743 -0.5084
  959MOL0     C29343   9.577   3.378  10.692  0.1751  0.4931 -0.6022
  959MOL0     C29344   9.691   3.291  10.638  0.3427 -1.1618  0.1660
  959MOL0     C29345   9.750   3.336  10.500 -0.7253  0.8433  0.8838
  959MOL0     C29346   9.854   3.241  10.446  0.0740  1.1689  0.3118
  959MOL0     N29347   9.957   3.302  10.350  0.6785 -1.2744 -0.2517
  959MOL0     C29348  10.062   3.387  10.393 -0.0279 -0.1086  0.2414
  959MOL0     C29349  10.131   3.416  10.286  0.1606  0.7620  0.9773
  959MOL0     C29350  10.253   3.494  10.243  1.2981 -0.0134  0.3179
  959MOL0     C29351  10.328   3.451  10.116 -0.5815 -0.5837  0.3999
  959MOL0     C29352  10.439   3.551  10.090 -0.1124 -0.8168  0.1379
  959MOL0     C29353  10.526   3.516   9.966 -0.7023 -0.3504  0.7067
  959MOL0     O29354  10.610   3.415  10.020 -0.0211 -0.1620  0.5487
  959MOL0     C29355  10.704   3.358   9.932 -0.9610 -0.6409 -0.1436
  959MOL0     C29356  10.733   3.225   9.925 -0.0054  0.3570 -0.9130
  959MOL0     C29357  10.839   3.174   9.853 -0.0445  0.0294  0.3521
  959MOL0     C29358  10.864   3.020   9.856 -0.3516  0.8066 -0.3303
  959MOL0     C29359  10.908   3.263   9.770  0.1727 -0.0183  0.2339
  959MOL0     C29360  11.030   3.230   9.680 -0.4907 -0.2534  0.3349
  959MOL0     O29361  11.099   3.339   9.640 -0.0053  0.7625 -0.1752
  959MOL0     C29362  11.160   3.323   9.515 -0.3949  0.3864  0.1214
  959MOL0     C29363  11.077   3.318   9.408 -0.8428  0.5532  0.5657
  959MOL0     C29364  11.144   3.314   9.283  0.8330 -0.7852 -0.3472
  959MOL0     C29365  11.273   3.316   9.263 -0.6372  0.1535  0.1851
  959MOL0     O29366  11.340   3.305   9.143 -0.5726 -0.0377  0.4376
  959MOL0     C29367  11.300   3.177   9.076 -0.1523 -0.3180 -0.3051
  959MOL0     C29368  11.372   3.066   9.143  0.3794  0.1437  0.7218
  959MOL0     C29369  11.519   3.065   9.095 -0.6487  0.2384  0.7746
  959MOL0     C29370  11.588   2.952   9.173 -0.2817 -0.1685  0.0319
  959MOL0     C29371  11.725   2.928   9.125  1.0734 -0.1669 -0.0439
  959MOL0     C29372  11.797   2.822   9.212 -0.3322  0.5872 -0.3565
  959MOL0     C29373  11.947   2.797   9.190  0.1936  0.6171  0.6198
  959MOL0     C29374  11.982   2.749   9.054  0.5456  0.3544 -0.5722
  959MOL0    Cl29375  12.159   2.749   9.011  0.2101  0.3000  0.2860
  959MOL0     C29376  11.360   3.322   9.376  0.2086  0.1466 -0.1560
  959MOL0     C29377  11.301   3.326   9.507 -0.8470  0.3658  1.3169
  959MOL0     O29378  11.063   3.113   9.667  0.5459  0.6142 -0.0503
  959MOL0     C29379  10.878   3.394   9.765  0.3809 -0.7434 -0.1445
  959MOL0     C29380  10.784   3.442   9.849 -0.4204 -0.4944 -0.6485
  959MOL0     N29381  10.049   3.372  10.179  0.7019 -1.1632 -0.4673
  959MOL0     N29382   9.949   3.296  10.218  0.3062  0.0423 -0.5491
  959MOL0     C29383   8.871   3.539  10.452 -0.3626  0.5408 -0.4865
  959MOL0     C29384   8.788   3.654  10.441 -0.3137 -0.1864  1.0424
  959MOL0     C29385   8.579   4.028  10.351  0.2460  0.1730  0.2022
  959MOL0     C29386   8.658   4.147  10.343 -0.9894  0.4751  0.2684
  959MOL0     C29387   8.602   4.258  10.282 -0.2372  0.7435  0.6106
  959MOL0     C29388   8.471   4.270  10.239  0.1288  0.5933 -0.2544
  959MOL0     O29389   8.402   4.395  10.225  0.5664 -0.1777  0.4277
  959MOL0     C29390   8.472   4.518  10.209  0.1983  1.6438  0.1855
  959MOL0     C29391   8.390   4.640  10.165  0.7549 -0.8776  0.2990
  959MOL0     C29392   8.260   4.674  10.239  0.0557 -0.4957  0.4361
  959MOL0     C29393   8.174   4.771  10.155 -1.6589  0.2339  0.7915
  959MOL0     C29394   8.047   4.792  10.227  0.3736 -0.4166 -0.3213
  959MOL0     C29395   7.941   4.812  10.291  0.2497 -0.5882  0.4632
  959MOL0     C29396   8.392   4.149  10.253 -0.0552 -0.3622  0.2579
  959MOL0     C29397   8.448   4.026  10.293  0.1036 -0.2289  0.3800
  959MOL0     H29398   9.043   3.862  10.332 -2.9617  2.3358  2.1506
  959MOL0     H29399   9.164   3.656  10.350 -1.2903 -0.7963 -1.4746
  959MOL0     H29400   9.059   3.427  10.647 -2.9055  1.2340 -2.6599
  959MOL0     H29401   8.993   3.291  10.540  0.2139 -0.2059 -2.1106
  959MOL0     H29402   9.200   3.193  10.649  0.8602 -1.2145 -0.9214
  959MOL0     H29403   9.250   3.267  10.488 -0.0960  2.9910 -1.1660
  959MOL0     H29404   9.296   3.481  10.645  1.8796  1.4932  2.3398
  959MOL0     H29405   9.318   3.355  10.774  2.4935  0.3934  0.7596
  959MOL0     H29406   9.463   3.233  10.578  1.5526 -0.5723 -0.2391
  959MOL0     H29407   9.461   3.400  10.513 -0.7093  0.3243  0.0335
  959MOL0     H29408   9.592   3.485  10.672 -2.1047  1.2633  1.3468
  959MOL0     H29409   9.557   3.356  10.797 -0.4497 -0.7289 -0.9626
  959MOL0     H29410   9.778   3.301  10.703  1.2545  0.4996 -1.2204
  959MOL0     H29411   9.667   3.185  10.644  2.3175 -1.6345  0.2062
  959MOL0     H29412   9.675   3.350  10.422  2.2413  2.4940 -1.9230
  959MOL0     H29413   9.808   3.427  10.515  2.0277 -0.5515 -0.4773
  959MOL0     H29414   9.800   3.162  10.393  2.4734  0.4829 -1.2959
  959MOL0     H29415   9.915   3.186  10.518  0.6141 -0.2822 -1.1930
  959MOL0     H29416  10.096   3.396  10.495  1.5059  0.9828 -0.3267
  959MOL0     H29417  10.228   3.600  10.255 -0.9748 -0.5950  1.3274
  959MOL0     H29418  10.311   3.472  10.332  0.2986  1.1890  1.3031
  959MOL0     H29419  10.264   3.462  10.027 -0.3744 -1.3336  0.1517
  959MOL0     H29420  10.362   3.348  10.127  0.7003 -0.3389 -1.0004
  959MOL0     H29421  10.508   3.561  10.174  2.7351 -1.8867 -1.9127
  959MOL0     H29422  10.400   3.652  10.070 -0.1985 -0.5880  1.3789
  959MOL0     H29423  10.573   3.602   9.918  0.1880 -0.9946  0.4005
  959MOL0     H29424  10.468   3.464   9.889 -0.0692 -1.9085  1.2261
  959MOL0     H29425  10.674   3.167   9.995 -1.6780  4.2445  1.1831
  959MOL0     H29426  10.880   2.988   9.752  0.2740 -2.7340  0.7188
  959MOL0     H29427  10.949   2.988   9.917 -1.8099  0.3887  1.5529
  959MOL0     H29428  10.781   2.961   9.894  0.4107  0.7826  1.4230
  959MOL0     H29429  10.971   3.320   9.431 -0.6938 -2.3755  1.9007
  959MOL0     H29430  11.064   3.308   9.210  0.5524 -0.7371 -0.0454
  959MOL0     H29431  11.193   3.155   9.083 -0.5224  1.6561  1.5003
  959MOL0     H29432  11.318   3.192   8.970  2.8531 -0.6338  0.0801
  959MOL0     H29433  11.358   3.061   9.252 -3.4141 -0.8514  0.3518
  959MOL0     H29434  11.333   2.968   9.115 -1.3144  1.1554 -0.6505
  959MOL0     H29435  11.560   3.165   9.105 -0.8476  0.3126  0.8507
  959MOL0     H29436  11.520   3.040   8.988 -3.3361  1.0988  0.4621
  959MOL0     H29437  11.605   2.974   9.278  1.0223 -1.1022  0.0507
  959MOL0     H29438  11.531   2.859   9.162  1.3794 -1.1302 -1.1663
  959MOL0     H29439  11.774   3.025   9.130 -3.6382  2.7840 -2.9569
  959MOL0     H29440  11.723   2.888   9.023  0.9831 -0.4656  0.0744
  959MOL0     H29441  11.792   2.859   9.315  4.0496  4.2488 -1.1260
  959MOL0     H29442  11.744   2.728   9.223 -0.8116  0.5828 -2.3438
  959MOL0     H29443  11.988   2.723   9.258  0.6475  0.5154  0.2481
  959MOL0     H29444  12.000   2.893   9.192  0.9445  0.2954 -1.3392
  959MOL0     H29445  11.930   2.824   8.993 -0.5701 -1.5999 -2.1269
  959MOL0     H29446  11.949   2.647   9.036  0.1080 -0.3176  3.2300
  959MOL0     H29447  11.468   3.320   9.376  0.2195 -2.4105 -0.2134
  959MOL0     H29448  11.361   3.335   9.597 -1.8103  1.9409  1.8499
  959MOL0     H29449  10.937   3.467   9.711  0.4826  1.1808  2.3675
  959MOL0     H29450  10.779   3.550   9.857  3.0087 -0.0593 -2.6659
  959MOL0     H29451   8.828   3.442  10.473 -3.9682  1.5928 -2.2667
  959MOL0     H29452   8.682   3.645  10.461 -0.1588 -0.4071  1.7960
  959MOL0     H29453   8.753   4.155  10.393 -1.8536  2.5665  1.7325
  959MOL0     H29454   8.659   4.348  10.302 -0.8039  1.0657  0.8216
  959MOL0     H29455   8.509   4.538  10.310  0.4846 -1.6752  0.8363
  959MOL0     H29456   8.557   4.499  10.143  0.3342 -1.6886  1.1548
  959MOL0     H29457   8.366   4.633  10.059  0.0145 -0.0030  0.4012
  959MOL0     H29458   8.449   4.731  10.174 -0.6333 -0.0439  1.2536
  959MOL0     H29459   8.298   4.719  10.331 -1.1236 -0.3221  0.8558
  959MOL0     H29460   8.209   4.583  10.271  0.2463 -1.2485 -1.3081
  959MOL0     H29461   8.149   4.723  10.059 -2.8318  0.3867  1.0049
  959MOL0     H29462   8.229   4.863  10.136 -0.1067 -1.4531 -5.2864
  959MOL0     H29463   7.852   4.839  10.344  0.4121  2.0319 -0.4359
  959MOL0     H29464   8.285   4.163  10.242 -0.0493  0.9004  1.5311
  959MOL0     H29465   8.393   3.936  10.319  0.9092 -1.2855 -1.3966
  960MOL0     O29466  10.779  11.221   3.238  0.2999 -0.6479 -0.8465
  960MOL0     C29467  10.711  11.304   3.308  0.0872  0.3620 -0.4151
  960MOL0     O29468  10.766  11.411   3.375 -0.6801  0.4381  0.3238
  960MOL0     C29469  10.898  11.424   3.360 -0.2348  0.7012  0.1140
  960MOL0     C29470  10.957  11.475   3.249  0.2617 -0.8442 -0.6528
  960MOL0     C29471  11.099  11.484   3.243 -0.3170 -0.5294  0.1000
  960MOL0     C29472  11.186  11.441   3.344  0.4115  0.0622 -1.5133
  960MOL0     O29473  11.317  11.465   3.333  0.2633  0.5208  0.5722
  960MOL0     C29474  11.400  11.404   3.426 -0.2521  0.3216  0.1991
  960MOL0     C29475  11.535  11.396   3.361  0.0905 -0.2626 -0.2455
  960MOL0     C29476  11.623  11.298   3.440 -0.1892  0.0742  0.1329
  960MOL0     C29477  11.650  11.333   3.584 -0.4438  0.0190  0.9542
  960MOL0     C29478  11.764  11.244   3.646  0.4462 -0.6358 -0.3338
  960MOL0     C29479  11.723  11.170   3.771 -0.1461 -0.4617 -1.0345
  960MOL0     C29480  11.824  11.050   3.820  0.0836  0.1907 -0.2156
  960MOL0     C29481  11.959  11.073   3.882 -0.3230  0.0024  0.0018
  960MOL0     N29482  12.038  11.163   3.800 -0.8680 -0.3000  1.0453
  960MOL0     C29483  12.094  11.126   3.679 -0.6653  0.0945  0.0612
  960MOL0     C29484  12.169  11.233   3.643  0.9731  0.3364 -0.2698
  960MOL0     C29485  12.236  11.256   3.520  0.1583 -0.5841 -0.4853
  960MOL0     C29486  12.220  11.397   3.469  0.0718 -0.2710 -0.1600
  960MOL0     C29487  12.074  11.433   3.433 -0.5245  0.4470 -1.0501
  960MOL0     C29488  12.074  11.510   3.310  0.2617  0.1364 -0.5682
  960MOL0     O29489  11.944  11.570   3.290  0.2866 -0.4838 -0.0929
  960MOL0     C29490  11.933  11.652   3.187 -0.6485 -0.9375  1.2841
  960MOL0     C29491  11.806  11.674   3.134 -1.5460 -0.0057 -0.0974
  960MOL0     C29492  11.779  11.770   3.033 -0.5697  0.8905  0.0099
  960MOL0     C29493  11.642  11.773   2.991 -0.8969  1.1911 -0.5474
  960MOL0     C29494  11.883  11.849   2.987 -0.9528 -0.2931  0.0456
  960MOL0     C29495  11.869  11.938   2.877 -1.2824 -0.2482 -0.0077
  960MOL0     O29496  11.963  12.042   2.872  0.0024 -0.1540  0.2775
  960MOL0     C29497  11.937  12.137   2.777 -0.0592 -1.1933 -0.3586
  960MOL0     C29498  12.049  12.197   2.714  1.2720  0.5343  0.6349
  960MOL0     C29499  12.021  12.300   2.614  0.7323 -0.2769  0.1219
  960MOL0     C29500  11.889  12.349   2.579  0.1416 -0.9669 -1.0557
  960MOL0     O29501  11.857  12.447   2.491  0.3638 -0.6014 -0.1404
  960MOL0     C29502  11.969  12.490   2.410  0.3730  0.1553  0.1069
  960MOL0     C29503  11.902  12.586   2.306  0.3072  0.0083 -0.2319
  960MOL0     C29504  11.860  12.728   2.359 -0.5340  0.0956  0.0715
  960MOL0     C29505  11.784  12.809   2.256  0.6737 -0.6467  0.3355
  960MOL0     C29506  11.719  12.938   2.299 -0.1282  0.0569 -0.2357
  960MOL0     C29507  11.815  13.045   2.350 -1.4192 -0.2192  1.2259
  960MOL0     C29508  11.938  13.064   2.266 -0.6014 -0.7881  0.3264
  960MOL0     C29509  12.007  13.196   2.301  0.8755 -0.8592  0.6397
  960MOL0    Cl29510  12.075  13.213   2.469 -0.2604  0.2999  0.1082
  960MOL0     C29511  11.789  12.280   2.637  0.2793  0.0659  0.7679
  960MOL0     C29512  11.806  12.183   2.734  0.4533  0.6429 -0.9084
  960MOL0     O29513  11.789  11.906   2.783  0.2775  0.1852 -0.5175
  960MOL0     C29514  12.014  11.829   3.036  1.3149 -1.1867  0.2881
  960MOL0     C29515  12.036  11.731   3.133  0.0604  0.1252 -0.0686
  960MOL0     N29516  12.165  11.329   3.746  0.8505 -0.3003 -0.0260
  960MOL0     N29517  12.095  11.280   3.846  0.0443  0.5881 -0.3466
  960MOL0     C29518  11.122  11.383   3.457  1.2000  1.1480  0.1796
  960MOL0     C29519  10.973  11.375   3.464 -0.2382  0.2160 -0.1422
  960MOL0     C29520  10.570  11.287   3.315  0.2675  0.3533 -0.1521
  960MOL0     C29521  10.504  11.182   3.246  0.7182  0.0653 -0.3461
  960MOL0     C29522  10.364  11.177   3.236  0.8059 -0.5848 -0.0195
  960MOL0     C29523  10.284  11.275   3.300 -0.1453 -0.2071  0.1488
  960MOL0     O29524  10.147  11.254   3.301  0.0830 -0.2309  0.0447
  960MOL0     C29525  10.054  11.349   3.364  1.3233  1.1728  1.3445
  960MOL0     C29526   9.907  11.290   3.333  0.2482  0.5901 -0.5038
  960MOL0     C29527   9.846  11.197   3.442  0.5876 -0.2059 -1.0244
  960MOL0     C29528   9.700  11.153   3.422 -0.1331  0.9361 -0.3358
  960MOL0     C29529   9.595  11.252   3.471 -1.0672  1.0435 -0.6255
  960MOL0     C29530   9.524  11.337   3.518  0.3188  0.4985  0.2112
  960MOL0     C29531  10.353  11.386   3.355 -0.1642  0.1487 -0.8102
  960MOL0     C29532  10.496  11.395   3.364  0.0958  0.9751 -0.6521
  960MOL0     H29533  10.893  11.492   3.163  3.1316 -0.5704 -2.9119
  960MOL0     H29534  11.147  11.528   3.156  0.8617 -2.3070 -0.2145
  960MOL0     H29535  11.405  11.471   3.512  0.1158  1.4962 -0.7165
  960MOL0     H29536  11.353  11.308   3.450 -2.0478  0.4272 -2.5069
  960MOL0     H29537  11.523  11.352   3.262 -1.8518 -1.5176  0.4865
  960MOL0     H29538  11.587  11.492   3.359 -1.7907  0.8137 -0.3652
  960MOL0     H29539  11.585  11.196   3.438  1.2375 -0.5079  0.9289
  960MOL0     H29540  11.719  11.306   3.388 -0.0008  1.0465  0.6115
  960MOL0     H29541  11.694  11.432   3.593  0.4390 -0.4405  1.8899
  960MOL0     H29542  11.558  11.320   3.642 -2.0590 -1.5841 -1.6968
  960MOL0     H29543  11.803  11.195   3.556  0.8691  3.2751 -2.5497
  960MOL0     H29544  11.833  11.315   3.693  0.0953 -1.3599  1.3401
  960MOL0     H29545  11.703  11.232   3.859  2.1432 -1.1180  0.0435
  960MOL0     H29546  11.631  11.115   3.751 -2.0861  1.0191  2.8031
  960MOL0     H29547  11.770  10.989   3.893 -2.3537  0.8323 -1.3644
  960MOL0     H29548  11.829  10.986   3.732 -1.2115 -0.3567  0.0849
  960MOL0     H29549  12.024  10.989   3.907 -0.3780  0.3604  1.3955
  960MOL0     H29550  11.943  11.108   3.984 -0.0296 -2.1246  0.8238
  960MOL0     H29551  12.083  11.025   3.642  1.2860  1.1235 -3.9370
  960MOL0     H29552  12.343  11.256   3.546  0.1210  3.3187  0.2590
  960MOL0     H29553  12.224  11.171   3.452  2.7320 -0.6363 -1.0006
  960MOL0     H29554  12.282  11.418   3.381  0.9953  1.6857  0.8916
  960MOL0     H29555  12.254  11.474   3.539 -0.6968 -1.0269  1.0820
  960MOL0     H29556  12.033  11.488   3.518  2.0536  0.9341 -0.0210
  960MOL0     H29557  11.998  11.354   3.426 -2.3037  1.8501  1.0732
  960MOL0     H29558  12.104  11.453   3.222  2.8911 -0.1312  0.4066
  960MOL0     H29559  12.150  11.587   3.325 -0.0553  0.3404  0.0528
  960MOL0     H29560  11.730  11.609   3.176 -2.8517  3.1374  2.9573
  960MOL0     H29561  11.621  11.713   2.903 -0.7924 -0.3261  0.4352
  960MOL0     H29562  11.572  11.732   3.065 -0.7422  1.7500 -0.0775
  960MOL0     H29563  11.604  11.875   2.977 -1.0431  1.6952  2.6301
  960MOL0     H29564  12.154  12.177   2.736  0.7153 -1.2137  1.9487
  960MOL0     H29565  12.106  12.349   2.567  0.1227  2.4193  1.6217
  960MOL0     H29566  12.044  12.545   2.469 -1.5269  1.0248  1.8603
  960MOL0     H29567  12.016  12.413   2.347  0.1489 -1.1909  1.5141
  960MOL0     H29568  11.973  12.599   2.224  0.2986 -1.4429 -0.5047
  960MOL0     H29569  11.813  12.544   2.258 -2.1367  0.9919  3.0791
  960MOL0     H29570  11.950  12.776   2.398 -0.7379 -0.6096  1.4641
  960MOL0     H29571  11.799  12.710   2.448  0.9754 -1.3753  0.8648
  960MOL0     H29572  11.845  12.834   2.169 -0.3987  1.4083  0.1052
  960MOL0     H29573  11.699  12.749   2.220  0.2848 -0.9885  1.7612
  960MOL0     H29574  11.642  12.919   2.374  1.4978 -0.7572  1.3230
  960MOL0     H29575  11.665  12.980   2.213 -0.9640  3.0680  1.6143
  960MOL0     H29576  11.773  13.146   2.354  0.1503  0.5078  0.0682
  960MOL0     H29577  11.843  12.999   2.445  2.6729  0.6641  0.6381
  960MOL0     H29578  11.919  13.053   2.159  2.2151 -0.2345 -0.3004
  960MOL0     H29579  12.022  12.997   2.286 -0.9596 -1.3793 -0.1173
  960MOL0     H29580  11.951  13.286   2.275  1.2185 -1.6495 -3.4160
  960MOL0     H29581  12.092  13.204   2.232  1.4442  1.0534  1.4960
  960MOL0     H29582  11.690  12.317   2.613  1.3509  2.0166 -1.0003
  960MOL0     H29583  11.709  12.156   2.775 -0.3723  2.2780 -1.6813
  960MOL0     H29584  12.101  11.884   3.001  1.0090 -2.0553 -2.0190
  960MOL0     H29585  12.135  11.723   3.177  0.6049  3.7430 -0.3272
  960MOL0     H29586  11.183  11.359   3.544  1.0942 -0.2787 -0.1132
  960MOL0     H29587  10.929  11.329   3.552  1.2226  2.6249  1.9937
  960MOL0     H29588  10.571  11.106   3.209  1.7596  1.6315 -1.8316
  960MOL0     H29589  10.315  11.096   3.183  1.7785  0.2939 -2.4213
  960MOL0     H29590  10.077  11.358   3.470 -0.4396  1.0036  1.7650
  960MOL0     H29591  10.064  11.452   3.326  1.4404  0.0540 -1.9919
  960MOL0     H29592   9.904  11.239   3.236 -3.8661 -0.4449 -0.0074
  960MOL0     H29593   9.843  11.378   3.325  0.4448  0.7331 -0.5175
  960MOL0     H29594   9.860  11.250   3.536 -0.4212 -0.4776 -0.7088
  960MOL0     H29595   9.915  11.112   3.441 -1.1266 -1.8239  2.2467
  960MOL0     H29596   9.691  11.064   3.484  0.2048  1.0641 -0.0976
  960MOL0     H29597   9.674  11.124   3.320 -1.0718 -1.4219  0.5010
  960MOL0     H29598   9.443  11.394   3.559  0.4047 -0.1295  1.3052
  960MOL0     H29599  10.287  11.465   3.389 -2.7878 -1.3778 -1.9886
  960MOL0     H29600  10.533  11.485   3.413  1.3467 -1.0240  2.3676
  961MOL0     O29601   9.334   1.833   9.819  0.2548 -0.0258 -0.2420
  961MOL0     C29602   9.434   1.767   9.827 -0.4516  0.7828 -0.2167
  961MOL0     O29603   9.437   1.637   9.849  0.1749  0.6579  0.0520
  961MOL0     C29604   9.315   1.556   9.844 -1.1651  0.2644 -0.4983
  961MOL0     C29605   9.193   1.589   9.917 -0.1499 -0.1100 -0.2112
  961MOL0     C29606   9.074   1.516   9.904 -0.5723  0.2435 -0.4468
  961MOL0     C29607   9.062   1.407   9.819 -0.3430  1.2316  0.2533
  961MOL0     O29608   8.944   1.344   9.797  0.2681  0.6124 -0.0882
  961MOL0     C29609   8.928   1.252   9.687  0.8850 -0.4275  0.5622
  961MOL0     C29610   8.929   1.311   9.548 -0.1535  0.0357  0.8546
  961MOL0     C29611   8.846   1.233   9.443 -0.6307 -0.8843 -1.3411
  961MOL0     C29612   8.873   1.300   9.292 -0.0873 -0.2626 -0.2278
  961MOL0     C29613   8.800   1.216   9.178  0.2125  0.2967 -0.5832
  961MOL0     C29614   8.646   1.200   9.207 -0.3116  0.1538  0.1902
  961MOL0     C29615   8.565   1.311   9.143  0.3071  0.8505  0.7586
  961MOL0     C29616   8.408   1.293   9.137 -0.0397 -0.3810  0.5167
  961MOL0     N29617   8.356   1.287   9.274 -0.4576 -0.3997  0.1696
  961MOL0     C29618   8.357   1.387   9.367  1.0145  0.2842  0.2199
  961MOL0     C29619   8.288   1.339   9.471  0.2607 -0.3060  0.4529
  961MOL0     C29620   8.252   1.440   9.574  0.7179 -0.1177 -0.1520
  961MOL0     C29621   8.360   1.465   9.685  0.8192  0.0756 -0.2570
  961MOL0     C29622   8.402   1.335   9.760 -0.1467 -0.1969  0.1801
  961MOL0     C29623   8.279   1.257   9.820  0.3884 -0.3497  0.1797
  961MOL0     O29624   8.186   1.336   9.903  0.0570  0.1820  0.0257
  961MOL0     C29625   8.199   1.316  10.039  1.2833 -0.7272  0.5104
  961MOL0     C29626   8.313   1.264  10.105 -0.2434  0.8679 -0.4294
  961MOL0     C29627   8.310   1.249  10.241 -0.5360 -1.4805 -0.0104
  961MOL0     C29628   8.443   1.190  10.300  1.2285  0.6121 -0.2621
  961MOL0     C29629   8.208   1.301  10.325  0.3217 -0.3437  0.9598
  961MOL0     C29630   8.202   1.299  10.471 -0.4062  0.6118  0.7605
  961MOL0     O29631   8.223   1.178  10.533 -0.2232  0.2244  0.0820
  961MOL0     C29632   8.212   1.159  10.671 -0.4561  0.6616 -0.4936
  961MOL0     C29633   8.316   1.097  10.743  0.3156 -0.1279 -0.0982
  961MOL0     C29634   8.317   1.086  10.882  0.8206  0.3589  0.1635
  961MOL0     C29635   8.209   1.139  10.952  0.5895  0.0262  0.6417
  961MOL0     O29636   8.212   1.143  11.088  0.2767  0.2487  0.6991
  961MOL0     C29637   8.102   1.205  11.156  0.5974 -0.5740 -0.2695
  961MOL0     C29638   8.127   1.208  11.304 -0.8598 -0.0240  0.4309
  961MOL0     C29639   8.085   1.073  11.359 -0.6894 -0.9778 -0.2447
  961MOL0     C29640   8.178   0.957  11.315  0.5935 -0.1352 -0.1591
  961MOL0     C29641   8.223   0.867  11.430  0.8384  0.1493 -0.8573
  961MOL0     C29642   8.342   0.934  11.511 -0.1520  0.4061  0.9176
  961MOL0     C29643   8.405   0.838  11.606 -0.0253 -0.6525  0.1345
  961MOL0     C29644   8.518   0.925  11.675 -0.9162 -0.1032 -1.2148
  961MOL0    Cl29645   8.559   0.843  11.835  0.2586 -0.0047 -0.0791
  961MOL0     C29646   8.094   1.180  10.881  0.3374  0.3262  0.5491
  961MOL0     C29647   8.100   1.199  10.733  0.8567 -1.3916 -1.3935
  961MOL0     O29648   8.161   1.401  10.532 -0.3568 -0.1356  0.0427
  961MOL0     C29649   8.091   1.333  10.257 -0.2909 -0.2978  0.7358
  961MOL0     C29650   8.084   1.345  10.119  0.4348 -0.9159  0.4918
  961MOL0     N29651   8.253   1.206   9.454  0.2507 -0.2758  0.7446
  961MOL0     N29652   8.295   1.178   9.334 -0.2350  0.8988  0.3707
  961MOL0     C29653   9.188   1.372   9.751 -0.0182 -0.7668 -1.9963
  961MOL0     C29654   9.305   1.443   9.761  0.3733 -0.2532 -0.2488
  961MOL0     C29655   9.566   1.829   9.832 -0.8727  0.1534 -0.1829
  961MOL0     C29656   9.668   1.786   9.912  0.1876 -0.0814  1.0203
  961MOL0     C29657   9.795   1.853   9.917 -1.0887 -0.5137  0.6153
  961MOL0     C29658   9.820   1.968   9.835  0.0052  0.6256 -0.1742
  961MOL0     O29659   9.943   2.020   9.836 -0.6695  0.9137 -0.4542
  961MOL0     C29660   9.986   2.109   9.736 -0.9095 -0.6126  0.1075
  961MOL0     C29661  10.108   2.165   9.793 -0.2944  0.0750 -0.2646
  961MOL0     C29662  10.095   2.312   9.814 -0.2548  0.0707  0.1247
  961MOL0     C29663  10.212   2.372   9.901 -0.4148  0.1151 -0.3926
  961MOL0     C29664  10.331   2.360   9.818 -0.1778 -0.4587 -0.0767
  961MOL0     C29665  10.426   2.327   9.755  0.4878 -0.4659 -0.3384
  961MOL0     C29666   9.708   2.015   9.755 -0.0132  0.1519 -0.3180
  961MOL0     C29667   9.587   1.943   9.746 -1.0975 -0.0056  0.0485
  961MOL0     H29668   9.209   1.673   9.984  0.7228 -1.5450  1.4584
  961MOL0     H29669   8.993   1.546   9.969  0.6000  5.7252 -1.0414
  961MOL0     H29670   8.985   1.159   9.696 -1.0504 -2.0499 -2.2011
  961MOL0     H29671   8.822   1.225   9.696  0.6570 -1.2808 -3.0656
  961MOL0     H29672   8.875   1.405   9.557  0.7175  0.5164  1.1638
  961MOL0     H29673   9.027   1.329   9.503 -1.7173  2.5877 -1.9210
  961MOL0     H29674   8.876   1.129   9.455  2.1166 -0.0439 -0.2828
  961MOL0     H29675   8.740   1.252   9.463 -0.9305 -1.6218 -2.1488
  961MOL0     H29676   8.850   1.406   9.301  0.2944 -0.3091  1.5883
  961MOL0     H29677   8.979   1.282   9.270 -0.3265 -1.4952 -0.4535
  961MOL0     H29678   8.809   1.251   9.075 -0.1992  0.0373 -0.7101
  961MOL0     H29679   8.833   1.112   9.168  0.3160  0.5665 -5.4039
  961MOL0     H29680   8.608   1.109   9.159 -1.7001 -0.6451  2.5842
  961MOL0     H29681   8.631   1.177   9.313 -0.2270 -2.2842 -0.2654
  961MOL0     H29682   8.578   1.403   9.200  1.2687 -1.0117  3.8001
  961MOL0     H29683   8.607   1.326   9.043 -0.3212  0.9168  0.5053
  961MOL0     H29684   8.385   1.201   9.081 -3.2389  0.1813  0.7337
  961MOL0     H29685   8.365   1.378   9.083  0.1903 -1.0443 -0.7556
  961MOL0     H29686   8.400   1.485   9.357  2.8115 -0.4421  0.5410
  961MOL0     H29687   8.226   1.536   9.528  0.0717  0.2092  0.8663
  961MOL0     H29688   8.158   1.402   9.614 -0.0811  1.1126 -0.7679
  961MOL0     H29689   8.296   1.510   9.761  2.6294  0.7075  0.9588
  961MOL0     H29690   8.447   1.518   9.646  1.3203 -1.1413 -0.8540
  961MOL0     H29691   8.462   1.353   9.850  0.1996 -2.8964  0.5811
  961MOL0     H29692   8.459   1.270   9.693  2.1409  1.4093  0.4629
  961MOL0     H29693   8.318   1.171   9.876 -0.4579 -2.5770 -2.4216
  961MOL0     H29694   8.221   1.208   9.741 -0.5751 -1.3547  1.4630
  961MOL0     H29695   8.403   1.218  10.064 -2.8025 -3.9910 -1.3129
  961MOL0     H29696   8.419   1.126  10.385  3.1166  1.4639  0.9788
  961MOL0     H29697   8.491   1.134  10.218 -0.2431 -0.5518 -0.3702
  961MOL0     H29698   8.517   1.263  10.332  1.2889  1.5323 -2.3379
  961MOL0     H29699   8.386   1.048  10.677  1.3565 -3.0846  2.9290
  961MOL0     H29700   8.395   1.032  10.934 -1.3385 -4.8553 -1.3621
  961MOL0     H29701   8.110   1.312  11.134  4.1935 -0.6914 -0.0621
  961MOL0     H29702   8.003   1.166  11.130  0.5956 -1.0208  0.3717
  961MOL0     H29703   8.235   1.226  11.316 -1.1081  0.1245  3.2886
  961MOL0     H29704   8.077   1.292  11.353 -0.8187  0.9161 -1.0735
  961MOL0     H29705   7.983   1.053  11.323 -0.2328 -0.9165 -1.6313
  961MOL0     H29706   8.084   1.075  11.468 -2.1209  0.3530 -0.2413
  961MOL0     H29707   8.129   0.899  11.236  2.3720 -0.0703 -1.3680
  961MOL0     H29708   8.269   0.989  11.264 -0.3278 -0.1570 -1.8875
  961MOL0     H29709   8.263   0.771  11.399  2.5706  0.4304  0.3322
  961MOL0     H29710   8.137   0.863  11.497 -1.2238  2.5300 -3.1185
  961MOL0     H29711   8.420   0.975  11.447  0.4733 -0.8831  0.8289
  961MOL0     H29712   8.307   1.023  11.564  1.5811  1.9057 -0.3521
  961MOL0     H29713   8.448   0.753  11.552  3.6590  1.6289 -0.8838
  961MOL0     H29714   8.330   0.809  11.680 -0.3466  0.3473  0.2111
  961MOL0     H29715   8.496   1.030  11.697  0.4903 -0.3775  2.0311
  961MOL0     H29716   8.613   0.914  11.622 -0.6557 -2.2835 -0.4092
  961MOL0     H29717   8.013   1.219  10.942  1.4337  0.0979  2.2287
  961MOL0     H29718   8.021   1.251  10.678  0.6546  1.1676  1.0827
  961MOL0     H29719   8.010   1.372  10.318 -0.2259  0.3883  0.3983
  961MOL0     H29720   7.992   1.384  10.077  1.3142 -2.1185 -2.8833
  961MOL0     H29721   9.190   1.288   9.683  2.3626 -2.1993 -0.2935
  961MOL0     H29722   9.380   1.410   9.690 -0.0719  1.4880 -1.6180
  961MOL0     H29723   9.651   1.705   9.983  1.2451  0.9322  2.4948
  961MOL0     H29724   9.882   1.815   9.968  0.6907  1.7415 -0.5762
  961MOL0     H29725  10.006   2.051   9.645 -0.7273  0.6255 -0.6704
  961MOL0     H29726   9.914   2.188   9.713  3.3290  3.0506 -2.2041
  961MOL0     H29727  10.189   2.155   9.721  0.0916  2.5662 -0.2340
  961MOL0     H29728  10.144   2.110   9.881 -2.2692 -0.6949  0.1174
  961MOL0     H29729   9.998   2.330   9.863 -0.9097  0.6052 -1.3057
  961MOL0     H29730  10.090   2.368   9.721 -1.0462 -0.7672 -0.3573
  961MOL0     H29731  10.213   2.293   9.976 -1.7839 -2.0768 -2.5411
  961MOL0     H29732  10.212   2.474   9.940  3.6185 -0.3866  1.3540
  961MOL0     H29733  10.496   2.294   9.681 -0.6390 -2.8470 -0.4458
  961MOL0     H29734   9.717   2.095   9.682  0.1327  2.0398  1.6616
  961MOL0     H29735   9.512   1.992   9.684 -2.0521 -2.1033 -0.5483
  962MOL0     O29736   8.869   4.173   8.224  0.2285  0.5172 -0.2842
  962MOL0     C29737   8.907   4.116   8.127  0.7257  0.1156 -0.8838
  962MOL0     O29738   9.000   4.025   8.113  1.1048  1.0059 -0.2413
  962MOL0     C29739   9.027   3.959   8.231  0.4879 -0.2500  0.4319
  962MOL0     C29740   9.157   3.906   8.229  0.1632  0.0954 -1.0250
  962MOL0     C29741   9.205   3.826   8.325 -1.2398 -0.1296 -0.9742
  962MOL0     C29742   9.121   3.782   8.424  0.8967 -0.5922  0.1433
  962MOL0     O29743   9.147   3.690   8.524  0.6244 -0.5841 -0.2736
  962MOL0     C29744   9.283   3.685   8.554  0.6207  0.7684 -1.0384
  962MOL0     C29745   9.284   3.604   8.687  0.0614  1.1064  0.5903
  962MOL0     C29746   9.204   3.671   8.800 -0.1994  0.5024 -0.4303
  962MOL0     C29747   9.214   3.607   8.934  0.6167  0.4963 -0.6602
  962MOL0     C29748   9.074   3.596   8.995 -0.2208  0.6206 -0.0936
  962MOL0     C29749   9.064   3.504   9.117  0.2522  0.3228 -0.9918
  962MOL0     C29750   8.915   3.469   9.143 -0.2555 -0.9848 -0.0899
  962MOL0     C29751   8.827   3.578   9.192  0.1727  0.7354 -0.6680
  962MOL0     N29752   8.862   3.633   9.324 -0.8395 -0.3960  0.0247
  962MOL0     C29753   8.816   3.756   9.361  0.4162 -0.3110 -0.7858
  962MOL0     C29754   8.854   3.760   9.493  0.2839  0.0902 -0.0397
  962MOL0     C29755   8.834   3.870   9.588 -0.1519 -0.1905 -0.6425
  962MOL0     C29756   8.967   3.933   9.631 -0.0178  1.3061  0.1816
  962MOL0     C29757   8.925   4.018   9.744 -1.1276  1.2484  0.0375
  962MOL0     C29758   9.049   4.104   9.787 -0.5772  0.8798 -0.1286
  962MOL0     O29759   9.151   4.023   9.856  0.9662 -0.5973  0.1432
  962MOL0     C29760   9.250   4.101   9.916  0.4648  0.4183 -0.2832
  962MOL0     C29761   9.272   4.241   9.900  0.2998 -0.4004  0.1416
  962MOL0     C29762   9.370   4.310   9.968 -0.3212 -0.2391 -0.1371
  962MOL0     C29763   9.388   4.452   9.920 -0.7147  0.4731  0.7072
  962MOL0     C29764   9.433   4.243  10.076 -1.2581 -0.4402 -0.5464
  962MOL0     C29765   9.529   4.325  10.162 -1.9275  0.5564 -0.2012
  962MOL0     O29766   9.517   4.461  10.197  1.0335  0.0099  0.2955
  962MOL0     C29767   9.621   4.539  10.250  0.3029 -0.8335  0.3777
  962MOL0     C29768   9.589   4.670  10.269  0.0570 -0.2704 -0.0688
  962MOL0     C29769   9.677   4.756  10.343 -0.1763 -0.0984 -0.2551
  962MOL0     C29770   9.797   4.709  10.385  0.6953 -0.1181 -0.0433
  962MOL0     O29771   9.884   4.779  10.454 -0.2068  0.5659  0.2123
  962MOL0     C29772   9.856   4.772  10.598 -0.5326  0.3429 -0.0780
  962MOL0     C29773   9.987   4.766  10.668 -0.1628 -0.3333  0.2700
  962MOL0     C29774  10.057   4.911  10.671  0.2205  0.4202  0.6984
  962MOL0     C29775  10.200   4.899  10.724  0.1020  0.5194 -0.9820
  962MOL0     C29776  10.239   5.015  10.813 -1.1063 -0.1118  0.3041
  962MOL0     C29777  10.393   5.004  10.840 -0.6307  0.0005 -0.6923
  962MOL0     C29778  10.437   5.115  10.933  0.0169  0.9699  0.7551
  962MOL0     C29779  10.585   5.092  10.984 -0.6051  0.6908  0.0853
  962MOL0    Cl29780  10.732   5.107  10.882 -0.1655 -0.5151  0.3930
  962MOL0     C29781   9.828   4.583  10.358 -0.6426 -0.7323 -0.1374
  962MOL0     C29782   9.749   4.493  10.291  0.2003  1.4150  0.6960
  962MOL0     O29783   9.621   4.249  10.206 -0.5811 -0.6912 -0.4010
  962MOL0     C29784   9.408   4.109  10.105  0.4311  0.1827  0.6498
  962MOL0     C29785   9.315   4.042  10.021  0.5255 -0.3163 -1.1400
  962MOL0     N29786   8.916   3.639   9.525  0.4789  0.2209  0.0587
  962MOL0     N29787   8.923   3.566   9.423  0.2557  1.1034 -0.0329
  962MOL0     C29788   8.986   3.821   8.419  0.6268  0.6048 -1.5463
  962MOL0     C29789   8.936   3.908   8.326  0.1836  0.8108  0.3267
  962MOL0     C29790   8.843   4.167   7.998  0.1150 -0.1732 -0.2155
  962MOL0     C29791   8.900   4.135   7.872  0.8577 -0.1357  0.9997
  962MOL0     C29792   8.847   4.185   7.753 -0.9749 -0.3910  0.6427
  962MOL0     C29793   8.734   4.269   7.753  0.5383  0.2262  0.0844
  962MOL0     O29794   8.685   4.334   7.651  0.4825  0.2625  1.3135
  962MOL0     C29795   8.781   4.355   7.539 -0.0659 -0.6799  0.1704
  962MOL0     C29796   8.723   4.470   7.457  0.9204 -0.3513  0.5641
  962MOL0     C29797   8.576   4.447   7.416 -1.1296  0.0451 -0.0174
  962MOL0     C29798   8.542   4.563   7.324 -0.1885 -0.1587  0.8645
  962MOL0     C29799   8.411   4.538   7.263 -0.5512  1.1717  1.2149
  962MOL0     C29800   8.306   4.532   7.202  0.0288  0.4430  0.1827
  962MOL0     C29801   8.678   4.313   7.881  0.3185 -0.3454  0.1123
  962MOL0     C29802   8.731   4.256   8.001  0.7776 -0.2796 -0.4503
  962MOL0     H29803   9.220   3.937   8.147  0.8093 -0.3784 -0.7082
  962MOL0     H29804   9.312   3.811   8.318 -0.9331  1.8000 -0.8786
  962MOL0     H29805   9.339   3.634   8.475  2.3003  1.7932 -0.5503
  962MOL0     H29806   9.321   3.784   8.582 -3.1438  1.8496  0.8937
  962MOL0     H29807   9.252   3.500   8.681 -0.8377  1.4073  0.0321
  962MOL0     H29808   9.387   3.595   8.722  0.5892  1.8823 -0.6949
  962MOL0     H29809   9.241   3.774   8.805  0.0049  0.3560  1.6474
  962MOL0     H29810   9.102   3.681   8.762  0.5974  0.8654 -2.6764
  962MOL0     H29811   9.256   3.509   8.911  0.9981  0.8576 -1.5374
  962MOL0     H29812   9.282   3.665   8.998 -1.4573 -1.1363  3.4407
  962MOL0     H29813   9.040   3.694   9.030  0.1461  0.8336 -0.3283
  962MOL0     H29814   9.010   3.556   8.916  1.7212 -1.6598 -0.6384
  962MOL0     H29815   9.117   3.411   9.097  1.5128  1.3194 -2.5117
  962MOL0     H29816   9.110   3.541   9.209 -2.0495 -1.8191  1.1623
  962MOL0     H29817   8.883   3.421   9.049 -1.7047 -1.0328  0.3965
  962MOL0     H29818   8.900   3.382   9.208  0.6311 -4.5790 -4.2076
  962MOL0     H29819   8.720   3.555   9.191  0.2671 -0.0020  1.3006
  962MOL0     H29820   8.834   3.662   9.123  3.0768  1.5745  0.4650
  962MOL0     H29821   8.761   3.830   9.303 -0.1029 -0.2895 -0.2696
  962MOL0     H29822   8.772   3.948   9.543 -1.0324  0.5768  1.7765
  962MOL0     H29823   8.766   3.837   9.667 -1.8312 -1.3196 -2.4661
  962MOL0     H29824   9.020   3.983   9.550  0.7318 -1.2352 -1.0021
  962MOL0     H29825   9.034   3.855   9.669  1.0813  1.0814 -2.0766
  962MOL0     H29826   8.884   3.960   9.827 -0.2290  1.0806  0.3672
  962MOL0     H29827   8.848   4.083   9.700 -1.6734 -0.6639 -2.0176
  962MOL0     H29828   9.012   4.183   9.852  1.1032 -0.6526  2.9549
  962MOL0     H29829   9.102   4.144   9.700 -1.2527 -0.9327 -1.4398
  962MOL0     H29830   9.216   4.281   9.817 -1.0300 -2.9265 -0.2733
  962MOL0     H29831   9.358   4.468   9.816 -0.3636  0.2576  0.5703
  962MOL0     H29832   9.339   4.524   9.986 -3.6594 -2.0658  1.5008
  962MOL0     H29833   9.494   4.479   9.927 -1.1396  2.4692  0.1026
  962MOL0     H29834   9.498   4.686  10.212  2.5366  0.8181 -4.0834
  962MOL0     H29835   9.655   4.862  10.352 -4.0488 -0.5669 -2.0969
  962MOL0     H29836   9.805   4.864  10.628 -3.1759 -0.3044 -2.1437
  962MOL0     H29837   9.796   4.687  10.631 -0.7236  1.2598  2.0862
  962MOL0     H29838   9.967   4.717  10.764  1.2976 -3.3025 -0.8083
  962MOL0     H29839  10.054   4.692  10.624 -2.4800 -0.2107 -4.1050
  962MOL0     H29840  10.002   4.976  10.739 -2.5309 -2.3433  1.3262
  962MOL0     H29841  10.047   4.972  10.580 -0.3994  0.4130  0.7625
  962MOL0     H29842  10.216   4.803  10.776  1.8054  0.9767 -0.5774
  962MOL0     H29843  10.266   4.896  10.637 -4.1806 -3.1055 -4.5453
  962MOL0     H29844  10.179   5.032  10.902  1.3556 -0.4088  2.1145
  962MOL0     H29845  10.234   5.106  10.751 -0.0747  0.2286  0.6978
  962MOL0     H29846  10.407   4.914  10.901 -2.4962 -0.3546 -0.7464
  962MOL0     H29847  10.452   5.002  10.748  1.5115  0.1893  0.6105
  962MOL0     H29848  10.372   5.098  11.020  0.5003 -0.3910  0.8600
  962MOL0     H29849  10.450   5.214  10.888  0.4202 -0.4428 -2.4339
  962MOL0     H29850  10.604   4.990  11.019  1.1489  1.0939  0.3946
  962MOL0     H29851  10.587   5.159  11.070 -5.1758 -2.4534  3.0948
  962MOL0     H29852   9.926   4.554  10.395  1.1445  1.2571 -2.8860
  962MOL0     H29853   9.787   4.395  10.262 -1.0727  1.1724 -0.2364
  962MOL0     H29854   9.460   4.065  10.190  0.7466  1.0168  0.8964
  962MOL0     H29855   9.286   3.942  10.053 -0.1199  0.5351  1.0771
  962MOL0     H29856   8.918   3.770   8.486  3.0884  0.0148  0.6676
  962MOL0     H29857   8.831   3.934   8.313  0.4134  1.6152 -0.0099
  962MOL0     H29858   8.982   4.064   7.878 -1.7085 -3.2095  3.1869
  962MOL0     H29859   8.888   4.147   7.660 -2.5925  0.8621 -0.6449
  962MOL0     H29860   8.882   4.374   7.576 -0.2694  1.5282 -0.2889
  962MOL0     H29861   8.776   4.259   7.486  1.4385 -0.8527  0.3035
  962MOL0     H29862   8.781   4.462   7.364 -2.1806 -3.1204 -1.3539
  962MOL0     H29863   8.737   4.563   7.512  1.9697 -0.1452 -0.0183
  962MOL0     H29864   8.512   4.457   7.504  1.0355 -1.5969  1.8589
  962MOL0     H29865   8.568   4.347   7.373  1.8845 -0.8773  1.2829
  962MOL0     H29866   8.621   4.580   7.250  0.0901 -1.5234  0.8353
  962MOL0     H29867   8.528   4.660   7.373  1.0187  1.0759 -1.0514
  962MOL0     H29868   8.205   4.521   7.169  0.6782 -2.3626 -1.1724
  962MOL0     H29869   8.596   4.384   7.887  0.9003  0.7869 -3.1508
  962MOL0     H29870   8.691   4.292   8.095  0.5528  1.2864 -1.1156
  963MOL0     O29871   6.711   2.395   1.258  0.2345  0.5765 -0.4338
  963MOL0     C29872   6.725   2.496   1.194 -0.4809 -0.2320 -0.0371
  963MOL0     O29873   6.770   2.505   1.070 -0.0818  0.2138 -0.1015
  963MOL0     C29874   6.849   2.400   1.024 -1.0063 -0.1849 -0.2557
  963MOL0     C29875   6.806   2.328   0.910 -1.3338  0.2174  0.5156
  963MOL0     C29876   6.895   2.218   0.880 -0.1085  0.4251  0.5123
  963MOL0     C29877   7.013   2.181   0.950  0.1615 -0.5345 -0.6169
  963MOL0     O29878   7.093   2.076   0.918 -1.1817  0.7668 -0.2204
  963MOL0     C29879   7.040   1.977   0.839 -0.2773  0.5280 -0.7705
  963MOL0     C29880   7.152   1.864   0.833 -0.4406 -0.6951  0.5697
  963MOL0     C29881   7.077   1.736   0.772 -0.3271  1.0351  0.0584
  963MOL0     C29882   7.182   1.622   0.760 -0.6309 -0.2122 -0.7161
  963MOL0     C29883   7.152   1.480   0.694 -0.0735  0.8849 -0.2850
  963MOL0     C29884   7.128   1.486   0.539  0.9389 -0.2108 -0.4154
  963MOL0     C29885   7.131   1.352   0.457 -0.1218 -0.3790 -0.1411
  963MOL0     C29886   6.996   1.286   0.489 -0.1636  0.1103  0.3510
  963MOL0     N29887   6.986   1.174   0.396  0.5713  0.0379 -0.4539
  963MOL0     C29888   7.000   1.038   0.421 -0.3599 -0.0979 -0.0442
  963MOL0     C29889   6.980   0.968   0.302  0.7121 -0.6913  0.2002
  963MOL0     C29890   6.987   0.824   0.291  1.2391 -0.6012  0.1740
  963MOL0     C29891   6.854   0.763   0.322  0.8106 -0.8319 -0.7719
  963MOL0     C29892   6.840   0.614   0.302  0.0700 -0.3377  0.6717
  963MOL0     C29893   6.700   0.561   0.341 -0.1159  0.5492  0.3486
  963MOL0     O29894   6.678   0.598   0.473  0.3001  0.5764  1.0212
  963MOL0     C29895   6.679   0.500   0.571 -0.4069 -0.4383 -0.6202
  963MOL0     C29896   6.754   0.375   0.576  0.1046  1.0797  0.1481
  963MOL0     C29897   6.742   0.280   0.688 -0.3552  0.2190  0.1003
  963MOL0     C29898   6.809   0.143   0.675 -0.8669  0.3472 -1.1428
  963MOL0     C29899   6.663   0.315   0.797 -0.6368  0.8655 -0.9269
  963MOL0     C29900   6.657   0.246   0.929 -0.0160  0.7336  0.7787
  963MOL0     O29901   6.548   0.272   1.000  0.6488 -0.3813 -0.0127
  963MOL0     C29902   6.530   0.249   1.137  0.3766 -0.2123 -0.1634
  963MOL0     C29903   6.628   0.292   1.225 -0.3699  0.2830 -0.1237
  963MOL0     C29904   6.634   0.251   1.359  0.5535  0.7181  0.9444
  963MOL0     C29905   6.534   0.174   1.411  0.1741 -0.8232 -0.3645
  963MOL0     O29906   6.526   0.126   1.547 -0.7535  0.8002  0.7319
  963MOL0     C29907   6.658   0.088   1.588  0.2613 -0.7841  0.0670
  963MOL0     C29908   6.644  -0.031   1.679 -0.8672 -0.0879  0.3868
  963MOL0     C29909   6.780  -0.094   1.720 -0.8028 -0.7041 -0.2791
  963MOL0     C29910   6.763  -0.193   1.836  0.5914  0.1067  0.3385
  963MOL0     C29911   6.893  -0.269   1.868  0.6397 -0.0721  0.2127
  963MOL0     C29912   6.940  -0.367   1.766 -0.7136 -0.5649 -0.9870
  963MOL0     C29913   7.076  -0.433   1.802 -0.4740 -0.1825  0.5842
  963MOL0     C29914   7.142  -0.512   1.682 -0.6384  0.1398 -0.3891
  963MOL0    Cl29915   7.064  -0.678   1.656 -0.5125 -0.3883 -0.0851
  963MOL0     C29916   6.431   0.131   1.331 -0.4596 -0.2970  0.4788
  963MOL0     C29917   6.431   0.176   1.192 -0.7858  0.5565 -0.4816
  963MOL0     O29918   6.750   0.173   0.967 -0.0551  0.0797  0.0665
  963MOL0     C29919   6.577   0.431   0.789 -0.6628 -0.4695  0.1655
  963MOL0     C29920   6.591   0.519   0.680 -0.3737  0.3243 -0.8316
  963MOL0     N29921   6.924   1.061   0.210 -0.2329 -0.1332  0.5930
  963MOL0     N29922   6.942   1.181   0.268 -0.5217  0.3673 -0.6106
  963MOL0     C29923   7.051   2.260   1.062 -0.3071 -0.5778  0.7789
  963MOL0     C29924   6.971   2.372   1.097  0.1062  0.4366  0.2480
  963MOL0     C29925   6.695   2.626   1.252 -0.8320 -1.5651 -0.6924
  963MOL0     C29926   6.627   2.642   1.374 -0.1101  0.5227 -0.2269
  963MOL0     C29927   6.582   2.765   1.427 -0.6227 -0.1785 -1.0479
  963MOL0     C29928   6.604   2.884   1.359  0.3719  1.6807  0.4654
  963MOL0     O29929   6.554   2.997   1.421 -0.0084  0.7212 -0.1690
  963MOL0     C29930   6.598   3.130   1.394 -0.3952 -0.7350  1.0951
  963MOL0     C29931   6.737   3.163   1.463  0.3920 -0.5148  0.6209
  963MOL0     C29932   6.859   3.114   1.395 -0.7492 -0.0797 -0.1345
  963MOL0     C29933   6.994   3.158   1.460  0.2173  0.8390 -1.0192
  963MOL0     C29934   7.014   3.304   1.457 -0.7281  1.3434 -0.4687
  963MOL0     C29935   7.035   3.421   1.448 -1.0356 -0.6760 -1.0844
  963MOL0     C29936   6.672   2.879   1.240  0.1588 -0.3705 -0.0245
  963MOL0     C29937   6.711   2.756   1.182 -0.3754  0.4847  0.6094
  963MOL0     H29938   6.714   2.347   0.855 -1.0494  0.6440  0.1914
  963MOL0     H29939   6.861   2.153   0.800 -0.9041  0.4860  0.7916
  963MOL0     H29940   6.966   1.929   0.904  2.4326 -1.9189  0.7860
  963MOL0     H29941   7.000   2.018   0.746  0.6380  0.1769 -1.3327
  963MOL0     H29942   7.233   1.899   0.770 -1.2661  0.7786  0.2699
  963MOL0     H29943   7.189   1.838   0.933 -2.0264 -1.3484  1.0286
  963MOL0     H29944   6.990   1.704   0.830 -0.1950  0.4126 -0.0689
  963MOL0     H29945   7.033   1.765   0.676 -2.8579  0.8817  1.0975
  963MOL0     H29946   7.272   1.646   0.702  0.3050 -2.0278 -0.0878
  963MOL0     H29947   7.202   1.593   0.863  1.0128  4.0105  0.3876
  963MOL0     H29948   7.229   1.407   0.721 -1.9305 -1.6496 -1.4955
  963MOL0     H29949   7.072   1.437   0.754  1.4682  0.4035  1.5265
  963MOL0     H29950   7.032   1.536   0.522  1.2210  1.4136  2.1783
  963MOL0     H29951   7.192   1.567   0.503 -0.8179  0.7170 -1.6195
  963MOL0     H29952   7.133   1.375   0.350 -0.1985 -1.7407 -0.4602
  963MOL0     H29953   7.209   1.280   0.486  1.4254  0.9010 -0.9473
  963MOL0     H29954   6.914   1.357   0.476 -0.0768 -0.1049 -1.6792
  963MOL0     H29955   6.992   1.240   0.589 -3.1240 -0.6419  0.0040
  963MOL0     H29956   7.030   0.993   0.515  0.5287 -0.4511 -0.4806
  963MOL0     H29957   7.007   0.800   0.186  2.4038 -0.2154  0.2942
  963MOL0     H29958   7.060   0.779   0.359 -0.5543 -1.3394  1.6892
  963MOL0     H29959   6.785   0.813   0.253  3.0275  1.3606 -1.5091
  963MOL0     H29960   6.832   0.794   0.424  1.2132  2.3060 -1.5279
  963MOL0     H29961   6.907   0.560   0.370  1.4407  1.5322  0.8672
  963MOL0     H29962   6.866   0.580   0.201  0.8243 -0.0467  0.7598
  963MOL0     H29963   6.677   0.455   0.324  1.2857  0.1516  0.8083
  963MOL0     H29964   6.628   0.614   0.279  1.1769  0.9305 -0.8617
  963MOL0     H29965   6.821   0.346   0.495 -0.6796  2.0435 -0.8777
  963MOL0     H29966   6.723   0.084   0.708  0.0196  0.2897  1.2788
  963MOL0     H29967   6.847   0.113   0.577  3.8755  2.2681 -0.1540
  963MOL0     H29968   6.886   0.126   0.751 -0.6514 -2.4251 -1.8696
  963MOL0     H29969   6.719   0.334   1.184 -1.5214  1.3473 -1.6891
  963MOL0     H29970   6.709   0.290   1.428  0.3005 -2.0207  2.9322
  963MOL0     H29971   6.722   0.054   1.506 -0.2556  0.2704 -0.7920
  963MOL0     H29972   6.699   0.173   1.643 -0.9629  0.5710 -1.0549
  963MOL0     H29973   6.601   0.007   1.772  1.7131 -0.2942  1.7595
  963MOL0     H29974   6.592  -0.105   1.619  2.8426 -2.1652 -0.5337
  963MOL0     H29975   6.841  -0.009   1.755  1.0281 -1.8029 -0.6778
  963MOL0     H29976   6.838  -0.129   1.635  3.2462 -3.1003  3.0870
  963MOL0     H29977   6.720  -0.137   1.920 -0.3472  0.8265 -0.6030
  963MOL0     H29978   6.696  -0.269   1.795  2.4389 -0.5093 -1.7304
  963MOL0     H29979   6.874  -0.325   1.960 -1.9607  2.2749  1.2650
  963MOL0     H29980   6.968  -0.191   1.883 -0.6099  1.5813 -1.6246
  963MOL0     H29981   6.875  -0.454   1.748  0.2655 -1.1133 -1.9761
  963MOL0     H29982   6.952  -0.312   1.672 -0.7703 -0.0678 -0.7053
  963MOL0     H29983   7.062  -0.486   1.896 -3.9441  0.5005  0.5863
  963MOL0     H29984   7.149  -0.356   1.826  1.5399 -2.0975  0.8857
  963MOL0     H29985   7.244  -0.539   1.711 -0.9007 -1.7110 -1.0994
  963MOL0     H29986   7.162  -0.456   1.590  1.2221 -0.4701 -0.4047
  963MOL0     H29987   6.353   0.061   1.358  0.5893 -1.7086 -0.0010
  963MOL0     H29988   6.351   0.145   1.125 -2.1735  2.4516  0.2041
  963MOL0     H29989   6.530   0.467   0.880  1.5115  3.4308  0.0127
  963MOL0     H29990   6.533   0.611   0.686 -1.4004 -0.3299 -0.4388
  963MOL0     H29991   7.138   2.234   1.122  0.6808  0.9989  0.0972
  963MOL0     H29992   6.998   2.418   1.192  0.5169 -0.3586  0.5215
  963MOL0     H29993   6.608   2.551   1.429  0.2149 -0.2907 -1.4163
  963MOL0     H29994   6.529   2.775   1.521 -0.3869  2.9680 -1.1546
  963MOL0     H29995   6.609   3.150   1.287  2.7029 -0.4503  1.3895
  963MOL0     H29996   6.517   3.198   1.423 -2.4374 -2.6683  0.2036
  963MOL0     H29997   6.734   3.118   1.563 -1.6235 -3.3629 -0.5895
  963MOL0     H29998   6.735   3.272   1.470  1.9689  0.3931 -6.2672
  963MOL0     H29999   6.854   3.158   1.295 -0.3891 -1.6500 -0.8832
  963MOL0     H30000   6.852   3.005   1.387  0.9792 -0.2596  0.3222
  963MOL0     H30001   7.071   3.115   1.395 -2.0829 -0.7918 -2.8520
  963MOL0     H30002   6.990   3.118   1.561  2.1539 -1.6246 -1.8113
  963MOL0     H30003   7.038   3.525   1.473  0.1277 -1.0314  0.3750
  963MOL0     H30004   6.682   2.974   1.189 -1.1191 -1.2481 -2.0417
  963MOL0     H30005   6.753   2.762   1.083  0.2614 -1.5639  0.7183
  964MOL0     O30006   9.275   2.113   3.204 -0.5973  0.6677  0.1409
  964MOL0     C30007   9.236   2.129   3.084  0.7797 -0.2057 -1.0155
  964MOL0     O30008   9.317   2.129   2.971 -0.5154  0.5433  0.6692
  964MOL0     C30009   9.455   2.110   2.993 -0.3681  0.3859  0.3138
  964MOL0     C30010   9.513   1.982   2.998 -0.5396  0.5886  0.0014
  964MOL0     C30011   9.642   1.960   3.029 -0.1844  0.3446 -0.4459
  964MOL0     C30012   9.731   2.064   3.049 -0.3167 -0.0069 -0.3610
  964MOL0     O30013   9.863   2.036   3.075 -0.4418 -0.0887 -0.0838
  964MOL0     C30014   9.951   2.143   3.054 -0.1539  0.0959 -0.2751
  964MOL0     C30015  10.092   2.079   3.057 -0.0823 -1.0025  0.3501
  964MOL0     C30016  10.208   2.173   3.040 -0.4174 -0.0788 -0.2730
  964MOL0     C30017  10.217   2.272   3.157 -0.0375 -0.4697 -0.2192
  964MOL0     C30018  10.323   2.228   3.250  0.7182  0.1201  0.1456
  964MOL0     C30019  10.326   2.297   3.390  0.1578 -0.6636 -0.7475
  964MOL0     C30020  10.466   2.302   3.459  0.4056  0.1831 -0.7122
  964MOL0     C30021  10.470   2.367   3.599  0.2465  0.5086  0.1172
  964MOL0     N30022  10.472   2.516   3.599  0.0688  0.8211  0.8472
  964MOL0     C30023  10.376   2.610   3.617  0.8507 -0.8830  0.1766
  964MOL0     C30024  10.424   2.733   3.585  0.1377 -0.1581  1.3180
  964MOL0     C30025  10.343   2.867   3.587 -0.1863 -0.0432 -0.0518
  964MOL0     C30026  10.296   2.934   3.453 -0.1692 -0.2236  0.5406
  964MOL0     C30027  10.246   2.841   3.339 -0.1117  0.0457  0.0163
  964MOL0     C30028  10.148   2.727   3.387  0.4165 -0.3192  0.0500
  964MOL0     O30029  10.014   2.750   3.343  0.8682 -0.3326 -0.8051
  964MOL0     C30030   9.978   2.683   3.233 -0.0616  0.5033  0.1011
  964MOL0     C30031   9.841   2.656   3.219  1.0770 -0.0314 -0.8668
  964MOL0     C30032   9.781   2.605   3.110  0.2775  0.4552 -0.2132
  964MOL0     C30033   9.628   2.592   3.111 -0.1982 -0.0435 -0.0609
  964MOL0     C30034   9.866   2.566   3.003 -0.2344  0.1618 -0.4473
  964MOL0     C30035   9.822   2.504   2.870 -0.1774  0.4391 -0.9927
  964MOL0     O30036   9.911   2.478   2.781 -0.4067 -0.5490  0.3545
  964MOL0     C30037   9.886   2.454   2.643 -0.3933  0.0031 -0.0819
  964MOL0     C30038   9.885   2.560   2.550 -0.5145  0.3558  0.3613
  964MOL0     C30039   9.811   2.538   2.428  0.5791 -0.8542 -0.3285
  964MOL0     C30040   9.773   2.407   2.385 -0.4165  1.4441  0.2992
  964MOL0     O30041   9.710   2.413   2.266 -0.1658  0.7192  0.3900
  964MOL0     C30042   9.670   2.283   2.210  0.3237  0.6135  0.1197
  964MOL0     C30043   9.586   2.298   2.083 -0.0747 -0.2962 -0.0898
  964MOL0     C30044   9.593   2.184   1.976  0.1869  0.5536  0.5666
  964MOL0     C30045   9.556   2.237   1.834  0.1342  0.8308 -0.0619
  964MOL0     C30046   9.403   2.252   1.803 -0.7528 -0.1296 -1.0717
  964MOL0     C30047   9.386   2.338   1.680  1.2271  0.2251 -0.2571
  964MOL0     C30048   9.247   2.397   1.667  0.4461 -0.1842 -0.5202
  964MOL0     C30049   9.129   2.298   1.632  0.3003 -0.4053  1.1832
  964MOL0    Cl30050   9.052   2.322   1.476  0.0431 -0.0468  0.2275
  964MOL0     C30051   9.813   2.297   2.469  0.1888 -0.1579  0.5199
  964MOL0     C30052   9.864   2.323   2.596 -0.5061 -0.4204  0.0603
  964MOL0     O30053   9.705   2.454   2.871 -0.7071 -0.5594  0.2099
  964MOL0     C30054  10.006   2.575   3.014 -0.6076  0.1936  0.7267
  964MOL0     C30055  10.063   2.631   3.129 -1.0290  0.3583 -0.4918
  964MOL0     N30056  10.561   2.718   3.543  0.4006  0.0727  0.2513
  964MOL0     N30057  10.584   2.593   3.562  0.0716  0.6289  1.3584
  964MOL0     C30058   9.677   2.197   3.048 -0.0249  0.9857  0.0249
  964MOL0     C30059   9.542   2.216   3.012  1.3456  1.1747 -0.3097
  964MOL0     C30060   9.086   2.132   3.059 -0.3736  0.0614 -0.1682
  964MOL0     C30061   9.046   2.125   2.932 -0.0932  0.0945  1.0110
  964MOL0     C30062   8.913   2.125   2.898 -0.0269  0.6825 -0.4239
  964MOL0     C30063   8.812   2.155   2.993 -0.1182  0.2493 -0.2111
  964MOL0     O30064   8.674   2.159   2.962 -0.7683 -0.0749 -0.4201
  964MOL0     C30065   8.615   2.031   2.962 -0.0362 -0.4420 -0.2158
  964MOL0     C30066   8.468   2.038   2.944  0.7607 -0.0288 -0.1198
  964MOL0     C30067   8.411   2.124   3.061  0.7664 -0.4972 -0.1794
  964MOL0     C30068   8.263   2.119   3.067 -0.1070  0.2177  0.6052
  964MOL0     C30069   8.222   1.984   3.116  0.3326  0.3508 -0.6652
  964MOL0     C30070   8.184   1.873   3.145  0.3417  0.2385 -0.0380
  964MOL0     C30071   8.846   2.154   3.122 -0.1014 -0.0135 -0.4342
  964MOL0     C30072   8.984   2.137   3.155 -0.6570 -0.5969 -0.0823
  964MOL0     H30073   9.451   1.895   2.977 -1.0238  1.1043 -0.7835
  964MOL0     H30074   9.684   1.861   3.011  2.5527  0.8204  2.4462
  964MOL0     H30075   9.952   2.192   2.956  0.2001  0.6660  0.0102
  964MOL0     H30076   9.938   2.208   3.140 -0.8675  0.8813 -0.9539
  964MOL0     H30077  10.093   2.014   3.145  2.4011 -2.4475 -0.6211
  964MOL0     H30078  10.097   2.000   2.981 -0.5292 -1.0620  0.3818
  964MOL0     H30079  10.303   2.124   3.017 -0.0676  0.0836  0.7725
  964MOL0     H30080  10.192   2.222   2.943  0.6911  1.3014  0.2051
  964MOL0     H30081  10.245   2.366   3.108  3.7805 -2.0042 -1.3400
  964MOL0     H30082  10.126   2.280   3.217 -0.7038 -1.3844 -1.0756
  964MOL0     H30083  10.307   2.122   3.275 -1.6851  0.7603  1.6954
  964MOL0     H30084  10.417   2.243   3.197  0.8280 -0.1039  0.2746
  964MOL0     H30085  10.285   2.399   3.394 -2.9036 -1.6357  5.3796
  964MOL0     H30086  10.258   2.238   3.452 -0.2987  0.8335  0.2521
  964MOL0     H30087  10.505   2.202   3.479 -0.2545  0.3693  1.7858
  964MOL0     H30088  10.538   2.359   3.399  2.4614 -3.0546 -1.5563
  964MOL0     H30089  10.558   2.347   3.660  0.5822  4.6110  1.2342
  964MOL0     H30090  10.381   2.332   3.652  0.7679  1.7775  1.9098
  964MOL0     H30091  10.275   2.584   3.646  1.1156  0.9493  3.1541
  964MOL0     H30092  10.263   2.862   3.662  1.6770  0.1846  2.0758
  964MOL0     H30093  10.413   2.935   3.636 -0.8355 -0.5219  1.6346
  964MOL0     H30094  10.388   2.972   3.408  0.2350 -1.7021  0.0751
  964MOL0     H30095  10.221   3.011   3.476 -0.3451 -0.1072 -0.3850
  964MOL0     H30096  10.328   2.787   3.291  1.7036  0.3834  2.5318
  964MOL0     H30097  10.194   2.905   3.267 -0.9136 -0.4880  0.1087
  964MOL0     H30098  10.150   2.730   3.497  4.2382  2.2852  0.0987
  964MOL0     H30099  10.192   2.631   3.357 -0.5331 -0.1702 -1.9601
  964MOL0     H30100   9.790   2.691   3.308  1.3125  0.0484 -0.7616
  964MOL0     H30101   9.584   2.493   3.129 -1.0811 -0.1642 -2.4299
  964MOL0     H30102   9.583   2.663   3.181 -1.7647  1.8067 -2.7540
  964MOL0     H30103   9.586   2.628   3.016 -1.3131  0.0219  0.4391
  964MOL0     H30104   9.924   2.658   2.577 -2.0283  0.7715  1.1289
  964MOL0     H30105   9.788   2.624   2.366  1.6784  0.7108  1.2971
  964MOL0     H30106   9.756   2.220   2.190 -0.7374  0.0991 -3.4027
  964MOL0     H30107   9.605   2.237   2.285 -0.1873  1.3305  0.1264
  964MOL0     H30108   9.483   2.320   2.111  0.1727  6.0153 -2.5297
  964MOL0     H30109   9.613   2.396   2.041 -1.0553  2.5812  5.1010
  964MOL0     H30110   9.528   2.102   2.009  0.9749 -0.7128 -0.8874
  964MOL0     H30111   9.696   2.148   1.966 -0.4710 -0.8704 -1.7173
  964MOL0     H30112   9.611   2.329   1.818  0.7009  0.7356  1.2274
  964MOL0     H30113   9.595   2.163   1.763 -1.7088  0.3813 -0.6680
  964MOL0     H30114   9.361   2.294   1.895  0.5655 -0.1258 -0.4437
  964MOL0     H30115   9.378   2.147   1.785  2.3061 -1.5826  1.9352
  964MOL0     H30116   9.459   2.419   1.674 -0.8894  2.2226 -0.3261
  964MOL0     H30117   9.399   2.275   1.591 -2.9847 -2.5670  0.8201
  964MOL0     H30118   9.247   2.479   1.594 -3.6975  0.8531  0.3488
  964MOL0     H30119   9.220   2.430   1.768  0.1349 -1.6661 -0.1046
  964MOL0     H30120   9.055   2.304   1.713 -0.2854  0.4555  0.6000
  964MOL0     H30121   9.164   2.194   1.632 -3.5443 -2.0690 -3.3113
  964MOL0     H30122   9.815   2.199   2.422  0.2667 -1.4430  3.0250
  964MOL0     H30123   9.908   2.246   2.658 -0.5213 -0.1864  0.3653
  964MOL0     H30124  10.083   2.555   2.941 -1.4981  1.3414 -0.5868
  964MOL0     H30125  10.171   2.639   3.125 -0.6931 -3.0799 -2.0317
  964MOL0     H30126   9.732   2.289   3.067  4.3006 -1.4835  0.8187
  964MOL0     H30127   9.502   2.313   2.984 -1.5054  0.1418 -0.1158
  964MOL0     H30128   9.110   2.120   2.845 -2.6428  0.3219 -0.9799
  964MOL0     H30129   8.896   2.097   2.795  2.1502 -1.2796 -0.3367
  964MOL0     H30130   8.661   1.967   2.885  0.3274 -0.8426  0.3283
  964MOL0     H30131   8.649   1.978   3.052 -0.3042  1.5767  1.1271
  964MOL0     H30132   8.434   1.934   2.954  0.5956  0.0928  0.6403
  964MOL0     H30133   8.435   2.075   2.846 -2.6838  1.0700  1.3268
  964MOL0     H30134   8.436   2.229   3.048 -1.9257  0.5615  2.1095
  964MOL0     H30135   8.447   2.090   3.159 -1.3643 -0.3568  0.7192
  964MOL0     H30136   8.220   2.137   2.968  0.7715 -0.7531  0.0363
  964MOL0     H30137   8.229   2.205   3.127 -1.5656  1.0150 -1.2676
  964MOL0     H30138   8.147   1.773   3.150  2.1064 -0.3884  1.3771
  964MOL0     H30139   8.765   2.161   3.194  0.4753 -1.4836  0.4152
  964MOL0     H30140   9.011   2.146   3.259 -3.7630  2.5408  0.6391
  965MOL0     O30141   9.520   9.725   6.879 -0.2575 -0.0562 -0.0890
  965MOL0     C30142   9.492   9.630   6.944 -0.3588  0.7455 -0.3794
  965MOL0     O30143   9.581   9.586   7.039  0.0484 -0.6340  0.3151
  965MOL0     C30144   9.672   9.660   7.111 -0.0148 -1.3129  0.5211
  965MOL0     C30145   9.630   9.760   7.201  0.0486 -0.0908  0.0353
  965MOL0     C30146   9.715   9.824   7.287  0.8622 -0.1599  0.3816
  965MOL0     C30147   9.854   9.807   7.280 -0.5328  0.7844 -0.3357
  965MOL0     O30148   9.953   9.874   7.353  0.3123 -0.4461  0.3293
  965MOL0     C30149   9.895   9.934   7.475 -0.4966  0.0438 -0.1137
  965MOL0     C30150  10.011  10.009   7.545 -1.7639  0.4065  0.7418
  965MOL0     C30151  10.129   9.920   7.584 -0.9697  0.2189  0.0059
  965MOL0     C30152  10.097   9.810   7.674 -0.0749 -0.2053 -0.2312
  965MOL0     C30153  10.205   9.705   7.707 -0.8002 -0.6627 -0.3102
  965MOL0     C30154  10.160   9.607   7.813  0.3854  0.1137  0.7292
  965MOL0     C30155  10.085   9.484   7.747  0.0841 -0.6438 -0.2375
  965MOL0     C30156  10.059   9.371   7.847  0.6212 -1.2377  0.1901
  965MOL0     N30157   9.976   9.265   7.788 -0.3600 -0.3303  0.7622
  965MOL0     C30158  10.014   9.189   7.681 -0.4086  0.0582  0.8400
  965MOL0     C30159   9.923   9.090   7.667  0.2807  0.0464 -0.0857
  965MOL0     C30160   9.896   8.998   7.561 -0.7590 -0.5805  0.2671
  965MOL0     C30161  10.019   9.000   7.456  0.0326 -0.2912  0.2502
  965MOL0     C30162  10.143   8.913   7.476 -0.2333 -0.7396  0.6304
  965MOL0     C30163  10.130   8.811   7.587  0.0503  1.2437 -0.4895
  965MOL0     O30164  10.140   8.868   7.722  0.6919 -0.0486  0.2261
  965MOL0     C30165  10.131   8.781   7.827 -0.5685  0.0954  0.0473
  965MOL0     C30166  10.241   8.715   7.879  0.2917 -0.2523  0.6054
  965MOL0     C30167  10.232   8.651   8.011  0.5125 -0.1739  0.0080
  965MOL0     C30168  10.353   8.572   8.057  0.0155 -0.8388 -0.6198
  965MOL0     C30169  10.105   8.637   8.081 -0.8923  0.2411  0.5915
  965MOL0     C30170  10.076   8.551   8.197 -1.0984  0.6119 -0.0335
  965MOL0     O30171  10.158   8.442   8.229  0.2574  0.2395  0.1721
  965MOL0     C30172  10.153   8.368   8.339 -1.0700  0.1326 -0.5666
  965MOL0     C30173  10.031   8.330   8.395  0.3308 -0.1695  0.5218
  965MOL0     C30174  10.026   8.256   8.509 -0.7679 -0.7165  0.4989
  965MOL0     C30175  10.144   8.227   8.570 -0.3830  0.4748 -1.0253
  965MOL0     O30176  10.167   8.140   8.686  0.4651 -0.4469 -0.4369
  965MOL0     C30177  10.059   8.150   8.787 -0.8135 -0.5334  0.4443
  965MOL0     C30178  10.101   8.059   8.900  0.2382 -0.5907 -0.0421
  965MOL0     C30179  10.154   8.131   9.022  0.6273 -0.2958  0.0056
  965MOL0     C30180  10.304   8.139   9.017  0.2929  0.4955 -0.2817
  965MOL0     C30181  10.352   8.224   9.137  0.9335  0.7868  0.5131
  965MOL0     C30182  10.361   8.148   9.270 -0.1082  0.2163  0.5532
  965MOL0     C30183  10.457   8.210   9.374  0.0596  0.5332  0.7137
  965MOL0     C30184  10.479   8.127   9.495 -0.0591 -0.4632  0.0624
  965MOL0    Cl30185  10.575   7.987   9.445 -0.7086 -0.1368  0.1248
  965MOL0     C30186  10.267   8.266   8.508 -0.6577  0.6978 -0.0898
  965MOL0     C30187  10.274   8.326   8.389 -1.1230  0.6011  0.5357
  965MOL0     O30188   9.987   8.590   8.265 -0.0324 -0.9460 -0.4047
  965MOL0     C30189  10.001   8.711   8.027 -0.0346 -0.7196  0.1280
  965MOL0     C30190  10.014   8.785   7.906 -0.0308 -0.2102 -0.7196
  965MOL0     N30191   9.826   9.120   7.767  0.0729 -0.0792  0.3773
  965MOL0     N30192   9.862   9.218   7.845  0.5910  0.5344  0.0009
  965MOL0     C30193   9.904   9.711   7.190  0.8719  0.9586 -0.0156
  965MOL0     C30194   9.813   9.645   7.101  0.2606 -0.6713 -0.1021
  965MOL0     C30195   9.384   9.538   6.896 -0.3047  0.2764 -0.1578
  965MOL0     C30196   9.329   9.553   6.769  0.3763 -0.3100 -0.1777
  965MOL0     C30197   9.230   9.459   6.727 -0.3508  0.5713  0.0029
  965MOL0     C30198   9.179   9.367   6.816 -0.2848 -0.4437 -0.1977
  965MOL0     O30199   9.069   9.285   6.797  0.4916 -0.0104 -0.4761
  965MOL0     C30200   8.993   9.284   6.679 -1.2800 -0.6246  0.5029
  965MOL0     C30201   8.885   9.174   6.710 -0.3422 -0.4974  0.3209
  965MOL0     C30202   8.915   9.034   6.652  0.1850 -0.6705 -0.4489
  965MOL0     C30203   8.852   9.017   6.516 -0.2485  0.3028 -1.0178
  965MOL0     C30204   8.708   9.014   6.510  0.3270  0.8426  0.0842
  965MOL0     C30205   8.589   9.019   6.514  0.2030  1.4611 -0.0497
  965MOL0     C30206   9.235   9.352   6.945 -1.2015 -1.0046 -0.0138
  965MOL0     C30207   9.344   9.437   6.979  0.3069  0.3978  0.5469
  965MOL0     H30208   9.524   9.775   7.215 -0.7184 -0.3002 -4.1394
  965MOL0     H30209   9.662   9.884   7.360 -0.4839  0.0797 -0.7418
  965MOL0     H30210   9.821  10.011   7.454  2.0246  3.2402  1.7632
  965MOL0     H30211   9.855   9.862   7.547 -0.1360  0.7443  0.8111
  965MOL0     H30212  10.055  10.083   7.478  0.2764 -2.4089 -1.2594
  965MOL0     H30213   9.964  10.041   7.638 -2.9461 -0.9261  0.6517
  965MOL0     H30214  10.189   9.888   7.499  0.2126  1.2121  0.4318
  965MOL0     H30215  10.193   9.989   7.640  0.9466 -2.7765  1.7564
  965MOL0     H30216  10.071   9.854   7.771 -0.4462  1.9818 -1.2656
  965MOL0     H30217  10.014   9.750   7.635  0.7529 -1.2097 -0.4876
  965MOL0     H30218  10.209   9.643   7.617 -1.9278  0.8225 -1.4414
  965MOL0     H30219  10.302   9.746   7.737 -1.3649 -0.8535  1.9339
  965MOL0     H30220  10.245   9.574   7.874  2.2414  0.5277 -1.5128
  965MOL0     H30221  10.089   9.657   7.881 -1.2396  1.1393 -1.5969
  965MOL0     H30222   9.997   9.529   7.701  2.7368  2.3632 -2.8336
  965MOL0     H30223  10.141   9.441   7.664  1.8931 -1.5825  1.3891
  965MOL0     H30224  10.000   9.403   7.933 -1.7230 -3.5150 -0.4442
  965MOL0     H30225  10.155   9.340   7.888  1.6005  2.5198  1.1079
  965MOL0     H30226  10.099   9.205   7.615 -0.6537 -2.5552 -0.2165
  965MOL0     H30227   9.895   8.898   7.603  1.2926 -1.0865 -0.7424
  965MOL0     H30228   9.801   9.027   7.514  0.9815  3.3402 -1.3190
  965MOL0     H30229  10.049   9.104   7.440 -3.4605  0.5187 -2.1148
  965MOL0     H30230   9.979   8.977   7.357  0.3098 -3.1326  0.7099
  965MOL0     H30231  10.241   8.962   7.481  0.2403 -1.7651  1.6140
  965MOL0     H30232  10.144   8.848   7.388  1.9988  0.8219 -0.6170
  965MOL0     H30233  10.220   8.749   7.589 -0.1039  1.0287 -0.1093
  965MOL0     H30234  10.041   8.748   7.585  3.8277 -4.8415 -0.2167
  965MOL0     H30235  10.330   8.731   7.819 -0.2124  1.1667  0.1934
  965MOL0     H30236  10.445   8.571   7.998  1.3842 -3.0722  1.3467
  965MOL0     H30237  10.373   8.618   8.154  3.3882 -0.2095 -1.4964
  965MOL0     H30238  10.344   8.464   8.066 -1.8187 -0.6635  0.1806
  965MOL0     H30239   9.942   8.382   8.361 -0.2643  0.1381  2.4427
  965MOL0     H30240   9.928   8.227   8.546 -0.9144 -2.6093 -1.2313
  965MOL0     H30241  10.039   8.255   8.812  0.1476 -0.3617  0.5214
  965MOL0     H30242   9.962   8.121   8.745  0.2609 -0.8347 -1.9645
  965MOL0     H30243  10.009   8.015   8.939  0.3497 -2.0712 -1.3496
  965MOL0     H30244  10.167   7.980   8.862  0.7197 -0.0100 -0.4246
  965MOL0     H30245  10.120   8.073   9.108 -1.1781 -0.2107 -0.6131
  965MOL0     H30246  10.113   8.232   9.031  0.9633 -0.1124 -0.4422
  965MOL0     H30247  10.341   8.036   9.012 -0.4114  0.2967 -2.5168
  965MOL0     H30248  10.336   8.184   8.923  1.8364  2.5097  1.1159
  965MOL0     H30249  10.279   8.304   9.155 -2.3502 -1.3967 -2.0175
  965MOL0     H30250  10.452   8.266   9.118  0.6927  1.4552  0.6870
  965MOL0     H30251  10.262   8.128   9.313  0.1184 -1.8273  0.2571
  965MOL0     H30252  10.388   8.044   9.248 -0.8930  0.5779 -2.6735
  965MOL0     H30253  10.411   8.305   9.403 -1.8861 -1.0944  3.4562
  965MOL0     H30254  10.554   8.231   9.329  0.4425 -3.5671 -0.7519
  965MOL0     H30255  10.386   8.110   9.550 -1.9861  0.5252 -2.7018
  965MOL0     H30256  10.540   8.183   9.566  2.0814 -1.5168 -0.8612
  965MOL0     H30257  10.361   8.246   8.558 -1.0514  0.9965  0.8088
  965MOL0     H30258  10.360   8.377   8.347 -0.7000  0.6474  1.4444
  965MOL0     H30259   9.912   8.723   8.089 -0.8901 -0.1857 -1.1633
  965MOL0     H30260   9.927   8.845   7.886  0.1612  0.1541 -0.4742
  965MOL0     H30261  10.010   9.692   7.181  0.5644 -0.6637 -0.5571
  965MOL0     H30262   9.845   9.578   7.022 -1.0399  0.0857 -1.3163
  965MOL0     H30263   9.363   9.628   6.700  1.1382  0.7062  1.2486
  965MOL0     H30264   9.201   9.473   6.623 -3.5336  1.4542  0.9043
  965MOL0     H30265   8.959   9.387   6.666 -0.7431 -0.3194  1.4589
  965MOL0     H30266   9.049   9.253   6.591 -0.6198 -0.8914  1.0135
  965MOL0     H30267   8.790   9.210   6.670 -1.0828 -3.8803 -1.3221
  965MOL0     H30268   8.870   9.166   6.818 -1.5808 -0.8295  0.1305
  965MOL0     H30269   8.873   8.966   6.726  0.8401  1.1283  1.6858
  965MOL0     H30270   9.023   9.021   6.663  0.7209  4.0920  3.2627
  965MOL0     H30271   8.877   8.926   6.460 -1.2076 -0.8177  0.3250
  965MOL0     H30272   8.884   9.103   6.456 -0.1722  2.4359  1.8825
  965MOL0     H30273   8.485   9.014   6.538  0.7275 -3.0737  2.6196
  965MOL0     H30274   9.203   9.264   7.000  1.0506 -1.0037  1.4361
  965MOL0     H30275   9.397   9.424   7.073  3.9216 -1.3485 -1.5011
  966MOL0     O30276   7.786   3.217   6.956 -0.1281  0.3445  0.4122
  966MOL0     C30277   7.871   3.135   6.961  0.3009  0.8897 -0.2255
  966MOL0     O30278   7.854   3.012   7.012  0.1187 -0.1278  0.6058
  966MOL0     C30279   7.731   2.954   7.007  0.1409  0.6524 -0.4840
  966MOL0     C30280   7.712   2.841   7.084  0.7597 -0.0884  0.3495
  966MOL0     C30281   7.585   2.793   7.102  0.2831  0.7872  0.1952
  966MOL0     C30282   7.477   2.835   7.033 -0.3643 -0.5926  0.0328
  966MOL0     O30283   7.362   2.768   7.062  0.0563 -0.4082 -0.4641
  966MOL0     C30284   7.245   2.833   7.018 -0.4932  0.4727 -0.0141
  966MOL0     C30285   7.117   2.774   7.064 -0.2232 -0.3159 -0.0584
  966MOL0     C30286   7.078   2.800   7.205 -0.2281  0.3400  0.0462
  966MOL0     C30287   6.931   2.751   7.238 -0.1081 -0.5549 -0.7356
  966MOL0     C30288   6.880   2.804   7.383 -0.2189 -0.2259  0.4958
  966MOL0     C30289   6.741   2.744   7.417  0.1602 -0.4338 -0.1478
  966MOL0     C30290   6.621   2.802   7.331 -0.5019 -0.1245 -0.2106
  966MOL0     C30291   6.511   2.874   7.418  0.7236 -0.2213 -0.3594
  966MOL0     N30292   6.396   2.928   7.337 -0.2177 -0.3958  0.7168
  966MOL0     C30293   6.347   2.876   7.221 -0.0470  0.4935  0.4265
  966MOL0     C30294   6.254   2.961   7.172 -0.3448 -0.4345  1.1513
  966MOL0     C30295   6.166   2.943   7.049 -1.1584 -0.4034  0.1864
  966MOL0     C30296   6.011   2.913   7.078 -1.0803  0.2771  0.6302
  966MOL0     C30297   5.930   3.014   7.165  0.3172  0.3644  0.3540
  966MOL0     C30298   5.940   3.151   7.104  0.0963 -0.6924  0.2587
  966MOL0     O30299   5.932   3.171   6.959  0.2151 -0.3109  1.0012
  966MOL0     C30300   5.956   3.296   6.909 -0.7720  0.0657 -0.2252
  966MOL0     C30301   5.943   3.418   6.982 -0.5628  0.1033 -0.7535
  966MOL0     C30302   5.985   3.538   6.935  0.9760  0.4368 -0.1559
  966MOL0     C30303   5.957   3.665   7.025 -0.6686 -0.4788  0.0802
  966MOL0     C30304   6.000   3.550   6.799 -0.7229  0.1308  0.4769
  966MOL0     C30305   6.029   3.673   6.732  0.2637 -0.5746 -1.2353
  966MOL0     O30306   6.010   3.676   6.593 -0.8692 -1.2828 -0.6457
  966MOL0     C30307   6.068   3.784   6.526  0.1432 -0.1054  0.0115
  966MOL0     C30308   6.207   3.771   6.499  0.3292 -0.6550 -0.0472
  966MOL0     C30309   6.272   3.869   6.412 -0.1548 -0.3129  0.0155
  966MOL0     C30310   6.203   3.974   6.349  0.3290  0.1733 -0.0629
  966MOL0     O30311   6.260   4.062   6.265 -0.4877  0.2055  0.0875
  966MOL0     C30312   6.373   4.134   6.314  0.4850 -0.2330  0.1596
  966MOL0     C30313   6.407   4.261   6.245  0.0006  0.7392 -0.7103
  966MOL0     C30314   6.477   4.247   6.116 -0.4465 -0.7596  0.2222
  966MOL0     C30315   6.565   4.376   6.076  0.3865  0.6422  0.4521
  966MOL0     C30316   6.714   4.377   6.130  0.3337 -0.1838 -0.6823
  966MOL0     C30317   6.811   4.265   6.106 -0.0497  0.0614 -0.0799
  966MOL0     C30318   6.817   4.225   5.959  0.1021 -0.4080  1.0000
  966MOL0     C30319   6.867   4.344   5.873 -0.3148 -0.7683 -0.0942
  966MOL0    Cl30320   7.000   4.439   5.943 -0.0758  0.2565 -0.1738
  966MOL0     C30321   6.066   3.987   6.382 -0.5218  0.5666 -0.3774
  966MOL0     C30322   6.001   3.896   6.469 -0.3611  0.3337 -0.1841
  966MOL0     O30323   6.083   3.761   6.794 -0.7954  0.3311  0.1229
  966MOL0     C30324   5.987   3.439   6.717 -0.3736 -0.0972  0.0031
  966MOL0     C30325   5.966   3.307   6.771 -0.3492  0.6735 -0.4367
  966MOL0     N30326   6.257   3.071   7.255 -0.1427  0.1174 -0.4093
  966MOL0     N30327   6.332   3.049   7.357 -0.0986 -0.6417 -0.1770
  966MOL0     C30328   7.491   2.940   6.941 -1.4187  0.2734 -0.7510
  966MOL0     C30329   7.618   3.002   6.937  0.6544 -1.5996  0.2234
  966MOL0     C30330   7.997   3.165   6.901  0.1144  0.4564  0.6070
  966MOL0     C30331   8.010   3.271   6.811  0.4019 -0.2489  0.5310
  966MOL0     C30332   8.131   3.306   6.744 -0.4722  0.8209  0.3550
  966MOL0     C30333   8.249   3.229   6.768  0.1374  0.8643  0.2429
  966MOL0     O30334   8.363   3.242   6.692  0.4285 -0.0215 -0.0527
  966MOL0     C30335   8.392   3.367   6.627 -0.0939 -0.1457 -0.4206
  966MOL0     C30336   8.404   3.484   6.723  0.0652 -0.1401  0.6784
  966MOL0     C30337   8.381   3.622   6.656 -0.4334 -0.3838 -0.2535
  966MOL0     C30338   8.342   3.731   6.757 -0.2312  0.2808 -0.4117
  966MOL0     C30339   8.320   3.858   6.698 -0.9416 -0.2452  1.2006
  966MOL0     C30340   8.290   3.969   6.656  0.6645  0.7472 -0.6629
  966MOL0     C30341   8.234   3.118   6.852 -0.6587 -0.3506  0.2583
  966MOL0     C30342   8.119   3.092   6.926 -0.3203  0.2128 -1.0867
  966MOL0     H30343   7.781   2.785   7.147  1.3744  2.0813  1.7522
  966MOL0     H30344   7.574   2.709   7.169  1.4250 -0.4004 -1.0673
  966MOL0     H30345   7.239   2.941   7.036 -0.1499  0.6027 -0.6421
  966MOL0     H30346   7.255   2.830   6.909  1.2471  2.0718  0.0530
  966MOL0     H30347   7.041   2.820   6.999  0.6493  2.4096  0.6911
  966MOL0     H30348   7.125   2.665   7.056 -0.1994 -0.2706 -0.7067
  966MOL0     H30349   7.150   2.738   7.259  2.2014 -0.8455 -4.1327
  966MOL0     H30350   7.084   2.906   7.232 -1.0030  0.2602  0.5514
  966MOL0     H30351   6.849   2.770   7.168 -0.8991 -1.1056  0.0255
  966MOL0     H30352   6.949   2.643   7.242  2.0484 -0.2077  0.1690
  966MOL0     H30353   6.958   2.773   7.453  0.0946 -0.2452  0.1457
  966MOL0     H30354   6.877   2.913   7.371 -3.6287 -0.4250 -2.0538
  966MOL0     H30355   6.753   2.638   7.395 -4.2191 -1.4070  1.3203
  966MOL0     H30356   6.717   2.747   7.523  0.2145 -2.0981 -0.0649
  966MOL0     H30357   6.665   2.862   7.251 -0.8159 -3.8674 -3.4645
  966MOL0     H30358   6.574   2.716   7.284  0.1288  0.3073 -1.6799
  966MOL0     H30359   6.540   2.961   7.478  1.6195  1.7916 -3.4595
  966MOL0     H30360   6.465   2.800   7.483 -3.8875  1.0706 -1.7336
  966MOL0     H30361   6.380   2.779   7.186  0.0248 -0.9296  4.0115
  966MOL0     H30362   6.162   3.041   7.000  0.3476  0.5483  1.8482
  966MOL0     H30363   6.216   2.869   6.985 -1.6708  0.1755 -0.9173
  966MOL0     H30364   6.009   2.809   7.115 -0.2785 -0.9800 -2.5622
  966MOL0     H30365   5.965   2.898   6.980 -0.7659 -0.7430  0.6200
  966MOL0     H30366   5.969   3.010   7.267  1.3493 -2.9549 -0.0642
  966MOL0     H30367   5.824   2.990   7.159  0.8542 -1.7476 -1.6460
  966MOL0     H30368   6.036   3.193   7.135  0.2218  0.2645 -1.2928
  966MOL0     H30369   5.850   3.200   7.142 -0.7749 -1.4172 -0.8015
  966MOL0     H30370   5.914   3.420   7.086  1.6658 -2.2631  0.0435
  966MOL0     H30371   5.909   3.635   7.118  1.3207  3.9071  2.8474
  966MOL0     H30372   6.050   3.716   7.052 -0.8834 -0.1515  0.2041
  966MOL0     H30373   5.896   3.744   6.981  0.2315  0.8369  1.1080
  966MOL0     H30374   6.263   3.689   6.543  0.9776  0.4110  1.1930
  966MOL0     H30375   6.375   3.865   6.377 -0.2461  1.5987 -0.5815
  966MOL0     H30376   6.362   4.157   6.421  0.9776  1.0253 -0.0484
  966MOL0     H30377   6.464   4.073   6.314  0.6596  0.0030 -0.9363
  966MOL0     H30378   6.314   4.308   6.210 -0.6420 -2.4954 -4.0621
  966MOL0     H30379   6.463   4.332   6.307 -5.2967  3.2996  1.8547
  966MOL0     H30380   6.407   4.214   6.039 -1.9927  0.8168  0.8764
  966MOL0     H30381   6.553   4.169   6.131 -0.3089 -0.3635  1.7724
  966MOL0     H30382   6.573   4.387   5.968  4.6410  2.4138  0.7605
  966MOL0     H30383   6.517   4.470   6.106  0.1911  0.6701  0.0557
  966MOL0     H30384   6.712   4.405   6.236  1.0857  0.8309 -0.9198
  966MOL0     H30385   6.757   4.465   6.081  2.9365 -0.0942  1.5024
  966MOL0     H30386   6.912   4.293   6.135 -0.3395  2.6419 -1.2272
  966MOL0     H30387   6.780   4.178   6.166  0.4575  0.6630  1.0836
  966MOL0     H30388   6.716   4.197   5.928 -0.6564  1.0869  2.0018
  966MOL0     H30389   6.885   4.141   5.940 -0.0162 -0.6794  1.7239
  966MOL0     H30390   6.786   4.414   5.852 -0.1257 -0.8217 -1.0732
  966MOL0     H30391   6.899   4.312   5.773  3.0208 -1.1393  0.9738
  966MOL0     H30392   6.009   4.077   6.360 -0.9799  0.9222  1.9815
  966MOL0     H30393   5.900   3.930   6.490  0.4313  2.5395  0.2791
  966MOL0     H30394   6.005   3.452   6.611  2.3334  2.6531  0.6759
  966MOL0     H30395   5.941   3.226   6.703 -0.2171  1.6082 -1.6393
  966MOL0     H30396   7.403   2.994   6.908 -0.1028  2.1874 -1.3194
  966MOL0     H30397   7.616   3.090   6.874 -0.4321 -2.0537 -0.4128
  966MOL0     H30398   7.925   3.325   6.770 -0.0858 -1.0656  0.4655
  966MOL0     H30399   8.120   3.382   6.668  1.1228 -0.4104 -1.2051
  966MOL0     H30400   8.482   3.347   6.568 -0.2670  3.0745 -1.9866
  966MOL0     H30401   8.319   3.387   6.547  1.4191  0.6656 -1.6402
  966MOL0     H30402   8.507   3.498   6.759  0.9616 -0.9454 -1.3986
  966MOL0     H30403   8.344   3.461   6.811 -1.4509 -3.6730 -1.0796
  966MOL0     H30404   8.304   3.615   6.579 -1.9260 -1.1736  1.2745
  966MOL0     H30405   8.467   3.655   6.596 -0.2708  0.1016  0.2368
  966MOL0     H30406   8.420   3.734   6.834 -0.4696  0.8177 -0.1859
  966MOL0     H30407   8.246   3.703   6.799  0.4785 -0.5671  0.6976
  966MOL0     H30408   8.259   4.066   6.623  1.0196  0.6164 -1.3928
  966MOL0     H30409   8.321   3.056   6.874 -1.1205 -0.9625  0.3980
  966MOL0     H30410   8.116   3.010   6.997  2.0365  0.3573 -0.7393
  967MOL0     O30411   1.651   5.627   0.721 -0.1877  0.8775  0.3200
  967MOL0     C30412   1.626   5.745   0.757  0.8691  0.1375 -1.3587
  967MOL0     O30413   1.572   5.789   0.875 -0.1388 -0.2436  0.1351
  967MOL0     C30414   1.535   5.711   0.981 -0.5585  0.7880 -1.1690
  967MOL0     C30415   1.577   5.582   1.005 -0.6940 -0.4482 -0.8373
  967MOL0     C30416   1.527   5.509   1.107 -0.9672  0.4369 -0.5410
  967MOL0     C30417   1.453   5.565   1.208 -0.5593  0.4183  0.5756
  967MOL0     O30418   1.398   5.487   1.313  0.9799 -0.4933  1.2161
  967MOL0     C30419   1.370   5.344   1.294 -0.2879 -0.0014 -0.2285
  967MOL0     C30420   1.256   5.294   1.384 -0.7459  0.9644  0.8032
  967MOL0     C30421   1.238   5.140   1.355  1.1208  0.3888  0.8767
  967MOL0     C30422   1.113   5.119   1.270 -0.2217  0.6448 -0.8637
  967MOL0     C30423   1.090   4.965   1.260 -0.6075  0.0347 -0.1345
  967MOL0     C30424   1.042   4.913   1.391 -0.4045  1.0745 -1.0762
  967MOL0     C30425   1.017   4.754   1.371  0.0976 -0.2678 -0.1002
  967MOL0     C30426   0.971   4.706   1.497  0.7063 -0.6060 -0.6458
  967MOL0     N30427   0.952   4.557   1.499 -0.1427 -0.5054 -0.6871
  967MOL0     C30428   0.850   4.486   1.428  0.2461 -0.6438 -0.4971
  967MOL0     C30429   0.884   4.362   1.460 -0.4084 -0.0519  0.0316
  967MOL0     C30430   0.811   4.243   1.386 -0.0568  0.1656 -0.2072
  967MOL0     C30431   0.923   4.160   1.307 -0.7046  0.2675  0.6935
  967MOL0     C30432   0.852   4.023   1.280  0.0299 -0.0192 -0.5786
  967MOL0     C30433   0.959   3.928   1.212  0.3886  0.3576 -0.5859
  967MOL0     O30434   0.891   3.807   1.171 -0.5903  0.0712 -0.9276
  967MOL0     C30435   0.866   3.773   1.044 -0.3033  0.1032 -0.0309
  967MOL0     C30436   0.836   3.865   0.953 -0.3242  0.1634  0.9407
  967MOL0     C30437   0.811   3.831   0.814 -0.9824 -0.3363  0.3405
  967MOL0     C30438   0.764   3.941   0.724 -0.0506  1.6993  0.9348
  967MOL0     C30439   0.814   3.692   0.772 -0.2034  0.6218  0.9181
  967MOL0     C30440   0.800   3.639   0.632  0.7934 -0.2574  0.0190
  967MOL0     O30441   0.787   3.505   0.617 -0.5412 -0.1145 -0.5675
  967MOL0     C30442   0.757   3.447   0.500  0.4433  0.0997  0.1763
  967MOL0     C30443   0.666   3.337   0.497  0.5963  0.9993 -0.2568
  967MOL0     C30444   0.634   3.262   0.385  0.8866 -0.0895 -0.9646
  967MOL0     C30445   0.690   3.306   0.259  0.4033 -0.4395 -0.2172
  967MOL0     O30446   0.651   3.228   0.150 -0.3465  0.0034 -0.2881
  967MOL0     C30447   0.676   3.283   0.020 -0.6166  0.0771  0.4455
  967MOL0     C30448   0.803   3.227  -0.037 -0.7045 -0.8848  0.0781
  967MOL0     C30449   0.877   3.336  -0.123 -0.1323  0.3611  0.7623
  967MOL0     C30450   1.014   3.278  -0.190 -0.0777 -1.2019 -0.7789
  967MOL0     C30451   1.039   3.354  -0.321  0.4129 -0.2729  0.1522
  967MOL0     C30452   1.147   3.282  -0.400  0.9086 -0.5440 -0.6812
  967MOL0     C30453   1.280   3.248  -0.317  0.5530  0.4307 -0.1216
  967MOL0     C30454   1.379   3.217  -0.429 -0.0173  0.0173 -1.0148
  967MOL0    Cl30455   1.533   3.173  -0.354 -0.1002  0.0576 -0.4339
  967MOL0     C30456   0.774   3.414   0.260 -0.0264  0.3192 -0.0065
  967MOL0     C30457   0.811   3.485   0.373 -0.5081  0.3778  0.7026
  967MOL0     O30458   0.798   3.725   0.544  0.5196  0.9550  0.4025
  967MOL0     C30459   0.838   3.598   0.883 -0.9113 -0.0768  0.8399
  967MOL0     C30460   0.866   3.632   1.017 -0.9211 -0.2792  0.3639
  967MOL0     N30461   1.004   4.355   1.525 -0.5299  0.0030  0.2416
  967MOL0     N30462   1.043   4.472   1.548 -0.3247  0.8111  0.2578
  967MOL0     C30463   1.429   5.708   1.208  0.2297 -0.2537 -0.0642
  967MOL0     C30464   1.482   5.770   1.091 -0.1714  0.9698  0.5146
  967MOL0     C30465   1.648   5.871   0.670  0.1618 -1.1378  0.5073
  967MOL0     C30466   1.648   6.005   0.724  0.2741  0.0036 -0.3866
  967MOL0     C30467   1.669   6.110   0.648 -0.2949 -0.1003  0.1568
  967MOL0     C30468   1.701   6.106   0.512  0.1871 -0.7601  0.9642
  967MOL0     O30469   1.734   6.219   0.433 -0.3888 -1.3846  0.1369
  967MOL0     C30470   1.722   6.201   0.288 -0.0004 -0.0589  0.6435
  967MOL0     C30471   1.751   6.324   0.201  0.8069  0.6365  0.0515
  967MOL0     C30472   1.643   6.433   0.237 -0.0143 -0.2982  0.1110
  967MOL0     C30473   1.615   6.538   0.125  0.5842 -0.3998 -0.8800
  967MOL0     C30474   1.499   6.627   0.146 -0.0057 -0.4891 -0.7761
  967MOL0     C30475   1.389   6.673   0.174  0.0225  0.6801 -0.2370
  967MOL0     C30476   1.695   5.974   0.451 -0.2270 -0.3778  0.0769
  967MOL0     C30477   1.666   5.856   0.531 -0.2599  0.5920 -0.3396
  967MOL0     H30478   1.647   5.522   0.948  0.1863 -1.9780  1.7339
  967MOL0     H30479   1.551   5.403   1.110 -0.7503  0.5178  1.1201
  967MOL0     H30480   1.360   5.333   1.186  1.5403  3.7070 -0.9653
  967MOL0     H30481   1.466   5.297   1.319  0.0060 -0.0950 -1.4768
  967MOL0     H30482   1.279   5.313   1.490  0.2336  0.8062  0.6274
  967MOL0     H30483   1.164   5.342   1.352 -1.3226  0.3004  1.4405
  967MOL0     H30484   1.314   5.096   1.289  0.2596 -0.4932  0.4482
  967MOL0     H30485   1.231   5.087   1.451 -3.3608 -0.8612  0.1129
  967MOL0     H30486   1.036   5.187   1.309  0.5685  0.3823  1.2916
  967MOL0     H30487   1.129   5.147   1.165 -1.1653 -0.4191 -1.3085
  967MOL0     H30488   1.013   4.945   1.185 -0.7062  1.9603 -0.5959
  967MOL0     H30489   1.185   4.924   1.225  0.2623 -0.8359  2.9884
  967MOL0     H30490   1.113   4.932   1.472 -2.3226 -1.2327  1.3188
  967MOL0     H30491   0.952   4.958   1.434 -2.5764 -5.5087  2.7275
  967MOL0     H30492   0.944   4.742   1.291 -3.7307  1.5301  2.8010
  967MOL0     H30493   1.113   4.711   1.341  0.0635 -0.5079  0.1299
  967MOL0     H30494   0.882   4.768   1.513  3.0936  3.1801 -0.7534
  967MOL0     H30495   1.039   4.739   1.576  0.6404  1.3797 -1.3728
  967MOL0     H30496   0.770   4.528   1.368  1.1437  0.8782 -0.7050
  967MOL0     H30497   0.762   4.171   1.453  3.5943 -2.2752  0.1247
  967MOL0     H30498   0.733   4.283   1.321 -2.6656 -1.3722  1.7684
  967MOL0     H30499   1.004   4.140   1.378 -1.2694 -1.5333  0.8605
  967MOL0     H30500   0.957   4.209   1.215  0.2679 -2.8330 -0.7082
  967MOL0     H30501   0.771   4.030   1.207  1.2289  0.1687 -1.9335
  967MOL0     H30502   0.811   3.986   1.375  2.5731  0.4866  0.8055
  967MOL0     H30503   1.033   3.897   1.286 -0.1647 -0.3946 -0.3415
  967MOL0     H30504   1.018   3.979   1.135  0.7764  0.4935 -0.2003
  967MOL0     H30505   0.837   3.971   0.974  1.9839  0.2979  0.4362
  967MOL0     H30506   0.662   3.934   0.686 -0.0831  1.8309  0.9955
  967MOL0     H30507   0.778   4.044   0.758  3.1370  0.9674  2.2378
  967MOL0     H30508   0.837   3.933   0.642 -0.6226  0.8745  0.4987
  967MOL0     H30509   0.625   3.311   0.594  0.2235  0.2206 -0.6109
  967MOL0     H30510   0.569   3.177   0.402 -1.0534  1.1690 -1.7046
  967MOL0     H30511   0.586   3.272  -0.042 -0.6458 -0.3859  0.5619
  967MOL0     H30512   0.700   3.389   0.016  1.5078 -0.3888 -1.1637
  967MOL0     H30513   0.861   3.189   0.048 -0.7193  0.6392  0.7944
  967MOL0     H30514   0.775   3.139  -0.095 -0.2980 -2.1131  1.6806
  967MOL0     H30515   0.903   3.426  -0.066 -1.9359  1.4511 -0.0574
  967MOL0     H30516   0.811   3.352  -0.209 -0.5836 -0.0276  1.0300
  967MOL0     H30517   1.092   3.297  -0.116 -0.4306  0.1002 -0.7130
  967MOL0     H30518   1.001   3.174  -0.221  0.4378 -1.4317 -0.2382
  967MOL0     H30519   1.072   3.457  -0.307  0.7882 -0.0575 -2.0390
  967MOL0     H30520   0.951   3.346  -0.385  1.6875 -0.2114 -1.6878
  967MOL0     H30521   1.091   3.197  -0.440 -2.9811  1.1828  0.5890
  967MOL0     H30522   1.178   3.336  -0.490  2.1359 -0.6558 -0.3556
  967MOL0     H30523   1.266   3.155  -0.260  0.2458  0.8642  0.5266
  967MOL0     H30524   1.324   3.323  -0.250 -1.4011  1.3508  0.2123
  967MOL0     H30525   1.409   3.297  -0.498  1.7283  1.5377  1.3450
  967MOL0     H30526   1.344   3.130  -0.486  0.5213 -0.4137 -0.6929
  967MOL0     H30527   0.829   3.438   0.169  1.3708 -1.1652  0.3840
  967MOL0     H30528   0.879   3.570   0.364  1.4498 -1.0603  1.3304
  967MOL0     H30529   0.831   3.490   0.871  0.8658 -0.8294  4.8921
  967MOL0     H30530   0.878   3.555   1.092  1.5680 -0.6030 -0.2613
  967MOL0     H30531   1.384   5.761   1.291  0.8774  0.4030 -0.1316
  967MOL0     H30532   1.477   5.875   1.066  0.1785  0.6370 -1.0771
  967MOL0     H30533   1.599   6.011   0.820  0.1477 -0.4368 -0.4240
  967MOL0     H30534   1.642   6.209   0.682  1.3716  0.0042  1.2290
  967MOL0     H30535   1.801   6.131   0.259  2.8223  3.2822 -0.4396
  967MOL0     H30536   1.628   6.161   0.248 -0.6129  2.5427 -0.7219
  967MOL0     H30537   1.736   6.294   0.097 -2.6422  0.0835  0.6009
  967MOL0     H30538   1.846   6.371   0.229 -0.4469  1.0365  4.5016
  967MOL0     H30539   1.676   6.494   0.321 -0.8054  0.8937 -0.4157
  967MOL0     H30540   1.550   6.378   0.257 -0.9717  1.2575  0.0704
  967MOL0     H30541   1.590   6.477   0.038 -1.7263 -0.0477 -0.5078
  967MOL0     H30542   1.701   6.606   0.119  0.2710  0.2358  1.1206
  967MOL0     H30543   1.293   6.719   0.192 -0.1552 -0.2297  1.3617
  967MOL0     H30544   1.709   5.952   0.346  0.8766 -2.3393  0.5869
  967MOL0     H30545   1.655   5.761   0.480  0.3906 -0.4158  1.3410
  968MOL0     O30546   2.204   7.729   1.524  0.1607 -0.9457 -0.2915
  968MOL0     C30547   2.304   7.698   1.460 -0.0595 -0.1458 -0.8440
  968MOL0     O30548   2.430   7.693   1.511 -0.0984  0.0587  0.0327
  968MOL0     C30549   2.449   7.641   1.634  1.0109  0.5060  0.1628
  968MOL0     C30550   2.363   7.654   1.743  0.6047 -0.2061  0.2450
  968MOL0     C30551   2.404   7.604   1.871 -0.9986  0.7808 -0.3591
  968MOL0     C30552   2.528   7.548   1.897  0.4391  0.6667 -0.2005
  968MOL0     O30553   2.550   7.487   2.011 -0.1727  0.1195 -0.1066
  968MOL0     C30554   2.684   7.468   2.062 -0.0909  0.1736 -1.1173
  968MOL0     C30555   2.680   7.437   2.206 -0.5548  0.1272  0.0447
  968MOL0     C30556   2.812   7.410   2.271  0.2515 -0.0407 -0.4152
  968MOL0     C30557   2.872   7.535   2.334 -0.2645  0.1636 -0.0509
  968MOL0     C30558   3.021   7.508   2.369  0.4618 -0.1325 -0.4552
  968MOL0     C30559   3.041   7.448   2.507  0.0130 -0.8003 -0.1690
  968MOL0     C30560   3.183   7.455   2.542 -0.6390  0.7101  0.2690
  968MOL0     C30561   3.221   7.375   2.681  0.1294 -0.0255  0.3191
  968MOL0     N30562   3.370   7.361   2.696  0.5469 -0.2445  0.6731
  968MOL0     C30563   3.432   7.309   2.804 -1.0683  0.8878 -0.4676
  968MOL0     C30564   3.570   7.363   2.803 -0.2963 -0.3220  0.9251
  968MOL0     C30565   3.689   7.341   2.892  0.0428  0.6576 -0.7814
  968MOL0     C30566   3.741   7.470   2.950 -0.1916  0.3410  0.1110
  968MOL0     C30567   3.887   7.468   2.984  0.1478  0.1742 -0.1672
  968MOL0     C30568   3.928   7.607   3.026  0.2223  0.0008 -0.2930
  968MOL0     O30569   4.070   7.611   3.025  0.1801 -0.1827  0.3977
  968MOL0     C30570   4.125   7.731   3.057  0.8717 -0.0075  0.3268
  968MOL0     C30571   4.268   7.740   3.046  0.1908 -0.2164 -0.4287
  968MOL0     C30572   4.338   7.852   3.085  0.1097 -0.0847  0.0492
  968MOL0     C30573   4.486   7.859   3.073 -0.8144 -0.5896  0.7007
  968MOL0     C30574   4.264   7.950   3.162  0.6481 -0.2821  0.4167
  968MOL0     C30575   4.339   8.054   3.240  0.9319 -0.5672  0.3644
  968MOL0     O30576   4.445   8.124   3.176  0.5452 -0.0382 -0.8348
  968MOL0     C30577   4.495   8.242   3.231  0.0081  0.3500 -0.1141
  968MOL0     C30578   4.513   8.348   3.153 -0.0232  0.6393 -0.9292
  968MOL0     C30579   4.552   8.468   3.196  0.2106  0.1055  0.3019
  968MOL0     C30580   4.591   8.483   3.324 -0.4302 -1.1928  0.2774
  968MOL0     O30581   4.649   8.601   3.357 -0.7354  0.2448  0.4179
  968MOL0     C30582   4.701   8.630   3.486  0.0199 -0.7186 -0.3131
  968MOL0     C30583   4.843   8.569   3.504  0.2598 -0.5396  0.0231
  968MOL0     C30584   4.886   8.592   3.649  0.2080  0.0697  0.8431
  968MOL0     C30585   5.013   8.519   3.697  0.2214  0.3970 -0.0661
  968MOL0     C30586   5.154   8.583   3.660  0.5655  0.1301 -1.8400
  968MOL0     C30587   5.278   8.521   3.717 -0.7102  0.6737 -0.0973
  968MOL0     C30588   5.418   8.586   3.677 -0.5128 -0.7195 -0.1265
  968MOL0     C30589   5.412   8.734   3.715  1.1166 -1.2873 -0.5003
  968MOL0    Cl30590   5.573   8.807   3.698 -0.3871 -0.4657  0.0148
  968MOL0     C30591   4.579   8.378   3.413 -1.1045  0.1378 -0.3709
  968MOL0     C30592   4.524   8.256   3.371  0.3054  0.6096  0.3161
  968MOL0     O30593   4.297   8.079   3.354  0.6409  0.5981 -0.2983
  968MOL0     C30594   4.126   7.941   3.166 -0.8798 -1.0190 -0.0173
  968MOL0     C30595   4.055   7.841   3.115  0.0394  0.5483 -0.6497
  968MOL0     N30596   3.565   7.460   2.706 -0.7373 -0.6023  0.2671
  968MOL0     N30597   3.452   7.452   2.642  0.2371 -0.2566  0.8642
  968MOL0     C30598   2.616   7.538   1.780 -0.2886 -0.1038  0.1973
  968MOL0     C30599   2.576   7.587   1.652 -0.0678 -0.3197 -1.0108
  968MOL0     C30600   2.290   7.675   1.310 -0.5009 -0.6003 -0.9175
  968MOL0     C30601   2.169   7.627   1.261  0.3554 -1.3783 -0.0798
  968MOL0     C30602   2.160   7.601   1.125  0.5727  0.2765  0.6431
  968MOL0     C30603   2.266   7.628   1.041 -0.0055 -0.4670 -0.8378
  968MOL0     O30604   2.254   7.591   0.912  0.1213 -0.5530  0.1040
  968MOL0     C30605   2.312   7.668   0.805  0.7796  0.2348 -0.8292
  968MOL0     C30606   2.222   7.662   0.677  0.3473  0.1610  0.6885
  968MOL0     C30607   2.079   7.738   0.692 -0.5916  0.3724 -0.2703
  968MOL0     C30608   1.978   7.642   0.644 -0.0152 -0.5456  0.1987
  968MOL0     C30609   1.834   7.693   0.650 -1.0268  0.5823  0.5793
  968MOL0     C30610   1.717   7.732   0.630  0.1423  0.5061 -0.2777
  968MOL0     C30611   2.383   7.689   1.086  1.3554  0.9149  0.7395
  968MOL0     C30612   2.394   7.718   1.224 -0.4670  0.6142  0.0865
  968MOL0     H30613   2.272   7.712   1.753  0.4756 -0.2455 -0.6664
  968MOL0     H30614   2.328   7.621   1.947 -0.8909  0.1802 -0.1088
  968MOL0     H30615   2.722   7.378   2.013  2.8832  0.4222  0.5583
  968MOL0     H30616   2.754   7.544   2.027 -0.9058  2.1890  1.3047
  968MOL0     H30617   2.630   7.527   2.244  0.3242  0.9889 -0.7573
  968MOL0     H30618   2.613   7.353   2.222  2.1937 -2.0935  0.6432
  968MOL0     H30619   2.797   7.329   2.343 -2.1318  1.8298  1.3801
  968MOL0     H30620   2.882   7.378   2.194  1.4553 -1.8654  1.3277
  968MOL0     H30621   2.870   7.619   2.264 -0.6405 -0.0682 -0.3258
  968MOL0     H30622   2.805   7.575   2.411 -2.4953  0.6477 -2.0832
  968MOL0     H30623   3.074   7.447   2.296 -0.9358 -1.0438 -0.7516
  968MOL0     H30624   3.070   7.606   2.364 -1.6768  1.0305 -0.2155
  968MOL0     H30625   2.983   7.496   2.587  0.1813 -0.4393 -0.2613
  968MOL0     H30626   3.012   7.343   2.493 -3.5452  0.1003 -0.3857
  968MOL0     H30627   3.233   7.398   2.463  2.9363  3.5143  0.2418
  968MOL0     H30628   3.212   7.560   2.553  1.1207  0.2403  0.4688
  968MOL0     H30629   3.183   7.272   2.684 -0.5770  0.2026 -0.3813
  968MOL0     H30630   3.180   7.428   2.768 -0.3426 -2.1654  1.4672
  968MOL0     H30631   3.385   7.247   2.881 -0.5094  1.2960  0.2159
  968MOL0     H30632   3.661   7.267   2.968 -0.2422  0.8209 -0.7260
  968MOL0     H30633   3.766   7.293   2.831  1.1047  2.6629 -1.0924
  968MOL0     H30634   3.686   7.474   3.045  0.7804 -2.5495  0.9068
  968MOL0     H30635   3.708   7.554   2.890  0.8023  1.4486  1.0658
  968MOL0     H30636   3.936   7.453   2.888  0.0185  0.2973 -0.2525
  968MOL0     H30637   3.900   7.389   3.058  0.9356  0.0205 -0.4589
  968MOL0     H30638   3.887   7.621   3.126  0.0074  0.8921 -0.4970
  968MOL0     H30639   3.877   7.687   2.972 -0.2963 -0.2177 -0.1388
  968MOL0     H30640   4.309   7.644   3.016 -0.0504 -0.9067  1.3489
  968MOL0     H30641   4.540   7.838   3.165 -0.7743 -0.4862  0.7007
  968MOL0     H30642   4.517   7.767   3.022 -1.0974  0.8468 -2.2657
  968MOL0     H30643   4.523   7.945   3.016 -2.7795  0.6276  1.1681
  968MOL0     H30644   4.477   8.343   3.051 -3.7377  0.4153  0.2393
  968MOL0     H30645   4.563   8.555   3.132 -1.0265 -0.1435 -0.2962
  968MOL0     H30646   4.702   8.739   3.490 -5.8934 -0.3673 -0.6384
  968MOL0     H30647   4.630   8.596   3.561 -2.3045  2.7164 -0.7464
  968MOL0     H30648   4.839   8.462   3.485 -1.3544 -0.4085 -0.5225
  968MOL0     H30649   4.915   8.622   3.440 -1.4131 -0.8412 -2.2421
  968MOL0     H30650   4.798   8.571   3.710  0.6119 -1.0057  1.0771
  968MOL0     H30651   4.901   8.700   3.660 -1.0230  0.4334 -0.7080
  968MOL0     H30652   5.006   8.512   3.806  0.5721 -0.9345 -0.1187
  968MOL0     H30653   5.004   8.417   3.660  1.7872  0.1528  0.1570
  968MOL0     H30654   5.155   8.682   3.708  3.8830 -1.6443  2.3582
  968MOL0     H30655   5.143   8.603   3.553 -4.6470 -1.8009 -1.9565
  968MOL0     H30656   5.269   8.522   3.826  1.0501  0.2950  0.0770
  968MOL0     H30657   5.271   8.417   3.684  0.3625 -0.5769  3.2117
  968MOL0     H30658   5.439   8.573   3.571  1.3710  1.5769 -0.1403
  968MOL0     H30659   5.503   8.548   3.735 -1.1437 -0.3296  1.0998
  968MOL0     H30660   5.374   8.746   3.817 -2.4674 -1.7336 -1.6150
  968MOL0     H30661   5.341   8.788   3.651  2.5779  0.0937 -1.0358
  968MOL0     H30662   4.591   8.392   3.520  0.6322 -3.6769  0.0932
  968MOL0     H30663   4.523   8.170   3.437  0.1063  0.1607 -0.2554
  968MOL0     H30664   4.075   8.014   3.228  0.3162  1.2881 -1.6245
  968MOL0     H30665   3.950   7.839   3.141  0.4864  1.7288  1.4532
  968MOL0     H30666   2.715   7.495   1.790  0.0639  1.1321  2.9034
  968MOL0     H30667   2.647   7.569   1.571  1.7455 -0.2259  0.4840
  968MOL0     H30668   2.086   7.604   1.327  0.6847 -0.4473  0.6766
  968MOL0     H30669   2.068   7.552   1.094 -0.5280  1.6554  1.5935
  968MOL0     H30670   2.332   7.772   0.832  4.1940 -0.1025 -1.5802
  968MOL0     H30671   2.412   7.629   0.784  1.7389  1.7489  0.6355
  968MOL0     H30672   2.199   7.559   0.647 -5.6329  0.3345  3.2840
  968MOL0     H30673   2.271   7.707   0.590 -1.1224  1.7128  0.6193
  968MOL0     H30674   2.071   7.828   0.629 -0.7303  2.0761  2.0577
  968MOL0     H30675   2.057   7.772   0.793  0.3619  1.0665 -0.2830
  968MOL0     H30676   1.982   7.553   0.708 -1.0678 -1.6300 -1.1638
  968MOL0     H30677   1.991   7.609   0.541  0.2232 -0.8837  0.3339
  968MOL0     H30678   1.619   7.766   0.602 -0.0830  2.3578  2.3801
  968MOL0     H30679   2.454   7.713   1.008  2.4452 -0.7361  1.1658
  968MOL0     H30680   2.486   7.763   1.259  0.3683 -2.3854  2.1228
  969MOL0     O30681   9.701   9.191   1.911 -0.5382 -0.0974  0.1367
  969MOL0     C30682   9.604   9.168   1.976  0.2741 -0.9141  0.2543
  969MOL0     O30683   9.503   9.101   1.923  0.7746  0.1190 -0.8450
  969MOL0     C30684   9.506   9.046   1.796 -0.5267  0.1526 -0.0254
  969MOL0     C30685   9.487   9.114   1.674  1.7399 -0.2156  0.0297
  969MOL0     C30686   9.496   9.055   1.555 -0.1415  0.1558 -0.9841
  969MOL0     C30687   9.530   8.920   1.541 -0.5668  0.3809 -0.8376
  969MOL0     O30688   9.535   8.856   1.415  0.3849 -0.2769 -0.6675
  969MOL0     C30689   9.641   8.764   1.383  0.0165 -0.1635  0.1135
  969MOL0     C30690   9.618   8.732   1.233 -0.9318 -0.2122  0.5090
  969MOL0     C30691   9.482   8.689   1.199 -1.0726  0.2524 -0.6777
  969MOL0     C30692   9.460   8.677   1.048 -0.2882  0.5752 -0.0642
  969MOL0     C30693   9.571   8.586   0.978  0.2316 -0.3509 -0.3069
  969MOL0     C30694   9.575   8.449   1.045 -1.4484 -0.5302  1.2416
  969MOL0     C30695   9.675   8.362   0.969 -0.3539 -0.1341  0.0805
  969MOL0     C30696   9.626   8.302   0.839 -0.0396  0.3375 -0.5718
  969MOL0     N30697   9.728   8.221   0.773  0.0623  0.0405  0.9226
  969MOL0     C30698   9.863   8.230   0.751  0.6293  0.2593  0.2000
  969MOL0     C30699   9.892   8.113   0.674 -0.4480 -0.5876 -0.4811
  969MOL0     C30700  10.029   8.079   0.619 -0.0247 -0.2357 -0.4318
  969MOL0     C30701  10.116   8.034   0.737  0.2809  1.0421  1.2132
  969MOL0     C30702  10.104   7.883   0.747 -0.3198  0.7566 -0.4122
  969MOL0     C30703  10.187   7.817   0.860 -0.1443  0.2643  0.3888
  969MOL0     O30704  10.171   7.868   0.997  0.0743  1.0517  0.3955
  969MOL0     C30705  10.250   7.824   1.102 -0.3700  0.3408 -0.7021
  969MOL0     C30706  10.345   7.723   1.095  0.0267 -1.1110  0.7101
  969MOL0     C30707  10.435   7.698   1.188 -0.7196  0.7782 -0.3294
  969MOL0     C30708  10.536   7.578   1.159 -0.0719 -0.4564 -0.5181
  969MOL0     C30709  10.436   7.774   1.311  0.2935 -0.0850 -0.3881
  969MOL0     C30710  10.532   7.737   1.424 -0.8327  0.9611 -0.3107
  969MOL0     O30711  10.658   7.696   1.381 -0.1030  0.3704 -0.9725
  969MOL0     C30712  10.750   7.679   1.482 -0.1844  0.1205  0.8081
  969MOL0     C30713  10.837   7.568   1.459  0.5549 -0.2323 -0.7361
  969MOL0     C30714  10.942   7.557   1.543  0.9119  1.1829 -0.0059
  969MOL0     C30715  10.967   7.645   1.642  0.3258 -0.4301 -0.0570
  969MOL0     O30716  11.076   7.624   1.727 -1.0810  0.4170 -0.1660
  969MOL0     C30717  11.184   7.696   1.683 -0.3091  0.0387  0.6763
  969MOL0     C30718  11.231   7.781   1.797 -0.2363 -0.2162 -0.1704
  969MOL0     C30719  11.309   7.911   1.759 -0.3117 -0.3658 -0.3309
  969MOL0     C30720  11.327   7.991   1.888 -0.9397 -0.5078  0.4160
  969MOL0     C30721  11.422   8.116   1.865 -0.1238  0.4702 -0.3368
  969MOL0     C30722  11.370   8.206   1.751 -0.5848  0.4497 -0.0668
  969MOL0     C30723  11.466   8.316   1.743 -0.4361 -0.5259  0.4170
  969MOL0     C30724  11.419   8.427   1.644 -0.8261  0.1925 -0.6836
  969MOL0    Cl30725  11.550   8.546   1.663  0.8361  0.0041  0.2027
  969MOL0     C30726  10.878   7.746   1.666 -0.3386  1.0222 -0.5000
  969MOL0     C30727  10.772   7.777   1.578 -0.3583 -0.9252  0.2157
  969MOL0     O30728  10.497   7.754   1.542 -0.2273 -0.7275 -0.0319
  969MOL0     C30729  10.333   7.869   1.328  0.8424  0.5079 -0.7544
  969MOL0     C30730  10.246   7.896   1.223  0.3402 -0.4224 -0.3410
  969MOL0     N30731   9.783   8.037   0.650  0.7877 -0.2624 -0.3444
  969MOL0     N30732   9.687   8.098   0.724 -0.3150 -0.7634  0.1810
  969MOL0     C30733   9.546   8.856   1.662 -0.9566 -0.0795 -0.2470
  969MOL0     C30734   9.531   8.908   1.787 -0.9937 -0.4251  0.1646
  969MOL0     C30735   9.593   9.208   2.125 -0.2588 -1.0060 -0.4322
  969MOL0     C30736   9.677   9.309   2.175  0.3609 -0.0674 -0.2990
  969MOL0     C30737   9.655   9.346   2.315  0.0437  0.0819  0.7252
  969MOL0     C30738   9.571   9.277   2.402  0.2776  0.0381  0.6580
  969MOL0     O30739   9.548   9.323   2.528  0.0587 -0.1518  0.7117
  969MOL0     C30740   9.564   9.233   2.638  1.6483  0.5155 -0.7822
  969MOL0     C30741   9.697   9.238   2.706 -0.0960  0.1786 -0.4983
  969MOL0     C30742   9.708   9.372   2.785  0.3076  0.2523 -0.0095
  969MOL0     C30743   9.850   9.423   2.790  0.0666  0.3888 -0.1361
  969MOL0     C30744   9.862   9.535   2.881  0.3788 -0.1834  0.4763
  969MOL0     C30745   9.861   9.630   2.955 -0.1012  0.3129  0.9085
  969MOL0     C30746   9.492   9.172   2.345 -0.0306 -1.0920 -0.5475
  969MOL0     C30747   9.498   9.143   2.205 -0.9344  0.3072 -0.1610
  969MOL0     H30748   9.463   9.220   1.684 -2.8935 -0.7920 -2.2267
  969MOL0     H30749   9.483   9.118   1.468  0.9375  1.0485 -0.5291
  969MOL0     H30750   9.742   8.806   1.389 -0.0126 -0.0078 -0.3852
  969MOL0     H30751   9.628   8.679   1.451  1.2077 -0.1617  0.3693
  969MOL0     H30752   9.629   8.820   1.170  0.1602 -0.9724 -0.4082
  969MOL0     H30753   9.694   8.660   1.202 -0.6514  0.3172 -0.0569
  969MOL0     H30754   9.447   8.600   1.253 -1.9245 -0.1541 -1.8739
  969MOL0     H30755   9.414   8.772   1.224 -1.1990  0.8926 -2.9709
  969MOL0     H30756   9.363   8.630   1.029  2.4306 -4.6464 -3.7131
  969MOL0     H30757   9.458   8.776   1.003 -4.4424  0.5504 -0.3048
  969MOL0     H30758   9.545   8.582   0.872 -1.2086  0.6470 -0.0193
  969MOL0     H30759   9.666   8.641   0.986 -0.6121  0.9691  1.2642
  969MOL0     H30760   9.606   8.466   1.148  0.3562  3.1082  0.2665
  969MOL0     H30761   9.478   8.399   1.033 -1.3885 -0.3226 -0.2383
  969MOL0     H30762   9.763   8.426   0.962  2.6111 -3.3135  3.5930
  969MOL0     H30763   9.707   8.281   1.035  0.3126 -1.5770 -1.9164
  969MOL0     H30764   9.615   8.393   0.780  1.2518  0.1119 -1.1789
  969MOL0     H30765   9.529   8.263   0.872 -1.4742  3.7199 -0.3723
  969MOL0     H30766   9.922   8.313   0.787  0.4128  0.1295  0.8791
  969MOL0     H30767  10.028   8.007   0.537  4.1688 -0.8034 -0.2342
  969MOL0     H30768  10.069   8.169   0.571  1.2337  0.6505  2.1159
  969MOL0     H30769  10.079   8.086   0.826  0.6308  1.3994  1.1578
  969MOL0     H30770  10.220   8.057   0.710 -0.5210  2.2581 -1.0588
  969MOL0     H30771  10.142   7.827   0.662  0.0846 -0.6157  0.6418
  969MOL0     H30772   9.998   7.857   0.759 -0.6617  0.7159 -3.0168
  969MOL0     H30773  10.288   7.814   0.818 -0.0668 -1.5763  0.6159
  969MOL0     H30774  10.153   7.713   0.863 -0.2441  0.1655 -2.1281
  969MOL0     H30775  10.358   7.666   1.003  1.0968 -1.4268  1.0373
  969MOL0     H30776  10.507   7.521   1.070 -1.0188  0.3370 -0.7413
  969MOL0     H30777  10.642   7.602   1.157  0.5613 -3.0000 -1.0648
  969MOL0     H30778  10.540   7.509   1.244  3.9574 -0.0485 -0.2046
  969MOL0     H30779  10.802   7.494   1.387 -0.3469 -0.8957  0.3553
  969MOL0     H30780  11.006   7.469   1.538 -0.8342 -0.5119  3.6274
  969MOL0     H30781  11.259   7.625   1.648  0.5707  0.7883  0.9886
  969MOL0     H30782  11.155   7.771   1.609  2.6451  3.5456  2.6766
  969MOL0     H30783  11.137   7.806   1.848 -1.6930 -3.1651 -1.1811
  969MOL0     H30784  11.295   7.719   1.860 -2.0718 -0.5827  1.4259
  969MOL0     H30785  11.250   7.974   1.692  1.6068  0.1693 -1.5663
  969MOL0     H30786  11.409   7.894   1.720  0.5831 -0.1533  1.7398
  969MOL0     H30787  11.234   8.032   1.928 -1.1543 -1.0073  0.4493
  969MOL0     H30788  11.346   7.926   1.974 -0.8216 -0.9692  0.0461
  969MOL0     H30789  11.528   8.091   1.850 -0.0618 -0.1767  1.0690
  969MOL0     H30790  11.411   8.166   1.962 -0.5908 -2.9599  1.5062
  969MOL0     H30791  11.377   8.154   1.654 -0.0341 -3.6555  1.9584
  969MOL0     H30792  11.266   8.238   1.761  0.2093  2.2858  4.3048
  969MOL0     H30793  11.562   8.278   1.707  0.1686  1.5440 -0.3248
  969MOL0     H30794  11.488   8.368   1.836 -1.9552 -0.9835  1.0577
  969MOL0     H30795  11.323   8.474   1.668 -1.0874 -1.4193  1.7251
  969MOL0     H30796  11.416   8.399   1.538  0.4377  0.7162 -0.8669
  969MOL0     H30797  10.889   7.824   1.742  0.6343  0.5194 -0.1156
  969MOL0     H30798  10.702   7.858   1.595 -0.2603 -1.1610  1.9277
  969MOL0     H30799  10.320   7.918   1.424 -1.5759  1.7427 -1.6243
  969MOL0     H30800  10.180   7.981   1.232 -0.6500 -0.8324 -2.9603
  969MOL0     H30801   9.591   8.757   1.658  0.2741  0.4104  0.6239
  969MOL0     H30802   9.553   8.861   1.882 -2.4104  4.0371  3.0268
  969MOL0     H30803   9.735   9.373   2.111 -1.7623  0.6405 -1.6080
  969MOL0     H30804   9.712   9.426   2.361  0.3367 -0.7990  1.9227
  969MOL0     H30805   9.488   9.272   2.707  1.2983 -0.5413 -0.5457
  969MOL0     H30806   9.546   9.128   2.613  0.9424  0.4485 -0.0520
  969MOL0     H30807   9.782   9.212   2.643 -0.5399  2.3698 -2.1187
  969MOL0     H30808   9.697   9.163   2.785  1.4828  0.7774  0.1057
  969MOL0     H30809   9.666   9.360   2.886 -1.3992  0.4861 -0.6495
  969MOL0     H30810   9.647   9.455   2.748 -0.1266  0.9715  2.1749
  969MOL0     H30811   9.882   9.443   2.687 -0.5080 -0.3875 -0.4766
  969MOL0     H30812   9.921   9.350   2.831 -0.0336  0.3533 -0.0252
  969MOL0     H30813   9.844   9.712   3.022 -2.8380  0.7575 -0.2066
  969MOL0     H30814   9.408   9.133   2.402 -1.4933  2.0366 -0.3373
  969MOL0     H30815   9.419   9.074   2.179 -0.3992 -0.5489  0.3964
  970MOL0     O30816   8.250   9.794   5.232 -0.3177  0.0377 -0.2524
  970MOL0     C30817   8.281   9.918   5.220  0.2765  0.6664 -0.2371
  970MOL0     O30818   8.254   9.996   5.109 -0.3054  0.7157 -0.8514
  970MOL0     C30819   8.188   9.927   5.007  0.0094  0.2826 -0.2577
  970MOL0     C30820   8.071   9.982   4.957 -0.6141  0.2159 -0.6088
  970MOL0     C30821   8.010   9.923   4.849 -0.3776 -0.2253  1.5620
  970MOL0     C30822   8.071   9.814   4.785  0.5437  0.4667  0.7832
  970MOL0     O30823   7.999   9.747   4.688 -0.4460 -0.0993 -0.2527
  970MOL0     C30824   8.050   9.628   4.637  0.0006 -0.7579  0.0873
  970MOL0     C30825   7.946   9.565   4.553  1.1204 -0.4789 -0.0053
  970MOL0     C30826   8.003   9.437   4.493 -0.6947  0.3038 -0.4312
  970MOL0     C30827   8.015   9.320   4.596 -0.0989  0.2241  0.2939
  970MOL0     C30828   8.079   9.195   4.546 -0.7159 -1.1889 -0.0471
  970MOL0     C30829   7.981   9.107   4.469  0.0247  0.2759  0.2812
  970MOL0     C30830   8.054   9.001   4.382 -0.4569  0.0268 -0.4226
  970MOL0     C30831   7.956   8.905   4.310 -0.6023 -0.2107 -0.1400
  970MOL0     N30832   8.026   8.810   4.228  0.4640  0.2815 -0.2213
  970MOL0     C30833   8.113   8.842   4.124  0.9173 -0.0038 -0.6957
  970MOL0     C30834   8.131   8.727   4.056 -0.2574  0.1016  0.0535
  970MOL0     C30835   8.222   8.710   3.936 -0.4226  1.7348 -1.0209
  970MOL0     C30836   8.221   8.825   3.833 -0.2276 -0.9305 -0.0106
  970MOL0     C30837   8.091   8.868   3.773 -0.3955 -0.1220 -0.0575
  970MOL0     C30838   8.057   9.022   3.764  0.4465 -1.1628  0.4899
  970MOL0     O30839   8.067   9.081   3.898 -0.1574 -0.6356  0.5895
  970MOL0     C30840   7.960   9.152   3.958  0.5438 -1.3337 -0.5981
  970MOL0     C30841   7.838   9.081   3.999 -0.7428 -0.8705  0.2918
  970MOL0     C30842   7.742   9.167   4.068  0.3825 -0.1598 -0.9233
  970MOL0     C30843   7.610   9.103   4.105 -0.3128  0.1614  0.0297
  970MOL0     C30844   7.769   9.303   4.093  0.0237  0.2788  0.3089
  970MOL0     C30845   7.695   9.395   4.171  0.2960  1.2109  0.8652
  970MOL0     O30846   7.755   9.473   4.264 -0.2971 -0.1288 -0.1811
  970MOL0     C30847   7.681   9.558   4.344  0.0206  0.6597  0.2664
  970MOL0     C30848   7.665   9.690   4.301 -0.1545 -0.6255 -0.3852
  970MOL0     C30849   7.603   9.780   4.386 -0.3327  0.0048 -0.0785
  970MOL0     C30850   7.554   9.744   4.507  0.1520  0.3217  0.7896
  970MOL0     O30851   7.495   9.834   4.593 -0.0646 -0.8059  1.0305
  970MOL0     C30852   7.590   9.922   4.657  0.2699 -0.0573  0.4807
  970MOL0     C30853   7.528   9.982   4.781  1.1330 -0.0059 -0.0331
  970MOL0     C30854   7.620  10.079   4.854 -0.8473  1.0661  0.0459
  970MOL0     C30855   7.638  10.211   4.780  0.0603 -0.3778 -0.2206
  970MOL0     C30856   7.735  10.305   4.848 -1.4975 -0.3777 -0.4446
  970MOL0     C30857   7.796  10.423   4.760 -1.1188  0.8181 -0.7778
  970MOL0     C30858   7.696  10.538   4.722  0.5686  0.0863 -0.8101
  970MOL0     C30859   7.625  10.604   4.846  0.4885 -0.4645 -0.3808
  970MOL0    Cl30860   7.727  10.643   4.975 -0.3167 -0.7956  0.1360
  970MOL0     C30861   7.581   9.615   4.552  0.1863 -0.1066 -0.1881
  970MOL0     C30862   7.639   9.521   4.471  0.1102 -0.4794 -0.2199
  970MOL0     O30863   7.573   9.379   4.163  0.6914 -0.2125  0.8509
  970MOL0     C30864   7.892   9.354   4.046  0.3210 -0.3136  0.5570
  970MOL0     C30865   7.985   9.283   3.984  0.2087  0.2010 -0.3198
  970MOL0     N30866   8.067   8.630   4.125  0.1859  0.1898 -0.5784
  970MOL0     N30867   8.001   8.679   4.221  0.0124 -0.9008  1.3072
  970MOL0     C30868   8.201   9.765   4.824  0.3244  0.9518 -0.1840
  970MOL0     C30869   8.258   9.821   4.938  0.8500 -0.5877  0.9948
  970MOL0     C30870   8.366   9.973   5.319 -0.5608 -0.4062 -0.3503
  970MOL0     C30871   8.407  10.108   5.313  1.9478  0.1926  0.2401
  970MOL0     C30872   8.488  10.158   5.404  0.2880  0.5125 -0.7577
  970MOL0     C30873   8.545  10.083   5.509 -0.4808  0.3501  0.2665
  970MOL0     O30874   8.608  10.155   5.607  0.5833 -0.5806 -0.4470
  970MOL0     C30875   8.687  10.090   5.700 -1.1509  0.0840  0.4826
  970MOL0     C30876   8.819  10.032   5.648  0.3113 -0.6089 -1.4318
  970MOL0     C30877   8.863   9.913   5.743  0.3792  0.4616  0.2804
  970MOL0     C30878   8.994   9.854   5.690  0.0533 -0.3337 -0.1642
  970MOL0     C30879   9.113   9.945   5.689  0.5116 -0.3649  0.3417
  970MOL0     C30880   9.205  10.023   5.678 -0.4424  0.0545  0.2226
  970MOL0     C30881   8.520   9.942   5.509  0.4426 -0.2418  0.0615
  970MOL0     C30882   8.435   9.890   5.412  0.2839  0.1183  0.4660
  970MOL0     H30883   8.044  10.073   5.010 -0.4857  0.9974 -1.8460
  970MOL0     H30884   7.916   9.954   4.805 -0.7542 -5.1013 -1.9033
  970MOL0     H30885   8.145   9.649   4.587  1.7007 -3.7741  1.7584
  970MOL0     H30886   8.075   9.557   4.716  0.7873 -1.1102 -0.4639
  970MOL0     H30887   7.854   9.561   4.611 -0.4925 -1.2423 -2.4484
  970MOL0     H30888   7.930   9.638   4.473  2.4025  0.3408  0.4576
  970MOL0     H30889   7.943   9.393   4.413 -0.2094 -5.0249  1.7625
  970MOL0     H30890   8.105   9.460   4.461 -0.5997 -1.5359 -1.5627
  970MOL0     H30891   8.070   9.338   4.688 -0.9125 -1.2824  1.1042
  970MOL0     H30892   7.910   9.307   4.624 -0.8260  1.1446 -1.7991
  970MOL0     H30893   8.166   9.226   4.487 -0.1484 -3.1944 -0.3290
  970MOL0     H30894   8.131   9.135   4.621 -0.1371  2.4630  2.7555
  970MOL0     H30895   7.901   9.065   4.530 -0.8606 -1.4224 -1.9184
  970MOL0     H30896   7.927   9.171   4.398  0.7840  0.8158  0.1833
  970MOL0     H30897   8.106   9.070   4.315 -2.2844  2.5140  0.5436
  970MOL0     H30898   8.130   8.954   4.446 -1.6398  1.8986  2.6162
  970MOL0     H30899   7.883   8.958   4.248  0.2439  0.9549 -0.1800
  970MOL0     H30900   7.902   8.840   4.380  0.8428 -2.0470 -0.6707
  970MOL0     H30901   8.152   8.937   4.088 -0.7221  0.7799 -0.4959
  970MOL0     H30902   8.328   8.701   3.963 -0.7405  0.9329  0.0245
  970MOL0     H30903   8.201   8.607   3.903 -3.9019  1.4688  1.4688
  970MOL0     H30904   8.290   8.794   3.755  2.1453  2.5094  0.4645
  970MOL0     H30905   8.264   8.915   3.880  2.2658 -1.3992 -1.2583
  970MOL0     H30906   8.009   8.840   3.840  1.4676 -1.6907  1.6995
  970MOL0     H30907   8.073   8.823   3.675 -0.0899 -0.3234 -0.0220
  970MOL0     H30908   7.959   9.037   3.719  0.4101 -1.1563  0.5707
  970MOL0     H30909   8.130   9.069   3.698 -0.8596 -1.0359 -0.8938
  970MOL0     H30910   7.832   8.973   3.996 -0.2648 -1.0187  2.5921
  970MOL0     H30911   7.572   9.135   4.202  1.5574 -0.1063  0.9018
  970MOL0     H30912   7.532   9.104   4.029  0.8181  0.0262 -1.1692
  970MOL0     H30913   7.629   8.997   4.127 -0.2185  0.0927 -0.3715
  970MOL0     H30914   7.689   9.714   4.197 -4.6141  2.9432 -0.9000
  970MOL0     H30915   7.592   9.874   4.332  1.5826  0.0239 -0.4797
  970MOL0     H30916   7.673   9.860   4.691 -0.9199 -0.7712  2.2556
  970MOL0     H30917   7.632   9.992   4.585 -2.4529  2.0314  0.7697
  970MOL0     H30918   7.438  10.037   4.753 -1.1065 -2.8760  0.9657
  970MOL0     H30919   7.497   9.915   4.862  0.2460  2.0395  1.3999
  970MOL0     H30920   7.716  10.030   4.878  0.2658  3.2411  0.2885
  970MOL0     H30921   7.573  10.108   4.948 -0.3719  1.0454  0.2977
  970MOL0     H30922   7.679  10.188   4.681  4.5120 -1.6739  1.6554
  970MOL0     H30923   7.536  10.245   4.761  0.3108  2.8364  3.0042
  970MOL0     H30924   7.825  10.249   4.874 -1.2255  1.4242  3.0723
  970MOL0     H30925   7.705  10.328   4.951  0.2059  1.3386 -0.2762
  970MOL0     H30926   7.880  10.469   4.812  0.0704 -3.0935  1.1378
  970MOL0     H30927   7.836  10.389   4.664  0.2355  0.7853 -0.2096
  970MOL0     H30928   7.621  10.497   4.653  0.3907 -0.1325 -0.4847
  970MOL0     H30929   7.758  10.618   4.679  1.1294 -1.3459 -2.8251
  970MOL0     H30930   7.544  10.536   4.877 -0.6027  0.2493 -1.5492
  970MOL0     H30931   7.578  10.694   4.805 -1.3611 -1.5310 -0.7372
  970MOL0     H30932   7.526   9.581   4.639  0.5132 -0.1340  0.0100
  970MOL0     H30933   7.675   9.425   4.506  1.1994  0.3486  1.0373
  970MOL0     H30934   7.908   9.459   4.071 -0.6281 -0.7576  3.4188
  970MOL0     H30935   8.074   9.339   3.957  0.4991  0.7120  1.5332
  970MOL0     H30936   8.252   9.679   4.783  2.5242  3.0894 -2.2389
  970MOL0     H30937   8.356   9.789   4.975  2.4013 -2.2993 -3.8229
  970MOL0     H30938   8.373  10.185   5.244  1.1625  1.7131  2.2242
  970MOL0     H30939   8.513  10.263   5.396  0.8904  0.2062 -4.7579
  970MOL0     H30940   8.698  10.140   5.796 -1.4822 -2.0684  1.6977
  970MOL0     H30941   8.633   9.998   5.723  1.6469 -1.8450 -0.0999
  970MOL0     H30942   8.890  10.115   5.658 -0.3245 -0.2560  0.8215
  970MOL0     H30943   8.816  10.001   5.543 -0.3326 -0.4819 -1.4541
  970MOL0     H30944   8.785   9.837   5.747 -0.4497  1.1702 -1.2304
  970MOL0     H30945   8.872   9.954   5.844  0.1164  0.3431  0.3531
  970MOL0     H30946   8.980   9.819   5.587 -0.5600 -1.6514  0.3458
  970MOL0     H30947   9.013   9.767   5.753 -0.5610  0.8614  1.7418
  970MOL0     H30948   9.283  10.093   5.655 -2.1901  0.8775 -4.2872
  970MOL0     H30949   8.560   9.868   5.578 -0.4196 -1.1950 -0.4300
  970MOL0     H30950   8.413   9.784   5.419  0.7343 -0.0755 -0.8578
  971MOL0     O30951   4.894   4.162   8.131 -0.6318 -0.8889 -0.2519
  971MOL0     C30952   4.981   4.219   8.203  0.1234 -0.2106 -0.2258
  971MOL0     O30953   4.953   4.327   8.277  0.6985 -0.4136  1.0723
  971MOL0     C30954   4.827   4.386   8.259 -0.9949 -0.5865 -1.0976
  971MOL0     C30955   4.772   4.421   8.138 -0.6201  0.8599  0.2002
  971MOL0     C30956   4.646   4.475   8.121  0.7133 -0.1761  0.5598
  971MOL0     C30957   4.565   4.507   8.230 -1.0866  0.0667  0.8030
  971MOL0     O30958   4.446   4.573   8.217  0.4806 -0.8522 -0.1436
  971MOL0     C30959   4.341   4.566   8.320 -0.4254  0.0391  0.3337
  971MOL0     C30960   4.203   4.610   8.271 -0.1709  0.0050 -0.0408
  971MOL0     C30961   4.183   4.759   8.217 -0.4260 -0.7078  0.0376
  971MOL0     C30962   4.262   4.792   8.085  0.9783  0.9600 -0.4012
  971MOL0     C30963   4.210   4.916   8.014 -0.1815  0.5274 -0.0099
  971MOL0     C30964   4.124   4.895   7.893  0.1883 -0.9440  0.6984
  971MOL0     C30965   4.116   5.022   7.809  0.7191  0.3130  0.4908
  971MOL0     C30966   3.994   5.108   7.858 -0.1639 -0.3264 -0.4460
  971MOL0     N30967   3.863   5.043   7.837 -1.1033  0.4558  0.1678
  971MOL0     C30968   3.813   5.027   7.716  0.1338 -0.1531  0.3157
  971MOL0     C30969   3.704   4.951   7.746 -0.0723  1.6058  0.0095
  971MOL0     C30970   3.606   4.894   7.648  0.8509  0.7654  0.4366
  971MOL0     C30971   3.602   4.744   7.666  0.6015  1.3761  0.1129
  971MOL0     C30972   3.473   4.681   7.743 -0.4284  0.2739  0.1464
  971MOL0     C30973   3.343   4.683   7.658  0.8215  0.6078  0.8674
  971MOL0     O30974   3.265   4.792   7.704 -0.2230  0.6320 -0.0380
  971MOL0     C30975   3.176   4.839   7.608  0.5512  0.0423 -1.4872
  971MOL0     C30976   3.092   4.761   7.531  0.3122  0.2871  0.0116
  971MOL0     C30977   3.010   4.814   7.429  0.0529  0.6851 -0.3145
  971MOL0     C30978   2.939   4.715   7.348  0.2553  0.1805  0.7039
  971MOL0     C30979   3.015   4.956   7.411  0.7441 -0.6373  0.2375
  971MOL0     C30980   2.953   5.025   7.302  0.4428 -0.2616  0.3303
  971MOL0     O30981   2.833   4.983   7.243 -0.3526  1.0234 -1.0302
  971MOL0     C30982   2.778   5.037   7.128 -0.0332  0.4334 -0.9291
  971MOL0     C30983   2.814   5.149   7.054  0.2352  0.7500 -0.2152
  971MOL0     C30984   2.738   5.201   6.950 -0.3553 -0.1991 -0.3204
  971MOL0     C30985   2.620   5.127   6.911  0.4552 -0.4427  0.1174
  971MOL0     O30986   2.519   5.182   6.834 -0.6061 -0.4591 -0.9716
  971MOL0     C30987   2.537   5.318   6.781 -0.4745  0.6500 -0.0008
  971MOL0     C30988   2.419   5.341   6.685 -1.3453 -0.1108  0.1246
  971MOL0     C30989   2.439   5.262   6.561  0.0596  0.0741 -0.6466
  971MOL0     C30990   2.309   5.273   6.482 -0.7845 -0.0660 -0.0803
  971MOL0     C30991   2.310   5.207   6.348  0.0164  0.6671 -0.7713
  971MOL0     C30992   2.365   5.066   6.353  0.3271  0.2678  1.5182
  971MOL0     C30993   2.296   4.983   6.248  0.4961  0.0684  0.2613
  971MOL0     C30994   2.390   4.875   6.200  0.0793  0.5608 -0.1990
  971MOL0    Cl30995   2.521   4.948   6.110 -0.2246  0.3914  0.1489
  971MOL0     C30996   2.582   5.014   6.974 -0.3195  0.2526 -0.3341
  971MOL0     C30997   2.658   4.974   7.085  0.2727  0.2751 -0.2216
  971MOL0     O30998   3.007   5.137   7.275 -0.2488 -0.1305 -0.4894
  971MOL0     C30999   3.092   5.033   7.500  0.2725 -0.0170  0.4973
  971MOL0     C31000   3.173   4.978   7.597  2.0785 -0.1857 -0.3072
  971MOL0     N31001   3.698   4.924   7.882 -0.0005 -0.9056 -0.1972
  971MOL0     N31002   3.795   4.982   7.936 -0.5665 -0.6745 -0.6538
  971MOL0     C31003   4.617   4.480   8.357 -0.4988 -0.4351  0.8826
  971MOL0     C31004   4.739   4.409   8.372 -0.7911  0.1497 -0.8657
  971MOL0     C31005   5.121   4.176   8.223 -0.5520  0.7419 -0.1621
  971MOL0     C31006   5.174   4.069   8.170  0.9894  0.6592  0.5477
  971MOL0     C31007   5.310   4.032   8.176 -0.4610 -0.4964  0.4847
  971MOL0     C31008   5.412   4.109   8.235 -0.3134 -1.1884 -0.2707
  971MOL0     O31009   5.548   4.080   8.240 -0.2311 -0.4347  0.3991
  971MOL0     C31010   5.603   4.094   8.113 -0.1402 -0.1365 -0.1404
  971MOL0     C31011   5.756   4.127   8.143 -1.0287  0.8362  0.1578
  971MOL0     C31012   5.836   4.125   8.010  0.2787  0.8570  0.7344
  971MOL0     C31013   5.985   4.152   8.024  0.1118  0.4731 -0.3692
  971MOL0     C31014   6.051   4.046   8.104 -0.4197  0.5600 -0.0567
  971MOL0     C31015   6.113   3.962   8.166  0.6165  0.6908  1.1704
  971MOL0     C31016   5.356   4.212   8.309  0.4995  0.2008  0.1294
  971MOL0     C31017   5.215   4.249   8.301 -0.6674  0.6878  0.0857
  971MOL0     H31018   4.816   4.375   8.051 -2.2806 -2.2255  0.8420
  971MOL0     H31019   4.596   4.477   8.025 -3.9668 -2.8934  2.5852
  971MOL0     H31020   4.330   4.468   8.369 -2.0755  1.0117  2.0619
  971MOL0     H31021   4.371   4.634   8.400  3.4464 -0.6090 -0.3521
  971MOL0     H31022   4.171   4.553   8.183  1.4776 -2.5018  0.8755
  971MOL0     H31023   4.136   4.583   8.353  1.4231 -4.6235  0.0307
  971MOL0     H31024   4.077   4.788   8.222 -0.0816  0.4757  1.0644
  971MOL0     H31025   4.221   4.828   8.293 -1.1439 -0.2374 -0.0159
  971MOL0     H31026   4.367   4.815   8.106  0.1271  2.7154  2.5312
  971MOL0     H31027   4.259   4.702   8.022  0.4246  1.9697 -1.8545
  971MOL0     H31028   4.174   4.989   8.087 -1.5835 -0.2407  0.1077
  971MOL0     H31029   4.305   4.960   7.983  0.3583  1.0007  2.1467
  971MOL0     H31030   4.158   4.812   7.832 -0.9627  0.3309 -1.8070
  971MOL0     H31031   4.026   4.858   7.924 -1.0308 -0.0496 -1.8290
  971MOL0     H31032   4.209   5.080   7.812 -0.2506  2.1431 -1.5758
  971MOL0     H31033   4.094   4.989   7.707 -2.2467 -0.0684  1.1548
  971MOL0     H31034   4.003   5.206   7.810  0.8473  0.1348  0.6225
  971MOL0     H31035   3.998   5.120   7.967 -1.9104 -2.2432 -0.1106
  971MOL0     H31036   3.850   5.075   7.626  0.2337  0.6447  0.7678
  971MOL0     H31037   3.509   4.940   7.669  0.2932 -1.0881  2.1878
  971MOL0     H31038   3.629   4.909   7.542 -3.8777 -3.5167 -1.6210
  971MOL0     H31039   3.690   4.708   7.720  0.9953  0.3339 -1.1800
  971MOL0     H31040   3.599   4.700   7.566 -0.7645 -5.4440  2.6128
  971MOL0     H31041   3.463   4.732   7.839  1.8173 -0.4129  0.8176
  971MOL0     H31042   3.498   4.577   7.770  2.8795  1.1974  1.0943
  971MOL0     H31043   3.291   4.588   7.672  0.7401  0.8735  2.6488
  971MOL0     H31044   3.357   4.695   7.550  2.0569 -1.3390  0.7547
  971MOL0     H31045   3.079   4.656   7.557 -2.1887  0.7430  0.8714
  971MOL0     H31046   2.844   4.764   7.323  1.0750  2.8977  2.5051
  971MOL0     H31047   2.990   4.706   7.252 -1.4238 -1.4128 -0.1085
  971MOL0     H31048   2.936   4.627   7.412  1.4465 -1.1304 -0.9516
  971MOL0     H31049   2.891   5.215   7.093 -1.1687  2.8144 -0.7695
  971MOL0     H31050   2.752   5.299   6.906  0.1919  0.2053  0.7327
  971MOL0     H31051   2.531   5.390   6.863  0.2473  0.4623  0.2318
  971MOL0     H31052   2.636   5.326   6.734 -0.8866  0.3901 -0.9141
  971MOL0     H31053   2.338   5.295   6.742 -3.4300  0.9880 -1.7722
  971MOL0     H31054   2.397   5.444   6.656 -1.0286 -0.3248 -0.9046
  971MOL0     H31055   2.461   5.159   6.587  1.6789 -0.2348 -2.9099
  971MOL0     H31056   2.514   5.312   6.499  0.1436 -1.2462 -1.6626
  971MOL0     H31057   2.227   5.229   6.541 -0.5890  1.2320  1.2248
  971MOL0     H31058   2.285   5.380   6.484  0.6814  0.2870 -0.8332
  971MOL0     H31059   2.371   5.271   6.283  0.0292  0.2381 -1.1927
  971MOL0     H31060   2.211   5.201   6.301 -0.8383 -2.6509  1.1130
  971MOL0     H31061   2.473   5.060   6.341  0.1482 -6.2981 -0.8758
  971MOL0     H31062   2.347   5.020   6.451  2.1122 -1.2402  1.1843
  971MOL0     H31063   2.273   5.049   6.164  2.1679  2.3862  1.4918
  971MOL0     H31064   2.206   4.945   6.296  0.3897  4.2432  4.0954
  971MOL0     H31065   2.333   4.799   6.145 -3.4285  1.3485  2.0166
  971MOL0     H31066   2.434   4.814   6.279 -0.4820 -1.0504 -1.0684
  971MOL0     H31067   2.494   4.966   6.931 -0.7391 -0.7794  1.5810
  971MOL0     H31068   2.642   4.886   7.147  1.1911  0.1497 -0.1432
  971MOL0     H31069   3.107   5.139   7.483  0.6585 -0.0986  0.2951
  971MOL0     H31070   3.240   5.038   7.658  1.5649  0.2566 -0.1746
  971MOL0     H31071   4.551   4.499   8.441  1.5786  1.0739  2.2767
  971MOL0     H31072   4.778   4.381   8.469  1.9837  1.5590 -1.4739
  971MOL0     H31073   5.104   4.010   8.112  0.5807  0.6675  1.0240
  971MOL0     H31074   5.352   3.942   8.132  1.2236  0.0958  0.7999
  971MOL0     H31075   5.594   3.998   8.062  1.6307 -0.3156 -0.1745
  971MOL0     H31076   5.563   4.179   8.056  2.2909  2.6577  2.0189
  971MOL0     H31077   5.788   4.049   8.213 -3.0184 -1.8158 -1.6972
  971MOL0     H31078   5.765   4.230   8.181 -2.6398  0.6543  1.1040
  971MOL0     H31079   5.792   4.206   7.951 -0.1414 -1.9071 -3.0987
  971MOL0     H31080   5.806   4.029   7.966  2.2596  0.7943 -0.5450
  971MOL0     H31081   5.994   4.252   8.067  1.1535  0.7450 -1.1664
  971MOL0     H31082   6.026   4.157   7.923 -0.8471  0.2248 -0.7906
  971MOL0     H31083   6.176   3.890   8.214  2.4367 -0.2644 -2.2958
  971MOL0     H31084   5.436   4.270   8.355  0.3216  0.0707  0.6151
  971MOL0     H31085   5.188   4.350   8.332  0.8758  0.6542  1.7107
  972MOL0     O31086   1.023   3.313   0.925 -0.5904 -0.2225 -0.6071
  972MOL0     C31087   1.138   3.285   0.885 -0.5220  0.2826  0.1468
  972MOL0     O31088   1.257   3.324   0.944  0.5995 -0.5234 -0.4467
  972MOL0     C31089   1.241   3.390   1.067 -0.4270 -0.2767  0.5590
  972MOL0     C31090   1.262   3.316   1.180  0.0286  0.4351 -0.6869
  972MOL0     C31091   1.262   3.363   1.309  0.4496 -0.4602  0.3584
  972MOL0     C31092   1.238   3.501   1.330  0.0847  0.1623  0.7793
  972MOL0     O31093   1.239   3.540   1.461 -0.1680  0.4831  0.1552
  972MOL0     C31094   1.175   3.650   1.517 -0.3819 -0.0793 -0.2496
  972MOL0     C31095   1.100   3.595   1.639 -0.7916  1.0490 -0.5769
  972MOL0     C31096   1.028   3.706   1.716 -0.8438 -0.6009  0.3525
  972MOL0     C31097   0.929   3.784   1.621 -0.3445 -0.2603  0.2162
  972MOL0     C31098   0.832   3.865   1.702 -0.5500  0.0413  0.0783
  972MOL0     C31099   0.916   3.974   1.775 -0.2066  0.7023 -0.0862
  972MOL0     C31100   0.829   4.088   1.831  0.2483  0.5106  0.4580
  972MOL0     C31101   0.912   4.182   1.926  0.4803 -0.1284  0.0940
  972MOL0     N31102   0.838   4.305   1.954 -0.1649 -0.3711 -0.5172
  972MOL0     C31103   0.834   4.405   1.869 -0.3980 -0.7332 -0.3241
  972MOL0     C31104   0.745   4.493   1.922  0.1757 -0.6444 -0.2068
  972MOL0     C31105   0.698   4.629   1.875  0.1376 -0.0561  0.6801
  972MOL0     C31106   0.553   4.615   1.817 -0.5101 -0.1736  0.4385
  972MOL0     C31107   0.480   4.746   1.781 -0.0944  0.6000  0.4909
  972MOL0     C31108   0.510   4.803   1.647 -0.0528 -0.1510  0.0609
  972MOL0     O31109   0.489   4.706   1.534  0.8115 -0.4963 -0.6489
  972MOL0     C31110   0.515   4.734   1.400 -0.6488  0.3505 -0.5808
  972MOL0     C31111   0.551   4.862   1.377  0.5334 -0.3643  0.8695
  972MOL0     C31112   0.607   4.895   1.249 -0.5999 -0.0693  0.0832
  972MOL0     C31113   0.667   5.037   1.231 -0.0927 -1.1323  0.3441
  972MOL0     C31114   0.629   4.795   1.150 -0.0333 -0.1923  0.4265
  972MOL0     C31115   0.694   4.822   1.031 -0.1702  0.3425  0.1296
  972MOL0     O31116   0.624   4.816   0.918 -0.1016  0.2733  0.1209
  972MOL0     C31117   0.693   4.831   0.796 -0.0038 -0.9796  0.2265
  972MOL0     C31118   0.724   4.957   0.747 -0.0619  0.5355  0.6367
  972MOL0     C31119   0.781   4.968   0.618 -0.4644 -0.0347 -1.0963
  972MOL0     C31120   0.819   4.855   0.551  0.5356  0.9152 -0.4422
  972MOL0     O31121   0.891   4.866   0.436  0.2215 -1.0412  0.2706
  972MOL0     C31122   0.822   4.827   0.316 -0.1381 -0.3852 -0.0398
  972MOL0     C31123   0.928   4.787   0.220 -1.0669 -0.4715 -0.1292
  972MOL0     C31124   0.878   4.662   0.146 -0.3444 -0.2118  0.4254
  972MOL0     C31125   0.982   4.570   0.070 -0.1346 -0.3041 -0.4935
  972MOL0     C31126   0.910   4.441   0.033  0.8861 -0.2087 -0.7106
  972MOL0     C31127   0.781   4.469  -0.044 -0.5820 -0.5592  0.2873
  972MOL0     C31128   0.736   4.345  -0.122  1.2984  0.2462  0.0013
  972MOL0     C31129   0.617   4.369  -0.212 -0.0513 -0.0956  0.1234
  972MOL0    Cl31130   0.652   4.500  -0.334 -0.2905 -0.5645 -0.2593
  972MOL0     C31131   0.789   4.723   0.606 -0.5037 -0.1107  1.1188
  972MOL0     C31132   0.718   4.714   0.721 -0.5639  0.0558 -0.4002
  972MOL0     O31133   0.815   4.856   1.037 -0.2254  0.1676 -0.3002
  972MOL0     C31134   0.580   4.665   1.179 -0.6344  0.4529  0.9946
  972MOL0     C31135   0.534   4.632   1.299  0.1986  0.1003 -0.3210
  972MOL0     N31136   0.690   4.441   2.038  0.3980 -0.4789 -0.7583
  972MOL0     N31137   0.744   4.325   2.046  0.4282 -0.6765  0.5017
  972MOL0     C31138   1.233   3.586   1.214  0.0171 -0.0153 -1.2233
  972MOL0     C31139   1.237   3.534   1.083 -0.0263  0.3430  0.2369
  972MOL0     C31140   1.150   3.243   0.746 -0.0279  0.5710  0.4045
  972MOL0     C31141   1.278   3.203   0.692  0.3548  0.0629 -0.4363
  972MOL0     C31142   1.294   3.160   0.561 -0.6713  0.2730 -0.3399
  972MOL0     C31143   1.185   3.167   0.474  0.9433 -0.3028  0.1978
  972MOL0     O31144   1.197   3.134   0.344 -0.2312 -0.5241 -0.0031
  972MOL0     C31145   1.137   3.224   0.242 -0.3681 -0.4908  0.1738
  972MOL0     C31146   1.207   3.359   0.232 -0.0534 -0.3956 -0.2979
  972MOL0     C31147   1.354   3.348   0.195  0.3802 -0.3484  0.2647
  972MOL0     C31148   1.417   3.487   0.186  0.4889 -0.8000 -0.5224
  972MOL0     C31149   1.554   3.474   0.148 -0.0183  0.0837  0.0261
  972MOL0     C31150   1.669   3.441   0.127 -0.5110  0.6306 -0.6744
  972MOL0     C31151   1.055   3.190   0.530 -0.4263 -1.0339  0.2483
  972MOL0     C31152   1.036   3.240   0.657  1.0008  0.6792 -0.6731
  972MOL0     H31153   1.289   3.211   1.177 -0.5545  0.2782 -0.5390
  972MOL0     H31154   1.263   3.290   1.390  3.4609 -2.6195 -1.4300
  972MOL0     H31155   1.251   3.724   1.541  0.6724 -1.9472  2.8080
  972MOL0     H31156   1.105   3.693   1.445 -0.0381  1.9554  0.5843
  972MOL0     H31157   1.023   3.522   1.611  0.7977 -0.2727 -1.6585
  972MOL0     H31158   1.173   3.553   1.709  0.2022 -1.1168 -2.7636
  972MOL0     H31159   0.961   3.669   1.795  0.0800 -2.5474  0.2893
  972MOL0     H31160   1.112   3.756   1.766  0.0334 -2.5608  0.9550
  972MOL0     H31161   0.983   3.843   1.547 -1.6869 -1.4048 -1.7861
  972MOL0     H31162   0.871   3.714   1.560  0.4501  3.3943 -5.4171
  972MOL0     H31163   0.751   3.914   1.648  0.3964  0.4980 -0.9629
  972MOL0     H31164   0.800   3.800   1.784 -4.0246  2.1474  0.6073
  972MOL0     H31165   0.979   3.934   1.856 -2.2924 -0.6932  0.9568
  972MOL0     H31166   0.980   4.024   1.702 -0.0709  0.4888 -0.1125
  972MOL0     H31167   0.799   4.145   1.743 -1.3903 -0.8107  0.1268
  972MOL0     H31168   0.745   4.043   1.883  1.4222 -1.3042  0.8927
  972MOL0     H31169   1.013   4.204   1.889  0.6743 -1.0913  0.0354
  972MOL0     H31170   0.916   4.146   2.029  1.0866  1.7059  0.7524
  972MOL0     H31171   0.902   4.427   1.788 -1.3176  1.9932 -0.4668
  972MOL0     H31172   0.689   4.703   1.955 -2.3002  1.7781 -1.1224
  972MOL0     H31173   0.772   4.674   1.808 -0.3328  0.0472  0.2192
  972MOL0     H31174   0.498   4.561   1.894  0.8314  0.0377  1.5858
  972MOL0     H31175   0.568   4.554   1.728 -2.2548  1.4669 -1.0846
  972MOL0     H31176   0.494   4.825   1.855  0.7849  0.2824  0.6765
  972MOL0     H31177   0.372   4.726   1.784 -0.4789  1.7744 -2.2067
  972MOL0     H31178   0.616   4.830   1.637 -0.3907  1.5832  0.7875
  972MOL0     H31179   0.459   4.899   1.637 -1.9898 -1.1925 -0.6917
  972MOL0     H31180   0.549   4.949   1.441  4.0362  0.6302 -0.1595
  972MOL0     H31181   0.772   5.040   1.261 -0.0229  5.8926  1.1206
  972MOL0     H31182   0.659   5.074   1.128 -1.2592  3.0823  1.7258
  972MOL0     H31183   0.615   5.111   1.292 -2.5334  1.0956 -3.9204
  972MOL0     H31184   0.692   5.048   0.797  3.0331  0.9651  2.0848
  972MOL0     H31185   0.787   5.065   0.569 -0.1680  0.5225 -0.0028
  972MOL0     H31186   0.756   4.742   0.331  0.4369 -2.0935 -5.1801
  972MOL0     H31187   0.758   4.903   0.269 -0.2698  1.0355  2.2703
  972MOL0     H31188   0.946   4.869   0.150 -1.6061 -1.4946 -1.4985
  972MOL0     H31189   1.017   4.752   0.273 -1.4655  0.1309  0.9749
  972MOL0     H31190   0.801   4.697   0.076 -0.6908  2.1019  1.8587
  972MOL0     H31191   0.830   4.596   0.219  0.3549  2.1250  3.1774
  972MOL0     H31192   1.021   4.623  -0.018 -3.4397  4.1498  0.3795
  972MOL0     H31193   1.066   4.552   0.137  0.5339  2.6789 -0.3721
  972MOL0     H31194   0.887   4.387   0.125 -0.3175  0.7434 -0.4284
  972MOL0     H31195   0.979   4.379  -0.026  0.6531  0.3933 -1.6396
  972MOL0     H31196   0.694   4.496   0.016 -1.7750  1.5373 -2.2191
  972MOL0     H31197   0.806   4.539  -0.123 -1.9462 -1.3274 -0.8640
  972MOL0     H31198   0.710   4.271  -0.046 -3.1433 -1.7918 -3.0917
  972MOL0     H31199   0.817   4.294  -0.176 -1.1942 -1.9115 -1.9366
  972MOL0     H31200   0.534   4.405  -0.151 -0.2693 -3.1452  1.8539
  972MOL0     H31201   0.573   4.277  -0.250 -0.0989  0.5531 -1.4649
  972MOL0     H31202   0.798   4.629   0.553 -0.7866  1.6880 -2.4781
  972MOL0     H31203   0.677   4.618   0.751 -1.1575  0.3128 -0.3663
  972MOL0     H31204   0.599   4.581   1.113  4.2681  2.3071 -0.4139
  972MOL0     H31205   0.506   4.533   1.334  1.5454  0.9531  3.7050
  972MOL0     H31206   1.226   3.693   1.232  3.4134  0.1118  0.0727
  972MOL0     H31207   1.231   3.598   0.996 -0.5679 -3.6943 -3.0345
  972MOL0     H31208   1.371   3.220   0.746 -0.0557  3.7011 -0.5897
  972MOL0     H31209   1.392   3.142   0.518  0.0300 -0.5262  1.4966
  972MOL0     H31210   1.128   3.172   0.147 -2.6746 -0.8313  0.5378
  972MOL0     H31211   1.037   3.252   0.277  0.8975  0.5789  3.4036
  972MOL0     H31212   1.206   3.422   0.322 -0.1683 -2.5507  1.2915
  972MOL0     H31213   1.154   3.419   0.158 -1.9396  0.8460  1.9304
  972MOL0     H31214   1.369   3.300   0.098  1.8952 -0.0539  0.3337
  972MOL0     H31215   1.399   3.286   0.273 -0.6230 -0.8886  0.4274
  972MOL0     H31216   1.406   3.544   0.279 -0.8460 -2.9565  0.7348
  972MOL0     H31217   1.366   3.539   0.106  0.9774 -0.1132 -0.3971
  972MOL0     H31218   1.769   3.407   0.106 -1.0133 -1.4458  0.0513
  972MOL0     H31219   0.964   3.180   0.472 -0.1439  1.0905 -0.6559
  972MOL0     H31220   0.936   3.265   0.690 -0.0530  1.7372 -4.2720
  973MOL0     O31221   0.745   9.175   8.488  0.0996  0.2259  0.2222
  973MOL0     C31222   0.862   9.140   8.503  0.4665  0.5549  0.0862
  973MOL0     O31223   0.957   9.226   8.547  0.0174  0.2961 -0.3729
  973MOL0     C31224   0.937   9.361   8.533  0.9970 -0.1544  0.8956
  973MOL0     C31225   1.027   9.432   8.467 -0.1653 -0.3357  0.1950
  973MOL0     C31226   1.014   9.565   8.434  0.4822 -0.4016  0.4624
  973MOL0     C31227   0.907   9.644   8.480  0.2854 -0.2770  0.3621
  973MOL0     O31228   0.898   9.782   8.468 -1.0630  0.8110  0.5786
  973MOL0     C31229   0.993   9.842   8.373 -0.3485 -0.1346  0.4518
  973MOL0     C31230   0.940   9.854   8.224  0.6334  0.1665  0.0760
  973MOL0     C31231   0.799   9.931   8.232 -0.2081  0.8356 -0.4130
  973MOL0     C31232   0.742   9.968   8.096 -1.0351  0.4192  0.5888
  973MOL0     C31233   0.602  10.024   8.116  0.5551 -0.9918  0.3165
  973MOL0     C31234   0.615  10.166   8.196  0.1648  0.1173  0.2435
  973MOL0     C31235   0.505  10.267   8.144  0.8420  0.4144 -0.4947
  973MOL0     C31236   0.466  10.390   8.238 -0.0413 -0.1972  1.1887
  973MOL0     N31237   0.575  10.490   8.260 -0.2228  0.6396 -0.2538
  973MOL0     C31238   0.694  10.467   8.335 -0.3682  0.0341 -0.5160
  973MOL0     C31239   0.777  10.573   8.297  0.2669 -0.7645  0.8709
  973MOL0     C31240   0.923  10.566   8.324 -0.4268 -0.4409  0.2382
  973MOL0     C31241   0.996  10.708   8.315 -0.0543  0.1749 -0.4229
  973MOL0     C31242   1.140  10.692   8.375  0.0075 -0.3871  0.4668
  973MOL0     C31243   1.154  10.646   8.525  0.4903  0.3661  0.3313
  973MOL0     O31244   1.291  10.634   8.570 -0.0465  0.4041  0.0374
  973MOL0     C31245   1.357  10.755   8.572 -1.0917 -0.0175 -0.5068
  973MOL0     C31246   1.436  10.811   8.470  0.3466 -0.4286  0.5518
  973MOL0     C31247   1.509  10.933   8.483  0.2443  1.0048 -0.7820
  973MOL0     C31248   1.562  11.001   8.357  0.4323 -0.5611  0.6748
  973MOL0     C31249   1.505  10.994   8.613  0.7037 -0.6133  0.1254
  973MOL0     C31250   1.590  11.111   8.646 -0.2451 -0.5864 -0.0771
  973MOL0     O31251   1.574  11.178   8.766  0.7770 -0.7657  0.1958
  973MOL0     C31252   1.635  11.299   8.787 -0.3530 -0.5442 -0.2684
  973MOL0     C31253   1.627  11.407   8.699  0.3557  0.3030 -0.2210
  973MOL0     C31254   1.715  11.514   8.710 -0.1129  0.1646  0.6119
  973MOL0     C31255   1.805  11.530   8.821  1.1633 -0.4532 -0.8338
  973MOL0     O31256   1.880  11.633   8.865 -0.0061  0.2064  0.1761
  973MOL0     C31257   1.909  11.719   8.754  0.1891  0.1410  0.2320
  973MOL0     C31258   2.020  11.823   8.792  0.3048 -0.1806 -0.8194
  973MOL0     C31259   1.959  11.919   8.888  0.0122 -0.7370 -0.2104
  973MOL0     C31260   2.034  12.049   8.902  0.2556  0.2513 -0.0368
  973MOL0     C31261   2.008  12.129   9.031  0.6170 -0.5056 -0.1219
  973MOL0     C31262   1.872  12.179   9.076  0.6866 -0.6332 -0.2984
  973MOL0     C31263   1.876  12.186   9.237  0.5037 -0.5291 -0.3191
  973MOL0     C31264   1.731  12.172   9.298 -0.6769  0.0443 -0.2479
  973MOL0    Cl31265   1.664  12.326   9.257  0.2217 -0.3695  0.0868
  973MOL0     C31266   1.791  11.432   8.917  0.0117 -0.7572 -0.3328
  973MOL0     C31267   1.721  11.312   8.890  0.0045 -0.1303 -0.3137
  973MOL0     O31268   1.670  11.150   8.563  0.1882  0.9712  0.4796
  973MOL0     C31269   1.425  10.943   8.715 -0.5205  0.1752  0.5683
  973MOL0     C31270   1.356  10.827   8.691 -0.2741 -0.0528 -0.5933
  973MOL0     N31271   0.718  10.649   8.195  1.0973 -0.0523 -0.0234
  973MOL0     N31272   0.598  10.591   8.181  0.6517  0.3242 -0.1836
  973MOL0     C31273   0.816   9.577   8.564  0.8659  0.0585  0.4365
  973MOL0     C31274   0.826   9.439   8.581 -0.5505  0.1274  0.3099
  973MOL0     C31275   0.896   9.003   8.461 -0.6132  0.4973  0.1465
  973MOL0     C31276   0.810   8.943   8.364  0.0559  0.2280 -0.1198
  973MOL0     C31277   0.835   8.812   8.330 -0.1191 -0.0301  0.5113
  973MOL0     C31278   0.920   8.730   8.385 -0.1705  0.0946 -0.5679
  973MOL0     O31279   0.929   8.596   8.345  0.2907 -0.1899  0.2809
  973MOL0     C31280   0.989   8.493   8.431 -0.1220  0.7028 -0.2032
  973MOL0     C31281   1.137   8.477   8.392 -0.4974 -0.1647  0.4875
  973MOL0     C31282   1.165   8.354   8.305 -0.0429 -0.8074 -1.0364
  973MOL0     C31283   1.135   8.395   8.164  0.1794 -0.1120  0.2637
  973MOL0     C31284   1.185   8.297   8.066 -0.8415 -0.8187 -0.2952
  973MOL0     C31285   1.243   8.221   7.989 -0.0043  0.4616 -0.2281
  973MOL0     C31286   1.015   8.783   8.481  0.6875 -0.3210 -0.7169
  973MOL0     C31287   0.996   8.920   8.524  0.0647 -0.0554  0.6679
  973MOL0     H31288   1.115   9.379   8.432  1.3609  2.0420  0.1819
  973MOL0     H31289   1.103   9.606   8.389  0.6923 -0.2242  1.0241
  973MOL0     H31290   0.998   9.946   8.406 -0.8868  0.2340 -0.5670
  973MOL0     H31291   1.092   9.795   8.384 -2.0761 -3.4692  4.9576
  973MOL0     H31292   1.009   9.909   8.159  0.0405  1.1925  0.2993
  973MOL0     H31293   0.929   9.753   8.181 -3.9254  0.1336  0.8556
  973MOL0     H31294   0.725   9.863   8.276 -2.2120  1.5058 -2.5650
  973MOL0     H31295   0.815  10.022   8.291  1.4255  0.2626  0.1047
  973MOL0     H31296   0.809  10.042   8.050 -1.9121  0.5316 -0.5598
  973MOL0     H31297   0.740   9.878   8.034 -0.2734  0.0567  1.0740
  973MOL0     H31298   0.549  10.031   8.020 -1.1903  0.3153  1.3036
  973MOL0     H31299   0.550   9.952   8.180  2.0866 -1.0624  1.5423
  973MOL0     H31300   0.598  10.125   8.296 -1.8577 -3.8219 -1.4811
  973MOL0     H31301   0.714  10.211   8.178  0.6000 -0.7262  0.4481
  973MOL0     H31302   0.523  10.309   8.044 -4.6272  5.7930  0.1534
  973MOL0     H31303   0.416  10.203   8.145  1.8284 -1.0092  1.3691
  973MOL0     H31304   0.429  10.355   8.335  1.1984 -4.0690  0.4288
  973MOL0     H31305   0.391  10.446   8.181 -0.4404  0.6331  2.4653
  973MOL0     H31306   0.744  10.379   8.375  0.4254 -0.8495 -3.1998
  973MOL0     H31307   0.937  10.513   8.418 -1.9376 -3.1309 -0.9466
  973MOL0     H31308   0.962  10.496   8.249 -0.7934 -0.2747 -0.1084
  973MOL0     H31309   0.931  10.784   8.361 -1.2814  0.6486 -2.8059
  973MOL0     H31310   1.019  10.729   8.210 -0.7747  1.3189 -0.3608
  973MOL0     H31311   1.186  10.791   8.370  3.0749 -1.3939  4.1401
  973MOL0     H31312   1.200  10.635   8.304 -2.2150  0.4868 -2.3177
  973MOL0     H31313   1.106  10.548   8.533 -1.1524  1.0235 -0.8263
  973MOL0     H31314   1.099  10.719   8.584 -1.7426 -0.6873 -0.3703
  973MOL0     H31315   1.447  10.763   8.373  0.0609 -3.5915  1.9471
  973MOL0     H31316   1.517  10.958   8.267  0.7788 -1.2464  0.8249
  973MOL0     H31317   1.516  11.100   8.356 -0.4548 -0.9545 -0.5953
  973MOL0     H31318   1.671  11.009   8.351  0.3773 -0.3814 -0.2122
  973MOL0     H31319   1.565  11.391   8.611  1.0607 -1.8055 -0.4054
  973MOL0     H31320   1.710  11.591   8.633 -1.2182 -1.1484 -0.6927
  973MOL0     H31321   1.953  11.659   8.674 -0.0293 -0.8207  0.8168
  973MOL0     H31322   1.820  11.771   8.718  0.7823  2.2912  1.6899
  973MOL0     H31323   2.095  11.768   8.850  1.5391 -0.1231 -2.2743
  973MOL0     H31324   2.061  11.875   8.705 -2.8887  2.2684 -1.0150
  973MOL0     H31325   1.956  11.868   8.985 -0.3092  1.4424  1.0185
  973MOL0     H31326   1.857  11.938   8.852 -0.0883 -1.3633 -0.2683
  973MOL0     H31327   2.142  12.029   8.908 -0.4003 -3.5256  3.0748
  973MOL0     H31328   2.005  12.104   8.812  1.2640 -2.0265 -1.8724
  973MOL0     H31329   2.072  12.216   9.014  1.1504 -1.3302 -2.8761
  973MOL0     H31330   2.049  12.068   9.111 -2.3886 -2.9317 -0.2308
  973MOL0     H31331   1.867  12.280   9.035  1.3953 -0.2138  0.6079
  973MOL0     H31332   1.786  12.114   9.057  1.5041 -1.7180 -0.3168
  973MOL0     H31333   1.917  12.281   9.271  0.4949 -2.2359  5.6265
  973MOL0     H31334   1.946  12.114   9.281  0.9196 -2.0011 -3.1594
  973MOL0     H31335   1.751  12.163   9.405 -0.1338 -1.1484 -0.4278
  973MOL0     H31336   1.671  12.088   9.262 -1.2935  2.3748 -5.5807
  973MOL0     H31337   1.853  11.432   9.006 -0.0368 -2.2370 -0.2652
  973MOL0     H31338   1.699  11.232   8.960 -0.4968  1.3302  1.2844
  973MOL0     H31339   1.425  10.989   8.813  0.3702 -2.2083  1.7580
  973MOL0     H31340   1.301  10.785   8.775  1.5756 -0.8268  0.2900
  973MOL0     H31341   0.736   9.639   8.603 -1.5544 -1.4641 -1.7602
  973MOL0     H31342   0.750   9.398   8.647 -2.2368  3.4080  0.6282
  973MOL0     H31343   0.723   9.000   8.332 -0.2999  0.6236  1.4657
  973MOL0     H31344   0.773   8.767   8.253 -0.8414  0.2810  0.9018
  973MOL0     H31345   0.972   8.522   8.535  0.1658  0.5385 -0.1097
  973MOL0     H31346   0.948   8.393   8.412 -0.9542  1.0268 -0.1631
  973MOL0     H31347   1.200   8.467   8.480  0.3701  1.5168  0.0967
  973MOL0     H31348   1.180   8.567   8.348 -0.6332 -1.3841 -2.3934
  973MOL0     H31349   1.105   8.267   8.335 -0.5056  0.4076  1.9181
  973MOL0     H31350   1.270   8.326   8.304 -0.6594 -3.3286 -0.6834
  973MOL0     H31351   1.174   8.493   8.134 -0.7688 -0.5714 -2.9172
  973MOL0     H31352   1.028   8.394   8.142 -0.0869 -2.4782  1.3006
  973MOL0     H31353   1.293   8.153   7.923  1.4073  0.7434  0.5013
  973MOL0     H31354   1.093   8.729   8.534  0.2193 -0.8310 -0.5416
  973MOL0     H31355   1.049   8.968   8.604  0.5787 -1.3955  1.1622
  974MOL0     O31356   9.081   7.851   1.532 -0.9844 -0.0379 -0.3067
  974MOL0     C31357   9.157   7.861   1.428  0.4765  0.2507  0.2993
  974MOL0     O31358   9.174   7.763   1.333  0.9603  0.4853  0.3656
  974MOL0     C31359   9.142   7.640   1.365 -0.1404  0.5925  0.6361
  974MOL0     C31360   9.051   7.568   1.283  0.5774 -0.7332  0.6860
  974MOL0     C31361   9.043   7.431   1.279 -0.2308  0.7214 -0.7302
  974MOL0     C31362   9.131   7.354   1.369  0.7444 -0.1945 -0.0439
  974MOL0     O31363   9.138   7.220   1.368  0.0187  0.1747  0.5385
  974MOL0     C31364   9.012   7.140   1.387 -0.5942 -0.7394  0.2122
  974MOL0     C31365   8.943   7.187   1.515 -0.8640 -0.3357  1.0097
  974MOL0     C31366   8.842   7.080   1.554  0.2368  0.0862  0.4074
  974MOL0     C31367   8.902   6.942   1.593 -0.2860  0.5249  0.4570
  974MOL0     C31368   8.794   6.860   1.665  0.6542 -0.4286 -0.6766
  974MOL0     C31369   8.666   6.826   1.590 -0.2741  0.1687  0.7178
  974MOL0     C31370   8.693   6.725   1.479 -1.0102 -0.3112 -0.7617
  974MOL0     C31371   8.677   6.790   1.334  0.9925 -0.2670 -0.4810
  974MOL0     N31372   8.667   6.690   1.229  0.5769  0.6048 -0.2712
  974MOL0     C31373   8.767   6.601   1.184 -0.1859 -0.2027 -0.3953
  974MOL0     C31374   8.704   6.522   1.091 -0.5946 -0.4339 -0.5283
  974MOL0     C31375   8.771   6.414   1.012  0.0677 -0.1432  0.0667
  974MOL0     C31376   8.744   6.273   1.063  0.4208  0.7155 -0.1612
  974MOL0     C31377   8.717   6.165   0.958  0.5771  0.4815 -0.1538
  974MOL0     C31378   8.811   6.146   0.841 -0.2494  0.1652  0.9265
  974MOL0     O31379   8.940   6.123   0.894  0.4386  0.3498  0.8785
  974MOL0     C31380   9.039   6.214   0.856 -1.3322  1.0168 -0.2946
  974MOL0     C31381   9.072   6.249   0.725  0.0822  0.7186 -0.0019
  974MOL0     C31382   9.168   6.341   0.695  1.0281 -1.3882  0.2963
  974MOL0     C31383   9.157   6.403   0.554 -1.0789 -0.4667 -0.4897
  974MOL0     C31384   9.257   6.399   0.791 -0.0297  1.0762 -0.2864
  974MOL0     C31385   9.358   6.504   0.776  0.5278 -0.3922 -0.5409
  974MOL0     O31386   9.393   6.577   0.887 -0.1413  0.2890 -0.3260
  974MOL0     C31387   9.486   6.672   0.870  0.1233 -0.2305  0.5500
  974MOL0     C31388   9.445   6.817   0.839  0.2528  0.5398 -0.6322
  974MOL0     C31389   9.551   6.907   0.819  0.4597 -0.3232  0.5123
  974MOL0     C31390   9.680   6.867   0.823 -0.1182  0.0464 -0.2021
  974MOL0     O31391   9.775   6.966   0.799  0.0411 -0.2325  0.0961
  974MOL0     C31392   9.811   7.020   0.930  0.3880  0.1690 -0.0624
  974MOL0     C31393   9.900   7.144   0.909 -0.6064 -0.1537 -0.4571
  974MOL0     C31394   9.833   7.269   0.846 -0.0636  0.6264  0.2777
  974MOL0     C31395   9.865   7.404   0.906 -0.3203 -1.0362  0.1060
  974MOL0     C31396   9.809   7.529   0.841 -0.2354 -0.7255  0.1628
  974MOL0     C31397   9.825   7.648   0.936  0.3204  0.8400 -0.0505
  974MOL0     C31398   9.723   7.757   0.896  0.2041 -0.2039 -0.3580
  974MOL0     C31399   9.737   7.872   1.001  0.3624  0.5516 -0.1887
  974MOL0    Cl31400   9.617   7.870   1.128 -0.3088  0.3084 -0.2572
  974MOL0     C31401   9.713   6.735   0.830 -0.6096  0.2170  0.7173
  974MOL0     C31402   9.620   6.642   0.864 -0.4593  1.4698  1.0121
  974MOL0     O31403   9.400   6.527   0.660 -0.0589  0.1954 -0.1875
  974MOL0     C31404   9.239   6.346   0.924  0.2194 -0.1700 -0.7391
  974MOL0     C31405   9.135   6.263   0.950  0.1851 -0.6242 -0.5288
  974MOL0     N31406   8.582   6.571   1.068  0.0603 -0.0167 -0.4109
  974MOL0     N31407   8.554   6.660   1.159 -0.3200 -0.4166 -0.0887
  974MOL0     C31408   9.211   7.422   1.456  0.6380 -0.0152  0.4678
  974MOL0     C31409   9.225   7.559   1.449  0.1623  0.4014  0.2505
  974MOL0     C31410   9.239   7.986   1.414 -1.0861  0.1746 -0.9453
  974MOL0     C31411   9.255   8.089   1.518  0.2000 -0.5850  0.1553
  974MOL0     C31412   9.350   8.187   1.501 -0.7678  0.2001 -0.8797
  974MOL0     C31413   9.433   8.198   1.390  0.1063  0.7563  0.3878
  974MOL0     O31414   9.530   8.297   1.384 -0.2033 -0.6300 -0.2855
  974MOL0     C31415   9.660   8.240   1.353  0.5630  0.8247  0.5040
  974MOL0     C31416   9.773   8.315   1.418  0.3937  0.6387  0.0519
  974MOL0     C31417   9.766   8.338   1.571  0.2600 -0.4732 -0.1096
  974MOL0     C31418   9.884   8.408   1.645 -0.5933  0.8551  0.2841
  974MOL0     C31419   9.898   8.357   1.783 -0.3465  0.1714  1.1876
  974MOL0     C31420   9.921   8.312   1.893  0.5751 -0.3019  0.8030
  974MOL0     C31421   9.405   8.108   1.282 -0.2149 -0.2273  0.5138
  974MOL0     C31422   9.318   8.001   1.299 -0.3611 -0.2520  0.3092
  974MOL0     H31423   8.981   7.622   1.220 -0.1310  0.5000  2.4608
  974MOL0     H31424   8.976   7.379   1.211 -0.0399  2.1215 -2.0538
  974MOL0     H31425   8.944   7.161   1.304 -0.4948 -1.5855 -0.0916
  974MOL0     H31426   9.037   7.033   1.390  0.6192 -0.4577  0.8836
  974MOL0     H31427   9.025   7.190   1.587  0.9757 -2.9724 -0.7887
  974MOL0     H31428   8.903   7.289   1.501  5.4438  2.4117 -0.2368
  974MOL0     H31429   8.791   7.113   1.645 -0.5692  0.0485 -0.0171
  974MOL0     H31430   8.763   7.066   1.480  0.8980  2.2281 -0.7739
  974MOL0     H31431   8.932   6.888   1.503  1.1211  2.5116 -0.3401
  974MOL0     H31432   8.994   6.960   1.649 -1.2488  1.7671  1.7355
  974MOL0     H31433   8.842   6.766   1.691  3.4245  0.9682 -0.3911
  974MOL0     H31434   8.764   6.902   1.762  1.3989  0.5594 -0.8590
  974MOL0     H31435   8.596   6.784   1.663  1.1104  1.0794  2.6338
  974MOL0     H31436   8.608   6.912   1.554 -0.0319 -1.0946 -3.1886
  974MOL0     H31437   8.785   6.667   1.490 -1.4656 -0.5976  2.2559
  974MOL0     H31438   8.617   6.646   1.488  0.4821 -1.5426  3.6541
  974MOL0     H31439   8.758   6.863   1.320 -1.1946  2.9466  2.0465
  974MOL0     H31440   8.577   6.834   1.336  0.8801 -0.5325 -0.3427
  974MOL0     H31441   8.866   6.592   1.228 -0.4143 -1.2444 -0.0704
  974MOL0     H31442   8.732   6.418   0.910 -0.6330 -1.7048  0.2407
  974MOL0     H31443   8.880   6.426   1.016 -0.2158  3.0043  1.6716
  974MOL0     H31444   8.650   6.284   1.116 -0.6163  2.3894 -2.1974
  974MOL0     H31445   8.818   6.248   1.140 -1.7028  0.8037  2.0168
  974MOL0     H31446   8.615   6.174   0.920 -0.3483 -1.5495  1.6513
  974MOL0     H31447   8.713   6.066   1.003  1.4625 -0.0146 -1.1131
  974MOL0     H31448   8.809   6.243   0.792  0.1849  1.2214  2.8988
  974MOL0     H31449   8.773   6.075   0.767  0.9336  0.2410  0.2250
  974MOL0     H31450   9.023   6.200   0.641  2.9549 -1.4186 -0.6130
  974MOL0     H31451   9.059   6.389   0.508  0.0303 -0.8883 -2.8642
  974MOL0     H31452   9.171   6.512   0.560 -2.5895 -0.2730 -0.0022
  974MOL0     H31453   9.234   6.369   0.485 -0.4998 -3.5643  1.4885
  974MOL0     H31454   9.347   6.860   0.825  0.2095  0.8521  0.5239
  974MOL0     H31455   9.520   7.010   0.808  0.4700 -0.3148  0.5634
  974MOL0     H31456   9.727   7.038   0.999  1.7323 -0.0786  1.6968
  974MOL0     H31457   9.876   6.954   0.988 -1.1417 -0.4160  1.0527
  974MOL0     H31458   9.951   7.174   1.001  1.0615  2.7006 -2.1570
  974MOL0     H31459   9.980   7.116   0.840 -0.5951  1.4779 -1.1635
  974MOL0     H31460   9.725   7.256   0.855  0.0786  0.0016  1.2180
  974MOL0     H31461   9.858   7.279   0.740 -1.8707  2.2704 -0.0587
  974MOL0     H31462   9.828   7.409   1.009  1.1661  3.3173  0.6803
  974MOL0     H31463   9.973   7.422   0.910 -0.9498  5.1309 -0.1989
  974MOL0     H31464   9.701   7.514   0.832 -0.8878  3.7463 -2.4155
  974MOL0     H31465   9.859   7.552   0.747  0.3988  1.9470  1.0739
  974MOL0     H31466   9.806   7.625   1.041 -3.1509 -0.1915 -0.7827
  974MOL0     H31467   9.928   7.683   0.934  0.5007  0.2813 -0.5311
  974MOL0     H31468   9.623   7.725   0.867  0.1218  0.4135 -0.7555
  974MOL0     H31469   9.764   7.791   0.801  2.5241 -1.4545  0.1053
  974MOL0     H31470   9.719   7.968   0.952 -0.2077  0.7940  0.4845
  974MOL0     H31471   9.838   7.877   1.042  0.4218  1.8946 -0.4625
  974MOL0     H31472   9.819   6.710   0.831  0.0358  2.6720  0.3659
  974MOL0     H31473   9.658   6.543   0.887 -2.2633  0.0204 -1.7221
  974MOL0     H31474   9.313   6.359   1.002 -1.7276  1.2963  0.9622
  974MOL0     H31475   9.124   6.227   1.052 -0.1754  0.3148 -0.2316
  974MOL0     H31476   9.265   7.356   1.524  0.7018 -2.5706 -1.9003
  974MOL0     H31477   9.304   7.607   1.506 -1.0353 -0.1466  2.4576
  974MOL0     H31478   9.185   8.098   1.601 -0.1204 -2.3702  0.1139
  974MOL0     H31479   9.371   8.260   1.579 -2.9039  0.3624 -0.3781
  974MOL0     H31480   9.660   8.136   1.387 -1.7147  0.6633  0.1448
  974MOL0     H31481   9.660   8.245   1.243 -1.3284 -1.0042  0.3551
  974MOL0     H31482   9.780   8.409   1.362  2.9519 -1.3000 -3.2835
  974MOL0     H31483   9.873   8.277   1.392  1.6403  3.1005  0.9168
  974MOL0     H31484   9.737   8.242   1.616 -0.7657 -2.1689 -3.9494
  974MOL0     H31485   9.672   8.394   1.579 -1.0218 -2.1203 -2.4223
  974MOL0     H31486   9.854   8.513   1.656 -1.3709  0.4253  3.0541
  974MOL0     H31487   9.977   8.400   1.589 -0.7559  1.3238 -0.0658
  974MOL0     H31488   9.926   8.283   1.996  0.4859 -2.7410  0.1757
  974MOL0     H31489   9.459   8.149   1.197 -0.5699 -1.3794 -0.2940
  974MOL0     H31490   9.293   7.940   1.213 -4.6272 -0.9983  1.8260
  975MOL0     O31491   1.587   7.086  10.803  0.0117  0.1529 -0.4271
  975MOL0     C31492   1.596   7.158  10.907 -0.2133  0.3239  0.2284
  975MOL0     O31493   1.507   7.262  10.933 -0.6562 -0.1857 -0.0911
  975MOL0     C31494   1.406   7.282  10.841 -0.8968 -0.0285  0.4628
  975MOL0     C31495   1.417   7.387  10.748 -0.8008  0.2704 -0.3613
  975MOL0     C31496   1.306   7.418  10.666  0.2556  0.1997  0.7290
  975MOL0     C31497   1.183   7.349  10.681  0.0892  0.2930 -0.5769
  975MOL0     O31498   1.078   7.384  10.594  0.1155  0.0759  0.3234
  975MOL0     C31499   0.994   7.284  10.534  0.1162 -0.8234  0.4451
  975MOL0     C31500   0.878   7.345  10.440  0.5773  0.7258 -0.7932
  975MOL0     C31501   0.818   7.242  10.340  0.8170  0.1397  0.3215
  975MOL0     C31502   0.694   7.308  10.274 -0.2081  0.3248  0.1696
  975MOL0     C31503   0.572   7.204  10.267 -0.7235  0.1141  0.8467
  975MOL0     C31504   0.445   7.253  10.191  0.3590 -0.4410 -0.4846
  975MOL0     C31505   0.465   7.277  10.031 -0.1136  0.1831  0.8283
  975MOL0     C31506   0.338   7.285   9.945  0.0849  0.1222  0.2862
  975MOL0     N31507   0.367   7.310   9.809 -0.7389 -0.2969  0.6388
  975MOL0     C31508   0.409   7.220   9.710  0.1399 -0.4751  0.2142
  975MOL0     C31509   0.409   7.290   9.599  0.8710 -1.1844 -0.4577
  975MOL0     C31510   0.432   7.244   9.462  0.4823  0.2210  0.6066
  975MOL0     C31511   0.303   7.194   9.383 -1.2690 -0.7173  0.3675
  975MOL0     C31512   0.216   7.310   9.332  0.8229  1.0759  0.4350
  975MOL0     C31513   0.087   7.252   9.250 -0.3155 -0.9018 -0.8740
  975MOL0     O31514   0.110   7.124   9.188  0.0627 -0.2378 -0.0446
  975MOL0     C31515   0.013   7.039   9.160 -0.7868  0.4020  1.1817
  975MOL0     C31516  -0.125   7.055   9.171 -0.2889 -0.3534 -0.4269
  975MOL0     C31517  -0.213   6.955   9.137 -0.5367  0.0333  1.4044
  975MOL0     C31518  -0.359   6.987   9.178  0.0974  0.4895  0.1999
  975MOL0     C31519  -0.179   6.843   9.061 -0.3213 -0.2803 -0.4021
  975MOL0     C31520  -0.280   6.756   8.993 -1.7781  1.2647  0.1186
  975MOL0     O31521  -0.233   6.627   8.957  0.6964  0.5718 -0.9404
  975MOL0     C31522  -0.308   6.516   8.915  0.6528 -1.6607  0.8469
  975MOL0     C31523  -0.261   6.444   8.810  0.7767 -0.4260  0.4099
  975MOL0     C31524  -0.342   6.345   8.749 -1.0052  0.5594  0.0069
  975MOL0     C31525  -0.474   6.316   8.796 -0.1987 -0.2020  0.4495
  975MOL0     O31526  -0.550   6.218   8.737 -0.6680  0.2496 -0.3047
  975MOL0     C31527  -0.561   6.102   8.812  0.0785  0.6185  0.7707
  975MOL0     C31528  -0.600   5.999   8.696  0.8045 -0.0177 -0.2803
  975MOL0     C31529  -0.716   5.913   8.745  0.0381 -0.1840 -0.3592
  975MOL0     C31530  -0.665   5.799   8.831 -0.8203  0.5896  0.5925
  975MOL0     C31531  -0.780   5.702   8.870 -0.2743  0.0470  0.1392
  975MOL0     C31532  -0.731   5.595   8.971 -0.4977 -0.1234 -1.0184
  975MOL0     C31533  -0.669   5.468   8.904  0.2846  0.2192  0.2761
  975MOL0     C31534  -0.653   5.353   9.006 -0.2569  1.0646  1.2635
  975MOL0    Cl31535  -0.586   5.207   8.906 -0.0731 -0.2150 -0.4713
  975MOL0     C31536  -0.513   6.385   8.907  0.6005  0.4568 -0.3827
  975MOL0     C31537  -0.431   6.484   8.963  0.0171  0.7512 -0.3393
  975MOL0     O31538  -0.397   6.789   8.984 -0.0728 -0.3270 -0.2266
  975MOL0     C31539  -0.042   6.828   9.053  0.2252  0.3571  0.8670
  975MOL0     C31540   0.042   6.925   9.081  0.5519 -0.9937 -0.1155
  975MOL0     N31541   0.371   7.420   9.622 -0.4111 -0.3290  0.3546
  975MOL0     N31542   0.371   7.433   9.750 -0.2738 -0.0891 -0.2282
  975MOL0     C31543   1.174   7.240  10.773 -0.2066 -0.5120  0.0233
  975MOL0     C31544   1.295   7.210  10.852 -0.1948  0.3433  0.1012
  975MOL0     C31545   1.697   7.104  10.997 -0.6278 -0.1231  0.7613
  975MOL0     C31546   1.761   6.975  10.978 -0.0795 -0.0894  0.6873
  975MOL0     C31547   1.883   6.950  11.046  0.4104  1.7139  0.5682
  975MOL0     C31548   1.933   7.041  11.135 -0.1980  0.3234  0.3906
  975MOL0     O31549   2.047   7.028  11.203 -0.2860  0.3517  0.0728
  975MOL0     C31550   2.160   6.984  11.113 -0.2568 -0.1472 -0.0608
  975MOL0     C31551   2.274   7.077  11.156  0.6337  0.1199 -0.6508
  975MOL0     C31552   2.411   7.024  11.141  0.5049  0.3458  0.1134
  975MOL0     C31553   2.433   7.003  10.993 -0.1206 -0.0476 -0.5608
  975MOL0     C31554   2.567   6.973  10.968 -0.3677 -0.5527  0.2501
  975MOL0     C31555   2.679   6.941  10.933  0.1650  0.6008 -0.6151
  975MOL0     C31556   1.871   7.163  11.162  0.6068  0.1971  0.1507
  975MOL0     C31557   1.746   7.188  11.097 -1.0808 -0.5612  1.3125
  975MOL0     H31558   1.510   7.444  10.746  0.4584 -1.7054 -2.0448
  975MOL0     H31559   1.298   7.505  10.602  0.1413  1.1035  1.9317
  975MOL0     H31560   1.056   7.228  10.463  1.3928  2.4350 -1.2351
  975MOL0     H31561   0.956   7.210  10.605 -0.8871 -1.5142 -0.7795
  975MOL0     H31562   0.798   7.366  10.512  1.4699  0.0648  0.4318
  975MOL0     H31563   0.903   7.438  10.388 -1.5597  0.6821 -2.0241
  975MOL0     H31564   0.885   7.199  10.265  0.5958  0.1506  0.1180
  975MOL0     H31565   0.781   7.151  10.389  1.4020  0.0080  0.5279
  975MOL0     H31566   0.650   7.397  10.319  0.3855  1.8288 -2.0536
  975MOL0     H31567   0.715   7.327  10.168 -0.4185 -1.6935 -0.2753
  975MOL0     H31568   0.592   7.109  10.216  2.6588  0.1808  1.7749
  975MOL0     H31569   0.541   7.184  10.370 -0.7952  2.0128  1.2431
  975MOL0     H31570   0.371   7.173  10.202  1.5441 -1.5165 -0.0590
  975MOL0     H31571   0.396   7.341  10.233 -2.6946 -0.8508 -2.8912
  975MOL0     H31572   0.527   7.363  10.006  0.3349  0.3440  2.4175
  975MOL0     H31573   0.509   7.181  10.000 -1.6385 -0.6458  1.1275
  975MOL0     H31574   0.273   7.369   9.973  1.3343  1.7697 -1.5482
  975MOL0     H31575   0.285   7.189   9.944  2.7328 -1.4258 -0.7081
  975MOL0     H31576   0.431   7.114   9.721  1.6395 -0.0083  1.9085
  975MOL0     H31577   0.480   7.325   9.406 -0.0083  0.3761  0.4065
  975MOL0     H31578   0.497   7.157   9.470  0.6517  0.5221  4.3961
  975MOL0     H31579   0.243   7.136   9.453  0.6426 -2.0879  0.9474
  975MOL0     H31580   0.338   7.140   9.294  2.7781  2.9111 -0.5968
  975MOL0     H31581   0.278   7.371   9.265 -0.2755  0.4331 -1.2272
  975MOL0     H31582   0.170   7.370   9.411  0.1481  0.3926  0.5720
  975MOL0     H31583   0.055   7.326   9.176 -2.8982 -2.7961 -1.7853
  975MOL0     H31584   0.001   7.256   9.317  0.8077  1.9994  0.5654
  975MOL0     H31585  -0.159   7.146   9.221  0.3273 -1.0180  1.2647
  975MOL0     H31586  -0.356   7.080   9.236  1.4310  1.8344 -1.8901
  975MOL0     H31587  -0.435   7.006   9.103 -2.3620  1.9993  2.8773
  975MOL0     H31588  -0.397   6.900   9.233  0.6801 -1.6985 -2.6155
  975MOL0     H31589  -0.159   6.466   8.778  0.2605 -0.0965 -1.0934
  975MOL0     H31590  -0.303   6.275   8.675  2.4153  1.9848  0.3021
  975MOL0     H31591  -0.467   6.071   8.858  0.0045  0.0096  0.5266
  975MOL0     H31592  -0.637   6.110   8.890 -0.7922 -1.8258  0.2648
  975MOL0     H31593  -0.622   6.049   8.601  2.8921 -0.3635 -1.0083
  975MOL0     H31594  -0.513   5.934   8.683  2.3406  1.9081 -0.0809
  975MOL0     H31595  -0.768   5.870   8.659  1.6378 -1.5151 -0.7019
  975MOL0     H31596  -0.768   5.975   8.818  2.2265 -0.6098  1.7016
  975MOL0     H31597  -0.588   5.750   8.771  0.5620  0.7243  2.1912
  975MOL0     H31598  -0.621   5.840   8.923  1.9182  0.1817 -0.4446
  975MOL0     H31599  -0.817   5.643   8.785 -2.2950 -0.9980  1.6560
  975MOL0     H31600  -0.861   5.760   8.915 -0.0653  0.7211 -0.3337
  975MOL0     H31601  -0.665   5.645   9.042  1.0551 -1.3699 -1.5439
  975MOL0     H31602  -0.819   5.564   9.028 -1.8102  4.2091 -0.3015
  975MOL0     H31603  -0.577   5.504   8.857 -0.6693  2.1153 -0.2544
  975MOL0     H31604  -0.734   5.444   8.820  0.6133  1.3606 -0.3385
  975MOL0     H31605  -0.749   5.324   9.048 -1.0824 -1.9508 -2.2355
  975MOL0     H31606  -0.587   5.380   9.089  1.4077  1.9693 -0.2775
  975MOL0     H31607  -0.597   6.348   8.965  0.7377 -1.1283 -1.1444
  975MOL0     H31608  -0.479   6.534   9.047  0.2766  1.5708 -0.6752
  975MOL0     H31609  -0.012   6.737   9.002  0.4048  1.6745 -1.5451
  975MOL0     H31610   0.147   6.909   9.058  0.9163 -3.8355  2.7653
  975MOL0     H31611   1.083   7.189  10.802  0.2336 -0.6436  1.2175
  975MOL0     H31612   1.284   7.132  10.926  0.4871  1.6740  1.6709
  975MOL0     H31613   1.729   6.914  10.894  2.3033 -0.2695 -0.1834
  975MOL0     H31614   1.932   6.856  11.027 -1.8871  0.7172 -0.7319
  975MOL0     H31615   2.196   6.882  11.129 -0.6776 -0.4834 -1.1821
  975MOL0     H31616   2.140   6.992  11.006 -2.5629 -0.6543  0.2644
  975MOL0     H31617   2.265   7.090  11.265 -3.7398 -0.7381 -0.7330
  975MOL0     H31618   2.268   7.176  11.110  3.0131 -0.8103 -3.2829
  975MOL0     H31619   2.422   6.924  11.184 -0.5388 -0.9219 -2.3806
  975MOL0     H31620   2.476   7.090  11.199  0.5470  0.2877  0.1314
  975MOL0     H31621   2.428   7.100  10.943 -0.0610 -0.2988 -1.0580
  975MOL0     H31622   2.371   6.934  10.935 -2.1775  1.2716  0.0084
  975MOL0     H31623   2.782   6.917  10.915  0.3366  1.4019 -0.7551
  975MOL0     H31624   1.921   7.229  11.232  1.4674  0.5266 -0.7499
  975MOL0     H31625   1.705   7.288  11.094  1.8554  0.8633 -4.0824
  976MOL0     O31626   8.348   2.701   9.515 -1.0100  0.0107  1.0461
  976MOL0     C31627   8.373   2.756   9.624  0.2828 -0.1307  0.2334
  976MOL0     O31628   8.312   2.870   9.661  0.0370  0.4303 -0.3123
  976MOL0     C31629   8.212   2.935   9.589 -0.8423 -0.7005  0.2075
  976MOL0     C31630   8.137   2.882   9.476 -0.9173 -1.3391 -0.2258
  976MOL0     C31631   8.056   2.963   9.401  0.2080 -0.0195  0.5098
  976MOL0     C31632   8.031   3.097   9.436 -0.2149 -0.1700 -0.2029
  976MOL0     O31633   7.942   3.187   9.370  0.0742  0.0572 -0.4063
  976MOL0     C31634   7.878   3.148   9.248 -0.7309 -0.6850  0.7166
  976MOL0     C31635   7.792   3.267   9.187 -0.0201 -0.4052  0.6466
  976MOL0     C31636   7.676   3.324   9.269  0.3128 -0.3972 -0.7752
  976MOL0     C31637   7.701   3.456   9.330  0.2188 -0.5393  0.3453
  976MOL0     C31638   7.575   3.519   9.400 -0.5565 -0.1438  0.8710
  976MOL0     C31639   7.596   3.672   9.412 -0.1613  0.6300 -0.0570
  976MOL0     C31640   7.726   3.730   9.453  0.0844  0.3299  0.1186
  976MOL0     C31641   7.780   3.680   9.591 -0.4512  0.3927 -0.5139
  976MOL0     N31642   7.906   3.725   9.638 -0.0786 -0.2025 -0.3208
  976MOL0     C31643   7.931   3.858   9.678 -0.3801  0.6857  0.0607
  976MOL0     C31644   8.067   3.867   9.699  0.7834  0.5671  0.4121
  976MOL0     C31645   8.149   3.992   9.724  0.3131 -0.7768  0.1068
  976MOL0     C31646   8.123   4.027   9.871  0.4570  0.5933  0.7023
  976MOL0     C31647   8.189   4.168   9.905  0.2930 -0.9360  0.0228
  976MOL0     C31648   8.126   4.286   9.822 -0.3897  0.1404 -0.1802
  976MOL0     O31649   7.980   4.295   9.836  0.2238  0.1119  0.6970
  976MOL0     C31650   7.908   4.344   9.940 -0.0177  0.5218 -0.5068
  976MOL0     C31651   7.769   4.327   9.952  0.2766  0.0728  0.3927
  976MOL0     C31652   7.689   4.372  10.064 -1.4049 -1.6158 -0.0798
  976MOL0     C31653   7.536   4.384  10.044  0.1563  0.6256  0.2759
  976MOL0     C31654   7.764   4.412  10.183  1.0314  0.5371 -0.8783
  976MOL0     C31655   7.689   4.416  10.312  0.2602  0.1944 -0.0439
  976MOL0     O31656   7.577   4.493  10.329  0.3136  0.1878 -0.2059
  976MOL0     C31657   7.517   4.469  10.449 -0.4219  0.1477 -0.1007
  976MOL0     C31658   7.434   4.371  10.454  0.2831 -0.3008  0.2790
  976MOL0     C31659   7.347   4.359  10.570  1.4482  0.0701  0.2316
  976MOL0     C31660   7.374   4.426  10.686 -1.0352  0.7253 -0.8622
  976MOL0     O31661   7.289   4.418  10.797  0.0355  0.2319 -0.2034
  976MOL0     C31662   7.246   4.292  10.832 -0.2870 -0.6101 -0.1127
  976MOL0     C31663   7.136   4.314  10.948 -0.2856  0.1900 -0.4621
  976MOL0     C31664   7.041   4.200  10.998 -1.1405  0.2588  0.1125
  976MOL0     C31665   7.111   4.057  10.988  0.4949  0.2541  0.2241
  976MOL0     C31666   7.016   3.949  10.978  0.4247  1.0028  0.0394
  976MOL0     C31667   7.077   3.819  11.023  0.8257 -0.6785 -0.4750
  976MOL0     C31668   6.983   3.701  11.008  0.3713  0.4626  0.6730
  976MOL0     C31669   7.054   3.571  11.045  0.7948  0.9883  0.4034
  976MOL0    Cl31670   6.942   3.428  11.040  0.0823  0.2852 -0.4365
  976MOL0     C31671   7.469   4.524  10.681 -0.0355 -0.4413 -0.7879
  976MOL0     C31672   7.541   4.548  10.565 -0.6831 -1.0290  0.5149
  976MOL0     O31673   7.736   4.327  10.383 -0.0582  0.4859 -0.8105
  976MOL0     C31674   7.902   4.429  10.174 -0.2134  0.4446  0.7349
  976MOL0     C31675   7.970   4.400  10.055 -0.1461  0.0586 -0.4997
  976MOL0     N31676   8.116   3.742   9.658 -0.7518 -0.2195  0.7644
  976MOL0     N31677   8.017   3.663   9.622  0.3543 -0.0399  0.1363
  976MOL0     C31678   8.089   3.149   9.552  0.6134  0.3421 -0.4015
  976MOL0     C31679   8.176   3.065   9.623 -0.6528  0.5475  0.3252
  976MOL0     C31680   8.463   2.695   9.719  0.2311  0.1290 -0.3438
  976MOL0     C31681   8.556   2.598   9.674 -0.8960  0.0104 -0.2830
  976MOL0     C31682   8.624   2.530   9.774  0.0120 -0.5101  0.4127
  976MOL0     C31683   8.614   2.566   9.907 -0.3407  1.0070  0.6278
  976MOL0     O31684   8.691   2.498   9.997  0.1806  0.2571  0.4975
  976MOL0     C31685   8.633   2.461  10.120 -0.0660 -0.2035 -0.5628
  976MOL0     C31686   8.704   2.332  10.154  1.3093 -0.1684 -1.3003
  976MOL0     C31687   8.680   2.315  10.307  0.9813  0.6475  1.0453
  976MOL0     C31688   8.744   2.181  10.359 -0.0115  0.1810 -0.1369
  976MOL0     C31689   8.706   2.158  10.505 -0.5290  0.3952 -0.1614
  976MOL0     C31690   8.661   2.140  10.614 -0.3231  0.2574  0.0513
  976MOL0     C31691   8.523   2.659   9.943 -1.3603  1.3604  0.3114
  976MOL0     C31692   8.451   2.732   9.855  0.5493  0.8321  0.1041
  976MOL0     H31693   8.145   2.774   9.461  2.4396 -1.1404 -0.6825
  976MOL0     H31694   7.999   2.934   9.313 -1.3866  2.2440  0.7031
  976MOL0     H31695   7.951   3.118   9.173 -1.5049 -0.9858  0.0628
  976MOL0     H31696   7.816   3.058   9.263 -0.8501 -0.5721  0.9097
  976MOL0     H31697   7.872   3.338   9.163  2.5223 -2.9901  1.0450
  976MOL0     H31698   7.752   3.220   9.097  0.8034 -0.0618  0.0949
  976MOL0     H31699   7.595   3.334   9.197 -0.4157  3.4043  0.3739
  976MOL0     H31700   7.636   3.257   9.346  0.1264  3.2395  2.6209
  976MOL0     H31701   7.777   3.447   9.408  0.4851  2.6486  0.6163
  976MOL0     H31702   7.737   3.518   9.247 -1.1786  0.9656  0.8134
  976MOL0     H31703   7.483   3.493   9.347 -0.4366  0.0756  0.5582
  976MOL0     H31704   7.565   3.484   9.503  0.3166  0.7653  1.2851
  976MOL0     H31705   7.556   3.727   9.328 -1.3504  1.5931  1.0982
  976MOL0     H31706   7.536   3.690   9.502 -1.0290 -2.2226  0.0470
  976MOL0     H31707   7.802   3.699   9.381  0.7456 -1.6462  1.5505
  976MOL0     H31708   7.721   3.839   9.453 -1.1754  0.2835  0.6827
  976MOL0     H31709   7.781   3.570   9.584 -0.6694  0.4798 -2.3673
  976MOL0     H31710   7.701   3.711   9.659  0.5889  2.1600 -0.0434
  976MOL0     H31711   7.859   3.931   9.715  2.4850  1.7605  4.2618
  976MOL0     H31712   8.258   3.982   9.723  0.9631  2.7924  4.5923
  976MOL0     H31713   8.128   4.076   9.658  3.2404  2.3151  2.7790
  976MOL0     H31714   8.172   3.957   9.939  2.1233  2.6069  1.7081
  976MOL0     H31715   8.015   4.026   9.889  0.1923  2.0686 -0.5910
  976MOL0     H31716   8.296   4.163   9.883  0.2400  1.5067 -1.1195
  976MOL0     H31717   8.176   4.200  10.009 -2.0862 -1.6280 -0.0059
  976MOL0     H31718   8.155   4.271   9.718 -0.0168 -0.7181  0.0373
  976MOL0     H31719   8.182   4.376   9.850 -1.4701  1.2429 -1.4202
  976MOL0     H31720   7.727   4.286   9.861  0.8523 -2.0289  1.0152
  976MOL0     H31721   7.514   4.294   9.986 -1.7061  0.2969  1.4323
  976MOL0     H31722   7.476   4.391  10.135  0.0627  5.2534  0.1150
  976MOL0     H31723   7.525   4.467   9.974  3.8809  0.6075 -0.5728
  976MOL0     H31724   7.418   4.309  10.366  1.4807 -0.3517  0.0701
  976MOL0     H31725   7.263   4.291  10.561  1.1430  0.6331 -1.6700
  976MOL0     H31726   7.198   4.231  10.755  0.6698 -2.2465  0.5386
  976MOL0     H31727   7.325   4.226  10.870  0.2504 -0.8762 -1.6097
  976MOL0     H31728   7.188   4.351  11.037 -2.1529 -0.3964  0.9275
  976MOL0     H31729   7.076   4.400  10.916  0.4736  0.8121 -0.2458
  976MOL0     H31730   6.956   4.210  10.930  1.0283  4.0069 -2.3612
  976MOL0     H31731   6.998   4.222  11.097 -0.0072  1.3605  0.3735
  976MOL0     H31732   7.183   4.044  10.908  2.7070 -0.4383  2.2238
  976MOL0     H31733   7.165   4.058  11.083  2.6516  1.3190 -0.9500
  976MOL0     H31734   6.986   3.938  10.874 -2.4137  1.9063  0.6753
  976MOL0     H31735   6.921   3.967  11.029 -0.2917  0.0731 -0.9295
  976MOL0     H31736   7.169   3.813  10.963  1.0313  0.4716 -0.3006
  976MOL0     H31737   7.097   3.828  11.130  0.3473 -0.3999 -0.4049
  976MOL0     H31738   6.937   3.691  10.909  1.7595  1.5841 -0.1323
  976MOL0     H31739   6.903   3.723  11.079  0.1557 -0.9634  0.8908
  976MOL0     H31740   7.083   3.577  11.150 -0.5563 -0.2983  0.8836
  976MOL0     H31741   7.137   3.559  10.975  1.6576 -1.4020  1.7171
  976MOL0     H31742   7.486   4.585  10.769 -0.4779  1.2503 -1.8304
  976MOL0     H31743   7.601   4.638  10.565  0.4739 -1.6540  3.7095
  976MOL0     H31744   7.957   4.478  10.253  1.9816  3.2253 -2.2814
  976MOL0     H31745   8.077   4.417  10.055  0.1710 -1.7815 -0.0261
  976MOL0     H31746   8.075   3.250   9.587  2.7087 -0.1661  2.2743
  976MOL0     H31747   8.236   3.118   9.696 -0.2360  0.5757 -0.0351
  976MOL0     H31748   8.563   2.573   9.569  0.1581 -2.3336  0.2809
  976MOL0     H31749   8.696   2.453   9.751  0.1372  0.4581 -2.9358
  976MOL0     H31750   8.655   2.529  10.202 -2.6377  1.7625 -1.3704
  976MOL0     H31751   8.526   2.439  10.120  0.1105 -1.1022 -0.7720
  976MOL0     H31752   8.811   2.352  10.139  1.3767  1.5782  0.9315
  976MOL0     H31753   8.680   2.247  10.089  0.6209  1.0709 -2.7398
  976MOL0     H31754   8.573   2.296  10.322  0.7901 -1.6772 -2.1605
  976MOL0     H31755   8.714   2.402  10.365  0.7636  1.8987 -0.6167
  976MOL0     H31756   8.852   2.193  10.362 -0.0570  0.5526  1.9672
  976MOL0     H31757   8.709   2.090  10.310 -2.7214  0.0834  1.7205
  976MOL0     H31758   8.630   2.135  10.716 -1.2708  3.2712  0.0257
  976MOL0     H31759   8.514   2.673  10.050  0.6202 -1.5272  0.9453
  976MOL0     H31760   8.373   2.800   9.887  0.0232 -1.6176  4.8702
  977MOL0     O31761   8.637   4.339  11.432 -0.4886  1.0541  0.7685
  977MOL0     C31762   8.738   4.389  11.384  0.5036 -0.1101  0.7698
  977MOL0     O31763   8.732   4.476  11.276 -0.0988 -0.0488  0.4352
  977MOL0     C31764   8.607   4.502  11.235 -0.5028 -0.8403  0.7549
  977MOL0     C31765   8.536   4.599  11.306  0.4106 -0.5131 -0.4918
  977MOL0     C31766   8.424   4.649  11.252  0.0276  0.0562  0.4447
  977MOL0     C31767   8.384   4.602  11.131  0.3082 -0.1610  0.0844
  977MOL0     O31768   8.272   4.665  11.083 -0.2453 -0.0691  0.3423
  977MOL0     C31769   8.202   4.599  10.974 -0.2385 -0.9590 -0.1928
  977MOL0     C31770   8.081   4.691  10.950  0.1141  0.7377  0.2047
  977MOL0     C31771   7.979   4.618  10.856  0.0118  0.4762 -0.0126
  977MOL0     C31772   7.897   4.509  10.926 -0.4690  0.2108 -0.7688
  977MOL0     C31773   7.801   4.451  10.823 -0.4426 -0.7483  0.1660
  977MOL0     C31774   7.799   4.299  10.834 -0.3128  1.3693  0.2308
  977MOL0     C31775   7.675   4.245  10.762  0.0751 -0.1491 -0.1855
  977MOL0     C31776   7.676   4.089  10.774  0.2336 -0.6875  0.3596
  977MOL0     N31777   7.540   4.049  10.754  0.6547  0.0903 -0.4507
  977MOL0     C31778   7.481   4.032  10.636 -0.8276 -0.6415 -0.1322
  977MOL0     C31779   7.366   3.971  10.665 -0.6250  1.2638 -1.0756
  977MOL0     C31780   7.265   3.942  10.563  0.2976 -0.1804  0.3705
  977MOL0     C31781   7.323   3.858  10.455 -0.6325 -0.0650  0.3483
  977MOL0     C31782   7.207   3.832  10.342 -0.0949 -0.3029 -0.1477
  977MOL0     C31783   7.238   3.732  10.228  1.2909 -0.9181  0.2210
  977MOL0     O31784   7.133   3.665  10.155  1.4623  0.2733  0.0187
  977MOL0     C31785   7.073   3.733  10.048  0.4484  0.0271 -0.6174
  977MOL0     C31786   7.076   3.872  10.027  0.2809 -0.4781 -0.2802
  977MOL0     C31787   7.000   3.934   9.929 -0.0580 -1.0630 -0.3972
  977MOL0     C31788   7.015   4.091   9.927 -0.1982  0.1159 -0.7670
  977MOL0     C31789   6.925   3.854   9.840 -0.3568  0.0962  0.8037
  977MOL0     C31790   6.839   3.924   9.737 -1.6291  0.7787 -0.2070
  977MOL0     O31791   6.732   3.843   9.692 -0.0980 -0.2224  0.2323
  977MOL0     C31792   6.668   3.873   9.577  0.1192  0.2813  0.4728
  977MOL0     C31793   6.560   3.966   9.574  0.0506 -0.1409  0.0079
  977MOL0     C31794   6.500   4.000   9.453  0.2245  0.3114 -0.3635
  977MOL0     C31795   6.548   3.941   9.331  0.1797 -0.9245 -0.4658
  977MOL0     O31796   6.501   3.970   9.211 -0.4088 -0.0734 -0.0764
  977MOL0     C31797   6.411   4.073   9.197 -0.2534 -0.4035 -0.3068
  977MOL0     C31798   6.270   4.014   9.228  0.4938 -0.1298  0.1525
  977MOL0     C31799   6.148   4.101   9.219 -0.4075  0.8014 -0.2191
  977MOL0     C31800   6.084   4.109   9.083 -0.0185  0.2637 -0.3762
  977MOL0     C31801   5.948   4.174   9.074  0.6738 -0.3954 -1.4738
  977MOL0     C31802   5.825   4.101   9.149  0.3668  0.6228 -0.4461
  977MOL0     C31803   5.720   4.211   9.167  0.4304 -0.0078  0.8432
  977MOL0     C31804   5.589   4.164   9.213  0.5780 -0.1840  0.2121
  977MOL0    Cl31805   5.496   4.317   9.273  0.0671 -0.4640 -0.2675
  977MOL0     C31806   6.650   3.854   9.333  0.1698  0.2308  0.0446
  977MOL0     C31807   6.714   3.823   9.451  0.2405 -0.2262 -0.0589
  977MOL0     O31808   6.863   4.044   9.698  0.4763 -0.2529 -0.4205
  977MOL0     C31809   6.928   3.715   9.861  0.3731  0.9842 -0.4611
  977MOL0     C31810   7.011   3.652   9.954  0.1712 -0.1953  0.0637
  977MOL0     N31811   7.359   3.931  10.801  0.2762  0.2830 -0.7882
  977MOL0     N31812   7.471   3.982  10.856  0.7013 -0.0124  0.2070
  977MOL0     C31813   8.465   4.510  11.050 -0.6891 -0.0401 -0.4597
  977MOL0     C31814   8.576   4.454  11.112 -0.3047 -0.1050 -0.3385
  977MOL0     C31815   8.872   4.383  11.443 -0.1115  0.9513  0.0391
  977MOL0     C31816   8.984   4.406  11.372  0.5360 -0.0811 -0.3881
  977MOL0     C31817   9.105   4.393  11.434 -0.2650  1.1493 -0.4716
  977MOL0     C31818   9.119   4.354  11.568  0.4741 -0.3821  0.9664
  977MOL0     O31819   9.232   4.364  11.643 -0.9514 -1.3407  0.0656
  977MOL0     C31820   9.335   4.263  11.612 -0.2502  0.0774 -0.6384
  977MOL0     C31821   9.281   4.119  11.634 -0.2883 -0.0879  0.3413
  977MOL0     C31822   9.264   4.045  11.508 -0.3628  0.0515  0.0787
  977MOL0     C31823   9.172   3.921  11.519  0.4112  0.0394  0.1070
  977MOL0     C31824   9.207   3.832  11.629  0.2813  0.8068  0.6739
  977MOL0     C31825   9.245   3.741  11.703  0.4449 -0.4049  0.0403
  977MOL0     C31826   9.002   4.319  11.634  0.0330  0.2950 -0.0539
  977MOL0     C31827   8.873   4.320  11.567 -0.8757 -0.6536  0.4889
  977MOL0     H31828   8.572   4.640  11.399  3.0060  2.5470 -2.6045
  977MOL0     H31829   8.379   4.731  11.306  2.2161  1.4120  0.3543
  977MOL0     H31830   8.262   4.588  10.883  1.0114  2.4666  0.0726
  977MOL0     H31831   8.169   4.501  11.009  0.1561 -0.6028  1.2452
  977MOL0     H31832   8.031   4.708  11.045 -2.0706 -2.7189 -0.1198
  977MOL0     H31833   8.113   4.782  10.899  1.3239 -0.4766 -1.3276
  977MOL0     H31834   7.916   4.697  10.813  0.8247  1.7051  0.9848
  977MOL0     H31835   8.039   4.576  10.774 -0.8185  0.5340 -0.6669
  977MOL0     H31836   7.969   4.434  10.959  1.6192  1.6115 -1.9399
  977MOL0     H31837   7.844   4.556  11.009 -2.6037 -1.5432 -1.0318
  977MOL0     H31838   7.706   4.504  10.832 -1.1266 -1.5216 -1.7623
  977MOL0     H31839   7.838   4.481  10.724  0.3046 -0.5225  0.5094
  977MOL0     H31840   7.892   4.258  10.794 -0.4513  0.9102  0.3741
  977MOL0     H31841   7.788   4.270  10.939 -0.4487 -0.5181 -0.2849
  977MOL0     H31842   7.587   4.284  10.815 -0.1995  1.6882 -1.9048
  977MOL0     H31843   7.676   4.276  10.657  1.2072  1.2824  0.2083
  977MOL0     H31844   7.706   4.068  10.877 -2.4390 -0.7656  1.2142
  977MOL0     H31845   7.748   4.045  10.705  1.4699 -1.8494  2.2881
  977MOL0     H31846   7.513   4.060  10.536 -1.8369 -0.0028 -0.2952
  977MOL0     H31847   7.169   3.909  10.604 -1.2128  1.9902 -1.1377
  977MOL0     H31848   7.239   4.040  10.520 -1.2385 -0.2931  0.9528
  977MOL0     H31849   7.369   3.764  10.487  0.9225  0.9632  1.2544
  977MOL0     H31850   7.396   3.920  10.403 -0.3761  0.9606  1.8811
  977MOL0     H31851   7.174   3.931  10.310 -2.4510 -0.3883  1.7257
  977MOL0     H31852   7.120   3.793  10.395  0.0670  0.0602  0.4077
  977MOL0     H31853   7.307   3.658  10.270  2.6173 -0.1208 -0.4910
  977MOL0     H31854   7.313   3.781  10.165  1.1424  0.7501  1.2677
  977MOL0     H31855   7.130   3.939  10.095 -0.8385 -0.1790  0.3419
  977MOL0     H31856   7.058   4.123  10.022 -1.3388 -0.7337  0.0588
  977MOL0     H31857   7.071   4.126   9.840  0.8746  2.4855  0.7539
  977MOL0     H31858   6.914   4.133   9.934 -0.0286  0.4107  0.0344
  977MOL0     H31859   6.527   4.010   9.667  4.9244  1.3034  1.3272
  977MOL0     H31860   6.417   4.069   9.465 -1.3983 -1.7575  0.8721
  977MOL0     H31861   6.417   4.156   9.268 -2.4882 -1.6934  1.5452
  977MOL0     H31862   6.414   4.119   9.098  1.2830 -2.3841 -1.2506
  977MOL0     H31863   6.268   3.926   9.164  1.4166  0.0479 -0.1455
  977MOL0     H31864   6.260   3.993   9.335  2.3535  4.8889  1.6026
  977MOL0     H31865   6.169   4.199   9.263  0.8975 -0.9779  3.4965
  977MOL0     H31866   6.072   4.052   9.280  1.3966 -1.6353  0.2444
  977MOL0     H31867   6.146   4.172   9.019 -2.6227  2.6613 -0.7268
  977MOL0     H31868   6.086   4.009   9.038  0.2475 -1.4588  3.1062
  977MOL0     H31869   5.910   4.199   8.974 -0.0835  3.0067 -0.4885
  977MOL0     H31870   5.963   4.266   9.131  2.9838 -2.4916  1.6791
  977MOL0     H31871   5.785   4.017   9.093 -0.6216 -0.0301  1.1744
  977MOL0     H31872   5.857   4.059   9.245 -1.6875  0.7183  0.3171
  977MOL0     H31873   5.722   4.271   9.075  0.0338  0.7087  1.2879
  977MOL0     H31874   5.764   4.286   9.234  0.3190 -0.1719  1.0985
  977MOL0     H31875   5.598   4.093   9.295 -2.4949 -0.5593  0.3328
  977MOL0     H31876   5.533   4.118   9.131 -0.0294  2.6480 -1.0940
  977MOL0     H31877   6.702   3.819   9.244  1.6988 -1.0692  1.3878
  977MOL0     H31878   6.803   3.761   9.450  2.8013  3.1138  0.2639
  977MOL0     H31879   6.849   3.656   9.816  0.4313 -0.4744  1.1917
  977MOL0     H31880   6.987   3.549   9.974 -0.2570  0.0443  0.8350
  977MOL0     H31881   8.448   4.488  10.945  2.2311 -1.5467 -0.7238
  977MOL0     H31882   8.648   4.400  11.052 -1.6868 -2.1526 -0.2458
  977MOL0     H31883   8.986   4.450  11.273  2.3239  2.9828  0.8606
  977MOL0     H31884   9.189   4.437  11.381 -0.1287  1.1581 -0.2503
  977MOL0     H31885   9.378   4.259  11.512  0.9254 -0.1508 -0.1301
  977MOL0     H31886   9.423   4.283  11.673 -0.0577  2.4965 -1.5853
  977MOL0     H31887   9.182   4.115  11.680  0.7271 -4.2754  2.6508
  977MOL0     H31888   9.352   4.058  11.690  2.2715  2.7116  0.4009
  977MOL0     H31889   9.363   4.011  11.477  0.4181 -0.1415  2.5093
  977MOL0     H31890   9.219   4.116  11.439 -5.8991 -2.2770  0.7533
  977MOL0     H31891   9.163   3.867  11.424 -1.6763 -0.0848  0.3283
  977MOL0     H31892   9.072   3.963  11.537 -0.2135 -0.0941 -2.6092
  977MOL0     H31893   9.298   3.693  11.783 -1.2578  0.8638  2.0252
  977MOL0     H31894   9.002   4.294  11.739  1.5234 -1.5054 -0.4267
  977MOL0     H31895   8.780   4.293  11.617 -0.6378 -0.6855  0.9227
  978MOL0     O31896   5.739   5.272   3.937  1.3120  0.1650 -0.2367
  978MOL0     C31897   5.663   5.282   4.032  0.1818 -0.4244  0.7677
  978MOL0     O31898   5.689   5.237   4.159  0.1457 -0.2179 -0.1748
  978MOL0     C31899   5.802   5.169   4.189 -0.8306 -0.4515 -0.0908
  978MOL0     C31900   5.937   5.206   4.161  0.3327  0.2405 -0.7739
  978MOL0     C31901   6.044   5.131   4.200  0.5012 -0.0778  0.1992
  978MOL0     C31902   6.033   5.009   4.268 -1.3625 -0.1135 -0.1239
  978MOL0     O31903   6.144   4.924   4.279  0.0635  0.2899 -0.0728
  978MOL0     C31904   6.234   4.929   4.166 -0.4295  0.0169  0.1814
  978MOL0     C31905   6.349   4.838   4.203 -0.7544 -0.0236 -0.3241
  978MOL0     C31906   6.311   4.677   4.225  0.1141  0.2664 -0.2938
  978MOL0     C31907   6.424   4.582   4.282  0.4054  0.8506  0.6304
  978MOL0     C31908   6.369   4.445   4.315  0.8748  0.9409 -1.3040
  978MOL0     C31909   6.298   4.435   4.456 -0.1806 -0.1456 -0.2178
  978MOL0     C31910   6.194   4.321   4.463 -1.0756  0.3302 -0.2912
  978MOL0     C31911   6.236   4.187   4.426 -0.2067  0.0086  0.9983
  978MOL0     N31912   6.141   4.094   4.479 -0.5698 -0.0193  0.5133
  978MOL0     C31913   6.143   4.020   4.587 -0.1653  0.7460  0.0718
  978MOL0     C31914   6.018   3.971   4.604  0.4757 -0.8237 -0.5795
  978MOL0     C31915   5.962   3.892   4.732 -1.0092  0.9227 -0.1914
  978MOL0     C31916   6.060   3.823   4.822  0.1441  0.1198  0.6115
  978MOL0     C31917   5.994   3.778   4.950  0.3878  0.4657 -0.3232
  978MOL0     C31918   5.859   3.705   4.947  0.3099  0.0077  0.3160
  978MOL0     O31919   5.754   3.809   4.930  0.7258 -1.2700  0.5008
  978MOL0     C31920   5.622   3.754   4.930  0.4236  0.4960  0.3698
  978MOL0     C31921   5.585   3.661   4.835 -0.2254  0.1981 -0.1815
  978MOL0     C31922   5.462   3.593   4.856 -0.6522 -0.3024  0.3826
  978MOL0     C31923   5.436   3.493   4.741  0.1427  1.7185 -0.5568
  978MOL0     C31924   5.365   3.631   4.948 -1.0411  0.2054  0.3715
  978MOL0     C31925   5.229   3.581   4.965 -0.1126  0.1840  0.0380
  978MOL0     O31926   5.141   3.641   5.052  0.7275  0.4461  0.6668
  978MOL0     C31927   5.018   3.581   5.073 -0.2693  0.2549 -0.1443
  978MOL0     C31928   4.911   3.666   5.069 -0.7389 -1.4235  0.3696
  978MOL0     C31929   4.787   3.621   5.112 -0.5695 -0.5103  0.4014
  978MOL0     C31930   4.758   3.493   5.163  0.2707 -0.6108 -0.3534
  978MOL0     O31931   4.632   3.455   5.194 -0.1227  0.8630  0.3542
  978MOL0     C31932   4.598   3.335   5.259  0.5134  0.8903  0.6499
  978MOL0     C31933   4.449   3.334   5.296  0.4584 -0.5354  0.5113
  978MOL0     C31934   4.360   3.360   5.174 -0.2277  0.0764  0.0124
  978MOL0     C31935   4.210   3.397   5.219  0.6363  0.8683 -0.0552
  978MOL0     C31936   4.094   3.396   5.105  0.5547 -0.3525  0.4372
  978MOL0     C31937   3.947   3.435   5.153  0.5271 -0.1402  0.1276
  978MOL0     C31938   3.850   3.451   5.030 -0.0918 -0.3841 -0.4447
  978MOL0     C31939   3.818   3.306   4.991 -0.6598  0.1163 -0.1806
  978MOL0    Cl31940   3.696   3.340   4.861 -0.2733 -0.3651  0.2770
  978MOL0     C31941   4.862   3.401   5.154  0.6875 -0.5743 -0.2976
  978MOL0     C31942   4.991   3.450   5.125  0.0139 -0.5554 -0.3888
  978MOL0     O31943   5.198   3.487   4.898  0.2437 -0.1011  0.6635
  978MOL0     C31944   5.411   3.727   5.041  0.9724 -0.3437 -0.7434
  978MOL0     C31945   5.539   3.785   5.032  0.7450  0.1623  1.1080
  978MOL0     N31946   5.939   4.012   4.492 -0.0396  0.4458 -0.8709
  978MOL0     N31947   6.021   4.073   4.415 -0.4284  0.3786 -0.0572
  978MOL0     C31948   5.909   4.980   4.313 -0.4636  0.0533 -0.2403
  978MOL0     C31949   5.794   5.056   4.273 -0.0842  0.7823  0.3590
  978MOL0     C31950   5.536   5.349   4.015 -0.0900 -0.2714  1.0253
  978MOL0     C31951   5.476   5.338   3.886  0.1464  0.6903  0.4788
  978MOL0     C31952   5.340   5.381   3.860 -0.3847  0.7012 -0.6303
  978MOL0     C31953   5.278   5.457   3.969  0.2812  0.9626  0.1019
  978MOL0     O31954   5.151   5.503   3.948 -0.2664  0.6854 -0.0500
  978MOL0     C31955   5.099   5.591   4.040 -0.0889 -0.0919  0.7426
  978MOL0     C31956   4.986   5.679   3.977 -1.0575  0.4315 -0.0900
  978MOL0     C31957   5.042   5.759   3.857  0.8536 -0.1629 -0.0920
  978MOL0     C31958   4.940   5.847   3.774  0.0138 -0.2743 -0.6600
  978MOL0     C31959   4.863   5.936   3.870 -0.3969 -0.0066  0.0880
  978MOL0     C31960   4.802   5.997   3.961  0.2770  0.0229 -0.6176
  978MOL0     C31961   5.340   5.469   4.093  0.3094 -0.7556 -0.5741
  978MOL0     C31962   5.461   5.409   4.114 -0.2823  0.4252  0.6291
  978MOL0     H31963   5.962   5.300   4.112  0.5183 -0.1145 -1.3778
  978MOL0     H31964   6.135   5.175   4.160  1.0133 -0.0370  1.3502
  978MOL0     H31965   6.182   4.883   4.082 -0.2982  2.2772 -1.2311
  978MOL0     H31966   6.277   5.027   4.142  2.4413 -0.1793  3.7049
  978MOL0     H31967   6.415   4.851   4.117  0.5526 -0.4401  0.5755
  978MOL0     H31968   6.391   4.880   4.295 -0.1000  3.9327 -2.1989
  978MOL0     H31969   6.219   4.678   4.285  1.4469  0.6319  1.8707
  978MOL0     H31970   6.284   4.633   4.129  2.0560 -0.0657 -0.7369
  978MOL0     H31971   6.501   4.579   4.205  0.9886  0.4697  1.2158
  978MOL0     H31972   6.483   4.627   4.363  0.4811 -0.4397  1.3176
  978MOL0     H31973   6.298   4.422   4.235 -1.1520  0.8074  0.4571
  978MOL0     H31974   6.447   4.369   4.312 -1.8999 -2.4752  2.5986
  978MOL0     H31975   6.366   4.426   4.541 -2.4455 -1.8100  1.5281
  978MOL0     H31976   6.243   4.528   4.473 -1.7897 -0.6844 -2.1497
  978MOL0     H31977   6.170   4.314   4.569 -1.0614 -5.0707 -0.3906
  978MOL0     H31978   6.100   4.357   4.420  0.0008  4.7998  0.5948
  978MOL0     H31979   6.333   4.161   4.471 -0.3922  0.9738  2.0019
  978MOL0     H31980   6.239   4.198   4.317 -0.3455  1.3159  1.1077
  978MOL0     H31981   6.224   3.988   4.652 -1.4318 -2.5328  0.1974
  978MOL0     H31982   5.908   3.974   4.780 -1.5534  1.4949 -1.7307
  978MOL0     H31983   5.886   3.821   4.697 -0.5215  0.1409  0.2909
  978MOL0     H31984   6.145   3.882   4.857  0.1490 -0.4579  1.5920
  978MOL0     H31985   6.105   3.739   4.768 -1.9853  1.6370 -4.0840
  978MOL0     H31986   5.992   3.856   5.027  1.8835 -1.0794  1.3600
  978MOL0     H31987   6.068   3.703   4.980  0.4771 -0.5061 -2.7361
  978MOL0     H31988   5.846   3.650   5.041  1.4805  1.8711  1.6232
  978MOL0     H31989   5.849   3.646   4.855  1.6513  1.0454 -0.5365
  978MOL0     H31990   5.650   3.633   4.753  0.5901  1.4883 -0.0068
  978MOL0     H31991   5.334   3.507   4.702 -0.7004  0.7924  1.2133
  978MOL0     H31992   5.527   3.498   4.681  1.7753 -1.5175  1.3842
  978MOL0     H31993   5.442   3.397   4.794 -0.3229 -0.9172 -4.7987
  978MOL0     H31994   4.917   3.769   5.036  0.1759 -0.9393  1.9727
  978MOL0     H31995   4.709   3.696   5.117 -4.1104 -3.6258 -2.6695
  978MOL0     H31996   4.619   3.250   5.194 -0.0719  0.4148  1.0786
  978MOL0     H31997   4.660   3.321   5.348 -2.7223  1.1195  3.0995
  978MOL0     H31998   4.415   3.255   5.364  1.2246  0.6866  2.4078
  978MOL0     H31999   4.441   3.427   5.353 -1.3571 -0.2352 -0.1491
  978MOL0     H32000   4.345   3.261   5.130 -1.3792  0.3096 -0.1610
  978MOL0     H32001   4.391   3.433   5.099 -2.3275  1.0460  0.0223
  978MOL0     H32002   4.193   3.318   5.293  1.1133  0.4420 -0.3911
  978MOL0     H32003   4.216   3.494   5.270  1.0300 -0.0296  1.6648
  978MOL0     H32004   4.101   3.300   5.053  1.1139  0.1682 -0.4753
  978MOL0     H32005   4.128   3.473   5.035  1.2155  0.5831  1.7298
  978MOL0     H32006   3.897   3.367   5.223 -0.2958 -1.1272 -1.3576
  978MOL0     H32007   3.946   3.532   5.204 -2.5139 -1.0403  2.0342
  978MOL0     H32008   3.912   3.497   4.952 -1.3484  3.2837  0.5503
  978MOL0     H32009   3.763   3.513   5.050  0.5588  0.6008 -0.5665
  978MOL0     H32010   3.759   3.246   5.061  0.0288 -2.1988 -1.4543
  978MOL0     H32011   3.905   3.240   4.981 -1.4935 -1.1234  0.4954
  978MOL0     H32012   4.853   3.301   5.196 -0.2305 -1.7731 -3.0944
  978MOL0     H32013   5.075   3.381   5.129  0.1637 -0.3297  0.7564
  978MOL0     H32014   5.342   3.749   5.122 -0.9822 -3.2420 -1.4785
  978MOL0     H32015   5.581   3.862   5.097  2.2583  0.7813 -0.5300
  978MOL0     H32016   5.893   4.890   4.372  0.5253 -0.7159 -1.1186
  978MOL0     H32017   5.701   5.014   4.311  0.3052 -1.9369 -1.3993
  978MOL0     H32018   5.533   5.310   3.798 -0.0049  3.8351 -0.7433
  978MOL0     H32019   5.307   5.386   3.757  0.7187 -1.3660 -1.1474
  978MOL0     H32020   5.051   5.534   4.121 -0.2121 -0.9324  0.0913
  978MOL0     H32021   5.176   5.659   4.076  0.5441 -1.8521  2.9507
  978MOL0     H32022   4.948   5.744   4.056 -0.1140  1.4289 -0.4385
  978MOL0     H32023   4.898   5.621   3.947 -2.5530  2.6745 -0.2372
  978MOL0     H32024   5.076   5.693   3.777 -1.7430 -2.0371  0.2111
  978MOL0     H32025   5.133   5.815   3.882  0.5480  0.5821 -0.6061
  978MOL0     H32026   4.877   5.772   3.724 -2.6397  0.1468  1.7687
  978MOL0     H32027   4.977   5.914   3.696 -0.4373  1.8317  0.8463
  978MOL0     H32028   4.742   6.063   4.020  0.9510  1.6219 -1.6515
  978MOL0     H32029   5.290   5.507   4.181  0.4320 -2.8577  0.4485
  978MOL0     H32030   5.507   5.416   4.212  1.5912  1.3142 -0.2609
  979MOL0     O32031   2.013   8.331   9.745  0.2075  0.7292 -0.2135
  979MOL0     C32032   1.918   8.369   9.675 -0.5461  0.0636 -0.5005
  979MOL0     O32033   1.911   8.364   9.543 -0.2994 -0.2941 -0.4415
  979MOL0     C32034   2.010   8.316   9.465 -0.4031 -0.8880 -0.3527
  979MOL0     C32035   1.953   8.264   9.349 -0.6865  0.6862 -0.6789
  979MOL0     C32036   2.046   8.222   9.252 -0.8304  0.4705  0.0502
  979MOL0     C32037   2.187   8.244   9.255 -0.5117 -0.5782 -0.4147
  979MOL0     O32038   2.265   8.186   9.148 -0.1489  0.0620 -1.1043
  979MOL0     C32039   2.409   8.208   9.154  1.0822  0.0151 -0.5988
  979MOL0     C32040   2.488   8.155   9.036  0.7636  0.6929  0.4505
  979MOL0     C32041   2.485   8.240   8.909 -0.4860 -0.4608 -0.3243
  979MOL0     C32042   2.523   8.152   8.792  0.4771 -0.5083 -0.0061
  979MOL0     C32043   2.531   8.242   8.662  0.8085  0.3509 -1.4167
  979MOL0     C32044   2.398   8.303   8.624 -0.3849 -0.1960  1.1551
  979MOL0     C32045   2.370   8.310   8.468 -0.2820  0.6506 -0.2534
  979MOL0     C32046   2.234   8.387   8.456  0.3159 -0.4905 -0.5643
  979MOL0     N32047   2.173   8.341   8.332 -0.9182  0.1605  0.0727
  979MOL0     C32048   2.139   8.210   8.298 -0.3891  0.3626  0.4638
  979MOL0     C32049   2.105   8.217   8.168  0.3896  0.2722 -1.1018
  979MOL0     C32050   2.062   8.104   8.085  0.0271  0.4432  0.1838
  979MOL0     C32051   1.945   8.138   7.984  0.4435 -0.6563 -0.4783
  979MOL0     C32052   1.804   8.167   8.050 -0.3555 -0.0134  0.6540
  979MOL0     C32053   1.802   8.299   8.135  0.5486 -1.0633  0.5417
  979MOL0     O32054   1.674   8.296   8.192  0.7529 -0.6368  0.1057
  979MOL0     C32055   1.638   8.392   8.282  0.5194 -0.4738  0.1196
  979MOL0     C32056   1.711   8.498   8.322 -1.1374 -0.8875  0.8465
  979MOL0     C32057   1.683   8.585   8.434  0.6723 -0.5174  0.6910
  979MOL0     C32058   1.795   8.688   8.462 -0.0971  0.0009 -0.3935
  979MOL0     C32059   1.573   8.555   8.511  0.0623 -0.0684  0.1736
  979MOL0     C32060   1.532   8.622   8.637 -0.2982 -0.5354  0.2827
  979MOL0     O32061   1.414   8.574   8.684 -0.6019  0.4353  0.0009
  979MOL0     C32062   1.366   8.620   8.805  0.2409 -0.6466  0.3710
  979MOL0     C32063   1.342   8.526   8.905 -0.3263  0.8757  0.6776
  979MOL0     C32064   1.301   8.562   9.031  0.2828  1.1082 -0.1161
  979MOL0     C32065   1.285   8.695   9.072 -0.6192  0.4569  0.3767
  979MOL0     O32066   1.243   8.722   9.197 -0.0536 -0.2531 -0.5505
  979MOL0     C32067   1.236   8.852   9.244 -0.4150 -0.0302 -0.4755
  979MOL0     C32068   1.207   8.829   9.392 -0.1587  0.7916  0.0445
  979MOL0     C32069   1.132   8.938   9.454 -0.4647 -0.2205  0.8109
  979MOL0     C32070   1.091   8.908   9.604 -0.7213 -0.6031  0.1123
  979MOL0     C32071   1.061   9.035   9.677 -0.4308  1.2627 -0.0008
  979MOL0     C32072   1.012   8.993   9.819 -1.6562  0.3639  0.9225
  979MOL0     C32073   1.016   9.130   9.897 -0.5593 -0.1502 -0.2864
  979MOL0     C32074   0.926   9.120  10.017  0.3947 -0.4552 -0.3356
  979MOL0    Cl32075   0.760   9.160   9.985 -0.3917  0.4460 -0.3244
  979MOL0     C32076   1.308   8.797   8.972  0.3166  0.5951 -0.0068
  979MOL0     C32077   1.349   8.759   8.841  0.1357 -0.6256  0.2657
  979MOL0     O32078   1.594   8.717   8.682  0.2812  0.7631 -0.8376
  979MOL0     C32079   1.503   8.427   8.484  0.2259  0.0425 -0.4483
  979MOL0     C32080   1.537   8.351   8.371  0.0102 -0.9177  0.0816
  979MOL0     N32081   2.100   8.351   8.132  0.6388  0.8681 -0.3695
  979MOL0     N32082   2.143   8.419   8.228  0.3609 -0.8385 -1.2798
  979MOL0     C32083   2.233   8.304   9.372 -0.0446 -0.1646  0.5050
  979MOL0     C32084   2.142   8.344   9.472  0.6815 -0.2023 -0.2023
  979MOL0     C32085   1.809   8.437   9.755 -0.8576 -0.2396  0.4701
  979MOL0     C32086   1.796   8.425   9.889  0.2249  0.3210 -0.5488
  979MOL0     C32087   1.682   8.477   9.953 -0.5518 -0.2414  0.3077
  979MOL0     C32088   1.587   8.547   9.888  0.3290  0.4071 -0.1430
  979MOL0     O32089   1.489   8.624   9.947 -0.1989 -0.0940  0.1451
  979MOL0     C32090   1.428   8.571  10.069 -0.1609 -0.5402  0.1530
  979MOL0     C32091   1.303   8.646  10.094  0.2674 -0.1227 -0.1463
  979MOL0     C32092   1.327   8.802  10.100 -0.6194  0.4691  0.2383
  979MOL0     C32093   1.201   8.871  10.140  0.6727 -0.7276  0.0090
  979MOL0     C32094   1.223   9.015  10.172  0.3315  0.4356 -0.2714
  979MOL0     C32095   1.239   9.135  10.183 -0.4507 -0.2020  1.2074
  979MOL0     C32096   1.604   8.571   9.749 -0.9650 -0.6332  0.2815
  979MOL0     C32097   1.720   8.515   9.682  0.3853  0.5574 -0.9018
  979MOL0     H32098   1.852   8.224   9.342 -0.0099 -1.1442 -0.7150
  979MOL0     H32099   1.996   8.180   9.166 -0.4638  1.2040 -0.5342
  979MOL0     H32100   2.431   8.314   9.168  0.1938 -0.0568  1.7718
  979MOL0     H32101   2.441   8.160   9.247 -2.1040 -1.5628 -0.1629
  979MOL0     H32102   2.594   8.151   9.062  0.7928  0.7599  0.3424
  979MOL0     H32103   2.452   8.054   9.016 -1.4891  1.2987  1.0309
  979MOL0     H32104   2.387   8.288   8.906  0.4678  1.5898 -0.9724
  979MOL0     H32105   2.553   8.323   8.932 -0.8760 -0.0940 -0.4929
  979MOL0     H32106   2.620   8.107   8.811 -0.0215 -1.5296  0.2207
  979MOL0     H32107   2.456   8.070   8.764 -0.7005  0.1381  0.8340
  979MOL0     H32108   2.609   8.318   8.676 -0.2239  0.8455  3.4229
  979MOL0     H32109   2.552   8.170   8.583  1.2983 -0.1164 -0.8731
  979MOL0     H32110   2.318   8.241   8.666 -0.0439  0.1823  2.3900
  979MOL0     H32111   2.395   8.404   8.667 -0.5358  1.1087 -1.7158
  979MOL0     H32112   2.443   8.368   8.410 -2.6051  2.4048 -1.5926
  979MOL0     H32113   2.362   8.213   8.419 -0.1617  0.0922  0.8168
  979MOL0     H32114   2.253   8.495   8.458  2.8053 -0.8678  1.6591
  979MOL0     H32115   2.173   8.363   8.544  3.3335 -0.5611  1.6804
  979MOL0     H32116   2.149   8.127   8.368  2.4392  0.6080  0.4986
  979MOL0     H32117   2.147   8.072   8.025 -0.6598 -0.5799 -0.2754
  979MOL0     H32118   2.044   8.022   8.156  3.3704 -0.9562 -0.3976
  979MOL0     H32119   1.935   8.053   7.916  1.8277 -0.9260 -0.3648
  979MOL0     H32120   1.975   8.225   7.925 -2.0661  0.5507 -0.1075
  979MOL0     H32121   1.779   8.086   8.120 -1.6154 -0.1482  0.0863
  979MOL0     H32122   1.726   8.162   7.973  0.1494 -2.1098  0.2118
  979MOL0     H32123   1.809   8.391   8.077 -3.4002  0.3881  2.0267
  979MOL0     H32124   1.875   8.299   8.216  0.9180  1.3618  0.2741
  979MOL0     H32125   1.806   8.511   8.271 -2.2537  1.6382 -0.7649
  979MOL0     H32126   1.806   8.705   8.570  0.7487 -1.9440 -0.1362
  979MOL0     H32127   1.882   8.631   8.429  0.1941  0.8861 -1.1833
  979MOL0     H32128   1.796   8.779   8.401 -0.2101 -0.0309 -0.4439
  979MOL0     H32129   1.345   8.418   8.894  2.6762  0.7347  2.0249
  979MOL0     H32130   1.255   8.489   9.097  4.1412 -0.5820  1.0065
  979MOL0     H32131   1.333   8.900   9.227 -0.2109 -0.0264  0.6462
  979MOL0     H32132   1.154   8.906   9.196 -0.3490  0.4071 -0.1008
  979MOL0     H32133   1.153   8.737   9.416  2.0458 -0.0029  2.3663
  979MOL0     H32134   1.297   8.816   9.453 -0.1601  1.2895  0.1578
  979MOL0     H32135   1.046   8.963   9.391  1.8151  1.5645 -1.8608
  979MOL0     H32136   1.196   9.027   9.454 -0.0375 -0.5038 -0.7668
  979MOL0     H32137   1.011   8.833   9.609  0.4027 -1.9261 -1.0746
  979MOL0     H32138   1.174   8.858   9.653 -0.0854  0.4488  0.1430
  979MOL0     H32139   0.982   9.095   9.632 -1.6526  2.9630  3.9068
  979MOL0     H32140   1.155   9.092   9.679  0.9431 -0.9005  0.1079
  979MOL0     H32141   0.911   8.953   9.814 -1.1485 -1.0107  1.2462
  979MOL0     H32142   1.086   8.929   9.868 -1.9272 -2.5380 -2.1222
  979MOL0     H32143   0.984   9.211   9.831  0.8482 -1.4083 -2.6520
  979MOL0     H32144   1.117   9.148   9.937 -2.1875 -0.4448  4.6234
  979MOL0     H32145   0.957   9.200  10.085  1.8230 -0.7520 -0.6113
  979MOL0     H32146   0.943   9.029  10.075  0.9559 -0.1114  0.0462
  979MOL0     H32147   1.310   8.902   8.997  4.2845  1.4679 -2.9664
  979MOL0     H32148   1.361   8.830   8.760  1.2142 -1.0470  0.0370
  979MOL0     H32149   1.433   8.373   8.547  0.1401 -2.1946 -2.2815
  979MOL0     H32150   1.482   8.259   8.360  0.6285 -1.4680  1.3027
  979MOL0     H32151   2.337   8.335   9.378 -0.3785  0.9109  0.9780
  979MOL0     H32152   2.187   8.396   9.556  1.1899 -0.3107 -0.4015
  979MOL0     H32153   1.880   8.386   9.946 -0.9676 -0.3774  0.7908
  979MOL0     H32154   1.671   8.479  10.061  1.3167  1.2674  0.5135
  979MOL0     H32155   1.394   8.467  10.065  2.2307 -1.3595 -0.0121
  979MOL0     H32156   1.482   8.597  10.161 -1.9426 -2.0796  1.7229
  979MOL0     H32157   1.264   8.607  10.189  0.5296  0.3800  0.1700
  979MOL0     H32158   1.231   8.615  10.018 -1.1741  0.4283  0.9483
  979MOL0     H32159   1.357   8.843  10.003 -5.1204  0.1442 -1.5377
  979MOL0     H32160   1.409   8.826  10.169  0.6435 -1.2316 -0.5653
  979MOL0     H32161   1.167   8.839  10.239  3.3855  1.9265  2.0167
  979MOL0     H32162   1.123   8.849  10.067 -0.9048  0.7776  1.1832
  979MOL0     H32163   1.247   9.241  10.193  1.0541 -0.2863  1.1015
  979MOL0     H32164   1.543   8.629   9.681  1.5152 -1.3208 -2.7875
  979MOL0     H32165   1.728   8.517   9.574  0.9561 -0.2418 -0.8795
  980MOL0     O32166   0.127   4.118  11.324  0.3338  0.2964 -0.6029
  980MOL0     C32167   0.229   4.181  11.306 -1.2938 -0.3117 -0.6216
  980MOL0     O32168   0.345   4.187  11.391 -0.3290 -1.0418 -0.2036
  980MOL0     C32169   0.349   4.095  11.493  0.6052  0.4322 -0.1215
  980MOL0     C32170   0.373   4.140  11.614  0.0937 -0.0353 -0.8249
  980MOL0     C32171   0.381   4.052  11.720  0.3121  0.2395 -0.5587
  980MOL0     C32172   0.363   3.914  11.701  0.0330  0.1428 -0.0775
  980MOL0     O32173   0.375   3.848  11.819 -0.2262 -0.3227 -0.0475
  980MOL0     C32174   0.355   3.710  11.823 -0.4925 -0.4467  0.2357
  980MOL0     C32175   0.357   3.665  11.976  0.5637  0.0803 -0.3795
  980MOL0     C32176   0.331   3.516  11.998  0.7396  0.1107  0.1141
  980MOL0     C32177   0.345   3.479  12.142  0.1586 -0.1261  0.0442
  980MOL0     C32178   0.344   3.323  12.167 -0.3047  0.3777  0.0024
  980MOL0     C32179   0.209   3.274  12.206 -0.2597 -0.3227 -0.4064
  980MOL0     C32180   0.187   3.307  12.350  0.4230 -0.8710 -0.1560
  980MOL0     C32181   0.058   3.235  12.402  0.8442 -0.4692 -0.4433
  980MOL0     N32182   0.057   3.228  12.548 -0.0297 -0.2748  0.3707
  980MOL0     C32183   0.028   3.337  12.629 -1.1434 -0.7148 -0.3677
  980MOL0     C32184   0.025   3.289  12.756 -0.5295 -0.0295  0.3906
  980MOL0     C32185  -0.002   3.369  12.877  0.7992 -0.7813  0.8161
  980MOL0     C32186  -0.148   3.351  12.925  0.1366  0.0041 -0.1821
  980MOL0     C32187  -0.252   3.391  12.821  0.3482  0.9565  0.9174
  980MOL0     C32188  -0.397   3.402  12.874 -1.5196 -0.0996 -0.7622
  980MOL0     O32189  -0.489   3.414  12.769 -0.5417 -0.1682 -0.8005
  980MOL0     C32190  -0.617   3.427  12.791  0.5988 -0.2035  0.3321
  980MOL0     C32191  -0.682   3.425  12.917 -0.2050  1.2652  1.1299
  980MOL0     C32192  -0.827   3.425  12.925 -0.9705 -0.1633  0.5741
  980MOL0     C32193  -0.887   3.375  13.055 -0.8324 -0.7418  0.0217
  980MOL0     C32194  -0.898   3.449  12.808  0.6238 -0.2198 -0.4232
  980MOL0     C32195  -1.047   3.469  12.802  0.0219  1.2154  0.0878
  980MOL0     O32196  -1.120   3.483  12.918  1.0989  0.7862 -0.3631
  980MOL0     C32197  -1.251   3.435  12.922  0.0085 -1.4558  0.3437
  980MOL0     C32198  -1.293   3.322  12.993  0.3432  0.3202  0.1448
  980MOL0     C32199  -1.431   3.297  13.020  1.1665  1.1006 -0.0147
  980MOL0     C32200  -1.524   3.398  12.977 -0.0462 -0.7932 -0.3982
  980MOL0     O32201  -1.659   3.378  13.001  0.2050  0.7952  0.2474
  980MOL0     C32202  -1.694   3.339  13.143 -0.4367 -0.2937 -0.6730
  980MOL0     C32203  -1.761   3.459  13.213  0.0354  0.1886  0.0989
  980MOL0     C32204  -1.887   3.503  13.143 -0.5101  0.5193 -0.4899
  980MOL0     C32205  -2.006   3.522  13.228 -0.5886 -0.3700 -0.6145
  980MOL0     C32206  -2.112   3.624  13.174 -0.9738 -0.0957 -0.1113
  980MOL0     C32207  -2.227   3.641  13.266 -0.2734 -0.0030  0.3988
  980MOL0     C32208  -2.326   3.760  13.238 -0.7223 -1.0033  0.1985
  980MOL0     C32209  -2.460   3.719  13.292  0.9598  0.2709  0.0269
  980MOL0    Cl32210  -2.453   3.716  13.470 -0.2644 -0.1915  0.0814
  980MOL0     C32211  -1.488   3.504  12.894 -0.4033 -0.9563  0.6966
  980MOL0     C32212  -1.353   3.527  12.872 -0.4885 -0.4493 -0.5556
  980MOL0     O32213  -1.092   3.472  12.686 -0.3696  0.2041  0.2447
  980MOL0     C32214  -0.820   3.456  12.685 -0.3311  0.0293  0.1353
  980MOL0     C32215  -0.684   3.451  12.683  0.2622  0.4351  0.6012
  980MOL0     N32216   0.054   3.160  12.751 -0.1233  0.6583 -0.1731
  980MOL0     N32217   0.080   3.123  12.631  0.5416 -0.1780 -0.4461
  980MOL0     C32218   0.349   3.864  11.567  0.6134 -0.0456 -0.4358
  980MOL0     C32219   0.350   3.957  11.466 -0.0587  0.5808  0.0197
  980MOL0     C32220   0.234   4.266  11.175  0.2619  1.1201  0.2394
  980MOL0     C32221   0.314   4.379  11.178 -0.2242  0.4326  0.3110
  980MOL0     C32222   0.325   4.451  11.057  0.4463  0.3610 -0.2475
  980MOL0     C32223   0.260   4.409  10.937 -0.3322 -0.2629  0.0943
  980MOL0     O32224   0.291   4.493  10.830  0.2044  1.1091  0.7228
  980MOL0     C32225   0.218   4.487  10.708 -0.7010  0.9452  0.4824
  980MOL0     C32226   0.266   4.369  10.620 -0.3382 -0.1710  0.1486
  980MOL0     C32227   0.201   4.357  10.480  0.1601 -0.6148 -0.6139
  980MOL0     C32228   0.302   4.338  10.376  0.3396 -0.1304  0.4663
  980MOL0     C32229   0.248   4.285  10.253 -0.1920  0.5211 -1.1174
  980MOL0     C32230   0.212   4.245  10.152 -0.9384 -0.1654 -0.6524
  980MOL0     C32231   0.181   4.297  10.941 -0.0733  0.0499  0.0522
  980MOL0     C32232   0.163   4.223  11.063 -0.8195  1.1012 -0.0727
  980MOL0     H32233   0.384   4.243  11.646  1.9710 -1.0965  2.5111
  980MOL0     H32234   0.387   4.087  11.823  1.2139  0.1488 -0.5721
  980MOL0     H32235   0.257   3.694  11.776 -0.1959  0.1604 -0.6239
  980MOL0     H32236   0.433   3.657  11.767 -1.3934 -0.9130 -0.6246
  980MOL0     H32237   0.457   3.687  12.014  0.6725  0.4706 -0.8831
  980MOL0     H32238   0.281   3.719  12.033 -0.0998 -2.2372  1.0772
  980MOL0     H32239   0.233   3.491  11.958 -0.1103  0.3002  1.9970
  980MOL0     H32240   0.404   3.450  11.949  0.7925  0.6797 -0.5934
  980MOL0     H32241   0.447   3.512  12.165  1.3313 -1.3797 -2.8878
  980MOL0     H32242   0.262   3.525  12.196  0.9481  3.4190 -1.4707
  980MOL0     H32243   0.361   3.261  12.079 -0.1070 -0.7330  0.7973
  980MOL0     H32244   0.418   3.302  12.244  1.5820  1.5065 -1.4372
  980MOL0     H32245   0.131   3.303  12.135 -0.0739  1.4098  0.0482
  980MOL0     H32246   0.217   3.165  12.200 -0.4326 -0.2872 -1.8818
  980MOL0     H32247   0.277   3.272  12.401  0.7325 -3.3799 -2.1914
  980MOL0     H32248   0.163   3.413  12.364  4.0299 -0.0492  0.8463
  980MOL0     H32249   0.066   3.133  12.362 -1.1091 -1.7986  2.2713
  980MOL0     H32250  -0.034   3.279  12.364  0.8013 -0.2379 -0.0747
  980MOL0     H32251   0.014   3.442  12.606  1.7331  0.3873  2.2826
  980MOL0     H32252   0.066   3.346  12.960  2.2611 -0.9709 -0.3790
  980MOL0     H32253   0.002   3.476  12.857 -2.6701 -0.5041  1.1311
  980MOL0     H32254  -0.163   3.410  13.016 -4.7305  1.2217 -1.4518
  980MOL0     H32255  -0.163   3.245  12.949  0.1755 -0.8198 -3.3221
  980MOL0     H32256  -0.260   3.312  12.745 -2.9289  2.9720 -1.1061
  980MOL0     H32257  -0.221   3.471  12.753 -0.8322 -1.0574 -2.2211
  980MOL0     H32258  -0.410   3.488  12.941 -1.4692 -1.5121  1.1412
  980MOL0     H32259  -0.426   3.312  12.928 -2.7301 -0.4674 -1.9677
  980MOL0     H32260  -0.620   3.415  13.006  1.0019  5.4288  0.9925
  980MOL0     H32261  -0.946   3.286  13.033  0.7365 -1.6999 -0.5052
  980MOL0     H32262  -0.800   3.342  13.113  1.1053  1.3634 -1.5357
  980MOL0     H32263  -0.938   3.456  13.108  1.1240 -1.3903  3.1578
  980MOL0     H32264  -1.222   3.254  13.039 -0.6649 -0.6183  0.3759
  980MOL0     H32265  -1.461   3.205  13.070  1.5732  0.8165 -0.2818
  980MOL0     H32266  -1.760   3.252  13.141  1.5691 -2.0004  1.1399
  980MOL0     H32267  -1.608   3.314  13.207 -0.7129 -0.7825 -0.4891
  980MOL0     H32268  -1.771   3.426  13.317  0.2178 -0.1355  0.0142
  980MOL0     H32269  -1.695   3.546  13.226 -2.1397  1.6758  2.0646
  980MOL0     H32270  -1.922   3.423  13.076 -0.9243 -2.2542  2.7568
  980MOL0     H32271  -1.866   3.589  13.079 -2.3255 -0.2623 -2.2570
  980MOL0     H32272  -2.048   3.424  13.250 -2.7587  0.0907 -2.3085
  980MOL0     H32273  -1.970   3.566  13.321 -1.1715 -3.1113  1.0111
  980MOL0     H32274  -2.148   3.593  13.075  2.2400  0.4684 -1.5893
  980MOL0     H32275  -2.063   3.722  13.176  3.9402 -2.2645  2.0865
  980MOL0     H32276  -2.290   3.551  13.265 -0.0572 -0.1758  1.3256
  980MOL0     H32277  -2.194   3.640  13.370 -3.2119 -2.2500  1.4643
  980MOL0     H32278  -2.329   3.774  13.129  1.9095 -0.4970  0.1189
  980MOL0     H32279  -2.296   3.852  13.290  1.7909 -1.5132 -0.2204
  980MOL0     H32280  -2.491   3.623  13.248  2.7085  0.8273 -2.6802
  980MOL0     H32281  -2.534   3.791  13.258 -0.3039 -0.8318  0.3688
  980MOL0     H32282  -1.556   3.575  12.849 -0.4233 -1.2593  0.2410
  980MOL0     H32283  -1.319   3.611  12.812  2.5378 -1.8730 -1.0154
  980MOL0     H32284  -0.869   3.486  12.593  1.8310 -2.4345 -1.9593
  980MOL0     H32285  -0.642   3.455  12.582 -3.6676  0.8931 -1.1966
  980MOL0     H32286   0.341   3.759  11.542 -0.5597  0.2275 -1.2794
  980MOL0     H32287   0.337   3.926  11.362 -1.8275  3.4753 -0.7579
  980MOL0     H32288   0.358   4.411  11.271 -1.5303  0.5632  0.9125
  980MOL0     H32289   0.394   4.535  11.065 -0.1445  1.3972 -4.2174
  980MOL0     H32290   0.114   4.474  10.740 -1.6600  2.2490 -1.8894
  980MOL0     H32291   0.227   4.567  10.634  0.5968 -2.0522 -2.8489
  980MOL0     H32292   0.252   4.272  10.668 -0.4776  0.0364  0.5299
  980MOL0     H32293   0.373   4.386  10.603  0.3483 -3.1771  0.8734
  980MOL0     H32294   0.155   4.455  10.468 -1.5444 -1.5762 -2.6723
  980MOL0     H32295   0.125   4.278  10.474  2.1176 -2.8647  1.6958
  980MOL0     H32296   0.375   4.260  10.403  2.2336  0.0975 -3.3142
  980MOL0     H32297   0.373   4.421  10.366  0.2697 -0.1994 -0.7860
  980MOL0     H32298   0.145   4.221  10.071 -3.0808  0.0433  0.9511
  980MOL0     H32299   0.133   4.250  10.856  1.1523 -1.6661  0.2573
  980MOL0     H32300   0.101   4.135  11.069 -1.6018  1.4432 -2.3814
  981MOL0     O32301  11.163   8.843   2.239 -1.4180  0.4513 -0.0870
  981MOL0     C32302  11.267   8.903   2.273 -0.5350 -0.1925 -0.0481
  981MOL0     O32303  11.388   8.909   2.196  0.5574  0.5004  0.7219
  981MOL0     C32304  11.375   8.929   2.061  1.0551  0.2263 -0.7332
  981MOL0     C32305  11.445   8.834   1.979 -0.0315 -0.9498 -0.3380
  981MOL0     C32306  11.459   8.857   1.843 -0.2573 -0.7199  0.3626
  981MOL0     C32307  11.407   8.969   1.781 -0.0872 -0.1562  1.0003
  981MOL0     O32308  11.422   8.947   1.644  0.9594  0.6349  0.9559
  981MOL0     C32309  11.351   9.034   1.548 -0.4248  0.4828 -0.8373
  981MOL0     C32310  11.351   8.975   1.405  0.1275 -0.1321  0.9465
  981MOL0     C32311  11.267   8.848   1.408  1.1660  0.5584  0.0439
  981MOL0     C32312  11.194   8.826   1.275  0.0237  0.1169 -0.5508
  981MOL0     C32313  11.102   8.706   1.301 -0.3799  1.1138 -0.3097
  981MOL0     C32314  11.040   8.649   1.174  0.3804 -0.5189 -0.0614
  981MOL0     C32315  11.133   8.563   1.090  0.5293 -0.0083 -0.8612
  981MOL0     C32316  11.042   8.477   0.990  0.5076  0.8738  0.5162
  981MOL0     N32317  11.114   8.394   0.891 -0.8660 -0.4135 -0.6990
  981MOL0     C32318  11.189   8.286   0.934  1.0279 -0.6278  0.8955
  981MOL0     C32319  11.218   8.220   0.813 -0.0281 -0.6489  0.0348
  981MOL0     C32320  11.328   8.116   0.804 -0.5469  0.0705  0.5521
  981MOL0     C32321  11.279   7.968   0.803  0.2447 -0.5668  1.1261
  981MOL0     C32322  11.379   7.894   0.721 -0.7417 -0.3574  0.1486
  981MOL0     C32323  11.334   7.746   0.695  0.0420  0.2275  0.2652
  981MOL0     O32324  11.458   7.672   0.655 -0.8263  0.2401  0.8643
  981MOL0     C32325  11.522   7.608   0.763  0.0418  0.3703  1.1306
  981MOL0     C32326  11.511   7.637   0.903 -0.2132  0.1069  0.7588
  981MOL0     C32327  11.588   7.570   1.005 -1.2030 -0.2866  0.4566
  981MOL0     C32328  11.598   7.613   1.150 -0.6026 -0.0267 -0.2622
  981MOL0     C32329  11.672   7.461   0.964 -0.2900  0.3280  0.5387
  981MOL0     C32330  11.743   7.376   1.062 -0.3422 -1.1859 -0.5756
  981MOL0     O32331  11.681   7.261   1.104 -0.1312 -0.1459  0.2173
  981MOL0     C32332  11.753   7.181   1.192  0.2818 -0.4430 -0.2327
  981MOL0     C32333  11.744   7.049   1.154 -0.5565  0.9059 -0.8350
  981MOL0     C32334  11.792   6.946   1.235 -0.3621  0.8042  0.4859
  981MOL0     C32335  11.866   6.983   1.348  0.6794  0.2925  0.5426
  981MOL0     O32336  11.931   6.890   1.413 -0.2006  0.0586  0.1272
  981MOL0     C32337  11.870   6.835   1.528 -0.3148 -0.4518  0.8792
  981MOL0     C32338  11.948   6.715   1.572 -0.5997 -0.3892  0.0331
  981MOL0     C32339  11.883   6.652   1.692  0.1493 -0.5997  0.5586
  981MOL0     C32340  11.956   6.525   1.712 -0.5317  0.0429 -0.0625
  981MOL0     C32341  11.908   6.461   1.839 -0.6761 -0.3356  0.1478
  981MOL0     C32342  11.970   6.325   1.855  0.2835 -0.0278  0.5120
  981MOL0     C32343  11.915   6.251   1.972  0.5533 -0.2128 -0.3202
  981MOL0     C32344  11.978   6.113   1.991  0.0905 -0.0768  0.2249
  981MOL0    Cl32345  11.947   6.003   1.852  0.2465  0.1596 -0.1053
  981MOL0     C32346  11.867   7.115   1.390 -0.5672 -0.1980 -0.7071
  981MOL0     C32347  11.803   7.211   1.318 -0.1350 -0.1213  0.0896
  981MOL0     O32348  11.851   7.419   1.103  0.5772  0.6740 -1.1453
  981MOL0     C32349  11.676   7.430   0.831 -0.8400  0.1188  0.4334
  981MOL0     C32350  11.609   7.503   0.734 -0.1982  0.3232 -0.2518
  981MOL0     N32351  11.164   8.303   0.711  0.0911  1.1065 -0.6538
  981MOL0     N32352  11.094   8.397   0.754 -0.8879 -0.9446  0.6439
  981MOL0     C32353  11.340   9.065   1.859 -0.3483 -0.3548  0.2759
  981MOL0     C32354  11.334   9.043   2.002 -0.5164 -0.3958  0.7363
  981MOL0     C32355  11.275   8.938   2.411 -0.0144 -0.1561  0.1181
  981MOL0     C32356  11.404   8.957   2.467 -0.0688  0.4678 -0.3282
  981MOL0     C32357  11.412   8.968   2.610  0.3008  0.0885 -0.8389
  981MOL0     C32358  11.297   9.000   2.679  0.3572 -0.0758 -0.0639
  981MOL0     O32359  11.326   9.032   2.810 -0.2452 -0.1548 -0.5258
  981MOL0     C32360  11.218   9.088   2.890  0.6305  0.4365 -0.2281
  981MOL0     C32361  11.141   8.964   2.938 -0.5842  0.8095  0.2313
  981MOL0     C32362  11.021   9.004   3.022  0.1158  0.1540  0.7573
  981MOL0     C32363  11.057   9.050   3.161 -0.9096  0.5153  0.1399
  981MOL0     C32364  10.948   9.112   3.237 -0.2776 -0.7210  0.3914
  981MOL0     C32365  10.851   9.148   3.296 -0.2522 -0.0431  0.4219
  981MOL0     C32366  11.176   8.990   2.617  0.2934 -1.0048  0.6866
  981MOL0     C32367  11.164   8.960   2.489  0.0130  0.2666  0.9652
  981MOL0     H32368  11.486   8.740   2.014  1.3664 -0.1206  0.3134
  981MOL0     H32369  11.496   8.779   1.778 -2.0277 -1.7598  0.5221
  981MOL0     H32370  11.247   9.038   1.582  0.1634  2.0504  0.9367
  981MOL0     H32371  11.397   9.133   1.545  0.1564  0.2240 -0.6022
  981MOL0     H32372  11.313   9.042   1.327 -2.5422 -1.0021  1.3884
  981MOL0     H32373  11.452   8.960   1.367 -0.2157 -1.3829  0.4823
  981MOL0     H32374  11.328   8.760   1.429 -0.4391 -0.3546  1.0146
  981MOL0     H32375  11.183   8.855   1.477  1.2729 -1.1333  0.3836
  981MOL0     H32376  11.139   8.915   1.242 -1.0541 -0.1789  0.3838
  981MOL0     H32377  11.264   8.797   1.196  0.9839  1.0950 -0.0756
  981MOL0     H32378  11.151   8.628   1.360 -1.6964  0.8878  0.5020
  981MOL0     H32379  11.022   8.741   1.366 -0.0473  1.8893 -0.3026
  981MOL0     H32380  10.958   8.584   1.205  1.1326 -2.7989 -2.4346
  981MOL0     H32381  11.007   8.728   1.105 -0.8085 -0.6736  0.3025
  981MOL0     H32382  11.202   8.628   1.036 -1.1137  1.0794 -1.7333
  981MOL0     H32383  11.195   8.491   1.144  1.2349  2.5917  2.0647
  981MOL0     H32384  10.979   8.541   0.927 -3.1968 -2.3521  0.5907
  981MOL0     H32385  10.971   8.418   1.048  2.1227 -2.1725 -0.4119
  981MOL0     H32386  11.205   8.249   1.035 -1.0105 -0.1302  1.4590
  981MOL0     H32387  11.385   8.134   0.713 -0.2231 -2.1406  0.2679
  981MOL0     H32388  11.397   8.128   0.887 -2.8795  2.2291  2.3537
  981MOL0     H32389  11.185   7.965   0.748 -1.2468  0.2368  3.4860
  981MOL0     H32390  11.259   7.934   0.905 -1.2431 -2.1839  0.3556
  981MOL0     H32391  11.481   7.902   0.761  1.1004 -0.6944 -3.9730
  981MOL0     H32392  11.389   7.944   0.624 -0.3376 -0.6742  0.0236
  981MOL0     H32393  11.250   7.747   0.625  1.2600 -1.1860 -1.2796
  981MOL0     H32394  11.291   7.703   0.786  2.7386 -1.8350  0.6896
  981MOL0     H32395  11.444   7.716   0.937 -2.5640 -1.7942  0.8270
  981MOL0     H32396  11.699   7.639   1.181 -0.6792  0.3845 -0.3499
  981MOL0     H32397  11.527   7.695   1.167 -0.7363 -0.8188  3.8150
  981MOL0     H32398  11.566   7.529   1.212  1.4104  0.4223  1.4760
  981MOL0     H32399  11.686   7.022   1.066 -0.2380  0.6515 -0.9686
  981MOL0     H32400  11.785   6.843   1.201  0.5195  1.7035 -2.7924
  981MOL0     H32401  11.874   6.913   1.604 -0.3072  0.8723 -0.4425
  981MOL0     H32402  11.769   6.796   1.517 -0.0461 -1.4934  1.8937
  981MOL0     H32403  11.965   6.642   1.492 -1.2593  0.0759 -0.5460
  981MOL0     H32404  12.042   6.753   1.613 -1.2592  0.3861  0.8669
  981MOL0     H32405  11.779   6.623   1.674 -0.5421  1.1674  1.4784
  981MOL0     H32406  11.891   6.719   1.778 -1.5253  0.3172  0.0676
  981MOL0     H32407  11.952   6.462   1.623  1.5838  1.7332 -1.4550
  981MOL0     H32408  12.060   6.551   1.732  0.3026 -1.7552 -1.7217
  981MOL0     H32409  11.799   6.454   1.831 -0.5386 -2.7628 -0.3661
  981MOL0     H32410  11.935   6.519   1.928  1.6275 -0.7462 -0.2198
  981MOL0     H32411  11.925   6.268   1.773 -3.1343  2.4468  0.4586
  981MOL0     H32412  12.079   6.333   1.851  0.4688 -1.3436  1.9236
  981MOL0     H32413  11.806   6.243   1.976  0.6175 -1.1013 -0.0854
  981MOL0     H32414  11.943   6.308   2.061  2.9789  0.9309 -1.7291
  981MOL0     H32415  11.951   6.056   2.081 -0.1217  1.0488  0.8837
  981MOL0     H32416  12.086   6.132   2.002  0.3386 -0.9565 -0.5159
  981MOL0     H32417  11.923   7.139   1.480 -0.9757  0.8707 -0.7118
  981MOL0     H32418  11.783   7.316   1.339 -0.2177  0.8665 -4.1396
  981MOL0     H32419  11.732   7.342   0.803  2.4690  1.7352  1.5207
  981MOL0     H32420  11.612   7.470   0.630  2.4388 -1.6533  0.3411
  981MOL0     H32421  11.297   9.154   1.812  0.2439  1.3838  2.8338
  981MOL0     H32422  11.287   9.120   2.062 -1.9209  0.2709 -1.1122
  981MOL0     H32423  11.494   8.950   2.407  0.1191  2.3972 -0.3104
  981MOL0     H32424  11.509   8.961   2.657  0.2949  2.3118 -0.4048
  981MOL0     H32425  11.256   9.151   2.971  1.2767 -1.5412  1.0999
  981MOL0     H32426  11.156   9.150   2.825 -2.1399 -2.3927 -0.5302
  981MOL0     H32427  11.206   8.894   2.991 -0.5634 -0.0985 -0.9429
  981MOL0     H32428  11.101   8.904   2.855 -1.6463  2.0203 -0.1651
  981MOL0     H32429  10.958   8.915   3.026  1.6087 -0.9847  0.2914
  981MOL0     H32430  10.958   9.080   2.974 -0.3864 -0.8036 -0.1405
  981MOL0     H32431  11.131   9.127   3.135 -2.4806  2.4780  1.1468
  981MOL0     H32432  11.097   8.968   3.221  5.6234  1.0244 -2.6394
  981MOL0     H32433  10.768   9.176   3.357  0.4362  1.7347  0.6281
  981MOL0     H32434  11.096   9.040   2.670  1.4406  1.4564  0.2464
  981MOL0     H32435  11.068   8.950   2.439 -0.9462 -3.4443  3.1662
  982MOL0     O32436   3.437   1.892   3.997  0.5108 -0.2433 -0.6318
  982MOL0     C32437   3.337   1.897   4.066 -0.6779  0.6662  0.5181
  982MOL0     O32438   3.265   1.784   4.105  0.2340 -0.3179  0.0428
  982MOL0     C32439   3.319   1.661   4.087  0.5033 -0.0413  0.1672
  982MOL0     C32440   3.335   1.611   3.955 -0.5692  0.6835  0.1462
  982MOL0     C32441   3.394   1.484   3.944  0.4552  0.5923  0.9882
  982MOL0     C32442   3.443   1.409   4.044 -0.4241 -0.0649 -0.1025
  982MOL0     O32443   3.513   1.285   4.049 -0.1193 -0.8328  0.1407
  982MOL0     C32444   3.577   1.240   3.930  0.9081  0.9107 -1.2936
  982MOL0     C32445   3.710   1.310   3.893 -0.4950  0.2581  0.1020
  982MOL0     C32446   3.764   1.263   3.754 -0.0584  0.8839 -0.6672
  982MOL0     C32447   3.897   1.322   3.732 -0.3244 -0.6326 -0.4614
  982MOL0     C32448   3.953   1.289   3.598 -0.7483 -0.1949  0.6997
  982MOL0     C32449   4.060   1.389   3.544  0.0747  0.7335  0.1310
  982MOL0     C32450   4.107   1.340   3.415  0.1993  0.2093  0.7674
  982MOL0     C32451   4.202   1.451   3.352  0.1286  1.1045 -0.3460
  982MOL0     N32452   4.339   1.402   3.317 -0.0002 -0.4901  0.6474
  982MOL0     C32453   4.370   1.302   3.229  0.1012 -1.7828 -0.1865
  982MOL0     C32454   4.506   1.282   3.242  0.2327  0.1339  0.2405
  982MOL0     C32455   4.573   1.198   3.138  0.2993  0.0249  0.1133
  982MOL0     C32456   4.717   1.150   3.177 -0.3301 -0.7520 -0.2444
  982MOL0     C32457   4.705   1.018   3.259 -0.0239 -1.7137  0.1086
  982MOL0     C32458   4.831   0.972   3.315  0.2508 -0.8504 -1.0703
  982MOL0     O32459   4.930   0.943   3.209 -1.5020 -0.5966  0.8340
  982MOL0     C32460   4.908   0.835   3.137  0.3971  0.0107 -0.5799
  982MOL0     C32461   4.876   0.705   3.181  0.2658 -0.6386 -0.8169
  982MOL0     C32462   4.881   0.591   3.101 -0.4687 -0.2443 -0.9806
  982MOL0     C32463   4.834   0.463   3.159 -0.6069  0.1998 -0.0708
  982MOL0     C32464   4.893   0.614   2.957  0.1319  0.4895 -0.6607
  982MOL0     C32465   4.874   0.507   2.854 -0.6068 -0.0208  0.1320
  982MOL0     O32466   4.852   0.374   2.894 -0.0372  0.1239 -0.2647
  982MOL0     C32467   4.851   0.272   2.797 -0.4804  0.1646 -0.2867
  982MOL0     C32468   4.975   0.252   2.730 -0.1433 -1.3231  1.5106
  982MOL0     C32469   4.993   0.146   2.641  0.3415  0.4713 -0.6469
  982MOL0     C32470   4.881   0.070   2.619 -0.1130 -0.5932  0.2138
  982MOL0     O32471   4.903  -0.037   2.535  0.1582 -0.0830  0.3756
  982MOL0     C32472   4.807  -0.144   2.501  0.5791 -0.7445  0.4010
  982MOL0     C32473   4.795  -0.160   2.344 -0.3554 -0.3287  0.3369
  982MOL0     C32474   4.709  -0.055   2.267  0.3017 -0.4363 -1.0978
  982MOL0     C32475   4.647  -0.103   2.138 -0.2370 -0.2061  0.8137
  982MOL0     C32476   4.576  -0.001   2.052 -0.3169 -1.0981  0.1024
  982MOL0     C32477   4.425  -0.022   2.033 -0.4564 -0.3355 -0.0018
  982MOL0     C32478   4.371   0.045   1.893  0.0905  0.3860 -0.0213
  982MOL0     C32479   4.235   0.103   1.907 -0.7690 -0.4734 -0.0784
  982MOL0    Cl32480   4.114  -0.041   1.898  0.4314  0.0191 -0.1648
  982MOL0     C32481   4.744   0.100   2.667 -0.3408  0.6006  0.9593
  982MOL0     C32482   4.736   0.199   2.762  0.5914  1.2299  0.6858
  982MOL0     O32483   4.875   0.536   2.734  0.5246  0.0821 -0.4220
  982MOL0     C32484   4.921   0.745   2.922 -0.1670 -0.0663  0.5928
  982MOL0     C32485   4.923   0.855   3.012 -0.7293 -0.6627  0.6810
  982MOL0     N32486   4.557   1.373   3.326  0.7315  0.2343  0.9903
  982MOL0     N32487   4.456   1.435   3.379 -0.3866 -0.5897 -0.9164
  982MOL0     C32488   3.423   1.459   4.175  0.2882 -0.0502 -0.3819
  982MOL0     C32489   3.359   1.580   4.194 -0.5824 -0.4341  1.4472
  982MOL0     C32490   3.287   2.033   4.113  0.0633 -0.0754  0.5668
  982MOL0     C32491   3.243   2.040   4.246  0.6266 -0.2507  0.2897
  982MOL0     C32492   3.215   2.158   4.300  0.8221 -1.4880 -0.6517
  982MOL0     C32493   3.222   2.280   4.221  0.4453  0.0620 -0.3009
  982MOL0     O32494   3.187   2.403   4.268  0.4242  1.4460  0.3520
  982MOL0     C32495   3.089   2.428   4.361  1.0938 -0.6854  0.3480
  982MOL0     C32496   3.079   2.576   4.379  0.8606 -0.3013 -1.2635
  982MOL0     C32497   3.160   2.639   4.489  0.0381  0.5452  0.9766
  982MOL0     C32498   3.293   2.697   4.436 -0.1915  0.0736  0.2467
  982MOL0     C32499   3.381   2.744   4.545  0.5165  0.7335  0.2284
  982MOL0     C32500   3.453   2.788   4.629  0.2360 -0.4222 -0.3273
  982MOL0     C32501   3.273   2.271   4.089 -0.3124  0.3762 -0.5983
  982MOL0     C32502   3.298   2.146   4.038  0.0026 -0.7899  0.4815
  982MOL0     H32503   3.303   1.671   3.871  0.1542  1.4909  0.4367
  982MOL0     H32504   3.412   1.451   3.842  2.1405  2.5641  0.5646
  982MOL0     H32505   3.583   1.131   3.940 -3.1693  0.3526 -2.9380
  982MOL0     H32506   3.513   1.244   3.841  0.9482 -1.7474 -1.5228
  982MOL0     H32507   3.696   1.418   3.888  0.7841  0.4907  0.9003
  982MOL0     H32508   3.778   1.294   3.977 -2.1188  0.5846  1.5432
  982MOL0     H32509   3.785   1.156   3.759  2.5441  1.3766  1.8115
  982MOL0     H32510   3.688   1.292   3.681 -2.0452  4.3975  2.4241
  982MOL0     H32511   3.887   1.431   3.726  1.2234 -0.4681 -0.3525
  982MOL0     H32512   3.973   1.291   3.804 -0.3956 -0.3273 -0.2521
  982MOL0     H32513   3.990   1.186   3.601  0.6047  0.2804  0.9855
  982MOL0     H32514   3.874   1.289   3.523 -0.4695  1.7043  0.3492
  982MOL0     H32515   4.026   1.493   3.541  1.3280  1.3659  3.3647
  982MOL0     H32516   4.136   1.399   3.622  0.1367  0.8335  0.0585
  982MOL0     H32517   4.166   1.249   3.431  1.6551  0.9587 -0.0876
  982MOL0     H32518   4.019   1.322   3.353  1.2444 -2.2854 -0.1408
  982MOL0     H32519   4.208   1.544   3.409  2.2349  2.4821 -2.6107
  982MOL0     H32520   4.146   1.497   3.269 -2.0051  0.1958  0.5209
  982MOL0     H32521   4.305   1.261   3.153  0.0104 -0.7521 -0.6823
  982MOL0     H32522   4.499   1.121   3.116 -1.2660  1.1929  1.0922
  982MOL0     H32523   4.568   1.260   3.048  1.8306 -2.6878 -2.0210
  982MOL0     H32524   4.773   1.224   3.236  2.0155 -1.7240 -1.1362
  982MOL0     H32525   4.777   1.116   3.093 -0.0168 -1.8858  0.4171
  982MOL0     H32526   4.664   0.943   3.191 -1.8311 -0.1014 -0.6589
  982MOL0     H32527   4.648   1.048   3.347 -1.3566 -1.4934 -0.8029
  982MOL0     H32528   4.825   0.885   3.381 -1.1874 -0.1414 -0.2125
  982MOL0     H32529   4.883   1.047   3.375 -0.6508 -0.3117 -0.9455
  982MOL0     H32530   4.863   0.695   3.289 -0.4806  4.6692 -0.1709
  982MOL0     H32531   4.903   0.381   3.138 -0.4225 -0.0116  1.2754
  982MOL0     H32532   4.811   0.482   3.265 -4.3627  0.2659 -0.7492
  982MOL0     H32533   4.734   0.429   3.131 -0.8075 -0.0050  0.8591
  982MOL0     H32534   5.054   0.325   2.744 -1.1155  0.0715  0.0934
  982MOL0     H32535   5.079   0.130   2.577 -0.7137 -2.9992 -1.4176
  982MOL0     H32536   4.825  -0.238   2.554  1.3639 -0.8217  0.0038
  982MOL0     H32537   4.707  -0.117   2.538  0.8721  0.2737  0.4632
  982MOL0     H32538   4.899  -0.162   2.310  0.4366  0.8049  2.5283
  982MOL0     H32539   4.769  -0.261   2.310 -0.6146 -0.5304  1.1138
  982MOL0     H32540   4.774   0.032   2.261  0.5063 -0.3869  0.9625
  982MOL0     H32541   4.627  -0.024   2.332 -0.6865 -2.4367 -1.3028
  982MOL0     H32542   4.725  -0.147   2.075 -0.3816 -0.2098  0.6354
  982MOL0     H32543   4.573  -0.175   2.174 -3.2060  1.9558 -0.5785
  982MOL0     H32544   4.616  -0.002   1.950 -0.9232  1.9560 -0.2549
  982MOL0     H32545   4.599   0.101   2.082 -1.5217 -0.3144 -1.4913
  982MOL0     H32546   4.407  -0.128   2.016 -0.5967 -0.4749  0.9886
  982MOL0     H32547   4.382   0.016   2.126  0.9555  0.2718  0.4454
  982MOL0     H32548   4.370  -0.038   1.822  2.1238  0.7071 -0.4860
  982MOL0     H32549   4.436   0.122   1.853  1.0155  0.6212  1.8176
  982MOL0     H32550   4.225   0.180   1.830 -0.7851  0.6177  0.9910
  982MOL0     H32551   4.232   0.149   2.006  1.5423  0.7236 -0.4964
  982MOL0     H32552   4.662   0.050   2.617  1.1928 -3.0902  1.7871
  982MOL0     H32553   4.643   0.213   2.817 -0.5591  3.6791 -1.6103
  982MOL0     H32554   4.945   0.761   2.818 -5.6608  1.9729 -0.6836
  982MOL0     H32555   4.947   0.941   2.950 -0.4889 -1.0590  0.2114
  982MOL0     H32556   3.438   1.409   4.271  0.6607 -2.7803 -1.7700
  982MOL0     H32557   3.335   1.617   4.293 -0.2425 -0.5109  1.5590
  982MOL0     H32558   3.222   1.948   4.300 -1.4004 -0.2428 -0.3982
  982MOL0     H32559   3.182   2.174   4.402 -0.2400  0.3415 -1.2342
  982MOL0     H32560   2.996   2.387   4.323  0.2148 -0.5989  2.2617
  982MOL0     H32561   3.100   2.375   4.457 -0.4402 -3.9987 -1.1431
  982MOL0     H32562   2.975   2.595   4.406  0.6777 -0.4206 -1.8633
  982MOL0     H32563   3.103   2.630   4.287  2.6718 -1.6896 -1.6670
  982MOL0     H32564   3.171   2.574   4.576  0.6822  0.0703  0.5437
  982MOL0     H32565   3.109   2.731   4.521  0.2160 -0.9736  6.8246
  982MOL0     H32566   3.279   2.778   4.363 -2.7662 -2.7312 -2.6962
  982MOL0     H32567   3.352   2.619   4.388 -0.0354  1.8753 -2.7757
  982MOL0     H32568   3.502   2.845   4.706  1.6882 -1.2094 -0.6282
  982MOL0     H32569   3.272   2.361   4.029 -1.1422 -0.6401 -2.1918
  982MOL0     H32570   3.319   2.141   3.931  1.1618  0.8389  0.5979
  983MOL0     O32571   7.685   9.154   0.885 -0.2528  0.0312  0.0757
  983MOL0     C32572   7.732   9.053   0.827 -0.2701  0.4798  0.8980
  983MOL0     O32573   7.783   8.939   0.891 -0.2465  1.2090 -0.2428
  983MOL0     C32574   7.773   8.922   1.032 -0.1063 -0.3191  1.0160
  983MOL0     C32575   7.779   9.026   1.128 -0.3547  0.8566  0.8435
  983MOL0     C32576   7.812   8.986   1.264  0.0171 -0.1422  0.8676
  983MOL0     C32577   7.823   8.849   1.296 -0.8976  0.0533 -0.1175
  983MOL0     O32578   7.848   8.812   1.421  0.2298 -0.6643 -0.5416
  983MOL0     C32579   7.942   8.701   1.443 -0.0379 -0.4240  0.3084
  983MOL0     C32580   7.979   8.698   1.596  1.4667 -0.1302 -0.3616
  983MOL0     C32581   8.072   8.583   1.630 -0.7340 -0.0717 -0.0718
  983MOL0     C32582   8.116   8.610   1.777  0.6587 -0.0534  0.3552
  983MOL0     C32583   8.218   8.493   1.813 -0.2004 -0.1638  0.4695
  983MOL0     C32584   8.211   8.459   1.954  0.8280  0.3788 -0.8168
  983MOL0     C32585   8.304   8.350   2.013  0.0651 -0.3114 -0.3968
  983MOL0     C32586   8.449   8.396   2.011  0.1527 -0.4128 -0.0990
  983MOL0     N32587   8.469   8.512   2.099  0.1888 -0.4989  1.1450
  983MOL0     C32588   8.472   8.498   2.238  1.3466 -0.6794  0.7593
  983MOL0     C32589   8.492   8.631   2.280  0.3160 -0.0095  0.2391
  983MOL0     C32590   8.510   8.669   2.423  0.7848  0.6426 -0.5707
  983MOL0     C32591   8.475   8.817   2.442  0.5509  0.5317  0.0050
  983MOL0     C32592   8.463   8.866   2.585 -0.1345 -0.6172  1.0572
  983MOL0     C32593   8.330   8.828   2.651 -0.8023  0.0759  0.5525
  983MOL0     O32594   8.347   8.873   2.786 -0.7681 -0.6970  0.7802
  983MOL0     C32595   8.240   8.886   2.866  0.5190  0.4935 -0.4460
  983MOL0     C32596   8.103   8.855   2.832  0.0428 -0.7393 -0.6800
  983MOL0     C32597   7.987   8.894   2.901  0.0083 -0.4427 -0.0082
  983MOL0     C32598   7.856   8.850   2.839 -0.3041  0.1433 -0.2795
  983MOL0     C32599   8.013   8.945   3.028 -0.2466 -0.5596 -0.7612
  983MOL0     C32600   7.909   8.989   3.135 -0.4052  0.5660  0.6938
  983MOL0     O32601   7.951   8.967   3.267 -0.4202  0.1659  0.6618
  983MOL0     C32602   7.864   8.982   3.378  0.2955  0.8994  0.0812
  983MOL0     C32603   7.862   8.877   3.479  0.5175  0.4322 -0.0442
  983MOL0     C32604   7.776   8.882   3.580  1.1618 -0.8649 -0.1565
  983MOL0     C32605   7.685   8.983   3.600 -0.1430  0.5806 -0.1901
  983MOL0     O32606   7.592   8.970   3.697  0.4233 -0.0099  1.0625
  983MOL0     C32607   7.462   9.045   3.685 -0.3202  0.7515 -0.8237
  983MOL0     C32608   7.367   8.966   3.772  0.8055  0.3015  0.0232
  983MOL0     C32609   7.234   9.037   3.779 -1.0638 -0.0458 -0.6609
  983MOL0     C32610   7.242   9.164   3.872 -0.6302 -0.0632  0.6277
  983MOL0     C32611   7.109   9.220   3.899  0.8233  0.2101  0.3561
  983MOL0     C32612   7.020   9.273   3.782  0.1921  0.1443  0.8259
  983MOL0     C32613   6.884   9.317   3.846  0.0001 -0.0803 -0.6919
  983MOL0     C32614   6.792   9.369   3.742  0.4836  0.7329 -0.5499
  983MOL0    Cl32615   6.731   9.231   3.645  0.3391  0.2408 -0.1489
  983MOL0     C32616   7.680   9.085   3.500 -0.9413  0.0738  0.4026
  983MOL0     C32617   7.778   9.086   3.401  0.3373 -0.4046  0.1416
  983MOL0     O32618   7.793   9.024   3.098 -0.1364  1.2370  0.0263
  983MOL0     C32619   8.152   8.962   3.069  0.6346  1.5111 -1.0183
  983MOL0     C32620   8.262   8.940   2.991 -0.4249  0.5595 -0.4813
  983MOL0     N32621   8.507   8.715   2.173  0.4814 -0.2414  0.5249
  983MOL0     N32622   8.500   8.641   2.065 -0.6233  0.4656 -0.1618
  983MOL0     C32623   7.800   8.750   1.195 -0.3469  0.3388 -0.3915
  983MOL0     C32624   7.779   8.789   1.065 -0.3453  0.1312 -0.4256
  983MOL0     C32625   7.741   9.046   0.681  0.3138 -0.0547 -1.2446
  983MOL0     C32626   7.755   8.920   0.625 -0.5101 -0.5540  0.6719
  983MOL0     C32627   7.779   8.909   0.485 -0.5929  0.6784 -0.1367
  983MOL0     C32628   7.777   9.014   0.395  0.8928  0.3713 -0.9308
  983MOL0     O32629   7.806   9.015   0.264  0.0146  0.1661 -0.0478
  983MOL0     C32630   7.870   8.898   0.204  1.0647  0.1043  0.6747
  983MOL0     C32631   8.007   8.854   0.258  0.4487  0.1509  0.3128
  983MOL0     C32632   8.124   8.947   0.244 -0.1145 -0.9068  0.3115
  983MOL0     C32633   8.262   8.895   0.292 -0.8289 -0.0538  0.5178
  983MOL0     C32634   8.367   8.965   0.221  0.1881  0.2725 -0.2589
  983MOL0     C32635   8.432   9.038   0.147 -0.0338  0.5756 -0.6496
  983MOL0     C32636   7.740   9.134   0.455 -0.2585 -0.4214  1.1232
  983MOL0     C32637   7.716   9.155   0.586  0.0040  0.2251 -1.1115
  983MOL0     H32638   7.772   9.131   1.101 -0.7042  0.4954 -0.5332
  983MOL0     H32639   7.827   9.059   1.344  2.1088 -1.6230  1.8953
  983MOL0     H32640   7.894   8.610   1.407 -2.8209  0.7941  0.7458
  983MOL0     H32641   8.041   8.716   1.398 -1.0603  0.2604 -1.8061
  983MOL0     H32642   8.016   8.798   1.623 -0.5027  0.2405  1.2362
  983MOL0     H32643   7.891   8.679   1.658  2.4220 -0.4430  0.9570
  983MOL0     H32644   8.013   8.492   1.619  0.6160 -1.1656  1.3470
  983MOL0     H32645   8.159   8.577   1.564  0.5158  0.5792  1.4320
  983MOL0     H32646   8.156   8.712   1.780 -0.0650  0.3672 -2.3104
  983MOL0     H32647   8.028   8.608   1.842 -0.7221 -1.6881 -1.4571
  983MOL0     H32648   8.195   8.405   1.752  1.2193  0.2049 -0.6520
  983MOL0     H32649   8.317   8.529   1.783 -0.3835  2.3189  2.4997
  983MOL0     H32650   8.206   8.549   2.016  2.2100 -1.3983  2.0739
  983MOL0     H32651   8.110   8.421   1.972  1.1173 -1.8398 -3.3406
  983MOL0     H32652   8.285   8.319   2.116  2.3480  0.6689  0.3771
  983MOL0     H32653   8.310   8.265   1.944 -4.1067 -1.1230 -0.0169
  983MOL0     H32654   8.484   8.422   1.911  0.3270 -1.2402 -0.2584
  983MOL0     H32655   8.520   8.324   2.053 -1.4945 -1.8736  0.2855
  983MOL0     H32656   8.446   8.415   2.303 -0.5337 -1.1985 -0.5664
  983MOL0     H32657   8.454   8.611   2.497  4.5995 -0.2313  1.9147
  983MOL0     H32658   8.611   8.649   2.460  0.3780  0.0571  0.2782
  983MOL0     H32659   8.379   8.833   2.393 -1.1742 -2.1360  2.2008
  983MOL0     H32660   8.561   8.874   2.405 -1.9152  2.7789 -2.7280
  983MOL0     H32661   8.477   8.974   2.575  0.9612 -0.9478 -1.6097
  983MOL0     H32662   8.537   8.822   2.653  1.0161 -1.7386 -0.8333
  983MOL0     H32663   8.310   8.721   2.649  2.7689 -0.7006 -0.8402
  983MOL0     H32664   8.249   8.870   2.590  0.2544 -0.4952 -1.3039
  983MOL0     H32665   8.093   8.798   2.739 -0.3584 -0.5870 -0.7310
  983MOL0     H32666   7.873   8.804   2.742  1.6638 -3.6318  1.6551
  983MOL0     H32667   7.801   8.783   2.907  1.6907 -1.8934 -0.5495
  983MOL0     H32668   7.792   8.932   2.805 -0.0905  0.0641 -0.8681
  983MOL0     H32669   7.925   8.791   3.459  0.8650  0.9185 -1.1705
  983MOL0     H32670   7.785   8.812   3.663  2.3130  0.2032  0.6541
  983MOL0     H32671   7.479   9.146   3.724  3.2791 -0.3802  0.9997
  983MOL0     H32672   7.430   9.055   3.581  0.4838 -0.1352 -1.1671
  983MOL0     H32673   7.349   8.863   3.739 -1.0714  0.2237  1.0896
  983MOL0     H32674   7.414   8.951   3.870  1.7709 -1.8046 -0.7112
  983MOL0     H32675   7.169   8.960   3.821  1.6631 -1.6418  0.8200
  983MOL0     H32676   7.204   9.061   3.676  0.4971  1.2977 -0.8398
  983MOL0     H32677   7.283   9.142   3.971  1.0376  2.0669  0.4735
  983MOL0     H32678   7.306   9.239   3.824  1.0008 -0.6692  1.7563
  983MOL0     H32679   7.119   9.299   3.974 -2.0154  1.4990 -0.4902
  983MOL0     H32680   7.051   9.141   3.948  0.1033 -1.1707 -2.5226
  983MOL0     H32681   7.062   9.357   3.726 -0.4994 -0.3519 -0.4839
  983MOL0     H32682   6.993   9.189   3.717  4.3964  0.3579 -1.5279
  983MOL0     H32683   6.909   9.383   3.930  0.5631 -0.5718 -0.4645
  983MOL0     H32684   6.833   9.229   3.888  0.5547 -0.8977 -1.6708
  983MOL0     H32685   6.847   9.441   3.682  0.1157  0.3702 -1.3287
  983MOL0     H32686   6.713   9.417   3.801 -1.1195 -0.5517 -1.5710
  983MOL0     H32687   7.615   9.172   3.497 -1.2975 -0.2004  0.2451
  983MOL0     H32688   7.760   9.170   3.335 -1.6396  1.2441  2.5870
  983MOL0     H32689   8.172   9.018   3.160 -0.9561  0.0423  0.3183
  983MOL0     H32690   8.363   8.962   3.024 -0.3970 -2.1944  1.6683
  983MOL0     H32691   7.809   8.644   1.214  1.1012  0.8451  2.2060
  983MOL0     H32692   7.768   8.723   0.979 -2.8876  0.7817 -0.6883
  983MOL0     H32693   7.752   8.827   0.681 -2.6384 -0.1449  1.3143
  983MOL0     H32694   7.790   8.806   0.454  0.6202  0.7122  0.1224
  983MOL0     H32695   7.800   8.814   0.208  1.6178 -0.3117  2.0914
  983MOL0     H32696   7.879   8.925   0.098  0.8263 -5.5397 -1.1027
  983MOL0     H32697   8.045   8.770   0.199  1.3980 -1.3678  2.9335
  983MOL0     H32698   7.997   8.826   0.363 -0.8934 -3.2049 -0.5494
  983MOL0     H32699   8.102   9.037   0.302 -0.3590  1.0503 -2.6003
  983MOL0     H32700   8.130   8.972   0.137 -1.8558 -6.0668 -1.3185
  983MOL0     H32701   8.276   8.786   0.295  0.0652  0.0510  0.4972
  983MOL0     H32702   8.271   8.927   0.396  2.5028  0.4244  0.1886
  983MOL0     H32703   8.500   9.108   0.103  0.4153 -0.6887 -2.0595
  983MOL0     H32704   7.730   9.225   0.396 -1.3038 -0.3337  1.4157
  983MOL0     H32705   7.687   9.251   0.628  2.3306  1.6435 -2.4879
  984MOL0     O32706   1.657   5.248   3.377 -0.6064 -0.0865  0.2919
  984MOL0     C32707   1.751   5.233   3.456  0.1085  0.6784  0.4498
  984MOL0     O32708   1.775   5.316   3.562 -0.0461 -0.0641 -0.3981
  984MOL0     C32709   1.682   5.412   3.591  0.5821 -0.1235 -0.2790
  984MOL0     C32710   1.566   5.384   3.657 -0.9921 -0.7918  0.7558
  984MOL0     C32711   1.477   5.487   3.675 -0.7677 -0.6516  0.5489
  984MOL0     C32712   1.512   5.625   3.631  0.3175 -0.2616  0.2363
  984MOL0     O32713   1.435   5.744   3.655 -0.2247  0.2774 -0.0452
  984MOL0     C32714   1.313   5.729   3.715  0.3019 -0.2129  0.5771
  984MOL0     C32715   1.236   5.860   3.697  0.4347 -0.6646 -0.0618
  984MOL0     C32716   1.129   5.863   3.811  0.7740  0.2622  0.0161
  984MOL0     C32717   1.008   5.777   3.775 -0.4877  0.5606  0.6399
  984MOL0     C32718   0.900   5.777   3.885 -0.7183  0.7188  0.6349
  984MOL0     C32719   0.852   5.909   3.930 -0.5513 -0.0040  0.3254
  984MOL0     C32720   0.713   5.896   4.006  0.7809  0.0403  0.1239
  984MOL0     C32721   0.650   6.036   4.036 -0.7094  0.5066  0.3341
  984MOL0     N32722   0.510   6.022   4.083 -0.3002 -0.4952 -0.0508
  984MOL0     C32723   0.467   5.952   4.195  0.1566  0.0737 -0.3469
  984MOL0     C32724   0.337   5.939   4.189  0.3864 -0.6780  0.5991
  984MOL0     C32725   0.271   5.853   4.295  0.4852 -0.5683 -0.5350
  984MOL0     C32726   0.141   5.785   4.252 -0.2842  0.4560 -0.6523
  984MOL0     C32727   0.153   5.693   4.131 -0.5792 -0.9042 -0.3182
  984MOL0     C32728   0.258   5.586   4.147 -0.3969  0.6196  0.8710
  984MOL0     O32729   0.259   5.506   4.024  0.1323  0.3918  0.5548
  984MOL0     C32730   0.176   5.392   4.001 -0.4221 -0.3969  0.3273
  984MOL0     C32731   0.101   5.331   4.097 -1.0254 -0.3481  0.0847
  984MOL0     C32732   0.020   5.218   4.069 -0.1132 -1.1762 -0.4608
  984MOL0     C32733  -0.074   5.172   4.177 -0.0972 -1.6639 -0.4040
  984MOL0     C32734   0.028   5.158   3.946  0.7389 -0.0120 -0.1495
  984MOL0     C32735  -0.050   5.037   3.922  0.8664  0.3309  1.1714
  984MOL0     O32736  -0.186   5.053   3.902  0.1756 -0.0657  0.0011
  984MOL0     C32737  -0.256   4.942   3.858 -1.2398  0.2313 -0.3875
  984MOL0     C32738  -0.311   4.923   3.732  0.1363 -0.9375 -0.8969
  984MOL0     C32739  -0.384   4.813   3.706 -0.3729 -0.2278  0.6382
  984MOL0     C32740  -0.393   4.710   3.790 -0.6354 -0.0379 -1.1545
  984MOL0     O32741  -0.444   4.585   3.772  0.4537 -0.3590  0.1784
  984MOL0     C32742  -0.557   4.579   3.677 -1.2619  0.3340 -0.9106
  984MOL0     C32743  -0.574   4.419   3.664 -0.1243 -1.0352 -0.7133
  984MOL0     C32744  -0.718   4.391   3.633  1.0685 -0.4697  0.4583
  984MOL0     C32745  -0.766   4.445   3.497 -1.1060  0.6307  1.0465
  984MOL0     C32746  -0.907   4.380   3.454 -0.2971 -0.1688  0.1682
  984MOL0     C32747  -1.029   4.393   3.556 -0.0148 -1.1368 -0.0874
  984MOL0     C32748  -1.161   4.415   3.490  0.6981 -0.5940  0.2629
  984MOL0     C32749  -1.167   4.566   3.440  0.0301  0.3528  1.4066
  984MOL0    Cl32750  -1.317   4.624   3.355 -0.0563  0.0495 -0.3522
  984MOL0     C32751  -0.329   4.716   3.921  0.0653 -0.1884  0.2043
  984MOL0     C32752  -0.280   4.843   3.955 -0.1054  0.5424 -1.0686
  984MOL0     O32753   0.021   4.953   3.876 -0.1035 -0.2262 -0.2991
  984MOL0     C32754   0.100   5.218   3.846 -0.1876  0.2538 -0.4287
  984MOL0     C32755   0.176   5.326   3.876 -0.0145  0.0696  0.1935
  984MOL0     N32756   0.292   6.011   4.079 -0.4574 -0.1240  0.4289
  984MOL0     N32757   0.398   6.056   4.019  1.1741  1.0271 -0.9462
  984MOL0     C32758   1.635   5.646   3.562  0.9266 -0.4168 -0.6400
  984MOL0     C32759   1.718   5.539   3.545 -0.2292  0.9205 -0.3904
  984MOL0     C32760   1.839   5.116   3.430 -0.0186 -0.2157  0.8924
  984MOL0     C32761   1.901   5.048   3.533 -0.8540  0.2965 -0.8837
  984MOL0     C32762   1.996   4.947   3.511  0.1178  0.2703 -0.1233
  984MOL0     C32763   2.013   4.885   3.384 -0.9637 -0.6042  0.6354
  984MOL0     O32764   2.104   4.778   3.374 -0.6398  0.1532 -0.3786
  984MOL0     C32765   2.104   4.707   3.247  0.2237 -0.1033 -0.2947
  984MOL0     C32766   2.166   4.575   3.281 -0.2429  0.9823  0.2716
  984MOL0     C32767   2.309   4.583   3.321 -0.7624 -1.5334  0.0369
  984MOL0     C32768   2.396   4.647   3.217 -0.8222 -0.6567  0.0794
  984MOL0     C32769   2.411   4.566   3.088  0.7006  0.3850 -0.6107
  984MOL0     C32770   2.434   4.500   2.989  1.1699 -0.9509  1.1832
  984MOL0     C32771   1.953   4.952   3.274  0.1436  0.2153 -0.7288
  984MOL0     C32772   1.867   5.057   3.302 -0.1699  1.2259 -0.2161
  984MOL0     H32773   1.546   5.279   3.675 -0.8647 -1.8734 -4.0504
  984MOL0     H32774   1.386   5.476   3.733 -1.2275 -3.5522 -0.5212
  984MOL0     H32775   1.264   5.646   3.663 -2.2783  2.8172 -2.2557
  984MOL0     H32776   1.333   5.710   3.821  0.4041  2.4655  1.1135
  984MOL0     H32777   1.307   5.940   3.721 -0.0459 -1.2205  4.1073
  984MOL0     H32778   1.200   5.873   3.595 -1.1408  0.1005  0.5520
  984MOL0     H32779   1.183   5.825   3.899 -2.4414 -0.0017  2.0351
  984MOL0     H32780   1.106   5.967   3.837 -0.2557  0.0759 -0.1175
  984MOL0     H32781   0.960   5.819   3.686 -0.5729 -2.0336 -0.6389
  984MOL0     H32782   1.032   5.676   3.739 -3.9176  0.7047 -2.6944
  984MOL0     H32783   0.814   5.724   3.843 -1.5649  0.2317  2.8294
  984MOL0     H32784   0.936   5.718   3.970 -0.0218 -0.8208 -0.6618
  984MOL0     H32785   0.931   5.959   3.987  0.0999 -0.2457 -0.3616
  984MOL0     H32786   0.835   5.967   3.839  3.8882 -0.2077 -0.8346
  984MOL0     H32787   0.640   5.843   3.944  1.6020 -0.7565 -0.1875
  984MOL0     H32788   0.741   5.839   4.095  2.9295 -0.1801 -0.6261
  984MOL0     H32789   0.658   6.104   3.951 -1.7052  0.1722 -0.0407
  984MOL0     H32790   0.702   6.076   4.124  0.0996  1.9481 -0.7572
  984MOL0     H32791   0.536   5.905   4.264  1.6148  1.6035 -0.7015
  984MOL0     H32792   0.344   5.782   4.332  2.7351 -1.6389 -5.9749
  984MOL0     H32793   0.253   5.920   4.380  1.1372  0.1969 -0.9810
  984MOL0     H32794   0.066   5.858   4.217 -1.0911 -0.0244  0.0388
  984MOL0     H32795   0.095   5.731   4.335  0.1662 -0.0398 -0.7237
  984MOL0     H32796   0.183   5.747   4.040 -0.9038  1.6446  0.9780
  984MOL0     H32797   0.062   5.643   4.100 -0.1398 -1.2810 -1.0090
  984MOL0     H32798   0.248   5.529   4.240  0.0828 -2.6124 -0.9045
  984MOL0     H32799   0.362   5.620   4.142  0.2030 -1.2250  0.1472
  984MOL0     H32800   0.094   5.373   4.197 -2.8801  0.6413 -0.4171
  984MOL0     H32801  -0.094   5.243   4.258 -0.7294 -2.0193 -0.2424
  984MOL0     H32802  -0.164   5.143   4.123  1.7957 -2.6579 -3.2908
  984MOL0     H32803  -0.035   5.081   4.224  2.7827  0.9298  2.8377
  984MOL0     H32804  -0.302   5.002   3.657 -0.2190  2.8214  2.6428
  984MOL0     H32805  -0.438   4.810   3.612  1.0017  1.4621 -0.2635
  984MOL0     H32806  -0.646   4.629   3.717 -2.2125 -2.4553  0.8184
  984MOL0     H32807  -0.521   4.620   3.583  0.5421  3.6629  1.0642
  984MOL0     H32808  -0.513   4.382   3.581 -0.1269 -2.0757 -0.2705
  984MOL0     H32809  -0.551   4.368   3.758  1.7170  2.9428  1.2469
  984MOL0     H32810  -0.780   4.434   3.712 -0.9284  0.5590 -1.5356
  984MOL0     H32811  -0.737   4.284   3.618  2.1389 -0.6347  0.2199
  984MOL0     H32812  -0.776   4.554   3.495 -1.0888  0.6386  1.3705
  984MOL0     H32813  -0.692   4.429   3.418  0.3902  0.2896  2.4634
  984MOL0     H32814  -0.903   4.278   3.416 -0.5903  0.5734 -2.0176
  984MOL0     H32815  -0.938   4.432   3.363  0.6685  1.1526  0.5612
  984MOL0     H32816  -1.039   4.305   3.622 -0.7179 -1.0310 -0.0475
  984MOL0     H32817  -1.004   4.475   3.623 -1.4132  0.0209 -0.9362
  984MOL0     H32818  -1.245   4.411   3.559 -2.7996  1.7400 -3.4114
  984MOL0     H32819  -1.177   4.342   3.410 -0.4162  0.7906 -0.8354
  984MOL0     H32820  -1.087   4.599   3.373  1.6090 -1.5165  2.2759
  984MOL0     H32821  -1.160   4.634   3.526 -0.5609  0.9894  0.9672
  984MOL0     H32822  -0.326   4.633   3.991  0.2901  3.0506  4.4587
  984MOL0     H32823  -0.237   4.854   4.054 -1.7645  0.3989 -0.2894
  984MOL0     H32824   0.096   5.182   3.744 -0.4266  0.2981 -0.4337
  984MOL0     H32825   0.231   5.364   3.790 -0.5551 -3.1105 -1.7281
  984MOL0     H32826   1.661   5.744   3.524  1.5017 -0.3623 -0.1381
  984MOL0     H32827   1.815   5.569   3.506 -0.9548  2.5092 -1.0769
  984MOL0     H32828   1.885   5.080   3.635  1.0947  0.5816 -0.6199
  984MOL0     H32829   2.044   4.897   3.595  1.8515  0.6875 -0.8187
  984MOL0     H32830   2.000   4.705   3.214  0.5616  3.3479 -2.0237
  984MOL0     H32831   2.152   4.766   3.168  0.2059  0.2842 -0.0238
  984MOL0     H32832   2.147   4.506   3.198 -3.0591 -1.0654  2.4190
  984MOL0     H32833   2.117   4.518   3.360  0.6604 -2.7110 -1.5731
  984MOL0     H32834   2.360   4.490   3.348  0.0423 -1.2265 -0.3970
  984MOL0     H32835   2.317   4.640   3.414  0.7252  2.4856 -2.3046
  984MOL0     H32836   2.497   4.650   3.259  0.0022  0.1601 -1.8846
  984MOL0     H32837   2.368   4.750   3.195  0.8554  0.6912  3.5476
  984MOL0     H32838   2.449   4.434   2.906  2.3032  0.8303 -0.0970
  984MOL0     H32839   1.986   4.925   3.174  0.8762  3.2342 -1.4187
  984MOL0     H32840   1.811   5.116   3.229 -0.3988  0.1001 -0.9736
  985MOL0     O32841   9.484   2.219   4.526  0.4175  0.2958  0.6287
  985MOL0     C32842   9.604   2.196   4.538 -0.4490  0.3127 -0.1406
  985MOL0     O32843   9.704   2.284   4.536  0.2776 -0.9577  0.6730
  985MOL0     C32844   9.674   2.412   4.487 -0.1968  0.0192 -0.0321
  985MOL0     C32845   9.587   2.458   4.387  0.3804 -0.7494 -0.4075
  985MOL0     C32846   9.591   2.586   4.340  0.0735 -1.3009 -0.4752
  985MOL0     C32847   9.686   2.678   4.392 -0.7990  0.1117  0.9717
  985MOL0     O32848   9.700   2.803   4.343  0.5901 -0.0321  0.5458
  985MOL0     C32849   9.757   2.894   4.428 -0.2251  0.4186 -0.7536
  985MOL0     C32850   9.732   3.036   4.384 -0.6886 -0.0492  0.2505
  985MOL0     C32851   9.780   3.061   4.239 -0.1562  0.5260 -0.3209
  985MOL0     C32852   9.768   3.209   4.208 -0.8661 -0.1175 -0.2319
  985MOL0     C32853   9.829   3.250   4.063  0.3741 -0.1788  0.4236
  985MOL0     C32854   9.779   3.398   4.019 -0.7527  0.1086  0.5346
  985MOL0     C32855   9.823   3.501   4.104  0.6054 -0.0271 -0.8441
  985MOL0     C32856   9.758   3.648   4.076  0.0683 -1.1292  0.3333
  985MOL0     N32857   9.787   3.699   3.942 -0.3488 -0.0556 -0.4736
  985MOL0     C32858   9.912   3.739   3.901 -0.6461 -0.0615  0.1404
  985MOL0     C32859   9.892   3.762   3.772 -0.4610 -0.2552  0.1816
  985MOL0     C32860  10.002   3.825   3.690  0.3864  0.6230 -0.1723
  985MOL0     C32861  10.063   3.728   3.578  1.1290 -0.3992 -0.4052
  985MOL0     C32862  10.120   3.607   3.641  0.2581 -0.3378 -0.1288
  985MOL0     C32863  10.170   3.510   3.540  0.3354 -0.4784 -1.1554
  985MOL0     O32864  10.269   3.435   3.608 -0.2317 -0.4408 -0.4187
  985MOL0     C32865  10.407   3.442   3.577  0.8197 -0.5923  0.1834
  985MOL0     C32866  10.471   3.324   3.566  0.6234  0.2083 -0.4262
  985MOL0     C32867  10.598   3.313   3.503 -0.3401  0.8154  0.4442
  985MOL0     C32868  10.654   3.171   3.487 -0.7534 -0.6125 -0.9443
  985MOL0     C32869  10.666   3.431   3.458  0.3944 -0.3896  0.4112
  985MOL0     C32870  10.807   3.438   3.406 -0.6577  0.4490 -0.6164
  985MOL0     O32871  10.837   3.561   3.371  0.0278  0.0729 -0.6363
  985MOL0     C32872  10.964   3.589   3.310 -0.3038  0.2787 -0.6901
  985MOL0     C32873  10.994   3.544   3.180  0.2170  0.8321  0.2955
  985MOL0     C32874  11.119   3.571   3.122 -0.2049  0.3280 -0.0809
  985MOL0     C32875  11.215   3.642   3.202 -0.8993  0.9014 -0.7392
  985MOL0     O32876  11.339   3.660   3.152  0.3745 -0.4234  0.5224
  985MOL0     C32877  11.340   3.748   3.040 -0.1944  0.4560 -0.6792
  985MOL0     C32878  11.485   3.768   2.976 -1.1800  0.5971 -0.7461
  985MOL0     C32879  11.485   3.832   2.832  0.2681  0.1099 -0.7480
  985MOL0     C32880  11.621   3.870   2.780  0.1015 -0.7086 -0.1865
  985MOL0     C32881  11.665   4.005   2.834  1.1685 -0.2432 -0.7192
  985MOL0     C32882  11.788   4.058   2.751 -0.4771  1.0287  0.0141
  985MOL0     C32883  11.779   4.202   2.715  0.8237 -1.2123  0.2381
  985MOL0     C32884  11.685   4.223   2.593 -0.1272 -0.6869  1.1943
  985MOL0    Cl32885  11.768   4.153   2.447 -0.1388  0.3721  0.1095
  985MOL0     C32886  11.180   3.692   3.327  0.3342  0.2541  0.6520
  985MOL0     C32887  11.058   3.664   3.383 -0.0683  0.2096 -0.0231
  985MOL0     O32888  10.883   3.346   3.413 -0.6148  0.3737 -0.1906
  985MOL0     C32889  10.611   3.557   3.500  0.5011  0.3476 -0.4724
  985MOL0     C32890  10.469   3.568   3.543 -1.2276  0.6237 -0.4651
  985MOL0     N32891   9.775   3.708   3.735 -0.4643 -0.1668  0.6118
  985MOL0     N32892   9.707   3.672   3.840 -0.0948  0.8992  0.8609
  985MOL0     C32893   9.774   2.628   4.490 -0.5385 -0.1363  0.1183
  985MOL0     C32894   9.764   2.498   4.539  0.5473 -0.6600  0.0731
  985MOL0     C32895   9.643   2.063   4.567 -0.9424 -0.0059 -0.0570
  985MOL0     C32896   9.588   1.942   4.504 -0.2626 -0.1516  0.0817
  985MOL0     C32897   9.641   1.819   4.541  0.0757  0.1729 -0.3049
  985MOL0     C32898   9.746   1.810   4.633  0.2809 -0.3788  0.9329
  985MOL0     O32899   9.812   1.700   4.679 -0.1219 -0.5321 -0.6741
  985MOL0     C32900   9.764   1.568   4.640 -0.9414 -0.1851  0.2228
  985MOL0     C32901   9.646   1.538   4.736  0.5142 -0.2198  0.1363
  985MOL0     C32902   9.693   1.528   4.877 -1.1883 -0.3127  0.3000
  985MOL0     C32903   9.588   1.474   4.975  0.4907 -0.5122 -0.7319
  985MOL0     C32904   9.649   1.430   5.106  0.4050 -1.6524  0.2051
  985MOL0     C32905   9.694   1.398   5.209 -0.8797 -0.5752 -0.2981
  985MOL0     C32906   9.792   1.920   4.687 -1.7291  0.4804 -0.3931
  985MOL0     C32907   9.746   2.042   4.667  0.3913  0.5116  0.3928
  985MOL0     H32908   9.516   2.388   4.345  1.0814 -0.7441 -1.6396
  985MOL0     H32909   9.521   2.622   4.265  0.9279 -1.2349 -1.2537
  985MOL0     H32910   9.721   2.894   4.531 -0.3517 -2.8072 -0.6985
  985MOL0     H32911   9.866   2.879   4.432 -0.2218  0.6384  1.9227
  985MOL0     H32912   9.628   3.069   4.385 -0.6416  0.1183 -0.1975
  985MOL0     H32913   9.784   3.093   4.462 -2.2950  0.1535  1.2088
  985MOL0     H32914   9.884   3.025   4.241 -0.1731  0.2177  3.9003
  985MOL0     H32915   9.718   3.004   4.169 -2.7145 -0.0976  2.3152
  985MOL0     H32916   9.664   3.237   4.224 -0.3739  0.8247  1.6105
  985MOL0     H32917   9.822   3.262   4.288 -0.3815 -0.3243 -0.4157
  985MOL0     H32918   9.938   3.248   4.068  0.5431  1.3418 -1.2825
  985MOL0     H32919   9.784   3.174   3.999  1.6932  1.3327 -2.4860
  985MOL0     H32920   9.808   3.417   3.915  1.9655 -0.6445  1.0597
  985MOL0     H32921   9.671   3.390   4.034 -0.4100  1.2367  5.1310
  985MOL0     H32922   9.797   3.488   4.210 -1.6074  2.3113 -0.9823
  985MOL0     H32923   9.928   3.529   4.091  0.6356  0.2612 -0.0406
  985MOL0     H32924   9.797   3.714   4.153  1.0782 -1.1241 -0.1647
  985MOL0     H32925   9.650   3.638   4.094  0.2288 -3.8690  0.2493
  985MOL0     H32926   9.994   3.766   3.967 -1.7753  0.0367  1.5536
  985MOL0     H32927   9.944   3.900   3.636 -6.0138 -3.6487 -0.3098
  985MOL0     H32928  10.073   3.872   3.759 -0.7406  2.5368 -0.2368
  985MOL0     H32929  10.147   3.779   3.528 -0.0431  1.3846 -0.6401
  985MOL0     H32930   9.978   3.720   3.511 -0.6837  2.3534  1.3389
  985MOL0     H32931  10.041   3.557   3.697 -1.8069  2.0116 -0.7601
  985MOL0     H32932  10.201   3.653   3.699  0.0055  0.3201 -0.2845
  985MOL0     H32933  10.209   3.562   3.452  0.7356 -1.3848 -1.5326
  985MOL0     H32934  10.104   3.435   3.494 -0.5901 -1.4376  1.5197
  985MOL0     H32935  10.418   3.230   3.582  2.0313 -0.4369  0.6759
  985MOL0     H32936  10.592   3.096   3.538  0.7619 -1.3395 -0.1023
  985MOL0     H32937  10.663   3.158   3.379  1.4171  2.3065 -1.2396
  985MOL0     H32938  10.756   3.173   3.527  0.0235  3.5953 -2.6544
  985MOL0     H32939  10.911   3.496   3.130 -0.0527 -3.4672  4.1562
  985MOL0     H32940  11.133   3.533   3.022 -0.4353 -1.5356  0.5425
  985MOL0     H32941  11.274   3.712   2.961 -0.9071 -0.6116  0.3592
  985MOL0     H32942  11.300   3.842   3.081 -0.5890 -0.8905  2.3160
  985MOL0     H32943  11.557   3.811   3.047 -1.6892 -0.9149  0.7772
  985MOL0     H32944  11.522   3.667   2.962  1.2706  1.1689  0.9374
  985MOL0     H32945  11.420   3.920   2.829 -0.8683 -0.7374 -3.0128
  985MOL0     H32946  11.449   3.756   2.763 -1.2095  0.5064 -0.4510
  985MOL0     H32947  11.680   3.783   2.811  1.0407  0.1721  0.5883
  985MOL0     H32948  11.610   3.868   2.672 -1.9084 -3.8805 -0.0552
  985MOL0     H32949  11.705   3.992   2.935  1.0093 -2.4214 -0.8734
  985MOL0     H32950  11.589   4.083   2.835  2.2820  1.1713 -4.6486
  985MOL0     H32951  11.881   4.048   2.807  1.5523 -0.3375 -3.2912
  985MOL0     H32952  11.811   3.992   2.667  0.1444 -1.4788  2.0157
  985MOL0     H32953  11.876   4.234   2.675  1.7562 -3.1868  0.7794
  985MOL0     H32954  11.758   4.259   2.805  1.0485 -0.2204 -0.3237
  985MOL0     H32955  11.665   4.329   2.577 -0.2929 -1.1174 -2.2061
  985MOL0     H32956  11.597   4.160   2.607 -1.5864  0.5036 -1.7052
  985MOL0     H32957  11.256   3.743   3.386 -0.1558  0.4348  1.1292
  985MOL0     H32958  11.022   3.701   3.478 -2.1997  0.5586 -0.9114
  985MOL0     H32959  10.667   3.650   3.500 -0.5437  0.9944 -1.3191
  985MOL0     H32960  10.419   3.664   3.552 -2.0448  0.1252  0.4832
  985MOL0     H32961   9.858   2.693   4.515  0.4630 -0.0867 -2.9635
  985MOL0     H32962   9.832   2.459   4.614  2.3819  0.4727 -0.9417
  985MOL0     H32963   9.508   1.948   4.431  1.1175  0.2243 -1.4929
  985MOL0     H32964   9.592   1.729   4.507  0.4695 -1.1141  2.2660
  985MOL0     H32965   9.733   1.557   4.536  1.8487 -2.9440 -0.4795
  985MOL0     H32966   9.837   1.487   4.650  0.1637  0.2466 -3.0955
  985MOL0     H32967   9.603   1.442   4.706  0.8450 -0.5374  0.6649
  985MOL0     H32968   9.568   1.613   4.722  1.0818  0.0457 -1.8910
  985MOL0     H32969   9.727   1.624   4.917 -0.4909 -1.6407  3.1354
  985MOL0     H32970   9.774   1.455   4.866  0.1775  1.4310 -2.1091
  985MOL0     H32971   9.555   1.383   4.923 -1.0751  0.1143 -0.8914
  985MOL0     H32972   9.508   1.548   4.983 -0.1993 -1.1311 -1.6711
  985MOL0     H32973   9.732   1.364   5.303 -0.0517  0.7568 -0.1313
  985MOL0     H32974   9.873   1.903   4.758 -2.2010  2.3034  0.6624
  985MOL0     H32975   9.794   2.126   4.716 -3.4065  1.3095  3.1956
  986MOL0     O32976   2.692   9.496   5.760 -0.5121 -0.3754  0.7165
  986MOL0     C32977   2.769   9.441   5.678  0.0487 -0.4990 -0.1868
  986MOL0     O32978   2.725   9.346   5.588 -0.4733 -0.6485  0.7513
  986MOL0     C32979   2.601   9.287   5.592 -0.0309 -1.1225 -0.4200
  986MOL0     C32980   2.494   9.319   5.515 -0.4700 -0.5261 -0.0378
  986MOL0     C32981   2.379   9.245   5.512  1.2438 -0.3637 -0.7244
  986MOL0     C32982   2.363   9.140   5.605  0.1198  0.3684  0.4224
  986MOL0     O32983   2.247   9.078   5.650 -0.3610 -0.0550 -0.4297
  986MOL0     C32984   2.122   9.136   5.606  0.6933  0.2250 -0.5823
  986MOL0     C32985   2.078   9.084   5.473 -0.4554 -0.1433  1.4557
  986MOL0     C32986   2.051   8.937   5.482  1.2597  1.1276  0.8169
  986MOL0     C32987   1.954   8.887   5.368 -0.4912 -0.4077  0.1173
  986MOL0     C32988   1.917   8.736   5.375 -0.4574 -0.5516 -0.5347
  986MOL0     C32989   2.036   8.635   5.358 -0.5411 -1.1971  0.2656
  986MOL0     C32990   1.994   8.488   5.340  0.8216 -0.1851  0.0492
  986MOL0     C32991   2.105   8.395   5.285  0.0766  0.0774  0.3281
  986MOL0     N32992   2.127   8.423   5.142 -0.0010  0.5266  0.1432
  986MOL0     C32993   2.237   8.474   5.089 -0.2158 -0.3844  0.2160
  986MOL0     C32994   2.230   8.450   4.954  0.5498  0.2181 -0.1609
  986MOL0     C32995   2.349   8.482   4.861 -0.1040 -0.0564  1.0160
  986MOL0     C32996   2.367   8.354   4.775  0.1785 -0.2511  0.4697
  986MOL0     C32997   2.513   8.369   4.727  0.3081  0.0600  1.1087
  986MOL0     C32998   2.562   8.258   4.621  0.0468  0.3725  0.4533
  986MOL0     O32999   2.692   8.209   4.650 -0.6436 -0.1057 -0.5215
  986MOL0     C33000   2.775   8.134   4.565  0.4445  0.3738  0.8422
  986MOL0     C33001   2.740   8.104   4.429 -0.8300 -0.0157 -0.0016
  986MOL0     C33002   2.817   8.033   4.344 -0.2766 -0.6724 -0.0630
  986MOL0     C33003   2.767   8.007   4.196 -0.6186  0.0395 -1.4708
  986MOL0     C33004   2.948   8.003   4.390 -0.4355  0.4165 -0.0813
  986MOL0     C33005   3.052   7.924   4.322 -0.5946  0.0038 -0.0785
  986MOL0     O33006   3.183   7.958   4.337  0.3166 -0.0542 -0.6598
  986MOL0     C33007   3.279   7.883   4.268  0.8327  1.5413 -0.7448
  986MOL0     C33008   3.298   7.880   4.135  0.9938  0.0294  0.1615
  986MOL0     C33009   3.405   7.809   4.080  0.2120  0.5288  0.4493
  986MOL0     C33010   3.496   7.738   4.166  0.5645 -0.1809  0.1773
  986MOL0     O33011   3.598   7.658   4.128 -0.0700 -0.0830  0.2607
  986MOL0     C33012   3.617   7.628   3.992  0.0777  0.3399  0.0277
  986MOL0     C33013   3.732   7.520   3.999 -0.4093 -0.1940 -0.2885
  986MOL0     C33014   3.681   7.366   4.005  0.3382  0.2009 -0.3899
  986MOL0     C33015   3.789   7.269   3.973  0.6045  0.5159 -0.2304
  986MOL0     C33016   3.728   7.131   3.987  0.3521 -0.5618 -0.4947
  986MOL0     C33017   3.824   7.021   3.947 -0.1146 -0.4122  0.7497
  986MOL0     C33018   3.949   7.019   4.029 -0.6611 -0.7518 -0.6122
  986MOL0     C33019   4.076   7.076   3.954  0.2441 -0.2823  0.3019
  986MOL0    Cl33020   4.216   7.060   4.060 -0.3680  0.2154  0.6077
  986MOL0     C33021   3.479   7.739   4.301  0.7077 -1.1140  0.1437
  986MOL0     C33022   3.378   7.818   4.352  0.3667  0.1069  0.2414
  986MOL0     O33023   3.012   7.830   4.262 -0.5876  0.0605  0.0436
  986MOL0     C33024   2.979   8.025   4.527 -0.7838  0.6008  0.4476
  986MOL0     C33025   2.899   8.094   4.615 -0.0625 -0.0670  0.0947
  986MOL0     N33026   2.104   8.386   4.927  0.1981  0.3533  0.3779
  986MOL0     N33027   2.052   8.365   5.041 -1.0137  0.7771 -0.6430
  986MOL0     C33028   2.477   9.095   5.678 -0.5788  0.1453  0.5235
  986MOL0     C33029   2.602   9.169   5.663 -0.9169 -0.2545 -0.7011
  986MOL0     C33030   2.906   9.494   5.656  0.1251 -0.2213 -0.4300
  986MOL0     C33031   2.972   9.575   5.749 -0.1801 -0.3803 -0.0067
  986MOL0     C33032   3.102   9.611   5.737 -0.6622  0.3702 -0.3304
  986MOL0     C33033   3.176   9.574   5.631  0.5141  0.2823 -0.6457
  986MOL0     O33034   3.307   9.617   5.641 -0.1101  0.0852 -0.5512
  986MOL0     C33035   3.388   9.605   5.527  0.4402 -0.2691  0.3329
  986MOL0     C33036   3.441   9.457   5.511  0.4455 -0.8487  0.6908
  986MOL0     C33037   3.520   9.437   5.390  0.0792  0.0006  1.1759
  986MOL0     C33038   3.424   9.398   5.273  0.1853  0.8631 -0.0355
  986MOL0     C33039   3.374   9.502   5.187 -0.2362  0.6378 -0.7729
  986MOL0     C33040   3.337   9.578   5.097  1.0949 -0.4661  0.4449
  986MOL0     C33041   3.117   9.496   5.535 -0.2277  0.1411 -0.6647
  986MOL0     C33042   2.985   9.452   5.545  0.0144  0.3324 -0.0202
  986MOL0     H33043   2.509   9.410   5.458  0.3239  1.0938  2.6082
  986MOL0     H33044   2.296   9.269   5.446  0.2013 -0.7375  0.4140
  986MOL0     H33045   2.051   9.120   5.688  1.5264  0.6546  0.2460
  986MOL0     H33046   2.115   9.245   5.612 -3.2506  0.0433  2.8373
  986MOL0     H33047   1.990   9.131   5.428  0.7067  1.1980  0.5055
  986MOL0     H33048   2.166   9.098   5.409 -0.7395  0.6700  1.2385
  986MOL0     H33049   2.145   8.883   5.470  0.2817 -0.5160  0.2641
  986MOL0     H33050   2.011   8.920   5.582  2.4225 -0.1260  1.0922
  986MOL0     H33051   1.863   8.947   5.360 -0.0220  0.2331 -0.4382
  986MOL0     H33052   2.003   8.914   5.274 -0.8904  3.4908  0.8924
  986MOL0     H33053   1.870   8.722   5.473  2.4816  0.1106  1.0916
  986MOL0     H33054   1.851   8.721   5.289 -0.9597 -0.5730 -0.1498
  986MOL0     H33055   2.076   8.663   5.260 -1.6057 -1.4295 -0.2541
  986MOL0     H33056   2.101   8.650   5.444  0.2217 -2.6125 -0.0312
  986MOL0     H33057   1.962   8.458   5.440 -3.6189  0.7502 -0.8851
  986MOL0     H33058   1.907   8.472   5.275  2.3492 -1.2826 -1.8182
  986MOL0     H33059   2.068   8.293   5.291 -1.0687  0.3938 -0.7533
  986MOL0     H33060   2.199   8.390   5.340  0.6543 -0.0412 -0.6569
  986MOL0     H33061   2.317   8.524   5.142  0.5389 -2.6211  1.3296
  986MOL0     H33062   2.327   8.562   4.791  0.3973 -2.1226 -1.6667
  986MOL0     H33063   2.433   8.514   4.923  0.8887 -0.8322  0.1125
  986MOL0     H33064   2.307   8.351   4.683  1.5965  2.4703 -0.6947
  986MOL0     H33065   2.343   8.268   4.837  0.4570  0.8420  2.1541
  986MOL0     H33066   2.581   8.374   4.813 -0.0960  1.1308  1.3693
  986MOL0     H33067   2.519   8.466   4.678  2.0097 -1.4394 -1.9441
  986MOL0     H33068   2.568   8.295   4.518 -0.0419  1.5947  0.8743
  986MOL0     H33069   2.494   8.172   4.618  0.5269  0.0143 -1.8602
  986MOL0     H33070   2.641   8.117   4.387 -1.3690 -0.6014  1.0429
  986MOL0     H33071   2.818   8.069   4.122 -1.3691 -0.1917 -2.1899
  986MOL0     H33072   2.784   7.899   4.190 -3.0757 -1.3039  5.5592
  986MOL0     H33073   2.659   8.024   4.191 -1.0626  1.4556  4.7537
  986MOL0     H33074   3.233   7.943   4.075 -1.0095  0.3513  2.4814
  986MOL0     H33075   3.425   7.798   3.974  0.3024  0.5216  0.4671
  986MOL0     H33076   3.532   7.575   3.947  1.0051 -0.6306 -0.6367
  986MOL0     H33077   3.645   7.717   3.935  1.1844 -0.3172 -0.4974
  986MOL0     H33078   3.783   7.538   3.904  0.5980  1.2519  0.4773
  986MOL0     H33079   3.801   7.532   4.083  1.0039 -3.4625 -0.8312
  986MOL0     H33080   3.601   7.354   3.931  0.7069 -2.3431 -0.4592
  986MOL0     H33081   3.655   7.339   4.108  0.8456 -0.2960 -0.3888
  986MOL0     H33082   3.824   7.282   3.870  1.2354 -0.7895 -0.1950
  986MOL0     H33083   3.880   7.273   4.033 -1.4208  0.8401  3.0717
  986MOL0     H33084   3.642   7.118   3.920 -0.2418  2.8278 -0.5732
  986MOL0     H33085   3.684   7.109   4.084 -0.9780 -2.2869 -1.4176
  986MOL0     H33086   3.777   6.923   3.956 -1.5451  0.2600  0.8263
  986MOL0     H33087   3.836   7.027   3.838 -1.7916 -3.4608  0.2799
  986MOL0     H33088   3.968   6.913   4.050 -0.1868 -0.0907  3.0444
  986MOL0     H33089   3.937   7.064   4.128 -1.0179  0.8472 -1.3566
  986MOL0     H33090   4.058   7.183   3.963  2.9166  0.0645  2.8094
  986MOL0     H33091   4.094   7.037   3.853 -2.8517 -0.9732 -0.0820
  986MOL0     H33092   3.544   7.676   4.360 -0.3060 -1.7329  0.6196
  986MOL0     H33093   3.374   7.817   4.461 -0.0680 -1.1294  0.2247
  986MOL0     H33094   3.076   7.996   4.566 -0.0534 -0.5511 -2.0328
  986MOL0     H33095   2.911   8.106   4.722 -1.3369  2.9378  0.0009
  986MOL0     H33096   2.466   9.020   5.756  3.7250  0.4592  1.7218
  986MOL0     H33097   2.696   9.143   5.710  0.2687 -2.6467 -4.0788
  986MOL0     H33098   2.913   9.597   5.837 -0.5022  0.4669 -0.4242
  986MOL0     H33099   3.151   9.665   5.817  1.2980 -2.5530  0.5979
  986MOL0     H33100   3.333   9.634   5.437 -2.0376 -1.5083  1.3293
  986MOL0     H33101   3.474   9.672   5.533  0.8179 -0.3889 -2.4238
  986MOL0     H33102   3.357   9.388   5.510 -0.9940  0.8247  0.6346
  986MOL0     H33103   3.495   9.437   5.604 -1.9901 -0.9752  2.1764
  986MOL0     H33104   3.601   9.367   5.409 -1.2840 -1.4282  1.9587
  986MOL0     H33105   3.570   9.534   5.375  1.1245 -0.5512  1.0309
  986MOL0     H33106   3.346   9.330   5.308  1.4982  0.2300  1.8254
  986MOL0     H33107   3.471   9.327   5.205 -0.5704 -0.0838  0.4001
  986MOL0     H33108   3.319   9.658   5.027  2.7471 -1.6551 -1.4357
  986MOL0     H33109   3.163   9.475   5.439 -1.0762  3.1307 -1.8259
  986MOL0     H33110   2.954   9.381   5.469  1.8332  0.9684 -1.4195
  987MOL0     O33111   4.487   1.124   0.714 -0.1208  0.9878  0.5533
  987MOL0     C33112   4.576   1.182   0.643  0.8463  0.7350 -1.7002
  987MOL0     O33113   4.590   1.312   0.626 -0.5784 -0.1528 -0.3024
  987MOL0     C33114   4.490   1.389   0.661 -0.3003 -0.6455 -0.3781
  987MOL0     C33115   4.495   1.454   0.780 -0.4288  0.1292  1.3456
  987MOL0     C33116   4.381   1.534   0.809 -0.1933  0.3952  0.5271
  987MOL0     C33117   4.275   1.545   0.719  0.8721 -0.6642 -0.1668
  987MOL0     O33118   4.172   1.634   0.742 -0.0930  0.2712  0.5713
  987MOL0     C33119   4.058   1.571   0.805  0.3144  0.2166  0.1049
  987MOL0     C33120   3.937   1.662   0.783 -0.7670  0.4493  0.6883
  987MOL0     C33121   3.811   1.587   0.840 -0.8257 -0.6811 -0.3285
  987MOL0     C33122   3.696   1.678   0.813 -0.0544  0.1441 -0.1002
  987MOL0     C33123   3.550   1.601   0.838  0.0732  0.0759  0.3039
  987MOL0     C33124   3.539   1.573   0.987  0.6581  0.6928  0.1679
  987MOL0     C33125   3.420   1.480   1.004  0.9084 -1.0405  0.3411
  987MOL0     C33126   3.380   1.457   1.154 -0.6652 -0.8866 -0.5643
  987MOL0     N33127   3.268   1.352   1.170 -0.0324 -0.0987 -1.0867
  987MOL0     C33128   3.134   1.381   1.154 -0.6884 -0.0302  1.0402
  987MOL0     C33129   3.060   1.264   1.163 -0.5511 -1.0918  0.0478
  987MOL0     C33130   2.912   1.236   1.164 -0.4309 -1.5381  0.2331
  987MOL0     C33131   2.881   1.103   1.099 -0.3044  0.5981  0.2598
  987MOL0     C33132   2.731   1.065   1.095 -0.9474  0.8610 -0.0819
  987MOL0     C33133   2.683   0.985   1.218 -0.2735  0.8715 -0.2563
  987MOL0     O33134   2.713   1.051   1.344 -0.1968 -0.0256  0.1183
  987MOL0     C33135   2.744   0.982   1.460 -0.2152 -0.4819  0.0944
  987MOL0     C33136   2.694   0.859   1.499  0.1846  0.5747  1.2552
  987MOL0     C33137   2.735   0.794   1.621 -0.4832  0.4409  0.2537
  987MOL0     C33138   2.665   0.673   1.660  0.7250 -0.2274 -0.0487
  987MOL0     C33139   2.851   0.843   1.691 -0.4931  0.3353 -0.1949
  987MOL0     C33140   2.924   0.765   1.800  1.1918 -0.4736  0.4715
  987MOL0     O33141   3.036   0.816   1.861 -0.1771  0.8385 -0.2577
  987MOL0     C33142   3.100   0.727   1.940  0.0794 -0.1847 -0.7061
  987MOL0     C33143   3.040   0.685   2.061 -0.8597  0.1457  1.0752
  987MOL0     C33144   3.097   0.591   2.145  0.2784  0.0919  0.4202
  987MOL0     C33145   3.212   0.511   2.104 -0.7645 -0.8259  1.1825
  987MOL0     O33146   3.255   0.419   2.190  0.6376  0.4765 -0.3527
  987MOL0     C33147   3.338   0.317   2.125 -0.8538  0.2811 -1.5148
  987MOL0     C33148   3.251   0.198   2.098 -0.8080  0.1018  0.2315
  987MOL0     C33149   3.150   0.219   1.990  0.2802 -0.2584 -0.9315
  987MOL0     C33150   3.096   0.080   1.961  0.0929  0.4625  0.0120
  987MOL0     C33151   2.981   0.107   1.864 -0.4283 -0.1947 -0.9620
  987MOL0     C33152   2.840   0.119   1.899  0.7946 -1.2821 -0.0188
  987MOL0     C33153   2.806   0.224   2.012 -0.6781 -1.6427 -0.1064
  987MOL0     C33154   2.756   0.350   1.940  0.6358 -0.2060 -0.4405
  987MOL0    Cl33155   2.573   0.341   1.919 -0.0103  0.2089 -0.4473
  987MOL0     C33156   3.269   0.558   1.985  0.7728 -0.0704 -0.0408
  987MOL0     C33157   3.212   0.656   1.897 -0.5284  0.1944 -0.1502
  987MOL0     O33158   2.881   0.650   1.807 -0.4956  0.2816  0.5310
  987MOL0     C33159   2.908   0.962   1.645 -0.3704 -0.1567  0.7418
  987MOL0     C33160   2.846   1.028   1.540  0.3553  0.4280  0.0818
  987MOL0     N33161   3.161   1.173   1.194 -1.0596 -0.5009  0.2869
  987MOL0     N33162   3.281   1.224   1.206 -0.6176 -0.1883  0.0067
  987MOL0     C33163   4.279   1.482   0.593 -0.5228  0.6658  0.0681
  987MOL0     C33164   4.383   1.403   0.567  0.7499  0.1837  0.1169
  987MOL0     C33165   4.682   1.093   0.576  0.1862 -0.4042  0.1320
  987MOL0     C33166   4.688   0.961   0.599 -0.9148  0.9520 -0.5286
  987MOL0     C33167   4.779   0.875   0.535 -0.7750  0.1174  1.6257
  987MOL0     C33168   4.872   0.934   0.443  0.0016 -0.6703 -0.4111
  987MOL0     O33169   4.983   0.874   0.388 -0.3031 -0.5852 -0.1006
  987MOL0     C33170   4.988   0.728   0.374 -0.2297  0.5511  0.3197
  987MOL0     C33171   4.875   0.680   0.276 -0.6166  1.1739 -0.3481
  987MOL0     C33172   4.857   0.535   0.292 -0.2119 -0.7165  0.6520
  987MOL0     C33173   4.795   0.466   0.171 -1.1290 -0.1340 -0.4607
  987MOL0     C33174   4.827   0.322   0.180 -0.2192 -0.7735 -0.3248
  987MOL0     C33175   4.849   0.204   0.177  0.8922  0.6013  0.8814
  987MOL0     C33176   4.865   1.077   0.418 -0.2285 -0.3716  0.0528
  987MOL0     C33177   4.764   1.157   0.480 -0.1114  0.2554  0.0350
  987MOL0     H33178   4.585   1.456   0.840  1.9833  1.4353 -2.0189
  987MOL0     H33179   4.385   1.589   0.902  1.6676 -0.0737  0.7661
  987MOL0     H33180   4.034   1.471   0.770 -1.4279  0.4246  0.6109
  987MOL0     H33181   4.069   1.569   0.914  0.1528  2.6807  0.2363
  987MOL0     H33182   3.962   1.756   0.834  1.1052  0.5710 -0.3877
  987MOL0     H33183   3.936   1.678   0.675 -0.0644 -0.2853  0.5664
  987MOL0     H33184   3.796   1.493   0.785 -2.6455  0.0068 -1.0576
  987MOL0     H33185   3.823   1.565   0.946 -1.6531 -0.9165 -0.2756
  987MOL0     H33186   3.702   1.771   0.871  2.8069  0.8348 -1.3327
  987MOL0     H33187   3.694   1.705   0.707 -3.3905  0.3302 -0.1043
  987MOL0     H33188   3.474   1.677   0.819 -0.6505 -0.6996  0.0182
  987MOL0     H33189   3.529   1.512   0.777 -3.3594  0.8459  0.1293
  987MOL0     H33190   3.625   1.523   1.032 -0.9060 -0.1168  2.4209
  987MOL0     H33191   3.515   1.671   1.029 -2.3143  0.4008 -0.5813
  987MOL0     H33192   3.330   1.525   0.960  1.0569  1.0362  1.9785
  987MOL0     H33193   3.439   1.387   0.950 -0.1456  0.2833 -2.5040
  987MOL0     H33194   3.350   1.552   1.198  0.6559 -2.5064  4.6046
  987MOL0     H33195   3.468   1.408   1.198 -1.5463 -0.4898  1.7661
  987MOL0     H33196   3.080   1.472   1.129  1.7073  1.4007  0.8005
  987MOL0     H33197   2.887   1.232   1.270 -4.9220  3.0448 -0.2131
  987MOL0     H33198   2.862   1.322   1.118 -1.1210 -2.1796 -0.2474
  987MOL0     H33199   2.933   1.020   1.146 -0.8812  2.1956  4.1050
  987MOL0     H33200   2.914   1.103   0.995  2.0861 -3.3578  0.8353
  987MOL0     H33201   2.703   0.997   1.014 -0.1282  1.2116 -0.6786
  987MOL0     H33202   2.686   1.163   1.078  1.8492  1.9114 -2.1734
  987MOL0     H33203   2.730   0.887   1.207 -2.5641 -0.1737 -1.4438
  987MOL0     H33204   2.574   0.975   1.216 -0.0753 -2.9702 -2.7775
  987MOL0     H33205   2.611   0.820   1.441  2.0343  0.7120 -1.7603
  987MOL0     H33206   2.714   0.586   1.615  0.2526  0.3480 -1.7301
  987MOL0     H33207   2.647   0.666   1.768 -1.1182  0.4423 -0.2867
  987MOL0     H33208   2.567   0.679   1.613  0.9893  3.6546 -0.4601
  987MOL0     H33209   2.964   0.747   2.107 -0.3556  1.0831  0.6799
  987MOL0     H33210   3.052   0.582   2.244  0.2921 -1.1830  0.3259
  987MOL0     H33211   3.416   0.350   2.055  3.3449  0.4173  2.6908
  987MOL0     H33212   3.406   0.287   2.206 -0.1090  0.4927 -2.0465
  987MOL0     H33213   3.321   0.116   2.078 -1.2353 -0.1114 -0.4276
  987MOL0     H33214   3.203   0.169   2.192  0.9307  0.3092  1.2297
  987MOL0     H33215   3.198   0.269   1.905  0.3698 -1.2864 -1.5030
  987MOL0     H33216   3.079   0.297   2.019  1.1468  0.0640  0.3963
  987MOL0     H33217   3.166   0.015   1.908 -2.7323 -1.3126 -1.7520
  987MOL0     H33218   3.073   0.026   2.054 -0.4889  1.2266  0.3226
  987MOL0     H33219   2.980   0.021   1.796 -3.4174  1.5046 -3.2698
  987MOL0     H33220   3.011   0.190   1.800 -0.8351  1.6727  1.1529
  987MOL0     H33221   2.780   0.138   1.810 -2.0528  1.3499  2.2220
  987MOL0     H33222   2.805   0.022   1.937 -0.3908 -0.5283  0.9026
  987MOL0     H33223   2.893   0.242   2.076 -0.0418 -1.3584 -1.0157
  987MOL0     H33224   2.726   0.191   2.078 -1.6656 -0.0670 -0.4572
  987MOL0     H33225   2.796   0.369   1.840  1.3220  3.2983  0.3728
  987MOL0     H33226   2.777   0.437   2.003  2.2163  0.2400 -1.5070
  987MOL0     H33227   3.367   0.523   1.952 -0.5370 -3.0206 -1.1422
  987MOL0     H33228   3.262   0.670   1.801 -2.2499  0.4941 -1.0386
  987MOL0     H33229   2.997   1.008   1.686  0.6239 -0.3126 -1.1195
  987MOL0     H33230   2.886   1.127   1.520 -2.1445  1.4626 -0.2635
  987MOL0     H33231   4.205   1.502   0.517  0.5160 -0.0831 -1.1860
  987MOL0     H33232   4.385   1.345   0.476  0.6400  0.5812 -0.1447
  987MOL0     H33233   4.611   0.928   0.668 -0.6545  3.1207  0.9079
  987MOL0     H33234   4.771   0.766   0.538 -0.3916 -0.0659 -1.2116
  987MOL0     H33235   5.084   0.712   0.325  0.2605 -0.8419  1.6654
  987MOL0     H33236   4.993   0.673   0.468 -0.8850  0.0057  0.0506
  987MOL0     H33237   4.906   0.706   0.174  1.5958 -2.0398 -0.6166
  987MOL0     H33238   4.776   0.724   0.294 -2.1845 -1.7357 -1.2845
  987MOL0     H33239   4.802   0.514   0.384 -0.2656 -0.0187  0.7811
  987MOL0     H33240   4.956   0.490   0.306 -0.0190 -0.3495  0.4706
  987MOL0     H33241   4.832   0.502   0.075 -1.0686 -1.5707 -1.0067
  987MOL0     H33242   4.686   0.473   0.170 -1.0189  2.8406 -1.2066
  987MOL0     H33243   4.848   0.097   0.169 -0.7708  0.6719 -0.6631
  987MOL0     H33244   4.933   1.133   0.354 -0.2260  0.3796  0.6942
  987MOL0     H33245   4.779   1.261   0.453  5.5432 -0.9696 -3.2772
  988MOL0     O33246  10.207   6.323   1.802 -0.3906  0.1929  0.4247
  988MOL0     C33247  10.185   6.325   1.924 -0.4729  0.6676 -0.2707
  988MOL0     O33248  10.171   6.209   2.013 -0.7340  0.6231  0.2323
  988MOL0     C33249  10.205   6.079   1.970  0.8739 -1.3296  0.0688
  988MOL0     C33250  10.196   6.039   1.836  0.4174 -0.2848  1.0795
  988MOL0     C33251  10.247   5.913   1.799  0.0286  0.1954 -0.0217
  988MOL0     C33252  10.289   5.824   1.893  0.9649  0.0276  0.7390
  988MOL0     O33253  10.312   5.693   1.851 -1.2108  0.7022  0.0971
  988MOL0     C33254  10.373   5.597   1.935 -0.4408 -0.5372  0.4178
  988MOL0     C33255  10.384   5.474   1.847  0.1648  0.3486 -0.9779
  988MOL0     C33256  10.254   5.393   1.821 -0.1212  0.4069 -0.4257
  988MOL0     C33257  10.260   5.288   1.702 -1.3784  0.1024  0.7740
  988MOL0     C33258  10.139   5.190   1.696 -0.4305  0.5665  0.7129
  988MOL0     C33259  10.137   5.099   1.565  0.5478  0.2165 -0.3089
  988MOL0     C33260  10.019   5.007   1.558 -0.0280 -0.0748  0.1728
  988MOL0     C33261   9.885   5.082   1.549 -0.1007  0.3643 -0.5940
  988MOL0     N33262   9.770   4.989   1.531  0.0363  0.0871  0.5403
  988MOL0     C33263   9.680   4.957   1.626  0.5716  0.5956 -0.3593
  988MOL0     C33264   9.591   4.893   1.551  0.0989 -0.1542  0.8370
  988MOL0     C33265   9.464   4.843   1.603  0.5031 -0.1729  0.2179
  988MOL0     C33266   9.403   4.713   1.537  0.3459 -0.3875 -0.3939
  988MOL0     C33267   9.315   4.648   1.637 -0.2296  0.5041 -0.6478
  988MOL0     C33268   9.187   4.726   1.642 -0.1747  0.5195 -0.0264
  988MOL0     O33269   9.098   4.677   1.730 -0.1909  0.0737  1.0679
  988MOL0     C33270   9.012   4.582   1.682  1.0933  0.0282  0.3891
  988MOL0     C33271   9.025   4.504   1.562  0.4148  0.4173 -0.5017
  988MOL0     C33272   8.916   4.424   1.520 -0.0284 -0.9427 -0.4360
  988MOL0     C33273   8.930   4.345   1.396 -0.0371 -0.3377 -0.5333
  988MOL0     C33274   8.794   4.427   1.591  0.2659  0.1526 -0.2294
  988MOL0     C33275   8.663   4.361   1.542  0.2503  0.5010 -0.3306
  988MOL0     O33276   8.577   4.326   1.643  1.0273  0.7596  0.7137
  988MOL0     C33277   8.471   4.250   1.597 -0.0795 -0.4032 -0.3516
  988MOL0     C33278   8.354   4.316   1.565 -0.0908  0.2210 -0.1565
  988MOL0     C33279   8.250   4.244   1.506  0.8329 -0.4140 -1.5591
  988MOL0     C33280   8.244   4.108   1.487 -0.9934  0.0501  0.6053
  988MOL0     O33281   8.137   4.038   1.443 -0.9783 -1.0997 -0.2363
  988MOL0     C33282   8.031   4.099   1.376 -0.8436 -1.0788 -0.5253
  988MOL0     C33283   7.920   3.997   1.355 -0.9709 -0.8484  0.1738
  988MOL0     C33284   7.794   4.056   1.308  0.2179 -0.5095 -0.8968
  988MOL0     C33285   7.693   3.951   1.302 -0.1792 -0.1938  0.2005
  988MOL0     C33286   7.641   3.893   1.434 -0.2470 -0.3572 -1.0454
  988MOL0     C33287   7.499   3.825   1.425  0.0259  0.8879  1.0269
  988MOL0     C33288   7.508   3.681   1.388  0.5669  0.2830 -0.1556
  988MOL0     C33289   7.364   3.624   1.384 -0.4663 -0.2257 -0.2043
  988MOL0    Cl33290   7.353   3.445   1.356 -0.1576  0.2496  0.1055
  988MOL0     C33291   8.367   4.040   1.528  0.2720  0.4401  0.0656
  988MOL0     C33292   8.478   4.114   1.576  1.1877  0.2238  0.5251
  988MOL0     O33293   8.646   4.338   1.421  0.6199  0.3652  1.0488
  988MOL0     C33294   8.789   4.484   1.716 -0.4191  0.5563  0.1523
  988MOL0     C33295   8.900   4.563   1.758  0.7072 -0.6685 -0.1768
  988MOL0     N33296   9.610   4.903   1.417  0.0818 -0.4694 -0.2494
  988MOL0     N33297   9.720   4.962   1.408 -0.6106 -0.1387  0.3886
  988MOL0     C33298  10.299   5.866   2.024  0.8362 -0.1142 -0.8030
  988MOL0     C33299  10.257   5.995   2.065 -0.2905  0.0438  0.0651
  988MOL0     C33300  10.127   6.448   1.973 -0.1321  1.0649 -0.0448
  988MOL0     C33301  10.062   6.447   2.096  0.0219  0.7729  0.4393
  988MOL0     C33302   9.997   6.556   2.145 -0.6794  1.2343  0.5229
  988MOL0     C33303   9.972   6.670   2.067  0.3708  1.4338 -0.0801
  988MOL0     O33304   9.913   6.781   2.112 -0.8840  0.5665  1.4299
  988MOL0     C33305   9.878   6.789   2.250  0.9781  0.1268  0.0517
  988MOL0     C33306   9.848   6.931   2.302  0.1532  0.5472  0.2410
  988MOL0     C33307   9.759   6.995   2.207  0.5730  0.0966 -0.2951
  988MOL0     C33308   9.711   7.126   2.262  0.3224  0.9705  0.6368
  988MOL0     C33309   9.584   7.105   2.332 -0.2509  0.1060  0.0301
  988MOL0     C33310   9.489   7.084   2.407 -1.0767  0.7509  0.0021
  988MOL0     C33311  10.023   6.669   1.938  0.7233  0.3679  0.2512
  988MOL0     C33312  10.112   6.562   1.895  0.2332  0.7710  0.2137
  988MOL0     H33313  10.143   6.096   1.761 -0.0899  0.6389  2.1087
  988MOL0     H33314  10.241   5.882   1.695  2.7376 -1.5864  0.2598
  988MOL0     H33315  10.465   5.649   1.965 -1.3788  1.4471  0.0474
  988MOL0     H33316  10.316   5.586   2.028 -1.2061 -0.7908 -0.0726
  988MOL0     H33317  10.416   5.510   1.749  0.9960 -3.2815 -2.1722
  988MOL0     H33318  10.448   5.399   1.894 -3.0008 -1.3462  0.9891
  988MOL0     H33319  10.241   5.326   1.907 -1.7292  1.4211  0.1583
  988MOL0     H33320  10.170   5.461   1.807 -0.0586  0.2822 -1.4842
  988MOL0     H33321  10.274   5.346   1.610  6.0766  1.7085  2.2851
  988MOL0     H33322  10.347   5.227   1.727  0.3911  2.6215  1.1188
  988MOL0     H33323  10.141   5.119   1.779  0.6074 -2.0758 -1.4243
  988MOL0     H33324  10.049   5.251   1.698  0.5280  2.1498 -1.0322
  988MOL0     H33325  10.146   5.161   1.476 -0.1774  2.5134  1.1450
  988MOL0     H33326  10.231   5.042   1.566  0.3666 -0.2387 -2.7254
  988MOL0     H33327  10.029   4.948   1.466  0.7195  1.8710 -1.0477
  988MOL0     H33328  10.015   4.938   1.643 -1.5537 -0.1336  0.0760
  988MOL0     H33329   9.904   5.147   1.463  1.2448  0.0193 -0.5724
  988MOL0     H33330   9.876   5.126   1.648 -0.0634 -1.3462  0.1963
  988MOL0     H33331   9.670   4.973   1.733 -2.8180 -0.4769 -0.3998
  988MOL0     H33332   9.467   4.855   1.712 -0.5225 -0.1878  0.2621
  988MOL0     H33333   9.391   4.920   1.578  2.7098  1.7808 -0.5404
  988MOL0     H33334   9.477   4.641   1.500  1.6171 -0.8381  2.7321
  988MOL0     H33335   9.357   4.753   1.446  1.4609  6.1019  1.3881
  988MOL0     H33336   9.371   4.648   1.731  0.2364 -1.9236 -0.8629
  988MOL0     H33337   9.286   4.546   1.607 -0.3770  0.1457  0.6359
  988MOL0     H33338   9.143   4.731   1.542 -2.8846 -1.3592  0.9448
  988MOL0     H33339   9.213   4.829   1.670 -0.9074  1.2567 -1.8572
  988MOL0     H33340   9.112   4.514   1.498 -0.5920  2.0939 -1.7039
  988MOL0     H33341   9.036   4.317   1.391  0.2946  0.5604  0.8566
  988MOL0     H33342   8.878   4.250   1.410  4.8230 -3.4144 -0.9704
  988MOL0     H33343   8.894   4.410   1.316  0.7523 -0.2647 -0.8431
  988MOL0     H33344   8.336   4.418   1.595 -0.2151  1.2027 -3.2876
  988MOL0     H33345   8.170   4.306   1.467 -0.9271 -1.4368  0.2282
  988MOL0     H33346   7.985   4.188   1.421 -0.0191 -0.1552 -1.4569
  988MOL0     H33347   8.061   4.137   1.278 -0.9544 -1.2505 -0.6259
  988MOL0     H33348   7.952   3.920   1.283  0.3194 -1.2628  1.1464
  988MOL0     H33349   7.901   3.946   1.450 -4.3114 -2.7529 -1.3485
  988MOL0     H33350   7.797   4.092   1.205  0.3427 -2.1837 -1.5193
  988MOL0     H33351   7.766   4.129   1.384  0.8883  1.8034 -2.7674
  988MOL0     H33352   7.610   3.994   1.244 -1.4982 -1.7113  0.8729
  988MOL0     H33353   7.727   3.869   1.238 -1.5615  0.8903 -2.0603
  988MOL0     H33354   7.616   3.969   1.508 -1.2686 -3.0261  1.5574
  988MOL0     H33355   7.702   3.817   1.484  0.4136 -1.1591 -2.9704
  988MOL0     H33356   7.450   3.823   1.523 -3.3379  1.3334 -0.4782
  988MOL0     H33357   7.438   3.875   1.349  2.7879  0.5937 -1.5764
  988MOL0     H33358   7.566   3.608   1.446 -2.8608 -2.0142  0.6717
  988MOL0     H33359   7.560   3.675   1.292  1.6508 -0.9589  0.4661
  988MOL0     H33360   7.306   3.680   1.310 -0.9305 -0.9670 -0.4107
  988MOL0     H33361   7.321   3.631   1.485 -1.0663  2.0181 -0.5546
  988MOL0     H33362   8.369   3.932   1.517  2.8643  0.3260  1.0273
  988MOL0     H33363   8.573   4.068   1.600  1.1973 -1.3062 -2.1021
  988MOL0     H33364   8.701   4.484   1.779 -1.7328 -1.2952 -1.5865
  988MOL0     H33365   8.889   4.610   1.855 -1.6027  0.1326 -0.7685
  988MOL0     H33366  10.355   5.811   2.099  1.3239 -0.8488 -1.6843
  988MOL0     H33367  10.264   6.015   2.171  2.0433 -1.2034  0.1895
  988MOL0     H33368  10.061   6.359   2.159 -1.2414  0.8759  0.5811
  988MOL0     H33369   9.953   6.553   2.244 -0.2877  1.6605  0.7116
  988MOL0     H33370   9.793   6.721   2.265  1.2388 -0.0758  0.6534
  988MOL0     H33371   9.952   6.746   2.318 -0.5369 -1.2528  0.9117
  988MOL0     H33372   9.946   6.980   2.297  1.1159 -1.2334  0.7356
  988MOL0     H33373   9.815   6.926   2.406 -0.5211 -0.7685 -0.0142
  988MOL0     H33374   9.681   6.926   2.173  0.5962 -0.5081  0.8390
  988MOL0     H33375   9.820   7.020   2.120  1.3501 -0.7746 -0.0122
  988MOL0     H33376   9.693   7.197   2.180  1.9256 -0.0238 -0.6292
  988MOL0     H33377   9.789   7.167   2.327 -0.9360 -0.3113  3.1104
  988MOL0     H33378   9.423   7.037   2.477 -0.7300  0.5851  0.2221
  988MOL0     H33379  10.000   6.750   1.869 -2.2946 -1.1526 -0.7070
  988MOL0     H33380  10.137   6.576   1.790  1.0073 -0.1001  0.2689
  989MOL0     O33381   7.767   7.208   5.276 -0.3659  0.0934  0.0766
  989MOL0     C33382   7.792   7.157   5.388  0.0330 -0.0626 -0.3350
  989MOL0     O33383   7.866   7.215   5.490  0.4773  0.2333  0.2538
  989MOL0     C33384   7.894   7.351   5.487  0.5240  0.0040 -0.5668
  989MOL0     C33385   8.032   7.373   5.514 -1.3449 -0.0868  1.3346
  989MOL0     C33386   8.079   7.494   5.485 -0.2114 -0.2936  0.6883
  989MOL0     C33387   7.998   7.597   5.433  0.2956 -0.1609  0.4774
  989MOL0     O33388   8.029   7.729   5.415 -0.0663 -0.3409 -0.9666
  989MOL0     C33389   8.170   7.779   5.429  0.5833  0.4102  0.1006
  989MOL0     C33390   8.158   7.932   5.419 -0.0510 -0.0042 -0.7114
  989MOL0     C33391   8.293   7.996   5.426 -0.2642  0.8412 -0.0894
  989MOL0     C33392   8.287   8.131   5.356  0.1801 -0.8325 -0.7449
  989MOL0     C33393   8.203   8.238   5.442 -0.1751 -0.2275 -0.5065
  989MOL0     C33394   8.288   8.300   5.573  0.1840 -0.3845  0.4152
  989MOL0     C33395   8.216   8.419   5.610  0.7105  0.4669 -0.7236
  989MOL0     C33396   8.269   8.537   5.528  0.8093  0.1594  0.4384
  989MOL0     N33397   8.398   8.585   5.573 -0.6134  0.2238  0.2319
  989MOL0     C33398   8.497   8.522   5.649  0.1689  0.5128 -0.3600
  989MOL0     C33399   8.612   8.594   5.628 -1.1196  0.4757  0.2476
  989MOL0     C33400   8.751   8.579   5.690  0.3306  0.0371  0.4475
  989MOL0     C33401   8.751   8.543   5.833 -0.2506  0.3064 -1.0084
  989MOL0     C33402   8.882   8.488   5.886  0.6300 -0.7381  0.7188
  989MOL0     C33403   8.876   8.427   6.031  0.8915  0.1761 -0.8773
  989MOL0     O33404   8.793   8.511   6.118 -0.9738 -0.3377 -0.1341
  989MOL0     C33405   8.787   8.478   6.253  0.1776  0.6540  0.6088
  989MOL0     C33406   8.717   8.562   6.342  0.1103 -0.9432  0.3796
  989MOL0     C33407   8.708   8.524   6.478 -0.4799 -0.2190 -0.9059
  989MOL0     C33408   8.618   8.611   6.570 -0.4041 -0.7269 -0.5625
  989MOL0     C33409   8.768   8.404   6.529 -0.4117  0.3972  0.3603
  989MOL0     C33410   8.772   8.368   6.678 -0.1045 -0.1175 -1.2483
  989MOL0     O33411   8.777   8.239   6.717  0.0720  0.4334 -0.1791
  989MOL0     C33412   8.748   8.188   6.835  0.0599 -0.4240 -0.2115
  989MOL0     C33413   8.720   8.271   6.953 -0.2190  1.9154  0.5772
  989MOL0     C33414   8.668   8.214   7.073  0.5183 -0.8382  0.5572
  989MOL0     C33415   8.654   8.067   7.080  0.6009 -0.8177  0.0941
  989MOL0     O33416   8.584   8.001   7.179  0.3927 -0.0951  0.1954
  989MOL0     C33417   8.536   8.062   7.300 -0.7450 -0.3965  0.5933
  989MOL0     C33418   8.460   7.961   7.384 -0.9974  0.4182 -0.0385
  989MOL0     C33419   8.358   7.877   7.302  0.6545  0.5186  0.2662
  989MOL0     C33420   8.292   7.778   7.398 -0.1589 -1.0931  0.0790
  989MOL0     C33421   8.178   7.708   7.320  0.2474  0.4055 -1.0934
  989MOL0     C33422   8.222   7.617   7.206  0.0739  0.1469 -0.2246
  989MOL0     C33423   8.257   7.474   7.246  0.0948  0.3596  0.4278
  989MOL0     C33424   8.347   7.407   7.147 -0.6578  0.1563 -0.5752
  989MOL0    Cl33425   8.355   7.236   7.192 -0.0434 -0.3086  0.2327
  989MOL0     C33426   8.695   7.992   6.971 -1.0968 -0.8998  0.4157
  989MOL0     C33427   8.744   8.050   6.845 -0.5877 -0.6596 -0.8744
  989MOL0     O33428   8.771   8.467   6.761 -0.0155  0.3706  0.0040
  989MOL0     C33429   8.833   8.326   6.433 -1.2067 -0.2762 -0.6912
  989MOL0     C33430   8.852   8.362   6.299 -0.6774  0.2228 -0.6120
  989MOL0     N33431   8.585   8.697   5.537 -0.4497 -0.0273 -0.1646
  989MOL0     N33432   8.455   8.705   5.529 -0.4290  0.9489 -0.1489
  989MOL0     C33433   7.871   7.571   5.394  0.1247  0.2371 -0.1132
  989MOL0     C33434   7.810   7.454   5.434 -0.4986  0.2326 -0.4459
  989MOL0     C33435   7.735   7.021   5.410 -0.1581 -1.2068  0.7993
  989MOL0     C33436   7.680   6.938   5.315  0.0354 -0.7092  0.9460
  989MOL0     C33437   7.620   6.820   5.346 -0.7497  0.3619 -0.1667
  989MOL0     C33438   7.619   6.763   5.473 -0.4721  0.1571 -0.2720
  989MOL0     O33439   7.570   6.637   5.493  0.6091  0.3791 -0.8219
  989MOL0     C33440   7.562   6.581   5.626 -0.2975  0.0731  0.9295
  989MOL0     C33441   7.488   6.442   5.630 -0.3013 -0.3343 -0.9631
  989MOL0     C33442   7.337   6.446   5.621 -0.4384  0.4225  0.8184
  989MOL0     C33443   7.285   6.521   5.753 -0.0240 -0.0631 -0.4843
  989MOL0     C33444   7.142   6.540   5.729  0.6952  0.2875 -0.0321
  989MOL0     C33445   7.028   6.566   5.702  0.5411 -0.2720  0.0814
  989MOL0     C33446   7.686   6.837   5.571 -0.6362 -1.0538 -0.0423
  989MOL0     C33447   7.743   6.959   5.537 -0.7114 -0.4998 -0.1720
  989MOL0     H33448   8.095   7.288   5.541 -2.2132 -1.8990 -1.8551
  989MOL0     H33449   8.176   7.531   5.517  0.4702  1.0877 -2.5551
  989MOL0     H33450   8.204   7.746   5.527  1.7380 -0.0705 -0.4525
  989MOL0     H33451   8.240   7.746   5.352  1.4396  2.8527 -0.2681
  989MOL0     H33452   8.103   7.946   5.325  0.5095 -0.2994 -1.0924
  989MOL0     H33453   8.095   7.981   5.493  2.5907  3.8201 -0.7262
  989MOL0     H33454   8.336   8.009   5.526  1.0614 -3.0778  0.0190
  989MOL0     H33455   8.352   7.933   5.359  0.7072  1.0997  0.4980
  989MOL0     H33456   8.393   8.158   5.350  0.9948 -3.5852 -0.5113
  989MOL0     H33457   8.277   8.121   5.248  1.6103 -0.0549 -0.9780
  989MOL0     H33458   8.154   8.310   5.377  0.1746 -2.0565 -2.9314
  989MOL0     H33459   8.113   8.195   5.487  1.5798  1.4304  5.5638
  989MOL0     H33460   8.280   8.220   5.647  4.0627 -2.1075 -0.7785
  989MOL0     H33461   8.393   8.321   5.552 -0.5445  3.0533 -0.5042
  989MOL0     H33462   8.114   8.383   5.594  1.6720 -2.1125 -1.6233
  989MOL0     H33463   8.232   8.440   5.716  0.9590 -0.2871 -0.6025
  989MOL0     H33464   8.194   8.617   5.528  2.3276  1.6221  0.9336
  989MOL0     H33465   8.288   8.505   5.425  1.5903  4.3001 -0.8816
  989MOL0     H33466   8.494   8.432   5.708  1.2337 -0.4073 -1.6574
  989MOL0     H33467   8.797   8.498   5.633 -0.4036  0.1406 -0.3144
  989MOL0     H33468   8.818   8.662   5.668  2.2769 -2.3614 -4.2242
  989MOL0     H33469   8.671   8.469   5.843 -0.5512  0.4155 -2.4402
  989MOL0     H33470   8.727   8.635   5.888 -0.7910 -0.0422 -0.6564
  989MOL0     H33471   8.954   8.571   5.882  0.3188 -0.5130 -0.8936
  989MOL0     H33472   8.917   8.407   5.821  0.2220  1.8112 -2.9633
  989MOL0     H33473   8.976   8.412   6.074 -0.0393 -0.0232  1.3289
  989MOL0     H33474   8.832   8.327   6.022 -1.4562  1.0956 -0.2356
  989MOL0     H33475   8.658   8.639   6.293 -1.9608 -1.9894  1.1025
  989MOL0     H33476   8.574   8.683   6.501 -0.1496  0.4239  0.4490
  989MOL0     H33477   8.544   8.556   6.629 -0.2493 -0.3608 -0.0206
  989MOL0     H33478   8.673   8.672   6.643 -1.1967 -1.6519  0.8543
  989MOL0     H33479   8.716   8.380   6.957 -0.8984  1.8635  2.8765
  989MOL0     H33480   8.611   8.274   7.143 -0.4717 -0.3613 -0.6094
  989MOL0     H33481   8.619   8.099   7.362  2.6945 -0.3489 -3.5234
  989MOL0     H33482   8.471   8.149   7.289  0.7161  1.0635  2.7037
  989MOL0     H33483   8.527   7.889   7.431 -1.8564 -0.2548  0.1761
  989MOL0     H33484   8.407   8.010   7.467  1.1651 -0.3968  1.9399
  989MOL0     H33485   8.412   7.810   7.234  0.0035 -0.4918  0.7133
  989MOL0     H33486   8.285   7.947   7.261  0.9483  0.0655 -1.0791
  989MOL0     H33487   8.365   7.704   7.432  0.1817 -1.7367 -1.8938
  989MOL0     H33488   8.232   7.844   7.462  0.3332 -0.4622 -0.0954
  989MOL0     H33489   8.123   7.790   7.273  1.5434  0.2761 -2.9632
  989MOL0     H33490   8.116   7.653   7.392  0.3058  0.0926 -1.2834
  989MOL0     H33491   8.139   7.594   7.139  0.2520 -2.5915  0.4026
  989MOL0     H33492   8.303   7.652   7.140 -0.2235 -1.4750 -1.5065
  989MOL0     H33493   8.168   7.412   7.256  1.2720 -1.1696  2.2913
  989MOL0     H33494   8.302   7.464   7.346  1.7633 -1.8147 -0.4567
  989MOL0     H33495   8.444   7.458   7.139 -1.3779  1.7744  0.4617
  989MOL0     H33496   8.286   7.409   7.056 -1.2651  1.4184 -0.1742
  989MOL0     H33497   8.674   7.885   6.972  0.9681 -1.3470  1.7153
  989MOL0     H33498   8.777   7.990   6.761  3.2086 -0.8396  0.5803
  989MOL0     H33499   8.865   8.223   6.444 -1.6877 -0.5484 -1.7194
  989MOL0     H33500   8.906   8.288   6.240 -2.2225 -0.4477 -1.2371
  989MOL0     H33501   7.802   7.647   5.358  1.5809  3.0190  2.5237
  989MOL0     H33502   7.704   7.448   5.412 -0.5512 -0.8776  0.0449
  989MOL0     H33503   7.676   6.986   5.217 -3.7200  0.1255  1.3625
  989MOL0     H33504   7.586   6.756   5.265  0.3764 -1.4717  0.7489
  989MOL0     H33505   7.657   6.559   5.675 -1.2648  1.2225  3.4751
  989MOL0     H33506   7.522   6.651   5.700 -3.4338  0.1860 -0.6836
  989MOL0     H33507   7.518   6.401   5.727 -0.6658 -2.4744 -1.6969
  989MOL0     H33508   7.526   6.374   5.552  1.0030  1.3393 -1.8729
  989MOL0     H33509   7.300   6.344   5.613 -0.0540  0.4056 -1.6691
  989MOL0     H33510   7.311   6.503   5.531 -2.2036 -0.7086  0.5732
  989MOL0     H33511   7.316   6.625   5.769 -0.7385  0.1592 -0.5136
  989MOL0     H33512   7.300   6.467   5.847 -0.3780  2.0831  0.8828
  989MOL0     H33513   6.929   6.593   5.671  0.4326  0.0385  0.6908
  989MOL0     H33514   7.700   6.797   5.671 -1.1677  0.8769  0.8378
  989MOL0     H33515   7.788   7.010   5.621  2.0043 -0.2628 -1.6365
  990MOL0     O33516   3.025   3.757   0.078 -0.0010 -0.3635  0.6550
  990MOL0     C33517   3.047   3.750  -0.049  0.0396 -0.6791 -1.2374
  990MOL0     O33518   2.983   3.824  -0.141 -0.4607  0.1718 -0.2600
  990MOL0     C33519   2.884   3.913  -0.113  0.3892 -0.4239 -0.8328
  990MOL0     C33520   2.764   3.863  -0.061 -0.1779  1.2746  0.5342
  990MOL0     C33521   2.661   3.950  -0.029  0.9225 -0.5319  0.4601
  990MOL0     C33522   2.674   4.090  -0.035  0.2893  0.0353  0.3407
  990MOL0     O33523   2.580   4.192  -0.002  0.0670  0.3200  0.3433
  990MOL0     C33524   2.459   4.167   0.066 -0.1054 -0.5622  0.1338
  990MOL0     C33525   2.348   4.120  -0.025  0.7398 -0.7796  0.7737
  990MOL0     C33526   2.307   4.213  -0.133 -0.6229  0.8460 -0.3929
  990MOL0     C33527   2.288   4.120  -0.265 -0.8203  0.2442 -0.0596
  990MOL0     C33528   2.250   4.215  -0.376  0.2564 -0.2680  0.5110
  990MOL0     C33529   2.274   4.147  -0.517 -0.7098 -0.2392  0.1473
  990MOL0     C33530   2.156   4.065  -0.552  0.3579  0.9621  1.5256
  990MOL0     C33531   2.182   3.980  -0.683  0.7452  0.8907 -0.3270
  990MOL0     N33532   2.057   3.914  -0.721 -0.4438  0.6791  0.1696
  990MOL0     C33533   1.978   3.948  -0.825  0.8612 -0.2745 -0.2747
  990MOL0     C33534   1.896   3.847  -0.840  1.1471  0.5582  0.2841
  990MOL0     C33535   1.803   3.827  -0.952 -0.1191 -1.0178  0.2855
  990MOL0     C33536   1.654   3.820  -0.915 -0.2555  0.8480 -0.0518
  990MOL0     C33537   1.617   3.699  -0.819 -1.5779 -1.1327  0.3313
  990MOL0     C33538   1.469   3.706  -0.785 -1.3263  0.0842  0.1146
  990MOL0     O33539   1.391   3.639  -0.889  0.4268 -0.4700  0.0108
  990MOL0     C33540   1.250   3.651  -0.882 -0.5298 -0.3338 -0.3340
  990MOL0     C33541   1.187   3.656  -0.756 -0.4120  0.2462  0.2992
  990MOL0     C33542   1.052   3.652  -0.742 -0.6776  0.8732  0.1530
  990MOL0     C33543   0.999   3.654  -0.597  0.2678 -0.3383  0.4559
  990MOL0     C33544   0.971   3.652  -0.861  0.8105 -0.3115 -0.1558
  990MOL0     C33545   0.820   3.644  -0.855 -0.3094 -0.8395  0.1406
  990MOL0     O33546   0.758   3.702  -0.961  0.0389 -0.1449 -0.6098
  990MOL0     C33547   0.625   3.717  -0.949 -0.3086 -1.0306 -0.6237
  990MOL0     C33548   0.561   3.838  -0.917  0.2589 -0.7599  0.4606
  990MOL0     C33549   0.420   3.841  -0.919 -0.5389  0.3911 -0.4406
  990MOL0     C33550   0.348   3.724  -0.933  0.1080  0.4738  0.8469
  990MOL0     O33551   0.210   3.726  -0.927 -0.1713 -0.0690  0.1132
  990MOL0     C33552   0.139   3.622  -0.857  0.1531 -0.7332  1.1752
  990MOL0     C33553   0.004   3.615  -0.919  0.3386 -0.8528 -0.8304
  990MOL0     C33554   0.003   3.547  -1.052 -0.3287  0.1533  0.5134
  990MOL0     C33555   0.080   3.597  -1.178  0.6189  0.5161  0.1973
  990MOL0     C33556  -0.017   3.610  -1.305  0.1729 -0.0488 -0.4822
  990MOL0     C33557   0.066   3.630  -1.435 -0.2241 -0.3729  0.4118
  990MOL0     C33558   0.166   3.743  -1.439  0.0544 -0.3620 -0.3743
  990MOL0     C33559   0.107   3.878  -1.437  0.1138  0.2517 -0.1005
  990MOL0    Cl33560   0.039   3.939  -1.283  0.7310  0.3973  0.4383
  990MOL0     C33561   0.416   3.601  -0.938 -0.6048  0.6578  0.7473
  990MOL0     C33562   0.552   3.601  -0.955 -0.3702  0.0053 -1.0397
  990MOL0     O33563   0.766   3.594  -0.753  0.4144  0.1543 -1.0313
  990MOL0     C33564   1.036   3.648  -0.994  0.4010  1.6808 -0.5791
  990MOL0     C33565   1.179   3.640  -0.996 -0.3103 -0.0055 -0.3155
  990MOL0     N33566   1.929   3.746  -0.751 -0.1261 -0.3083 -0.1073
  990MOL0     N33567   2.030   3.779  -0.686  0.0633 -0.1202 -0.6765
  990MOL0     C33568   2.801   4.146  -0.084 -0.1663  0.5606 -0.4509
  990MOL0     C33569   2.894   4.059  -0.130 -0.5139  0.0077 -0.5224
  990MOL0     C33570   3.149   3.659  -0.101 -0.5503  0.3089  0.5865
  990MOL0     C33571   3.232   3.590  -0.003 -0.0548  0.2955 -1.1051
  990MOL0     C33572   3.330   3.506  -0.036 -0.0322 -0.0866 -0.7579
  990MOL0     C33573   3.347   3.469  -0.171 -0.0923  0.4488  0.6709
  990MOL0     O33574   3.452   3.394  -0.214  0.0675  0.1098 -0.1807
  990MOL0     C33575   3.578   3.446  -0.166  1.0558  0.4149  0.6253
  990MOL0     C33576   3.660   3.416  -0.290  0.6519 -0.2983 -1.2197
  990MOL0     C33577   3.798   3.480  -0.291 -0.6885 -0.5511  0.2304
  990MOL0     C33578   3.786   3.611  -0.374 -0.6220 -0.3139 -0.4731
  990MOL0     C33579   3.922   3.653  -0.397 -1.0385 -0.0786 -0.3553
  990MOL0     C33580   4.034   3.691  -0.417 -0.2714  0.4479 -0.8837
  990MOL0     C33581   3.273   3.531  -0.268 -0.5129 -0.5534 -0.7332
  990MOL0     C33582   3.173   3.626  -0.239  0.0288  0.8974  0.8850
  990MOL0     H33583   2.754   3.755  -0.050  0.3929  1.2186  0.5550
  990MOL0     H33584   2.569   3.913   0.014  1.3954  0.4623  2.4667
  990MOL0     H33585   2.475   4.087   0.139  0.9279 -0.9009 -0.4424
  990MOL0     H33586   2.416   4.254   0.118 -0.1649  0.2434 -1.2326
  990MOL0     H33587   2.373   4.024  -0.072 -2.3127 -2.0206  1.4787
  990MOL0     H33588   2.268   4.098   0.046 -0.9279  1.4376 -0.2940
  990MOL0     H33589   2.217   4.266  -0.102 -0.4430  1.4293 -0.8488
  990MOL0     H33590   2.391   4.281  -0.151 -1.9736  3.1230  1.3528
  990MOL0     H33591   2.386   4.075  -0.279 -0.8873 -0.0893  0.4984
  990MOL0     H33592   2.215   4.040  -0.249  0.7861 -1.1645  0.5490
  990MOL0     H33593   2.146   4.247  -0.373  0.1996 -0.5374  2.5067
  990MOL0     H33594   2.317   4.302  -0.368  0.9788 -0.9735  3.0998
  990MOL0     H33595   2.288   4.231  -0.586  0.2132  0.0381  0.6584
  990MOL0     H33596   2.369   4.094  -0.515 -1.3944 -1.5583  3.7433
  990MOL0     H33597   2.127   3.994  -0.473  0.5710 -2.5405 -1.2975
  990MOL0     H33598   2.066   4.126  -0.564 -0.5857 -0.5909  0.4172
  990MOL0     H33599   2.250   3.896  -0.668  0.7936  1.0640  0.4603
  990MOL0     H33600   2.219   4.048  -0.760  0.0736  0.4719 -1.0420
  990MOL0     H33601   2.001   4.038  -0.882  1.0043 -1.5155 -2.2683
  990MOL0     H33602   1.828   3.914  -1.012  1.7025 -0.1987  2.0994
  990MOL0     H33603   1.844   3.736  -0.997 -1.2252 -1.2559 -0.2771
  990MOL0     H33604   1.600   3.794  -1.007 -1.9650 -0.5801  1.3042
  990MOL0     H33605   1.625   3.921  -0.884 -0.4652  0.2116  1.9509
  990MOL0     H33606   1.678   3.704  -0.728  1.1183  2.3428 -1.4276
  990MOL0     H33607   1.637   3.609  -0.876 -1.3664 -2.0756  1.8442
  990MOL0     H33608   1.447   3.812  -0.768  0.0521  0.4316 -0.1071
  990MOL0     H33609   1.460   3.654  -0.690 -1.1343 -0.9521 -0.4213
  990MOL0     H33610   1.246   3.650  -0.664  0.5174 -1.8463 -0.3664
  990MOL0     H33611   0.921   3.731  -0.588  2.2880  1.6577  1.9095
  990MOL0     H33612   0.952   3.557  -0.575 -0.6180  0.6195  3.1097
  990MOL0     H33613   1.078   3.690  -0.531  0.9610  0.1853 -0.6290
  990MOL0     H33614   0.614   3.932  -0.912 -3.3104  1.5210 -0.9850
  990MOL0     H33615   0.368   3.933  -0.894 -0.2924 -0.2362  2.8162
  990MOL0     H33616   0.184   3.523  -0.868 -0.4546 -1.4279  4.1447
  990MOL0     H33617   0.141   3.641  -0.749 -0.8883  1.7686  0.8280
  990MOL0     H33618  -0.070   3.555  -0.865  0.3261 -0.6356 -0.6051
  990MOL0     H33619  -0.037   3.716  -0.912  0.2342 -1.0103  4.1711
  990MOL0     H33620  -0.102   3.552  -1.082 -0.1840  0.5300  0.0548
  990MOL0     H33621   0.022   3.442  -1.030 -0.3701  1.0258  5.8710
  990MOL0     H33622   0.139   3.688  -1.166 -1.7809  2.7397 -3.1989
  990MOL0     H33623   0.145   3.511  -1.198  2.4264  1.3337  2.2690
  990MOL0     H33624  -0.087   3.694  -1.302  2.5475  2.1765 -2.2788
  990MOL0     H33625  -0.083   3.523  -1.314 -1.4564  1.0638  0.2651
  990MOL0     H33626   0.130   3.541  -1.444  0.8808  0.5022 -0.7866
  990MOL0     H33627  -0.002   3.636  -1.520  0.9157  1.7282 -0.4333
  990MOL0     H33628   0.237   3.731  -1.522 -2.2887 -3.5575 -2.1281
  990MOL0     H33629   0.226   3.740  -1.348  1.0948 -1.4387 -1.0471
  990MOL0     H33630   0.025   3.889  -1.509  0.5265 -0.3427 -0.6771
  990MOL0     H33631   0.189   3.943  -1.471  1.0846 -1.4686 -1.1886
  990MOL0     H33632   0.371   3.502  -0.940  0.7385 -0.1870  4.1696
  990MOL0     H33633   0.605   3.506  -0.960 -0.2814 -0.0003 -0.1390
  990MOL0     H33634   0.985   3.641  -1.089  0.0474  0.6385 -0.3261
  990MOL0     H33635   1.233   3.625  -1.089 -1.6696  0.0061 -1.1366
  990MOL0     H33636   2.816   4.253  -0.091  1.7222  0.5798  2.3365
  990MOL0     H33637   2.990   4.111  -0.135 -1.7863  2.4700 -1.2711
  990MOL0     H33638   3.203   3.596   0.101  0.1464  1.9677 -1.1061
  990MOL0     H33639   3.396   3.466   0.041  1.8487  1.8797 -1.2696
  990MOL0     H33640   3.590   3.554  -0.167 -3.0302  1.0474  1.6727
  990MOL0     H33641   3.618   3.386  -0.084  2.9173 -3.2499 -2.6134
  990MOL0     H33642   3.611   3.457  -0.379  1.4871  0.7517 -1.2218
  990MOL0     H33643   3.675   3.308  -0.304  1.8587 -0.4711  0.9721
  990MOL0     H33644   3.874   3.413  -0.332  1.1773 -0.5952  3.4272
  990MOL0     H33645   3.832   3.499  -0.189 -0.7840  0.6142  0.0558
  990MOL0     H33646   3.741   3.691  -0.316  0.3987 -1.8223  2.6077
  990MOL0     H33647   3.738   3.602  -0.472 -1.6302  1.1703 -0.1380
  990MOL0     H33648   4.136   3.716  -0.436 -0.4156  2.9038  1.1887
  990MOL0     H33649   3.307   3.526  -0.371  0.2340 -0.6754 -0.4878
  990MOL0     H33650   3.138   3.690  -0.319 -0.5968  1.1164  1.3309
  991MOL0     O33651  11.312   9.814   1.706  1.3332  0.6197  0.8143
  991MOL0     C33652  11.224   9.756   1.640  0.4586 -0.4435  0.6858
  991MOL0     O33653  11.149   9.645   1.668  0.4405  0.4822 -0.1785
  991MOL0     C33654  11.193   9.575   1.776  0.4962  0.3796  0.7379
  991MOL0     C33655  11.330   9.541   1.801  1.0263  0.4816 -0.6236
  991MOL0     C33656  11.369   9.488   1.923 -0.1719  0.4714  0.0048
  991MOL0     C33657  11.277   9.453   2.025  0.6804  0.2262  0.5627
  991MOL0     O33658  11.324   9.393   2.137  0.6392  0.0396 -0.0535
  991MOL0     C33659  11.249   9.375   2.254  0.3286 -0.4590  0.2858
  991MOL0     C33660  11.237   9.510   2.329  0.4687  0.1121 -1.0011
  991MOL0     C33661  11.132   9.514   2.438 -0.0591 -0.4481  0.2239
  991MOL0     C33662  11.131   9.645   2.510  0.3041 -0.4589  0.4102
  991MOL0     C33663  11.046   9.631   2.641 -0.1307  0.1429  0.1349
  991MOL0     C33664  11.018   9.765   2.705  0.1753 -0.9578  0.1046
  991MOL0     C33665  10.914   9.740   2.807 -0.6431  0.3447  0.3783
  991MOL0     C33666  10.847   9.876   2.835 -0.6912  0.3152 -0.1886
  991MOL0     N33667  10.916   9.954   2.938 -0.7083 -0.6660 -0.1261
  991MOL0     C33668  10.912   9.930   3.076  0.3454  0.7436 -0.1896
  991MOL0     C33669  10.999  10.014   3.124  0.6792 -1.4941 -0.6153
  991MOL0     C33670  11.022  10.044   3.262 -1.0602  0.1766 -0.5661
  991MOL0     C33671  10.908  10.110   3.333  0.3289 -0.2997 -0.2280
  991MOL0     C33672  10.942  10.268   3.339 -0.1555 -0.2781  0.0379
  991MOL0     C33673  10.858  10.344   3.232  0.0395  0.2552  1.1136
  991MOL0     O33674  10.718  10.324   3.245  0.4749 -0.5427  0.2000
  991MOL0     C33675  10.642  10.322   3.133  0.4813 -0.9723  1.1786
  991MOL0     C33676  10.683  10.399   3.025  0.7755 -0.2605  0.0813
  991MOL0     C33677  10.637  10.382   2.896 -0.4088 -0.4229 -0.5616
  991MOL0     C33678  10.699  10.466   2.783  0.6050 -0.0600  0.1612
  991MOL0     C33679  10.531  10.295   2.876 -0.0175  0.2356 -0.0101
  991MOL0     C33680  10.464  10.262   2.746 -0.2985 -0.3553  0.2729
  991MOL0     O33681  10.362  10.168   2.755 -0.0677  0.6599 -1.3302
  991MOL0     C33682  10.311  10.114   2.639  0.0211  0.5218  0.2870
  991MOL0     C33683  10.401  10.041   2.566  0.0795  1.1750 -0.6657
  991MOL0     C33684  10.350  10.002   2.440 -0.2717 -0.7820 -0.1445
  991MOL0     C33685  10.225  10.030   2.393 -0.5894  0.4547 -0.5139
  991MOL0     O33686  10.172   9.983   2.268 -0.8442  0.2647 -0.4378
  991MOL0     C33687  10.253   9.898   2.188  0.8334  0.9145 -0.7964
  991MOL0     C33688  10.210   9.899   2.050  0.3354  0.3455  0.2997
  991MOL0     C33689  10.079   9.829   2.051  0.9372  0.2987 -0.7687
  991MOL0     C33690  10.022   9.849   1.918  0.2056 -0.5246  0.1836
  991MOL0     C33691   9.935   9.972   1.911  0.1198  0.0668 -0.1041
  991MOL0     C33692   9.854   9.976   1.769 -0.1764  1.0890 -0.8017
  991MOL0     C33693   9.765  10.096   1.766  0.2248 -0.4320 -0.3273
  991MOL0     C33694   9.651  10.059   1.660  0.0803 -0.3676  0.6397
  991MOL0    Cl33695   9.533  10.192   1.654  0.2646  0.0594 -0.4417
  991MOL0     C33696  10.155  10.118   2.464 -0.0762 -0.2868  0.0623
  991MOL0     C33697  10.191  10.166   2.589  0.7213  0.2527  0.0836
  991MOL0     O33698  10.494  10.334   2.649 -0.3585 -0.2663 -0.4177
  991MOL0     C33699  10.483  10.225   2.991 -0.5509 -0.1344  0.0211
  991MOL0     C33700  10.540  10.236   3.118  0.6726  0.0539  0.3891
  991MOL0     N33701  11.038  10.093   3.020 -0.3947 -0.2536  0.5137
  991MOL0     N33702  10.992  10.060   2.903  0.0084  0.1445  0.3055
  991MOL0     C33703  11.143   9.479   1.996  0.4397  0.0103  0.1476
  991MOL0     C33704  11.106   9.539   1.876  0.3196 -0.0290 -0.5063
  991MOL0     C33705  11.169   9.815   1.515  1.2650  0.0756 -0.4253
  991MOL0     C33706  11.194   9.945   1.480 -0.3239 -0.9749  0.1774
  991MOL0     C33707  11.133  10.008   1.366 -0.6532 -0.3583 -0.0170
  991MOL0     C33708  11.044   9.936   1.289 -0.0325  0.3998 -0.5719
  991MOL0     O33709  11.009   9.996   1.170  0.4841 -0.7659 -0.4811
  991MOL0     C33710  10.959   9.930   1.057 -0.1663  1.0153 -0.2247
  991MOL0     C33711  10.960  10.034   0.944  0.6567 -0.5552 -0.2811
  991MOL0     C33712  10.909   9.971   0.815  1.3449 -0.2467  0.6749
  991MOL0     C33713  11.012   9.969   0.706  0.3087  0.2054 -0.2204
  991MOL0     C33714  10.948   9.971   0.577 -0.8845 -0.3797 -0.3728
  991MOL0     C33715  10.893   9.999   0.463  1.1034  0.6711 -0.1863
  991MOL0     C33716  11.024   9.802   1.315 -0.0698 -0.1302 -0.4911
  991MOL0     C33717  11.070   9.742   1.430 -0.9564 -0.0346 -0.2191
  991MOL0     H33718  11.404   9.566   1.725  1.1309  0.3336 -0.5696
  991MOL0     H33719  11.473   9.466   1.943 -0.5043 -0.4851  0.7246
  991MOL0     H33720  11.155   9.329   2.224  1.6785 -1.2494 -3.1995
  991MOL0     H33721  11.303   9.307   2.321 -0.3227 -0.2498  1.0376
  991MOL0     H33722  11.339   9.525   2.366 -0.0025 -2.6120  1.8100
  991MOL0     H33723  11.214   9.599   2.269 -0.3689 -1.0155 -2.4304
  991MOL0     H33724  11.040   9.488   2.384  1.7055 -1.8973 -2.2918
  991MOL0     H33725  11.161   9.436   2.508  1.0907 -1.7419 -1.5925
  991MOL0     H33726  11.232   9.673   2.542 -0.1064  0.6834  0.7554
  991MOL0     H33727  11.091   9.724   2.446  1.3776 -0.8878 -0.8407
  991MOL0     H33728  10.949   9.590   2.613 -1.4028  2.9169  0.1187
  991MOL0     H33729  11.094   9.570   2.718  1.1626  0.8627 -0.0638
  991MOL0     H33730  11.107   9.809   2.750  0.0800 -0.4837 -0.1617
  991MOL0     H33731  10.981   9.827   2.623 -0.9205 -1.3058  0.3170
  991MOL0     H33732  10.840   9.669   2.771  0.6655 -1.6367  1.4415
  991MOL0     H33733  10.975   9.699   2.888  0.3688  0.0161 -0.5271
  991MOL0     H33734  10.744   9.865   2.872 -1.0102  0.9837 -0.8570
  991MOL0     H33735  10.839   9.927   2.738 -3.0593  0.1574 -0.1325
  991MOL0     H33736  10.852   9.861   3.134  0.0740  0.2571 -1.0287
  991MOL0     H33737  11.038   9.945   3.308  1.7317  0.8056  0.0579
  991MOL0     H33738  11.122  10.089   3.272 -1.1766  0.4065 -0.4281
  991MOL0     H33739  10.887  10.076   3.435  0.5459 -0.1096 -0.1158
  991MOL0     H33740  10.820  10.085   3.274  2.4188  0.5477 -4.0343
  991MOL0     H33741  11.050  10.284   3.330 -0.1500  1.0955  1.8937
  991MOL0     H33742  10.904  10.303   3.435 -0.7903 -0.2388 -0.2229
  991MOL0     H33743  10.900  10.324   3.133 -3.2163  1.2028 -0.6085
  991MOL0     H33744  10.863  10.447   3.266 -1.4834  1.6001 -2.3101
  991MOL0     H33745  10.773  10.460   3.027  1.1865 -0.7934 -1.1825
  991MOL0     H33746  10.728  10.413   2.692  1.2575  0.4029  0.0848
  991MOL0     H33747  10.630  10.544   2.750 -1.7830 -1.3031  1.9134
  991MOL0     H33748  10.788  10.521   2.815  1.1482  0.5446 -2.2154
  991MOL0     H33749  10.500  10.018   2.603 -0.3900  0.4728  0.2343
  991MOL0     H33750  10.418   9.940   2.384  1.6845  1.9094 -0.9219
  991MOL0     H33751  10.357   9.927   2.202  1.0645 -0.5280  0.7771
  991MOL0     H33752  10.259   9.798   2.232  1.9826  0.9369 -0.8921
  991MOL0     H33753  10.190   9.999   2.010 -1.3523 -0.9576 -2.4195
  991MOL0     H33754  10.276   9.850   1.977  1.2854  1.8431  0.1177
  991MOL0     H33755  10.016   9.877   2.127  1.9382  1.5468 -0.6735
  991MOL0     H33756  10.087   9.723   2.074  0.9638 -0.0335 -2.2165
  991MOL0     H33757  10.100   9.843   1.842  1.6760  1.6022  1.4127
  991MOL0     H33758   9.950   9.766   1.911 -2.7915  1.8561  0.7106
  991MOL0     H33759   9.991  10.066   1.920 -0.8335  0.6670 -0.3449
  991MOL0     H33760   9.862   9.976   1.992  0.9800 -0.1048  0.7090
  991MOL0     H33761   9.926   9.981   1.687  0.6787  3.1065 -0.0196
  991MOL0     H33762   9.789   9.888   1.769 -1.5765  2.0597  0.4975
  991MOL0     H33763   9.808  10.196   1.756 -0.7421  0.3454  2.5078
  991MOL0     H33764   9.711  10.090   1.860  1.3382  0.5434  0.3992
  991MOL0     H33765   9.592   9.972   1.690 -1.4265  1.4648  3.3843
  991MOL0     H33766   9.702  10.032   1.566  0.1581 -0.1411  0.6161
  991MOL0     H33767  10.066  10.160   2.418 -0.5290  0.9056  1.9039
  991MOL0     H33768  10.126  10.239   2.635  0.1077  0.5698 -1.2514
  991MOL0     H33769  10.406  10.149   2.974 -1.0372  0.4841 -0.6287
  991MOL0     H33770  10.495  10.182   3.201 -1.1064  3.4926  1.8565
  991MOL0     H33771  11.060   9.455   2.061 -0.2081  2.6465  0.4404
  991MOL0     H33772  10.998   9.545   1.861 -0.3949 -3.6112  2.0014
  991MOL0     H33773  11.270   9.999   1.536 -0.3258  2.5605 -2.8592
  991MOL0     H33774  11.151  10.113   1.344 -1.3561 -0.0660  0.7654
  991MOL0     H33775  11.030   9.848   1.045 -2.4466 -1.1840  0.3744
  991MOL0     H33776  10.858   9.888   1.067 -0.1731  1.2150  0.6021
  991MOL0     H33777  11.060  10.073   0.923 -0.7178  2.8526 -1.1954
  991MOL0     H33778  10.904  10.120   0.983  1.9330 -1.3321  3.7069
  991MOL0     H33779  10.826  10.029   0.774  0.8825 -1.3048  0.0717
  991MOL0     H33780  10.874   9.868   0.831 -0.2517  0.3945  1.6175
  991MOL0     H33781  11.081   9.885   0.718  4.2899  3.1210 -0.6503
  991MOL0     H33782  11.076  10.057   0.705 -0.7093  0.9643 -0.1468
  991MOL0     H33783  10.845  10.008   0.368 -3.1119 -3.7783  1.1286
  991MOL0     H33784  10.966   9.739   1.249 -3.1059 -0.8566  2.5741
  991MOL0     H33785  11.042   9.639   1.449  0.0560 -0.2280  0.3073
  992MOL0     O33786   5.207   8.898   6.843 -0.5886 -0.6760  0.1559
  992MOL0     C33787   5.258   8.821   6.767 -0.7978  0.7336 -0.8819
  992MOL0     O33788   5.384   8.769   6.782 -0.0239 -0.7132 -0.0851
  992MOL0     C33789   5.481   8.853   6.850  0.9086 -0.9093  0.5062
  992MOL0     C33790   5.508   8.988   6.805 -0.0879  0.2085  0.1314
  992MOL0     C33791   5.608   9.063   6.866  0.0270 -0.0201  0.9521
  992MOL0     C33792   5.678   9.013   6.968 -0.5722  1.2127 -0.8335
  992MOL0     O33793   5.771   9.095   7.026  0.4132 -0.6538 -0.1832
  992MOL0     C33794   5.870   9.027   7.104 -0.4940 -0.4864  0.2841
  992MOL0     C33795   5.964   9.130   7.161 -0.6833 -1.4125 -0.6974
  992MOL0     C33796   5.906   9.251   7.220 -0.4161 -0.4973 -0.6409
  992MOL0     C33797   6.021   9.353   7.249  1.2268 -0.9629  0.6122
  992MOL0     C33798   5.955   9.465   7.332 -0.6833 -0.4082  0.0101
  992MOL0     C33799   6.061   9.577   7.362  0.6949  0.5259  1.5185
  992MOL0     C33800   6.017   9.671   7.474  0.0660  0.6545 -0.2474
  992MOL0     C33801   6.061   9.616   7.613  0.0944  0.2382 -0.0081
  992MOL0     N33802   6.007   9.696   7.722  0.4938 -0.1598  0.9594
  992MOL0     C33803   6.055   9.782   7.814  0.4170  0.4955  0.1808
  992MOL0     C33804   5.949   9.823   7.888 -1.0918 -0.5935 -0.6003
  992MOL0     C33805   5.964   9.912   7.999  0.3054  0.0046  0.2238
  992MOL0     C33806   5.980   9.817   8.127  0.0584  0.4095 -0.4399
  992MOL0     C33807   5.856   9.738   8.162  0.1722  0.0236  0.1028
  992MOL0     C33808   5.843   9.708   8.310  0.4266 -0.8056 -0.1842
  992MOL0     O33809   5.946   9.636   8.371  0.2314  0.7378  0.4619
  992MOL0     C33810   5.958   9.496   8.340 -0.2688 -0.5284 -1.0431
  992MOL0     C33811   6.079   9.442   8.369 -0.3510  1.0658  0.5175
  992MOL0     C33812   6.093   9.295   8.349  0.2937  0.7119  0.0860
  992MOL0     C33813   6.222   9.223   8.386 -0.8973 -1.2582  0.4005
  992MOL0     C33814   5.979   9.214   8.314 -0.8705 -1.0852  0.1347
  992MOL0     C33815   5.984   9.075   8.281 -0.4128  0.3417 -0.7498
  992MOL0     O33816   5.892   8.989   8.338  0.3415 -0.1094  0.1277
  992MOL0     C33817   5.929   8.861   8.349  0.8098  0.1021 -0.2639
  992MOL0     C33818   5.980   8.809   8.474  0.0133 -0.5696  0.2299
  992MOL0     C33819   6.012   8.669   8.484  0.2531 -0.1195  1.2688
  992MOL0     C33820   5.995   8.593   8.366 -0.0292  0.2876 -0.1832
  992MOL0     O33821   6.011   8.453   8.384  0.3054  1.0135  0.1698
  992MOL0     C33822   6.102   8.379   8.298  0.0295 -0.2284 -0.3619
  992MOL0     C33823   6.085   8.227   8.295 -0.1664  0.3100  0.5755
  992MOL0     C33824   6.150   8.162   8.421  0.1228  0.6488 -0.0361
  992MOL0     C33825   6.056   8.165   8.543 -0.5545 -0.1385  0.0078
  992MOL0     C33826   6.126   8.086   8.656 -1.2654 -1.0115 -0.2859
  992MOL0     C33827   6.264   8.122   8.706  0.0506  0.1820  0.7118
  992MOL0     C33828   6.271   8.272   8.756  0.0348  0.8046  0.3462
  992MOL0     C33829   6.410   8.329   8.732  0.0170 -0.6124  0.2616
  992MOL0    Cl33830   6.541   8.219   8.778  0.1273 -0.1012 -0.1887
  992MOL0     C33831   5.944   8.637   8.250 -0.4443 -0.8030  0.1555
  992MOL0     C33832   5.918   8.776   8.242  0.1578  0.3414 -0.1879
  992MOL0     O33833   6.065   9.042   8.195  0.5121  0.2891  0.3545
  992MOL0     C33834   5.858   9.280   8.285 -0.0043  0.4544 -0.0277
  992MOL0     C33835   5.849   9.414   8.310 -0.0729 -0.3110  0.5695
  992MOL0     N33836   5.838   9.746   7.854  0.4136 -0.6879 -0.7785
  992MOL0     N33837   5.873   9.676   7.753 -0.2078 -0.3601 -0.3480
  992MOL0     C33838   5.637   8.888   7.018 -0.5631 -0.3179  0.0874
  992MOL0     C33839   5.545   8.805   6.959  0.1115 -0.7168  0.2068
  992MOL0     C33840   5.172   8.753   6.665  0.2951  1.0100  0.5045
  992MOL0     C33841   5.043   8.794   6.647 -0.6171  0.0246 -0.5965
  992MOL0     C33842   4.956   8.745   6.542 -1.0738 -0.8111 -0.4152
  992MOL0     C33843   5.008   8.652   6.449  0.4938  0.2169 -0.6341
  992MOL0     O33844   4.932   8.630   6.335  0.1951 -0.2261  1.1673
  992MOL0     C33845   4.940   8.507   6.269 -0.0217  1.2824 -0.2868
  992MOL0     C33846   4.920   8.543   6.121  0.6390 -0.4915  0.0875
  992MOL0     C33847   4.895   8.414   6.045 -0.0903  0.2426 -0.0023
  992MOL0     C33848   4.859   8.448   5.906 -0.1133  0.9735 -0.3017
  992MOL0     C33849   4.855   8.325   5.824 -0.5967 -0.2161  1.2295
  992MOL0     C33850   4.851   8.206   5.787 -0.7930  0.1840 -0.5581
  992MOL0     C33851   5.134   8.602   6.470  0.8289 -0.1793  0.1392
  992MOL0     C33852   5.220   8.657   6.571 -0.6121 -0.4730 -0.3232
  992MOL0     H33853   5.472   9.029   6.711  2.8251  0.3091 -1.0295
  992MOL0     H33854   5.632   9.164   6.832  1.3284 -0.1701  1.3817
  992MOL0     H33855   5.829   8.972   7.189 -0.7483 -2.5954 -1.1240
  992MOL0     H33856   5.919   8.958   7.035 -1.7645  1.4180 -2.7173
  992MOL0     H33857   6.027   9.082   7.236  0.5491  0.0782 -0.7149
  992MOL0     H33858   6.020   9.158   7.071 -2.0256 -1.1542 -1.4774
  992MOL0     H33859   5.834   9.300   7.154 -1.3958 -2.3727 -1.0302
  992MOL0     H33860   5.855   9.213   7.309  3.1789 -4.7434 -0.0299
  992MOL0     H33861   6.090   9.309   7.322 -1.0694 -1.6285  2.5196
  992MOL0     H33862   6.056   9.396   7.155 -0.4460 -0.5337  0.1497
  992MOL0     H33863   5.882   9.511   7.266 -1.2651 -1.4544 -0.0991
  992MOL0     H33864   5.904   9.432   7.423  0.6866 -1.7364  0.3452
  992MOL0     H33865   6.153   9.532   7.401 -0.3605  1.6708  5.9960
  992MOL0     H33866   6.065   9.639   7.273 -2.0352  0.9282  1.5754
  992MOL0     H33867   6.069   9.766   7.458  0.0165  0.6746 -0.2912
  992MOL0     H33868   5.913   9.705   7.485 -0.1458 -0.5001  2.0032
  992MOL0     H33869   6.170   9.621   7.621  0.3896 -2.6517 -1.0375
  992MOL0     H33870   6.009   9.521   7.606 -2.0829  1.4592 -1.6701
  992MOL0     H33871   6.152   9.831   7.807  1.0549 -0.6708  0.5051
  992MOL0     H33872   6.052   9.973   7.974 -1.0673  1.6209 -0.8824
  992MOL0     H33873   5.884   9.981   8.027  0.4772 -0.1325  1.1077
  992MOL0     H33874   6.005   9.859   8.225  1.6148  0.6237 -0.9024
  992MOL0     H33875   6.070   9.754   8.123  1.4472  2.1993  0.7423
  992MOL0     H33876   5.845   9.654   8.092 -1.1250  1.5729 -1.6545
  992MOL0     H33877   5.774   9.808   8.142  1.3707  0.9876 -1.8104
  992MOL0     H33878   5.749   9.672   8.352  0.2764  1.1602  1.3562
  992MOL0     H33879   5.843   9.801   8.368  1.9381  0.5668 -2.2562
  992MOL0     H33880   6.167   9.502   8.386  1.4627  0.2722 -4.3608
  992MOL0     H33881   6.316   9.273   8.364 -2.2286  1.5303  0.6441
  992MOL0     H33882   6.217   9.194   8.491 -1.8755 -2.6415  0.0012
  992MOL0     H33883   6.234   9.137   8.319 -1.7588 -0.5051 -0.7651
  992MOL0     H33884   5.987   8.884   8.553 -1.1953  2.7785 -2.5783
  992MOL0     H33885   6.037   8.632   8.583 -0.1073  0.0545  1.4268
  992MOL0     H33886   6.075   8.414   8.198  1.2765 -2.0619 -1.4108
  992MOL0     H33887   6.208   8.407   8.303 -0.3719  1.1307  1.1829
  992MOL0     H33888   5.984   8.188   8.277 -0.6611  1.6664  0.3224
  992MOL0     H33889   6.135   8.181   8.209  0.6745  3.0765 -0.5167
  992MOL0     H33890   6.241   8.222   8.432  0.7246 -0.5260  2.1225
  992MOL0     H33891   6.181   8.060   8.396 -1.2109  0.7601 -2.3829
  992MOL0     H33892   6.032   8.269   8.569  1.2992 -0.3237  2.9211
  992MOL0     H33893   5.960   8.121   8.514  0.0004 -3.5347  2.7070
  992MOL0     H33894   6.148   7.987   8.614 -1.0401 -1.2521  0.3869
  992MOL0     H33895   6.055   8.078   8.738  1.9348 -2.7050  2.5565
  992MOL0     H33896   6.280   8.048   8.784 -3.7020  0.2443  1.7107
  992MOL0     H33897   6.336   8.112   8.624 -2.0191  0.8460 -1.3027
  992MOL0     H33898   6.254   8.267   8.864  2.1869  1.3857  0.7646
  992MOL0     H33899   6.192   8.334   8.711  0.0823  2.5239  2.4378
  992MOL0     H33900   6.420   8.416   8.797  3.8604 -2.1814  2.1458
  992MOL0     H33901   6.418   8.361   8.628  0.9201  2.3307  1.1613
  992MOL0     H33902   5.941   8.566   8.168  1.2852 -0.6424 -0.0895
  992MOL0     H33903   5.866   8.812   8.154 -0.7660 -0.3925  0.0365
  992MOL0     H33904   5.773   9.221   8.253  1.3157 -2.7314  1.7824
  992MOL0     H33905   5.749   9.440   8.277 -0.1920 -3.2705 -1.8623
  992MOL0     H33906   5.659   8.853   7.119 -3.0758  1.3641  1.3379
  992MOL0     H33907   5.526   8.702   6.989 -2.1496 -0.6162 -0.6139
  992MOL0     H33908   5.003   8.871   6.713 -2.0660 -0.1752 -1.2235
  992MOL0     H33909   4.857   8.789   6.534 -1.6391 -2.2339 -1.8812
  992MOL0     H33910   5.030   8.446   6.281 -3.0031 -3.5823  0.1515
  992MOL0     H33911   4.856   8.445   6.300  1.8679 -1.1833  0.2663
  992MOL0     H33912   5.003   8.603   6.083  0.7605 -0.6500  0.1030
  992MOL0     H33913   4.836   8.612   6.104  1.1385  0.6585  1.9810
  992MOL0     H33914   4.827   8.348   6.100  0.1677 -0.7403 -0.8134
  992MOL0     H33915   4.984   8.350   6.044 -0.3539 -0.1249 -0.5404
  992MOL0     H33916   4.938   8.510   5.863  1.7106 -0.3012  1.0808
  992MOL0     H33917   4.761   8.495   5.893 -2.1396 -3.3759 -3.5765
  992MOL0     H33918   4.837   8.104   5.756 -1.3101  0.6041 -1.8090
  992MOL0     H33919   5.186   8.537   6.402  3.0181  2.0828 -0.5113
  992MOL0     H33920   5.323   8.626   6.585 -1.9572 -5.2056  1.0704
  993MOL0     O33921   8.184   2.963   2.985  0.0622 -0.3014  0.3612
  993MOL0     C33922   8.155   2.915   3.095  0.0520 -1.1398  0.0644
  993MOL0     O33923   8.246   2.886   3.194 -0.5209 -0.4053 -0.6415
  993MOL0     C33924   8.381   2.930   3.200  1.2095  1.7845 -0.1234
  993MOL0     C33925   8.425   3.038   3.126 -1.1643 -0.6163  0.1487
  993MOL0     C33926   8.564   3.078   3.142  0.2243 -0.1783 -0.4184
  993MOL0     C33927   8.666   2.998   3.206  1.0064 -0.2688  0.0188
  993MOL0     O33928   8.799   3.024   3.220  0.6537  0.4503 -0.2921
  993MOL0     C33929   8.848   3.078   3.099  0.8194  0.5421  1.0960
  993MOL0     C33930   8.993   3.056   3.102 -0.0288  0.1961 -0.0010
  993MOL0     C33931   9.032   2.909   3.051  0.0794  0.4487 -0.0647
  993MOL0     C33932   9.176   2.890   2.990  0.2167 -0.0702  0.7659
  993MOL0     C33933   9.184   2.758   2.925 -0.5016 -0.7682 -0.2005
  993MOL0     C33934   9.312   2.730   2.848 -0.4493  0.3246 -0.3571
  993MOL0     C33935   9.298   2.604   2.759  0.2752 -0.0376  0.9364
  993MOL0     C33936   9.406   2.579   2.655 -0.9759 -0.6669 -0.2725
  993MOL0     N33937   9.380   2.454   2.589 -0.5233  0.0736  0.6069
  993MOL0     C33938   9.360   2.342   2.657 -0.5875  0.1012  0.0460
  993MOL0     C33939   9.340   2.251   2.560  0.1009  0.4728 -0.8596
  993MOL0     C33940   9.328   2.101   2.573  1.1644 -0.5040  0.5348
  993MOL0     C33941   9.449   2.040   2.633 -0.3994  0.3314 -0.2293
  993MOL0     C33942   9.457   1.893   2.600 -0.2751 -0.6467  0.0836
  993MOL0     C33943   9.341   1.806   2.669  0.0210 -0.3017  0.1717
  993MOL0     O33944   9.351   1.666   2.642  0.7351 -0.1213  0.2357
  993MOL0     C33945   9.310   1.636   2.509 -0.1984 -0.5844 -0.8835
  993MOL0     C33946   9.309   1.493   2.491  0.2682 -0.3856 -0.0019
  993MOL0     C33947   9.237   1.429   2.386 -0.2460  0.6658 -0.4165
  993MOL0     C33948   9.243   1.278   2.379  0.4292 -0.0130 -1.0068
  993MOL0     C33949   9.174   1.517   2.292  0.5197 -0.1613 -0.4148
  993MOL0     C33950   9.112   1.455   2.183  0.4665 -0.1472  0.3565
  993MOL0     O33951   9.012   1.367   2.207 -0.5073  0.1305  0.5267
  993MOL0     C33952   8.958   1.311   2.092  0.2899  0.8951 -0.1968
  993MOL0     C33953   8.818   1.316   2.081  0.1075  0.3707 -0.9973
  993MOL0     C33954   8.743   1.240   1.988 -0.5042 -0.1342 -0.1255
  993MOL0     C33955   8.814   1.169   1.889  0.2792  1.5103  0.0708
  993MOL0     O33956   8.749   1.093   1.789  0.4089  0.2724  0.2634
  993MOL0     C33957   8.790   0.969   1.735  0.3424 -0.6856  1.0649
  993MOL0     C33958   8.723   0.941   1.594  0.2074  0.6735 -0.5812
  993MOL0     C33959   8.768   1.041   1.492  0.5478  0.3773 -0.0375
  993MOL0     C33960   8.706   1.005   1.352  0.3514  0.2929 -0.2877
  993MOL0     C33961   8.734   1.104   1.245  0.4006  0.1154  0.4150
  993MOL0     C33962   8.675   1.248   1.265  0.3191  0.2945  0.3356
  993MOL0     C33963   8.518   1.256   1.273  0.2544  0.7403 -1.6375
  993MOL0     C33964   8.454   1.170   1.169 -0.3503  0.1409 -1.1257
  993MOL0    Cl33965   8.499   1.211   1.006  0.3458  0.0340  0.0998
  993MOL0     C33966   8.948   1.160   1.901 -0.1583  0.1986 -0.8588
  993MOL0     C33967   9.019   1.230   1.995 -0.1027 -0.4012  0.0425
  993MOL0     O33968   9.147   1.495   2.072  0.5389 -0.8044 -0.5699
  993MOL0     C33969   9.193   1.655   2.301 -0.7900  0.0839 -0.0282
  993MOL0     C33970   9.262   1.713   2.403 -0.0681 -0.4723 -0.2274
  993MOL0     N33971   9.347   2.306   2.440  0.4391  0.7832  0.2956
  993MOL0     N33972   9.376   2.428   2.458 -0.0929  0.1929 -0.3017
  993MOL0     C33973   8.613   2.887   3.273  0.2301 -0.3721  0.6163
  993MOL0     C33974   8.476   2.857   3.280 -0.8170 -0.6539 -0.1017
  993MOL0     C33975   8.015   2.901   3.140 -1.0151  0.7649  0.7709
  993MOL0     C33976   7.989   2.853   3.271 -0.1104 -0.6499 -0.3353
  993MOL0     C33977   7.851   2.835   3.309  0.7056 -0.0819 -1.0563
  993MOL0     C33978   7.748   2.874   3.220  0.1791  0.3820 -0.1445
  993MOL0     O33979   7.617   2.862   3.267  0.0103  0.1023  0.0485
  993MOL0     C33980   7.513   2.851   3.164  0.0872 -0.6560 -1.2381
  993MOL0     C33981   7.386   2.798   3.241 -0.4471  0.2040  1.2857
  993MOL0     C33982   7.325   2.905   3.343 -0.4219  0.5736  0.0797
  993MOL0     C33983   7.380   2.895   3.484  0.3113 -0.6076 -0.4651
  993MOL0     C33984   7.354   2.751   3.528  0.8885 -0.9056 -1.0393
  993MOL0     C33985   7.329   2.640   3.565  0.4777 -0.6111  0.1244
  993MOL0     C33986   7.782   2.919   3.092  0.0173 -0.1120  0.1497
  993MOL0     C33987   7.914   2.927   3.051  0.1356  0.1963  0.1324
  993MOL0     H33988   8.353   3.092   3.067 -1.0352 -0.0654  0.4816
  993MOL0     H33989   8.585   3.177   3.104 -0.9672  0.9301  1.6176
  993MOL0     H33990   8.808   3.015   3.019  1.5989  0.8443  0.4481
  993MOL0     H33991   8.821   3.184   3.086 -0.3608  0.0410 -1.0596
  993MOL0     H33992   9.043   3.131   3.041  2.1099 -0.5437  0.7373
  993MOL0     H33993   9.047   3.052   3.197  1.1123 -1.1103 -0.6630
  993MOL0     H33994   9.034   2.833   3.129  3.2612  0.5631  0.1088
  993MOL0     H33995   8.958   2.869   2.981 -2.1806  3.0018  0.6854
  993MOL0     H33996   9.192   2.964   2.911 -2.9328 -2.1807 -2.1039
  993MOL0     H33997   9.249   2.909   3.070 -0.5374  2.3875  0.9464
  993MOL0     H33998   9.156   2.681   2.998 -1.0845  0.5380  1.0025
  993MOL0     H33999   9.104   2.763   2.851  0.7574  0.1143 -1.5342
  993MOL0     H34000   9.333   2.812   2.778 -0.9299  1.0435  0.3274
  993MOL0     H34001   9.389   2.713   2.923 -0.8825 -1.7569 -0.3329
  993MOL0     H34002   9.275   2.517   2.822  1.6029 -0.7824  0.4285
  993MOL0     H34003   9.202   2.616   2.707 -1.0266  0.6364  3.3201
  993MOL0     H34004   9.506   2.572   2.699 -0.6812 -1.6077 -1.0321
  993MOL0     H34005   9.397   2.657   2.579 -3.2155  2.2950  2.7484
  993MOL0     H34006   9.368   2.315   2.762  0.9013  0.4197  0.0382
  993MOL0     H34007   9.236   2.080   2.628  0.3522  0.1245 -0.5260
  993MOL0     H34008   9.293   2.062   2.476 -3.7676 -0.4351  2.0013
  993MOL0     H34009   9.435   2.034   2.741 -2.4052  2.3924 -0.2972
  993MOL0     H34010   9.544   2.080   2.596  0.2101 -1.0501 -0.2135
  993MOL0     H34011   9.542   1.849   2.653 -0.1120  1.7702  1.9729
  993MOL0     H34012   9.464   1.885   2.491  2.6089  2.4385 -0.1218
  993MOL0     H34013   9.244   1.846   2.638  0.0058  0.8484  1.6045
  993MOL0     H34014   9.352   1.826   2.776  2.6339  2.7330 -0.5053
  993MOL0     H34015   9.359   1.447   2.575  0.6930  2.2423  1.3120
  993MOL0     H34016   9.173   1.234   2.308 -2.2816  1.6086  0.4529
  993MOL0     H34017   9.346   1.252   2.354  2.3777  1.9647  3.6503
  993MOL0     H34018   9.207   1.238   2.475 -1.3796  1.8729 -0.8201
  993MOL0     H34019   8.752   1.373   2.145 -1.0945  1.4600 -3.1037
  993MOL0     H34020   8.637   1.217   1.988  0.0777 -3.6028 -2.3868
  993MOL0     H34021   8.896   0.964   1.710 -0.2381 -0.3634 -1.7150
  993MOL0     H34022   8.767   0.887   1.804  2.6978 -2.5891 -0.2525
  993MOL0     H34023   8.756   0.839   1.573  0.1860  0.4229  0.5253
  993MOL0     H34024   8.615   0.938   1.609  0.5297 -1.2156  2.2789
  993MOL0     H34025   8.878   1.037   1.486  0.5580 -3.5516  0.2114
  993MOL0     H34026   8.752   1.145   1.524  0.8767  0.4388 -0.0694
  993MOL0     H34027   8.737   0.906   1.315 -1.1764 -1.0891  1.9090
  993MOL0     H34028   8.599   1.011   1.372  0.4517  1.3693 -0.0435
  993MOL0     H34029   8.677   1.075   1.157 -0.2406  4.6072 -0.8890
  993MOL0     H34030   8.841   1.113   1.224 -0.0246  2.6987 -1.1000
  993MOL0     H34031   8.722   1.295   1.352  1.0946 -1.8644  1.1516
  993MOL0     H34032   8.708   1.314   1.185  3.8845  2.3391  3.1841
  993MOL0     H34033   8.471   1.353   1.261 -0.8646  0.2818 -1.1185
  993MOL0     H34034   8.486   1.219   1.371 -2.4923 -2.1820 -3.4265
  993MOL0     H34035   8.348   1.187   1.188  0.0984  0.0164  1.9291
  993MOL0     H34036   8.473   1.063   1.185 -0.2456  0.5116  1.6634
  993MOL0     H34037   9.002   1.093   1.835  1.2458 -3.7309  3.7252
  993MOL0     H34038   9.126   1.226   1.980 -0.5678 -1.4449 -4.2729
  993MOL0     H34039   9.144   1.720   2.229  0.5303  0.4832 -0.6012
  993MOL0     H34040   9.241   1.817   2.425 -0.2027  0.1066 -2.7471
  993MOL0     H34041   8.685   2.827   3.327  1.2125  0.1588 -0.0815
  993MOL0     H34042   8.434   2.774   3.337 -0.9468 -0.2736  0.3600
  993MOL0     H34043   8.067   2.828   3.342 -0.7830  1.3594  1.2064
  993MOL0     H34044   7.826   2.807   3.411 -0.0807  1.1339 -0.8902
  993MOL0     H34045   7.495   2.947   3.113  0.0009  0.4473  0.7715
  993MOL0     H34046   7.549   2.770   3.100  3.5079 -0.1999 -0.0962
  993MOL0     H34047   7.405   2.696   3.277  1.2018 -0.3873 -1.0385
  993MOL0     H34048   7.310   2.785   3.163  0.4395  1.4467  0.1637
  993MOL0     H34049   7.217   2.896   3.357 -0.7184  0.0797 -2.1155
  993MOL0     H34050   7.350   3.007   3.313  1.6716  0.5691  1.5628
  993MOL0     H34051   7.348   2.980   3.545  1.4628  0.2548 -1.0330
  993MOL0     H34052   7.489   2.902   3.474  0.3285  1.0813  0.4929
  993MOL0     H34053   7.315   2.537   3.593 -1.7727 -0.3234  0.2553
  993MOL0     H34054   7.707   2.958   3.024  0.4392 -0.7338 -0.6698
  993MOL0     H34055   7.931   2.936   2.944 -2.0425  1.2544 -0.1755
  994MOL0     O34056   5.902   2.064   1.353 -0.4081  0.2737 -0.4841
  994MOL0     C34057   5.904   2.189   1.360 -0.0699 -0.4629 -0.7059
  994MOL0     O34058   6.005   2.274   1.301 -0.7751  0.4233 -1.1428
  994MOL0     C34059   6.093   2.205   1.217  1.0167  0.1403  0.8969
  994MOL0     C34060   6.233   2.213   1.238 -0.7923  0.1273  1.5759
  994MOL0     C34061   6.330   2.170   1.140 -0.4559 -0.1748 -0.6642
  994MOL0     C34062   6.283   2.122   1.024  1.3832  0.1172 -0.2404
  994MOL0     O34063   6.359   2.057   0.927  0.7156  0.0386  0.2545
  994MOL0     C34064   6.496   2.044   0.944  0.1783  0.1592 -0.4745
  994MOL0     C34065   6.551   1.963   0.828 -0.1429 -0.5058 -0.8209
  994MOL0     C34066   6.519   1.811   0.832 -0.1837  0.6966  0.3979
  994MOL0     C34067   6.582   1.747   0.704 -0.6108  1.1130  0.5917
  994MOL0     C34068   6.509   1.612   0.667 -0.1456 -0.2719  0.4122
  994MOL0     C34069   6.536   1.484   0.742  0.1268  1.0265  0.3181
  994MOL0     C34070   6.669   1.408   0.699  0.0644 -0.2455 -0.8142
  994MOL0     C34071   6.728   1.310   0.799 -0.1395 -0.2536 -0.6206
  994MOL0     N34072   6.765   1.358   0.941 -0.0413 -0.6082  0.6872
  994MOL0     C34073   6.775   1.287   1.062 -0.1604 -0.7221 -0.6861
  994MOL0     C34074   6.836   1.380   1.147  1.0242  0.6046  0.4287
  994MOL0     C34075   6.861   1.346   1.292 -0.4325 -0.7693 -0.2982
  994MOL0     C34076   6.879   1.209   1.349 -0.3775  1.2302  0.0230
  994MOL0     C34077   6.898   1.223   1.507  1.2425 -0.1717 -0.6579
  994MOL0     C34078   6.846   1.101   1.578 -0.6506  0.3809  0.0066
  994MOL0     O34079   6.879   1.102   1.713  0.3443  0.0347  0.2718
  994MOL0     C34080   6.773   1.105   1.804  0.1257  0.5681  0.1500
  994MOL0     C34081   6.661   1.023   1.805  0.1061 -0.3503  0.8297
  994MOL0     C34082   6.562   1.032   1.898  0.2289  0.2355 -0.6810
  994MOL0     C34083   6.448   0.933   1.891 -0.4097 -0.1538 -0.4197
  994MOL0     C34084   6.570   1.136   2.002  0.1608 -0.7607 -0.4893
  994MOL0     C34085   6.468   1.160   2.104 -0.7317  0.4098 -0.3285
  994MOL0     O34086   6.506   1.238   2.206 -0.1189 -0.5769  0.2170
  994MOL0     C34087   6.420   1.262   2.315 -0.1877 -0.3081  0.7448
  994MOL0     C34088   6.301   1.344   2.310 -0.6238  0.8825 -0.3181
  994MOL0     C34089   6.232   1.369   2.430  0.3215 -0.3278  0.4638
  994MOL0     C34090   6.271   1.307   2.546  0.0875 -0.1405  1.5394
  994MOL0     O34091   6.204   1.348   2.657  0.4605 -0.0626 -0.7211
  994MOL0     C34092   6.183   1.255   2.760 -0.9594  0.4442 -1.3606
  994MOL0     C34093   6.058   1.297   2.838 -0.4570  0.1934  0.6488
  994MOL0     C34094   5.925   1.288   2.757 -0.3420  0.0983 -0.7171
  994MOL0     C34095   5.806   1.272   2.859  0.4247 -0.3660 -0.0538
  994MOL0     C34096   5.741   1.139   2.842  0.4022  0.0937  0.6096
  994MOL0     C34097   5.644   1.094   2.942  0.9443  0.6495 -0.1190
  994MOL0     C34098   5.572   0.970   2.896  0.2007 -0.3765  0.4011
  994MOL0     C34099   5.453   0.940   2.996 -0.0129 -0.4200  0.4121
  994MOL0    Cl34100   5.310   0.845   2.927  0.1991 -0.1373 -0.2187
  994MOL0     C34101   6.380   1.214   2.553 -0.3275 -1.5075  0.2345
  994MOL0     C34102   6.453   1.198   2.434 -0.9217  0.2026 -0.5390
  994MOL0     O34103   6.350   1.130   2.079 -0.6177 -0.4726 -0.3063
  994MOL0     C34104   6.679   1.218   1.994 -0.1130  0.5292 -0.1557
  994MOL0     C34105   6.783   1.208   1.898  0.1297  0.6119 -0.3288
  994MOL0     N34106   6.851   1.496   1.066 -0.8234  0.5503 -0.7632
  994MOL0     N34107   6.799   1.488   0.951 -0.6972 -0.4392  0.3901
  994MOL0     C34108   6.142   2.126   0.998 -0.2182 -1.0476 -0.2845
  994MOL0     C34109   6.051   2.169   1.089 -0.7858 -0.2317  0.7885
  994MOL0     C34110   5.791   2.253   1.434 -0.5578 -0.4232  0.6606
  994MOL0     C34111   5.679   2.181   1.484  0.0308  0.3756 -0.4490
  994MOL0     C34112   5.564   2.250   1.525 -0.7207 -0.5543  0.3465
  994MOL0     C34113   5.546   2.392   1.520 -0.4765  0.1078 -0.1049
  994MOL0     O34114   5.435   2.470   1.554 -0.2224 -0.4750  0.4851
  994MOL0     C34115   5.329   2.381   1.600  0.3902 -0.3221 -0.7132
  994MOL0     C34116   5.195   2.466   1.605 -0.4683  0.3052 -0.0477
  994MOL0     C34117   5.185   2.571   1.493 -0.0348  0.5570  0.3209
  994MOL0     C34118   5.207   2.511   1.356 -0.5060 -0.4829 -0.0702
  994MOL0     C34119   5.189   2.614   1.255 -0.4104 -0.5056  1.1054
  994MOL0     C34120   5.192   2.698   1.168 -0.0261 -0.7971 -0.3559
  994MOL0     C34121   5.665   2.465   1.491 -0.8590  0.1802 -0.0590
  994MOL0     C34122   5.783   2.395   1.453 -0.2179 -0.2508 -0.5817
  994MOL0     H34123   6.262   2.264   1.329 -3.1552  3.5744  0.6316
  994MOL0     H34124   6.436   2.174   1.162 -0.3927 -0.8024 -0.8321
  994MOL0     H34125   6.547   2.140   0.946  1.0419 -0.2954 -0.3185
  994MOL0     H34126   6.516   1.994   1.039 -0.1033  1.6540  0.4006
  994MOL0     H34127   6.532   2.002   0.727  3.6266 -0.7943 -1.8189
  994MOL0     H34128   6.659   1.977   0.843 -0.8170  1.8905  2.8251
  994MOL0     H34129   6.559   1.765   0.922 -1.1390  0.5371  0.7500
  994MOL0     H34130   6.412   1.794   0.816  0.0583  2.2387 -5.0788
  994MOL0     H34131   6.561   1.816   0.622  0.9265  1.2056  0.2432
  994MOL0     H34132   6.690   1.736   0.695 -0.7417  0.2170  0.0300
  994MOL0     H34133   6.402   1.634   0.675 -0.3395  0.4264 -2.8863
  994MOL0     H34134   6.535   1.595   0.562  1.0763  0.5057  0.5692
  994MOL0     H34135   6.540   1.521   0.845 -1.4243  2.2985 -0.0404
  994MOL0     H34136   6.468   1.398   0.729  2.4855 -1.0175  0.7068
  994MOL0     H34137   6.642   1.338   0.619  0.3835 -1.6849  0.3046
  994MOL0     H34138   6.745   1.485   0.682  0.2447  0.1015  1.3292
  994MOL0     H34139   6.807   1.266   0.739 -0.4385 -1.9654  0.1956
  994MOL0     H34140   6.650   1.235   0.817  0.4988 -1.1425 -1.4649
  994MOL0     H34141   6.754   1.182   1.074  5.0728 -2.0442 -0.6454
  994MOL0     H34142   6.952   1.405   1.307 -1.3088  0.0816  2.3246
  994MOL0     H34143   6.792   1.403   1.355  1.6633  0.9552  0.5871
  994MOL0     H34144   6.961   1.148   1.310 -0.9448  0.6268 -0.2344
  994MOL0     H34145   6.786   1.155   1.332  0.1773 -0.6463  2.2950
  994MOL0     H34146   6.826   1.299   1.539  0.5527 -1.2473  0.4553
  994MOL0     H34147   6.998   1.260   1.530  0.4002  2.3578 -0.6639
  994MOL0     H34148   6.879   1.002   1.545 -0.2858  0.2536  0.7323
  994MOL0     H34149   6.738   1.103   1.560 -0.1581  0.0382 -3.7953
  994MOL0     H34150   6.649   0.945   1.731  2.3999 -0.7258  0.7865
  994MOL0     H34151   6.354   0.986   1.880 -0.9809 -0.5478  1.9750
  994MOL0     H34152   6.465   0.863   1.809  2.5474 -0.9710  0.7594
  994MOL0     H34153   6.443   0.863   1.975 -2.3116 -0.7187 -0.9564
  994MOL0     H34154   6.259   1.384   2.219  0.4420  1.3317 -0.6273
  994MOL0     H34155   6.136   1.421   2.433  0.0309 -0.5968 -2.2514
  994MOL0     H34156   6.156   1.155   2.726 -2.9139  0.6365 -0.4959
  994MOL0     H34157   6.268   1.244   2.829 -0.8328 -0.5679 -1.6543
  994MOL0     H34158   6.054   1.215   2.910  1.4533 -1.1138 -0.6346
  994MOL0     H34159   6.077   1.400   2.870  2.2902 -0.6426  1.9675
  994MOL0     H34160   5.915   1.216   2.676 -1.5775 -1.2095  0.5535
  994MOL0     H34161   5.911   1.386   2.711 -1.0035 -0.1001 -0.9484
  994MOL0     H34162   5.841   1.284   2.962  0.4088 -4.2122  0.5524
  994MOL0     H34163   5.723   1.336   2.828  1.7108  0.4063 -2.0748
  994MOL0     H34164   5.820   1.063   2.847 -1.1049 -1.5807  0.2053
  994MOL0     H34165   5.692   1.124   2.745  1.8454 -1.1812  0.0330
  994MOL0     H34166   5.699   1.086   3.036 -0.9037 -1.1937  0.8798
  994MOL0     H34167   5.579   1.181   2.955  1.3839  0.7935  1.3552
  994MOL0     H34168   5.641   0.888   2.912  0.1793 -0.5489 -0.3755
  994MOL0     H34169   5.552   0.975   2.789 -1.3639 -0.2865  0.6685
  994MOL0     H34170   5.404   1.028   3.037 -2.9560 -1.5345 -0.4480
  994MOL0     H34171   5.487   0.887   3.086 -0.5256 -0.2544  0.7115
  994MOL0     H34172   6.415   1.165   2.643 -1.5060 -4.5674 -0.8430
  994MOL0     H34173   6.541   1.135   2.426  0.0978  1.6185 -0.7037
  994MOL0     H34174   6.705   1.295   2.067 -3.1422  0.5008  1.0836
  994MOL0     H34175   6.868   1.277   1.891  0.7382 -0.2191 -1.4625
  994MOL0     H34176   6.107   2.093   0.901  1.6737 -2.8625 -0.4097
  994MOL0     H34177   5.950   2.188   1.055 -0.4867  0.2136  0.1341
  994MOL0     H34178   5.672   2.073   1.476 -3.5984 -0.0588  4.0038
  994MOL0     H34179   5.488   2.184   1.565 -2.8257 -0.1093 -2.6063
  994MOL0     H34180   5.304   2.301   1.530 -1.5342 -2.0641  1.7803
  994MOL0     H34181   5.358   2.343   1.698  0.9230  1.7788  0.0142
  994MOL0     H34182   5.187   2.519   1.701  1.2436  1.3308 -0.4286
  994MOL0     H34183   5.110   2.398   1.602 -3.0102  3.2821 -1.4634
  994MOL0     H34184   5.253   2.654   1.510 -0.9458  2.2679 -3.3059
  994MOL0     H34185   5.087   2.614   1.518 -0.1097 -0.0417  1.0936
  994MOL0     H34186   5.141   2.429   1.327  2.1774 -2.7153 -0.2542
  994MOL0     H34187   5.308   2.468   1.349 -0.8853 -1.6483  1.2067
  994MOL0     H34188   5.202   2.779   1.098  0.8566  0.0216  0.6834
  994MOL0     H34189   5.678   2.572   1.509  0.5782 -0.1353  0.9785
  994MOL0     H34190   5.870   2.456   1.432 -0.5873 -0.2117 -2.1551
  995MOL0     O34191   8.648  10.787   3.244  0.3039 -0.3520  0.1771
  995MOL0     C34192   8.700  10.777   3.361 -0.3541 -0.1933 -0.1886
  995MOL0     O34193   8.637  10.808   3.487 -0.6007  0.4580 -0.7873
  995MOL0     C34194   8.507  10.843   3.508  0.3276 -0.0797  0.5603
  995MOL0     C34195   8.404  10.865   3.422  0.4423 -0.0839  0.0690
  995MOL0     C34196   8.276  10.889   3.460  0.3788  0.7462 -0.1894
  995MOL0     C34197   8.253  10.915   3.597 -0.6438 -0.1512  0.0315
  995MOL0     O34198   8.144  10.951   3.661 -0.2080  0.2377 -0.5887
  995MOL0     C34199   8.024  10.975   3.598  0.0903 -0.8862 -0.0294
  995MOL0     C34200   7.927  11.072   3.675  0.0106  0.7467 -1.0063
  995MOL0     C34201   7.824  10.991   3.752  0.0861 -1.0976  0.2863
  995MOL0     C34202   7.690  11.066   3.770  0.0287  0.0055  0.0433
  995MOL0     C34203   7.585  10.975   3.857  0.6980  0.0795  0.4449
  995MOL0     C34204   7.483  10.904   3.758 -0.5921 -0.3312 -0.9597
  995MOL0     C34205   7.393  10.809   3.837 -0.0202 -1.0012  0.7846
  995MOL0     C34206   7.345  10.690   3.759 -0.2602  0.3523  0.0003
  995MOL0     N34207   7.462  10.617   3.693  0.2197 -0.0502  0.4335
  995MOL0     C34208   7.583  10.572   3.748 -0.0825  1.2076  0.3397
  995MOL0     C34209   7.658  10.536   3.638  0.1154  0.2922 -1.0374
  995MOL0     C34210   7.793  10.480   3.640 -0.6540  0.1620 -0.6821
  995MOL0     C34211   7.904  10.564   3.705 -1.1960 -0.1713  0.8726
  995MOL0     C34212   8.006  10.466   3.741 -0.3793  0.7239 -0.1398
  995MOL0     C34213   8.134  10.536   3.775  0.3105 -0.3725  0.1837
  995MOL0     O34214   8.217  10.434   3.833  0.4092  0.2436 -0.4101
  995MOL0     C34215   8.223  10.405   3.972 -0.0933  0.1564  0.5985
  995MOL0     C34216   8.311  10.306   4.014 -0.1058  0.0078 -0.2145
  995MOL0     C34217   8.332  10.288   4.154 -0.4943  0.1395 -0.6695
  995MOL0     C34218   8.439  10.177   4.187 -0.0673 -1.0942  0.7923
  995MOL0     C34219   8.251  10.364   4.252 -0.2769  0.2339  0.9829
  995MOL0     C34220   8.286  10.357   4.390  0.1647 -0.7653 -0.0959
  995MOL0     O34221   8.188  10.389   4.481 -0.2467 -0.1241 -0.2031
  995MOL0     C34222   8.202  10.381   4.615  0.8098  0.4501 -0.2095
  995MOL0     C34223   8.241  10.263   4.690 -0.8035 -0.5719 -0.1558
  995MOL0     C34224   8.248  10.276   4.830  0.9073  0.4478 -0.3005
  995MOL0     C34225   8.186  10.383   4.906  0.1288  0.3702 -0.6432
  995MOL0     O34226   8.206  10.389   5.043  0.4374 -0.5752  0.4930
  995MOL0     C34227   8.137  10.480   5.134 -0.4844 -0.5155  0.6698
  995MOL0     C34228   8.198  10.457   5.276  0.8321  0.7627 -0.3278
  995MOL0     C34229   8.120  10.530   5.380  0.8454 -0.3805 -1.0869
  995MOL0     C34230   8.176  10.520   5.528  0.4430  1.2247  0.0127
  995MOL0     C34231   8.080  10.588   5.626  0.2876 -0.4017 -0.6465
  995MOL0     C34232   8.116  10.583   5.772 -0.3491  0.2112 -0.0290
  995MOL0     C34233   8.068  10.452   5.838 -0.4301 -0.5233 -0.5209
  995MOL0     C34234   7.931  10.460   5.919 -0.4928 -0.8488  0.1645
  995MOL0    Cl34235   7.925  10.624   5.993  0.0954  0.4026  0.0153
  995MOL0     C34236   8.158  10.496   4.828  0.2949  0.0595 -0.8039
  995MOL0     C34237   8.155  10.496   4.689 -0.5544 -0.2316  0.1539
  995MOL0     O34238   8.406  10.342   4.420  0.3608 -0.8434  0.1386
  995MOL0     C34239   8.153  10.454   4.198  0.4642  0.3425  0.7636
  995MOL0     C34240   8.135  10.458   4.062 -0.1774 -0.5739 -0.2372
  995MOL0     N34241   7.575  10.546   3.531 -0.1851  0.3921  0.0229
  995MOL0     N34242   7.459  10.599   3.561 -0.5089 -0.4705  0.1411
  995MOL0     C34243   8.354  10.885   3.685 -0.2958  0.6504 -0.6015
  995MOL0     C34244   8.475  10.846   3.639  0.1384 -0.3962  0.0550
  995MOL0     C34245   8.846  10.736   3.366  1.1541 -0.5334  0.1138
  995MOL0     C34246   8.892  10.678   3.492 -0.1553  0.2940  1.0211
  995MOL0     C34247   9.017  10.618   3.498 -1.1090  1.0390  0.6936
  995MOL0     C34248   9.114  10.644   3.394 -0.9843  0.2490 -0.1888
  995MOL0     O34249   9.250  10.610   3.428  0.7435 -0.5404  0.3294
  995MOL0     C34250   9.323  10.545   3.322 -0.4441 -0.3200  0.3190
  995MOL0     C34251   9.411  10.644   3.261 -0.4057 -0.9282 -0.3447
  995MOL0     C34252   9.480  10.581   3.137 -0.6590 -0.4296 -1.1296
  995MOL0     C34253   9.589  10.677   3.076  1.1837 -0.2746 -0.3026
  995MOL0     C34254   9.687  10.725   3.162 -0.3535  0.1274  0.3940
  995MOL0     C34255   9.764  10.772   3.236  0.9942 -0.4199 -0.9261
  995MOL0     C34256   9.071  10.705   3.273  0.8898 -0.2633  0.6285
  995MOL0     C34257   8.934  10.751   3.262 -0.6503  0.7144 -0.2555
  995MOL0     H34258   8.410  10.846   3.316 -0.5257 -0.4623  0.0655
  995MOL0     H34259   8.202  10.909   3.383  0.9997  1.7871 -0.5500
  995MOL0     H34260   8.047  11.029   3.506 -1.4443  0.0998  0.1239
  995MOL0     H34261   7.968  10.882   3.584  0.3600 -0.9634 -0.6104
  995MOL0     H34262   7.976  11.137   3.747 -1.0943 -0.3544  0.8044
  995MOL0     H34263   7.874  11.133   3.601 -1.8788  0.8639  0.3527
  995MOL0     H34264   7.799  10.897   3.702 -1.4213 -0.9836  0.7763
  995MOL0     H34265   7.869  10.981   3.851  1.9692  0.1105 -0.3968
  995MOL0     H34266   7.705  11.171   3.797  0.9970 -0.2158  0.3914
  995MOL0     H34267   7.662  11.081   3.665  3.8329  1.7729 -0.9134
  995MOL0     H34268   7.647  10.904   3.911  1.4731  0.7519  0.4669
  995MOL0     H34269   7.539  11.045   3.927 -0.5816  1.4949 -1.6762
  995MOL0     H34270   7.420  10.982   3.713  1.0782  1.9963  0.4931
  995MOL0     H34271   7.544  10.871   3.674  2.8391  4.0143 -0.5423
  995MOL0     H34272   7.433  10.774   3.932 -0.8444 -2.0781  0.7473
  995MOL0     H34273   7.303  10.868   3.852  0.0948 -0.6527  0.1544
  995MOL0     H34274   7.274  10.711   3.679 -2.9750 -0.9000  1.9596
  995MOL0     H34275   7.304  10.617   3.829 -1.9980  1.5519  0.2931
  995MOL0     H34276   7.615  10.568   3.851 -0.5045 -2.9221  0.4654
  995MOL0     H34277   7.787  10.381   3.687 -0.4885 -0.7418 -2.4809
  995MOL0     H34278   7.831  10.442   3.545  3.6216 -0.0614  0.9161
  995MOL0     H34279   7.872  10.618   3.795 -0.8891 -0.9086  1.4378
  995MOL0     H34280   7.936  10.638   3.631 -0.0051  1.3768  2.8250
  995MOL0     H34281   8.035  10.398   3.660  0.7034  4.1638 -2.9317
  995MOL0     H34282   7.966  10.424   3.833 -0.4902  4.6183  1.8191
  995MOL0     H34283   8.124  10.617   3.848  1.9753  0.3147 -0.2934
  995MOL0     H34284   8.181  10.587   3.691  1.3626  1.0185  1.5406
  995MOL0     H34285   8.377  10.245   3.953 -0.2554 -1.4621  1.0222
  995MOL0     H34286   8.414  10.090   4.126  3.0604 -1.7777  0.3295
  995MOL0     H34287   8.537  10.221   4.169 -0.7102  0.0286 -0.0872
  995MOL0     H34288   8.422  10.148   4.292 -1.7417 -1.3684  0.4779
  995MOL0     H34289   8.263  10.165   4.649 -1.2372  0.1155 -2.1230
  995MOL0     H34290   8.293  10.199   4.890 -2.0928  2.4949  5.3373
  995MOL0     H34291   8.157  10.586   5.115  1.1448 -1.2530 -2.2310
  995MOL0     H34292   8.032  10.448   5.139  0.0323 -2.4959 -0.4612
  995MOL0     H34293   8.190  10.352   5.306  3.6965 -0.3076 -2.7012
  995MOL0     H34294   8.306  10.477   5.274  0.6957  1.6812 -3.1508
  995MOL0     H34295   8.016  10.500   5.370  0.6462  0.5461 -2.0891
  995MOL0     H34296   8.130  10.634   5.348  3.5088 -1.0458 -2.8528
  995MOL0     H34297   8.195  10.414   5.547 -1.0041  0.6361 -1.5388
  995MOL0     H34298   8.277  10.562   5.532  0.2664  1.8779 -1.5240
  995MOL0     H34299   7.977  10.552   5.624  0.5623 -1.3171  0.6963
  995MOL0     H34300   8.074  10.691   5.588  1.1899 -1.7027 -4.8253
  995MOL0     H34301   8.225  10.586   5.784  0.0491 -4.9893 -0.2249
  995MOL0     H34302   8.069  10.676   5.808  0.3958  1.3752 -1.9415
  995MOL0     H34303   8.142  10.417   5.910  0.3977 -3.0363 -2.4401
  995MOL0     H34304   8.044  10.371   5.768 -2.1086 -0.0009 -0.5948
  995MOL0     H34305   7.924  10.385   5.998 -1.5821  0.7701  1.6816
  995MOL0     H34306   7.848  10.462   5.847  0.0936 -1.2845 -0.5371
  995MOL0     H34307   8.122  10.582   4.884  0.1261 -1.5812  1.8223
  995MOL0     H34308   8.121  10.584   4.636 -1.1262  0.3449  1.4129
  995MOL0     H34309   8.094  10.518   4.263 -0.0329  1.5728 -0.8383
  995MOL0     H34310   8.046  10.516   4.042 -0.0442 -0.4707 -0.5266
  995MOL0     H34311   8.331  10.898   3.790 -1.0681  2.2625 -0.9373
  995MOL0     H34312   8.548  10.825   3.716  1.6313  2.6142 -0.3839
  995MOL0     H34313   8.834  10.670   3.583 -0.6963  1.4830  0.8005
  995MOL0     H34314   9.042  10.556   3.583 -3.6857  0.1802  0.9086
  995MOL0     H34315   9.379  10.461   3.363  0.7010  0.3598  0.1834
  995MOL0     H34316   9.253  10.507   3.246 -1.7145  0.9761  0.7753
  995MOL0     H34317   9.479  10.663   3.345  1.5895 -3.4412 -1.2657
  995MOL0     H34318   9.360  10.740   3.250  4.4435  2.2046  1.1063
  995MOL0     H34319   9.404  10.545   3.066 -1.7501  0.3582 -0.4047
  995MOL0     H34320   9.534  10.492   3.170 -1.7264 -1.3436 -1.7405
  995MOL0     H34321   9.540  10.757   3.020 -0.6901  0.3345  2.0634
  995MOL0     H34322   9.651  10.625   3.002  1.7370  0.0217 -0.0610
  995MOL0     H34323   9.839  10.822   3.294  0.4926  2.8734 -2.8931
  995MOL0     H34324   9.139  10.735   3.195  1.8764  1.6225  2.1416
  995MOL0     H34325   8.900  10.794   3.168  0.1667  1.4669 -0.2223
  996MOL0     O34326   2.193   4.437   4.666 -0.1744 -0.2205  0.0138
  996MOL0     C34327   2.199   4.544   4.605 -0.8906  0.7933  0.2293
  996MOL0     O34328   2.180   4.556   4.473 -0.0941 -0.6074 -0.7499
  996MOL0     C34329   2.225   4.458   4.381 -0.2941  0.8993 -0.1324
  996MOL0     C34330   2.152   4.435   4.265 -0.1637  0.7339  0.3800
  996MOL0     C34331   2.199   4.340   4.166  0.5610 -0.3325 -0.4496
  996MOL0     C34332   2.318   4.262   4.198  0.1619 -0.6741 -0.2808
  996MOL0     O34333   2.382   4.179   4.107  0.1330  0.4581  0.0276
  996MOL0     C34334   2.302   4.136   3.998 -0.1947 -0.5210  0.3396
  996MOL0     C34335   2.365   4.003   3.962  0.0214 -0.3812  0.0235
  996MOL0     C34336   2.348   3.899   4.062  0.1930  0.6508  0.3714
  996MOL0     C34337   2.413   3.762   4.027  0.6731 -0.0745  0.0818
  996MOL0     C34338   2.334   3.652   4.106  0.0862 -0.4223  0.0038
  996MOL0     C34339   2.391   3.515   4.063 -0.1220 -0.1934  0.3837
  996MOL0     C34340   2.300   3.397   4.073 -0.3400 -0.4035  0.1051
  996MOL0     C34341   2.264   3.379   4.224 -0.7933  0.0945 -0.7362
  996MOL0     N34342   2.203   3.247   4.250 -0.2308  1.1786 -0.7519
  996MOL0     C34343   2.176   3.153   4.157 -0.4200  0.1449 -0.4617
  996MOL0     C34344   2.159   3.035   4.217 -0.0444  0.1184  0.1290
  996MOL0     C34345   2.119   2.911   4.150 -0.7470 -0.6078 -0.1036
  996MOL0     C34346   2.213   2.843   4.043  0.0714 -1.1349 -0.5457
  996MOL0     C34347   2.347   2.802   4.114 -0.2739  0.9507 -0.3039
  996MOL0     C34348   2.467   2.905   4.111  0.2262  0.5779 -0.4216
  996MOL0     O34349   2.496   2.948   3.974  0.0690 -0.1397 -0.0237
  996MOL0     C34350   2.524   3.076   3.953  1.2787 -0.3511  0.9294
  996MOL0     C34351   2.525   3.108   3.823 -0.1540 -0.3568  0.5488
  996MOL0     C34352   2.577   3.230   3.778 -0.5253  0.6040 -0.5265
  996MOL0     C34353   2.567   3.242   3.628 -0.6005  0.5200 -0.2036
  996MOL0     C34354   2.618   3.323   3.869 -0.0405  0.1836 -0.0881
  996MOL0     C34355   2.682   3.451   3.836 -0.6609 -0.1294  0.1412
  996MOL0     O34356   2.779   3.498   3.919  0.2071  0.2940  0.5149
  996MOL0     C34357   2.800   3.633   3.936 -0.3866 -0.3337 -0.1618
  996MOL0     C34358   2.715   3.739   3.899 -0.2651  1.6453 -0.6062
  996MOL0     C34359   2.746   3.871   3.941 -0.6249 -0.1544 -0.7295
  996MOL0     C34360   2.862   3.900   4.019 -0.0715 -1.0817 -0.9004
  996MOL0     O34361   2.913   4.025   4.060 -0.1793  0.0472  0.5356
  996MOL0     C34362   2.837   4.147   4.047 -0.1652 -0.3602 -0.0845
  996MOL0     C34363   2.878   4.251   4.158  0.2882 -0.1937 -0.4164
  996MOL0     C34364   2.777   4.363   4.157 -0.0947 -0.5036  0.3308
  996MOL0     C34365   2.824   4.489   4.243  0.4338  0.6583  0.4315
  996MOL0     C34366   2.711   4.529   4.334  0.4524  0.8862 -0.2533
  996MOL0     C34367   2.775   4.659   4.406  0.1828 -0.7229 -0.7144
  996MOL0     C34368   2.656   4.745   4.449  0.4784  0.3473 -0.3335
  996MOL0     C34369   2.559   4.678   4.548  1.0967 -0.0896  0.4158
  996MOL0    Cl34370   2.652   4.621   4.691  0.0280 -0.3804 -0.3339
  996MOL0     C34371   2.945   3.794   4.048 -0.2657 -0.2180 -0.4332
  996MOL0     C34372   2.909   3.662   4.023  0.1237 -0.4293  0.2228
  996MOL0     O34373   2.639   3.514   3.740 -0.7003  0.4063 -0.2090
  996MOL0     C34374   2.623   3.287   4.009  0.7635  0.7306 -0.1916
  996MOL0     C34375   2.582   3.160   4.044 -0.2078  0.4467 -1.0162
  996MOL0     N34376   2.183   3.049   4.351  0.2382 -0.1087 -1.0887
  996MOL0     N34377   2.216   3.173   4.371  0.4347  0.4983  1.2678
  996MOL0     C34378   2.388   4.285   4.313  0.1367 -1.1879 -0.5396
  996MOL0     C34379   2.342   4.378   4.405 -0.2445 -0.3283  0.7068
  996MOL0     C34380   2.199   4.656   4.697  0.6105 -0.2958 -0.9021
  996MOL0     C34381   2.132   4.643   4.813  0.1490 -0.6555  0.5891
  996MOL0     C34382   2.120   4.749   4.902  0.3803 -0.6389 -0.2040
  996MOL0     C34383   2.175   4.874   4.866 -0.1484 -0.1759  0.1882
  996MOL0     O34384   2.185   4.992   4.937  0.5716 -0.4381 -0.4849
  996MOL0     C34385   2.099   5.004   5.046  0.0076 -0.6309 -0.7477
  996MOL0     C34386   1.957   5.016   4.997  0.4824 -0.0029  0.6959
  996MOL0     C34387   1.899   5.147   4.950 -0.0616  0.8541 -0.8271
  996MOL0     C34388   1.854   5.240   5.061 -0.6388  0.7331 -0.5954
  996MOL0     C34389   1.813   5.368   5.008 -0.1833 -0.2142 -0.1113
  996MOL0     C34390   1.764   5.475   4.983  0.0903 -0.1302  0.0002
  996MOL0     C34391   2.236   4.889   4.746  0.5173  0.9913 -0.0266
  996MOL0     C34392   2.231   4.784   4.660 -0.1950  0.6005  0.2929
  996MOL0     H34393   2.062   4.494   4.256 -0.0948  0.6653 -0.8631
  996MOL0     H34394   2.136   4.322   4.080 -0.1597  2.1946 -0.5310
  996MOL0     H34395   2.200   4.108   4.025 -0.1571 -1.0887 -0.0999
  996MOL0     H34396   2.320   4.198   3.909  0.3135 -2.9193 -1.3238
  996MOL0     H34397   2.332   3.977   3.862  0.1222  1.5826 -0.5721
  996MOL0     H34398   2.471   4.018   3.941 -0.1286  0.0780 -0.4367
  996MOL0     H34399   2.395   3.918   4.159  3.0204 -2.6806 -0.1414
  996MOL0     H34400   2.239   3.893   4.069  0.0043  1.9633 -0.9005
  996MOL0     H34401   2.402   3.742   3.920  4.4652 -1.9164 -0.1411
  996MOL0     H34402   2.515   3.768   4.065 -0.2748 -0.6898  2.9334
  996MOL0     H34403   2.345   3.673   4.213  1.8214  2.1127 -0.5976
  996MOL0     H34404   2.229   3.662   4.077  0.9665  2.0730 -2.6805
  996MOL0     H34405   2.418   3.512   3.957  3.0531 -2.0347  1.1131
  996MOL0     H34406   2.484   3.498   4.119 -0.1019  3.3598  1.6896
  996MOL0     H34407   2.204   3.412   4.023 -1.3565  3.3928  2.7919
  996MOL0     H34408   2.361   3.313   4.036  1.4882  0.3411  1.2752
  996MOL0     H34409   2.199   3.458   4.264  0.0847 -0.6988  2.5744
  996MOL0     H34410   2.358   3.380   4.280 -1.0739  0.1818 -0.2586
  996MOL0     H34411   2.179   3.162   4.049  3.6871 -2.7492 -0.7816
  996MOL0     H34412   2.091   2.841   4.229  0.9089 -0.2366  0.8664
  996MOL0     H34413   2.023   2.924   4.099 -0.3578 -0.4962 -0.8317
  996MOL0     H34414   2.224   2.907   3.955  3.1157  0.2367  0.7057
  996MOL0     H34415   2.167   2.747   4.016  0.7003 -0.9820 -2.2460
  996MOL0     H34416   2.382   2.716   4.057 -2.9181 -1.0318  0.8546
  996MOL0     H34417   2.335   2.758   4.213 -0.3475  1.8881  0.1121
  996MOL0     H34418   2.556   2.855   4.152 -0.2091  1.8360  2.2965
  996MOL0     H34419   2.451   2.986   4.183 -1.7467 -0.2939  0.1945
  996MOL0     H34420   2.490   3.043   3.744  0.2466 -0.4456  0.4423
  996MOL0     H34421   2.673   3.245   3.600 -0.3529  0.3051  0.6948
  996MOL0     H34422   2.529   3.152   3.578 -0.3587 -0.2276  0.9246
  996MOL0     H34423   2.506   3.322   3.585 -0.6309 -0.7474 -2.7300
  996MOL0     H34424   2.615   3.725   3.860  0.7795  0.3208 -2.9865
  996MOL0     H34425   2.683   3.955   3.911  1.4670  2.3999  1.5024
  996MOL0     H34426   2.843   4.186   3.944 -2.2663 -0.9331 -0.4729
  996MOL0     H34427   2.733   4.114   4.049  0.7003 -3.4673 -1.1955
  996MOL0     H34428   2.864   4.206   4.257 -0.7163  3.1024  1.0810
  996MOL0     H34429   2.981   4.279   4.136  0.8893 -2.0977 -0.2270
  996MOL0     H34430   2.680   4.340   4.202  1.0169 -1.8616  2.1888
  996MOL0     H34431   2.764   4.410   4.060 -0.7325  0.9331  1.0736
  996MOL0     H34432   2.916   4.465   4.298 -1.2826 -2.2878  2.2525
  996MOL0     H34433   2.850   4.573   4.177  0.5704 -0.0041 -0.3715
  996MOL0     H34434   2.698   4.445   4.403 -3.7244  3.0468  1.9779
  996MOL0     H34435   2.612   4.544   4.291  0.0973 -1.3852 -0.3658
  996MOL0     H34436   2.835   4.631   4.492 -1.1147 -1.0753  0.1059
  996MOL0     H34437   2.844   4.724   4.352  1.7356 -0.8393  1.0487
  996MOL0     H34438   2.599   4.778   4.362 -1.4926 -1.4714  0.1673
  996MOL0     H34439   2.699   4.828   4.506  1.0109  0.6677 -1.1783
  996MOL0     H34440   2.499   4.602   4.497  0.5227 -0.6270  1.8401
  996MOL0     H34441   2.493   4.758   4.583  4.3531  2.2338  1.8245
  996MOL0     H34442   3.043   3.803   4.094  1.8193  1.0392 -4.6162
  996MOL0     H34443   2.975   3.578   4.043  1.1412 -0.0775 -1.4865
  996MOL0     H34444   2.664   3.360   4.079  0.4863  0.1257  0.6165
  996MOL0     H34445   2.602   3.134   4.148 -0.2599 -1.4155 -1.4517
  996MOL0     H34446   2.470   4.219   4.342  0.3467 -0.2423  1.1683
  996MOL0     H34447   2.399   4.379   4.497  2.5273  0.3165 -0.9113
  996MOL0     H34448   2.090   4.547   4.843  1.5980 -2.1169 -1.6720
  996MOL0     H34449   2.069   4.728   4.996  0.7616  1.9075  0.6532
  996MOL0     H34450   2.101   4.935   5.131  2.6816  2.1114  1.6840
  996MOL0     H34451   2.134   5.097   5.091  2.8577 -0.6813 -2.6435
  996MOL0     H34452   1.890   4.968   5.068 -1.7570  0.0382 -1.2941
  996MOL0     H34453   1.933   4.953   4.911  2.1223 -4.2127  3.0324
  996MOL0     H34454   1.806   5.124   4.899 -0.3298  2.0138 -0.8839
  996MOL0     H34455   1.961   5.201   4.878 -0.3139 -2.1754 -3.5073
  996MOL0     H34456   1.933   5.259   5.134 -1.5424  0.4193  0.4918
  996MOL0     H34457   1.774   5.198   5.124 -0.2552  0.4933 -0.2590
  996MOL0     H34458   1.707   5.561   4.953 -1.7720 -1.3124  0.0618
  996MOL0     H34459   2.271   4.986   4.710  4.8269 -0.1116  0.7003
  996MOL0     H34460   2.266   4.799   4.559  0.2789  0.2200  0.3985
  997MOL0     O34461   7.419  10.896   1.122 -0.5353  0.2584 -0.0965
  997MOL0     C34462   7.452  10.793   1.070  0.0873 -0.2766  0.4335
  997MOL0     O34463   7.420  10.762   0.938 -1.0147 -0.5709  0.8793
  997MOL0     C34464   7.356  10.861   0.860  0.1986  0.8081  0.6102
  997MOL0     C34465   7.218  10.863   0.869  0.1395  0.8139  0.6683
  997MOL0     C34466   7.150  10.944   0.769 -0.5889  0.5493  0.6131
  997MOL0     C34467   7.222  11.025   0.682  0.4360 -0.2849 -0.1827
  997MOL0     O34468   7.159  11.090   0.587  1.0007  0.0773  0.0690
  997MOL0     C34469   7.163  11.240   0.602  0.0563 -0.0453 -0.2404
  997MOL0     C34470   7.028  11.307   0.639 -0.2095  0.2057  1.0279
  997MOL0     C34471   6.947  11.241   0.763 -0.6796 -0.9284  0.3918
  997MOL0     C34472   6.809  11.315   0.779 -0.3600 -0.1247  0.2183
  997MOL0     C34473   6.733  11.266   0.897 -0.2951  1.1047 -0.9439
  997MOL0     C34474   6.592  11.312   0.910  0.1362  0.3441 -0.1414
  997MOL0     C34475   6.548  11.260   1.045  0.2961  0.1382  0.7261
  997MOL0     C34476   6.564  11.356   1.168  0.0184  0.5576  0.6317
  997MOL0     N34477   6.486  11.311   1.286 -0.3833 -0.2010  0.3015
  997MOL0     C34478   6.353  11.313   1.292  0.3213 -0.2167  0.5209
  997MOL0     C34479   6.326  11.267   1.421 -0.3020 -0.2199 -0.5904
  997MOL0     C34480   6.185  11.253   1.484  0.1407 -0.7981 -0.1123
  997MOL0     C34481   6.091  11.219   1.360  0.5630  0.6371 -0.2101
  997MOL0     C34482   5.939  11.190   1.382 -0.3880 -0.7955  0.6115
  997MOL0     C34483   5.909  11.099   1.497  0.7487  0.3193 -0.3020
  997MOL0     O34484   5.801  11.011   1.457  0.1086  0.4049 -1.1431
  997MOL0     C34485   5.768  10.932   1.571  0.1890  0.0393  0.6733
  997MOL0     C34486   5.820  10.802   1.587 -0.0188 -0.5923 -0.2183
  997MOL0     C34487   5.795  10.726   1.705 -0.2149 -0.2965  0.0316
  997MOL0     C34488   5.864  10.584   1.721  0.3960  0.4214  0.0415
  997MOL0     C34489   5.702  10.783   1.798 -0.6508  0.2389 -0.2372
  997MOL0     C34490   5.665  10.726   1.934  0.4698  0.7560  0.5492
  997MOL0     O34491   5.541  10.761   1.985  0.0747 -0.1842 -0.4941
  997MOL0     C34492   5.501  10.718   2.109  0.9008  0.2968  0.5695
  997MOL0     C34493   5.520  10.591   2.154 -0.0406  0.9043  0.8593
  997MOL0     C34494   5.460  10.550   2.275 -0.7059 -0.5579  0.3208
  997MOL0     C34495   5.386  10.646   2.349 -0.4177  0.8988 -0.3155
  997MOL0     O34496   5.323  10.613   2.467  0.5301  0.4708  0.5081
  997MOL0     C34497   5.376  10.497   2.537  0.0717  0.5892 -0.0245
  997MOL0     C34498   5.327  10.479   2.676 -0.4807 -0.2470 -0.1756
  997MOL0     C34499   5.190  10.409   2.674 -0.4885 -1.2310 -0.2616
  997MOL0     C34500   5.127  10.408   2.815 -0.5198 -0.7610 -0.0316
  997MOL0     C34501   4.976  10.408   2.831 -0.3102 -0.1418 -1.0709
  997MOL0     C34502   4.900  10.298   2.757  0.1858  0.2835 -0.7294
  997MOL0     C34503   4.900  10.166   2.844 -0.8896  0.2188 -0.0216
  997MOL0     C34504   4.779  10.089   2.811  1.0776  0.7197 -0.0404
  997MOL0    Cl34505   4.754  10.068   2.632 -0.0208 -0.0094 -0.1229
  997MOL0     C34506   5.354  10.771   2.299  0.1887 -0.6895  0.1193
  997MOL0     C34507   5.411  10.801   2.171 -0.0293 -0.5996  0.2746
  997MOL0     O34508   5.743  10.653   1.989 -0.0793 -0.0118  0.1713
  997MOL0     C34509   5.643  10.909   1.771  0.7001  0.0829  0.3140
  997MOL0     C34510   5.675  10.983   1.658  0.0186 -0.2416 -0.3234
  997MOL0     N34511   6.440  11.223   1.475  0.2824  0.6859 -0.5620
  997MOL0     N34512   6.541  11.250   1.391 -0.2676 -0.4651  0.3423
  997MOL0     C34513   7.358  11.022   0.685  0.3076 -0.7967 -0.4796
  997MOL0     C34514   7.426  10.935   0.769 -0.3303 -0.2296 -0.2557
  997MOL0     C34515   7.504  10.694   1.168 -0.1818 -0.1053 -0.5003
  997MOL0     C34516   7.573  10.736   1.288  0.0351 -0.4984 -0.1034
  997MOL0     C34517   7.633  10.640   1.366  0.5218 -0.0394  0.1281
  997MOL0     C34518   7.625  10.503   1.350 -0.7092 -1.2512 -0.4072
  997MOL0     O34519   7.690  10.421   1.439 -0.0176 -1.0289 -0.4704
  997MOL0     C34520   7.600  10.348   1.530  0.2831  0.0649  0.1796
  997MOL0     C34521   7.646  10.341   1.683  0.7660  0.2935 -0.1958
  997MOL0     C34522   7.744  10.249   1.724  0.1377  0.2157 -0.2657
  997MOL0     C34523   7.742  10.096   1.681 -0.2708  0.2367  0.0543
  997MOL0     C34524   7.847  10.017   1.747 -1.2707 -1.1740  0.2290
  997MOL0     C34525   7.928   9.941   1.797 -0.0264 -0.9274 -0.4824
  997MOL0     C34526   7.561  10.459   1.240  0.6767  0.0568  0.5032
  997MOL0     C34527   7.493  10.552   1.153  0.3376  0.1809 -0.8381
  997MOL0     H34528   7.166  10.802   0.943 -3.3143  1.2787 -1.1364
  997MOL0     H34529   7.042  10.941   0.776 -0.7365  1.5693 -0.6643
  997MOL0     H34530   7.240  11.268   0.674  1.9348 -0.9774 -1.7811
  997MOL0     H34531   7.192  11.289   0.508 -1.7428  1.1342 -0.2284
  997MOL0     H34532   7.057  11.410   0.657  2.2688 -0.2784  0.1218
  997MOL0     H34533   6.950  11.315   0.563 -0.6905  1.5421  1.6386
  997MOL0     H34534   6.922  11.137   0.739  0.4393 -0.7784 -1.6113
  997MOL0     H34535   7.011  11.253   0.850  2.9826  1.5937 -2.3519
  997MOL0     H34536   6.830  11.421   0.797  3.6646 -1.1189  2.6681
  997MOL0     H34537   6.757  11.294   0.685 -3.0310  0.8199  1.3977
  997MOL0     H34538   6.734  11.157   0.898  2.9133  0.9989  1.7023
  997MOL0     H34539   6.782  11.296   0.990 -2.4009  1.9156 -0.0435
  997MOL0     H34540   6.593  11.421   0.902 -2.2469  0.4424  0.0751
  997MOL0     H34541   6.536  11.268   0.827  2.6760 -1.5549 -0.9782
  997MOL0     H34542   6.439  11.256   1.038  0.3884 -1.4269 -0.2259
  997MOL0     H34543   6.587  11.159   1.058 -1.9297 -0.4879  3.2998
  997MOL0     H34544   6.517  11.448   1.131 -0.5692 -0.0538 -0.1872
  997MOL0     H34545   6.672  11.356   1.180  0.2864  0.1073 -1.3026
  997MOL0     H34546   6.285  11.364   1.225  0.4725  1.3942  1.5281
  997MOL0     H34547   6.184  11.184   1.570 -0.1525 -0.5528  0.0838
  997MOL0     H34548   6.160  11.352   1.524 -1.3464  0.2404 -3.3151
  997MOL0     H34549   6.131  11.129   1.313 -3.8688 -1.7765  0.0213
  997MOL0     H34550   6.093  11.307   1.295 -1.6753  1.2138  0.4016
  997MOL0     H34551   5.900  11.133   1.298  0.3070  0.2961 -0.4783
  997MOL0     H34552   5.879  11.281   1.375 -2.1375 -1.7228  2.5274
  997MOL0     H34553   5.870  11.150   1.586  0.3411 -3.4781  1.9020
  997MOL0     H34554   5.998  11.044   1.528 -0.7635 -1.7527  0.5678
  997MOL0     H34555   5.902  10.762   1.528  1.9919  1.4878  0.9641
  997MOL0     H34556   5.916  10.566   1.626 -0.6051  3.0728 -1.0999
  997MOL0     H34557   5.938  10.579   1.802  2.8690 -2.0129 -2.1491
  997MOL0     H34558   5.782  10.513   1.731  1.8259 -1.0516  2.5156
  997MOL0     H34559   5.594  10.519   2.119 -1.9008  0.4082 -2.5074
  997MOL0     H34560   5.472  10.448   2.309 -2.5011 -1.2349 -0.9254
  997MOL0     H34561   5.353  10.400   2.491 -1.3751  0.6413  0.5481
  997MOL0     H34562   5.482  10.522   2.537  0.3797  0.1913 -4.6126
  997MOL0     H34563   5.402  10.424   2.734  0.0963  2.2302  1.6065
  997MOL0     H34564   5.313  10.575   2.727  0.2123 -0.6232  0.7408
  997MOL0     H34565   5.204  10.310   2.630  2.4277 -1.2133  0.4443
  997MOL0     H34566   5.114  10.472   2.626 -2.2958 -1.4673  2.0965
  997MOL0     H34567   5.158  10.307   2.846 -1.5273 -1.0380  0.1206
  997MOL0     H34568   5.161  10.482   2.887 -2.6727  0.2001  0.0697
  997MOL0     H34569   4.950  10.509   2.799  1.7305  1.8727  2.8764
  997MOL0     H34570   4.945  10.405   2.936  1.2956 -1.0555 -0.5826
  997MOL0     H34571   4.798  10.335   2.744  0.0350  0.6512  1.1676
  997MOL0     H34572   4.936  10.271   2.657  3.1592 -0.8918  0.5313
  997MOL0     H34573   4.895  10.190   2.950  2.5699  0.3289  0.2440
  997MOL0     H34574   4.991  10.105   2.836 -0.6465 -0.0938  3.4905
  997MOL0     H34575   4.685  10.134   2.844 -0.1567 -3.1934  2.4478
  997MOL0     H34576   4.783   9.986   2.845  0.0428  0.3146 -1.0742
  997MOL0     H34577   5.297  10.844   2.355  1.4204  0.3642  0.0288
  997MOL0     H34578   5.392  10.898   2.126  0.9034 -1.0022 -1.0380
  997MOL0     H34579   5.567  10.950   1.837  0.0984  0.2991 -0.4981
  997MOL0     H34580   5.639  11.085   1.647 -0.4598 -0.5904 -2.2490
  997MOL0     H34581   7.413  11.090   0.620 -0.7720  1.9213  1.2652
  997MOL0     H34582   7.533  10.918   0.764 -0.3080  0.2587 -1.7892
  997MOL0     H34583   7.600  10.835   1.323  0.3050 -1.0617  1.3390
  997MOL0     H34584   7.686  10.665   1.458 -2.6375 -0.0298  2.0835
  997MOL0     H34585   7.508  10.407   1.538  0.5577  0.7556 -1.4600
  997MOL0     H34586   7.576  10.246   1.501  1.1380 -1.3829  3.9976
  997MOL0     H34587   7.558  10.330   1.747  1.0825  1.5318  0.4837
  997MOL0     H34588   7.675  10.442   1.715  1.7140 -0.4566  1.4639
  997MOL0     H34589   7.734  10.258   1.833  1.2453  1.9676 -0.2589
  997MOL0     H34590   7.834  10.304   1.695 -1.9756  3.9945 -0.4061
  997MOL0     H34591   7.767  10.091   1.575  2.3729 -1.9826  0.6673
  997MOL0     H34592   7.649  10.044   1.706  0.8186 -2.0262 -0.4095
  997MOL0     H34593   8.011   9.893   1.844  0.8929  2.4694  1.7705
  997MOL0     H34594   7.544  10.355   1.218 -1.2079 -0.3314  3.2095
  997MOL0     H34595   7.427  10.512   1.076 -1.9400  0.6528  0.7604
  998MOL0     O34596   3.375   2.560   3.787  0.5173 -0.1379  1.0079
  998MOL0     C34597   3.416   2.585   3.673 -0.3967  0.5463  0.1266
  998MOL0     O34598   3.418   2.500   3.563 -0.0251  0.1528  0.1833
  998MOL0     C34599   3.331   2.389   3.586  0.6404  0.0291  0.1946
  998MOL0     C34600   3.372   2.276   3.653  0.4103 -0.3052 -0.2829
  998MOL0     C34601   3.299   2.164   3.663 -0.1318  0.1320  0.2126
  998MOL0     C34602   3.167   2.158   3.619  0.0331 -0.3098 -0.1522
  998MOL0     O34603   3.081   2.056   3.647 -0.4627 -0.3499 -0.9459
  998MOL0     C34604   3.099   1.977   3.764  0.7616 -0.0423 -0.3324
  998MOL0     C34605   3.088   1.832   3.741  0.1687  0.3035 -0.3784
  998MOL0     C34606   2.967   1.801   3.650  0.0590 -0.2215 -0.7376
  998MOL0     C34607   2.949   1.650   3.636  1.0966 -0.6849  0.5866
  998MOL0     C34608   2.841   1.610   3.540 -0.8183 -1.6999 -1.7273
  998MOL0     C34609   2.701   1.629   3.607 -0.0653  0.3946  0.2177
  998MOL0     C34610   2.589   1.568   3.530 -0.0015  0.0986  0.5967
  998MOL0     C34611   2.582   1.412   3.544 -0.2173 -0.5020 -0.1366
  998MOL0     N34612   2.492   1.349   3.449  0.5080 -0.5382  1.0183
  998MOL0     C34613   2.364   1.317   3.472 -0.6845 -0.0458  0.5356
  998MOL0     C34614   2.319   1.251   3.356 -0.3747  0.0458  0.3116
  998MOL0     C34615   2.173   1.217   3.331  0.4161  0.3262  0.0558
  998MOL0     C34616   2.108   1.120   3.432 -0.1409  0.2950 -0.2374
  998MOL0     C34617   1.964   1.087   3.396  0.5084  0.2697  0.2628
  998MOL0     C34618   1.872   1.209   3.390 -0.4563 -0.1722  0.2704
  998MOL0     O34619   1.871   1.275   3.517  0.1357 -1.4111 -0.0949
  998MOL0     C34620   1.830   1.410   3.514 -0.5612 -0.2832  0.3372
  998MOL0     C34621   1.761   1.475   3.410 -0.1560 -0.2262 -0.3684
  998MOL0     C34622   1.704   1.605   3.429  0.4242  0.6957  0.1459
  998MOL0     C34623   1.643   1.669   3.305 -0.5531  0.0290  0.0083
  998MOL0     C34624   1.699   1.660   3.562 -0.3343 -0.0970  0.1592
  998MOL0     C34625   1.624   1.779   3.585  1.0019  0.2189 -0.2978
  998MOL0     O34626   1.673   1.848   3.694  0.7147  0.0875  0.6905
  998MOL0     C34627   1.590   1.942   3.755  0.0867 -0.2949  0.7299
  998MOL0     C34628   1.642   2.061   3.796 -0.5440 -0.6425  0.4908
  998MOL0     C34629   1.559   2.155   3.858 -0.1418 -0.5120 -0.2556
  998MOL0     C34630   1.426   2.118   3.897 -0.7419 -0.1066  0.2589
  998MOL0     O34631   1.332   2.207   3.940  0.1799  0.0093 -0.4973
  998MOL0     C34632   1.367   2.333   3.998  0.2450 -0.4977 -0.0331
  998MOL0     C34633   1.255   2.375   4.089 -0.0103 -1.0016  0.2112
  998MOL0     C34634   1.280   2.521   4.137 -0.1131 -0.1236  1.2169
  998MOL0     C34635   1.160   2.570   4.235 -0.4313 -0.7264  0.2208
  998MOL0     C34636   1.161   2.725   4.268  0.4026 -0.1390 -0.5365
  998MOL0     C34637   1.081   2.754   4.404  0.4061 -0.0410  0.4800
  998MOL0     C34638   1.184   2.785   4.513 -0.5074 -0.3511  0.2935
  998MOL0     C34639   1.146   2.856   4.633  0.4676 -1.3042  0.1286
  998MOL0    Cl34640   1.031   2.769   4.729 -0.1378  0.0766  0.8329
  998MOL0     C34641   1.382   1.992   3.870  0.2128 -0.7429  0.7177
  998MOL0     C34642   1.461   1.905   3.800  0.5954 -0.5852 -0.0952
  998MOL0     O34643   1.524   1.812   3.526  0.5993  0.8793 -0.0299
  998MOL0     C34644   1.758   1.587   3.663 -0.1482  1.0385  0.2257
  998MOL0     C34645   1.829   1.469   3.645  1.1585  0.5408 -0.2812
  998MOL0     N34646   2.429   1.235   3.275  0.0787  0.7027  0.1561
  998MOL0     N34647   2.531   1.285   3.339 -0.1852  0.5731 -0.2706
  998MOL0     C34648   3.118   2.263   3.534  0.1193 -0.1034 -0.5351
  998MOL0     C34649   3.200   2.385   3.517  0.2652  0.7076  0.2242
  998MOL0     C34650   3.466   2.719   3.641 -0.2636  1.2600 -0.0000
  998MOL0     C34651   3.524   2.789   3.747 -0.8384  0.0789  0.2084
  998MOL0     C34652   3.598   2.908   3.706  0.0651  0.3421 -0.4070
  998MOL0     C34653   3.576   2.968   3.582  0.4754  0.0613  0.2752
  998MOL0     O34654   3.612   3.106   3.577  0.4889 -0.4783 -0.0381
  998MOL0     C34655   3.506   3.186   3.530  0.5647 -1.0957  0.8010
  998MOL0     C34656   3.536   3.325   3.509 -0.1878 -0.4739  0.6727
  998MOL0     C34657   3.413   3.410   3.497 -0.2131 -1.2111  0.1229
  998MOL0     C34658   3.449   3.568   3.514 -0.9668  0.0673  0.4279
  998MOL0     C34659   3.548   3.612   3.419 -0.4134  0.8864  0.3904
  998MOL0     C34660   3.628   3.630   3.336  0.2652 -0.4583  0.0978
  998MOL0     C34661   3.526   2.893   3.478 -0.0819 -1.3733 -0.4479
  998MOL0     C34662   3.472   2.769   3.509 -0.2584  0.2860 -0.4350
  998MOL0     H34663   3.475   2.263   3.681  0.7332  0.9786 -0.8028
  998MOL0     H34664   3.339   2.069   3.696 -3.5703 -2.5270 -2.4944
  998MOL0     H34665   3.180   2.008   3.831 -1.6139  0.3260  2.5464
  998MOL0     H34666   3.012   2.007   3.822  0.8899  0.2792 -0.3057
  998MOL0     H34667   3.186   1.804   3.701  0.7424 -0.6886  1.5858
  998MOL0     H34668   3.081   1.779   3.837 -2.5052 -0.1337 -0.7487
  998MOL0     H34669   2.870   1.842   3.681 -0.8139 -0.1175 -3.3309
  998MOL0     H34670   2.980   1.861   3.559 -0.3368  1.0962  0.0478
  998MOL0     H34671   3.042   1.599   3.610  0.7843 -0.4796 -1.0425
  998MOL0     H34672   2.911   1.619   3.734 -1.5072  0.4357  0.0022
  998MOL0     H34673   2.857   1.668   3.449  1.7455  2.1833  0.9171
  998MOL0     H34674   2.851   1.505   3.511 -1.4247 -1.9741 -0.9808
  998MOL0     H34675   2.722   1.581   3.703 -0.2080  3.3564  1.8408
  998MOL0     H34676   2.677   1.731   3.639 -1.0927 -0.0382  0.8535
  998MOL0     H34677   2.499   1.617   3.569 -0.6308 -2.2055  2.2775
  998MOL0     H34678   2.614   1.593   3.427  3.5801 -1.0687  1.0617
  998MOL0     H34679   2.554   1.382   3.646  0.9924  0.6356  0.5604
  998MOL0     H34680   2.679   1.364   3.527  0.4392  1.2760 -1.7868
  998MOL0     H34681   2.296   1.343   3.553 -1.2968 -2.3983  0.8415
  998MOL0     H34682   2.128   1.317   3.332  2.4198  1.3087 -1.0764
  998MOL0     H34683   2.175   1.189   3.226  0.4991  0.8306 -0.0824
  998MOL0     H34684   2.112   1.165   3.531 -1.3467  2.7056 -1.2086
  998MOL0     H34685   2.168   1.029   3.429 -1.0701 -0.3187 -0.6807
  998MOL0     H34686   1.929   1.015   3.471  1.0705  0.3726  0.6340
  998MOL0     H34687   1.954   1.030   3.304  1.3493  0.4443  0.0544
  998MOL0     H34688   1.773   1.180   3.353 -1.5940  5.0594 -1.6500
  998MOL0     H34689   1.909   1.280   3.315  1.9516 -2.0762 -0.4772
  998MOL0     H34690   1.750   1.421   3.317 -0.7680  1.3070 -1.2298
  998MOL0     H34691   1.534   1.682   3.313 -0.8695 -1.5583 -1.2452
  998MOL0     H34692   1.705   1.754   3.279  0.7488 -0.8766  0.0757
  998MOL0     H34693   1.656   1.604   3.218 -0.3881  2.7044 -2.0803
  998MOL0     H34694   1.745   2.084   3.771 -0.4808 -3.3464 -2.3089
  998MOL0     H34695   1.597   2.255   3.873  1.9758 -0.7254 -3.2749
  998MOL0     H34696   1.469   2.341   4.036  0.7852 -0.6568 -1.3867
  998MOL0     H34697   1.354   2.398   3.911 -1.3927 -0.8968 -0.1253
  998MOL0     H34698   1.159   2.380   4.037  0.8588 -0.6501 -1.4383
  998MOL0     H34699   1.248   2.305   4.173 -1.5142  1.4768  2.3104
  998MOL0     H34700   1.281   2.586   4.048  0.7612  0.3117  1.5345
  998MOL0     H34701   1.371   2.531   4.196 -1.6667  1.7830  3.4745
  998MOL0     H34702   1.068   2.547   4.181 -1.3227  0.2947  1.2451
  998MOL0     H34703   1.151   2.513   4.328  3.0282  0.6941  1.6365
  998MOL0     H34704   1.107   2.781   4.191  0.0092 -1.9378 -1.6279
  998MOL0     H34705   1.263   2.763   4.280  0.9107 -1.2712 -1.1703
  998MOL0     H34706   1.033   2.851   4.384 -0.9195 -0.2921  2.2025
  998MOL0     H34707   0.998   2.686   4.426 -0.4800  1.3061  1.4649
  998MOL0     H34708   1.262   2.856   4.482 -0.6095 -0.4273 -0.1410
  998MOL0     H34709   1.225   2.689   4.548 -1.2581  0.2829  3.2383
  998MOL0     H34710   1.101   2.949   4.599 -1.0642 -2.8200 -2.3273
  998MOL0     H34711   1.230   2.870   4.702  1.5017  1.0185 -1.5027
  998MOL0     H34712   1.287   1.967   3.917  1.2067 -0.5308  2.9795
  998MOL0     H34713   1.420   1.807   3.780 -4.8797  1.2010  0.6029
  998MOL0     H34714   1.741   1.617   3.766 -1.2130  1.1521  0.0302
  998MOL0     H34715   1.868   1.428   3.737 -4.5256 -1.0877  1.7962
  998MOL0     H34716   3.024   2.259   3.480  1.3615 -0.7074 -2.7415
  998MOL0     H34717   3.159   2.472   3.469 -1.6582 -0.2615  0.0109
  998MOL0     H34718   3.532   2.764   3.853 -1.1383  1.2544  0.5237
  998MOL0     H34719   3.655   2.957   3.784  2.1248 -1.5975 -0.5823
  998MOL0     H34720   3.446   3.132   3.456 -0.6058 -1.1645  1.7707
  998MOL0     H34721   3.438   3.198   3.615 -1.5370  0.1890 -0.9487
  998MOL0     H34722   3.593   3.328   3.416  2.2551 -0.0264  2.0927
  998MOL0     H34723   3.608   3.362   3.582 -1.9538  1.9231  1.3297
  998MOL0     H34724   3.363   3.389   3.593  0.0461 -4.9431 -0.4114
  998MOL0     H34725   3.348   3.376   3.416  0.0820 -3.8531  0.9028
  998MOL0     H34726   3.485   3.581   3.617  1.8238  1.3214 -0.6044
  998MOL0     H34727   3.355   3.620   3.497 -0.9996 -0.2854 -0.5776
  998MOL0     H34728   3.687   3.642   3.247  0.2747  2.7533  0.4033
  998MOL0     H34729   3.508   2.934   3.379 -1.1404  3.4622  1.4624
  998MOL0     H34730   3.417   2.697   3.449  1.2155  0.0450 -1.5459
  999MOL0     O34731   2.099   3.494   6.481 -0.4339  0.4445 -0.3700
  999MOL0     C34732   2.132   3.408   6.559  0.1083 -0.2667  0.1136
  999MOL0     O34733   2.245   3.328   6.564 -0.3317 -0.7076  0.5756
  999MOL0     C34734   2.340   3.347   6.469 -0.5946 -0.4393 -0.4076
  999MOL0     C34735   2.372   3.471   6.408  0.6717 -0.3345  0.6666
  999MOL0     C34736   2.453   3.477   6.302  0.2793  0.1563  0.7662
  999MOL0     C34737   2.501   3.356   6.247  0.4020  0.3884 -0.4980
  999MOL0     O34738   2.589   3.362   6.138  0.3606 -0.9867  0.4123
  999MOL0     C34739   2.714   3.293   6.140  0.3917 -0.8520 -0.6757
  999MOL0     C34740   2.811   3.366   6.229 -0.2406  0.0618 -0.2955
  999MOL0     C34741   2.943   3.293   6.212  0.2228 -0.5252 -0.1551
  999MOL0     C34742   3.053   3.373   6.139  0.2274  1.3333 -0.3691
  999MOL0     C34743   3.182   3.310   6.181 -0.0899 -1.0477 -0.3671
  999MOL0     C34744   3.306   3.402   6.130 -1.0206  0.2736 -1.4171
  999MOL0     C34745   3.357   3.496   6.248 -0.1901 -0.6665 -0.4541
  999MOL0     C34746   3.486   3.456   6.321 -1.1386  0.9026  0.0540
  999MOL0     N34747   3.466   3.329   6.399  0.1828 -0.4329  0.7146
  999MOL0     C34748   3.546   3.301   6.518  0.2361 -0.9018 -1.1569
  999MOL0     C34749   3.555   3.164   6.518 -0.5176 -0.3722 -0.9618
  999MOL0     C34750   3.634   3.079   6.624 -0.3012 -0.0328  0.3205
  999MOL0     C34751   3.643   3.150   6.755 -0.1183  0.5360 -1.3246
  999MOL0     C34752   3.755   3.251   6.779 -0.6768 -0.6865  0.6889
  999MOL0     C34753   3.739   3.339   6.901  0.0260 -0.7035 -0.4567
  999MOL0     O34754   3.746   3.260   7.019 -0.6555 -0.3709 -0.6031
  999MOL0     C34755   3.639   3.281   7.094  0.4370 -0.8139  0.4244
  999MOL0     C34756   3.644   3.397   7.174  0.7507 -0.3234 -0.0332
  999MOL0     C34757   3.532   3.436   7.250  0.9182 -0.8820  0.0008
  999MOL0     C34758   3.542   3.555   7.342  0.5041  0.1582 -0.5280
  999MOL0     C34759   3.414   3.354   7.244 -1.0810 -0.6303 -1.1152
  999MOL0     C34760   3.297   3.376   7.341  0.2278  0.0507  0.1444
  999MOL0     O34761   3.223   3.263   7.353 -0.3557  0.6540 -0.5426
  999MOL0     C34762   3.124   3.247   7.450  0.7567 -1.2949  1.4715
  999MOL0     C34763   3.124   3.307   7.576  0.9104  0.6712  0.5778
  999MOL0     C34764   3.028   3.286   7.673 -0.1468  0.2662 -0.6727
  999MOL0     C34765   2.927   3.190   7.655 -0.9696  0.7364 -0.4291
  999MOL0     O34766   2.833   3.179   7.754 -0.7847  0.5451 -0.0793
  999MOL0     C34767   2.705   3.147   7.713 -1.0814 -0.0430 -0.1978
  999MOL0     C34768   2.620   3.211   7.809  0.5067 -0.2121 -0.9660
  999MOL0     C34769   2.626   3.163   7.952 -0.6288  0.3473 -0.2952
  999MOL0     C34770   2.511   3.223   8.031 -0.9046  0.8845 -1.5068
  999MOL0     C34771   2.473   3.137   8.151  0.2930  0.0799 -0.1068
  999MOL0     C34772   2.567   3.177   8.266  0.0651 -0.2140 -0.1894
  999MOL0     C34773   2.552   3.101   8.395  0.2835 -0.2056 -0.5832
  999MOL0     C34774   2.415   3.042   8.413  0.3978  0.6870 -1.3670
  999MOL0    Cl34775   2.424   2.948   8.573 -0.3614 -0.2060  0.7482
  999MOL0     C34776   2.909   3.142   7.527 -0.8916 -0.0062  0.0097
  999MOL0     C34777   3.008   3.162   7.423  0.9430 -0.1535 -0.0476
  999MOL0     O34778   3.268   3.487   7.382  0.1674 -0.4674 -0.1339
  999MOL0     C34779   3.419   3.233   7.168  0.6523  0.0190  0.2333
  999MOL0     C34780   3.528   3.196   7.091  0.6061  0.3312 -0.1113
  999MOL0     N34781   3.472   3.113   6.412  0.1411 -0.0417 -0.5297
  999MOL0     N34782   3.429   3.212   6.337  0.5680 -0.5365 -0.0279
  999MOL0     C34783   2.472   3.233   6.319 -0.7390 -0.4223  1.1949
  999MOL0     C34784   2.403   3.232   6.430  0.4828  0.3372 -0.3852
  999MOL0     C34785   2.045   3.394   6.679 -0.0337 -0.6433  0.7242
  999MOL0     C34786   1.975   3.503   6.727  0.6718  0.4205 -0.8626
  999MOL0     C34787   1.891   3.487   6.836 -0.2091 -1.1047  0.5601
  999MOL0     C34788   1.879   3.375   6.912 -0.0519 -0.2852 -0.5136
  999MOL0     O34789   1.824   3.367   7.041 -0.2725  0.5008 -0.2718
  999MOL0     C34790   1.682   3.403   7.052 -0.7266 -0.3458 -0.4556
  999MOL0     C34791   1.651   3.420   7.205 -0.9183  0.4771 -0.1424
  999MOL0     C34792   1.511   3.468   7.243 -0.1964  0.1677  0.7769
  999MOL0     C34793   1.401   3.401   7.166  0.2052  0.5593  0.0483
  999MOL0     C34794   1.363   3.466   7.043  0.7296  0.1807 -0.0341
  999MOL0     C34795   1.323   3.511   6.934 -0.4469 -0.7958  0.1279
  999MOL0     C34796   1.971   3.279   6.874  1.0112  0.0253  0.5446
  999MOL0     C34797   2.038   3.276   6.752 -0.3402 -0.2308  0.5154
  999MOL0     H34798   2.324   3.557   6.454  0.3564 -0.0581 -0.1723
  999MOL0     H34799   2.475   3.570   6.252  0.0384 -0.5005 -0.6234
  999MOL0     H34800   2.695   3.193   6.180 -1.1327 -0.1264  0.5562
  999MOL0     H34801   2.764   3.275   6.045 -0.2450  2.8469 -1.8629
  999MOL0     H34802   2.818   3.474   6.212  0.8373 -0.0406 -0.5725
  999MOL0     H34803   2.787   3.354   6.335 -2.6165 -1.2258 -0.8946
  999MOL0     H34804   2.986   3.273   6.311  1.6290  0.9207 -0.4385
  999MOL0     H34805   2.927   3.190   6.179 -1.2218 -0.2882 -0.2442
  999MOL0     H34806   3.032   3.360   6.032 -0.8734  3.2120 -0.4270
  999MOL0     H34807   3.046   3.479   6.163  0.2914  0.5969  3.6118
  999MOL0     H34808   3.180   3.287   6.288 -1.0668 -3.9536 -0.9163
  999MOL0     H34809   3.186   3.213   6.130 -1.1868 -2.1420  1.5155
  999MOL0     H34810   3.394   3.341   6.109 -1.0203 -0.8750  1.4832
  999MOL0     H34811   3.290   3.469   6.045  3.2491  1.7390 -1.2651
  999MOL0     H34812   3.389   3.584   6.191 -0.9782  0.5135  0.8443
  999MOL0     H34813   3.274   3.518   6.316 -0.4769 -2.8389 -0.0222
  999MOL0     H34814   3.527   3.530   6.390 -2.6066  1.2919  0.5499
  999MOL0     H34815   3.555   3.445   6.237 -1.8744  2.4404 -0.8078
  999MOL0     H34816   3.593   3.375   6.581  0.1171 -1.9287  0.1940
  999MOL0     H34817   3.572   2.988   6.631  2.2410 -1.8095  1.4456
  999MOL0     H34818   3.729   3.048   6.581  0.1776  1.6300  0.1256
  999MOL0     H34819   3.650   3.082   6.840  1.1014  1.5150 -0.6024
  999MOL0     H34820   3.556   3.214   6.773  0.4571  1.2127 -0.8623
  999MOL0     H34821   3.757   3.314   6.690 -0.1584  0.1808  1.2903
  999MOL0     H34822   3.843   3.186   6.775 -0.9844 -1.0238 -1.7149
  999MOL0     H34823   3.641   3.385   6.884  1.7127  3.2345 -0.6433
  999MOL0     H34824   3.820   3.412   6.904 -1.0954  0.5539  0.7887
  999MOL0     H34825   3.736   3.453   7.181  0.0037  0.8418  0.8695
  999MOL0     H34826   3.496   3.525   7.437 -1.8017  0.5446 -1.4507
  999MOL0     H34827   3.649   3.565   7.359  0.6173 -0.6795 -0.6973
  999MOL0     H34828   3.496   3.646   7.302 -2.4407 -0.8200  0.3614
  999MOL0     H34829   3.207   3.372   7.600  0.4635  0.7548  1.9907
  999MOL0     H34830   3.031   3.314   7.778  0.7449 -6.2431  1.5031
  999MOL0     H34831   2.664   3.173   7.615  1.3015  2.3928 -0.6442
  999MOL0     H34832   2.690   3.040   7.728 -0.1688 -0.1098  0.2741
  999MOL0     H34833   2.645   3.315   7.790  3.6241 -1.3370 -4.1672
  999MOL0     H34834   2.517   3.192   7.777  0.4700 -0.2731 -0.8126
  999MOL0     H34835   2.723   3.198   7.991 -0.1630 -3.9085  3.1700
  999MOL0     H34836   2.630   3.054   7.942  3.4055  0.4586 -2.3132
  999MOL0     H34837   2.541   3.327   8.051 -1.5305  1.3996 -3.1121
  999MOL0     H34838   2.424   3.221   7.965 -1.2955  0.8366 -0.9992
  999MOL0     H34839   2.475   3.028   8.143  0.9353  0.0370  0.5598
  999MOL0     H34840   2.371   3.169   8.171  0.0841  0.0284 -1.0381
  999MOL0     H34841   2.670   3.174   8.231  0.6315  1.7105  1.1971
  999MOL0     H34842   2.547   3.282   8.290 -3.5113 -0.3556 -1.8049
  999MOL0     H34843   2.561   3.171   8.478  2.6054 -1.9253  0.7209
  999MOL0     H34844   2.636   3.031   8.395 -0.3876 -1.0539  0.9513
  999MOL0     H34845   2.394   2.971   8.332  1.3782  0.6457 -1.5969
  999MOL0     H34846   2.330   3.110   8.405 -0.2870  0.1357  0.7758
  999MOL0     H34847   2.830   3.068   7.513 -1.9262  1.4279 -2.1719
  999MOL0     H34848   3.003   3.108   7.329  2.4948  2.0971 -1.5125
  999MOL0     H34849   3.336   3.165   7.181  1.6350 -1.6200 -1.6128
  999MOL0     H34850   3.524   3.105   7.032  0.0140 -0.3132  0.8980
  999MOL0     H34851   2.513   3.138   6.287 -1.4049 -0.1448 -0.6149
  999MOL0     H34852   2.380   3.142   6.486 -0.8472  0.8912  0.0157
  999MOL0     H34853   1.968   3.595   6.671  0.2027  2.1678  1.8420
  999MOL0     H34854   1.826   3.572   6.852 -0.9901 -1.1842 -1.8792
  999MOL0     H34855   1.661   3.494   6.995  0.3079 -0.4851 -1.0805
  999MOL0     H34856   1.625   3.325   7.002 -0.5758  0.1474 -1.4274
  999MOL0     H34857   1.720   3.490   7.253  0.6230 -1.8610  1.2482
  999MOL0     H34858   1.665   3.322   7.251  2.6272  0.7474 -0.3651
  999MOL0     H34859   1.508   3.576   7.225  0.7843 -0.0878 -1.1506
  999MOL0     H34860   1.503   3.451   7.351 -0.6606  0.1399  0.7389
  999MOL0     H34861   1.316   3.398   7.235 -0.2837  1.5305 -0.4860
  999MOL0     H34862   1.436   3.301   7.138 -2.1709 -0.6589  1.0587
  999MOL0     H34863   1.292   3.538   6.835 -0.4584 -0.7805  0.1358
  999MOL0     H34864   1.986   3.198   6.945 -0.1730 -1.0082 -0.3305
  999MOL0     H34865   2.088   3.184   6.723  1.3464  0.9437 -0.4609
 1000MOL0     O34866   4.747   7.470   7.467 -0.3655  0.4530 -0.0209
 1000MOL0     C34867   4.733   7.490   7.591  0.1116  1.0343 -0.8241
 1000MOL0     O34868   4.633   7.557   7.648  0.1495 -0.3057 -0.3347
 1000MOL0     C34869   4.544   7.633   7.568  0.5029 -0.6286 -0.2285
 1000MOL0     C34870   4.424   7.679   7.627  0.8774 -0.5315  1.5898
 1000MOL0     C34871   4.351   7.783   7.573 -0.3911 -0.0922 -0.1455
 1000MOL0     C34872   4.391   7.855   7.458  0.9655  0.8050  0.6875
 1000MOL0     O34873   4.293   7.936   7.405 -0.0448  0.9444  0.1721
 1000MOL0     C34874   4.333   8.039   7.311  0.2701  0.2359 -0.4319
 1000MOL0     C34875   4.346   7.988   7.164 -0.0324 -1.1442 -0.0315
 1000MOL0     C34876   4.335   8.103   7.075  0.1835  0.2078 -0.0720
 1000MOL0     C34877   4.346   8.053   6.929 -0.1099  0.0997  0.5409
 1000MOL0     C34878   4.312   8.172   6.834  0.8853 -0.9349 -0.4645
 1000MOL0     C34879   4.365   8.142   6.693  0.3360 -0.3829  1.0281
 1000MOL0     C34880   4.406   8.266   6.632 -0.7051 -1.2834 -0.5227
 1000MOL0     C34881   4.564   8.284   6.627  0.4053 -0.1990  0.8272
 1000MOL0     N34882   4.617   8.283   6.760  0.1158  0.4831  0.7323
 1000MOL0     C34883   4.690   8.179   6.811 -0.1172  0.6803 -0.4037
 1000MOL0     C34884   4.695   8.207   6.941  0.2109  0.3734  0.6889
 1000MOL0     C34885   4.721   8.116   7.054 -0.6608 -0.8481  0.5627
 1000MOL0     C34886   4.865   8.110   7.082 -0.4161 -1.1790 -0.2576
 1000MOL0     C34887   4.982   8.080   6.980  1.0432  0.0678 -0.3085
 1000MOL0     C34888   4.970   7.938   6.931 -0.5333 -0.2934 -0.4282
 1000MOL0     O34889   5.064   7.926   6.819 -0.7412  0.1820  0.4717
 1000MOL0     C34890   5.191   7.879   6.847 -0.6197 -0.3308 -0.4477
 1000MOL0     C34891   5.244   7.830   6.974  0.1796 -0.8758  0.1699
 1000MOL0     C34892   5.378   7.805   6.989 -1.4153 -0.7998 -0.9599
 1000MOL0     C34893   5.424   7.751   7.128 -0.6989  1.0348  0.8143
 1000MOL0     C34894   5.469   7.812   6.876  0.8221  0.7367 -0.6247
 1000MOL0     C34895   5.615   7.797   6.897  0.0338  0.2505  0.1117
 1000MOL0     O34896   5.694   7.913   6.903 -0.5318 -0.6977  0.4258
 1000MOL0     C34897   5.827   7.886   6.949  0.1746 -0.3639  0.2798
 1000MOL0     C34898   5.934   7.898   6.866 -1.1379 -0.0658 -0.2990
 1000MOL0     C34899   6.066   7.861   6.910  0.9252  0.6126  0.6401
 1000MOL0     C34900   6.083   7.797   7.036 -0.0675 -0.3253  0.4227
 1000MOL0     O34901   6.187   7.720   7.077  0.0983  0.6401  0.1108
 1000MOL0     C34902   6.295   7.709   6.995 -0.5368 -0.9219  0.3159
 1000MOL0     C34903   6.396   7.609   7.068 -0.5677  0.0287 -0.6750
 1000MOL0     C34904   6.473   7.506   6.964 -0.0546 -0.5886  0.6605
 1000MOL0     C34905   6.606   7.567   6.924 -0.4758 -0.4240  0.6750
 1000MOL0     C34906   6.676   7.482   6.820 -0.7178 -0.1508 -0.5137
 1000MOL0     C34907   6.835   7.500   6.828 -0.1119 -0.5925 -0.7671
 1000MOL0     C34908   6.916   7.368   6.826  0.6786  0.6543  0.5429
 1000MOL0     C34909   6.917   7.284   6.946  0.7628  0.4189  0.2860
 1000MOL0    Cl34910   6.995   7.127   6.927  0.0819 -0.1117 -0.2969
 1000MOL0     C34911   5.981   7.804   7.126  0.6308  0.1274  0.3633
 1000MOL0     C34912   5.857   7.847   7.083 -0.5939  0.3284 -0.0925
 1000MOL0     O34913   5.651   7.676   6.902 -0.3003 -0.4799  0.3434
 1000MOL0     C34914   5.410   7.842   6.752  1.1371 -1.1559 -0.8077
 1000MOL0     C34915   5.282   7.879   6.740  0.5687 -0.2588  0.0788
 1000MOL0     N34916   4.638   8.334   6.960 -0.3875  0.1967  1.0051
 1000MOL0     N34917   4.596   8.381   6.845  0.0997 -0.6021 -1.0104
 1000MOL0     C34918   4.509   7.814   7.393  0.4966 -0.0929 -0.1070
 1000MOL0     C34919   4.579   7.701   7.445 -0.1081 -0.0845 -0.7052
 1000MOL0     C34920   4.828   7.420   7.669  1.1656 -0.0091 -0.1928
 1000MOL0     C34921   4.921   7.312   7.629 -0.3795  0.8455 -0.5272
 1000MOL0     C34922   5.001   7.242   7.714  0.4547 -1.3271  1.2014
 1000MOL0     C34923   5.018   7.283   7.845  0.2202  0.3709  0.3812
 1000MOL0     O34924   5.093   7.205   7.925  0.3224  0.1955 -0.6884
 1000MOL0     C34925   5.222   7.268   7.966  0.3136  0.2872  0.6053
 1000MOL0     C34926   5.321   7.159   8.007 -0.9522 -0.4009  0.2704
 1000MOL0     C34927   5.469   7.191   8.015  0.4120  0.1458  0.0696
 1000MOL0     C34928   5.539   7.183   8.151 -0.0274  0.3604 -0.4895
 1000MOL0     C34929   5.600   7.051   8.186  1.6012 -1.0401  0.4176
 1000MOL0     C34930   5.670   6.952   8.210  0.2102  0.2736  0.4762
 1000MOL0     C34931   4.941   7.395   7.887  0.2548  0.0882 -0.7477
 1000MOL0     C34932   4.841   7.451   7.809  0.6252 -0.2117  1.3322
 1000MOL0     H34933   4.382   7.632   7.716  0.6966 -1.5716  0.9772
 1000MOL0     H34934   4.252   7.801   7.612 -0.4651 -0.5115 -0.1291
 1000MOL0     H34935   4.263   8.124   7.310 -2.2152 -1.6265  1.7391
 1000MOL0     H34936   4.430   8.081   7.339  1.2956 -0.7537 -2.2862
 1000MOL0     H34937   4.442   7.940   7.141  1.8502  1.0605  2.5265
 1000MOL0     H34938   4.270   7.911   7.147 -0.8536 -0.7730  1.7635
 1000MOL0     H34939   4.241   8.158   7.081  0.6785  0.9260  1.6983
 1000MOL0     H34940   4.418   8.172   7.093  0.9247 -0.7682  0.3128
 1000MOL0     H34941   4.451   8.028   6.918 -0.6688 -1.3002 -3.2125
 1000MOL0     H34942   4.288   7.962   6.909  0.9736 -0.3873 -0.4648
 1000MOL0     H34943   4.205   8.194   6.835  1.1354  0.4048 -1.4117
 1000MOL0     H34944   4.358   8.263   6.872  1.4964 -0.6820 -1.7338
 1000MOL0     H34945   4.444   8.067   6.701  1.0447  0.4693  2.3503
 1000MOL0     H34946   4.282   8.105   6.631  0.3577  2.2870 -0.7582
 1000MOL0     H34947   4.371   8.268   6.529  1.2372  3.8689 -1.3622
 1000MOL0     H34948   4.360   8.353   6.680 -2.4021 -1.7029 -1.3219
 1000MOL0     H34949   4.587   8.382   6.585 -0.1036 -1.0582 -1.6218
 1000MOL0     H34950   4.603   8.214   6.552  1.6942  0.9059  0.4301
 1000MOL0     H34951   4.692   8.077   6.774 -2.9454  1.1625 -2.1710
 1000MOL0     H34952   4.672   8.157   7.143 -5.3007 -1.6324 -1.3729
 1000MOL0     H34953   4.680   8.016   7.041 -1.2427 -0.6235  0.6520
 1000MOL0     H34954   4.872   8.034   7.161 -3.4496  2.1886  3.6944
 1000MOL0     H34955   4.894   8.205   7.128 -0.9139 -1.0222 -0.2590
 1000MOL0     H34956   5.078   8.101   7.028  0.0136  2.2658  0.9726
 1000MOL0     H34957   4.988   8.145   6.892  1.2090  0.7805  0.2252
 1000MOL0     H34958   4.873   7.912   6.887  0.9783 -2.1669 -2.9654
 1000MOL0     H34959   4.990   7.872   7.016 -0.9763  1.5607  1.1899
 1000MOL0     H34960   5.184   7.816   7.063  0.1957  2.5541  0.8506
 1000MOL0     H34961   5.533   7.755   7.129 -0.5644  1.6784 -2.8067
 1000MOL0     H34962   5.381   7.804   7.214 -5.3492 -2.9678  1.4145
 1000MOL0     H34963   5.400   7.645   7.141  1.9181  0.4877  1.7215
 1000MOL0     H34964   5.908   7.940   6.769 -1.2236  1.6263  0.4219
 1000MOL0     H34965   6.148   7.864   6.839 -0.5653 -2.5784 -1.4479
 1000MOL0     H34966   6.261   7.675   6.897 -1.3573 -1.4761  0.7735
 1000MOL0     H34967   6.357   7.798   6.986 -2.0829  0.1200 -0.4691
 1000MOL0     H34968   6.465   7.660   7.136 -1.9040  0.7450  0.1948
 1000MOL0     H34969   6.335   7.538   7.125  2.5523 -0.2403  2.7224
 1000MOL0     H34970   6.406   7.489   6.878  1.3210  0.0507 -0.5807
 1000MOL0     H34971   6.488   7.409   7.012  1.4301  0.0128  1.4606
 1000MOL0     H34972   6.589   7.668   6.886 -0.3117 -0.3036  0.9154
 1000MOL0     H34973   6.667   7.575   7.015 -0.3242  1.9959  0.4467
 1000MOL0     H34974   6.641   7.499   6.717 -1.1230 -2.1253 -0.7383
 1000MOL0     H34975   6.660   7.377   6.847 -0.6017  0.1566  0.7864
 1000MOL0     H34976   6.868   7.558   6.741 -1.1565 -0.4901 -1.1037
 1000MOL0     H34977   6.863   7.564   6.913  0.5260  0.6962 -1.9005
 1000MOL0     H34978   7.016   7.403   6.801  0.3150  0.7448 -0.8440
 1000MOL0     H34979   6.879   7.307   6.744  1.8042  0.3332  0.2601
 1000MOL0     H34980   6.816   7.272   6.985 -0.0072 -3.5290 -2.3228
 1000MOL0     H34981   6.962   7.337   7.031 -1.3875  0.8285  1.2451
 1000MOL0     H34982   5.983   7.769   7.229  2.8754 -1.4323 -0.1258
 1000MOL0     H34983   5.781   7.864   7.158 -0.1155 -1.7148  0.9433
 1000MOL0     H34984   5.461   7.876   6.662 -0.3892  4.9735  0.1831
 1000MOL0     H34985   5.251   7.929   6.649  1.6200 -1.0793 -0.7548
 1000MOL0     H34986   4.551   7.873   7.312 -0.4386 -0.6448 -1.0180
 1000MOL0     H34987   4.676   7.686   7.400 -1.5637 -2.6400 -3.3769
 1000MOL0     H34988   4.921   7.279   7.525 -2.0730 -1.5897  0.1717
 1000MOL0     H34989   5.051   7.150   7.686  0.2637 -2.1432  3.3355
 1000MOL0     H34990   5.246   7.327   7.877 -0.0064 -0.2427  0.1651
 1000MOL0     H34991   5.206   7.336   8.050  0.4332 -2.2023  2.7568
 1000MOL0     H34992   5.314   7.089   7.923 -2.0310  2.5604 -2.3120
 1000MOL0     H34993   5.279   7.108   8.094  1.8491  0.2114  2.1159
 1000MOL0     H34994   5.467   7.293   7.976  2.0897 -0.7315 -2.6055
 1000MOL0     H34995   5.524   7.130   7.943  0.5784 -3.5456  3.0005
 1000MOL0     H34996   5.466   7.220   8.223 -0.0646  5.1326 -2.6360
 1000MOL0     H34997   5.622   7.254   8.147 -0.3907  0.8037 -0.1345
 1000MOL0     H34998   5.733   6.869   8.235  2.9107  1.6823 -1.2623
 1000MOL0     H34999   4.954   7.420   7.992  0.2335 -0.7037 -0.5450
 1000MOL0     H35000   4.786   7.538   7.845  0.3367  0.6310 -0.9868
 1001MOL0     O35001   6.603   2.030   3.843 -0.1077  0.4719 -0.2051
 1001MOL0     C35002   6.681   2.107   3.789  0.4220  0.7759  0.1825
 1001MOL0     O35003   6.688   2.133   3.655 -0.3649 -0.3688  0.2540
 1001MOL0     C35004   6.586   2.103   3.569 -0.5629 -0.0918 -0.0625
 1001MOL0     C35005   6.589   1.977   3.517 -0.8904 -0.5322 -0.0748
 1001MOL0     C35006   6.492   1.933   3.421  0.3127 -0.0871 -0.1076
 1001MOL0     C35007   6.398   2.024   3.377 -0.4689 -1.3122  0.3619
 1001MOL0     O35008   6.310   1.987   3.277  0.1009  0.2454  0.1455
 1001MOL0     C35009   6.189   1.919   3.325 -0.3147 -0.3388 -0.5245
 1001MOL0     C35010   6.086   1.866   3.217  0.6991  0.4260 -0.2393
 1001MOL0     C35011   6.148   1.767   3.120 -0.2214 -0.2079 -0.2277
 1001MOL0     C35012   6.220   1.642   3.181  0.1490  0.0076 -0.0672
 1001MOL0     C35013   6.123   1.550   3.253 -0.1470 -0.0157  0.2328
 1001MOL0     C35014   6.110   1.426   3.161 -0.0580 -0.0558 -0.7763
 1001MOL0     C35015   6.218   1.312   3.178  0.3801  0.6167 -0.4527
 1001MOL0     C35016   6.185   1.223   3.290 -1.4045  0.4425  0.3501
 1001MOL0     N35017   6.291   1.126   3.308 -0.4495 -0.4099 -0.3995
 1001MOL0     C35018   6.406   1.153   3.378  0.6900  0.3106  0.0428
 1001MOL0     C35019   6.482   1.050   3.356 -0.5122 -1.2360 -0.6290
 1001MOL0     C35020   6.620   1.044   3.402  0.3717 -0.5052 -0.8313
 1001MOL0     C35021   6.687   0.916   3.348 -0.1173 -0.5202  0.2628
 1001MOL0     C35022   6.833   0.925   3.388  0.6146 -0.2685  0.3155
 1001MOL0     C35023   6.890   0.805   3.311  0.6510 -0.3313 -1.0750
 1001MOL0     O35024   6.900   0.831   3.170  0.2793 -0.1359 -0.7037
 1001MOL0     C35025   6.998   0.920   3.132  1.5170 -0.4772  0.5918
 1001MOL0     C35026   7.127   0.911   3.169 -0.4687 -0.0397  0.1846
 1001MOL0     C35027   7.214   1.017   3.136  0.6978  0.2408  0.1291
 1001MOL0     C35028   7.348   1.002   3.218  0.0531  0.1317 -0.0794
 1001MOL0     C35029   7.176   1.123   3.039 -1.4550 -0.2863 -1.0648
 1001MOL0     C35030   7.252   1.237   3.012 -0.9350 -0.0322 -0.1234
 1001MOL0     O35031   7.185   1.341   2.977  0.4195 -0.0279 -0.3253
 1001MOL0     C35032   7.245   1.462   2.951  1.0999 -0.0161  1.0276
 1001MOL0     C35033   7.378   1.497   2.949 -0.3063 -0.0911 -0.0467
 1001MOL0     C35034   7.423   1.628   2.939 -0.5111 -0.8044 -0.1347
 1001MOL0     C35035   7.339   1.733   2.938 -0.1309  0.0470 -0.1508
 1001MOL0     O35036   7.369   1.866   2.938  0.0193  0.3537  0.3518
 1001MOL0     C35037   7.296   1.944   2.846  0.2236  0.2136  0.1270
 1001MOL0     C35038   7.294   2.090   2.889  0.2344  0.0096  0.6232
 1001MOL0     C35039   7.216   2.175   2.787 -0.6057  0.2283  0.2999
 1001MOL0     C35040   7.062   2.150   2.792  0.0683 -0.0429  0.5224
 1001MOL0     C35041   6.987   2.262   2.725  0.0630  0.5305 -0.2121
 1001MOL0     C35042   6.979   2.394   2.799  0.7159  0.2763 -0.8764
 1001MOL0     C35043   6.850   2.472   2.784  0.1577 -1.2864  1.1453
 1001MOL0     C35044   6.834   2.535   2.648 -0.1998 -0.3648  1.5971
 1001MOL0    Cl35045   6.926   2.689   2.643 -0.4787 -0.0602 -0.8917
 1001MOL0     C35046   7.206   1.697   2.956  0.9296 -0.0438  0.5247
 1001MOL0     C35047   7.161   1.568   2.952 -0.0028  1.3977 -0.1148
 1001MOL0     O35048   7.372   1.228   3.023 -0.2937 -0.9292 -0.5079
 1001MOL0     C35049   7.033   1.119   3.002 -0.5865 -0.5784 -0.1288
 1001MOL0     C35050   6.949   1.028   3.055 -0.0371 -0.4367  0.6314
 1001MOL0     N35051   6.409   0.952   3.296 -0.5168 -0.0901 -0.0206
 1001MOL0     N35052   6.298   1.000   3.264 -0.2798  0.9511  0.3894
 1001MOL0     C35053   6.390   2.156   3.432  0.2411 -0.5536 -0.0503
 1001MOL0     C35054   6.491   2.193   3.528  0.2312 -0.1984  0.1777
 1001MOL0     C35055   6.800   2.146   3.868 -1.2288 -0.2050  1.1508
 1001MOL0     C35056   6.800   2.144   4.009  0.7181 -0.3616 -0.5290
 1001MOL0     C35057   6.911   2.176   4.093 -0.9334 -1.1061 -0.0255
 1001MOL0     C35058   7.031   2.194   4.037 -0.0440  0.1655  0.6734
 1001MOL0     O35059   7.158   2.209   4.101  0.5864 -0.1026 -0.4468
 1001MOL0     C35060   7.156   2.211   4.242 -0.3100 -0.5058 -0.0913
 1001MOL0     C35061   7.180   2.064   4.279  0.4415 -0.2024 -0.8301
 1001MOL0     C35062   7.154   2.047   4.429 -0.0662  0.6247  0.8173
 1001MOL0     C35063   7.198   1.902   4.465  0.3665 -0.4201 -0.0339
 1001MOL0     C35064   7.124   1.792   4.403  1.1368  0.7728 -0.4867
 1001MOL0     C35065   7.060   1.696   4.369  0.1927  0.1394 -0.2011
 1001MOL0     C35066   7.033   2.205   3.895 -0.6069 -0.4094 -0.5804
 1001MOL0     C35067   6.923   2.187   3.810 -0.3402 -0.0268 -0.4130
 1001MOL0     H35068   6.667   1.911   3.553 -1.7564 -2.8641 -2.1815
 1001MOL0     H35069   6.505   1.838   3.369  0.1259  0.2678 -0.8063
 1001MOL0     H35070   6.212   1.828   3.381  0.1034 -0.9850 -1.7097
 1001MOL0     H35071   6.134   1.979   3.398 -0.2583 -2.0057  0.9633
 1001MOL0     H35072   6.011   1.830   3.287  2.2355  1.5946  2.1778
 1001MOL0     H35073   6.046   1.959   3.176  0.9449  0.8579  0.4692
 1001MOL0     H35074   6.083   1.729   3.041 -0.8236  0.5908 -0.1311
 1001MOL0     H35075   6.227   1.823   3.068 -1.1972  0.8270 -0.6387
 1001MOL0     H35076   6.277   1.593   3.102  1.1664  3.4567 -1.6835
 1001MOL0     H35077   6.286   1.680   3.259  0.1398 -1.3117  0.6024
 1001MOL0     H35078   6.148   1.531   3.358 -0.1829 -0.7430  0.1153
 1001MOL0     H35079   6.020   1.586   3.256 -1.3108 -3.0808  1.0382
 1001MOL0     H35080   6.016   1.373   3.180  0.4796 -0.2540  1.5403
 1001MOL0     H35081   6.108   1.460   3.057  3.2265  2.4472 -0.1878
 1001MOL0     H35082   6.217   1.245   3.092  2.2122 -0.9410  0.6650
 1001MOL0     H35083   6.321   1.349   3.176  0.8033 -0.4760 -3.4801
 1001MOL0     H35084   6.084   1.187   3.267 -0.9360 -0.9445  0.3765
 1001MOL0     H35085   6.174   1.276   3.385 -4.6500  0.4122  0.1214
 1001MOL0     H35086   6.441   1.243   3.428  2.7547  0.6062 -1.7636
 1001MOL0     H35087   6.663   1.139   3.370 -3.1695  3.0424  3.6413
 1001MOL0     H35088   6.619   1.030   3.510  1.9068  0.4076 -0.6679
 1001MOL0     H35089   6.667   0.918   3.240 -1.6799  0.3949  0.5325
 1001MOL0     H35090   6.635   0.827   3.384 -1.4446  0.4246  0.7793
 1001MOL0     H35091   6.843   0.921   3.497  1.4611  0.7773  0.2925
 1001MOL0     H35092   6.874   1.019   3.352 -0.6984 -0.1567 -1.0060
 1001MOL0     H35093   6.837   0.713   3.334  0.8449 -0.3592 -0.7225
 1001MOL0     H35094   6.991   0.774   3.341  2.5836  1.3767 -5.0517
 1001MOL0     H35095   7.170   0.836   3.234  1.6881  1.4991  0.6352
 1001MOL0     H35096   7.421   1.068   3.170 -2.6843  3.0234 -0.5887
 1001MOL0     H35097   7.345   1.043   3.319  0.5962 -0.7827  0.3228
 1001MOL0     H35098   7.388   0.900   3.225  2.5454  1.0418  0.0681
 1001MOL0     H35099   7.462   1.429   2.960  3.2066  2.8438 -4.7707
 1001MOL0     H35100   7.528   1.656   2.932 -0.5332 -0.4487  0.8288
 1001MOL0     H35101   7.352   1.935   2.752  0.7265 -0.5250  0.4889
 1001MOL0     H35102   7.195   1.910   2.821  0.4634  0.8421 -1.9103
 1001MOL0     H35103   7.255   2.107   2.990 -1.5994  0.6007 -0.1360
 1001MOL0     H35104   7.396   2.125   2.876  0.0814 -0.2303 -1.6664
 1001MOL0     H35105   7.251   2.151   2.686 -0.6622 -1.6670  0.6895
 1001MOL0     H35106   7.239   2.279   2.813 -0.3415 -0.3084  2.4545
 1001MOL0     H35107   7.039   2.059   2.735 -3.0185  0.5376  0.6781
 1001MOL0     H35108   7.030   2.135   2.896 -4.6876 -0.1942 -0.7202
 1001MOL0     H35109   6.894   2.219   2.688  0.0517  1.6504 -1.5251
 1001MOL0     H35110   7.045   2.280   2.634 -0.5856 -1.2111 -1.0271
 1001MOL0     H35111   6.971   2.362   2.904  0.1912  0.2467 -0.9186
 1001MOL0     H35112   7.072   2.446   2.778  3.7887 -3.8601  1.1507
 1001MOL0     H35113   6.866   2.558   2.849  3.8956  0.1508 -1.3220
 1001MOL0     H35114   6.760   2.412   2.796 -0.1061 -1.0571  0.3807
 1001MOL0     H35115   6.728   2.558   2.633 -0.0441  1.7714  3.3445
 1001MOL0     H35116   6.860   2.473   2.562  2.5576  0.1758  1.9694
 1001MOL0     H35117   7.125   1.769   2.961 -0.1944 -1.3148  1.3942
 1001MOL0     H35118   7.054   1.552   2.952 -0.3149  2.9419  2.2757
 1001MOL0     H35119   6.997   1.200   2.938 -0.1886  0.4970  0.9726
 1001MOL0     H35120   6.845   1.033   3.026  0.6886 -2.7804 -3.1289
 1001MOL0     H35121   6.320   2.231   3.398  2.2708  1.2291 -0.5200
 1001MOL0     H35122   6.481   2.290   3.575  1.4064  0.2854 -0.5214
 1001MOL0     H35123   6.714   2.115   4.067 -1.3536  0.0129 -3.1917
 1001MOL0     H35124   6.904   2.175   4.201  1.5077  1.0317  0.2498
 1001MOL0     H35125   7.244   2.265   4.279 -0.9493 -0.4071  1.3454
 1001MOL0     H35126   7.066   2.257   4.283 -0.7151  1.1740 -2.6501
 1001MOL0     H35127   7.285   2.048   4.252  1.8426 -0.4782  3.8966
 1001MOL0     H35128   7.102   2.009   4.225 -2.4065 -0.3083  2.9185
 1001MOL0     H35129   7.047   2.045   4.451 -0.4776 -2.1089 -0.9245
 1001MOL0     H35130   7.202   2.120   4.495  0.4589  0.3985  0.6878
 1001MOL0     H35131   7.191   1.878   4.572  1.6177  0.8133  0.3520
 1001MOL0     H35132   7.300   1.899   4.427  0.9657  2.2718  1.1696
 1001MOL0     H35133   7.016   1.608   4.326  0.9385 -0.1472 -0.3882
 1001MOL0     H35134   7.125   2.231   3.844 -0.5867  3.1241  0.9320
 1001MOL0     H35135   6.934   2.198   3.702 -1.1651 -5.8297 -1.4396
 1002MOL0     O35136  10.118  11.049   4.226  0.0652 -0.7255  1.0211
 1002MOL0     C35137  10.041  10.993   4.303 -1.2339  0.3700  0.1624
 1002MOL0     O35138   9.959  11.059   4.383  0.3063 -0.5892 -0.0149
 1002MOL0     C35139   9.955  11.200   4.365  0.5161 -0.2535 -0.6561
 1002MOL0     C35140   9.928  11.251   4.239  1.0215 -0.1489 -0.1864
 1002MOL0     C35141   9.893  11.391   4.230  0.4843  0.2965 -0.4449
 1002MOL0     C35142   9.881  11.467   4.336  0.1510  0.3989 -0.0012
 1002MOL0     O35143   9.829  11.598   4.316  0.4463  0.7602 -0.3877
 1002MOL0     C35144   9.893  11.705   4.384  0.9280  0.6446 -0.2992
 1002MOL0     C35145   9.809  11.829   4.350 -0.2208  0.1465 -0.2701
 1002MOL0     C35146   9.661  11.799   4.366  0.1285 -0.2974 -0.4630
 1002MOL0     C35147   9.580  11.927   4.373 -0.0421  0.2567 -0.2184
 1002MOL0     C35148   9.429  11.904   4.400  0.8375 -0.0273  0.0082
 1002MOL0     C35149   9.365  11.831   4.285 -0.0431 -0.3893  0.2954
 1002MOL0     C35150   9.215  11.864   4.266 -0.1866  0.7057 -0.5363
 1002MOL0     C35151   9.156  11.784   4.158  0.0955 -0.0641 -0.2780
 1002MOL0     N35152   9.018  11.820   4.142 -0.4165  0.5923 -0.8293
 1002MOL0     C35153   8.975  11.859   4.014  0.4872  0.0743  0.2726
 1002MOL0     C35154   8.848  11.906   4.041  0.5855 -0.2577 -0.2516
 1002MOL0     C35155   8.743  11.969   3.954 -0.4973 -0.5004 -0.6482
 1002MOL0     C35156   8.726  11.894   3.816  0.2129  0.3493 -0.1020
 1002MOL0     C35157   8.663  11.753   3.848 -1.2431 -0.3774  1.2824
 1002MOL0     C35158   8.651  11.682   3.709  0.1453 -0.7198 -0.6602
 1002MOL0     O35159   8.520  11.621   3.710  0.0885 -0.6912  0.6538
 1002MOL0     C35160   8.498  11.535   3.605 -0.0232  0.5089 -0.8602
 1002MOL0     C35161   8.380  11.460   3.621 -0.6803 -0.2154  0.0194
 1002MOL0     C35162   8.339  11.366   3.532 -1.1880  0.3924 -0.0974
 1002MOL0     C35163   8.234  11.269   3.572 -0.2464  0.8181 -1.1362
 1002MOL0     C35164   8.414  11.350   3.413  0.3460  0.5661  0.4102
 1002MOL0     C35165   8.381  11.251   3.295 -0.1364 -0.7692 -0.5265
 1002MOL0     O35166   8.484  11.253   3.192  1.2689  0.3084  0.1918
 1002MOL0     C35167   8.476  11.186   3.072  0.2856  1.0960  0.2777
 1002MOL0     C35168   8.560  11.220   2.970  0.0313 -1.5957  0.6678
 1002MOL0     C35169   8.584  11.146   2.857  1.1862 -0.2248 -0.3257
 1002MOL0     C35170   8.523  11.020   2.840  0.4597 -0.8518  0.4443
 1002MOL0     O35171   8.546  10.956   2.720 -0.4260  0.3738 -0.2786
 1002MOL0     C35172   8.601  10.825   2.726 -0.3298 -0.0222 -0.4083
 1002MOL0     C35173   8.654  10.769   2.591  0.5227 -0.4547  0.4771
 1002MOL0     C35174   8.652  10.615   2.592 -0.0388  0.8129 -0.4750
 1002MOL0     C35175   8.696  10.578   2.455 -0.5653 -0.7682 -0.3499
 1002MOL0     C35176   8.771  10.443   2.453 -0.2745  0.7923  0.2482
 1002MOL0     C35177   8.677  10.329   2.445  0.3190 -0.6451  0.8523
 1002MOL0     C35178   8.733  10.217   2.355  1.0757 -0.0953  0.5275
 1002MOL0     C35179   8.623  10.121   2.314  0.9240 -0.1769  0.3142
 1002MOL0    Cl35180   8.671  10.042   2.159  0.0689  0.4317  0.0697
 1002MOL0     C35181   8.435  10.985   2.937  0.1282  0.5815 -0.0283
 1002MOL0     C35182   8.416  11.060   3.058  0.2461 -0.2432 -0.3146
 1002MOL0     O35183   8.275  11.194   3.285  0.7283  0.4246 -0.4076
 1002MOL0     C35184   8.543  11.419   3.402  0.0996  0.7502  0.5395
 1002MOL0     C35185   8.582  11.509   3.498  0.7244 -0.0549 -0.4589
 1002MOL0     N35186   8.819  11.870   4.174  0.1892  0.1053  1.2189
 1002MOL0     N35187   8.923  11.827   4.244  0.3428 -0.4833  0.0474
 1002MOL0     C35188   9.914  11.425   4.463  0.8447 -0.2129  0.8127
 1002MOL0     C35189   9.954  11.290   4.475  0.1253  0.0653 -0.5960
 1002MOL0     C35190  10.045  10.846   4.304  0.6239 -0.3468  0.1315
 1002MOL0     C35191  10.142  10.775   4.230  0.2316 -0.4264  0.4314
 1002MOL0     C35192  10.140  10.637   4.232  0.2893 -0.3276  0.7260
 1002MOL0     C35193  10.051  10.559   4.308 -0.4385 -0.0132  0.4805
 1002MOL0     O35194  10.026  10.428   4.294  0.1713 -1.0107 -0.7529
 1002MOL0     C35195  10.040  10.369   4.167  0.6694 -0.1801 -0.0615
 1002MOL0     C35196  10.162  10.285   4.141 -0.5529 -0.3084 -0.0313
 1002MOL0     C35197  10.186  10.256   3.994 -0.0122 -0.2041  0.9543
 1002MOL0     C35198  10.293  10.154   3.975  0.9475  0.2585  0.1913
 1002MOL0     C35199  10.268  10.013   4.004 -0.2515 -0.4837 -0.1889
 1002MOL0     C35200  10.273   9.897   4.033 -0.7023  0.8173 -0.7629
 1002MOL0     C35201   9.950  10.627   4.383  0.4331 -0.1527  0.5358
 1002MOL0     C35202   9.954  10.765   4.372  0.3474 -0.2800 -0.3741
 1002MOL0     H35203   9.932  11.176   4.161 -1.5813 -0.2210 -0.3343
 1002MOL0     H35204   9.877  11.438   4.133  4.6721  1.1437 -0.9252
 1002MOL0     H35205   9.875  11.680   4.489  1.4144  0.6708 -0.2089
 1002MOL0     H35206   9.996  11.722   4.353 -0.2069  1.8196 -4.0801
 1002MOL0     H35207   9.836  11.908   4.420 -1.8852 -1.0129  1.8048
 1002MOL0     H35208   9.828  11.855   4.245  2.2230 -2.0045 -0.4608
 1002MOL0     H35209   9.629  11.744   4.277  1.6502  0.1622 -1.3348
 1002MOL0     H35210   9.649  11.740   4.457 -2.2580  3.5397  1.9848
 1002MOL0     H35211   9.614  11.985   4.458 -1.6488 -2.5879  2.5909
 1002MOL0     H35212   9.586  11.995   4.287  1.1898 -0.2990 -0.5865
 1002MOL0     H35213   9.407  11.850   4.493  1.0333 -0.8473 -0.4125
 1002MOL0     H35214   9.379  12.001   4.402 -1.0282 -0.8860 -1.9321
 1002MOL0     H35215   9.407  11.860   4.188 -2.6726 -1.4221 -1.2551
 1002MOL0     H35216   9.378  11.723   4.298  1.4749 -0.3704 -0.7471
 1002MOL0     H35217   9.169  11.843   4.363  0.6329 -1.6325 -0.6117
 1002MOL0     H35218   9.198  11.971   4.249 -4.0337  0.1375 -1.2419
 1002MOL0     H35219   9.169  11.682   4.197  1.4972  0.1212 -0.1987
 1002MOL0     H35220   9.214  11.803   4.067 -2.4568  3.2221 -1.4110
 1002MOL0     H35221   9.034  11.862   3.923 -0.0830  0.3309 -0.0908
 1002MOL0     H35222   8.647  11.965   4.007  0.7499 -1.0577  1.6607
 1002MOL0     H35223   8.782  12.069   3.935  2.9740 -1.1635  2.0622
 1002MOL0     H35224   8.822  11.884   3.765  1.0469 -1.0783  1.6227
 1002MOL0     H35225   8.654  11.956   3.763  0.6953  2.0998  1.1852
 1002MOL0     H35226   8.568  11.765   3.901 -0.0623 -1.2970  3.7516
 1002MOL0     H35227   8.723  11.690   3.914 -0.4492 -0.2278  0.7270
 1002MOL0     H35228   8.727  11.604   3.702 -0.9573 -1.6957 -2.5115
 1002MOL0     H35229   8.656  11.753   3.626  1.2965  0.1195  0.0936
 1002MOL0     H35230   8.322  11.473   3.711  0.0882 -0.4766  0.5591
 1002MOL0     H35231   8.184  11.303   3.663 -0.4582 -2.0185 -0.0887
 1002MOL0     H35232   8.158  11.255   3.495 -0.2155  0.8591 -1.1748
 1002MOL0     H35233   8.282  11.174   3.600 -1.2354  0.0749 -1.8966
 1002MOL0     H35234   8.614  11.315   2.969 -1.3675 -0.7342 -2.3052
 1002MOL0     H35235   8.655  11.181   2.784  0.4131 -1.6476 -1.8416
 1002MOL0     H35236   8.686  10.833   2.794  1.5254  2.5702 -2.8012
 1002MOL0     H35237   8.520  10.755   2.750 -0.5512 -0.9101 -3.3612
 1002MOL0     H35238   8.593  10.815   2.513  1.7201  4.1885  1.9054
 1002MOL0     H35239   8.754  10.807   2.570  1.7570 -3.4923  0.3673
 1002MOL0     H35240   8.550  10.576   2.602 -1.5458  3.0869 -4.7351
 1002MOL0     H35241   8.712  10.578   2.676 -2.6744 -0.8026  0.8131
 1002MOL0     H35242   8.609  10.574   2.390 -0.1334 -3.9287 -0.8544
 1002MOL0     H35243   8.756  10.653   2.402  1.4330 -2.1458 -0.1306
 1002MOL0     H35244   8.827  10.428   2.546  0.0254 -1.4232 -0.2342
 1002MOL0     H35245   8.841  10.446   2.369  0.3690 -0.9065  0.6837
 1002MOL0     H35246   8.663  10.286   2.545  1.1378  4.1468  3.3092
 1002MOL0     H35247   8.578  10.366   2.417 -0.5696 -2.0026  2.0644
 1002MOL0     H35248   8.809  10.153   2.402 -0.2487  0.7563  4.1649
 1002MOL0     H35249   8.775  10.263   2.265  2.8214 -2.5552 -0.0526
 1002MOL0     H35250   8.525  10.171   2.316  2.2090  2.5648  0.1967
 1002MOL0     H35251   8.608  10.039   2.385 -1.6725 -1.6666 -1.7466
 1002MOL0     H35252   8.394  10.886   2.921  2.4612 -0.6605  1.1389
 1002MOL0     H35253   8.356  11.004   3.130  0.3876  1.3706  1.1328
 1002MOL0     H35254   8.617  11.393   3.327 -0.1755  2.4976 -0.3841
 1002MOL0     H35255   8.681  11.551   3.483  1.6604 -0.9018  2.5622
 1002MOL0     H35256   9.896  11.486   4.550  1.4911 -0.1051  0.8766
 1002MOL0     H35257   9.985  11.246   4.569 -2.5203  1.4942  1.0669
 1002MOL0     H35258  10.214  10.832   4.172  2.2301 -4.1925 -1.1656
 1002MOL0     H35259  10.226  10.596   4.179 -1.5403 -1.0331 -1.9175
 1002MOL0     H35260   9.950  10.308   4.158  1.3054 -1.1693  0.0941
 1002MOL0     H35261  10.024  10.434   4.080  0.4000 -0.6188 -0.3396
 1002MOL0     H35262  10.152  10.203   4.213 -4.8834  3.5097  4.4737
 1002MOL0     H35263  10.255  10.336   4.169 -2.0267  2.6187 -0.0805
 1002MOL0     H35264  10.221  10.348   3.946 -1.3182 -0.5191 -0.6468
 1002MOL0     H35265  10.092  10.230   3.945  0.9636  0.7983 -1.6267
 1002MOL0     H35266  10.390  10.173   4.021  1.8447 -0.2665 -1.4038
 1002MOL0     H35267  10.310  10.156   3.867  2.1688 -0.4222  0.3515
 1002MOL0     H35268  10.281   9.792   4.051 -0.2199  0.5716 -2.2675
 1002MOL0     H35269   9.877  10.583   4.450 -1.2000  0.2634 -0.9063
 1002MOL0     H35270   9.873  10.816   4.423 -0.8011 -1.9181 -0.4720
 1003MOL0     O35271   4.864   1.111  10.374 -0.5555  0.9385  0.5792
 1003MOL0     C35272   4.848   0.992  10.408  0.5796 -0.0694  0.5894
 1003MOL0     O35273   4.853   0.947  10.534 -0.1057  0.6804  0.2545
 1003MOL0     C35274   4.882   1.030  10.637  0.0166 -1.0778  0.0400
 1003MOL0     C35275   5.004   1.023  10.686 -0.1858 -1.2700 -0.3086
 1003MOL0     C35276   5.043   1.112  10.790  0.3924  0.5997 -1.1067
 1003MOL0     C35277   4.945   1.188  10.855 -0.1016 -1.0375  0.0343
 1003MOL0     O35278   4.976   1.269  10.952  1.1869 -0.7279  0.2453
 1003MOL0     C35279   5.072   1.369  10.943  0.5605 -0.7848 -0.1595
 1003MOL0     C35280   5.054   1.464  11.060 -0.2770 -0.0840 -0.8666
 1003MOL0     C35281   4.925   1.547  11.063 -1.6041  0.2243  0.3541
 1003MOL0     C35282   4.855   1.535  11.201 -0.2115 -0.2651  1.0568
 1003MOL0     C35283   4.805   1.658  11.262 -1.1331 -1.2352  0.3579
 1003MOL0     C35284   4.696   1.719  11.170 -0.0794 -0.6334  0.8954
 1003MOL0     C35285   4.683   1.862  11.214 -0.6443  0.3805  0.5164
 1003MOL0     C35286   4.599   1.947  11.110  0.3805 -0.0264  0.0882
 1003MOL0     N35287   4.666   1.956  10.972 -0.0503 -0.2613 -0.0707
 1003MOL0     C35288   4.714   2.073  10.925 -0.4399  0.2960 -0.4786
 1003MOL0     C35289   4.727   2.058  10.792  0.2185  0.6462 -0.4141
 1003MOL0     C35290   4.780   2.158  10.694  0.9668 -0.1079  0.3366
 1003MOL0     C35291   4.917   2.108  10.632  0.0299  0.8690  0.5070
 1003MOL0     C35292   4.972   2.219  10.528  0.1358  0.3458  0.0726
 1003MOL0     C35293   5.076   2.160  10.435 -0.2117 -0.5255  0.5210
 1003MOL0     O35294   5.116   2.273  10.351 -0.5548  0.6699  0.4347
 1003MOL0     C35295   5.182   2.258  10.226  0.1179  0.1200  0.2765
 1003MOL0     C35296   5.250   2.372  10.166 -0.1328  0.4648  0.8642
 1003MOL0     C35297   5.299   2.367  10.036 -0.0359  0.1106  1.0172
 1003MOL0     C35298   5.337   2.497   9.972 -0.3365 -1.0574 -0.2673
 1003MOL0     C35299   5.305   2.243   9.966  0.1432 -0.2071  0.3489
 1003MOL0     C35300   5.359   2.239   9.825 -0.5814  0.2185  0.3206
 1003MOL0     O35301   5.340   2.343   9.742 -0.9274  0.6622  0.6887
 1003MOL0     C35302   5.372   2.334   9.600  0.7781  0.0775 -1.3320
 1003MOL0     C35303   5.307   2.430   9.521 -1.3464  0.0745 -0.6228
 1003MOL0     C35304   5.316   2.436   9.387  0.1886 -0.0076 -0.6988
 1003MOL0     C35305   5.402   2.345   9.319  0.1359  0.7423 -0.0048
 1003MOL0     O35306   5.422   2.335   9.184 -0.1412  0.9746 -0.3013
 1003MOL0     C35307   5.355   2.448   9.120 -0.0116 -0.1442 -0.6273
 1003MOL0     C35308   5.408   2.453   8.973  0.5374  1.1679 -0.9244
 1003MOL0     C35309   5.362   2.581   8.894  0.0551 -0.6004  0.5061
 1003MOL0     C35310   5.359   2.547   8.745  0.6095  0.6832  0.2261
 1003MOL0     C35311   5.320   2.668   8.658 -0.5746  0.2843 -0.0280
 1003MOL0     C35312   5.434   2.761   8.628  0.2681 -0.0647 -0.2494
 1003MOL0     C35313   5.388   2.853   8.513  0.2259 -0.0786 -0.2238
 1003MOL0     C35314   5.493   2.967   8.502  0.2930 -0.8418  0.0059
 1003MOL0    Cl35315   5.667   2.919   8.509  0.3811 -0.0629  0.1446
 1003MOL0     C35316   5.463   2.247   9.391 -0.7202 -0.3375 -0.4852
 1003MOL0     C35317   5.450   2.240   9.530  0.2635 -0.0142  0.3712
 1003MOL0     O35318   5.438   2.148   9.807  0.3305  0.5170  0.5361
 1003MOL0     C35319   5.255   2.125  10.035 -0.6970  0.2082  0.5078
 1003MOL0     C35320   5.190   2.129  10.159 -0.6770  1.0969  0.6318
 1003MOL0     N35321   4.675   1.938  10.751  0.4844  0.4839 -0.1868
 1003MOL0     N35322   4.644   1.879  10.862  0.7875 -0.4939  0.0937
 1003MOL0     C35323   4.816   1.186  10.808  0.1243  0.2368 -0.2671
 1003MOL0     C35324   4.788   1.114  10.687 -0.3034  0.4344 -0.4589
 1003MOL0     C35325   4.786   0.895  10.308 -0.9169 -1.3841 -0.5291
 1003MOL0     C35326   4.803   0.757  10.304 -0.3522  0.7874  0.2655
 1003MOL0     C35327   4.748   0.677  10.190  0.5218 -0.5937  0.4301
 1003MOL0     C35328   4.669   0.735  10.096  0.4902 -0.8093 -0.5132
 1003MOL0     O35329   4.615   0.646   9.999 -0.1410  0.3844  0.1168
 1003MOL0     C35330   4.592   0.703   9.864  0.4941 -0.3767 -0.4835
 1003MOL0     C35331   4.716   0.758   9.792 -0.0347  0.0106 -0.1712
 1003MOL0     C35332   4.842   0.673   9.776  0.1012 -0.8778 -0.4594
 1003MOL0     C35333   4.831   0.607   9.638  0.8863 -0.3746 -0.6684
 1003MOL0     C35334   4.942   0.513   9.635  0.5896 -0.8112  1.0882
 1003MOL0     C35335   5.014   0.421   9.657  0.1980 -0.4787 -0.2316
 1003MOL0     C35336   4.656   0.868  10.097  0.6541 -0.5194 -0.2532
 1003MOL0     C35337   4.708   0.949  10.202  0.0137 -0.1391 -1.2021
 1003MOL0     H35338   5.074   0.958  10.636 -0.7807 -3.7161  1.8310
 1003MOL0     H35339   5.145   1.103  10.827  0.7377  4.3039 -0.7407
 1003MOL0     H35340   5.175   1.332  10.945  0.7766 -0.2243 -0.6619
 1003MOL0     H35341   5.038   1.421  10.853 -0.1017  1.0741  1.1058
 1003MOL0     H35342   5.055   1.405  11.152 -0.4408 -2.1807 -2.1298
 1003MOL0     H35343   5.133   1.539  11.069 -1.0057  0.5513  0.6529
 1003MOL0     H35344   4.951   1.652  11.043  1.1036 -0.5196 -0.3698
 1003MOL0     H35345   4.845   1.519  10.994 -2.5276  1.8918  0.6684
 1003MOL0     H35346   4.784   1.452  11.210  1.2932 -1.5776  1.3341
 1003MOL0     H35347   4.936   1.509  11.269 -0.3561 -1.0248  0.9454
 1003MOL0     H35348   4.756   1.650  11.359 -0.5668 -0.9161  0.6809
 1003MOL0     H35349   4.882   1.736  11.274  0.7825 -3.1974  1.6152
 1003MOL0     H35350   4.725   1.708  11.065  0.1843  1.8380  0.6544
 1003MOL0     H35351   4.600   1.669  11.185 -0.7529  0.6098  0.8612
 1003MOL0     H35352   4.637   1.860  11.313 -3.6076  1.0904 -0.7462
 1003MOL0     H35353   4.777   1.919  11.212  0.8706 -1.7522 -4.3600
 1003MOL0     H35354   4.586   2.048  11.148  0.7007  0.4852 -1.1126
 1003MOL0     H35355   4.499   1.907  11.090  0.8879 -1.8850  1.0408
 1003MOL0     H35356   4.732   2.168  10.976  0.9275 -1.1454  1.9043
 1003MOL0     H35357   4.704   2.161  10.615  0.0793 -0.4579  1.1490
 1003MOL0     H35358   4.792   2.260  10.732  2.1632  0.6604 -1.9176
 1003MOL0     H35359   4.897   2.019  10.572  2.3644  0.1114  0.7689
 1003MOL0     H35360   4.984   2.090  10.717 -2.4388 -3.2952  1.8877
 1003MOL0     H35361   5.004   2.309  10.581  1.8903 -0.8026  1.0390
 1003MOL0     H35362   4.893   2.250  10.459  0.6127  1.1497 -0.1291
 1003MOL0     H35363   5.033   2.082  10.371  0.6993 -1.5785  1.1540
 1003MOL0     H35364   5.156   2.125  10.501 -0.2884 -0.1940  0.7980
 1003MOL0     H35365   5.236   2.473  10.204  1.1907  1.4118 -1.0205
 1003MOL0     H35366   5.424   2.502   9.905  0.3923  0.8173  0.7369
 1003MOL0     H35367   5.250   2.531   9.915 -0.1710 -2.9174 -1.7499
 1003MOL0     H35368   5.367   2.569  10.049  0.9726  0.3030 -1.9487
 1003MOL0     H35369   5.241   2.500   9.571  0.6481  2.3569 -0.9985
 1003MOL0     H35370   5.253   2.504   9.331 -2.3205 -0.4339  1.4071
 1003MOL0     H35371   5.246   2.442   9.126 -0.0538 -2.1695 -2.2454
 1003MOL0     H35372   5.387   2.542   9.165  0.6288 -0.5090 -0.3011
 1003MOL0     H35373   5.517   2.452   8.982  0.6501  1.2088 -2.1286
 1003MOL0     H35374   5.397   2.356   8.922  0.7198 -0.2046  1.5048
 1003MOL0     H35375   5.421   2.670   8.915  1.7068 -0.7768 -2.7698
 1003MOL0     H35376   5.258   2.591   8.929 -1.2265 -3.2936 -2.0969
 1003MOL0     H35377   5.456   2.504   8.715  1.7234  0.9073  3.1817
 1003MOL0     H35378   5.289   2.464   8.729  0.8937  0.6151 -0.7138
 1003MOL0     H35379   5.243   2.730   8.705 -0.9519 -0.0094 -0.2516
 1003MOL0     H35380   5.285   2.631   8.561 -0.9849  0.4085  0.0708
 1003MOL0     H35381   5.444   2.819   8.720  0.7339 -2.1194  1.0587
 1003MOL0     H35382   5.526   2.706   8.609  0.8484  1.5626 -2.5131
 1003MOL0     H35383   5.288   2.896   8.525 -1.0238 -2.6113 -0.9239
 1003MOL0     H35384   5.383   2.791   8.424 -1.7914 -1.5419  0.8432
 1003MOL0     H35385   5.480   3.041   8.582  3.1866  0.5125 -0.6325
 1003MOL0     H35386   5.471   3.022   8.410  1.6834  2.9456  1.7221
 1003MOL0     H35387   5.517   2.172   9.334  1.7694 -1.5757  3.1642
 1003MOL0     H35388   5.505   2.161   9.581  2.1083 -1.1795 -3.0618
 1003MOL0     H35389   5.262   2.028   9.988 -1.2548  0.1023  0.6379
 1003MOL0     H35390   5.168   2.034  10.208 -0.5272 -0.4482 -2.0497
 1003MOL0     H35391   4.747   1.251  10.861  0.1261 -0.3498  0.4548
 1003MOL0     H35392   4.699   1.119  10.625 -0.3306  1.1606 -0.3760
 1003MOL0     H35393   4.864   0.713  10.382 -0.3435 -0.5444 -0.4578
 1003MOL0     H35394   4.760   0.570  10.202  0.1310 -0.3567  4.2108
 1003MOL0     H35395   4.556   0.618   9.806 -1.8587  1.9313 -2.6741
 1003MOL0     H35396   4.524   0.788   9.871 -0.9607 -1.6176  1.4683
 1003MOL0     H35397   4.743   0.851   9.842  1.1135 -0.5821  0.3516
 1003MOL0     H35398   4.678   0.793   9.695  0.3053  1.4735  0.1914
 1003MOL0     H35399   4.844   0.590   9.847 -1.7002 -1.6976 -1.3100
 1003MOL0     H35400   4.936   0.727   9.794  1.5642 -3.0119 -1.2430
 1003MOL0     H35401   4.837   0.675   9.552  2.8750  2.4907  1.5327
 1003MOL0     H35402   4.742   0.545   9.630  1.2263 -0.9432 -0.1633
 1003MOL0     H35403   5.071   0.336   9.689 -0.0373 -0.8421 -0.7741
 1003MOL0     H35404   4.600   0.915  10.016 -2.3021 -0.1709  1.8466
 1003MOL0     H35405   4.708   1.057  10.196  0.0471 -0.1370 -1.1636
 1004MOL0     O35406   2.434  11.465   9.403  0.2268  0.7270  0.3482
 1004MOL0     C35407   2.509  11.551   9.439 -0.8160  0.0280  0.9587
 1004MOL0     O35408   2.466  11.676   9.461 -0.1776 -0.3730  0.1714
 1004MOL0     C35409   2.336  11.717   9.439 -0.0340  0.9608 -0.3749
 1004MOL0     C35410   2.306  11.800   9.332 -0.5988  0.2109 -0.6032
 1004MOL0     C35411   2.171  11.835   9.307 -0.0373  0.5152 -0.4527
 1004MOL0     C35412   2.071  11.799   9.401 -0.7726  1.2771  0.3337
 1004MOL0     O35413   1.948  11.846   9.387  0.6564  0.2216  0.2722
 1004MOL0     C35414   1.875  11.769   9.288 -0.0490  0.0650  0.4926
 1004MOL0     C35415   1.775  11.676   9.352 -0.5102 -0.2009 -0.2312
 1004MOL0     C35416   1.698  11.585   9.247 -0.0927  0.0534 -0.6343
 1004MOL0     C35417   1.565  11.533   9.300  0.2924  0.3559  0.2098
 1004MOL0     C35418   1.494  11.442   9.195 -0.0226 -0.2739 -0.2030
 1004MOL0     C35419   1.442  11.515   9.069  0.1252 -1.1008  0.3430
 1004MOL0     C35420   1.374  11.429   8.967 -0.2295 -0.6819 -0.1461
 1004MOL0     C35421   1.217  11.430   8.975 -0.2887  0.0539  0.7220
 1004MOL0     N35422   1.149  11.356   8.866  0.3411  0.5241 -0.9467
 1004MOL0     C35423   1.207  11.310   8.754  0.0055 -0.1404  0.9049
 1004MOL0     C35424   1.112  11.234   8.692  0.3783 -0.6573 -1.3349
 1004MOL0     C35425   1.106  11.148   8.576  0.8642 -1.2688 -0.2876
 1004MOL0     C35426   1.156  11.218   8.445 -0.1711  0.2274 -0.6737
 1004MOL0     C35427   1.125  11.112   8.331 -0.1367 -0.6151  0.7213
 1004MOL0     C35428   1.134  11.175   8.189  0.2033 -0.0583 -0.2113
 1004MOL0     O35429   1.274  11.215   8.168 -0.4236  0.4121 -0.2475
 1004MOL0     C35430   1.309  11.195   8.042 -0.5020  0.1111 -0.9463
 1004MOL0     C35431   1.423  11.122   8.033  0.2930 -1.2771 -0.8541
 1004MOL0     C35432   1.481  11.097   7.908 -0.4521 -0.3873  0.1609
 1004MOL0     C35433   1.592  11.002   7.913 -0.8151  0.2301 -0.6017
 1004MOL0     C35434   1.422  11.140   7.777 -0.4914  0.4262 -0.1940
 1004MOL0     C35435   1.469  11.118   7.632  0.3431 -0.5726 -0.3313
 1004MOL0     O35436   1.591  11.062   7.617  0.0976 -0.1914  0.2365
 1004MOL0     C35437   1.675  11.089   7.511  0.0728 -0.1837 -0.0376
 1004MOL0     C35438   1.795  11.157   7.539 -0.2335  0.5438  0.3280
 1004MOL0     C35439   1.900  11.164   7.443  0.0425 -0.0758 -0.1658
 1004MOL0     C35440   1.881  11.113   7.318 -1.0689 -0.6708 -0.2775
 1004MOL0     O35441   1.984  11.125   7.220  0.1019  0.3600 -0.2056
 1004MOL0     C35442   1.970  11.060   7.096 -0.4125 -0.9566 -0.7507
 1004MOL0     C35443   2.071  11.097   6.999 -0.2877 -0.4059  0.2119
 1004MOL0     C35444   2.089  11.246   6.967  0.1830  0.0323  0.0934
 1004MOL0     C35445   2.204  11.258   6.859  0.5666  0.4483 -0.2252
 1004MOL0     C35446   2.208  11.392   6.793  0.1420  0.0198 -0.2999
 1004MOL0     C35447   2.104  11.414   6.679 -0.0784 -0.2869  0.7404
 1004MOL0     C35448   2.111  11.556   6.652  0.7366 -0.9908  0.9310
 1004MOL0     C35449   1.981  11.622   6.587 -1.0600  0.7951 -0.9400
 1004MOL0    Cl35450   2.012  11.784   6.565 -0.1771 -0.2530  0.5979
 1004MOL0     C35451   1.768  11.030   7.293  0.4608 -0.2576  0.4203
 1004MOL0     C35452   1.659  11.030   7.385 -0.1070 -0.8140 -0.3442
 1004MOL0     O35453   1.396  11.169   7.540 -0.8100 -1.0601 -0.0063
 1004MOL0     C35454   1.304  11.211   7.795  0.4428 -0.2715  0.8693
 1004MOL0     C35455   1.257  11.245   7.927  0.8926  0.8413 -0.2490
 1004MOL0     N35456   1.006  11.237   8.784  0.5202  0.3044  0.8894
 1004MOL0     N35457   1.019  11.323   8.875  0.6541 -0.1343 -0.6502
 1004MOL0     C35458   2.103  11.717   9.507  0.0150 -0.4302 -0.9925
 1004MOL0     C35459   2.236  11.674   9.529 -1.0019  0.3200  0.1256
 1004MOL0     C35460   2.637  11.496   9.501 -0.5869  0.6384  1.0513
 1004MOL0     C35461   2.728  11.584   9.559 -0.3079 -0.1903 -0.5532
 1004MOL0     C35462   2.837  11.543   9.626 -1.4459  0.3087 -0.9460
 1004MOL0     C35463   2.871  11.409   9.631 -0.1904 -0.1920  0.3247
 1004MOL0     O35464   2.992  11.387   9.681 -0.4678 -0.2355  1.0253
 1004MOL0     C35465   3.006  11.330   9.817  0.1588  0.2734  0.6757
 1004MOL0     C35466   3.145  11.267   9.836 -0.1597 -0.0332 -0.9407
 1004MOL0     C35467   3.170  11.181   9.967 -0.9061  0.2060 -0.2667
 1004MOL0     C35468   3.076  11.060   9.992  0.1255  0.0669 -0.3277
 1004MOL0     C35469   3.058  10.965   9.876  1.0084  0.3601 -0.1236
 1004MOL0     C35470   3.025  10.885   9.787 -0.5089 -0.3465 -0.5973
 1004MOL0     C35471   2.788  11.314   9.566 -0.0211  0.3357 -0.1979
 1004MOL0     C35472   2.668  11.358   9.509 -0.6156 -0.7577  0.4105
 1004MOL0     H35473   2.391  11.835   9.274 -0.5225 -1.1004 -1.3143
 1004MOL0     H35474   2.141  11.903   9.228 -1.6423  1.8707  1.2287
 1004MOL0     H35475   1.813  11.841   9.234 -0.8859 -0.2560  1.0197
 1004MOL0     H35476   1.942  11.711   9.223  0.4374  1.5384 -0.3780
 1004MOL0     H35477   1.824  11.616   9.429  2.9624  1.6036 -0.8259
 1004MOL0     H35478   1.706  11.743   9.404  1.2821  0.0908  1.8900
 1004MOL0     H35479   1.678  11.630   9.150  0.6471  1.0516 -0.3363
 1004MOL0     H35480   1.766  11.501   9.225 -0.8681 -1.3711  1.9371
 1004MOL0     H35481   1.576  11.476   9.393 -1.3339 -2.1649 -1.0349
 1004MOL0     H35482   1.502  11.621   9.317 -0.6785 -0.0028 -1.3766
 1004MOL0     H35483   1.573  11.370   9.167  1.6569  0.4040  2.4148
 1004MOL0     H35484   1.417  11.386   9.249 -0.8107  1.5686  0.6672
 1004MOL0     H35485   1.372  11.595   9.096 -2.1089 -2.9468  0.3692
 1004MOL0     H35486   1.521  11.575   9.023 -1.4560  1.7382  1.0641
 1004MOL0     H35487   1.410  11.472   8.873  0.5618  0.0883  0.4928
 1004MOL0     H35488   1.399  11.323   8.981  0.0416 -0.3745  2.0543
 1004MOL0     H35489   1.189  11.535   8.964 -1.1565  0.0398  2.4238
 1004MOL0     H35490   1.194  11.402   9.078 -2.5212 -0.1577  0.2194
 1004MOL0     H35491   1.311  11.312   8.723 -0.7099  3.1170 -1.8694
 1004MOL0     H35492   1.155  11.053   8.601 -0.9016 -1.5683  2.5939
 1004MOL0     H35493   1.000  11.142   8.552  0.5759  2.4935 -0.4485
 1004MOL0     H35494   1.264  11.225   8.463 -0.2042  0.3069 -0.4975
 1004MOL0     H35495   1.122  11.320   8.426  2.1111  1.1747 -0.0640
 1004MOL0     H35496   1.023  11.075   8.343 -2.6006  4.2402 -2.1774
 1004MOL0     H35497   1.203  11.035   8.325  1.5049  1.0575 -2.3728
 1004MOL0     H35498   1.062  11.257   8.182 -4.1849 -3.2863  2.2827
 1004MOL0     H35499   1.092  11.096   8.125  1.9787 -1.0078 -0.2556
 1004MOL0     H35500   1.483  11.083   8.114 -0.6185 -0.1753  0.3859
 1004MOL0     H35501   1.637  11.002   8.013 -1.9972 -3.2969  0.0705
 1004MOL0     H35502   1.546  10.904   7.895 -2.4273  1.2768 -2.5765
 1004MOL0     H35503   1.671  11.011   7.838 -1.5417 -0.4251 -1.4590
 1004MOL0     H35504   1.816  11.199   7.637  4.6810 -1.9924  0.6904
 1004MOL0     H35505   1.987  11.226   7.465  0.8580 -1.4899  0.7915
 1004MOL0     H35506   1.959  10.951   7.099 -2.1517 -0.7904  0.4181
 1004MOL0     H35507   1.873  11.096   7.059 -1.8336 -3.2512  0.4891
 1004MOL0     H35508   2.166  11.059   7.036 -0.8539 -1.6865  0.4006
 1004MOL0     H35509   2.050  11.053   6.901  0.2268 -0.7578  0.2582
 1004MOL0     H35510   2.117  11.304   7.055  2.0188 -2.2244  1.1084
 1004MOL0     H35511   2.003  11.301   6.927 -0.0365 -0.2613  0.1601
 1004MOL0     H35512   2.294  11.249   6.919  0.1293  0.8350  0.5025
 1004MOL0     H35513   2.201  11.178   6.784 -1.4218  1.2849 -1.1046
 1004MOL0     H35514   2.310  11.399   6.754 -0.3917  2.4636 -1.4745
 1004MOL0     H35515   2.193  11.467   6.871 -0.6954 -2.2256  1.8518
 1004MOL0     H35516   2.107  11.358   6.586 -3.2258  0.6853 -0.0575
 1004MOL0     H35517   2.006  11.397   6.724  1.2949 -3.1808  3.0276
 1004MOL0     H35518   2.185  11.570   6.573 -0.3717 -0.1976 -0.0130
 1004MOL0     H35519   2.143  11.619   6.735 -0.8006  1.9940 -0.5531
 1004MOL0     H35520   1.908  11.603   6.667  0.5075  0.7537  0.5377
 1004MOL0     H35521   1.945  11.565   6.501  0.5713 -1.5569 -0.1822
 1004MOL0     H35522   1.751  10.980   7.199 -0.0288  3.4142 -1.6557
 1004MOL0     H35523   1.561  10.986   7.368 -1.0773  1.4261 -0.8556
 1004MOL0     H35524   1.254  11.257   7.711  1.3356 -3.7001 -1.7747
 1004MOL0     H35525   1.181  11.322   7.932  2.2317  2.2110 -0.1162
 1004MOL0     H35526   2.032  11.698   9.586  0.8765  2.1640  0.5266
 1004MOL0     H35527   2.277  11.626   9.618  1.4874  0.8729 -0.6475
 1004MOL0     H35528   2.707  11.689   9.546 -4.2091 -1.1353 -3.8578
 1004MOL0     H35529   2.895  11.619   9.678  0.3271 -0.9393 -1.0136
 1004MOL0     H35530   2.995  11.401   9.900  2.2815  2.0357 -0.4460
 1004MOL0     H35531   2.928  11.254   9.830 -0.0580  0.1213 -1.1635
 1004MOL0     H35532   3.229  11.336   9.824  1.8654 -2.0990  0.5943
 1004MOL0     H35533   3.160  11.206   9.746 -1.3258 -0.5946 -0.7810
 1004MOL0     H35534   3.170  11.242  10.058  0.0497 -0.4731  0.2152
 1004MOL0     H35535   3.276  11.152   9.972 -1.1449 -0.6825  4.3196
 1004MOL0     H35536   2.980  11.107  10.017  0.8146  2.4358 -1.8499
 1004MOL0     H35537   3.124  11.006  10.074  0.8389  0.5246 -0.4428
 1004MOL0     H35538   2.988  10.807   9.724  1.6315  0.0412 -2.4802
 1004MOL0     H35539   2.809  11.209   9.551 -0.8964  0.3705 -1.8365
 1004MOL0     H35540   2.606  11.288   9.454  0.3718  0.1642 -1.9916
 1005MOL0     O35541   5.506   2.569  11.523  0.3314 -0.9022 -0.0797
 1005MOL0     C35542   5.392   2.535  11.482  0.5484  0.0838  0.8456
 1005MOL0     O35543   5.367   2.483  11.358  0.3459 -0.6032  0.7642
 1005MOL0     C35544   5.458   2.490  11.259  0.6644  0.1836  0.2743
 1005MOL0     C35545   5.481   2.615  11.196  0.1896 -0.3341  0.2519
 1005MOL0     C35546   5.573   2.630  11.086 -0.0551 -0.0616  0.2730
 1005MOL0     C35547   5.639   2.510  11.029  0.4808  0.0915 -0.2947
 1005MOL0     O35548   5.704   2.510  10.903  0.4658  0.5771  0.8538
 1005MOL0     C35549   5.847   2.538  10.902 -0.6837 -0.5791 -0.0308
 1005MOL0     C35550   5.902   2.516  10.762 -0.8502 -0.2785 -0.2343
 1005MOL0     C35551   5.814   2.579  10.661  0.0779 -0.8822  0.0901
 1005MOL0     C35552   5.876   2.597  10.521 -0.7750  0.4182  0.8080
 1005MOL0     C35553   5.770   2.637  10.423 -0.0847  0.2372  0.3188
 1005MOL0     C35554   5.836   2.705  10.298  0.2311  0.4061  1.3316
 1005MOL0     C35555   5.920   2.602  10.211 -0.2198  0.1200  0.8358
 1005MOL0     C35556   5.833   2.498  10.138 -0.0747  0.8074  0.2610
 1005MOL0     N35557   5.783   2.538  10.005  0.5689 -0.3786 -0.0788
 1005MOL0     C35558   5.768   2.455   9.902 -0.3990  0.3393 -0.9986
 1005MOL0     C35559   5.707   2.525   9.806  0.7322 -0.7194 -0.5958
 1005MOL0     C35560   5.673   2.475   9.671  0.5995 -1.0294 -0.5515
 1005MOL0     C35561   5.784   2.517   9.569  0.4487 -0.9747  0.1479
 1005MOL0     C35562   5.780   2.443   9.428  0.7279  0.5392 -0.4168
 1005MOL0     C35563   5.837   2.299   9.425 -0.9468  0.2903  0.4220
 1005MOL0     O35564   5.967   2.289   9.360 -0.2650 -0.3142 -0.4953
 1005MOL0     C35565   5.984   2.308   9.226 -0.1970  0.6578  0.6288
 1005MOL0     C35566   6.117   2.315   9.174  0.3846  0.1127  0.3731
 1005MOL0     C35567   6.133   2.333   9.031 -0.8839 -0.3196 -0.0483
 1005MOL0     C35568   6.277   2.337   8.972 -0.3985  0.5882 -0.2277
 1005MOL0     C35569   6.020   2.356   8.946 -0.3011  0.1374 -0.2361
 1005MOL0     C35570   6.028   2.386   8.798  0.1657  0.4931  0.7391
 1005MOL0     O35571   5.905   2.390   8.737 -0.9738  0.5117  0.7587
 1005MOL0     C35572   5.897   2.421   8.603 -0.5845  0.7480 -0.4558
 1005MOL0     C35573   5.861   2.549   8.567  0.3644 -0.9763  0.3642
 1005MOL0     C35574   5.850   2.582   8.425 -1.3591  0.1019 -0.3734
 1005MOL0     C35575   5.862   2.476   8.338 -0.5420 -0.1234 -0.6360
 1005MOL0     O35576   5.846   2.506   8.202  0.4906  0.2627  0.5037
 1005MOL0     C35577   5.797   2.400   8.118 -0.0768 -0.4757  0.8455
 1005MOL0     C35578   5.913   2.369   8.035  0.6377  0.1072 -0.1347
 1005MOL0     C35579   5.933   2.486   7.928  0.0714  0.2539 -0.9230
 1005MOL0     C35580   6.083   2.545   7.958 -0.1783  0.5996  0.4896
 1005MOL0     C35581   6.212   2.462   7.921  0.2712  0.0236  0.6416
 1005MOL0     C35582   6.322   2.516   8.006 -0.9107  0.4142 -0.6900
 1005MOL0     C35583   6.375   2.656   7.974  0.6537 -0.1500  0.5643
 1005MOL0     C35584   6.459   2.721   8.083  0.7076  0.1256  0.6745
 1005MOL0    Cl35585   6.604   2.634   8.131 -0.5957 -0.3777 -0.2553
 1005MOL0     C35586   5.905   2.346   8.368  0.9337  0.3217  0.5026
 1005MOL0     C35587   5.926   2.324   8.505 -0.1210  0.2329 -0.0213
 1005MOL0     O35588   6.134   2.408   8.739 -0.6018 -0.2033 -0.8031
 1005MOL0     C35589   5.895   2.341   9.003 -0.7417 -0.3752 -0.2883
 1005MOL0     C35590   5.881   2.306   9.126  0.1698  0.7914 -0.4404
 1005MOL0     N35591   5.670   2.646   9.862 -0.8245  0.3501  0.0694
 1005MOL0     N35592   5.710   2.649   9.976 -0.1532  0.1678  0.1151
 1005MOL0     C35593   5.640   2.401  11.120 -0.0178 -0.3671 -0.3640
 1005MOL0     C35594   5.549   2.401  11.224 -0.0823  0.3426  0.0244
 1005MOL0     C35595   5.281   2.532  11.581 -0.3369 -0.9415  0.1457
 1005MOL0     C35596   5.163   2.456  11.556 -0.2896  0.4944 -0.4433
 1005MOL0     C35597   5.072   2.447  11.662  0.7115 -0.2529  0.0669
 1005MOL0     C35598   5.101   2.495  11.789 -0.1146 -0.3412 -0.8124
 1005MOL0     O35599   5.010   2.465  11.884  0.1657 -0.3215  0.6063
 1005MOL0     C35600   5.046   2.413  12.004 -0.4911  0.5599 -0.4423
 1005MOL0     C35601   4.929   2.322  12.059 -0.1841 -0.3176  1.1803
 1005MOL0     C35602   4.807   2.415  12.095  0.2098  0.1683 -0.3259
 1005MOL0     C35603   4.713   2.435  11.978  0.6441 -0.7463  0.4597
 1005MOL0     C35604   4.600   2.523  12.011 -0.0783 -0.4530 -0.7498
 1005MOL0     C35605   4.505   2.593  12.031  0.7493  0.2477 -0.0674
 1005MOL0     C35606   5.210   2.585  11.808 -0.8196 -0.1412 -0.1456
 1005MOL0     C35607   5.296   2.599  11.697 -1.0775 -0.8749 -0.3327
 1005MOL0     H35608   5.416   2.700  11.214  0.9783  0.1511  0.8540
 1005MOL0     H35609   5.593   2.731  11.053  2.5345  0.7822  3.9341
 1005MOL0     H35610   5.868   2.639  10.938  1.1507 -0.5958 -0.9581
 1005MOL0     H35611   5.897   2.481  10.981 -3.7142  1.1775  3.5260
 1005MOL0     H35612   5.998   2.569  10.755 -1.0437  0.4201  1.8006
 1005MOL0     H35613   5.904   2.406  10.760  0.6232 -0.3366  1.6353
 1005MOL0     H35614   5.715   2.535  10.652  0.2025 -0.8724 -1.8300
 1005MOL0     H35615   5.791   2.679  10.697  0.8182 -1.3158  1.8619
 1005MOL0     H35616   5.965   2.660  10.513 -1.3372  1.1014 -0.2947
 1005MOL0     H35617   5.910   2.497  10.490 -1.9539  0.4484 -0.7307
 1005MOL0     H35618   5.717   2.546  10.394  1.2562  0.0799 -1.8336
 1005MOL0     H35619   5.706   2.709  10.474 -0.9144 -0.5567  0.4289
 1005MOL0     H35620   5.749   2.746  10.246  0.4419  0.8218  1.3044
 1005MOL0     H35621   5.905   2.786  10.322  0.3751  0.7452 -0.1152
 1005MOL0     H35622   5.972   2.663  10.136 -0.6798 -1.3192 -0.7138
 1005MOL0     H35623   5.991   2.553  10.279  0.7654  0.5981  0.1869
 1005MOL0     H35624   5.743   2.470  10.195 -0.2640  3.2791  1.2728
 1005MOL0     H35625   5.882   2.401  10.128 -2.1958 -0.6060  2.3624
 1005MOL0     H35626   5.799   2.351   9.898 -3.5525 -0.7577 -0.0934
 1005MOL0     H35627   5.666   2.366   9.677 -0.0546 -0.8831  2.8536
 1005MOL0     H35628   5.570   2.501   9.645  1.1410 -0.9248 -2.8291
 1005MOL0     H35629   5.886   2.503   9.606  0.7326  0.2937 -0.1163
 1005MOL0     H35630   5.773   2.624   9.551 -2.9663 -0.9748  1.3599
 1005MOL0     H35631   5.842   2.505   9.363  0.8029 -0.1933 -1.0616
 1005MOL0     H35632   5.675   2.435   9.397 -0.4306  1.2249  2.9122
 1005MOL0     H35633   5.773   2.228   9.373 -1.8691  1.8861 -0.7314
 1005MOL0     H35634   5.850   2.269   9.529 -4.2887  2.2157  1.5813
 1005MOL0     H35635   6.199   2.300   9.243 -0.3691  2.8605  2.0277
 1005MOL0     H35636   6.346   2.297   9.047 -0.5774 -0.2437 -0.4995
 1005MOL0     H35637   6.293   2.281   8.879 -1.7515 -0.6178  0.2400
 1005MOL0     H35638   6.299   2.442   8.951  3.3838 -0.3145 -1.7286
 1005MOL0     H35639   5.833   2.611   8.653  1.0489  1.0159 -0.7751
 1005MOL0     H35640   5.816   2.680   8.391  1.1574  0.3946 -2.3296
 1005MOL0     H35641   5.757   2.311   8.169  0.3166 -0.8733  0.4657
 1005MOL0     H35642   5.725   2.447   8.050  0.6184 -1.0512 -0.3152
 1005MOL0     H35643   6.000   2.331   8.090  1.2093 -0.7603 -1.5744
 1005MOL0     H35644   5.889   2.277   7.980 -0.6682 -1.2687  2.5491
 1005MOL0     H35645   5.866   2.572   7.943  1.0398  0.5136  2.7520
 1005MOL0     H35646   5.928   2.453   7.824 -0.8145 -0.5276 -0.6481
 1005MOL0     H35647   6.093   2.643   7.912 -0.4801  0.4633  0.1362
 1005MOL0     H35648   6.093   2.576   8.063  2.7031 -1.1259  0.8396
 1005MOL0     H35649   6.228   2.474   7.814 -2.1898 -1.3607  0.0629
 1005MOL0     H35650   6.206   2.353   7.927  2.8767 -0.3061 -1.2411
 1005MOL0     H35651   6.294   2.521   8.112  1.5731  0.8407  0.0157
 1005MOL0     H35652   6.407   2.449   7.990  1.1367  2.9478 -1.1658
 1005MOL0     H35653   6.287   2.716   7.947  0.8243 -0.7473 -1.5243
 1005MOL0     H35654   6.436   2.644   7.884 -1.0748 -1.5597 -0.4774
 1005MOL0     H35655   6.393   2.736   8.169  1.8314 -0.3814  1.6597
 1005MOL0     H35656   6.494   2.820   8.052  0.4689 -1.4941 -6.7269
 1005MOL0     H35657   5.919   2.264   8.298 -0.7779 -0.9953  1.6242
 1005MOL0     H35658   5.952   2.223   8.534 -3.2057  0.1205  3.0132
 1005MOL0     H35659   5.798   2.342   8.953  0.2620  2.1031 -2.4152
 1005MOL0     H35660   5.778   2.301   9.160  0.0250 -2.3767 -1.0070
 1005MOL0     H35661   5.702   2.312  11.111 -0.3500 -1.1918  3.5897
 1005MOL0     H35662   5.558   2.317  11.292 -1.0602  0.1527 -0.0761
 1005MOL0     H35663   5.150   2.406  11.460  0.0080 -0.8238  0.1776
 1005MOL0     H35664   4.987   2.379  11.659 -1.0937  1.7969  1.4576
 1005MOL0     H35665   5.142   2.361  12.014 -0.0376  1.3968 -0.3992
 1005MOL0     H35666   5.059   2.498  12.072  0.3251  0.0449  0.0697
 1005MOL0     H35667   4.969   2.265  12.143  0.4031 -2.0859 -0.2563
 1005MOL0     H35668   4.892   2.247  11.989  0.5358  1.6568 -1.4951
 1005MOL0     H35669   4.844   2.514  12.125 -3.7547  1.7292  0.0343
 1005MOL0     H35670   4.760   2.372  12.184  2.5701 -2.8217 -0.3734
 1005MOL0     H35671   4.668   2.344  11.936 -2.9734  3.0223 -5.3864
 1005MOL0     H35672   4.767   2.481  11.895  2.5963 -3.6437 -0.0219
 1005MOL0     H35673   4.412   2.641  12.054 -0.7304 -3.6566  3.2615
 1005MOL0     H35674   5.213   2.636  11.904 -0.9988  0.3427 -0.3897
 1005MOL0     H35675   5.378   2.666  11.720  0.5402 -2.9389  0.2067
 1006MOL0     O35676   9.373   4.987   3.204  0.0832  0.6122  0.0227
 1006MOL0     C35677   9.428   5.074   3.269  0.7884 -1.2481 -0.2417
 1006MOL0     O35678   9.368   5.186   3.308 -0.4442 -0.1688 -0.1259
 1006MOL0     C35679   9.235   5.184   3.315  0.1073  0.6662 -0.1741
 1006MOL0     C35680   9.164   5.227   3.206 -0.7457  0.3337  0.5559
 1006MOL0     C35681   9.026   5.225   3.201 -0.2640  0.6256 -0.6012
 1006MOL0     C35682   8.953   5.161   3.307 -0.4030  0.4464  1.0893
 1006MOL0     O35683   8.818   5.142   3.315  0.2091  0.0750 -0.6208
 1006MOL0     C35684   8.749   5.181   3.201  0.7664 -0.5254 -0.7179
 1006MOL0     C35685   8.593   5.160   3.208 -0.7993  0.2089 -0.2637
 1006MOL0     C35686   8.563   5.004   3.189  0.7644 -0.4515 -0.2792
 1006MOL0     C35687   8.420   4.966   3.245  0.3484 -0.3741  0.2410
 1006MOL0     C35688   8.374   4.823   3.208 -0.2102 -0.4965 -0.1279
 1006MOL0     C35689   8.313   4.823   3.066  0.9061  0.9808 -0.2829
 1006MOL0     C35690   8.158   4.832   3.055 -0.9253 -0.2675 -0.1166
 1006MOL0     C35691   8.101   4.848   2.912  0.3752 -1.1136  0.1301
 1006MOL0     N35692   8.159   4.966   2.851 -0.6495 -1.0446 -0.0036
 1006MOL0     C35693   8.088   5.087   2.844 -0.7845 -0.2527 -0.4316
 1006MOL0     C35694   8.180   5.160   2.782 -0.2927 -0.2734  0.1812
 1006MOL0     C35695   8.196   5.303   2.767 -0.2641 -0.2397 -0.3296
 1006MOL0     C35696   8.157   5.382   2.894 -0.6173  0.0653 -0.5052
 1006MOL0     C35697   8.286   5.384   2.983 -0.3573  1.1766  0.3089
 1006MOL0     C35698   8.267   5.476   3.106  0.6490  0.1261 -0.4240
 1006MOL0     O35699   8.146   5.439   3.173 -0.4380  0.8432  0.5094
 1006MOL0     C35700   8.157   5.323   3.250 -0.0200  1.1880 -0.2656
 1006MOL0     C35701   8.240   5.309   3.363  0.1837  0.3141 -0.8497
 1006MOL0     C35702   8.248   5.199   3.450  0.7342 -0.2404  0.2246
 1006MOL0     C35703   8.344   5.187   3.569 -0.9537 -0.0167  0.3706
 1006MOL0     C35704   8.151   5.096   3.423 -0.9560  0.3784  0.1820
 1006MOL0     C35705   8.140   4.964   3.504  0.1741 -0.5277 -0.4103
 1006MOL0     O35706   8.090   4.855   3.440  0.5814  0.3991 -0.2492
 1006MOL0     C35707   8.068   4.748   3.522  0.7354  1.1278  0.3533
 1006MOL0     C35708   8.159   4.644   3.504  0.4560 -0.4180 -0.0914
 1006MOL0     C35709   8.154   4.533   3.581  0.2834  0.2169  0.9535
 1006MOL0     C35710   8.049   4.513   3.676  0.3254  0.3462 -0.0110
 1006MOL0     O35711   8.027   4.391   3.751  0.2786 -0.8776 -0.0718
 1006MOL0     C35712   8.149   4.336   3.801  0.5477  0.0928 -0.1663
 1006MOL0     C35713   8.177   4.208   3.724  0.1550 -0.8193  0.2201
 1006MOL0     C35714   8.299   4.136   3.776  0.4871 -0.1812  0.6944
 1006MOL0     C35715   8.285   4.005   3.856 -0.4017 -0.7730 -0.3110
 1006MOL0     C35716   8.192   3.915   3.783 -0.0381  0.3465 -0.5815
 1006MOL0     C35717   8.193   3.786   3.860  0.1605  0.8561 -0.9685
 1006MOL0     C35718   8.073   3.703   3.816 -0.3582  0.4689  0.2457
 1006MOL0     C35719   8.084   3.572   3.897 -0.5793 -0.7691 -0.1554
 1006MOL0    Cl35720   8.215   3.470   3.834  0.4250  0.0722  0.2635
 1006MOL0     C35721   7.956   4.611   3.679 -0.7951  1.4513 -0.4075
 1006MOL0     C35722   7.959   4.729   3.601 -0.1887  0.3222  0.1162
 1006MOL0     O35723   8.171   4.966   3.625 -0.5709 -0.0917 -0.5921
 1006MOL0     C35724   8.058   5.107   3.312 -0.3955  0.2047 -0.2182
 1006MOL0     C35725   8.059   5.225   3.233  0.0353 -0.1184 -0.0897
 1006MOL0     N35726   8.287   5.085   2.744 -0.5759 -0.5126 -0.8930
 1006MOL0     N35727   8.278   4.970   2.789  0.6226  0.3598 -0.3487
 1006MOL0     C35728   9.029   5.114   3.415  0.5036  0.2549 -0.1362
 1006MOL0     C35729   9.173   5.123   3.419 -0.9911 -0.0606  0.6854
 1006MOL0     C35730   9.563   5.052   3.320 -0.1718  0.0247 -1.0134
 1006MOL0     C35731   9.605   5.143   3.422  0.0102 -0.1825  0.5649
 1006MOL0     C35732   9.728   5.136   3.470 -0.1407 -0.1112 -0.2436
 1006MOL0     C35733   9.814   5.035   3.432 -0.3398 -0.3308 -0.2334
 1006MOL0     O35734   9.934   5.024   3.499 -0.1131 -0.4128  0.1971
 1006MOL0     C35735   9.984   4.891   3.525 -0.2095  0.3743  0.0521
 1006MOL0     C35736  10.114   4.890   3.603 -0.1525 -0.4038 -0.2009
 1006MOL0     C35737  10.240   4.931   3.525 -0.5700 -0.2640  0.8101
 1006MOL0     C35738  10.344   4.999   3.611  0.3437 -0.8822 -0.2645
 1006MOL0     C35739  10.464   5.002   3.533  0.1319  0.4789 -0.4790
 1006MOL0     C35740  10.558   4.999   3.467 -0.4489  0.6671 -0.5727
 1006MOL0     C35741   9.776   4.944   3.332  0.6173 -0.1335 -0.0792
 1006MOL0     C35742   9.652   4.959   3.269  0.5864 -0.4968 -0.9367
 1006MOL0     H35743   9.228   5.249   3.121 -1.9283  0.5359 -0.2995
 1006MOL0     H35744   8.980   5.261   3.109 -4.4937 -1.9257  0.2375
 1006MOL0     H35745   8.757   5.290   3.201  0.6878 -0.1692  5.6424
 1006MOL0     H35746   8.796   5.133   3.115  3.6335 -1.6280  1.2758
 1006MOL0     H35747   8.554   5.198   3.303 -1.6087  0.9720 -0.8867
 1006MOL0     H35748   8.541   5.221   3.134  0.1204  4.2943  2.0881
 1006MOL0     H35749   8.552   4.993   3.080  0.0083  2.6605 -0.6131
 1006MOL0     H35750   8.646   4.948   3.232  0.6209 -0.8760 -0.5427
 1006MOL0     H35751   8.425   4.967   3.355 -1.2333  1.2024  0.3489
 1006MOL0     H35752   8.331   5.028   3.227 -1.4209 -2.9347 -0.3186
 1006MOL0     H35753   8.469   4.769   3.204  1.1872  1.9022 -1.2628
 1006MOL0     H35754   8.298   4.785   3.277 -0.9698  2.1538  0.6088
 1006MOL0     H35755   8.365   4.902   3.010  1.2786  1.0235  0.1237
 1006MOL0     H35756   8.341   4.730   3.016  0.4473  0.5977  0.1651
 1006MOL0     H35757   8.112   4.744   3.101  1.7509  0.1649  3.9348
 1006MOL0     H35758   8.119   4.907   3.124 -1.9682 -2.5440  1.8988
 1006MOL0     H35759   7.993   4.854   2.925  0.5780 -0.5844  1.8184
 1006MOL0     H35760   8.115   4.757   2.853  2.1514 -0.4943 -0.4607
 1006MOL0     H35761   7.992   5.110   2.888  0.2837  3.0844  0.4724
 1006MOL0     H35762   8.296   5.335   2.735 -0.3209 -1.1082 -1.4462
 1006MOL0     H35763   8.127   5.336   2.688  1.5781  1.6118 -1.2642
 1006MOL0     H35764   8.079   5.331   2.952 -1.7630  2.9658  0.6790
 1006MOL0     H35765   8.138   5.485   2.862  2.4205  0.6505 -0.7287
 1006MOL0     H35766   8.367   5.420   2.919  2.2546 -2.9646  0.9296
 1006MOL0     H35767   8.312   5.283   3.016 -0.8416  1.3419  1.2523
 1006MOL0     H35768   8.245   5.574   3.063 -1.8511  0.5619  1.5854
 1006MOL0     H35769   8.349   5.489   3.177  1.6343 -0.2291 -1.4697
 1006MOL0     H35770   8.305   5.390   3.395  0.9496 -0.2642 -0.9070
 1006MOL0     H35771   8.406   5.100   3.545  1.1280  2.0959 -2.5395
 1006MOL0     H35772   8.409   5.274   3.582 -1.7061  0.0758  6.0497
 1006MOL0     H35773   8.295   5.164   3.664 -3.5187 -1.2008 -1.1134
 1006MOL0     H35774   8.245   4.664   3.441  0.6791  2.8369  1.0747
 1006MOL0     H35775   8.231   4.460   3.558 -0.0567  0.1032  0.1685
 1006MOL0     H35776   8.235   4.403   3.789  1.0318 -0.7377 -1.4842
 1006MOL0     H35777   8.128   4.295   3.900 -2.4830 -0.8892 -1.1217
 1006MOL0     H35778   8.090   4.142   3.732  0.8809 -1.7635  0.5297
 1006MOL0     H35779   8.205   4.226   3.620  3.1839 -1.3789  0.8329
 1006MOL0     H35780   8.357   4.213   3.830  0.9983 -0.0886  0.0224
 1006MOL0     H35781   8.361   4.110   3.690 -0.3235 -2.6031  0.7943
 1006MOL0     H35782   8.385   3.967   3.874 -0.8247 -0.7436  2.5543
 1006MOL0     H35783   8.244   4.008   3.957 -1.1111 -1.4027 -0.5694
 1006MOL0     H35784   8.218   3.895   3.679 -1.5169 -2.3115 -0.5189
 1006MOL0     H35785   8.092   3.959   3.791  0.9996  2.6802  0.5985
 1006MOL0     H35786   8.282   3.729   3.832  1.3937  1.8569  0.7295
 1006MOL0     H35787   8.182   3.798   3.968 -1.0922  1.2540 -1.1194
 1006MOL0     H35788   8.080   3.685   3.708 -1.2106  1.3829  0.0247
 1006MOL0     H35789   7.977   3.749   3.841 -0.3364 -0.9337  3.2849
 1006MOL0     H35790   7.989   3.520   3.881 -1.0868 -0.3833  1.4427
 1006MOL0     H35791   8.105   3.593   4.002  0.1656 -1.0277 -0.2440
 1006MOL0     H35792   7.878   4.575   3.746  0.5130 -1.7155 -0.4039
 1006MOL0     H35793   7.883   4.807   3.607 -1.0348 -0.5839  1.6537
 1006MOL0     H35794   7.991   5.024   3.291  0.8607 -0.6446 -1.0381
 1006MOL0     H35795   8.003   5.214   3.140 -1.4476  1.6705  0.5311
 1006MOL0     H35796   8.977   5.060   3.493  2.2252 -1.8808 -0.3667
 1006MOL0     H35797   9.232   5.069   3.492  0.8138 -0.1699 -0.7587
 1006MOL0     H35798   9.550   5.228   3.459 -2.1543 -0.3575 -1.9041
 1006MOL0     H35799   9.775   5.208   3.537 -1.2670 -0.2422  0.7050
 1006MOL0     H35800   9.913   4.831   3.582 -2.7194  1.8666 -1.3038
 1006MOL0     H35801  10.003   4.836   3.432 -3.4503 -2.7561  1.0357
 1006MOL0     H35802  10.125   4.792   3.650 -1.5490 -2.1941 -3.3249
 1006MOL0     H35803  10.093   4.964   3.681  2.2210 -1.8856  2.0127
 1006MOL0     H35804  10.216   5.013   3.457 -1.4985 -1.8458 -0.8478
 1006MOL0     H35805  10.277   4.850   3.462 -3.9003 -0.1344 -1.5404
 1006MOL0     H35806  10.355   4.944   3.705 -0.2444 -0.4872  0.0426
 1006MOL0     H35807  10.309   5.096   3.646  1.8483 -1.3651  2.9143
 1006MOL0     H35808  10.643   5.007   3.402  2.2415 -1.6790  2.3386
 1006MOL0     H35809   9.846   4.867   3.305  1.4253 -0.2094  2.0275
 1006MOL0     H35810   9.615   4.885   3.199 -0.2746 -1.0283  0.0559
 1007MOL0     O35811   5.349   2.812   2.870  0.2884  0.9614  0.2991
 1007MOL0     C35812   5.280   2.897   2.921  0.3721 -0.4080 -0.3124
 1007MOL0     O35813   5.334   3.002   3.001  0.1698  0.4493  0.3564
 1007MOL0     C35814   5.445   2.993   3.080  0.3426  0.2522  0.5816
 1007MOL0     C35815   5.493   3.114   3.136  0.1282  0.0120 -0.4291
 1007MOL0     C35816   5.587   3.112   3.239 -0.0611  0.7502  0.9667
 1007MOL0     C35817   5.639   2.987   3.275  0.4450 -1.0057  0.0043
 1007MOL0     O35818   5.725   2.972   3.381  0.7236  0.2489  0.2728
 1007MOL0     C35819   5.785   3.084   3.447 -0.2633  0.2161  0.1241
 1007MOL0     C35820   5.703   3.160   3.533  0.7852 -1.6609  0.0020
 1007MOL0     C35821   5.788   3.279   3.594  0.4934  0.1340  0.4261
 1007MOL0     C35822   5.729   3.367   3.697  0.8121  0.3225 -0.8941
 1007MOL0     C35823   5.806   3.493   3.716  0.3223 -0.1431  0.4645
 1007MOL0     C35824   5.779   3.571   3.846  0.7613  0.4660 -0.8942
 1007MOL0     C35825   5.835   3.505   3.974 -0.2919 -0.3178 -0.7476
 1007MOL0     C35826   5.986   3.514   3.970  0.6450 -1.1240 -0.2639
 1007MOL0     N35827   6.046   3.391   3.911 -0.0398  0.5342  0.4750
 1007MOL0     C35828   6.126   3.396   3.799 -1.0532 -0.6832  0.4391
 1007MOL0     C35829   6.166   3.269   3.774  0.5900  0.8394 -0.6718
 1007MOL0     C35830   6.243   3.223   3.656 -0.3843  0.4061 -0.6167
 1007MOL0     C35831   6.341   3.328   3.605 -0.0457  0.7613 -0.1976
 1007MOL0     C35832   6.468   3.283   3.537  0.4269  0.5976  0.5717
 1007MOL0     C35833   6.429   3.191   3.413 -0.4953  0.2435 -0.2700
 1007MOL0     O35834   6.327   3.246   3.338  0.0659  0.6637  1.0457
 1007MOL0     C35835   6.252   3.177   3.245  0.3401 -0.4453  0.2175
 1007MOL0     C35836   6.168   3.069   3.277 -0.9824  0.2160  0.2684
 1007MOL0     C35837   6.096   2.996   3.171  0.2584 -0.2449 -1.0284
 1007MOL0     C35838   5.988   2.897   3.218 -1.3551  0.2423 -0.8574
 1007MOL0     C35839   6.130   3.030   3.038  0.3391 -0.1220 -0.3890
 1007MOL0     C35840   6.048   2.968   2.931 -0.3865 -0.4800 -0.0110
 1007MOL0     O35841   5.985   3.044   2.837 -0.6601  0.0286  0.1798
 1007MOL0     C35842   5.878   2.982   2.766 -0.4557 -0.3809  0.3261
 1007MOL0     C35843   5.902   2.936   2.631  0.7786  0.1613 -1.3287
 1007MOL0     C35844   5.792   2.907   2.554  0.0235 -0.3553  0.2494
 1007MOL0     C35845   5.655   2.924   2.602 -0.8915  0.1408 -0.8696
 1007MOL0     O35846   5.554   2.876   2.523  0.3433 -0.4322 -0.5963
 1007MOL0     C35847   5.427   2.937   2.527 -0.6812 -0.2223 -0.1329
 1007MOL0     C35848   5.375   2.912   2.384 -1.2527 -0.1639 -0.7801
 1007MOL0     C35849   5.250   2.968   2.337 -0.5102 -0.1614 -0.2875
 1007MOL0     C35850   5.141   2.941   2.444  1.1513 -0.2870  0.1109
 1007MOL0     C35851   5.004   2.962   2.381 -0.4011  0.1579  1.0638
 1007MOL0     C35852   4.959   2.848   2.288  0.3089 -0.1508 -0.3378
 1007MOL0     C35853   4.807   2.864   2.262  0.2281 -0.8115 -0.3527
 1007MOL0     C35854   4.760   2.753   2.167 -0.1925 -0.3324 -0.1458
 1007MOL0    Cl35855   4.714   2.612   2.264 -0.3327 -0.4114  0.2895
 1007MOL0     C35856   5.639   2.965   2.728 -0.2508 -0.4264 -0.1071
 1007MOL0     C35857   5.743   2.996   2.815  0.4293  0.4682 -0.8004
 1007MOL0     O35858   6.046   2.844   2.926 -0.0930  0.1731 -0.1518
 1007MOL0     C35859   6.211   3.139   3.008  0.5898  0.2163  0.2605
 1007MOL0     C35860   6.265   3.220   3.112 -0.2307  0.7456  0.3475
 1007MOL0     N35861   6.120   3.186   3.884 -0.3424 -0.8271  0.0352
 1007MOL0     N35862   6.038   3.256   3.950 -0.1089  0.2858  0.4248
 1007MOL0     C35863   5.588   2.868   3.228 -0.1426  1.0403  0.1886
 1007MOL0     C35864   5.494   2.870   3.128 -0.6107  0.1204 -0.0823
 1007MOL0     C35865   5.136   2.906   2.895  0.8818  0.3286 -0.6551
 1007MOL0     C35866   5.064   3.017   2.956 -0.2175  0.2538 -0.2827
 1007MOL0     C35867   4.934   3.045   2.917  0.3414 -0.0503 -1.1107
 1007MOL0     C35868   4.876   2.962   2.817 -0.0248 -0.3823 -0.3694
 1007MOL0     O35869   4.736   2.977   2.793  0.0020  0.5830  1.0469
 1007MOL0     C35870   4.669   2.873   2.721  1.2177 -1.0293  0.0084
 1007MOL0     C35871   4.512   2.881   2.743  0.2860 -0.0842 -0.0835
 1007MOL0     C35872   4.423   2.786   2.661  0.4753 -0.1661  0.1146
 1007MOL0     C35873   4.446   2.773   2.506  0.3288 -0.6444 -0.2623
 1007MOL0     C35874   4.429   2.895   2.427 -0.4670  0.4248 -0.2022
 1007MOL0     C35875   4.413   2.986   2.359 -0.3159 -0.9573  0.1536
 1007MOL0     C35876   4.949   2.866   2.758 -0.2478  0.5183  0.5256
 1007MOL0     C35877   5.071   2.832   2.801  0.5891 -0.3498  1.0408
 1007MOL0     H35878   5.448   3.207   3.102 -1.4275 -1.7948 -3.8725
 1007MOL0     H35879   5.622   3.202   3.289 -0.4721 -0.6270  3.9336
 1007MOL0     H35880   5.869   3.049   3.507 -1.7706 -2.5398  0.8244
 1007MOL0     H35881   5.837   3.150   3.377  0.6936 -2.3562 -1.7124
 1007MOL0     H35882   5.615   3.193   3.476  0.7364  1.2344  1.5670
 1007MOL0     H35883   5.674   3.090   3.611  1.4173  1.7737  3.6439
 1007MOL0     H35884   5.881   3.236   3.632  2.9771  2.7508 -2.2129
 1007MOL0     H35885   5.796   3.345   3.508 -0.2175  1.6789  1.5053
 1007MOL0     H35886   5.630   3.395   3.661  1.0487 -0.2776 -2.0704
 1007MOL0     H35887   5.728   3.325   3.798  0.6105  2.9409  0.2871
 1007MOL0     H35888   5.912   3.474   3.696  1.2044  4.2398 -0.1377
 1007MOL0     H35889   5.769   3.552   3.632 -1.9379 -2.4273 -0.2599
 1007MOL0     H35890   5.818   3.671   3.826  0.8042  0.4338 -0.9701
 1007MOL0     H35891   5.673   3.585   3.866  0.6948 -0.7085 -0.3465
 1007MOL0     H35892   5.807   3.574   4.054 -1.4201 -0.2225 -1.2048
 1007MOL0     H35893   5.805   3.403   4.000  1.1375 -0.8629 -1.1528
 1007MOL0     H35894   6.025   3.507   4.072 -0.1679  0.8633  0.2212
 1007MOL0     H35895   6.027   3.606   3.929  0.9718 -0.8878  0.5717
 1007MOL0     H35896   6.129   3.488   3.741 -2.5268 -1.9343 -1.7607
 1007MOL0     H35897   6.289   3.128   3.683 -0.1715 -0.2989 -3.2116
 1007MOL0     H35898   6.173   3.199   3.575  1.6657  0.5491 -2.5208
 1007MOL0     H35899   6.378   3.387   3.690  2.9986  1.8463 -2.1039
 1007MOL0     H35900   6.300   3.402   3.536 -1.2308 -1.0235 -1.4974
 1007MOL0     H35901   6.527   3.229   3.612 -0.6301 -0.7404  0.4820
 1007MOL0     H35902   6.517   3.375   3.505  1.7724 -0.3159 -0.1071
 1007MOL0     H35903   6.414   3.087   3.440  5.2602 -0.6471  0.8401
 1007MOL0     H35904   6.517   3.187   3.348 -1.4205  0.2102 -1.5545
 1007MOL0     H35905   6.170   3.032   3.379  0.6112  0.9301  0.5246
 1007MOL0     H35906   5.897   2.921   3.162 -2.7198  1.2272  1.6241
 1007MOL0     H35907   6.014   2.799   3.176 -2.1014  0.1478 -1.1308
 1007MOL0     H35908   5.982   2.888   3.327 -2.5236  1.0829 -0.8277
 1007MOL0     H35909   5.995   2.944   2.576  1.5646 -1.7426 -0.3533
 1007MOL0     H35910   5.825   2.874   2.456  4.6899  0.7485  1.2027
 1007MOL0     H35911   5.367   2.898   2.610 -0.2815 -2.2108 -0.7216
 1007MOL0     H35912   5.435   3.046   2.530  0.6953 -0.3100  0.1116
 1007MOL0     H35913   5.441   2.984   2.334 -0.8691  0.6972  0.8849
 1007MOL0     H35914   5.387   2.806   2.358  2.2482 -0.8059  2.4593
 1007MOL0     H35915   5.221   2.913   2.247 -2.6978 -2.2197  1.5232
 1007MOL0     H35916   5.262   3.075   2.316  0.4457 -0.4088 -1.0626
 1007MOL0     H35917   5.132   2.839   2.484 -2.4754  1.0521  3.3635
 1007MOL0     H35918   5.140   2.996   2.539  0.1581 -0.5332  0.2532
 1007MOL0     H35919   5.004   3.057   2.327  0.5514  0.0592  0.8751
 1007MOL0     H35920   4.938   2.974   2.468  0.7234 -0.0664  1.9868
 1007MOL0     H35921   5.001   2.881   2.192 -3.2564  0.7610 -1.7435
 1007MOL0     H35922   4.999   2.754   2.328  0.7236  1.5563  3.6942
 1007MOL0     H35923   4.791   2.955   2.203 -2.2043 -2.0618 -1.8274
 1007MOL0     H35924   4.745   2.859   2.352  1.6096 -0.4492  0.6414
 1007MOL0     H35925   4.846   2.727   2.104  2.9121  0.2899  3.4531
 1007MOL0     H35926   4.676   2.791   2.108 -0.5210  1.7443  1.5128
 1007MOL0     H35927   5.541   2.978   2.773  0.0224  0.8972  0.1664
 1007MOL0     H35928   5.713   3.031   2.913  1.7033 -2.2359  0.6544
 1007MOL0     H35929   6.211   3.177   2.907  0.2981 -2.2101 -0.7263
 1007MOL0     H35930   6.329   3.302   3.080 -0.4429  0.7457 -0.0839
 1007MOL0     H35931   5.611   2.770   3.269 -1.0663  2.2701  4.0888
 1007MOL0     H35932   5.443   2.777   3.105  1.5008 -1.2917  0.6309
 1007MOL0     H35933   5.119   3.088   3.017  0.0418 -3.1706  3.9559
 1007MOL0     H35934   4.885   3.131   2.962 -0.3563  0.6009 -3.0188
 1007MOL0     H35935   4.684   2.887   2.613  0.0221  0.6664  0.0191
 1007MOL0     H35936   4.691   2.773   2.757 -0.2339 -1.3312  0.1267
 1007MOL0     H35937   4.482   2.982   2.714 -1.9875 -0.8033 -0.4020
 1007MOL0     H35938   4.497   2.885   2.852 -0.9119  0.5049 -0.2541
 1007MOL0     H35939   4.325   2.824   2.689  2.4755  2.5298  4.6047
 1007MOL0     H35940   4.436   2.690   2.712 -0.9654  0.6275  2.0985
 1007MOL0     H35941   4.380   2.703   2.454 -0.4465  1.1842 -1.8842
 1007MOL0     H35942   4.547   2.736   2.488 -0.1492 -1.9721 -0.3431
 1007MOL0     H35943   4.394   3.070   2.295 -1.5722  1.0198  2.9131
 1007MOL0     H35944   4.914   2.793   2.685 -0.0243 -1.4407  2.3033
 1007MOL0     H35945   5.120   2.744   2.760 -0.6916 -0.0811 -1.2185
 1008MOL0     O35946   5.002   5.880   8.563 -0.3199  0.3125  0.0634
 1008MOL0     C35947   4.955   5.886   8.453 -0.2663  0.1489 -0.4677
 1008MOL0     O35948   4.961   5.787   8.362  0.2304 -0.0616  0.9336
 1008MOL0     C35949   5.027   5.672   8.377 -0.2997  1.2256 -0.4472
 1008MOL0     C35950   5.165   5.666   8.400 -0.4296 -0.2904  1.0926
 1008MOL0     C35951   5.228   5.554   8.428  0.1763  0.4883 -0.5258
 1008MOL0     C35952   5.161   5.432   8.419 -0.3286 -0.1823 -1.0234
 1008MOL0     O35953   5.244   5.325   8.446 -0.7971 -1.0942 -0.2216
 1008MOL0     C35954   5.202   5.194   8.463 -0.0205  0.2414 -0.4431
 1008MOL0     C35955   5.264   5.103   8.355  0.0321  0.2559  0.0615
 1008MOL0     C35956   5.399   5.165   8.295  0.6648  0.6736  0.1837
 1008MOL0     C35957   5.492   5.036   8.266 -0.0940 -0.3647 -0.4135
 1008MOL0     C35958   5.621   5.080   8.194  0.6270  0.3504 -0.1532
 1008MOL0     C35959   5.702   4.960   8.140 -0.6823 -0.0985 -0.4682
 1008MOL0     C35960   5.832   5.008   8.068  0.4387  1.0496 -0.1717
 1008MOL0     C35961   5.924   4.887   8.017  0.5184 -0.6127 -1.5102
 1008MOL0     N35962   6.019   4.927   7.906  0.4176  0.3882 -0.2804
 1008MOL0     C35963   6.069   5.050   7.868 -0.3013  0.4786 -0.8939
 1008MOL0     C35964   6.173   5.017   7.786 -0.3253 -0.2367  0.1631
 1008MOL0     C35965   6.271   5.112   7.729  0.2791 -0.8921  1.0979
 1008MOL0     C35966   6.259   5.137   7.579 -0.8032  0.1308 -0.2144
 1008MOL0     C35967   6.362   5.244   7.528  0.3767 -0.6852  0.1158
 1008MOL0     C35968   6.292   5.370   7.478  0.7082 -0.0951 -0.0191
 1008MOL0     O35969   6.195   5.431   7.559 -0.3817  0.2170 -0.4109
 1008MOL0     C35970   6.168   5.561   7.554  0.2607 -0.8365  0.7123
 1008MOL0     C35971   6.223   5.652   7.464 -0.8023  0.2906 -0.6469
 1008MOL0     C35972   6.186   5.791   7.460 -0.0770  0.0937 -0.0927
 1008MOL0     C35973   6.269   5.885   7.356  0.2024  0.3461  1.0048
 1008MOL0     C35974   6.082   5.833   7.545  0.0239 -0.3363  0.5641
 1008MOL0     C35975   6.032   5.963   7.543  0.9922 -0.9651 -0.2980
 1008MOL0     O35976   6.124   6.060   7.521 -0.5696  0.2902 -0.0220
 1008MOL0     C35977   6.089   6.193   7.516 -0.4569  0.2249  0.9672
 1008MOL0     C35978   6.167   6.262   7.427 -0.2988 -0.7431 -0.1084
 1008MOL0     C35979   6.148   6.396   7.401 -0.5834 -0.9750  0.8253
 1008MOL0     C35980   6.052   6.467   7.477 -0.4291 -0.0541  0.0191
 1008MOL0     O35981   6.041   6.603   7.465 -0.1098 -0.2269  0.7944
 1008MOL0     C35982   5.914   6.668   7.477 -0.9961 -0.6047  0.1813
 1008MOL0     C35983   5.922   6.818   7.446 -0.9656  0.6545 -0.1256
 1008MOL0     C35984   6.038   6.886   7.509  0.6233 -0.4276 -0.2013
 1008MOL0     C35985   6.042   7.028   7.452 -0.1830 -0.3838  0.0452
 1008MOL0     C35986   6.179   7.104   7.489 -0.1850  0.0273 -0.1109
 1008MOL0     C35987   6.209   7.138   7.640  0.6925 -0.1873  0.3007
 1008MOL0     C35988   6.353   7.184   7.656  1.1304 -0.3158  0.1173
 1008MOL0     C35989   6.395   7.201   7.806  0.1033  0.4020  0.4882
 1008MOL0    Cl35990   6.270   7.302   7.902 -0.1307 -0.1662  0.5304
 1008MOL0     C35991   5.960   6.397   7.555 -0.3822 -0.4001 -0.6566
 1008MOL0     C35992   5.985   6.262   7.578  0.2056 -0.5392  0.1949
 1008MOL0     O35993   5.916   5.982   7.579 -0.2905  0.0799  0.3871
 1008MOL0     C35994   6.026   5.737   7.634  0.2968  0.8556 -0.5178
 1008MOL0     C35995   6.072   5.606   7.641 -1.0563  0.9004  0.5092
 1008MOL0     N35996   6.169   4.880   7.758  0.5284 -0.8365 -0.5311
 1008MOL0     N35997   6.065   4.834   7.824  0.3707 -0.6119 -0.3092
 1008MOL0     C35998   5.026   5.426   8.381 -0.4870  0.7439  0.2051
 1008MOL0     C35999   4.959   5.547   8.361 -0.4374 -0.5117 -0.0945
 1008MOL0     C36000   4.886   6.009   8.409  0.5423 -0.5888  0.1687
 1008MOL0     C36001   4.872   6.121   8.489 -0.0507 -0.7943 -0.3955
 1008MOL0     C36002   4.803   6.240   8.444 -0.2147 -0.8882 -0.0041
 1008MOL0     C36003   4.752   6.241   8.310  0.2374 -0.2446 -1.1716
 1008MOL0     O36004   4.690   6.350   8.254  0.7056  0.3598 -0.4567
 1008MOL0     C36005   4.658   6.470   8.337 -0.1188 -0.7102 -0.0857
 1008MOL0     C36006   4.518   6.527   8.319 -0.4628  0.1590 -0.5112
 1008MOL0     C36007   4.476   6.579   8.182  0.0090 -0.0115 -1.0281
 1008MOL0     C36008   4.325   6.576   8.157  0.7997  0.2598 -0.1870
 1008MOL0     C36009   4.292   6.665   8.034  0.8353  0.4045  0.0881
 1008MOL0     C36010   4.263   6.756   7.960  0.0778  0.7504  0.8299
 1008MOL0     C36011   4.751   6.119   8.248 -0.6488  0.7957  0.9923
 1008MOL0     C36012   4.816   6.002   8.288 -0.2300 -0.1730 -0.0876
 1008MOL0     H36013   5.225   5.756   8.409 -2.6825  1.8180 -2.6420
 1008MOL0     H36014   5.335   5.561   8.443  0.4359  0.4374 -2.2305
 1008MOL0     H36015   5.241   5.161   8.560  1.8683  1.8249 -0.5880
 1008MOL0     H36016   5.094   5.179   8.469  0.3411 -3.0488 -0.3972
 1008MOL0     H36017   5.272   5.003   8.399 -0.3084 -1.1437 -2.8267
 1008MOL0     H36018   5.203   5.078   8.268  0.8418  0.4957 -0.5844
 1008MOL0     H36019   5.372   5.219   8.204  0.6335 -2.4860 -1.8670
 1008MOL0     H36020   5.455   5.235   8.357  0.8234 -1.1668  2.2292
 1008MOL0     H36021   5.517   4.979   8.356  1.3592 -1.7896 -1.6567
 1008MOL0     H36022   5.426   4.967   8.212 -2.3225  1.0055  0.4011
 1008MOL0     H36023   5.591   5.133   8.104 -0.6068 -0.3206 -0.1514
 1008MOL0     H36024   5.680   5.150   8.254  2.3379  1.1162 -2.5556
 1008MOL0     H36025   5.743   4.907   8.226  2.0595  0.2576 -1.4805
 1008MOL0     H36026   5.645   4.892   8.076 -2.3790  1.2477 -0.4678
 1008MOL0     H36027   5.807   5.075   7.985 -2.8331 -1.0848 -1.0887
 1008MOL0     H36028   5.891   5.072   8.134  0.4197  1.0268 -0.1321
 1008MOL0     H36029   5.861   4.805   7.982 -0.0631 -1.6161  1.5884
 1008MOL0     H36030   5.983   4.843   8.098 -2.1635 -1.5615  0.0674
 1008MOL0     H36031   6.045   5.151   7.901  0.6306  0.8033 -1.1788
 1008MOL0     H36032   6.265   5.210   7.778  0.0767 -0.7343  0.7581
 1008MOL0     H36033   6.372   5.073   7.746 -0.0260 -2.6234 -0.7286
 1008MOL0     H36034   6.162   5.177   7.551 -0.8539  0.4850  0.4556
 1008MOL0     H36035   6.264   5.042   7.526 -2.7303  1.0940 -2.2348
 1008MOL0     H36036   6.418   5.199   7.445 -0.8075 -1.7063 -0.1556
 1008MOL0     H36037   6.421   5.265   7.618  0.5998 -2.0059  0.2980
 1008MOL0     H36038   6.245   5.358   7.380  1.7979  2.8582 -1.0255
 1008MOL0     H36039   6.370   5.446   7.469  0.1772  0.4175 -0.3708
 1008MOL0     H36040   6.307   5.631   7.399 -2.7667  1.3374 -3.7473
 1008MOL0     H36041   6.325   5.819   7.290 -1.3169  0.6438 -0.6855
 1008MOL0     H36042   6.212   5.940   7.280  2.6221 -1.4360 -2.3783
 1008MOL0     H36043   6.335   5.952   7.412  1.3654  1.7195 -1.8382
 1008MOL0     H36044   6.249   6.202   7.393 -0.9894 -2.6760  1.4272
 1008MOL0     H36045   6.201   6.459   7.329 -2.0626  2.7299  2.6798
 1008MOL0     H36046   5.849   6.612   7.409 -1.2067  2.1816 -2.1037
 1008MOL0     H36047   5.877   6.665   7.579 -2.5874  0.5242 -0.3273
 1008MOL0     H36048   5.914   6.836   7.338 -0.3459  1.4234 -0.0485
 1008MOL0     H36049   5.830   6.863   7.484 -1.2130  0.0741 -0.0154
 1008MOL0     H36050   6.133   6.837   7.486  1.1476 -0.1735  1.2754
 1008MOL0     H36051   6.018   6.893   7.616  1.7300 -1.3087  0.0766
 1008MOL0     H36052   6.036   7.026   7.342 -0.8205  2.9109 -0.0574
 1008MOL0     H36053   5.958   7.087   7.488  0.0035 -0.2937  0.3265
 1008MOL0     H36054   6.184   7.196   7.430 -0.7961 -0.0190 -0.2383
 1008MOL0     H36055   6.263   7.036   7.469  1.9628  1.3261  3.5960
 1008MOL0     H36056   6.142   7.220   7.669 -1.4735 -1.0978 -1.7483
 1008MOL0     H36057   6.195   7.045   7.696  0.3258 -1.8490 -2.3389
 1008MOL0     H36058   6.361   7.287   7.620 -1.1585  0.6948  2.1567
 1008MOL0     H36059   6.418   7.115   7.602  2.4379  0.8260  0.1846
 1008MOL0     H36060   6.491   7.253   7.806 -1.5287  3.7231 -1.1256
 1008MOL0     H36061   6.398   7.108   7.863  0.1799  0.9559  1.4101
 1008MOL0     H36062   5.887   6.442   7.622 -0.0347 -0.6387 -0.1096
 1008MOL0     H36063   5.907   6.232   7.647  1.0104  0.2151  1.4790
 1008MOL0     H36064   5.936   5.761   7.689 -1.0034  0.9247 -2.5888
 1008MOL0     H36065   6.034   5.535   7.713  0.9116 -1.4782 -0.6440
 1008MOL0     H36066   4.979   5.330   8.368 -1.7219  0.8166  3.3637
 1008MOL0     H36067   4.856   5.534   8.331  0.6669 -0.1876 -4.9633
 1008MOL0     H36068   4.913   6.118   8.589  1.2873  2.1657 -0.7397
 1008MOL0     H36069   4.793   6.313   8.524  1.7094 -1.8652  1.2144
 1008MOL0     H36070   4.673   6.459   8.445 -0.3527 -2.4521 -0.1964
 1008MOL0     H36071   4.724   6.549   8.301  1.1361 -2.2990 -1.4124
 1008MOL0     H36072   4.503   6.611   8.388 -0.3496 -0.1528 -0.1013
 1008MOL0     H36073   4.446   6.451   8.352  0.6496 -0.4982  0.4635
 1008MOL0     H36074   4.524   6.525   8.100 -3.7769 -2.6316 -1.7537
 1008MOL0     H36075   4.501   6.685   8.190  1.7819 -0.4916  0.6743
 1008MOL0     H36076   4.267   6.602   8.246 -0.2330 -0.7893 -0.5188
 1008MOL0     H36077   4.301   6.472   8.133 -1.9842 -0.3220  4.1307
 1008MOL0     H36078   4.255   6.843   7.897  0.2476 -0.4888 -0.9550
 1008MOL0     H36079   4.712   6.115   8.147  3.6060  0.4150 -0.8643
 1008MOL0     H36080   4.803   5.908   8.237 -2.5084 -0.3890  0.7646
 1009MOL0     O36081   1.075  11.481   0.741  0.2207 -0.6787 -0.2133
 1009MOL0     C36082   1.013  11.502   0.633 -0.3389  0.6773  0.2707
 1009MOL0     O36083   1.071  11.552   0.522 -1.3911  1.0518 -0.6906
 1009MOL0     C36084   1.192  11.621   0.533 -0.3564 -0.7808  0.1020
 1009MOL0     C36085   1.294  11.578   0.454  0.0962  0.8184  0.9649
 1009MOL0     C36086   1.424  11.635   0.463  0.0487 -0.4235  0.2968
 1009MOL0     C36087   1.442  11.735   0.559 -0.1171  0.2766  0.2702
 1009MOL0     O36088   1.562  11.792   0.591 -0.2645  0.3305  0.2486
 1009MOL0     C36089   1.686  11.733   0.542 -0.3115  0.2989  0.0145
 1009MOL0     C36090   1.799  11.830   0.561 -0.3062 -0.8963  0.3315
 1009MOL0     C36091   1.818  11.901   0.702 -0.6836  1.6669  0.0542
 1009MOL0     C36092   1.884  11.803   0.809 -0.0583 -0.5207 -0.3997
 1009MOL0     C36093   1.901  11.892   0.926  0.5632 -0.2055  0.2734
 1009MOL0     C36094   1.968  11.816   1.040  0.5585 -0.5157  0.1330
 1009MOL0     C36095   1.993  11.899   1.176  0.8669 -1.4606  0.2362
 1009MOL0     C36096   2.017  11.795   1.288  0.3253 -0.0872  0.4106
 1009MOL0     N36097   2.146  11.728   1.263  0.8509  1.5066  1.0494
 1009MOL0     C36098   2.172  11.604   1.192  0.4732  0.0051  0.7391
 1009MOL0     C36099   2.296  11.571   1.228  0.2315  0.5756 -0.1300
 1009MOL0     C36100   2.359  11.442   1.204 -0.1799  0.8914 -0.1595
 1009MOL0     C36101   2.361  11.356   1.332  0.2887 -0.5796 -0.1084
 1009MOL0     C36102   2.504  11.333   1.390  1.3630  0.2940  0.0484
 1009MOL0     C36103   2.500  11.241   1.513  0.4314  0.5943 -0.3969
 1009MOL0     O36104   2.418  11.298   1.618  0.0352 -0.4732 -0.3786
 1009MOL0     C36105   2.443  11.253   1.747 -0.9582 -0.4415 -0.1985
 1009MOL0     C36106   2.426  11.355   1.843 -0.7561 -0.5257  0.6019
 1009MOL0     C36107   2.420  11.332   1.979 -1.1076  0.8207 -1.2994
 1009MOL0     C36108   2.419  11.449   2.070  0.3499 -0.2102 -0.5343
 1009MOL0     C36109   2.445  11.196   2.020  0.5946  0.2364  0.1367
 1009MOL0     C36110   2.442  11.149   2.165 -0.9407 -0.1519  0.1630
 1009MOL0     O36111   2.525  11.048   2.188  0.6708 -0.2107 -0.0324
 1009MOL0     C36112   2.529  10.988   2.316  0.3967  0.2078  0.4818
 1009MOL0     C36113   2.462  10.869   2.331  0.3322 -0.0734 -0.0434
 1009MOL0     C36114   2.462  10.804   2.454 -0.0629  0.5480  0.2986
 1009MOL0     C36115   2.551  10.843   2.549  1.4853  0.8252 -0.0009
 1009MOL0     O36116   2.544  10.761   2.668  0.2770 -0.2675 -0.2991
 1009MOL0     C36117   2.665  10.750   2.739 -0.4199  0.3777 -0.3301
 1009MOL0     C36118   2.638  10.634   2.853 -0.1470  0.0298  0.3195
 1009MOL0     C36119   2.758  10.644   2.944  0.4266  0.6794  0.5834
 1009MOL0     C36120   2.758  10.547   3.059 -0.5657 -0.1970 -0.2524
 1009MOL0     C36121   2.885  10.516   3.124 -0.5962  0.0091  0.8267
 1009MOL0     C36122   2.969  10.415   3.044 -0.4387  0.0790 -0.0468
 1009MOL0     C36123   3.117  10.426   3.076 -0.7772  0.1394  0.0973
 1009MOL0     C36124   3.190  10.288   3.064  0.9143 -0.2772  0.2061
 1009MOL0    Cl36125   3.142  10.179   3.204 -0.0916 -0.4792 -0.5112
 1009MOL0     C36126   2.629  10.959   2.531 -0.0689 -0.1492 -0.0282
 1009MOL0     C36127   2.617  11.035   2.414  0.3425 -0.2736  0.1324
 1009MOL0     O36128   2.367  11.201   2.241  0.2895 -0.0087 -0.3538
 1009MOL0     C36129   2.483  11.101   1.921  0.2605  0.2026  0.5218
 1009MOL0     C36130   2.466  11.124   1.786 -0.4923  0.0290 -0.0821
 1009MOL0     N36131   2.358  11.686   1.296 -0.8401  0.4456  0.3877
 1009MOL0     N36132   2.264  11.767   1.320 -0.2440 -0.1162  0.0216
 1009MOL0     C36133   1.334  11.789   0.630 -1.6991 -0.3310 -0.0340
 1009MOL0     C36134   1.217  11.723   0.620  0.0083  0.1883 -0.0841
 1009MOL0     C36135   0.884  11.440   0.607  0.5199  0.4413 -0.4706
 1009MOL0     C36136   0.815  11.477   0.488 -0.3247  0.2894 -0.6839
 1009MOL0     C36137   0.683  11.418   0.467  0.0405 -1.1481  0.7184
 1009MOL0     C36138   0.634  11.329   0.562 -0.0532  0.2733  0.3057
 1009MOL0     O36139   0.513  11.267   0.557 -0.5916  0.2631  0.4860
 1009MOL0     C36140   0.401  11.328   0.484  0.8291  0.0042 -0.2442
 1009MOL0     C36141   0.364  11.458   0.559  0.4539 -0.1045  0.0341
 1009MOL0     C36142   0.282  11.421   0.688  0.1849  0.1870 -0.2281
 1009MOL0     C36143   0.264  11.549   0.786 -0.9874 -1.3321  0.0356
 1009MOL0     C36144   0.225  11.671   0.710  0.3658 -0.4117 -0.0979
 1009MOL0     C36145   0.166  11.767   0.655  0.5899  0.7450 -0.1188
 1009MOL0     C36146   0.702  11.295   0.676  0.0297 -0.2613 -0.4955
 1009MOL0     C36147   0.829  11.345   0.702  0.2357 -0.4539 -0.6227
 1009MOL0     H36148   1.266  11.501   0.383  0.9491  1.6980 -0.3627
 1009MOL0     H36149   1.503  11.600   0.398 -1.6646  0.5161 -2.4230
 1009MOL0     H36150   1.715  11.642   0.595  1.5783 -0.1674 -1.7165
 1009MOL0     H36151   1.680  11.706   0.437  0.2731  2.4733 -0.6310
 1009MOL0     H36152   1.885  11.767   0.541 -0.2236 -0.3918 -0.9972
 1009MOL0     H36153   1.800  11.894   0.472  0.3140 -1.3191  0.0276
 1009MOL0     H36154   1.897  11.975   0.686  0.1236  1.0079  0.8429
 1009MOL0     H36155   1.728  11.945   0.746 -1.0087 -1.1760  2.5403
 1009MOL0     H36156   1.812  11.722   0.825 -3.0399  2.0654  0.0953
 1009MOL0     H36157   1.978  11.759   0.774  0.8000  1.5867 -0.8930
 1009MOL0     H36158   1.950  11.985   0.895 -0.8253  0.2559 -0.6429
 1009MOL0     H36159   1.800  11.930   0.948 -0.3045 -2.0787 -0.2815
 1009MOL0     H36160   1.913  11.730   1.076 -4.9254  3.1185  1.6665
 1009MOL0     H36161   2.067  11.787   1.004  1.1007 -0.0885  1.2314
 1009MOL0     H36162   2.078  11.968   1.178 -0.0272 -0.2358  4.2972
 1009MOL0     H36163   1.897  11.947   1.194 -0.7129 -4.1400 -0.5175
 1009MOL0     H36164   1.928  11.734   1.302  1.8966 -2.1545  2.0758
 1009MOL0     H36165   2.045  11.841   1.383  2.2825  0.9151 -0.5763
 1009MOL0     H36166   2.109  11.532   1.141  0.7504  0.3418 -0.0948
 1009MOL0     H36167   2.306  11.386   1.125  2.4982 -0.6129 -1.0355
 1009MOL0     H36168   2.463  11.449   1.173  0.8062 -3.0508  1.5862
 1009MOL0     H36169   2.314  11.267   1.292  0.6736 -1.4457  1.2745
 1009MOL0     H36170   2.293  11.390   1.411  0.9684 -4.5880  2.5342
 1009MOL0     H36171   2.541  11.433   1.414 -0.7470  1.0250  0.4705
 1009MOL0     H36172   2.564  11.289   1.311  0.2847 -1.1415 -0.0205
 1009MOL0     H36173   2.605  11.232   1.541  0.8358  1.8553 -1.4049
 1009MOL0     H36174   2.466  11.141   1.483 -3.8989  0.9224  2.5404
 1009MOL0     H36175   2.421  11.454   1.800  1.3033  1.9380  5.2222
 1009MOL0     H36176   2.379  11.429   2.170  0.1017 -2.7050 -1.0525
 1009MOL0     H36177   2.515  11.496   2.092 -0.2756  1.1908 -0.7288
 1009MOL0     H36178   2.354  11.528   2.030  1.0477  1.8907  2.2005
 1009MOL0     H36179   2.391  10.845   2.252  0.0537  0.8991 -0.1008
 1009MOL0     H36180   2.400  10.717   2.475 -1.3023  1.4622  0.5467
 1009MOL0     H36181   2.749  10.723   2.674 -1.7715 -0.5033 -1.7637
 1009MOL0     H36182   2.688  10.842   2.794  0.9676  1.9445 -3.3328
 1009MOL0     H36183   2.543  10.645   2.906 -1.4383 -0.7745 -1.7174
 1009MOL0     H36184   2.645  10.538   2.801  1.8239  1.0080 -1.3776
 1009MOL0     H36185   2.777  10.742   2.989 -0.5476 -0.1023  2.8206
 1009MOL0     H36186   2.856  10.627   2.897  2.1425  0.7554  3.8589
 1009MOL0     H36187   2.701  10.590   3.142  0.8146 -0.9606  1.1455
 1009MOL0     H36188   2.719  10.453   3.019  1.0817 -0.2801 -1.7697
 1009MOL0     H36189   2.862  10.495   3.229 -3.6652  0.5604  0.3651
 1009MOL0     H36190   2.944  10.608   3.125  0.5299 -0.1231 -6.1682
 1009MOL0     H36191   2.937  10.315   3.072 -1.7815  0.4428 -0.2274
 1009MOL0     H36192   2.962  10.425   2.935 -0.9339  1.8304  0.1024
 1009MOL0     H36193   3.139  10.463   3.177  0.2737  0.4386 -0.2260
 1009MOL0     H36194   3.175  10.490   3.009  2.1376  0.7142  2.9254
 1009MOL0     H36195   3.298  10.303   3.069  1.1772 -2.2494  1.9902
 1009MOL0     H36196   3.172  10.230   2.974  0.0770 -3.0656  2.0442
 1009MOL0     H36197   2.700  10.999   2.604 -1.5953  0.2312  1.3128
 1009MOL0     H36198   2.681  11.121   2.394 -1.1933  1.0855  0.7681
 1009MOL0     H36199   2.493  11.002   1.963  1.1906 -0.5105 -1.2924
 1009MOL0     H36200   2.483  11.054   1.705 -0.3283  0.3968 -0.3717
 1009MOL0     H36201   1.351  11.872   0.698  2.0455  0.6409 -1.9221
 1009MOL0     H36202   1.131  11.768   0.668  0.4404  1.0298 -0.0793
 1009MOL0     H36203   0.853  11.545   0.413 -0.9564  0.2884 -1.0162
 1009MOL0     H36204   0.630  11.443   0.376 -1.5226  1.0517  2.1299
 1009MOL0     H36205   0.423  11.344   0.378 -2.2027 -3.3049 -1.5701
 1009MOL0     H36206   0.314  11.262   0.488  0.2295  0.8255  0.9468
 1009MOL0     H36207   0.305  11.515   0.486 -0.0769  1.4007  1.5746
 1009MOL0     H36208   0.452  11.515   0.589  0.5557 -0.0255 -0.4064
 1009MOL0     H36209   0.335  11.343   0.743 -1.6940  0.3249  1.9502
 1009MOL0     H36210   0.187  11.374   0.662 -0.0518  1.0754 -1.0495
 1009MOL0     H36211   0.365  11.566   0.825 -0.5445 -0.2775 -1.4655
 1009MOL0     H36212   0.199  11.521   0.869 -0.5521  0.1981  0.9288
 1009MOL0     H36213   0.123  11.846   0.597  0.3682 -1.2147 -2.7693
 1009MOL0     H36214   0.662  11.232   0.754  2.0686  1.6861  2.3324
 1009MOL0     H36215   0.882  11.334   0.795 -0.6685  3.6241  0.5875
 1010MOL0     O36216  10.839   4.809   7.785  0.3011 -0.1690 -0.4627
 1010MOL0     C36217  10.964   4.802   7.788  1.2415  0.6930  0.3624
 1010MOL0     O36218  11.039   4.754   7.682  0.1359 -0.2620 -0.9644
 1010MOL0     C36219  10.992   4.666   7.586 -0.2223 -0.2423  1.0141
 1010MOL0     C36220  11.076   4.566   7.537 -0.3658  0.5852 -0.1139
 1010MOL0     C36221  11.046   4.485   7.436  0.1045  0.1877 -0.5261
 1010MOL0     C36222  10.937   4.506   7.358  0.4899  0.5582 -0.1609
 1010MOL0     O36223  10.905   4.429   7.251 -0.6404  0.2735 -0.0958
 1010MOL0     C36224  11.006   4.350   7.171 -0.6465 -0.0925 -0.2192
 1010MOL0     C36225  11.072   4.420   7.055  0.1226  0.0473  0.3150
 1010MOL0     C36226  11.170   4.535   7.093 -0.2097 -0.3164  0.2547
 1010MOL0     C36227  11.290   4.498   7.176 -0.1028  1.3376  0.1977
 1010MOL0     C36228  11.420   4.468   7.090  0.0633  0.2318 -0.4380
 1010MOL0     C36229  11.545   4.504   7.167 -0.6490  0.1278  0.1470
 1010MOL0     C36230  11.660   4.518   7.064 -0.1494  0.3422  0.4059
 1010MOL0     C36231  11.656   4.617   6.941 -0.4773  0.1437  0.4932
 1010MOL0     N36232  11.787   4.625   6.876 -0.0351 -0.5187  0.0640
 1010MOL0     C36233  11.905   4.568   6.916 -0.4927 -0.4165 -0.0587
 1010MOL0     C36234  11.987   4.574   6.816  0.7456  1.0485  0.0014
 1010MOL0     C36235  12.132   4.527   6.796 -0.3968 -0.1952  0.1565
 1010MOL0     C36236  12.152   4.375   6.805  0.5961 -0.8691 -0.3230
 1010MOL0     C36237  12.106   4.296   6.683 -0.4877  0.1462 -0.9785
 1010MOL0     C36238  12.177   4.320   6.553 -0.3632 -0.9931  0.8789
 1010MOL0     O36239  12.323   4.345   6.581  0.8201  0.0903  0.6327
 1010MOL0     C36240  12.405   4.240   6.602  0.1226  1.1709 -0.1503
 1010MOL0     C36241  12.521   4.262   6.671  0.1195  0.3420  0.8231
 1010MOL0     C36242  12.622   4.160   6.683 -0.4459 -0.8895 -0.3401
 1010MOL0     C36243  12.749   4.206   6.762  0.4674 -0.9828 -1.2477
 1010MOL0     C36244  12.603   4.026   6.644  0.5177 -1.5427 -0.4553
 1010MOL0     C36245  12.692   3.917   6.645  0.1092 -0.9357  0.2158
 1010MOL0     O36246  12.818   3.934   6.695  0.1947  0.5951 -0.3374
 1010MOL0     C36247  12.919   3.849   6.670 -0.6362 -0.0651 -0.4102
 1010MOL0     C36248  12.993   3.818   6.779 -1.0004 -0.7157 -0.1798
 1010MOL0     C36249  13.103   3.727   6.760  0.9056  0.5429  1.0268
 1010MOL0     C36250  13.127   3.669   6.630  0.6183 -0.5713 -0.0702
 1010MOL0     O36251  13.230   3.577   6.625  0.6034  0.2335  0.1074
 1010MOL0     C36252  13.249   3.471   6.525 -0.3114  0.7878 -0.4944
 1010MOL0     C36253  13.125   3.388   6.533 -0.0361  0.4752 -0.8438
 1010MOL0     C36254  13.117   3.309   6.676 -0.4310 -0.2783  0.1692
 1010MOL0     C36255  13.214   3.190   6.670  0.2917  0.2784 -0.5465
 1010MOL0     C36256  13.121   3.064   6.708  0.2266  0.1504 -0.4044
 1010MOL0     C36257  13.208   2.938   6.708 -1.2751 -0.3271  0.9368
 1010MOL0     C36258  13.323   2.927   6.817  0.3578  0.3130  0.0921
 1010MOL0     C36259  13.429   2.815   6.788  0.7835  0.1967  0.0488
 1010MOL0    Cl36260  13.596   2.885   6.821 -0.2171  0.4571  0.2227
 1010MOL0     C36261  13.046   3.702   6.518 -0.5570 -0.5865  0.4973
 1010MOL0     C36262  12.943   3.794   6.544  0.2104  1.0323  1.0988
 1010MOL0     O36263  12.658   3.821   6.575 -0.3678  1.1034 -0.2680
 1010MOL0     C36264  12.480   4.003   6.581  0.0936  0.3546  0.5219
 1010MOL0     C36265  12.390   4.105   6.548 -0.7617  0.4803 -0.2713
 1010MOL0     N36266  11.928   4.655   6.714  0.0925  0.3313 -0.3606
 1010MOL0     N36267  11.813   4.689   6.756  1.1139  0.3367 -0.3180
 1010MOL0     C36268  10.849   4.604   7.397  0.0353 -0.1772 -0.1461
 1010MOL0     C36269  10.875   4.686   7.507  0.1163  0.0395 -0.0950
 1010MOL0     C36270  11.029   4.842   7.919  0.1472  0.5409  1.2432
 1010MOL0     C36271  10.956   4.931   8.002 -0.4936  0.3078 -0.1533
 1010MOL0     C36272  11.008   4.996   8.115  0.4525 -0.7132  0.3131
 1010MOL0     C36273  11.131   4.954   8.160  1.2297  1.2244  0.7824
 1010MOL0     O36274  11.172   5.004   8.284 -0.4440  0.3732  0.4027
 1010MOL0     C36275  11.178   5.144   8.305 -0.2432 -0.7536  0.2253
 1010MOL0     C36276  11.096   5.193   8.434 -0.4335 -0.7097  0.2365
 1010MOL0     C36277  11.095   5.339   8.422  0.3125  0.0494 -0.5758
 1010MOL0     C36278  11.010   5.411   8.530  0.6331  0.6537 -1.1576
 1010MOL0     C36279  10.867   5.424   8.506  0.8679 -1.4203 -0.0053
 1010MOL0     C36280  10.745   5.444   8.487  0.1064  0.7007 -0.6846
 1010MOL0     C36281  11.200   4.851   8.088  0.5640  0.1872  0.7941
 1010MOL0     C36282  11.150   4.798   7.972 -0.4445  0.3444  0.1403
 1010MOL0     H36283  11.175   4.542   7.575 -0.2781 -0.0677 -0.7547
 1010MOL0     H36284  11.116   4.410   7.400 -0.2867 -0.6556  0.4204
 1010MOL0     H36285  11.075   4.284   7.224  0.5434  0.3978 -1.1063
 1010MOL0     H36286  10.945   4.274   7.122 -0.9280 -0.1557  0.2248
 1010MOL0     H36287  11.128   4.351   6.993  1.7265  0.5850  1.1165
 1010MOL0     H36288  10.994   4.462   6.990 -2.1803 -2.6379  1.1643
 1010MOL0     H36289  11.201   4.585   7.000 -1.0947 -2.2415 -1.1372
 1010MOL0     H36290  11.110   4.606   7.151 -2.3581  0.5261 -2.7595
 1010MOL0     H36291  11.307   4.582   7.244 -3.0028  2.8645 -0.7826
 1010MOL0     H36292  11.277   4.405   7.233  2.2186 -0.6247 -2.2064
 1010MOL0     H36293  11.420   4.366   7.052  1.0055 -0.1511  0.5330
 1010MOL0     H36294  11.400   4.530   7.002 -1.0104  0.4173 -0.0885
 1010MOL0     H36295  11.533   4.602   7.215  0.8477 -0.2801  1.4186
 1010MOL0     H36296  11.571   4.429   7.242  0.5371 -1.5944 -1.8987
 1010MOL0     H36297  11.749   4.539   7.124  1.1604  1.3896 -1.7443
 1010MOL0     H36298  11.678   4.414   7.034  0.3151  0.0940  1.5067
 1010MOL0     H36299  11.616   4.716   6.965 -3.4130 -0.8299  0.0722
 1010MOL0     H36300  11.591   4.578   6.862 -2.2553 -0.3770  2.1300
 1010MOL0     H36301  11.935   4.517   7.008  0.9139  1.4313  0.5644
 1010MOL0     H36302  12.170   4.575   6.705  2.6335  2.6101  2.6708
 1010MOL0     H36303  12.189   4.577   6.874  1.0994 -0.0215 -0.9948
 1010MOL0     H36304  12.094   4.349   6.894  1.0450  3.2777  1.4593
 1010MOL0     H36305  12.256   4.349   6.827 -0.4884 -3.2701  2.7918
 1010MOL0     H36306  11.998   4.311   6.675 -0.4442  0.9624 -0.1955
 1010MOL0     H36307  12.113   4.188   6.697 -4.2791 -0.3843 -1.8270
 1010MOL0     H36308  12.124   4.394   6.492  0.8488 -1.0704 -0.3051
 1010MOL0     H36309  12.153   4.234   6.491 -0.9789 -0.8663  0.9328
 1010MOL0     H36310  12.533   4.364   6.705  3.0099 -0.7468  3.5208
 1010MOL0     H36311  12.746   4.154   6.858 -3.1403 -0.9020 -1.2026
 1010MOL0     H36312  12.843   4.195   6.707 -0.2585 -0.1316 -2.6858
 1010MOL0     H36313  12.750   4.315   6.778 -1.5836 -0.8544 -1.8189
 1010MOL0     H36314  12.973   3.874   6.870  0.6219  3.0162 -1.9145
 1010MOL0     H36315  13.166   3.706   6.846  0.8486 -0.1914  0.8978
 1010MOL0     H36316  13.258   3.511   6.424  0.1350 -1.2796 -1.3225
 1010MOL0     H36317  13.341   3.419   6.552 -0.2516 -0.1135 -2.2838
 1010MOL0     H36318  13.042   3.458   6.529 -0.2734  0.2416 -0.1951
 1010MOL0     H36319  13.129   3.316   6.451 -1.8527 -0.0281 -0.5215
 1010MOL0     H36320  13.015   3.282   6.705  1.2610 -2.7918  4.8022
 1010MOL0     H36321  13.152   3.379   6.752 -0.9126 -0.2004  0.3230
 1010MOL0     H36322  13.248   3.172   6.567  0.1755  1.0163 -0.7220
 1010MOL0     H36323  13.290   3.199   6.748 -2.7876  0.6108  2.6384
 1010MOL0     H36324  13.043   3.038   6.637 -0.3763  0.1270  0.2620
 1010MOL0     H36325  13.079   3.068   6.809  1.4322 -5.4049  0.6205
 1010MOL0     H36326  13.143   2.851   6.712 -3.4446  0.9512 -2.1684
 1010MOL0     H36327  13.265   2.941   6.614  1.8407 -0.9743  2.6614
 1010MOL0     H36328  13.278   2.927   6.917  3.1940  0.7051  1.4759
 1010MOL0     H36329  13.386   3.013   6.792 -2.2000  2.3389  0.2522
 1010MOL0     H36330  13.412   2.775   6.688 -2.5436  2.0838 -0.3000
 1010MOL0     H36331  13.406   2.735   6.858 -1.2254  0.7767  0.1136
 1010MOL0     H36332  13.065   3.665   6.418 -1.8161 -0.0592  0.0472
 1010MOL0     H36333  12.891   3.830   6.455  1.9483  0.3753 -0.2194
 1010MOL0     H36334  12.449   3.904   6.549  1.3293  0.4281 -0.9691
 1010MOL0     H36335  12.304   4.082   6.486 -2.5692 -1.9746  2.8897
 1010MOL0     H36336  10.759   4.621   7.339  1.8028  3.4871 -2.2519
 1010MOL0     H36337  10.813   4.771   7.535  2.3039  2.3204 -1.7636
 1010MOL0     H36338  10.854   4.962   7.978 -1.8348 -2.9230  0.7915
 1010MOL0     H36339  10.948   5.074   8.162  2.2799  0.6362  0.5091
 1010MOL0     H36340  11.282   5.176   8.315  0.9857 -4.2841  0.3051
 1010MOL0     H36341  11.144   5.199   8.217 -1.6821 -2.9769 -0.7046
 1010MOL0     H36342  11.151   5.166   8.525 -4.7753 -2.4768  2.6616
 1010MOL0     H36343  10.992   5.158   8.435 -1.6340  2.1117 -3.4456
 1010MOL0     H36344  11.067   5.366   8.320  0.6327  3.5900  0.1564
 1010MOL0     H36345  11.198   5.373   8.438 -0.0688  1.2071 -0.4859
 1010MOL0     H36346  11.044   5.514   8.541 -1.2163  1.3808 -1.8563
 1010MOL0     H36347  11.018   5.362   8.628  2.3361 -1.6887 -2.3494
 1010MOL0     H36348  10.639   5.456   8.481 -0.1509 -1.5862 -1.3373
 1010MOL0     H36349  11.297   4.806   8.111  0.7596 -2.1366 -3.5145
 1010MOL0     H36350  11.201   4.722   7.914 -1.3814  1.1129 -1.8057
 1011MOL0     O36351   4.657  10.314  11.128 -0.6930  0.1763 -0.9119
 1011MOL0     C36352   4.724  10.305  11.027 -0.2249  1.6900  0.0614
 1011MOL0     O36353   4.703  10.214  10.924 -0.0114  0.0948  0.3346
 1011MOL0     C36354   4.616  10.107  10.940 -0.9549 -0.2461 -0.1035
 1011MOL0     C36355   4.549  10.057  11.061 -0.3264  0.3529  0.3019
 1011MOL0     C36356   4.463   9.954  11.050  0.3233  1.0137 -1.0342
 1011MOL0     C36357   4.426   9.900  10.929 -0.1485 -0.3859  0.4977
 1011MOL0     O36358   4.311   9.824  10.925 -0.0010  0.1812 -0.4575
 1011MOL0     C36359   4.207   9.857  10.834  0.0921 -0.1205 -0.1073
 1011MOL0     C36360   4.073   9.859  10.919 -0.4768  0.9747  0.2172
 1011MOL0     C36361   3.996   9.984  10.882  0.0302  0.0536 -0.8233
 1011MOL0     C36362   3.887  10.013  10.989 -0.5996 -0.0354 -0.4355
 1011MOL0     C36363   3.788  10.115  10.932  0.4346 -0.3224  1.1379
 1011MOL0     C36364   3.666  10.141  11.025  0.5378 -0.0470  0.3063
 1011MOL0     C36365   3.695  10.220  11.157 -0.0100  0.4506  0.0748
 1011MOL0     C36366   3.564  10.274  11.217 -0.1451 -0.3139 -0.1529
 1011MOL0     N36367   3.514  10.396  11.143 -1.6655 -0.1259 -0.0475
 1011MOL0     C36368   3.525  10.527  11.185  0.9997  1.0528 -0.5201
 1011MOL0     C36369   3.435  10.584  11.105 -0.6039 -0.7876  0.5112
 1011MOL0     C36370   3.378  10.721  11.133  0.0482 -0.5037 -0.4607
 1011MOL0     C36371   3.424  10.791  11.269 -0.1052  0.5048  0.3190
 1011MOL0     C36372   3.364  10.932  11.274  0.4380 -0.3309 -0.0226
 1011MOL0     C36373   3.415  11.009  11.399  0.5347  0.5187  0.9761
 1011MOL0     O36374   3.328  11.118  11.417  0.7462 -0.2210 -1.0034
 1011MOL0     C36375   3.368  11.206  11.522  0.3153 -0.0446  0.7537
 1011MOL0     C36376   3.422  11.178  11.637 -0.2971  0.4396 -0.3307
 1011MOL0     C36377   3.473  11.270  11.729 -0.5446 -0.8436  0.5066
 1011MOL0     C36378   3.533  11.204  11.850  1.0179 -0.2295  0.0123
 1011MOL0     C36379   3.470  11.412  11.693  0.5468  0.2036  0.2541
 1011MOL0     C36380   3.513  11.515  11.789  0.0583  1.2613  0.4735
 1011MOL0     O36381   3.455  11.627  11.775  0.4795  0.3787 -0.2459
 1011MOL0     C36382   3.428  11.699  11.885 -0.1994 -0.1249 -0.9005
 1011MOL0     C36383   3.427  11.660  12.021 -0.7064 -0.6611 -0.3390
 1011MOL0     C36384   3.409  11.751  12.124  0.3261 -0.4051 -0.8531
 1011MOL0     C36385   3.390  11.891  12.100 -0.0989 -0.6403 -1.1558
 1011MOL0     O36386   3.391  11.982  12.206  0.7704 -0.9671  0.3695
 1011MOL0     C36387   3.489  11.974  12.305  0.4511 -1.0042  0.1804
 1011MOL0     C36388   3.433  12.054  12.424  0.2876 -1.1496 -0.9450
 1011MOL0     C36389   3.515  12.034  12.546 -0.5522  0.2606 -0.4081
 1011MOL0     C36390   3.439  12.056  12.673 -0.0483 -0.2075 -0.5975
 1011MOL0     C36391   3.389  12.202  12.674 -0.8575 -0.9636  0.1628
 1011MOL0     C36392   3.288  12.216  12.783 -0.0669 -0.1378  0.6248
 1011MOL0     C36393   3.261  12.363  12.816  0.5661  1.1310 -1.0068
 1011MOL0     C36394   3.166  12.382  12.934 -0.3579  0.0757  0.5718
 1011MOL0    Cl36395   3.220  12.301  13.074  0.0800 -0.1033  0.0190
 1011MOL0     C36396   3.387  11.926  11.966 -0.1498 -0.8736  0.4612
 1011MOL0     C36397   3.419  11.840  11.858  0.2285  0.5718  0.5919
 1011MOL0     O36398   3.597  11.481  11.880 -0.1319 -0.6146  0.2201
 1011MOL0     C36399   3.393  11.445  11.579  0.7194  0.3783  0.7706
 1011MOL0     C36400   3.346  11.340  11.490 -0.3885 -0.0515 -0.3204
 1011MOL0     N36401   3.386  10.501  11.006  0.3894  1.0239  0.1099
 1011MOL0     N36402   3.427  10.379  11.041  0.4148 -0.0328 -0.2484
 1011MOL0     C36403   4.489   9.946  10.810 -0.3564 -0.5712  0.1376
 1011MOL0     C36404   4.580  10.045  10.818 -0.6202 -0.0631 -1.1142
 1011MOL0     C36405   4.823  10.422  11.005  0.3495  0.6933  1.1076
 1011MOL0     C36406   4.930  10.426  10.913  0.2623  0.8935 -0.5271
 1011MOL0     C36407   5.017  10.533  10.913  0.2353  0.0413  0.2737
 1011MOL0     C36408   4.990  10.644  10.993 -0.7132  0.6450  0.1518
 1011MOL0     O36409   5.067  10.752  10.993 -1.1677 -0.1111 -0.6336
 1011MOL0     C36410   5.130  10.792  10.871 -0.3495 -0.1392  1.0878
 1011MOL0     C36411   5.051  10.917  10.823  0.5791  0.0960  1.1389
 1011MOL0     C36412   5.066  11.039  10.920 -1.3942  0.0395  0.0398
 1011MOL0     C36413   4.967  11.142  10.872  0.4719 -0.3845 -0.6514
 1011MOL0     C36414   5.019  11.194  10.748 -0.4220 -0.6597  0.3406
 1011MOL0     C36415   5.065  11.226  10.635  0.6198 -0.9150 -0.1593
 1011MOL0     C36416   4.883  10.642  11.087 -0.3445  0.6851  0.3137
 1011MOL0     C36417   4.795  10.535  11.083  0.9723  0.1298 -0.0671
 1011MOL0     H36418   4.566  10.099  11.159 -0.7276  0.7021  0.2246
 1011MOL0     H36419   4.422   9.914  11.142 -2.7202  1.5737 -2.0187
 1011MOL0     H36420   4.227   9.948  10.778  1.4998 -0.9275 -0.9746
 1011MOL0     H36421   4.217   9.783  10.754  4.3603 -0.6079  0.6280
 1011MOL0     H36422   4.020   9.768  10.888  2.0960 -0.2104 -0.9627
 1011MOL0     H36423   4.093   9.849  11.026 -1.5424  0.1099  0.3514
 1011MOL0     H36424   4.072  10.063  10.885  1.3092 -1.0291  4.0564
 1011MOL0     H36425   3.945   9.979  10.785 -2.9172  3.9477  0.2915
 1011MOL0     H36426   3.828   9.925  11.015  1.2871 -1.8628 -1.9867
 1011MOL0     H36427   3.945  10.063  11.067 -2.6564  1.9375 -0.0511
 1011MOL0     H36428   3.855  10.201  10.917  5.0327 -3.1622  3.0447
 1011MOL0     H36429   3.740  10.074  10.842 -2.2139 -0.7118  2.6351
 1011MOL0     H36430   3.608  10.195  10.950 -0.0719 -0.4804  0.4628
 1011MOL0     H36431   3.608  10.050  11.041  0.2408  0.2695  1.0831
 1011MOL0     H36432   3.747  10.156  11.229  2.6885 -1.2822 -3.1729
 1011MOL0     H36433   3.750  10.307  11.121  1.2064 -0.9965 -1.6953
 1011MOL0     H36434   3.567  10.302  11.323 -1.9960  0.7794 -0.3564
 1011MOL0     H36435   3.486  10.198  11.224 -1.3737  1.0560  2.7435
 1011MOL0     H36436   3.581  10.561  11.272 -1.8981  1.4989  1.3142
 1011MOL0     H36437   3.404  10.766  11.037  0.9084 -0.6288 -0.3017
 1011MOL0     H36438   3.271  10.707  11.151 -0.2121  1.6484 -0.0667
 1011MOL0     H36439   3.533  10.797  11.276  0.0695 -0.0432 -1.3626
 1011MOL0     H36440   3.386  10.720  11.343 -1.8389  0.0253 -0.9626
 1011MOL0     H36441   3.256  10.923  11.285 -0.0655  1.7766 -2.3798
 1011MOL0     H36442   3.386  10.987  11.182 -0.1756 -0.3450 -0.1812
 1011MOL0     H36443   3.517  11.036  11.370  1.1431 -3.3668 -1.2193
 1011MOL0     H36444   3.411  10.942  11.486 -1.7235  1.7362  1.9029
 1011MOL0     H36445   3.448  11.076  11.660 -2.1976 -0.4892 -2.0399
 1011MOL0     H36446   3.636  11.169  11.836  1.2419  0.0386  0.9170
 1011MOL0     H36447   3.521  11.260  11.943 -0.9820  1.6579 -1.2661
 1011MOL0     H36448   3.473  11.117  11.877 -0.5034  0.9387  0.5061
 1011MOL0     H36449   3.442  11.558  12.054  0.3297  0.0988  1.7444
 1011MOL0     H36450   3.403  11.712  12.225  2.0479 -2.2223 -1.3658
 1011MOL0     H36451   3.506  11.873  12.343 -1.1466 -1.4643 -0.2620
 1011MOL0     H36452   3.587  12.011  12.274 -0.3980 -0.4804 -2.0745
 1011MOL0     H36453   3.411  12.157  12.396 -3.1393 -1.3571  0.4165
 1011MOL0     H36454   3.335  12.026  12.464  0.2322  1.2371  0.7872
 1011MOL0     H36455   3.605  12.096  12.545 -0.5910  0.6081  3.0724
 1011MOL0     H36456   3.560  11.936  12.533  2.7497  1.6513 -0.5452
 1011MOL0     H36457   3.355  11.986  12.678 -1.5218  1.3291 -2.3703
 1011MOL0     H36458   3.498  12.056  12.765  0.7009 -0.4367 -1.0695
 1011MOL0     H36459   3.336  12.226  12.581  1.4760 -1.5547 -1.4036
 1011MOL0     H36460   3.471  12.273  12.680 -1.6807 -0.0269  0.5733
 1011MOL0     H36461   3.194  12.163  12.764 -1.3849  1.9286  0.9767
 1011MOL0     H36462   3.330  12.175  12.875 -1.1947 -0.7484  0.8842
 1011MOL0     H36463   3.227  12.406  12.721 -4.3860  1.6844  0.7043
 1011MOL0     H36464   3.346  12.413  12.864  3.2824 -4.1869  0.4949
 1011MOL0     H36465   3.061  12.357  12.917 -0.2678  0.2783 -0.3295
 1011MOL0     H36466   3.167  12.489  12.956  1.4131  0.6563 -1.9096
 1011MOL0     H36467   3.397  12.034  11.954  0.6443 -0.7568  1.9453
 1011MOL0     H36468   3.424  11.874  11.756  0.4551  2.1209  1.1034
 1011MOL0     H36469   3.375  11.550  11.556  1.4470  1.2232  3.6712
 1011MOL0     H36470   3.302  11.370  11.395  1.7725  1.0146 -1.0407
 1011MOL0     H36471   4.466   9.896  10.717 -0.0410  1.4677 -1.0887
 1011MOL0     H36472   4.615  10.085  10.724  0.0907  1.5750 -0.1923
 1011MOL0     H36473   4.932  10.343  10.843  3.1900  0.7343 -0.4009
 1011MOL0     H36474   5.101  10.518  10.846  0.2181  2.2673 -0.3208
 1011MOL0     H36475   5.239  10.806  10.874  0.1493 -3.3295  1.7810
 1011MOL0     H36476   5.117  10.711  10.799  1.0231 -0.4369  1.1382
 1011MOL0     H36477   4.945  10.890  10.828  0.9293 -1.2060  2.1364
 1011MOL0     H36478   5.066  10.942  10.718 -1.9806  0.6482  0.8530
 1011MOL0     H36479   5.171  11.070  10.923 -0.7974 -1.8207 -0.1066
 1011MOL0     H36480   5.045  11.013  11.025  0.0893  2.9576  1.1662
 1011MOL0     H36481   4.948  11.214  10.953  0.7555 -2.1412  1.0548
 1011MOL0     H36482   4.868  11.095  10.864  0.8912 -1.3612 -0.2327
 1011MOL0     H36483   5.109  11.251  10.541 -2.4849  2.7014 -0.8888
 1011MOL0     H36484   4.852  10.737  11.129  1.3377  1.8969 -1.0205
 1011MOL0     H36485   4.710  10.540  11.150  0.9796 -0.1147 -0.0369
 1012MOL0     O36486   7.960   7.883   2.494 -0.3231  0.1099 -0.2088
 1012MOL0     C36487   7.881   7.790   2.461 -0.2669 -0.7450  0.1388
 1012MOL0     O36488   7.795   7.807   2.360 -0.3207 -0.5090  0.2845
 1012MOL0     C36489   7.765   7.933   2.311 -0.2857 -0.6544 -0.3417
 1012MOL0     C36490   7.869   8.028   2.273 -0.8395 -0.3231  0.2831
 1012MOL0     C36491   7.842   8.148   2.223  0.3396 -0.0322 -0.1111
 1012MOL0     C36492   7.710   8.198   2.220  0.0581  1.3978  0.0386
 1012MOL0     O36493   7.712   8.334   2.186  0.0781 -0.5576 -0.1206
 1012MOL0     C36494   7.595   8.406   2.205 -0.3198 -0.1747  0.2266
 1012MOL0     C36495   7.629   8.559   2.215  0.2731  0.0789  0.0313
 1012MOL0     C36496   7.664   8.615   2.082  0.3722  0.0856  0.5024
 1012MOL0     C36497   7.727   8.746   2.114 -0.9570  0.5182 -0.1360
 1012MOL0     C36498   7.785   8.812   1.989  0.7165  0.9403  0.0485
 1012MOL0     C36499   7.800   8.960   2.009  0.9613  0.1319 -0.2842
 1012MOL0     C36500   7.862   9.040   1.892  0.2372 -0.0533 -0.2803
 1012MOL0     C36501   7.826   9.197   1.925  0.2449  0.7164 -0.6485
 1012MOL0     N36502   7.913   9.256   2.026  0.3152  0.1602 -0.1159
 1012MOL0     C36503   7.891   9.250   2.161  0.3923 -0.7046 -1.0297
 1012MOL0     C36504   7.995   9.315   2.220 -0.1039  0.5958  0.6439
 1012MOL0     C36505   8.001   9.339   2.367  0.1602 -0.0149  0.3103
 1012MOL0     C36506   8.140   9.301   2.424  0.1944  0.3192  0.1637
 1012MOL0     C36507   8.271   9.340   2.356 -1.0454 -0.4852 -0.0013
 1012MOL0     C36508   8.292   9.499   2.383 -0.6765 -0.2445 -0.3173
 1012MOL0     O36509   8.278   9.532   2.527  0.8607  0.3657 -0.6520
 1012MOL0     C36510   8.385   9.516   2.606 -1.3326 -0.2695  0.6180
 1012MOL0     C36511   8.375   9.562   2.733 -0.2883 -0.3074  0.1970
 1012MOL0     C36512   8.482   9.568   2.824 -0.8427  0.3619 -0.7660
 1012MOL0     C36513   8.454   9.653   2.949  0.0370 -0.5911  0.7932
 1012MOL0     C36514   8.606   9.507   2.784 -0.5992  0.0406 -0.4463
 1012MOL0     C36515   8.729   9.494   2.873 -0.3166  0.3463 -1.1097
 1012MOL0     O36516   8.727   9.574   2.986 -1.0756 -0.0565  0.3570
 1012MOL0     C36517   8.813   9.561   3.092 -0.2788 -0.6075  0.1210
 1012MOL0     C36518   8.895   9.446   3.134  0.0779 -0.3262  0.4832
 1012MOL0     C36519   8.977   9.452   3.254 -0.0465 -0.0326  1.5067
 1012MOL0     C36520   8.988   9.572   3.332 -0.8754 -0.6624  0.6441
 1012MOL0     O36521   9.043   9.581   3.453 -0.3701 -0.0020 -1.0397
 1012MOL0     C36522   9.037   9.453   3.526  0.5586  0.5762  0.6017
 1012MOL0     C36523   9.114   9.443   3.652 -0.4310 -0.6011 -0.8271
 1012MOL0     C36524   9.045   9.536   3.754  0.3370 -0.4313  0.2286
 1012MOL0     C36525   9.143   9.542   3.872 -0.1536 -0.4097  1.1424
 1012MOL0     C36526   9.095   9.643   3.985 -0.2774  0.5402 -0.6041
 1012MOL0     C36527   9.167   9.625   4.116 -0.8490  0.2519 -0.3080
 1012MOL0     C36528   9.305   9.696   4.098  0.5239  0.9746 -0.4304
 1012MOL0     C36529   9.418   9.657   4.189 -0.7382  0.3148 -0.0362
 1012MOL0    Cl36530   9.498   9.515   4.117 -0.2710  0.0164 -0.1871
 1012MOL0     C36531   8.907   9.679   3.284 -0.7073  0.0202 -0.8681
 1012MOL0     C36532   8.828   9.673   3.170 -0.4644  0.5063 -0.4106
 1012MOL0     O36533   8.828   9.427   2.841  0.0786  0.7965  0.3435
 1012MOL0     C36534   8.616   9.444   2.661  1.7253  0.6862 -0.8306
 1012MOL0     C36535   8.509   9.456   2.569  0.1996 -0.3958  1.2566
 1012MOL0     N36536   8.074   9.362   2.112 -0.5249  0.3888 -1.0295
 1012MOL0     N36537   8.025   9.319   2.000  0.5796 -0.1537 -0.2514
 1012MOL0     C36538   7.605   8.105   2.243 -0.0683  0.1571  0.4261
 1012MOL0     C36539   7.633   7.974   2.285  0.0753  0.9256  0.6545
 1012MOL0     C36540   7.893   7.658   2.531 -0.6022  0.7608  1.0116
 1012MOL0     C36541   7.946   7.647   2.663 -0.0246 -0.0995 -0.5726
 1012MOL0     C36542   7.949   7.523   2.736 -0.0670 -0.3107  0.0946
 1012MOL0     C36543   7.901   7.404   2.680 -0.3790  0.3371  0.0516
 1012MOL0     O36544   7.920   7.283   2.743  0.3005  0.6259  0.9381
 1012MOL0     C36545   7.793   7.221   2.781 -0.3252 -0.1172  0.6277
 1012MOL0     C36546   7.802   7.127   2.904 -0.4349  1.2162  0.2221
 1012MOL0     C36547   7.843   7.209   3.026 -0.5908 -0.0446  0.1526
 1012MOL0     C36548   7.849   7.147   3.160  0.4527 -0.3664  0.4570
 1012MOL0     C36549   7.962   7.050   3.183 -0.1430  1.1900 -0.1065
 1012MOL0     C36550   8.048   6.962   3.205  0.2049 -0.2380 -0.6164
 1012MOL0     C36551   7.854   7.415   2.548  0.1281 -0.2671 -0.4100
 1012MOL0     C36552   7.836   7.538   2.483 -0.6757 -0.2099 -0.9854
 1012MOL0     H36553   7.974   8.003   2.279 -0.9982 -0.6663  2.0083
 1012MOL0     H36554   7.918   8.223   2.204 -0.3746  0.7358  0.0067
 1012MOL0     H36555   7.521   8.394   2.125 -2.7692  0.6715  2.2437
 1012MOL0     H36556   7.538   8.381   2.295 -1.3817 -1.4066 -0.7418
 1012MOL0     H36557   7.542   8.607   2.259 -1.6246 -0.8368 -2.5143
 1012MOL0     H36558   7.712   8.558   2.287 -0.1996 -0.4923  0.5839
 1012MOL0     H36559   7.744   8.557   2.035  0.2531  0.6702 -0.4433
 1012MOL0     H36560   7.571   8.626   2.026  0.2393 -1.9079  0.2708
 1012MOL0     H36561   7.650   8.807   2.163 -1.8983 -0.7028 -0.0570
 1012MOL0     H36562   7.811   8.737   2.185 -1.1973 -0.1727  0.0600
 1012MOL0     H36563   7.879   8.770   1.954  0.0546 -2.1549  1.5917
 1012MOL0     H36564   7.712   8.799   1.908 -0.5335  0.7178  1.1774
 1012MOL0     H36565   7.697   8.996   2.021 -0.2274 -1.1926 -4.7190
 1012MOL0     H36566   7.857   8.980   2.100 -1.3349 -0.7350  1.4441
 1012MOL0     H36567   7.967   9.015   1.877  0.5770  1.6022 -0.9130
 1012MOL0     H36568   7.821   9.030   1.791  1.3752  4.0941 -1.3801
 1012MOL0     H36569   7.718   9.211   1.942  0.0187  0.2444 -1.6042
 1012MOL0     H36570   7.835   9.249   1.829 -1.5815  0.0566 -1.2245
 1012MOL0     H36571   7.810   9.197   2.210  0.2196 -0.0426 -0.5932
 1012MOL0     H36572   7.988   9.443   2.398  1.2104  0.1635  0.1866
 1012MOL0     H36573   7.913   9.289   2.409 -1.4988  2.6337  0.2610
 1012MOL0     H36574   8.136   9.192   2.439 -1.4306  0.4099  0.5812
 1012MOL0     H36575   8.151   9.324   2.530  2.9215 -0.2721  0.0887
 1012MOL0     H36576   8.280   9.314   2.251  1.4624  1.4793 -0.3755
 1012MOL0     H36577   8.341   9.274   2.408 -1.1634 -0.4838  0.1607
 1012MOL0     H36578   8.215   9.556   2.331 -0.5271  1.9834  1.7281
 1012MOL0     H36579   8.386   9.526   2.334 -0.6390  3.3157  1.3867
 1012MOL0     H36580   8.281   9.614   2.748 -0.8898 -1.1644 -0.5032
 1012MOL0     H36581   8.534   9.727   2.961 -1.5080  1.2782  0.0208
 1012MOL0     H36582   8.361   9.710   2.940  0.2373 -0.3962 -0.1064
 1012MOL0     H36583   8.451   9.577   3.027  1.2652 -1.1280  0.3434
 1012MOL0     H36584   8.894   9.353   3.078 -1.0171  0.2948 -0.5723
 1012MOL0     H36585   9.033   9.361   3.271  1.4796  0.1113 -2.0166
 1012MOL0     H36586   8.933   9.423   3.545  0.8802 -2.1450 -1.3309
 1012MOL0     H36587   9.069   9.377   3.453 -1.4068  1.9745 -1.8759
 1012MOL0     H36588   9.112   9.341   3.693 -1.4322  0.0217  0.7824
 1012MOL0     H36589   9.214   9.477   3.626  0.7956 -3.5468 -0.3846
 1012MOL0     H36590   8.958   9.483   3.795 -0.1290 -1.3138 -1.8012
 1012MOL0     H36591   9.028   9.636   3.714  0.9449  0.3588  1.8648
 1012MOL0     H36592   9.167   9.441   3.907  0.0914 -1.1897 -1.0855
 1012MOL0     H36593   9.233   9.582   3.825 -1.3106 -0.8745 -1.6924
 1012MOL0     H36594   8.995   9.615   4.016 -0.0013 -0.3649 -0.5123
 1012MOL0     H36595   9.109   9.744   3.945  5.0839  0.2910 -0.1388
 1012MOL0     H36596   9.116   9.678   4.197 -0.9654 -1.8436  1.0482
 1012MOL0     H36597   9.185   9.520   4.139  0.2046  0.6067  0.6066
 1012MOL0     H36598   9.285   9.804   4.100 -1.4167  0.6564  1.8431
 1012MOL0     H36599   9.339   9.670   3.998  1.9403  0.6922  0.0956
 1012MOL0     H36600   9.379   9.645   4.291 -0.1632  1.5255  0.3400
 1012MOL0     H36601   9.492   9.736   4.199  1.3563 -1.5741  0.0943
 1012MOL0     H36602   8.884   9.769   3.340  0.9409 -0.2958  0.3874
 1012MOL0     H36603   8.771   9.762   3.148 -0.2594 -0.1792 -4.4035
 1012MOL0     H36604   8.712   9.397   2.640  0.2792 -3.3668  0.5682
 1012MOL0     H36605   8.516   9.419   2.467 -1.4331  3.1127 -0.2862
 1012MOL0     H36606   7.498   8.117   2.228  0.2402 -0.1222 -2.6187
 1012MOL0     H36607   7.555   7.901   2.304  2.3537 -1.2248  2.3748
 1012MOL0     H36608   7.965   7.738   2.720 -1.7799 -0.4835  0.7111
 1012MOL0     H36609   7.985   7.513   2.838  0.8337 -0.7874 -0.2591
 1012MOL0     H36610   7.714   7.294   2.803 -0.0543  1.8096 -3.7667
 1012MOL0     H36611   7.754   7.168   2.694 -1.5275 -0.0568  1.1084
 1012MOL0     H36612   7.882   7.053   2.907 -0.8156  0.8171  2.5666
 1012MOL0     H36613   7.709   7.071   2.918  1.3647 -1.6149  1.8996
 1012MOL0     H36614   7.769   7.288   3.044 -0.4443 -0.1913  1.5758
 1012MOL0     H36615   7.936   7.261   3.004  0.3817 -2.0597 -0.7065
 1012MOL0     H36616   7.755   7.093   3.175  1.7621 -2.4933  1.4734
 1012MOL0     H36617   7.874   7.225   3.232  3.3596 -1.9457  1.3366
 1012MOL0     H36618   8.131   6.896   3.216  2.3053  1.8815 -2.4563
 1012MOL0     H36619   7.821   7.321   2.503  1.4964 -0.0945 -1.8811
 1012MOL0     H36620   7.771   7.545   2.397  2.6753  2.7582 -3.6070
 1013MOL0     O36621  10.547   5.099  10.521 -0.8732  0.0970 -0.0399
 1013MOL0     C36622  10.653   5.168  10.541  0.4018 -0.3077  1.0638
 1013MOL0     O36623  10.776   5.139  10.491  0.1756 -0.3536  0.5921
 1013MOL0     C36624  10.776   5.022  10.417  0.1682 -0.2745  0.6172
 1013MOL0     C36625  10.773   5.023  10.282 -0.4115 -0.0699 -0.2681
 1013MOL0     C36626  10.754   4.902  10.215  1.1071  0.4997  0.1055
 1013MOL0     C36627  10.748   4.774  10.281  0.6540  0.2382  1.1046
 1013MOL0     O36628  10.753   4.648  10.218  0.8394 -0.0396 -0.2787
 1013MOL0     C36629  10.736   4.625  10.073  0.8442 -0.4735 -0.5402
 1013MOL0     C36630  10.869   4.639   9.999 -0.1691 -0.0887  0.2093
 1013MOL0     C36631  10.965   4.519  10.007  1.1429 -0.3224 -0.0329
 1013MOL0     C36632  11.104   4.565  10.046  0.8069  0.1390  0.6351
 1013MOL0     C36633  11.102   4.597  10.195  0.2562  0.5988  0.0197
 1013MOL0     C36634  11.196   4.710  10.218 -0.5092  0.0614  0.1225
 1013MOL0     C36635  11.232   4.741  10.364  0.0437  0.4070  0.0421
 1013MOL0     C36636  11.116   4.758  10.461  0.9512 -0.2702  0.4644
 1013MOL0     N36637  11.120   4.883  10.542 -0.5379  0.7399 -0.8657
 1013MOL0     C36638  11.120   5.015  10.503 -1.0303 -0.8065 -0.0520
 1013MOL0     C36639  11.142   5.078  10.623 -0.4848  0.1453 -1.0767
 1013MOL0     C36640  11.155   5.230  10.635  0.0080 -0.9247 -0.1688
 1013MOL0     C36641  11.297   5.282  10.632  0.6541  0.0069 -0.6273
 1013MOL0     C36642  11.388   5.223  10.740  0.4485  0.2544  0.8087
 1013MOL0     C36643  11.523   5.296  10.748 -0.1288  0.5172 -0.0808
 1013MOL0     O36644  11.510   5.423  10.805  0.6008  0.1409 -0.3471
 1013MOL0     C36645  11.593   5.525  10.766 -0.2232 -0.3441 -0.1062
 1013MOL0     C36646  11.532   5.624  10.692  1.9912  0.0210  0.2623
 1013MOL0     C36647  11.603   5.738  10.641  0.1963 -0.1455 -0.4460
 1013MOL0     C36648  11.514   5.847  10.580 -1.3246 -0.5667  0.0879
 1013MOL0     C36649  11.745   5.743  10.661 -0.0517  1.1237  0.5773
 1013MOL0     C36650  11.826   5.856  10.619 -0.6295 -0.3189  1.1065
 1013MOL0     O36651  11.956   5.841  10.621 -0.3194  0.4468 -0.1615
 1013MOL0     C36652  12.047   5.938  10.611 -0.2144  0.2744  0.6802
 1013MOL0     C36653  12.088   5.983  10.489 -0.2642  1.5113 -0.7422
 1013MOL0     C36654  12.185   6.077  10.489 -0.8929  0.0993 -0.0588
 1013MOL0     C36655  12.244   6.135  10.605  0.1312 -0.1715  0.5215
 1013MOL0     O36656  12.357   6.215  10.597 -0.4637  0.3809 -0.4286
 1013MOL0     C36657  12.342   6.329  10.511 -0.7168 -0.7067 -0.5730
 1013MOL0     C36658  12.464   6.407  10.533  0.4082 -0.9832  0.4506
 1013MOL0     C36659  12.599   6.340  10.502 -0.9652 -0.0499 -0.0752
 1013MOL0     C36660  12.720   6.420  10.546 -0.2483  0.3543  0.2189
 1013MOL0     C36661  12.848   6.336  10.533  0.1167 -0.2222 -0.2850
 1013MOL0     C36662  12.855   6.219  10.638  0.2329  1.4012 -0.2497
 1013MOL0     C36663  12.852   6.274  10.777  0.1857 -0.4075  1.1004
 1013MOL0     C36664  12.844   6.161  10.871  0.0552 -1.5143  0.1972
 1013MOL0    Cl36665  12.685   6.093  10.863  0.4914 -0.2053  0.0452
 1013MOL0     C36666  12.191   6.092  10.729  0.2723  0.0789  0.0920
 1013MOL0     C36667  12.100   5.996  10.726  0.3144  0.8633  1.1231
 1013MOL0     O36668  11.769   5.962  10.613 -0.1218 -0.5407  0.4792
 1013MOL0     C36669  11.807   5.639  10.731 -1.1743  0.5646 -0.4534
 1013MOL0     C36670  11.735   5.529  10.784 -0.7545  0.0320  0.1075
 1013MOL0     N36671  11.165   4.991  10.728 -1.1490  0.0747 -0.1906
 1013MOL0     N36672  11.152   4.873  10.678 -0.0901  0.2604  0.5609
 1013MOL0     C36673  10.754   4.776  10.415  0.5232 -0.0035  0.3104
 1013MOL0     C36674  10.765   4.895  10.488  0.1732 -0.8137 -0.3796
 1013MOL0     C36675  10.641   5.295  10.615 -0.8497 -0.4860  0.1349
 1013MOL0     C36676  10.751   5.377  10.652 -0.7585 -0.8744 -1.2333
 1013MOL0     C36677  10.739   5.509  10.701 -0.3321 -0.6321  0.2076
 1013MOL0     C36678  10.615   5.565  10.719 -0.1343  0.2078 -0.5173
 1013MOL0     O36679  10.613   5.703  10.748  0.4738 -0.5670  0.6541
 1013MOL0     C36680  10.492   5.771  10.762  1.4610 -0.6022 -0.1975
 1013MOL0     C36681  10.511   5.920  10.783  0.9413 -0.6776 -0.4267
 1013MOL0     C36682  10.392   5.996  10.734 -0.0504 -0.3061  0.5446
 1013MOL0     C36683  10.401   6.032  10.584 -0.1984 -0.7615 -0.9045
 1013MOL0     C36684  10.327   5.943  10.495 -0.0388 -0.2472  0.7919
 1013MOL0     C36685  10.262   5.875  10.420 -0.3604 -0.0937  0.2629
 1013MOL0     C36686  10.506   5.493  10.680 -0.1134 -0.3015 -0.8281
 1013MOL0     C36687  10.517   5.362  10.628 -0.2272 -0.7881 -0.0684
 1013MOL0     H36688  10.795   5.114  10.227  1.3399 -0.8718 -0.9635
 1013MOL0     H36689  10.736   4.898  10.108 -1.1987  0.7816  0.4282
 1013MOL0     H36690  10.686   4.528  10.072 -0.2445 -0.0498 -4.9753
 1013MOL0     H36691  10.661   4.693  10.032 -0.2955 -0.2592  1.7032
 1013MOL0     H36692  10.840   4.663   9.896  4.0730 -1.6968 -1.5824
 1013MOL0     H36693  10.926   4.730  10.019 -1.0514  1.2193 -2.6507
 1013MOL0     H36694  10.930   4.452  10.087  0.5207  1.0489  0.8795
 1013MOL0     H36695  10.972   4.461   9.915 -0.5033 -2.5706  1.1599
 1013MOL0     H36696  11.185   4.495  10.023  0.6215 -0.4257  1.6168
 1013MOL0     H36697  11.133   4.647   9.979  0.3209 -1.2241 -1.3331
 1013MOL0     H36698  11.001   4.604  10.235 -0.1007 -1.0236 -0.5233
 1013MOL0     H36699  11.144   4.508  10.242  0.0383  0.8525  0.6964
 1013MOL0     H36700  11.289   4.683  10.167 -2.8972 -4.0317 -2.6311
 1013MOL0     H36701  11.147   4.803  10.186  1.1833  1.1372  0.5453
 1013MOL0     H36702  11.292   4.653  10.385  1.6743  1.2261 -0.9713
 1013MOL0     H36703  11.296   4.830  10.368 -1.1483  1.3741 -1.0608
 1013MOL0     H36704  11.128   4.672  10.528  0.0200  2.0910  3.8897
 1013MOL0     H36705  11.020   4.742  10.411 -0.0094 -1.7062  2.5887
 1013MOL0     H36706  11.116   5.053  10.401 -0.1281 -3.4642 -1.1772
 1013MOL0     H36707  11.084   5.277  10.566 -0.5081  0.3127  1.1649
 1013MOL0     H36708  11.114   5.257  10.732  0.2184  0.2552 -0.3858
 1013MOL0     H36709  11.288   5.391  10.634 -3.0919 -0.1552  0.0110
 1013MOL0     H36710  11.346   5.257  10.538  2.3357 -1.6154  0.6180
 1013MOL0     H36711  11.399   5.116  10.722  2.2884  0.4400  0.5908
 1013MOL0     H36712  11.343   5.245  10.837  1.2008 -0.1108  1.2564
 1013MOL0     H36713  11.576   5.290  10.653  1.6536 -3.8660  0.9259
 1013MOL0     H36714  11.591   5.239  10.812 -3.2099 -3.1821  0.2139
 1013MOL0     H36715  11.424   5.623  10.697  1.9135 -0.3947 -1.0741
 1013MOL0     H36716  11.412   5.812  10.565 -1.3446 -2.0700  3.1021
 1013MOL0     H36717  11.510   5.929  10.652  0.9004 -2.3416  2.3840
 1013MOL0     H36718  11.556   5.894  10.490 -3.8949 -0.3955 -1.1226
 1013MOL0     H36719  12.036   5.945  10.401 -2.5630  2.5288  0.1114
 1013MOL0     H36720  12.231   6.116  10.399  3.1306 -0.7335  1.3823
 1013MOL0     H36721  12.350   6.291  10.408 -0.1615 -1.0358 -0.4105
 1013MOL0     H36722  12.256   6.393  10.531 -0.1710 -0.3102  0.5336
 1013MOL0     H36723  12.452   6.506  10.489  1.5720 -0.5191  1.1236
 1013MOL0     H36724  12.464   6.418  10.642 -0.4655 -2.4946  0.6382
 1013MOL0     H36725  12.619   6.340  10.394 -0.8991 -2.9034 -0.1569
 1013MOL0     H36726  12.596   6.235  10.534  1.7323 -0.0597  0.3649
 1013MOL0     H36727  12.722   6.510  10.483 -2.5266 -0.6955 -1.4815
 1013MOL0     H36728  12.702   6.454  10.648  1.5603  3.7043 -0.4153
 1013MOL0     H36729  12.938   6.397  10.546  2.0358 -2.9231  0.1871
 1013MOL0     H36730  12.856   6.291  10.433  1.1008 -3.5950  1.1754
 1013MOL0     H36731  12.772   6.150  10.616  1.9256 -0.9452  0.3669
 1013MOL0     H36732  12.947   6.164  10.619 -0.4447  0.5249 -1.1172
 1013MOL0     H36733  12.770   6.343  10.798 -0.0148 -0.6345  1.0719
 1013MOL0     H36734  12.940   6.336  10.798 -1.1610  1.2677  2.0796
 1013MOL0     H36735  12.881   6.197  10.968  0.0838 -1.4306  0.1560
 1013MOL0     H36736  12.910   6.080  10.841  3.5635  0.8648  0.9089
 1013MOL0     H36737  12.213   6.120  10.831 -4.0200  1.8573  0.7331
 1013MOL0     H36738  12.061   5.960  10.821 -1.0664  0.4175  0.4181
 1013MOL0     H36739  11.915   5.627  10.742 -1.2412  1.6695  2.5372
 1013MOL0     H36740  11.789   5.448  10.831  0.5508  0.4347 -0.6340
 1013MOL0     H36741  10.738   4.677  10.456  1.3418 -0.8746 -1.4086
 1013MOL0     H36742  10.741   4.891  10.593 -2.0189  0.1932 -0.7631
 1013MOL0     H36743  10.854   5.352  10.626  0.4987  1.9453  0.4918
 1013MOL0     H36744  10.819   5.584  10.702 -1.6192  0.8567 -1.4173
 1013MOL0     H36745  10.438   5.745  10.670 -0.4827  0.5772  0.5485
 1013MOL0     H36746  10.427   5.737  10.843  0.6905  3.6000  1.1941
 1013MOL0     H36747  10.603   5.959  10.738  2.1423 -0.8082  1.7947
 1013MOL0     H36748  10.526   5.941  10.889 -2.8245  2.2357 -0.2942
 1013MOL0     H36749  10.391   6.090  10.791  0.1502  2.1853 -3.1983
 1013MOL0     H36750  10.296   5.946  10.752  1.2041 -2.0368  3.0661
 1013MOL0     H36751  10.507   6.039  10.556  0.0717 -0.7774  0.0635
 1013MOL0     H36752  10.372   6.136  10.569  2.1349 -0.3735 -3.6358
 1013MOL0     H36753  10.199   5.801  10.374  0.5061 -0.8514  0.2613
 1013MOL0     H36754  10.408   5.538  10.682  0.1826  0.4068  1.9354
 1013MOL0     H36755  10.420   5.327  10.594 -2.1498  4.0603 -0.3249
 1014MOL0     O36756  10.601   0.178  10.891 -0.6477 -0.1838  0.1493
 1014MOL0     C36757  10.610   0.141  11.010  0.4863  1.1898  0.2055
 1014MOL0     O36758  10.594   0.216  11.123 -0.1130  0.0018 -0.1199
 1014MOL0     C36759  10.546   0.345  11.114  0.1045 -0.5768  0.5106
 1014MOL0     C36760  10.449   0.378  11.207  0.0327 -0.0405 -0.5694
 1014MOL0     C36761  10.396   0.506  11.213  0.6839 -0.0110  0.2590
 1014MOL0     C36762  10.422   0.599  11.106  0.3685 -0.1673 -0.5107
 1014MOL0     O36763  10.368   0.727  11.103  0.2867  0.4442  0.6229
 1014MOL0     C36764  10.305   0.791  11.211 -1.0556  0.7132 -0.6339
 1014MOL0     C36765  10.227   0.913  11.165  0.5641  0.2460 -0.3771
 1014MOL0     C36766  10.092   0.865  11.109  0.2283 -0.6357  0.1844
 1014MOL0     C36767  10.004   0.988  11.067 -0.0356  1.2309 -0.7898
 1014MOL0     C36768   9.867   0.934  11.024  0.3527  0.3287 -0.1150
 1014MOL0     C36769   9.777   1.062  10.999 -0.2223  0.7155  0.7628
 1014MOL0     C36770   9.625   1.036  10.986  0.2600 -0.4337 -1.5104
 1014MOL0     C36771   9.560   1.165  10.963 -0.6299 -0.0528 -0.4933
 1014MOL0     N36772   9.563   1.240  11.081 -0.3677  0.3585 -0.6053
 1014MOL0     C36773   9.481   1.219  11.193 -0.2587  0.6219 -0.3391
 1014MOL0     C36774   9.543   1.305  11.287 -0.1814  1.0118  0.8109
 1014MOL0     C36775   9.500   1.314  11.437 -0.2346 -0.7067  0.5267
 1014MOL0     C36776   9.404   1.425  11.473 -0.3665  0.6744  0.6629
 1014MOL0     C36777   9.260   1.396  11.446 -0.1302 -0.5885  0.3047
 1014MOL0     C36778   9.182   1.515  11.392 -0.6293 -0.4759 -0.6138
 1014MOL0     O36779   9.204   1.633  11.475  0.0076  0.6720  0.4367
 1014MOL0     C36780   9.125   1.654  11.588 -0.9270  0.2117  0.6327
 1014MOL0     C36781   9.032   1.568  11.637  0.3784  0.8738  1.1179
 1014MOL0     C36782   8.936   1.602  11.738  0.2890 -0.7399  0.4002
 1014MOL0     C36783   8.826   1.498  11.761 -0.2041  0.4301  0.2069
 1014MOL0     C36784   8.953   1.727  11.798 -0.7956  0.5441 -0.1059
 1014MOL0     C36785   8.863   1.768  11.918  0.2964 -0.2942  0.3516
 1014MOL0     O36786   8.747   1.697  11.937  0.0785 -0.7736  0.4006
 1014MOL0     C36787   8.665   1.736  12.040  0.8022  0.5381  0.3674
 1014MOL0     C36788   8.678   1.726  12.177 -0.2488 -0.9093 -0.1829
 1014MOL0     C36789   8.588   1.758  12.272  0.9686  0.2763  0.3918
 1014MOL0     C36790   8.450   1.780  12.222  0.1201  0.5400  0.0942
 1014MOL0     O36791   8.360   1.791  12.318 -0.1048 -0.4742  0.2939
 1014MOL0     C36792   8.224   1.781  12.278 -0.3243 -0.0299  0.3894
 1014MOL0     C36793   8.184   1.638  12.235 -0.7233 -1.2117 -0.8416
 1014MOL0     C36794   8.063   1.638  12.145  0.4744  0.5532 -0.4869
 1014MOL0     C36795   8.066   1.522  12.036 -0.1500  0.4957 -0.0414
 1014MOL0     C36796   7.942   1.510  11.943  0.9137  0.2622  0.1188
 1014MOL0     C36797   7.965   1.405  11.826 -0.1339 -0.3839  0.2858
 1014MOL0     C36798   7.860   1.389  11.715 -0.2831  0.7037 -0.7226
 1014MOL0     C36799   7.922   1.279  11.618 -0.1269  0.2148  0.0061
 1014MOL0    Cl36800   7.819   1.268  11.473  0.0845  0.0785  0.1358
 1014MOL0     C36801   8.431   1.768  12.082 -0.2317 -0.1095 -0.2637
 1014MOL0     C36802   8.533   1.761  11.991  0.2711 -0.2271  0.5342
 1014MOL0     O36803   8.882   1.876  11.967 -0.2577 -0.6129  1.0623
 1014MOL0     C36804   9.055   1.815  11.753  0.3808  0.0059  0.7552
 1014MOL0     C36805   9.133   1.779  11.655  0.1064  0.9387  0.2950
 1014MOL0     N36806   9.621   1.387  11.211 -0.3779  0.4662  0.5907
 1014MOL0     N36807   9.629   1.350  11.087  0.8936 -0.6543 -0.1418
 1014MOL0     C36808  10.524   0.566  11.020  0.0896 -0.3649  0.5868
 1014MOL0     C36809  10.587   0.442  11.023 -0.7606 -0.2021 -0.6779
 1014MOL0     C36810  10.635  -0.004  11.033 -0.3122  0.0130 -0.9746
 1014MOL0     C36811  10.644  -0.053  11.165 -0.4022  0.9561  0.7366
 1014MOL0     C36812  10.679  -0.183  11.186  0.9995 -0.2045  0.1100
 1014MOL0     C36813  10.688  -0.272  11.075 -0.4279 -0.4210  0.9085
 1014MOL0     O36814  10.711  -0.408  11.084 -0.0147  0.0509 -0.7043
 1014MOL0     C36815  10.754  -0.452  11.208  0.1629  0.0009 -0.8899
 1014MOL0     C36816  10.631  -0.468  11.301  0.0551  0.4747  0.4958
 1014MOL0     C36817  10.666  -0.480  11.444 -0.2788  0.8216  0.9715
 1014MOL0     C36818  10.565  -0.432  11.543 -0.3088 -0.0170  0.2891
 1014MOL0     C36819  10.572  -0.281  11.563  1.2044  0.7746 -0.8283
 1014MOL0     C36820  10.581  -0.158  11.573  0.3347  0.6708 -0.4911
 1014MOL0     C36821  10.668  -0.222  10.943  0.0201  0.6332 -1.0553
 1014MOL0     C36822  10.646  -0.091  10.927  0.3444 -1.1523 -0.1195
 1014MOL0     H36823  10.427   0.312  11.290 -1.8955  0.2013 -0.8414
 1014MOL0     H36824  10.319   0.524  11.287 -0.6780  0.1969 -1.1380
 1014MOL0     H36825  10.238   0.718  11.258 -1.0086  1.8828  1.3813
 1014MOL0     H36826  10.381   0.815  11.286 -1.2102 -0.4378 -0.0863
 1014MOL0     H36827  10.218   0.976  11.254  4.3433 -0.8642  0.9790
 1014MOL0     H36828  10.289   0.968  11.094  2.0904  1.7941  2.0160
 1014MOL0     H36829  10.106   0.785  11.036  2.2248 -1.0926  1.0027
 1014MOL0     H36830  10.030   0.818  11.187  0.1811 -1.7754 -0.5110
 1014MOL0     H36831   9.992   1.048  11.158 -0.9408 -1.6987  1.1639
 1014MOL0     H36832  10.052   1.042  10.984 -0.0440  0.7170 -1.1324
 1014MOL0     H36833   9.863   0.877  10.931  1.3734 -1.9573  1.1546
 1014MOL0     H36834   9.813   0.876  11.100 -1.6556  3.1677  0.8165
 1014MOL0     H36835   9.799   1.125  11.085  2.4708  0.4968  0.3200
 1014MOL0     H36836   9.814   1.118  10.913 -0.6940 -0.7581 -0.4483
 1014MOL0     H36837   9.573   0.972  10.914  1.3711 -4.0377  0.6605
 1014MOL0     H36838   9.603   1.007  11.089  1.2456  0.3868 -1.0481
 1014MOL0     H36839   9.453   1.158  10.940 -0.5986 -0.0284 -0.6493
 1014MOL0     H36840   9.604   1.223  10.881  2.9848 -1.8684 -0.0297
 1014MOL0     H36841   9.407   1.147  11.225 -0.9480  1.8716  0.9871
 1014MOL0     H36842   9.466   1.214  11.466 -1.0711 -1.1780 -1.7919
 1014MOL0     H36843   9.601   1.317  11.477  1.5656 -0.5845 -3.4958
 1014MOL0     H36844   9.439   1.511  11.415 -0.0097 -0.9275 -1.6211
 1014MOL0     H36845   9.420   1.443  11.580 -0.0136  0.6808  0.6118
 1014MOL0     H36846   9.213   1.348  11.533 -1.8525  2.1725  1.0007
 1014MOL0     H36847   9.247   1.326  11.363  2.8758  0.3413 -1.0637
 1014MOL0     H36848   9.074   1.497  11.385 -1.1024  1.5290  0.6057
 1014MOL0     H36849   9.209   1.538  11.289 -1.2341  1.1822 -0.4477
 1014MOL0     H36850   9.007   1.481  11.578  0.4449  1.9614 -0.5663
 1014MOL0     H36851   8.806   1.478  11.867 -3.2499  0.5204 -0.2821
 1014MOL0     H36852   8.731   1.520  11.711  0.1908 -2.6028 -2.1564
 1014MOL0     H36853   8.866   1.405  11.721 -0.6590 -0.0485  0.8506
 1014MOL0     H36854   8.773   1.688  12.213 -1.3333 -1.6420  2.1338
 1014MOL0     H36855   8.617   1.746  12.376  1.0735  0.4054  0.3774
 1014MOL0     H36856   8.163   1.810  12.363 -1.0900  1.0603 -0.4999
 1014MOL0     H36857   8.215   1.845  12.190 -1.2508 -0.6905 -0.0168
 1014MOL0     H36858   8.270   1.592  12.185 -2.0606 -2.2389 -2.2892
 1014MOL0     H36859   8.168   1.577  12.324  0.0478 -3.1733 -1.9847
 1014MOL0     H36860   8.058   1.730  12.086 -0.0562 -0.7417 -2.5709
 1014MOL0     H36861   7.979   1.628  12.215  1.6412  1.2754  1.0617
 1014MOL0     H36862   8.151   1.532  11.967  1.9850 -2.5123  1.8951
 1014MOL0     H36863   8.083   1.429  12.091  1.9143 -0.9490 -2.8346
 1014MOL0     H36864   7.913   1.604  11.894  1.9191 -0.0585 -1.1480
 1014MOL0     H36865   7.867   1.468  12.011  1.7565  0.1034  0.9633
 1014MOL0     H36866   8.058   1.439  11.778 -1.2370 -0.3986 -1.9752
 1014MOL0     H36867   7.979   1.304  11.864 -0.9842 -1.2276 -1.5527
 1014MOL0     H36868   7.855   1.483  11.659  2.8573  1.8136  0.6534
 1014MOL0     H36869   7.758   1.381  11.754 -0.7694  2.7647 -1.4715
 1014MOL0     H36870   7.902   1.184  11.669  0.2936 -0.9885 -1.9637
 1014MOL0     H36871   8.028   1.301  11.601  0.0073  1.7308  2.3066
 1014MOL0     H36872   8.332   1.785  12.040  0.0200 -0.4439 -1.0169
 1014MOL0     H36873   8.511   1.760  11.884 -2.1425  0.3889  0.9635
 1014MOL0     H36874   9.068   1.918  11.785 -0.6626 -0.0633  1.4602
 1014MOL0     H36875   9.215   1.847  11.634  0.2473  0.9067  0.7376
 1014MOL0     H36876  10.575   0.636  10.954 -0.5305  0.9125  1.4168
 1014MOL0     H36877  10.673   0.452  10.957  0.7974  1.8260  1.5105
 1014MOL0     H36878  10.631   0.003  11.258  3.7492  1.8143  0.9964
 1014MOL0     H36879  10.700  -0.211  11.289 -1.5746 -1.9472  0.2437
 1014MOL0     H36880  10.812  -0.545  11.203  0.4124  0.2036 -1.9515
 1014MOL0     H36881  10.832  -0.391  11.255  0.8600 -1.9737  0.6722
 1014MOL0     H36882  10.584  -0.562  11.270 -0.7956  1.2603 -0.6990
 1014MOL0     H36883  10.553  -0.394  11.278 -1.0022 -1.3277 -2.3072
 1014MOL0     H36884  10.761  -0.429  11.460  0.9050 -1.6687  2.4566
 1014MOL0     H36885  10.678  -0.587  11.461 -2.8122  0.5130  1.3425
 1014MOL0     H36886  10.576  -0.481  11.641 -0.8042  0.3275  0.5220
 1014MOL0     H36887  10.468  -0.464  11.504 -1.1859  3.2773 -0.4884
 1014MOL0     H36888  10.580  -0.053  11.592 -0.1961  0.5293  0.3269
 1014MOL0     H36889  10.680  -0.295  10.864  1.5757  0.3650 -0.5990
 1014MOL0     H36890  10.639  -0.042  10.831 -0.8318  2.6404  1.7152
 1015MOL0     O36891   9.817  10.221   4.462 -0.0591 -0.1279 -0.9854
 1015MOL0     C36892   9.827  10.167   4.574  1.0341  0.2776  0.4524
 1015MOL0     O36893   9.856  10.040   4.596 -0.4929  0.5259 -0.4146
 1015MOL0     C36894   9.892   9.950   4.498 -0.5602  0.1353  0.0658
 1015MOL0     C36895   9.997   9.982   4.406  0.4239  0.3105  0.0526
 1015MOL0     C36896  10.034   9.891   4.305 -1.0429 -0.3052 -0.0954
 1015MOL0     C36897   9.970   9.766   4.291 -0.8972  0.5159  0.0341
 1015MOL0     O36898  10.005   9.687   4.189 -0.6160  0.8025  1.5111
 1015MOL0     C36899   9.903   9.629   4.113  0.5645  0.3218  0.3722
 1015MOL0     C36900   9.963   9.529   4.021 -0.0471  1.0452  0.2341
 1015MOL0     C36901   9.926   9.546   3.872  0.6214  0.6884 -0.6493
 1015MOL0     C36902  10.015   9.464   3.767  1.2737  0.4469 -0.2858
 1015MOL0     C36903   9.988   9.312   3.777 -0.2204 -0.4679  0.1215
 1015MOL0     C36904  10.059   9.242   3.669  0.1318  0.5229  0.2812
 1015MOL0     C36905  10.052   9.088   3.692  0.6082 -0.5549 -0.4408
 1015MOL0     C36906  10.148   9.011   3.609 -0.1948  0.0613 -0.1945
 1015MOL0     N36907  10.154   9.064   3.471 -0.6101  0.1293 -0.0036
 1015MOL0     C36908  10.052   9.072   3.382 -0.2216  0.3004 -0.4745
 1015MOL0     C36909  10.099   9.149   3.278  0.2812 -0.0322  0.4536
 1015MOL0     C36910  10.008   9.229   3.186  0.0556 -0.0732 -0.3254
 1015MOL0     C36911   9.924   9.154   3.086  0.1888 -0.1475 -0.0784
 1015MOL0     C36912  10.018   9.069   2.996 -0.6098  0.6757 -0.0411
 1015MOL0     C36913   9.933   8.970   2.925 -0.1561  0.5593  0.3929
 1015MOL0     O36914   9.930   9.000   2.780 -0.0266 -0.8988 -0.1880
 1015MOL0     C36915   9.913   8.901   2.685 -0.2510  0.0041  0.9081
 1015MOL0     C36916   9.796   8.877   2.617  0.1956  0.8200 -1.3691
 1015MOL0     C36917   9.789   8.777   2.518  0.4816  0.1423 -1.4781
 1015MOL0     C36918   9.662   8.755   2.451  1.4580  0.0405  0.0312
 1015MOL0     C36919   9.905   8.704   2.479  0.1715 -0.1670 -0.8447
 1015MOL0     C36920   9.907   8.581   2.408  0.3367  0.6207 -1.2426
 1015MOL0     O36921   9.804   8.497   2.423  0.5072 -0.7219  0.0874
 1015MOL0     C36922   9.797   8.362   2.400 -1.3375  0.0057 -0.4147
 1015MOL0     C36923   9.671   8.307   2.413 -0.2089 -0.2048  0.5000
 1015MOL0     C36924   9.649   8.174   2.414 -0.3374  0.5676  0.4528
 1015MOL0     C36925   9.749   8.088   2.384  1.4157 -0.1982 -0.0305
 1015MOL0     O36926   9.732   7.957   2.382 -0.2136  0.8718 -0.0761
 1015MOL0     C36927   9.717   7.916   2.244 -0.0167 -0.0117 -0.1294
 1015MOL0     C36928   9.698   7.763   2.233 -0.1074  0.8081  0.1488
 1015MOL0     C36929   9.749   7.735   2.084  0.8291 -0.4185 -0.0973
 1015MOL0     C36930   9.724   7.591   2.042  0.0091  0.5143 -0.5524
 1015MOL0     C36931   9.801   7.474   2.121  0.3300  0.6081  0.3634
 1015MOL0     C36932   9.954   7.500   2.119  0.4682  0.6368  0.7662
 1015MOL0     C36933  10.020   7.392   2.191 -0.0767  1.0240 -0.3108
 1015MOL0     C36934  10.175   7.412   2.186  0.4394  0.8382 -0.3687
 1015MOL0    Cl36935  10.220   7.324   2.335  0.7851  0.7258  0.1670
 1015MOL0     C36936   9.882   8.135   2.362 -0.1019 -1.4149 -0.3436
 1015MOL0     C36937   9.902   8.278   2.379 -0.5464 -0.3361 -0.3724
 1015MOL0     O36938  10.015   8.542   2.352  0.2296 -0.6838 -0.3732
 1015MOL0     C36939  10.020   8.751   2.539  0.8032  0.2642 -0.6609
 1015MOL0     C36940  10.020   8.839   2.645  0.1814  0.8074  0.5184
 1015MOL0     N36941  10.229   9.175   3.301 -0.0314  0.0997 -0.2699
 1015MOL0     N36942  10.266   9.131   3.416  0.3935  0.8688 -0.4455
 1015MOL0     C36943   9.860   9.743   4.380 -0.5882  0.3026  0.1718
 1015MOL0     C36944   9.823   9.834   4.484  0.2456  0.7943  1.0561
 1015MOL0     C36945   9.781  10.256   4.693 -0.3123  0.3329 -0.4717
 1015MOL0     C36946   9.804  10.395   4.675 -0.0596 -0.6664 -0.3964
 1015MOL0     C36947   9.767  10.484   4.779 -0.1762  0.3940 -0.1324
 1015MOL0     C36948   9.715  10.437   4.902 -0.0286 -0.0365  0.5151
 1015MOL0     O36949   9.681  10.514   5.009  0.1173  0.8269 -1.0859
 1015MOL0     C36950   9.683  10.658   5.008 -0.6308 -0.9080 -0.0592
 1015MOL0     C36951   9.785  10.704   5.119 -0.3254  0.2087  0.0275
 1015MOL0     C36952   9.761  10.853   5.141  1.4287  0.0018  0.3318
 1015MOL0     C36953   9.878  10.913   5.224  0.5838 -0.3235  0.2377
 1015MOL0     C36954  10.004  10.929   5.151  0.5359 -0.7796  0.8743
 1015MOL0     C36955  10.108  10.942   5.097 -0.6706  0.7791  0.6453
 1015MOL0     C36956   9.701  10.303   4.918 -0.4539  0.4997  0.4435
 1015MOL0     C36957   9.732  10.207   4.813 -0.6017 -0.4321 -0.0832
 1015MOL0     H36958  10.057  10.072   4.409  0.4934  0.2404  1.4617
 1015MOL0     H36959  10.108   9.918   4.232 -4.6054  0.0916 -3.9431
 1015MOL0     H36960   9.829   9.574   4.173  0.8052 -1.4409 -0.8849
 1015MOL0     H36961   9.844   9.708   4.064 -2.1461 -1.7083  0.1058
 1015MOL0     H36962  10.072   9.537   4.028  0.7184 -4.3070 -1.1917
 1015MOL0     H36963   9.941   9.424   4.040 -0.8967  1.3300  0.8852
 1015MOL0     H36964   9.826   9.508   3.851  0.5551  1.7098 -2.4012
 1015MOL0     H36965   9.930   9.652   3.843  0.5637  0.9781  0.3816
 1015MOL0     H36966  10.018   9.506   3.666  3.3919 -2.7981 -1.7236
 1015MOL0     H36967  10.112   9.475   3.815 -0.8149  3.3344  3.9516
 1015MOL0     H36968  10.027   9.283   3.875  0.6176  0.6560  0.1440
 1015MOL0     H36969   9.880   9.303   3.769 -0.1798 -0.5288 -0.3880
 1015MOL0     H36970  10.026   9.278   3.572  2.8925  0.1553 -0.8714
 1015MOL0     H36971  10.163   9.271   3.686  1.7896 -3.4202 -1.6831
 1015MOL0     H36972  10.070   9.057   3.796  2.3911  0.1908 -0.4757
 1015MOL0     H36973   9.947   9.070   3.670  0.9282 -1.5047 -1.2727
 1015MOL0     H36974  10.124   8.904   3.600 -2.0220  0.5803 -3.0221
 1015MOL0     H36975  10.250   9.026   3.645  1.5575  0.8827 -4.7891
 1015MOL0     H36976   9.948   9.059   3.409  0.4491  2.9490  4.7392
 1015MOL0     H36977   9.940   9.291   3.246 -1.4570 -1.9426 -0.0059
 1015MOL0     H36978  10.069   9.310   3.145 -1.6486  0.3062 -2.2726
 1015MOL0     H36979   9.863   9.225   3.028 -0.6248 -1.4076 -0.8043
 1015MOL0     H36980   9.847   9.105   3.145 -1.8094  3.2622  0.4210
 1015MOL0     H36981  10.094   9.013   3.051  0.4521  3.4087  1.4740
 1015MOL0     H36982  10.079   9.119   2.919  0.8969  0.2137  0.8016
 1015MOL0     H36983   9.834   8.969   2.972 -1.4238  1.5876 -2.1229
 1015MOL0     H36984   9.978   8.871   2.936  0.7070  0.8926 -0.0253
 1015MOL0     H36985   9.718   8.947   2.647 -1.3907 -1.7744  1.0729
 1015MOL0     H36986   9.633   8.651   2.467 -0.1156  0.5614  0.8268
 1015MOL0     H36987   9.578   8.803   2.503 -0.2574 -1.4025 -1.2774
 1015MOL0     H36988   9.658   8.772   2.343 -3.9127 -1.5360 -0.3173
 1015MOL0     H36989   9.584   8.365   2.442 -3.1962 -4.1317  0.2487
 1015MOL0     H36990   9.547   8.141   2.428 -0.7278  0.1567 -2.6033
 1015MOL0     H36991   9.627   7.966   2.207  1.5004  1.3138 -2.2488
 1015MOL0     H36992   9.807   7.946   2.189  1.2413  2.5868  2.9826
 1015MOL0     H36993   9.747   7.711   2.316  0.4746  1.2618  0.0880
 1015MOL0     H36994   9.591   7.738   2.234  0.4215 -1.6901  0.6979
 1015MOL0     H36995   9.857   7.752   2.089  0.6191  1.7772 -1.6244
 1015MOL0     H36996   9.707   7.812   2.019  0.9923  2.1911  2.6485
 1015MOL0     H36997   9.616   7.569   2.046  0.5659 -2.5203  1.1285
 1015MOL0     H36998   9.750   7.583   1.936  0.7874  0.2692 -0.3505
 1015MOL0     H36999   9.773   7.384   2.066  1.6068 -0.2229  1.0210
 1015MOL0     H37000   9.772   7.471   2.226 -1.1724  0.4573 -0.0301
 1015MOL0     H37001   9.973   7.522   2.014 -2.7970 -0.1621 -0.1208
 1015MOL0     H37002   9.978   7.595   2.167  1.6914  1.7049 -1.7922
 1015MOL0     H37003  10.002   7.295   2.145  0.8537 -0.0685  1.5287
 1015MOL0     H37004   9.978   7.392   2.292 -1.6920  0.3646 -0.9433
 1015MOL0     H37005  10.184   7.518   2.209  1.3051  0.1844  2.7576
 1015MOL0     H37006  10.220   7.377   2.092 -0.4311 -1.7868  0.1129
 1015MOL0     H37007   9.958   8.063   2.332  2.1781  0.3991  0.7129
 1015MOL0     H37008  10.005   8.311   2.383 -0.8557  0.9368 -1.9127
 1015MOL0     H37009  10.115   8.710   2.505  1.6760  0.6894  1.1620
 1015MOL0     H37010  10.116   8.835   2.695 -0.8899  1.4184  2.7492
 1015MOL0     H37011   9.795   9.657   4.386  0.6564 -0.8508 -1.8300
 1015MOL0     H37012   9.740   9.803   4.547 -1.5593  1.4899 -0.8593
 1015MOL0     H37013   9.854  10.433   4.587 -0.1768  3.1884  0.9721
 1015MOL0     H37014   9.791  10.589   4.765 -0.1246  0.4641  0.4672
 1015MOL0     H37015   9.715  10.711   4.918 -1.2119 -2.4676 -1.2220
 1015MOL0     H37016   9.584  10.701   5.023 -0.3475  0.4243 -1.6285
 1015MOL0     H37017   9.886  10.692   5.080  0.4991  0.5516  1.9319
 1015MOL0     H37018   9.779  10.643   5.210 -2.3076  1.7861  1.0413
 1015MOL0     H37019   9.669  10.869   5.198  0.9362  1.2424 -0.7634
 1015MOL0     H37020   9.737  10.900   5.046  1.9237 -1.8084 -0.7265
 1015MOL0     H37021   9.904  10.844   5.305 -0.9075 -0.1306  0.9007
 1015MOL0     H37022   9.841  11.010   5.258 -0.0479 -0.0645 -1.1197
 1015MOL0     H37023  10.201  10.952   5.045  1.0244 -1.9674  2.8472
 1015MOL0     H37024   9.650  10.271   5.008  2.1304 -1.4018  1.3505
 1015MOL0     H37025   9.705  10.104   4.833  2.7074 -1.0517  1.8459
 1016MOL0     O37026   7.155   0.241   0.732  0.4048 -0.2025  0.1282
 1016MOL0     C37027   7.179   0.311   0.835  0.3946 -0.5271  0.3640
 1016MOL0     O37028   7.210   0.266   0.955  0.0889 -0.6556 -0.1225
 1016MOL0     C37029   7.211   0.134   0.987 -0.4102 -0.4021 -0.6617
 1016MOL0     C37030   7.097   0.047   1.008 -0.1863 -0.0797 -0.3664
 1016MOL0     C37031   7.105  -0.084   1.051 -0.0286  0.3453  0.9608
 1016MOL0     C37032   7.239  -0.136   1.081 -0.5646  1.6127  0.2231
 1016MOL0     O37033   7.261  -0.256   1.148 -0.1917  0.6102 -0.2350
 1016MOL0     C37034   7.205  -0.376   1.090  0.6351  0.3463 -0.9116
 1016MOL0     C37035   7.136  -0.465   1.185  0.4970 -0.1892 -0.1900
 1016MOL0     C37036   6.977  -0.441   1.188 -0.4165 -0.5023 -0.5849
 1016MOL0     C37037   6.918  -0.544   1.292  0.4866  0.2085  0.0761
 1016MOL0     C37038   6.924  -0.687   1.237 -0.5621  0.4436  1.1467
 1016MOL0     C37039   6.865  -0.711   1.098  0.1375 -0.5678  1.3481
 1016MOL0     C37040   6.722  -0.649   1.066  0.4601  1.3364 -0.3188
 1016MOL0     C37041   6.690  -0.660   0.920  0.0067  0.1592 -0.4558
 1016MOL0     N37042   6.713  -0.793   0.852 -0.2926 -0.6270 -0.6003
 1016MOL0     C37043   6.656  -0.912   0.886 -0.2235  0.3025 -0.5916
 1016MOL0     C37044   6.721  -1.007   0.821 -0.5214 -1.0776  0.8035
 1016MOL0     C37045   6.714  -1.147   0.840 -0.5538  0.3823 -0.1961
 1016MOL0     C37046   6.834  -1.237   0.796  0.3054  0.1032  0.6913
 1016MOL0     C37047   6.859  -1.353   0.888  0.0788  0.0676 -0.0288
 1016MOL0     C37048   6.975  -1.437   0.826 -0.0576 -0.2218 -0.2227
 1016MOL0     O37049   7.090  -1.349   0.815 -1.6961 -0.1450 -0.1610
 1016MOL0     C37050   7.137  -1.298   0.934  0.5210 -0.4307  0.4507
 1016MOL0     C37051   7.123  -1.163   0.980  0.0909 -0.4235  0.8791
 1016MOL0     C37052   7.163  -1.121   1.106  0.4761 -0.5061  0.3643
 1016MOL0     C37053   7.135  -0.972   1.131  1.0789 -0.0448 -0.4958
 1016MOL0     C37054   7.204  -1.206   1.207  0.8886 -0.8060 -0.0370
 1016MOL0     C37055   7.229  -1.173   1.351 -0.9228  0.3415 -1.5184
 1016MOL0     O37056   7.191  -1.056   1.407 -0.3800  0.5296  0.1437
 1016MOL0     C37057   7.250  -1.015   1.529  0.0578 -0.8397  0.2703
 1016MOL0     C37058   7.347  -0.909   1.534 -0.0402  0.0684 -0.7683
 1016MOL0     C37059   7.390  -0.860   1.658  0.3609 -0.2465  1.3625
 1016MOL0     C37060   7.355  -0.925   1.769 -0.6211  0.6952 -0.1042
 1016MOL0     O37061   7.414  -0.892   1.888 -0.8825 -0.3751  0.2400
 1016MOL0     C37062   7.328  -0.860   1.990 -0.2775 -0.0144 -1.0402
 1016MOL0     C37063   7.370  -0.731   2.049  0.3149  0.4639  0.4972
 1016MOL0     C37064   7.278  -0.694   2.167 -0.3818  0.3067 -0.1752
 1016MOL0     C37065   7.133  -0.666   2.133  0.4997  0.7768  0.8517
 1016MOL0     C37066   7.076  -0.542   2.218  0.0090 -0.4798  0.1013
 1016MOL0     C37067   6.922  -0.539   2.201  0.1397  0.5184 -0.2450
 1016MOL0     C37068   6.862  -0.425   2.286  0.5398 -0.7082 -0.5692
 1016MOL0     C37069   6.711  -0.418   2.232 -1.1404  0.0941 -0.1187
 1016MOL0    Cl37070   6.617  -0.560   2.287 -0.2017  0.3043 -0.3158
 1016MOL0     C37071   7.275  -1.037   1.769  0.3307  1.3504 -0.5126
 1016MOL0     C37072   7.217  -1.078   1.649  0.3871  0.7333  0.7133
 1016MOL0     O37073   7.308  -1.254   1.407  0.1558 -0.0914 -0.2685
 1016MOL0     C37074   7.221  -1.340   1.164  1.4274 -0.1713 -1.0155
 1016MOL0     C37075   7.185  -1.392   1.034 -0.4036 -0.6676 -0.3093
 1016MOL0     N37076   6.819  -0.947   0.748 -0.0910 -0.4889  0.7477
 1016MOL0     N37077   6.802  -0.813   0.749  0.5083  0.0307  0.8305
 1016MOL0     C37078   7.349  -0.051   1.077  0.0545 -0.1192  0.1901
 1016MOL0     C37079   7.335   0.078   1.027  0.5073  0.6210  0.8510
 1016MOL0     C37080   7.175   0.465   0.819  0.6542  0.1669 -0.4007
 1016MOL0     C37081   7.243   0.547   0.909 -0.2331 -0.0714  0.2142
 1016MOL0     C37082   7.241   0.687   0.899  0.7304 -0.5826 -0.9898
 1016MOL0     C37083   7.150   0.744   0.816  0.0995  0.5681  1.0635
 1016MOL0     O37084   7.126   0.882   0.802  0.0450  0.4091  0.4883
 1016MOL0     C37085   7.210   0.968   0.880 -0.0500  0.6698  0.3071
 1016MOL0     C37086   7.353   0.995   0.823 -0.2364  0.2870  0.4714
 1016MOL0     C37087   7.360   1.059   0.677 -0.3273 -0.4144  0.6110
 1016MOL0     C37088   7.507   1.059   0.622  0.7605  0.9023 -0.0933
 1016MOL0     C37089   7.615   1.124   0.692  0.2510 -1.0504 -0.3594
 1016MOL0     C37090   7.708   1.174   0.739 -1.4781 -0.7290 -0.8291
 1016MOL0     C37091   7.087   0.659   0.717  0.4235  0.2221  0.4472
 1016MOL0     C37092   7.091   0.523   0.731  0.3728  1.9230 -0.5814
 1016MOL0     H37093   6.998   0.088   0.990  1.9742  4.6480 -3.4754
 1016MOL0     H37094   7.016  -0.146   1.049 -2.0039  3.0089 -2.1475
 1016MOL0     H37095   7.154  -0.366   0.994 -2.2575 -5.7421 -0.4567
 1016MOL0     H37096   7.293  -0.427   1.049 -1.1725 -2.9564 -1.0350
 1016MOL0     H37097   7.152  -0.568   1.150 -1.5407 -0.8526  0.6983
 1016MOL0     H37098   7.164  -0.459   1.290 -0.2834  1.6171 -0.0501
 1016MOL0     H37099   6.936  -0.350   1.232 -1.2754 -0.3848 -1.5878
 1016MOL0     H37100   6.938  -0.446   1.086 -0.6135  1.5134 -0.6403
 1016MOL0     H37101   6.974  -0.528   1.385  0.2475  0.8088  0.1167
 1016MOL0     H37102   6.810  -0.534   1.304  0.5540  0.7272  0.2784
 1016MOL0     H37103   7.026  -0.727   1.236 -1.2513 -1.4163  1.2083
 1016MOL0     H37104   6.865  -0.741   1.312 -0.1499  1.5236  2.3021
 1016MOL0     H37105   6.941  -0.680   1.025 -0.4774 -5.5382 -1.8937
 1016MOL0     H37106   6.863  -0.818   1.073  3.6769 -1.0424  2.5816
 1016MOL0     H37107   6.666  -0.709   1.139  2.4226  0.4832  0.5678
 1016MOL0     H37108   6.725  -0.546   1.104 -0.6848 -0.2201  4.7604
 1016MOL0     H37109   6.751  -0.585   0.867 -2.7002  1.6165 -1.7342
 1016MOL0     H37110   6.585  -0.634   0.903  0.4656  1.8473 -0.9903
 1016MOL0     H37111   6.586  -0.950   0.961  0.2758 -1.6870 -1.0713
 1016MOL0     H37112   6.702  -1.164   0.947 -0.3281 -0.3188 -0.2773
 1016MOL0     H37113   6.633  -1.193   0.782 -3.1507  0.6068  3.0098
 1016MOL0     H37114   6.919  -1.168   0.799  0.3444  0.0294  2.8876
 1016MOL0     H37115   6.820  -1.273   0.693 -1.3322  0.2719  0.8378
 1016MOL0     H37116   6.775  -1.423   0.897 -0.7145  0.7642 -1.6593
 1016MOL0     H37117   6.878  -1.318   0.990 -2.3877  0.6448  0.2968
 1016MOL0     H37118   6.946  -1.468   0.725 -1.2016  3.0833 -1.0211
 1016MOL0     H37119   6.985  -1.525   0.890  0.9522  0.7629  1.0424
 1016MOL0     H37120   7.078  -1.105   0.900 -3.6577 -3.2766  0.6353
 1016MOL0     H37121   7.230  -0.918   1.126  1.0651 -0.1425 -2.0468
 1016MOL0     H37122   7.068  -0.939   1.051  0.1313 -1.5533 -0.3627
 1016MOL0     H37123   7.102  -0.943   1.232 -3.5290 -1.7461 -1.2677
 1016MOL0     H37124   7.385  -0.860   1.446  2.9274  1.6554  1.2242
 1016MOL0     H37125   7.439  -0.765   1.678  0.1651 -0.1247  1.2627
 1016MOL0     H37126   7.226  -0.855   1.950  0.8027  1.0502 -3.8885
 1016MOL0     H37127   7.333  -0.940   2.064  0.9159 -0.3325 -1.4491
 1016MOL0     H37128   7.473  -0.731   2.087  0.7667  0.8460 -0.6928
 1016MOL0     H37129   7.376  -0.645   1.981 -0.3054  1.0975  1.2257
 1016MOL0     H37130   7.329  -0.614   2.221  3.2896 -0.7547 -1.7314
 1016MOL0     H37131   7.287  -0.769   2.247  2.4137  1.3761  0.6353
 1016MOL0     H37132   7.119  -0.640   2.027  0.9613  0.4026  0.6940
 1016MOL0     H37133   7.074  -0.757   2.148  2.0196 -0.8399 -2.0723
 1016MOL0     H37134   7.119  -0.448   2.182 -1.3519 -0.8337 -2.6533
 1016MOL0     H37135   7.096  -0.559   2.324  2.4222  0.2925 -0.1628
 1016MOL0     H37136   6.889  -0.531   2.097 -2.7749  1.6431  0.6525
 1016MOL0     H37137   6.884  -0.634   2.238 -3.1905  2.3937  1.6057
 1016MOL0     H37138   6.917  -0.336   2.256  1.5397 -0.0682  2.7570
 1016MOL0     H37139   6.879  -0.437   2.393  4.4666  2.3133 -0.6392
 1016MOL0     H37140   6.708  -0.403   2.124 -1.7312 -0.1458 -0.1402
 1016MOL0     H37141   6.670  -0.326   2.276 -1.3932  0.3799 -0.9416
 1016MOL0     H37142   7.246  -1.114   1.840 -1.3985 -1.2814 -3.7644
 1016MOL0     H37143   7.178  -1.178   1.630 -1.2091  1.7517 -1.9290
 1016MOL0     H37144   7.246  -1.419   1.234  0.9228  2.1377  1.9233
 1016MOL0     H37145   7.199  -1.500   1.026 -0.0487 -0.7305  0.9578
 1016MOL0     H37146   7.439  -0.094   1.121 -0.8488 -3.0079 -0.5962
 1016MOL0     H37147   7.413   0.151   1.008  0.4805  0.2610 -0.8491
 1016MOL0     H37148   7.311   0.504   0.982  0.9156 -2.1503 -1.8941
 1016MOL0     H37149   7.309   0.724   0.975  0.4316 -2.6217  0.3633
 1016MOL0     H37150   7.153   1.060   0.891 -0.2634  0.7471 -1.2120
 1016MOL0     H37151   7.227   0.928   0.980 -0.3696  0.1090  0.1452
 1016MOL0     H37152   7.409   0.902   0.818  2.4885  1.8679 -0.7946
 1016MOL0     H37153   7.416   1.053   0.891  3.0228  0.2832 -2.2901
 1016MOL0     H37154   7.331   1.164   0.693 -0.1530  0.1630 -2.2498
 1016MOL0     H37155   7.304   1.010   0.597  0.8591 -1.4807  0.4082
 1016MOL0     H37156   7.494   1.103   0.523  0.6198  1.1283  0.0243
 1016MOL0     H37157   7.540   0.957   0.597  0.4367  0.7109  0.2545
 1016MOL0     H37158   7.796   1.204   0.792 -0.1271 -3.6339 -1.1959
 1016MOL0     H37159   7.026   0.699   0.637 -1.0513  0.3099  1.5883
 1016MOL0     H37160   7.030   0.467   0.660 -1.1144 -0.8307  2.5611
 1017MOL0     O37161   1.135   7.699   6.717 -0.8615  0.8806 -0.3696
 1017MOL0     C37162   1.140   7.715   6.595  0.7297 -0.8870 -0.3542
 1017MOL0     O37163   1.230   7.789   6.523  1.4702 -0.4707  0.1076
 1017MOL0     C37164   1.336   7.840   6.593  0.5664 -1.4299  0.1449
 1017MOL0     C37165   1.447   7.762   6.594 -0.2754 -0.4893  0.1504
 1017MOL0     C37166   1.554   7.805   6.672 -0.6516 -0.2372  0.6583
 1017MOL0     C37167   1.562   7.926   6.737  0.2525  0.4503 -0.2542
 1017MOL0     O37168   1.687   7.944   6.810  1.1542  0.4891 -0.0322
 1017MOL0     C37169   1.692   8.061   6.885 -0.1678 -0.1012  0.2298
 1017MOL0     C37170   1.801   8.043   6.984  0.3721 -0.6190 -0.2201
 1017MOL0     C37171   1.809   7.902   7.055 -0.3691  0.0158 -0.1993
 1017MOL0     C37172   1.961   7.862   7.071 -0.8195 -0.5919 -0.7499
 1017MOL0     C37173   1.967   7.760   7.182 -0.2255 -0.6540 -0.1257
 1017MOL0     C37174   2.112   7.706   7.184  0.1415  0.4956 -0.9230
 1017MOL0     C37175   2.117   7.614   7.309 -0.5219 -0.8222 -0.9326
 1017MOL0     C37176   2.255   7.621   7.367 -1.1134 -0.5265  0.2982
 1017MOL0     N37177   2.348   7.574   7.265  0.3544 -0.0274  0.1210
 1017MOL0     C37178   2.344   7.450   7.214  0.1147  0.0570  0.0559
 1017MOL0     C37179   2.439   7.451   7.124 -0.3052 -0.1282 -0.0543
 1017MOL0     C37180   2.479   7.352   7.014 -0.1970  0.4012 -0.1079
 1017MOL0     C37181   2.501   7.219   7.082  0.9778 -0.3476  0.8825
 1017MOL0     C37182   2.578   7.126   6.990  0.0916 -0.1706 -0.3910
 1017MOL0     C37183   2.641   7.001   7.045  0.0885 -0.2319  0.2658
 1017MOL0     O37184   2.737   7.021   7.146  0.0886  0.8083 -0.6687
 1017MOL0     C37185   2.839   6.928   7.164 -0.2872 -0.6304  0.6817
 1017MOL0     C37186   2.926   6.907   7.056  0.0669 -0.1894 -0.4952
 1017MOL0     C37187   3.044   6.835   7.073  0.1031  0.1115  0.7259
 1017MOL0     C37188   3.119   6.815   6.944 -0.5095  0.6846  1.6300
 1017MOL0     C37189   3.072   6.774   7.200 -0.3020  0.6142 -0.0711
 1017MOL0     C37190   3.210   6.696   7.217  0.1391 -0.6145 -1.0915
 1017MOL0     O37191   3.253   6.635   7.106 -0.3048 -0.4953  0.2996
 1017MOL0     C37192   3.348   6.528   7.119 -0.0298 -1.6740  0.3092
 1017MOL0     C37193   3.375   6.467   6.994  0.6613  0.8678 -0.0959
 1017MOL0     C37194   3.476   6.367   6.996 -0.0305  0.5860  0.3512
 1017MOL0     C37195   3.545   6.335   7.104  0.2170  0.9324 -0.6299
 1017MOL0     O37196   3.644   6.241   7.098 -0.8895  0.5552 -0.5474
 1017MOL0     C37197   3.729   6.244   6.984  0.1702 -0.1698 -0.7819
 1017MOL0     C37198   3.796   6.371   6.967  0.6322  0.0336  0.5167
 1017MOL0     C37199   3.916   6.359   6.893  0.3479 -0.3303  1.0519
 1017MOL0     C37200   3.990   6.488   6.847 -1.0874  0.3542 -0.3507
 1017MOL0     C37201   4.116   6.446   6.770  0.4026  0.4440  0.6472
 1017MOL0     C37202   4.172   6.577   6.711 -1.0477  0.2514  0.0315
 1017MOL0     C37203   4.327   6.565   6.666 -0.7447  0.9044 -0.3850
 1017MOL0     C37204   4.335   6.499   6.520  0.3719 -0.4513 -0.0619
 1017MOL0    Cl37205   4.289   6.603   6.384  0.1684 -0.2025 -0.2887
 1017MOL0     C37206   3.519   6.389   7.228  0.2593 -0.4555  0.2205
 1017MOL0     C37207   3.412   6.481   7.224  0.1050  0.7577 -0.3206
 1017MOL0     O37208   3.252   6.688   7.334 -0.3643  0.0990  0.3112
 1017MOL0     C37209   2.997   6.802   7.310  0.8894  0.7282 -0.1885
 1017MOL0     C37210   2.880   6.886   7.294  0.1541  0.7252 -0.3047
 1017MOL0     N37211   2.497   7.577   7.112 -0.9480  0.3298 -0.2094
 1017MOL0     N37212   2.432   7.655   7.196 -0.7866 -0.3786 -0.1232
 1017MOL0     C37213   1.440   8.005   6.746 -0.0919  0.1666 -0.3427
 1017MOL0     C37214   1.331   7.960   6.659  0.0845 -0.4102  0.2925
 1017MOL0     C37215   1.023   7.677   6.522  0.7870 -0.3532 -0.5533
 1017MOL0     C37216   0.900   7.636   6.583  0.7615 -1.4504  0.2174
 1017MOL0     C37217   0.784   7.606   6.509  0.5547 -0.2490  0.7326
 1017MOL0     C37218   0.796   7.615   6.368  0.7581  0.1810 -0.4430
 1017MOL0     O37219   0.694   7.576   6.277 -0.0337  0.0660  0.5116
 1017MOL0     C37220   0.565   7.548   6.334  1.2153  0.0377  0.4407
 1017MOL0     C37221   0.485   7.446   6.231  0.3036 -0.8475  0.7663
 1017MOL0     C37222   0.335   7.427   6.278 -0.2428 -0.8980 -0.1808
 1017MOL0     C37223   0.278   7.292   6.239 -0.0020  0.3617 -0.1990
 1017MOL0     C37224   0.263   7.264   6.091  1.4238  0.0874  0.0029
 1017MOL0     C37225   0.256   7.232   5.973  0.5367 -0.7307 -0.1872
 1017MOL0     C37226   0.909   7.650   6.304 -0.2500 -0.1272 -1.3439
 1017MOL0     C37227   1.019   7.678   6.384  0.1566 -0.6121 -0.1371
 1017MOL0     H37228   1.437   7.661   6.555 -0.3936 -0.9887  1.4066
 1017MOL0     H37229   1.646   7.747   6.673  0.2353  1.0938 -0.2055
 1017MOL0     H37230   1.700   8.151   6.823 -0.9203  1.4413  2.2689
 1017MOL0     H37231   1.593   8.072   6.931 -1.3803  0.5692 -2.3357
 1017MOL0     H37232   1.886   8.056   6.917 -0.2913  2.1868 -0.6413
 1017MOL0     H37233   1.799   8.126   7.055  0.7003 -1.4430  0.7725
 1017MOL0     H37234   1.754   7.888   7.149 -0.3569 -0.5607 -0.2732
 1017MOL0     H37235   1.768   7.828   6.986  0.8242 -0.9624  0.0821
 1017MOL0     H37236   2.005   7.811   6.984  1.7402 -3.2211  1.8393
 1017MOL0     H37237   2.014   7.956   7.090 -1.7255  0.0436 -1.3178
 1017MOL0     H37238   1.963   7.818   7.274  0.6675 -0.6092 -0.1012
 1017MOL0     H37239   1.891   7.681   7.186  3.3418 -4.8190 -3.2102
 1017MOL0     H37240   2.136   7.649   7.094  1.2811 -1.4371  0.5252
 1017MOL0     H37241   2.176   7.794   7.197  3.0923 -1.5969 -0.2968
 1017MOL0     H37242   2.043   7.643   7.384 -2.2211 -0.6513 -2.6033
 1017MOL0     H37243   2.084   7.514   7.281 -2.1559 -0.4209 -0.5615
 1017MOL0     H37244   2.271   7.564   7.459  1.7740 -2.8694 -1.4270
 1017MOL0     H37245   2.257   7.729   7.381 -2.1718 -0.6198  1.2075
 1017MOL0     H37246   2.277   7.371   7.247 -0.3134 -0.3615 -1.7401
 1017MOL0     H37247   2.394   7.352   6.944  0.0490  2.7495 -0.4876
 1017MOL0     H37248   2.568   7.394   6.967  0.5066 -0.9261 -0.0075
 1017MOL0     H37249   2.406   7.168   7.098  0.9584 -0.0761  1.6582
 1017MOL0     H37250   2.557   7.234   7.174  1.8676  1.5052  0.0997
 1017MOL0     H37251   2.666   7.158   6.934 -0.3295 -1.0502 -1.6071
 1017MOL0     H37252   2.504   7.094   6.916 -1.2243  2.7262 -0.4306
 1017MOL0     H37253   2.679   6.936   6.966 -2.1268 -0.2543 -0.8375
 1017MOL0     H37254   2.559   6.937   7.079 -0.3893  0.6987  0.9236
 1017MOL0     H37255   2.906   6.963   6.965 -4.2594 -1.8831 -0.8133
 1017MOL0     H37256   3.101   6.712   6.911  0.7661 -0.4135  4.0668
 1017MOL0     H37257   3.103   6.892   6.868  0.0486 -1.3458 -0.6653
 1017MOL0     H37258   3.225   6.822   6.968  0.9797 -5.3052 -1.3549
 1017MOL0     H37259   3.313   6.502   6.912  0.8422  1.3275 -0.0443
 1017MOL0     H37260   3.487   6.311   6.904 -1.3911  1.8577 -0.6418
 1017MOL0     H37261   3.800   6.165   7.011  2.3684  0.7805 -3.2595
 1017MOL0     H37262   3.683   6.222   6.887 -1.1299  0.3759 -0.3123
 1017MOL0     H37263   3.734   6.438   6.907 -0.9362  0.7834  2.8637
 1017MOL0     H37264   3.814   6.413   7.066 -3.2320  5.0153 -0.4984
 1017MOL0     H37265   3.880   6.312   6.801  1.2486 -0.3597  0.7053
 1017MOL0     H37266   3.987   6.287   6.935 -1.1141 -2.2586  0.3870
 1017MOL0     H37267   3.920   6.534   6.776 -2.2316 -1.0368 -0.1862
 1017MOL0     H37268   4.007   6.556   6.931 -0.1340 -1.5453  1.0778
 1017MOL0     H37269   4.092   6.386   6.681  4.3367 -0.5589  0.0967
 1017MOL0     H37270   4.190   6.388   6.826  0.0029 -0.6391  0.0815
 1017MOL0     H37271   4.112   6.621   6.631  0.3983 -0.0583 -1.2790
 1017MOL0     H37272   4.174   6.656   6.787 -0.7515 -0.8277  1.1687
 1017MOL0     H37273   4.378   6.505   6.742 -0.4219 -1.4109 -2.2799
 1017MOL0     H37274   4.372   6.664   6.673 -2.2926  1.5465  0.7985
 1017MOL0     H37275   4.263   6.417   6.517 -0.2078  0.0753 -1.3207
 1017MOL0     H37276   4.428   6.441   6.512 -0.8980 -2.6703  0.3362
 1017MOL0     H37277   3.561   6.360   7.324  1.9399 -1.6558 -0.8171
 1017MOL0     H37278   3.412   6.522   7.325  0.8658  2.8020 -1.1115
 1017MOL0     H37279   3.021   6.764   7.409 -1.1622 -2.6447 -0.8396
 1017MOL0     H37280   2.802   6.891   7.369  1.1296  0.2877  0.7683
 1017MOL0     H37281   1.437   8.100   6.799  3.4511  1.0749 -1.4551
 1017MOL0     H37282   1.236   8.010   6.673 -0.9109 -2.5156  1.6130
 1017MOL0     H37283   0.880   7.644   6.689  1.7689 -1.1522  0.3983
 1017MOL0     H37284   0.692   7.588   6.564 -2.0617  2.1736 -2.4190
 1017MOL0     H37285   0.554   7.507   6.435 -3.2871 -0.5259 -0.0676
 1017MOL0     H37286   0.509   7.641   6.326 -0.1484 -0.8674 -1.5115
 1017MOL0     H37287   0.520   7.343   6.234  1.7072 -0.3906  2.8995
 1017MOL0     H37288   0.490   7.494   6.133 -1.7717 -1.0607  0.5150
 1017MOL0     H37289   0.262   7.502   6.245 -2.5048 -2.5725  0.7534
 1017MOL0     H37290   0.329   7.426   6.387  0.8337 -0.6673 -0.1132
 1017MOL0     H37291   0.172   7.283   6.262 -0.7175 -2.2770 -3.7177
 1017MOL0     H37292   0.326   7.216   6.300 -2.4626  1.2806  3.1872
 1017MOL0     H37293   0.262   7.212   5.868 -1.1641  2.5065 -1.0377
 1017MOL0     H37294   0.911   7.653   6.195 -2.2932  1.0700 -1.4079
 1017MOL0     H37295   1.115   7.704   6.340 -0.4693  2.5481  0.1855
 1018MOL0     O37296  11.339   2.641  11.014 -0.4332 -0.4626 -0.4492
 1018MOL0     C37297  11.457   2.671  11.033 -0.0453  0.3658  0.1550
 1018MOL0     O37298  11.563   2.638  10.947  0.3639 -0.7862  0.2678
 1018MOL0     C37299  11.533   2.555  10.841  0.2636 -0.4494  0.6096
 1018MOL0     C37300  11.587   2.605  10.721 -0.1400  0.2342  0.8673
 1018MOL0     C37301  11.560   2.548  10.589 -0.4272 -0.8494 -1.1622
 1018MOL0     C37302  11.485   2.438  10.585 -0.4740  0.6908  0.1741
 1018MOL0     O37303  11.481   2.375  10.465  0.0247 -0.1873 -0.5022
 1018MOL0     C37304  11.362   2.302  10.429  1.3283 -0.5520  0.1909
 1018MOL0     C37305  11.361   2.303  10.271  0.7127 -0.8637 -0.3888
 1018MOL0     C37306  11.435   2.177  10.214 -0.1182 -0.3919  0.7846
 1018MOL0     C37307  11.458   2.201  10.063 -0.6160 -0.7104 -0.0633
 1018MOL0     C37308  11.478   2.067   9.997  0.9523 -0.3348  0.5307
 1018MOL0     C37309  11.457   2.082   9.839 -0.6815  0.3663 -0.0124
 1018MOL0     C37310  11.524   1.963   9.778  1.1318  0.9852  0.3322
 1018MOL0     C37311  11.512   1.954   9.622 -0.1214 -0.2905  0.0707
 1018MOL0     N37312  11.380   1.913   9.569 -0.2747  0.0567  0.0637
 1018MOL0     C37313  11.361   1.884   9.438 -0.5158 -0.6032 -0.1599
 1018MOL0     C37314  11.249   1.815   9.433 -0.1951  0.0176  0.1234
 1018MOL0     C37315  11.179   1.752   9.314  0.1874 -0.3967 -0.4457
 1018MOL0     C37316  11.247   1.792   9.179  0.3065  0.1569 -0.7706
 1018MOL0     C37317  11.185   1.734   9.047  0.0380 -0.0712  0.0290
 1018MOL0     C37318  11.041   1.795   9.026  0.3084  0.0487 -0.5508
 1018MOL0     O37319  10.994   1.742   8.902  0.3200  0.3921 -0.1070
 1018MOL0     C37320  10.870   1.771   8.856 -0.0123  0.2173  0.1044
 1018MOL0     C37321  10.795   1.875   8.912 -0.5857 -0.5200 -0.2857
 1018MOL0     C37322  10.667   1.912   8.862 -0.3242  0.0149 -1.0307
 1018MOL0     C37323  10.596   2.021   8.927  0.0358 -0.8042  0.5823
 1018MOL0     C37324  10.619   1.826   8.748  0.1396 -0.5788  0.3537
 1018MOL0     C37325  10.482   1.837   8.693  0.3732 -0.4158  0.6920
 1018MOL0     O37326  10.458   1.776   8.566 -1.2594  0.6141  0.5472
 1018MOL0     C37327  10.350   1.806   8.486  0.0886 -0.3035 -0.0672
 1018MOL0     C37328  10.306   1.709   8.397  0.6314  0.6825 -1.1862
 1018MOL0     C37329  10.177   1.713   8.331 -1.1093  0.3231 -0.4881
 1018MOL0     C37330  10.100   1.834   8.340 -0.1385  0.6988 -0.3657
 1018MOL0     O37331   9.971   1.840   8.295  0.8533 -0.3062  0.7330
 1018MOL0     C37332   9.885   1.725   8.310 -0.0580 -0.0550  0.4824
 1018MOL0     C37333   9.758   1.756   8.242 -0.0436  0.1229  0.6425
 1018MOL0     C37334   9.631   1.683   8.304  0.6161  0.0371 -0.5504
 1018MOL0     C37335   9.504   1.709   8.225  0.1691 -0.1745  1.1674
 1018MOL0     C37336   9.381   1.636   8.290  0.0541 -0.2946 -0.1744
 1018MOL0     C37337   9.255   1.644   8.208 -0.0268 -0.6365  0.7241
 1018MOL0     C37338   9.129   1.606   8.281  0.5638 -0.3397  0.4285
 1018MOL0     C37339   9.002   1.667   8.225 -0.3315  0.1656  0.3968
 1018MOL0    Cl37340   8.965   1.597   8.061 -0.2066  0.2280 -0.3800
 1018MOL0     C37341  10.157   1.941   8.421 -0.4252 -0.7202  0.5350
 1018MOL0     C37342  10.276   1.922   8.500 -0.1270 -0.4804  1.1046
 1018MOL0     O37343  10.402   1.906   8.751  0.4418  1.2795  0.7969
 1018MOL0     C37344  10.709   1.735   8.690 -0.3841 -0.1609  0.3002
 1018MOL0     C37345  10.838   1.714   8.737  0.2960  0.0747  0.5637
 1018MOL0     N37346  11.197   1.783   9.556 -0.5491 -0.3771  0.1268
 1018MOL0     N37347  11.275   1.856   9.633  0.0528  0.4167  0.8314
 1018MOL0     C37348  11.425   2.379  10.695  0.0848 -1.2883  0.2822
 1018MOL0     C37349  11.433   2.451  10.820 -0.9607 -0.0127  0.1271
 1018MOL0     C37350  11.484   2.747  11.155 -0.0474  0.3574  0.1966
 1018MOL0     C37351  11.381   2.816  11.223  0.4471  0.1405 -0.1474
 1018MOL0     C37352  11.414   2.867  11.346 -0.0425  1.1873  0.0199
 1018MOL0     C37353  11.547   2.877  11.394  1.2142 -0.2973 -1.1636
 1018MOL0     O37354  11.589   2.944  11.507 -0.6238  0.1817  0.2859
 1018MOL0     C37355  11.509   2.971  11.617  0.2194  0.0507 -0.7431
 1018MOL0     C37356  11.563   2.891  11.742  0.6387  0.2052 -0.7295
 1018MOL0     C37357  11.457   2.903  11.854  0.5070 -0.6859  0.4667
 1018MOL0     C37358  11.495   2.821  11.969 -0.6612  0.2419 -0.0810
 1018MOL0     C37359  11.375   2.771  12.036 -1.2710  0.4448 -0.0613
 1018MOL0     C37360  11.263   2.743  12.088  0.0290 -0.0422  0.5808
 1018MOL0     C37361  11.650   2.838  11.307 -0.3601  0.1665 -0.7171
 1018MOL0     C37362  11.619   2.767  11.187 -0.5939 -1.2429  1.0432
 1018MOL0     H37363  11.650   2.693  10.726  2.9260 -1.6596 -0.6055
 1018MOL0     H37364  11.605   2.588  10.499 -0.9175  0.6460 -0.7583
 1018MOL0     H37365  11.374   2.202  10.473  4.9055  0.7413  2.5744
 1018MOL0     H37366  11.266   2.344  10.463  1.3428 -1.3561  1.2970
 1018MOL0     H37367  11.258   2.300  10.233  1.4978  1.3338 -3.1556
 1018MOL0     H37368  11.408   2.396  10.236 -1.7804  1.0681  1.0728
 1018MOL0     H37369  11.529   2.171  10.269 -0.8325  1.9191  2.3943
 1018MOL0     H37370  11.386   2.081  10.230  0.4899 -0.7922  0.3307
 1018MOL0     H37371  11.366   2.246  10.024  0.3868  0.9744 -0.6093
 1018MOL0     H37372  11.548   2.258  10.038 -0.2364 -1.6427 -0.8779
 1018MOL0     H37373  11.565   2.011  10.033  0.9466 -0.3966  0.4473
 1018MOL0     H37374  11.393   2.004  10.024 -0.6253  0.3248 -2.4356
 1018MOL0     H37375  11.350   2.088   9.815 -1.0700  1.1815  1.7340
 1018MOL0     H37376  11.508   2.170   9.800  0.4029 -0.0723  0.3837
 1018MOL0     H37377  11.625   1.951   9.819  1.1250  3.4758  1.2248
 1018MOL0     H37378  11.469   1.876   9.816 -1.3169  2.5492  0.5385
 1018MOL0     H37379  11.595   1.892   9.587 -0.2841  0.5067 -1.8607
 1018MOL0     H37380  11.537   2.054   9.585  1.0685 -0.4488  0.4081
 1018MOL0     H37381  11.423   1.908   9.353 -3.6821  0.3488 -2.3474
 1018MOL0     H37382  11.187   1.643   9.315 -1.7040 -0.5727 -0.1699
 1018MOL0     H37383  11.074   1.783   9.323  0.8869  1.4636  2.3165
 1018MOL0     H37384  11.353   1.765   9.185 -0.0682 -1.3384  4.8799
 1018MOL0     H37385  11.237   1.900   9.175  2.1209  0.4299  0.5109
 1018MOL0     H37386  11.173   1.625   9.050  0.3985 -0.1329 -0.6307
 1018MOL0     H37387  11.252   1.762   8.965 -0.1660 -1.2266 -0.5602
 1018MOL0     H37388  11.045   1.904   9.024 -1.8268  0.2075  0.3438
 1018MOL0     H37389  10.978   1.776   9.114 -0.1883  2.7771 -0.2508
 1018MOL0     H37390  10.834   1.950   8.980  3.7182 -0.9867 -1.8999
 1018MOL0     H37391  10.574   2.101   8.856 -2.8293 -1.5007  0.5815
 1018MOL0     H37392  10.500   1.979   8.958 -0.2498 -1.5954 -1.2499
 1018MOL0     H37393  10.655   2.053   9.014  0.9841 -1.8104  0.3317
 1018MOL0     H37394  10.368   1.627   8.364 -3.1374 -0.7472 -5.7975
 1018MOL0     H37395  10.160   1.642   8.250  6.5559 -2.2224 -0.6421
 1018MOL0     H37396   9.930   1.630   8.278  0.8322 -0.2010  2.1014
 1018MOL0     H37397   9.873   1.707   8.417  0.0644 -1.3728  0.2961
 1018MOL0     H37398   9.739   1.863   8.229 -1.3584 -0.3607 -2.1970
 1018MOL0     H37399   9.773   1.722   8.139 -0.6801 -0.9901  0.9085
 1018MOL0     H37400   9.615   1.727   8.403 -0.9411  1.4159 -1.3780
 1018MOL0     H37401   9.655   1.576   8.307  3.1726  0.5650  0.1867
 1018MOL0     H37402   9.489   1.816   8.211  0.4317 -0.2508  0.2049
 1018MOL0     H37403   9.527   1.669   8.125 -0.4169  0.0778  0.9279
 1018MOL0     H37404   9.358   1.689   8.383 -1.3166  0.6468 -1.0270
 1018MOL0     H37405   9.409   1.534   8.319 -0.9540  0.6481  5.2890
 1018MOL0     H37406   9.257   1.745   8.168  0.7547 -0.8659  0.1547
 1018MOL0     H37407   9.289   1.574   8.131 -0.5080  0.3415 -0.3941
 1018MOL0     H37408   9.136   1.634   8.386  0.3580 -0.9591  0.6101
 1018MOL0     H37409   9.126   1.497   8.273  2.3614 -0.6583  2.8201
 1018MOL0     H37410   9.020   1.774   8.236 -2.2426  0.3488  2.5938
 1018MOL0     H37411   8.920   1.633   8.289  1.0283 -0.1199  2.0869
 1018MOL0     H37412  10.108   2.037   8.431  0.1761 -0.4285  0.7038
 1018MOL0     H37413  10.326   2.002   8.553  2.3571 -0.4022 -1.1526
 1018MOL0     H37414  10.686   1.680   8.599  5.8607 -2.9754 -0.0967
 1018MOL0     H37415  10.918   1.657   8.693  2.0940  1.2224  2.1821
 1018MOL0     H37416  11.358   2.294  10.697 -1.9114  0.2270  1.6930
 1018MOL0     H37417  11.383   2.403  10.904  0.7528 -4.3847 -1.0485
 1018MOL0     H37418  11.283   2.808  11.177  1.4031 -2.7329 -1.9438
 1018MOL0     H37419  11.330   2.890  11.411  1.1767  0.8837  1.7668
 1018MOL0     H37420  11.509   3.079  11.627 -1.9863 -0.0454  1.0821
 1018MOL0     H37421  11.405   2.937  11.611  0.6909 -1.3388 -1.5431
 1018MOL0     H37422  11.662   2.916  11.781 -1.0509  0.4850  4.1250
 1018MOL0     H37423  11.578   2.788  11.708  2.4250 -0.1217  0.8601
 1018MOL0     H37424  11.374   2.853  11.805 -0.9979  2.5444 -0.5460
 1018MOL0     H37425  11.444   3.008  11.882 -3.0012 -0.5347 -1.2272
 1018MOL0     H37426  11.564   2.869  12.040 -0.2394 -3.9240  2.7296
 1018MOL0     H37427  11.553   2.737  11.930  0.8121  2.0752 -2.0989
 1018MOL0     H37428  11.170   2.712  12.131 -1.5807  1.0647 -1.9067
 1018MOL0     H37429  11.757   2.849  11.324 -0.0921 -0.4182 -1.9381
 1018MOL0     H37430  11.709   2.729  11.141  1.0275  1.5114  1.7089
 1019MOL0     O37431   7.750  11.124   9.054 -0.1657 -0.4390 -0.4900
 1019MOL0     C37432   7.697  11.140   9.165 -0.3323  0.6819  0.4338
 1019MOL0     O37433   7.754  11.115   9.285  0.8462  0.5305  0.2162
 1019MOL0     C37434   7.881  11.065   9.290 -0.5746  1.3693  0.0794
 1019MOL0     C37435   7.896  10.927   9.258  0.0528 -0.3420 -1.1038
 1019MOL0     C37436   8.026  10.880   9.253 -0.7418  0.1271  1.1625
 1019MOL0     C37437   8.138  10.958   9.267 -0.5199  0.9448  0.8349
 1019MOL0     O37438   8.266  10.907   9.246 -0.0304  0.0304  0.1296
 1019MOL0     C37439   8.298  10.782   9.302 -0.0956 -1.1056 -0.7488
 1019MOL0     C37440   8.443  10.778   9.323  0.0601  0.3551  0.5179
 1019MOL0     C37441   8.521  10.803   9.186  0.2509 -0.5544 -0.1404
 1019MOL0     C37442   8.573  10.949   9.174  1.0569 -0.4115 -0.4156
 1019MOL0     C37443   8.659  10.980   9.050 -0.2797 -1.0801  0.2791
 1019MOL0     C37444   8.771  10.880   9.027 -1.2567 -0.1516  0.1703
 1019MOL0     C37445   8.906  10.923   8.948 -0.2456  1.5148 -0.4713
 1019MOL0     C37446   9.021  10.818   8.962  0.2154 -0.9303  0.4063
 1019MOL0     N37447   9.151  10.863   8.905 -0.7175 -0.5526 -0.3963
 1019MOL0     C37448   9.185  10.918   8.791  0.2309  0.0905  0.9502
 1019MOL0     C37449   9.305  10.971   8.801 -0.0290 -0.7529 -0.1872
 1019MOL0     C37450   9.391  11.047   8.704 -1.0406  1.2192  0.1291
 1019MOL0     C37451   9.480  11.151   8.774  0.1346 -0.3315  0.3233
 1019MOL0     C37452   9.608  11.096   8.841  0.7208  0.4143  0.4452
 1019MOL0     C37453   9.705  11.199   8.886 -0.7474  0.4079  0.3154
 1019MOL0     O37454   9.787  11.243   8.772  0.1711  0.4786  0.2344
 1019MOL0     C37455   9.879  11.347   8.789 -0.0646 -0.1772 -0.5106
 1019MOL0     C37456   9.975  11.370   8.695  0.4866 -0.4075  0.1626
 1019MOL0     C37457  10.080  11.466   8.723 -0.3897 -0.8149 -0.1587
 1019MOL0     C37458  10.195  11.465   8.624  0.6041 -0.5685  0.2417
 1019MOL0     C37459  10.091  11.546   8.839  0.4833 -0.3317  0.3451
 1019MOL0     C37460  10.179  11.660   8.860  0.1706  0.0107 -0.6804
 1019MOL0     O37461  10.255  11.711   8.761  0.7007 -0.0547 -0.2450
 1019MOL0     C37462  10.332  11.820   8.790  0.6220 -0.0083 -1.1479
 1019MOL0     C37463  10.461  11.808   8.835 -0.0779  0.9657 -0.3229
 1019MOL0     C37464  10.537  11.928   8.862 -0.0039 -0.0133 -0.2461
 1019MOL0     C37465  10.489  12.055   8.831 -0.2455  0.5646  1.0557
 1019MOL0     O37466  10.581  12.158   8.850  0.7363 -0.0597  0.2679
 1019MOL0     C37467  10.514  12.293   8.873  0.2601  0.6762  0.2371
 1019MOL0     C37468  10.488  12.364   8.744 -0.6326 -0.0542  0.8128
 1019MOL0     C37469  10.623  12.427   8.690 -0.0615 -0.6306  0.0947
 1019MOL0     C37470  10.598  12.449   8.544 -0.3500 -0.3170  0.3426
 1019MOL0     C37471  10.698  12.532   8.470  0.7882  0.2372  0.1661
 1019MOL0     C37472  10.676  12.535   8.326 -0.2215 -0.7699  0.6186
 1019MOL0     C37473  10.750  12.427   8.235  0.2101 -0.5846 -0.8927
 1019MOL0     C37474  10.706  12.409   8.095 -0.3730 -0.5646 -0.1983
 1019MOL0    Cl37475  10.695  12.572   8.020  0.3318  0.2108 -0.4337
 1019MOL0     C37476  10.354  12.062   8.788  0.0205 -0.4273 -0.8072
 1019MOL0     C37477  10.282  11.952   8.769  0.4307  0.2815 -0.7106
 1019MOL0     O37478  10.184  11.701   8.973  0.9369 -0.0926 -0.4764
 1019MOL0     C37479   9.987  11.510   8.926 -0.2221 -0.0412 -0.2084
 1019MOL0     C37480   9.887  11.423   8.906 -0.0485  0.6092 -0.6355
 1019MOL0     N37481   9.356  10.943   8.925 -0.8829 -0.7806  0.4034
 1019MOL0     N37482   9.259  10.876   8.989  1.2028 -0.2914  0.1186
 1019MOL0     C37483   8.121  11.094   9.291  0.4225 -1.0009  0.3963
 1019MOL0     C37484   7.991  11.148   9.303  0.2053  0.2903  0.2093
 1019MOL0     C37485   7.559  11.185   9.175 -0.4231  0.0380 -0.0363
 1019MOL0     C37486   7.499  11.256   9.286  0.0350  0.3589 -0.2401
 1019MOL0     C37487   7.372  11.305   9.277  0.3976 -0.3548  0.4074
 1019MOL0     C37488   7.296  11.301   9.155 -0.5827  0.3568 -0.7960
 1019MOL0     O37489   7.171  11.357   9.141  0.1742 -0.5989 -0.1066
 1019MOL0     C37490   7.113  11.439   9.243 -1.0295  0.9991  0.7699
 1019MOL0     C37491   6.970  11.463   9.208 -0.0274  0.9161 -0.6996
 1019MOL0     C37492   6.939  11.545   9.084 -0.5470  0.7875  0.1811
 1019MOL0     C37493   6.808  11.613   9.079  0.1634 -1.0222  0.2493
 1019MOL0     C37494   6.794  11.710   8.963 -0.8377  0.1348 -0.5341
 1019MOL0     C37495   6.788  11.787   8.875  0.3901 -0.6019 -1.1583
 1019MOL0     C37496   7.351  11.230   9.048  0.3744 -0.0651 -0.3323
 1019MOL0     C37497   7.475  11.171   9.062 -0.0189 -0.3886  0.0484
 1019MOL0     H37498   7.809  10.864   9.244 -0.5980  0.2535  0.0724
 1019MOL0     H37499   8.043  10.776   9.225  1.3048  1.2655 -2.5807
 1019MOL0     H37500   8.238  10.758   9.391 -0.7210 -2.6161 -1.5296
 1019MOL0     H37501   8.260  10.713   9.227 -1.9022 -0.6136 -0.3391
 1019MOL0     H37502   8.477  10.843   9.404  2.2299 -0.3414  0.2420
 1019MOL0     H37503   8.465  10.680   9.366  0.0062  0.4925  0.8552
 1019MOL0     H37504   8.594  10.723   9.179 -0.9461 -1.5318 -2.7604
 1019MOL0     H37505   8.451  10.778   9.105 -1.7399 -0.5522  1.4946
 1019MOL0     H37506   8.487  11.016   9.169  1.7583  0.7409  1.6089
 1019MOL0     H37507   8.634  10.975   9.261  0.4536  1.3779 -0.4906
 1019MOL0     H37508   8.596  11.002   8.964 -2.1802  1.5338  2.1727
 1019MOL0     H37509   8.702  11.080   9.062  0.2170 -1.0749 -1.3304
 1019MOL0     H37510   8.814  10.835   9.117  1.4065 -3.1862 -2.3874
 1019MOL0     H37511   8.724  10.795   8.979 -2.1231  0.6299 -0.4038
 1019MOL0     H37512   8.897  10.946   8.841  0.3622 -1.3233 -1.2022
 1019MOL0     H37513   8.941  11.018   8.991 -1.4072  2.1097 -0.7882
 1019MOL0     H37514   8.986  10.730   8.908  0.4730 -1.8803  1.7744
 1019MOL0     H37515   9.033  10.784   9.065 -0.9654  2.5754  1.8785
 1019MOL0     H37516   9.116  10.923   8.708  0.8279  2.8278  0.5162
 1019MOL0     H37517   9.455  10.968   8.665  1.1728 -0.7835  6.6350
 1019MOL0     H37518   9.340  11.093   8.619 -1.2055  0.1276 -0.3707
 1019MOL0     H37519   9.424  11.198   8.855  0.8593 -1.5077  1.5541
 1019MOL0     H37520   9.510  11.228   8.702  5.3298 -1.9596  0.3161
 1019MOL0     H37521   9.650  11.026   8.767  0.7449  0.2062  0.6548
 1019MOL0     H37522   9.582  11.038   8.930 -2.4753  0.9267 -0.0463
 1019MOL0     H37523   9.771  11.150   8.958 -1.3835 -2.0923 -0.6698
 1019MOL0     H37524   9.652  11.279   8.938  2.5885  1.7103  2.0128
 1019MOL0     H37525   9.978  11.318   8.600  0.8040  2.5711 -1.6054
 1019MOL0     H37526  10.210  11.560   8.572 -0.1036  0.7348  2.3078
 1019MOL0     H37527  10.286  11.432   8.674  0.0719 -0.6258  1.1994
 1019MOL0     H37528  10.165  11.401   8.541  1.9492  1.0680 -1.6139
 1019MOL0     H37529  10.488  11.706   8.862 -2.0516 -0.0157 -1.8433
 1019MOL0     H37530  10.636  11.922   8.905 -0.0527 -3.7028 -0.3931
 1019MOL0     H37531  10.427  12.275   8.937  0.7480 -0.1272  0.6932
 1019MOL0     H37532  10.588  12.350   8.931  2.3989 -0.5445 -1.1335
 1019MOL0     H37533  10.439  12.308   8.664 -0.6330  2.4637 -1.0470
 1019MOL0     H37534  10.421  12.447   8.767 -1.5073 -0.9848  1.7326
 1019MOL0     H37535  10.707  12.361   8.710 -0.2631 -0.2320  2.5536
 1019MOL0     H37536  10.636  12.524   8.738  2.2266 -1.3877  1.1319
 1019MOL0     H37537  10.588  12.354   8.490  2.6619 -1.1978  1.0880
 1019MOL0     H37538  10.506  12.506   8.537  1.7074  3.6559  2.2521
 1019MOL0     H37539  10.794  12.490   8.502 -0.1433 -0.1839  2.5915
 1019MOL0     H37540  10.683  12.636   8.501 -1.0933  0.1469 -0.3528
 1019MOL0     H37541  10.570  12.513   8.311 -0.8733 -1.6735  5.2128
 1019MOL0     H37542  10.689  12.638   8.292 -4.6016  0.2602  1.4923
 1019MOL0     H37543  10.729  12.333   8.287  0.4272  1.0024  2.3212
 1019MOL0     H37544  10.859  12.437   8.240  0.4266 -3.1531  1.5338
 1019MOL0     H37545  10.616  12.347   8.085  0.1064 -1.1632 -0.9606
 1019MOL0     H37546  10.780  12.353   8.038 -0.7048  0.1599 -1.3768
 1019MOL0     H37547  10.302  12.152   8.757 -1.8175 -1.7516 -1.7397
 1019MOL0     H37548  10.185  11.959   8.720  1.1703  0.1022 -2.2580
 1019MOL0     H37549   9.979  11.559   9.023 -2.4126 -3.1654  1.3766
 1019MOL0     H37550   9.819  11.405   8.989 -0.4118  2.0029 -0.6175
 1019MOL0     H37551   8.205  11.162   9.293 -0.0367 -0.4328  1.1554
 1019MOL0     H37552   7.965  11.250   9.329 -0.4511  0.8538 -2.3773
 1019MOL0     H37553   7.547  11.253   9.384 -3.8658  0.0454  1.8777
 1019MOL0     H37554   7.330  11.357   9.363  1.0728 -1.1423  1.2469
 1019MOL0     H37555   7.122  11.386   9.338  2.0164  0.8005  0.4731
 1019MOL0     H37556   7.167  11.533   9.255 -1.1336  1.0708  0.6795
 1019MOL0     H37557   6.929  11.506   9.300 -0.6768 -1.2794  0.0935
 1019MOL0     H37558   6.915  11.369   9.200 -1.1635  1.6800 -2.6979
 1019MOL0     H37559   6.945  11.478   8.998  2.3386  0.3721  0.6232
 1019MOL0     H37560   7.018  11.619   9.072  0.1637  0.0880  0.4801
 1019MOL0     H37561   6.796  11.666   9.174  1.4378 -1.1696  0.5070
 1019MOL0     H37562   6.721  11.547   9.068 -1.6772  1.0337  1.6084
 1019MOL0     H37563   6.791  11.855   8.793 -0.7052 -1.9473 -2.3706
 1019MOL0     H37564   7.294  11.212   8.957 -1.2344  1.5296  0.2944
 1019MOL0     H37565   7.514  11.118   8.977 -3.1887 -2.0910 -0.5132
 1020MOL0     O37566   0.076   8.172   5.235 -0.2799  0.6929 -0.1829
 1020MOL0     C37567   0.052   8.288   5.263  0.2286 -0.0508 -0.5680
 1020MOL0     O37568   0.149   8.389   5.262  0.6076  0.9076 -0.0276
 1020MOL0     C37569   0.277   8.347   5.230  0.1299 -0.2810  0.3884
 1020MOL0     C37570   0.362   8.296   5.328 -0.1225  0.3775 -0.4571
 1020MOL0     C37571   0.486   8.238   5.296  0.0818 -0.1471  0.6063
 1020MOL0     C37572   0.518   8.214   5.165  0.8543  0.1246 -0.6663
 1020MOL0     O37573   0.646   8.176   5.127  0.0038  0.0444 -0.6157
 1020MOL0     C37574   0.664   8.108   5.003  0.8133 -0.4831 -0.5631
 1020MOL0     C37575   0.802   8.054   4.992 -0.0911 -0.1332 -0.1661
 1020MOL0     C37576   0.901   8.131   4.910 -0.2374 -0.7208  0.0782
 1020MOL0     C37577   1.044   8.078   4.921 -0.7176  0.1406 -0.5084
 1020MOL0     C37578   1.148   8.193   4.888  0.3138 -0.1423  0.9579
 1020MOL0     C37579   1.123   8.277   4.763  0.3146  0.1432 -0.0428
 1020MOL0     C37580   1.236   8.372   4.764  0.6614 -0.1438 -0.4050
 1020MOL0     C37581   1.222   8.505   4.835  1.0616 -0.4867  0.0328
 1020MOL0     N37582   1.117   8.589   4.798 -0.1980 -0.8210  0.6545
 1020MOL0     C37583   1.110   8.688   4.701  0.1448  0.6044 -0.5306
 1020MOL0     C37584   0.978   8.727   4.713 -1.0776  1.4995 -0.1325
 1020MOL0     C37585   0.913   8.838   4.629  0.2333 -1.1529 -0.0762
 1020MOL0     C37586   0.850   8.956   4.714  0.3643  0.6932 -0.2027
 1020MOL0     C37587   0.734   8.905   4.812  1.1422 -0.4777 -0.0960
 1020MOL0     C37588   0.642   8.798   4.761  1.2409  0.8700  0.3077
 1020MOL0     O37589   0.531   8.822   4.841 -0.2071 -0.2792  0.3482
 1020MOL0     C37590   0.408   8.752   4.839 -0.2064 -0.1825 -0.7872
 1020MOL0     C37591   0.309   8.797   4.934 -0.8296  0.3228  0.4461
 1020MOL0     C37592   0.184   8.735   4.940  0.4654  0.5787  1.1122
 1020MOL0     C37593   0.072   8.789   5.020 -0.2683  0.5823  0.6172
 1020MOL0     C37594   0.157   8.618   4.864  0.5452  0.1678 -0.1532
 1020MOL0     C37595   0.036   8.542   4.858  0.8090 -0.0439 -1.1953
 1020MOL0     O37596  -0.082   8.606   4.826 -0.0368  0.0243  0.1773
 1020MOL0     C37597  -0.209   8.560   4.861 -1.6669  0.0594  0.4000
 1020MOL0     C37598  -0.299   8.636   4.804  0.6327 -0.4348  0.5797
 1020MOL0     C37599  -0.434   8.605   4.811 -0.0043  0.1036 -0.9755
 1020MOL0     C37600  -0.484   8.485   4.874  0.0083 -0.7995 -1.0851
 1020MOL0     O37601  -0.605   8.434   4.869 -0.3850  0.0218 -1.1433
 1020MOL0     C37602  -0.696   8.466   4.763 -0.5983  0.1190  0.1753
 1020MOL0     C37603  -0.818   8.390   4.793  0.2168 -0.2233  0.1350
 1020MOL0     C37604  -0.858   8.368   4.941  0.1777  0.5983  0.4191
 1020MOL0     C37605  -0.817   8.225   4.989  0.2180 -0.1681  0.3285
 1020MOL0     C37606  -0.873   8.183   5.119  0.2392 -0.8688 -0.2109
 1020MOL0     C37607  -0.841   8.296   5.225 -0.2132  0.1658  0.2077
 1020MOL0     C37608  -0.895   8.257   5.368  0.5669  0.8531  0.9242
 1020MOL0     C37609  -1.050   8.246   5.379 -0.5764 -0.1175  0.5845
 1020MOL0    Cl37610  -1.120   8.403   5.318  0.4261 -0.3015  0.0062
 1020MOL0     C37611  -0.381   8.410   4.941 -0.8406 -0.2840  0.2504
 1020MOL0     C37612  -0.244   8.444   4.940  0.3530 -0.7873 -0.6083
 1020MOL0     O37613   0.043   8.429   4.893  0.1203 -0.1834  0.1325
 1020MOL0     C37614   0.261   8.570   4.766  0.8227  0.8051 -0.8456
 1020MOL0     C37615   0.390   8.632   4.758  0.4994  0.5745  1.2086
 1020MOL0     N37616   0.917   8.665   4.822 -0.1792  0.1724  0.3430
 1020MOL0     N37617   1.001   8.588   4.868 -0.7359  0.2521  0.0949
 1020MOL0     C37618   0.434   8.254   5.062  0.8541 -0.5078  0.6143
 1020MOL0     C37619   0.314   8.308   5.094 -0.3466  0.0986 -0.1620
 1020MOL0     C37620  -0.086   8.337   5.296  0.0102  0.2876 -0.3763
 1020MOL0     C37621  -0.204   8.255   5.292 -0.3668 -0.4115 -0.5042
 1020MOL0     C37622  -0.324   8.305   5.322  0.4667  0.2358  0.3350
 1020MOL0     C37623  -0.341   8.441   5.355  0.0160 -0.1475  0.3060
 1020MOL0     O37624  -0.455   8.502   5.403  0.2503  0.4185  0.8077
 1020MOL0     C37625  -0.502   8.630   5.352 -0.5632 -0.6666 -0.0488
 1020MOL0     C37626  -0.644   8.659   5.403 -0.8482 -0.4915  0.5851
 1020MOL0     C37627  -0.664   8.669   5.554 -0.1273  0.6533 -1.2418
 1020MOL0     C37628  -0.595   8.795   5.622  0.0212 -0.5449 -0.5351
 1020MOL0     C37629  -0.626   8.793   5.773 -0.9194 -1.3471  0.7259
 1020MOL0     C37630  -0.641   8.792   5.894  0.2286  0.5599 -0.1897
 1020MOL0     C37631  -0.231   8.526   5.346 -0.0276 -0.0636  1.6990
 1020MOL0     C37632  -0.108   8.477   5.309 -0.0647  0.3833  0.1858
 1020MOL0     H37633   0.325   8.293   5.429 -0.6535  1.4123 -0.6157
 1020MOL0     H37634   0.556   8.218   5.377  1.0863  0.6663 -0.0308
 1020MOL0     H37635   0.587   8.030   5.006  1.2396 -0.8745  1.2568
 1020MOL0     H37636   0.656   8.161   4.908  2.8092  1.3835  0.2270
 1020MOL0     H37637   0.848   8.048   5.091 -2.7933 -0.3647  1.1629
 1020MOL0     H37638   0.785   7.955   4.948  0.0314 -0.1342 -0.2115
 1020MOL0     H37639   0.877   8.137   4.803  0.4675  3.2979 -0.0119
 1020MOL0     H37640   0.906   8.235   4.944  0.8494 -0.7156 -0.0530
 1020MOL0     H37641   1.060   8.042   5.023  0.7995 -2.1197 -1.4434
 1020MOL0     H37642   1.057   7.992   4.854  0.8456 -0.2777  0.2681
 1020MOL0     H37643   1.137   8.259   4.975  0.2889 -0.1063  0.9267
 1020MOL0     H37644   1.250   8.155   4.875  0.8897  1.5499  0.2324
 1020MOL0     H37645   1.127   8.213   4.674  0.1155 -0.0003  0.0501
 1020MOL0     H37646   1.031   8.336   4.757 -0.1361 -0.6607 -1.5405
 1020MOL0     H37647   1.332   8.332   4.798  0.5108  2.0405  3.0828
 1020MOL0     H37648   1.249   8.398   4.658 -0.4798  1.5926 -0.1658
 1020MOL0     H37649   1.316   8.560   4.824  1.5428 -1.5152 -1.2118
 1020MOL0     H37650   1.208   8.472   4.938  1.7019 -0.6779  0.0568
 1020MOL0     H37651   1.189   8.729   4.639  2.3152 -0.8939  1.0828
 1020MOL0     H37652   0.988   8.878   4.561  0.7665 -0.2478  1.0120
 1020MOL0     H37653   0.832   8.787   4.576  0.2693 -1.7488  0.4280
 1020MOL0     H37654   0.804   9.031   4.648 -1.2551 -0.2776 -0.2346
 1020MOL0     H37655   0.930   9.002   4.772  2.1796 -0.4729 -1.6733
 1020MOL0     H37656   0.672   8.990   4.842 -0.3279 -0.8341 -1.9513
 1020MOL0     H37657   0.775   8.869   4.907 -2.7171 -0.8309  1.6027
 1020MOL0     H37658   0.682   8.698   4.778  2.6663  1.2074 -0.9219
 1020MOL0     H37659   0.599   8.794   4.661 -2.6996 -0.5206  1.8412
 1020MOL0     H37660   0.336   8.886   4.991 -0.3498  0.6941 -0.3438
 1020MOL0     H37661   0.089   8.865   5.096  0.0460  0.5968  0.5336
 1020MOL0     H37662   0.002   8.841   4.953 -0.6559 -1.1178 -0.3765
 1020MOL0     H37663   0.025   8.706   5.074  1.4006 -0.4169  0.5982
 1020MOL0     H37664  -0.264   8.726   4.755  2.0704  0.3159  2.8197
 1020MOL0     H37665  -0.505   8.670   4.761  1.0360 -0.0535 -2.7436
 1020MOL0     H37666  -0.710   8.573   4.747  1.3571  0.4511  0.4071
 1020MOL0     H37667  -0.660   8.426   4.668 -2.5960 -0.7393 -0.2670
 1020MOL0     H37668  -0.905   8.439   4.747  0.7676  0.4985 -0.1594
 1020MOL0     H37669  -0.802   8.290   4.750 -0.1564  0.2467 -1.1329
 1020MOL0     H37670  -0.965   8.387   4.944 -0.4427 -2.5177  0.8875
 1020MOL0     H37671  -0.819   8.454   4.996 -1.0167  1.4389 -0.0226
 1020MOL0     H37672  -0.843   8.147   4.917  0.8751  0.6405 -0.8274
 1020MOL0     H37673  -0.709   8.233   5.001  0.7911  1.8702 -4.0612
 1020MOL0     H37674  -0.825   8.091   5.153  1.3091 -1.2179 -2.4661
 1020MOL0     H37675  -0.982   8.173   5.114  0.3349 -1.6042 -0.9014
 1020MOL0     H37676  -0.732   8.299   5.225  0.0024  1.8980 -4.7641
 1020MOL0     H37677  -0.874   8.399   5.209 -0.0250  0.5011  1.8375
 1020MOL0     H37678  -0.871   8.333   5.444  0.1092 -0.3595  2.3191
 1020MOL0     H37679  -0.851   8.164   5.403 -2.7991 -0.4385  2.1336
 1020MOL0     H37680  -1.060   8.233   5.487  4.1340  0.5469  1.3431
 1020MOL0     H37681  -1.099   8.162   5.329 -3.0404  0.7628  1.3758
 1020MOL0     H37682  -0.419   8.329   5.002 -2.8752  2.2184  2.5760
 1020MOL0     H37683  -0.172   8.385   4.996  1.0897 -0.6394 -1.3823
 1020MOL0     H37684   0.253   8.483   4.702  2.8232 -0.7849  0.9092
 1020MOL0     H37685   0.469   8.593   4.695 -1.2055 -1.5339  0.2435
 1020MOL0     H37686   0.455   8.267   4.956 -3.3216 -1.6657 -0.5160
 1020MOL0     H37687   0.245   8.332   5.013  1.8110  1.8915 -1.5942
 1020MOL0     H37688  -0.201   8.149   5.270 -3.1600 -0.7271  0.2638
 1020MOL0     H37689  -0.408   8.236   5.323 -0.8240  1.7340  1.6177
 1020MOL0     H37690  -0.433   8.708   5.386  1.6526 -3.6463  2.9658
 1020MOL0     H37691  -0.498   8.639   5.243  0.4789 -0.5530 -0.0133
 1020MOL0     H37692  -0.701   8.576   5.359 -2.5161  1.6907 -1.6151
 1020MOL0     H37693  -0.669   8.754   5.357 -0.3840 -0.7945 -0.3088
 1020MOL0     H37694  -0.633   8.576   5.602 -1.4036  1.7611  2.0439
 1020MOL0     H37695  -0.772   8.683   5.559  0.0614  1.8441  1.0608
 1020MOL0     H37696  -0.625   8.890   5.578 -0.3206  0.4639  1.7328
 1020MOL0     H37697  -0.487   8.791   5.605 -0.2698 -1.2828 -2.4904
 1020MOL0     H37698  -0.654   8.787   6.000  0.7968 -2.0884 -0.1735
 1020MOL0     H37699  -0.242   8.632   5.365 -2.9078 -0.2372  1.4283
 1020MOL0     H37700  -0.033   8.554   5.313 -1.1964  1.5154  0.2224
 1021MOL0     O37701   6.510   5.329   0.395 -0.7477 -0.5960 -0.4020
 1021MOL0     C37702   6.550   5.419   0.466 -0.4973  0.9869 -0.9420
 1021MOL0     O37703   6.563   5.548   0.433 -0.0586  0.3147  0.6978
 1021MOL0     C37704   6.540   5.591   0.306  0.0039  0.3740  0.9388
 1021MOL0     C37705   6.645   5.623   0.228 -0.1694  0.3002  0.0085
 1021MOL0     C37706   6.616   5.676   0.102  0.1200 -0.0722 -0.0069
 1021MOL0     C37707   6.484   5.713   0.065 -0.7137 -0.3589 -0.2400
 1021MOL0     O37708   6.460   5.782  -0.048 -1.2664  0.6551 -0.6967
 1021MOL0     C37709   6.540   5.769  -0.167  1.8683  0.5305 -0.8785
 1021MOL0     C37710   6.480   5.836  -0.287 -0.6376  0.0187 -0.2191
 1021MOL0     C37711   6.349   5.767  -0.330  0.8359 -0.2549  0.4672
 1021MOL0     C37712   6.293   5.805  -0.453  0.4299 -0.0997  0.0833
 1021MOL0     C37713   6.240   5.950  -0.454  0.3017  0.2481 -0.8715
 1021MOL0     C37714   6.210   5.994  -0.597 -1.1263  0.6455  0.3165
 1021MOL0     C37715   6.161   6.137  -0.584 -0.4749 -0.7997  0.8201
 1021MOL0     C37716   6.273   6.237  -0.561  0.7427  0.6382 -0.3621
 1021MOL0     N37717   6.221   6.376  -0.551 -0.0096  0.2204 -0.2438
 1021MOL0     C37718   6.126   6.428  -0.632 -0.1010 -0.2575 -0.7723
 1021MOL0     C37719   6.109   6.557  -0.592 -0.3773  0.2596  0.3690
 1021MOL0     C37720   6.000   6.644  -0.661  0.1751  0.0728  0.3742
 1021MOL0     C37721   5.859   6.577  -0.653  0.4220 -0.3032  0.4639
 1021MOL0     C37722   5.815   6.542  -0.512  0.3249 -0.2591 -0.5812
 1021MOL0     C37723   5.805   6.663  -0.412  0.5957 -0.0151 -0.2736
 1021MOL0     O37724   5.741   6.617  -0.290 -0.5146 -0.3249  0.1595
 1021MOL0     C37725   5.823   6.572  -0.186  0.3648  0.0186  0.5381
 1021MOL0     C37726   5.963   6.539  -0.190  0.6411 -0.8960  0.4236
 1021MOL0     C37727   6.034   6.505  -0.073  0.4521 -0.1761  1.4241
 1021MOL0     C37728   6.182   6.515  -0.100  0.5427  0.9670  0.0956
 1021MOL0     C37729   5.980   6.511   0.049  0.3690  0.3257 -0.0017
 1021MOL0     C37730   6.050   6.472   0.173  0.5044  0.8132 -0.0025
 1021MOL0     O37731   5.994   6.516   0.288 -0.3970  0.3585  0.3803
 1021MOL0     C37732   6.035   6.464   0.408  0.5001 -0.6535 -0.2180
 1021MOL0     C37733   6.119   6.550   0.489  0.6034  0.4884  1.0993
 1021MOL0     C37734   6.182   6.507   0.606 -0.2433  0.2880  0.7863
 1021MOL0     C37735   6.149   6.378   0.653 -0.1881  0.0307  0.0506
 1021MOL0     O37736   6.195   6.333   0.778 -0.1511  0.4650 -0.1426
 1021MOL0     C37737   6.268   6.206   0.775  0.7466  0.4446  0.7090
 1021MOL0     C37738   6.361   6.191   0.898 -0.3030 -0.4255 -0.5385
 1021MOL0     C37739   6.463   6.308   0.924 -0.0934 -0.0397 -0.0125
 1021MOL0     C37740   6.498   6.329   1.071  0.7117 -0.7141  0.2649
 1021MOL0     C37741   6.618   6.422   1.075 -0.3270  0.2486  0.0007
 1021MOL0     C37742   6.631   6.473   1.220 -0.4608 -0.1460 -0.4537
 1021MOL0     C37743   6.764   6.548   1.235 -0.0548  0.9694 -0.2051
 1021MOL0     C37744   6.796   6.597   1.375  0.3017  0.3633 -0.6559
 1021MOL0    Cl37745   6.679   6.739   1.412 -0.7416  0.6911 -0.1520
 1021MOL0     C37746   6.074   6.291   0.578  0.1688 -0.4136 -0.7328
 1021MOL0     C37747   6.027   6.331   0.454  0.8434 -0.9080 -0.1836
 1021MOL0     O37748   6.146   6.395   0.168  0.1757  0.2680  0.3403
 1021MOL0     C37749   5.840   6.524   0.050  0.7444  0.4643  0.0673
 1021MOL0     C37750   5.759   6.560  -0.060 -0.3563 -0.1764 -0.3915
 1021MOL0     N37751   6.191   6.581  -0.484 -1.0401  0.4330  0.0099
 1021MOL0     N37752   6.257   6.469  -0.456 -0.2919  0.3359  0.0751
 1021MOL0     C37753   6.385   5.699   0.162 -0.1431  0.3463  0.3787
 1021MOL0     C37754   6.407   5.636   0.276 -0.0356  1.0308 -0.0846
 1021MOL0     C37755   6.600   5.392   0.600  0.2147 -0.3815 -0.4129
 1021MOL0     C37756   6.673   5.488   0.667 -0.1145  0.1745  0.4236
 1021MOL0     C37757   6.716   5.462   0.793 -0.6086 -0.5383  0.1546
 1021MOL0     C37758   6.694   5.340   0.856 -0.2117 -0.5107  0.1768
 1021MOL0     O37759   6.745   5.306   0.977  0.0995  0.0275  0.2881
 1021MOL0     C37760   6.860   5.214   0.977  0.0166  0.2593 -0.4760
 1021MOL0     C37761   6.993   5.272   1.015  0.1195 -0.4526  1.4207
 1021MOL0     C37762   6.988   5.323   1.152  0.9701 -0.0106  0.4980
 1021MOL0     C37763   7.116   5.380   1.208  0.0559  0.3327 -0.1770
 1021MOL0     C37764   7.128   5.370   1.357  0.4705  0.1551  0.9509
 1021MOL0     C37765   7.149   5.368   1.476 -0.9784  0.8749  0.0867
 1021MOL0     C37766   6.623   5.238   0.790  1.5268  0.1154 -0.4703
 1021MOL0     C37767   6.570   5.269   0.658  0.0413  1.2997 -0.3589
 1021MOL0     H37768   6.750   5.607   0.251 -0.0788  0.5747 -0.2063
 1021MOL0     H37769   6.702   5.696   0.039 -0.5313 -0.1822 -0.9489
 1021MOL0     H37770   6.636   5.821  -0.161  0.7330  2.8922 -1.9712
 1021MOL0     H37771   6.558   5.663  -0.187  2.6848  0.3980  0.4795
 1021MOL0     H37772   6.458   5.937  -0.251  2.2375  0.7765 -0.3488
 1021MOL0     H37773   6.558   5.837  -0.364 -2.2807  1.5429 -1.9542
 1021MOL0     H37774   6.385   5.666  -0.352  0.8090  0.2717 -2.3266
 1021MOL0     H37775   6.270   5.784  -0.256 -0.5368  3.2963 -1.5963
 1021MOL0     H37776   6.366   5.798  -0.533  1.7167 -3.8140  1.4037
 1021MOL0     H37777   6.212   5.742  -0.490  0.8560 -0.4929 -0.1791
 1021MOL0     H37778   6.160   5.964  -0.382  0.5971 -2.2387  0.0043
 1021MOL0     H37779   6.322   6.015  -0.422 -0.6159  0.8489  0.3384
 1021MOL0     H37780   6.300   5.978  -0.657 -0.2346  0.1244  1.7720
 1021MOL0     H37781   6.145   5.921  -0.646  1.4523 -1.7865  0.2556
 1021MOL0     H37782   6.121   6.167  -0.681  2.3881 -0.7959 -0.4578
 1021MOL0     H37783   6.086   6.148  -0.505 -0.4734  1.1072  0.6042
 1021MOL0     H37784   6.349   6.246  -0.640 -0.1603  0.5039 -1.2601
 1021MOL0     H37785   6.335   6.218  -0.473 -1.6039  1.7041  1.6387
 1021MOL0     H37786   6.064   6.389  -0.712  2.1636 -1.0476 -2.2460
 1021MOL0     H37787   6.004   6.749  -0.631 -0.0998  0.8246 -2.0385
 1021MOL0     H37788   6.030   6.633  -0.765  3.0522  0.0400  1.1173
 1021MOL0     H37789   5.858   6.484  -0.711  0.4461 -1.1257  1.7423
 1021MOL0     H37790   5.787   6.635  -0.712  3.6252  0.9963 -2.5543
 1021MOL0     H37791   5.885   6.464  -0.480  1.4021  0.6306 -0.7491
 1021MOL0     H37792   5.718   6.491  -0.523  0.4519 -0.0853 -2.9482
 1021MOL0     H37793   5.751   6.748  -0.454 -2.1742 -1.4542  0.1208
 1021MOL0     H37794   5.907   6.699  -0.393 -0.2557  1.4389  1.9253
 1021MOL0     H37795   6.011   6.564  -0.284 -2.0500  3.7452 -0.0232
 1021MOL0     H37796   6.246   6.547  -0.017  0.6330 -0.4777  0.6056
 1021MOL0     H37797   6.220   6.422  -0.142  0.7105  0.7591  0.6944
 1021MOL0     H37798   6.205   6.593  -0.173  2.4823 -1.3567 -1.9107
 1021MOL0     H37799   6.130   6.653   0.458  3.3258  0.6301  2.3145
 1021MOL0     H37800   6.245   6.573   0.664 -0.1291  1.0054 -0.1256
 1021MOL0     H37801   6.198   6.121   0.780  2.0882 -0.8050 -0.5931
 1021MOL0     H37802   6.331   6.212   0.686  0.8520  3.8644  0.8894
 1021MOL0     H37803   6.301   6.166   0.986  0.2887  0.5483  0.1592
 1021MOL0     H37804   6.428   6.105   0.892 -0.9667 -1.2095  2.1480
 1021MOL0     H37805   6.440   6.399   0.868  0.2971  0.3890  0.5139
 1021MOL0     H37806   6.543   6.271   0.860 -0.7687  0.0431 -0.9176
 1021MOL0     H37807   6.420   6.381   1.127  1.8634  1.2237  0.1461
 1021MOL0     H37808   6.510   6.228   1.112  0.1636 -2.2458 -2.9706
 1021MOL0     H37809   6.602   6.511   1.013 -0.9466 -0.8388 -1.4561
 1021MOL0     H37810   6.701   6.370   1.027 -1.5739 -1.0807 -0.8000
 1021MOL0     H37811   6.553   6.537   1.262  1.0690  0.4178  1.7237
 1021MOL0     H37812   6.632   6.386   1.286  3.7544 -2.6113 -3.3214
 1021MOL0     H37813   6.749   6.636   1.173 -1.4100  0.6794 -0.3317
 1021MOL0     H37814   6.844   6.484   1.198 -0.0130  0.2499  1.0659
 1021MOL0     H37815   6.899   6.632   1.390  0.8738 -0.5272 -2.2829
 1021MOL0     H37816   6.794   6.528   1.460 -1.3024  2.3769  1.0649
 1021MOL0     H37817   6.041   6.192   0.608  2.0653 -0.8935 -0.1133
 1021MOL0     H37818   5.974   6.253   0.401  0.9489 -1.6306  0.7527
 1021MOL0     H37819   5.788   6.524   0.145  0.6444  0.0920  0.0125
 1021MOL0     H37820   5.651   6.563  -0.059 -0.4544 -2.3597  0.6922
 1021MOL0     H37821   6.284   5.730   0.138  0.2516  2.0400  0.7690
 1021MOL0     H37822   6.325   5.619   0.346  0.2286  2.4989  0.6307
 1021MOL0     H37823   6.687   5.584   0.619 -0.3099 -0.3913 -0.7973
 1021MOL0     H37824   6.786   5.526   0.846 -1.9774  1.1319  0.0171
 1021MOL0     H37825   6.838   5.133   1.048  2.4696 -0.1595 -0.1301
 1021MOL0     H37826   6.874   5.162   0.882 -0.8122 -2.9481  1.0266
 1021MOL0     H37827   6.999   5.355   0.945 -0.4628 -2.2996 -0.9713
 1021MOL0     H37828   7.073   5.198   1.005 -1.3846 -2.0172  0.3331
 1021MOL0     H37829   6.945   5.242   1.213 -0.5575  1.7297  1.8399
 1021MOL0     H37830   6.919   5.408   1.152  1.6583  0.5600 -0.0000
 1021MOL0     H37831   7.123   5.488   1.191 -1.4717  0.9313  2.4609
 1021MOL0     H37832   7.202   5.328   1.164 -1.5837 -2.1337 -0.7140
 1021MOL0     H37833   7.183   5.359   1.577  0.3693  2.1569 -0.2163
 1021MOL0     H37834   6.592   5.153   0.849  1.3903  0.2373 -0.3660
 1021MOL0     H37835   6.507   5.199   0.605 -4.5800  5.0544 -0.5082
 1022MOL0     O37836  10.056   2.397   4.422 -0.7386  0.7399  0.2621
 1022MOL0     C37837  10.158   2.459   4.452 -1.0211  0.5781 -0.3373
 1022MOL0     O37838  10.242   2.421   4.552 -0.4663  0.3953 -0.1845
 1022MOL0     C37839  10.239   2.289   4.598  0.4680  1.7134 -0.1384
 1022MOL0     C37840  10.158   2.187   4.553 -0.8689  0.5808  0.2711
 1022MOL0     C37841  10.153   2.063   4.613 -0.3397 -0.2355 -0.8475
 1022MOL0     C37842  10.243   2.024   4.718  0.0175  0.8688 -0.0650
 1022MOL0     O37843  10.242   1.912   4.792 -0.3857  1.1309  0.0848
 1022MOL0     C37844  10.207   1.795   4.723  0.9313 -0.5130 -0.7021
 1022MOL0     C37845  10.264   1.666   4.781  0.0187 -0.2532  0.3718
 1022MOL0     C37846  10.198   1.548   4.713 -0.0077  0.0645  0.1762
 1022MOL0     C37847  10.301   1.437   4.704 -0.1146 -0.4341  0.6770
 1022MOL0     C37848  10.246   1.309   4.629 -0.3025 -0.3374 -0.3490
 1022MOL0     C37849  10.345   1.194   4.669 -0.3198 -0.1879  0.1346
 1022MOL0     C37850  10.288   1.052   4.651 -0.3062 -0.2564  0.0442
 1022MOL0     C37851  10.381   0.942   4.719 -0.2515 -1.2786  0.1955
 1022MOL0     N37852  10.398   0.952   4.861 -0.2172 -0.2199 -0.3221
 1022MOL0     C37853  10.503   0.903   4.925 -0.0083  1.1715 -0.2327
 1022MOL0     C37854  10.477   0.891   5.053 -0.6547 -0.4455  0.3619
 1022MOL0     C37855  10.579   0.837   5.147  0.3493 -0.5027  0.6378
 1022MOL0     C37856  10.508   0.740   5.246 -0.1815  0.7630 -0.2266
 1022MOL0     C37857  10.434   0.611   5.196  0.3733  0.3238 -0.3438
 1022MOL0     C37858  10.342   0.542   5.312 -0.0583 -0.5472  0.0410
 1022MOL0     O37859  10.433   0.491   5.417  0.0677 -0.1888  0.0018
 1022MOL0     C37860  10.496   0.371   5.404  0.9903 -0.1290  0.1985
 1022MOL0     C37861  10.576   0.340   5.515 -0.9064  1.5162 -0.1313
 1022MOL0     C37862  10.626   0.208   5.527  0.3186  0.1213  0.1569
 1022MOL0     C37863  10.704   0.178   5.652  0.2293  0.4384  0.0781
 1022MOL0     C37864  10.610   0.114   5.422 -0.8863 -0.3072  0.2132
 1022MOL0     C37865  10.652  -0.026   5.426 -1.1302 -0.8736  0.4423
 1022MOL0     O37866  10.677  -0.078   5.545  0.4986 -0.0494 -0.3810
 1022MOL0     C37867  10.695  -0.219   5.545  0.3042 -0.4261  0.8614
 1022MOL0     C37868  10.823  -0.262   5.509 -0.8320 -0.3594  0.0061
 1022MOL0     C37869  10.863  -0.393   5.504 -1.3296 -0.0906 -0.2769
 1022MOL0     C37870  10.769  -0.492   5.521 -0.0838  0.4534 -0.4224
 1022MOL0     O37871  10.794  -0.625   5.502  0.9523 -0.3974 -0.1392
 1022MOL0     C37872  10.921  -0.670   5.510 -0.7091 -0.5875  0.5206
 1022MOL0     C37873  10.919  -0.819   5.546 -0.2053  0.2296  0.2946
 1022MOL0     C37874  10.902  -0.910   5.425 -0.7162  0.2038 -0.2745
 1022MOL0     C37875  10.892  -1.057   5.470 -0.4746 -0.4320  0.5466
 1022MOL0     C37876  10.900  -1.145   5.344 -0.4798  0.2569  0.0628
 1022MOL0     C37877  10.870  -1.296   5.368  0.0332  0.2062 -0.1115
 1022MOL0     C37878  10.928  -1.343   5.495 -0.4565  0.1253  0.1235
 1022MOL0     C37879  10.953  -1.494   5.498 -0.1671  0.1470  0.8283
 1022MOL0    Cl37880  10.806  -1.582   5.446  0.2775  0.3849  0.2007
 1022MOL0     C37881  10.640  -0.449   5.563  0.6097  0.0213 -0.4213
 1022MOL0     C37882  10.604  -0.310   5.567  0.7667  0.7770 -0.9046
 1022MOL0     O37883  10.679  -0.086   5.319 -0.2412 -0.2870  0.2188
 1022MOL0     C37884  10.544   0.156   5.305 -0.7850 -0.2155 -0.2690
 1022MOL0     C37885  10.485   0.277   5.304  0.5923 -0.1437  0.4976
 1022MOL0     N37886  10.342   0.924   5.068  0.8017 -0.2815 -0.5211
 1022MOL0     N37887  10.300   0.958   4.950 -0.7401 -0.1385  0.5516
 1022MOL0     C37888  10.327   2.131   4.760 -0.6394  0.2779  0.3688
 1022MOL0     C37889  10.323   2.255   4.698  0.0976  0.5925 -0.6257
 1022MOL0     C37890  10.172   2.594   4.406  0.4820  0.3874 -0.3422
 1022MOL0     C37891  10.293   2.658   4.417 -0.2420  0.6893 -0.9083
 1022MOL0     C37892  10.313   2.794   4.386 -0.7411  0.7679  0.3430
 1022MOL0     C37893  10.205   2.861   4.317  1.2934  0.1034  0.2696
 1022MOL0     O37894  10.201   2.992   4.278 -0.7715 -0.2857 -0.8419
 1022MOL0     C37895  10.300   3.079   4.331 -0.6108 -0.1591 -1.0742
 1022MOL0     C37896  10.240   3.151   4.447 -0.9700  0.7035 -0.9495
 1022MOL0     C37897  10.127   3.235   4.405 -0.8258  0.0334 -0.3393
 1022MOL0     C37898  10.053   3.315   4.526 -0.7570 -0.1883  0.1305
 1022MOL0     C37899   9.982   3.232   4.621 -0.4650  0.6748  0.8739
 1022MOL0     C37900   9.915   3.159   4.691  0.6139 -0.1746 -0.4480
 1022MOL0     C37901  10.086   2.792   4.292 -0.9050 -0.1608 -0.2931
 1022MOL0     C37902  10.071   2.663   4.334  0.3291  0.7047  0.2945
 1022MOL0     H37903  10.084   2.184   4.473 -1.6536 -2.7612  0.9423
 1022MOL0     H37904  10.093   1.982   4.574 -2.0513  0.8744 -0.6505
 1022MOL0     H37905  10.098   1.785   4.718  0.8752  0.4584 -1.7966
 1022MOL0     H37906  10.235   1.791   4.618  1.9489 -1.5102 -0.4210
 1022MOL0     H37907  10.373   1.668   4.767 -0.1288 -1.3927 -1.2288
 1022MOL0     H37908  10.249   1.671   4.889 -1.2303  1.2028  0.1542
 1022MOL0     H37909  10.114   1.509   4.771  0.1857 -0.8483 -0.1471
 1022MOL0     H37910  10.172   1.587   4.614 -2.8015  2.8465  1.7977
 1022MOL0     H37911  10.391   1.481   4.660 -1.4358 -1.5890 -3.6276
 1022MOL0     H37912  10.326   1.410   4.807  2.8829  3.6830  1.2713
 1022MOL0     H37913  10.148   1.288   4.672  0.5025  0.2306  1.9273
 1022MOL0     H37914  10.249   1.322   4.521  2.6722  0.5439 -0.2647
 1022MOL0     H37915  10.438   1.218   4.617  0.2480  1.0976  1.6650
 1022MOL0     H37916  10.383   1.199   4.772  2.4147 -0.4868 -0.7777
 1022MOL0     H37917  10.188   1.040   4.692 -0.0041 -1.3060  0.5076
 1022MOL0     H37918  10.287   1.033   4.543 -0.3941  2.5158 -0.5170
 1022MOL0     H37919  10.475   0.957   4.664  0.8029 -2.2177  1.6411
 1022MOL0     H37920  10.351   0.844   4.681  2.3384 -1.0021 -3.0569
 1022MOL0     H37921  10.596   0.874   4.878 -1.1964 -2.0882 -0.8470
 1022MOL0     H37922  10.661   0.795   5.088  0.2887 -0.5069  0.5576
 1022MOL0     H37923  10.609   0.933   5.191  1.1850 -0.9015  0.9599
 1022MOL0     H37924  10.440   0.805   5.301  0.2116  0.3462  0.7861
 1022MOL0     H37925  10.575   0.701   5.323 -0.9326 -1.1602 -0.4745
 1022MOL0     H37926  10.500   0.533   5.155 -0.6144  1.0941 -3.6740
 1022MOL0     H37927  10.370   0.637   5.112  3.0896  0.1414 -2.6148
 1022MOL0     H37928  10.282   0.463   5.266  1.1484 -1.2703 -0.3572
 1022MOL0     H37929  10.274   0.621   5.346 -0.2189 -1.8661  3.1216
 1022MOL0     H37930  10.584   0.412   5.596 -0.6183 -0.0202  1.2594
 1022MOL0     H37931  10.800   0.137   5.617  0.1771  1.5967 -1.5507
 1022MOL0     H37932  10.725   0.272   5.704 -0.1566  1.1566 -1.0126
 1022MOL0     H37933  10.654   0.104   5.716  0.9452 -1.5384 -1.5380
 1022MOL0     H37934  10.893  -0.184   5.479 -1.1418 -0.5181 -1.2124
 1022MOL0     H37935  10.965  -0.424   5.482 -0.6003  1.7644  0.2918
 1022MOL0     H37936  10.967  -0.652   5.413  0.7811 -0.8068  1.1536
 1022MOL0     H37937  10.982  -0.615   5.583 -0.7156  1.1160 -0.7165
 1022MOL0     H37938  11.012  -0.847   5.597 -0.2498  0.2313  0.3765
 1022MOL0     H37939  10.838  -0.850   5.613 -0.4970 -1.5962 -0.8681
 1022MOL0     H37940  10.980  -0.911   5.347  0.0916 -1.0151  0.5169
 1022MOL0     H37941  10.806  -0.882   5.382 -3.3972 -4.3564  2.0168
 1022MOL0     H37942  10.968  -1.071   5.548  0.1194 -0.5339 -0.0430
 1022MOL0     H37943  10.793  -1.074   5.511 -0.3821 -0.1314  0.8989
 1022MOL0     H37944  10.994  -1.141   5.289 -1.3105  1.0054 -1.3599
 1022MOL0     H37945  10.821  -1.100   5.282 -1.2267 -0.5399  0.4186
 1022MOL0     H37946  10.762  -1.307   5.363 -0.3733  1.8866  2.6680
 1022MOL0     H37947  10.901  -1.366   5.291 -1.4446  1.3081 -1.7689
 1022MOL0     H37948  10.872  -1.301   5.579 -0.7396  2.8559 -1.2855
 1022MOL0     H37949  11.028  -1.300   5.492 -1.4026  2.5016 -2.2121
 1022MOL0     H37950  10.989  -1.536   5.592 -2.9246 -4.4907  0.1453
 1022MOL0     H37951  11.025  -1.512   5.418 -0.8055 -1.2598  0.5326
 1022MOL0     H37952  10.558  -0.520   5.576  0.9686 -0.5304 -1.1459
 1022MOL0     H37953  10.496  -0.300   5.567  0.0712 -3.5292  2.7807
 1022MOL0     H37954  10.537   0.082   5.226  1.0435  0.4467 -1.0990
 1022MOL0     H37955  10.423   0.303   5.219 -1.6654  2.0786  2.6659
 1022MOL0     H37956  10.400   2.117   4.839 -1.2657  2.4779  1.3984
 1022MOL0     H37957  10.390   2.337   4.722 -1.4646  2.0381 -1.0410
 1022MOL0     H37958  10.373   2.602   4.464 -2.2853  0.5659  2.8930
 1022MOL0     H37959  10.406   2.845   4.411 -1.6870  4.5761 -3.0252
 1022MOL0     H37960  10.395   3.034   4.361 -1.6192 -0.4280  2.0812
 1022MOL0     H37961  10.324   3.155   4.256 -0.3591  1.0804  0.2261
 1022MOL0     H37962  10.321   3.211   4.488  0.4433 -0.4874 -1.9093
 1022MOL0     H37963  10.204   3.086   4.528 -0.0198  1.0245 -0.2572
 1022MOL0     H37964  10.059   3.170   4.349 -0.3545 -0.1405 -0.7166
 1022MOL0     H37965  10.161   3.300   4.324 -0.9053 -1.6991 -1.8317
 1022MOL0     H37966   9.978   3.375   4.473  0.2936  0.8235 -0.2683
 1022MOL0     H37967  10.125   3.372   4.584 -0.3777  0.4458 -0.9241
 1022MOL0     H37968   9.848   3.089   4.737 -1.3988  0.0584 -2.8598
 1022MOL0     H37969  10.009   2.838   4.231 -0.2945  0.3650 -0.6873
 1022MOL0     H37970   9.984   2.605   4.306 -0.9190  2.5821  0.0977
 1023MOL0     O37971   5.038   5.211   8.867  0.0465 -0.2943  0.0121
 1023MOL0     C37972   4.945   5.130   8.893  0.0593  0.7250  0.2512
 1023MOL0     O37973   4.817   5.134   8.839 -0.0633  0.2646  0.0099
 1023MOL0     C37974   4.778   5.230   8.743  0.4416  0.5621  0.6177
 1023MOL0     C37975   4.836   5.362   8.723 -0.4280 -1.0501  0.3098
 1023MOL0     C37976   4.776   5.444   8.628 -0.0821 -0.2894 -0.0774
 1023MOL0     C37977   4.658   5.401   8.552  0.0369  0.4899 -0.1310
 1023MOL0     O37978   4.598   5.498   8.479 -0.4241  0.1821  0.3845
 1023MOL0     C37979   4.576   5.451   8.350  0.5793 -1.0383  0.4002
 1023MOL0     C37980   4.479   5.556   8.292 -0.6545  0.0533 -0.4865
 1023MOL0     C37981   4.556   5.686   8.249 -0.5802 -0.4921  0.7374
 1023MOL0     C37982   4.487   5.780   8.145  0.2422 -0.2839  0.5071
 1023MOL0     C37983   4.378   5.856   8.222  0.4484 -0.3828  1.0508
 1023MOL0     C37984   4.384   6.006   8.199 -0.2108 -0.7536 -0.2673
 1023MOL0     C37985   4.268   6.083   8.268  0.5331  0.8717  0.4796
 1023MOL0     C37986   4.281   6.226   8.237 -0.7060  0.5372  0.5017
 1023MOL0     N37987   4.173   6.301   8.301 -0.0684 -0.0816  0.8176
 1023MOL0     C37988   4.141   6.293   8.431  0.4031 -0.7691 -0.1119
 1023MOL0     C37989   4.019   6.358   8.443 -0.8076 -0.4855  0.0010
 1023MOL0     C37990   3.946   6.386   8.570 -0.4298 -0.3155 -0.1866
 1023MOL0     C37991   3.992   6.525   8.610  0.8614 -0.5256  0.6828
 1023MOL0     C37992   3.957   6.552   8.752 -0.3174  0.0276 -0.5488
 1023MOL0     C37993   4.088   6.561   8.846 -0.0042 -0.3424 -0.1796
 1023MOL0     O37994   4.077   6.451   8.938  0.2771 -0.4702  0.3038
 1023MOL0     C37995   4.161   6.432   9.037 -0.1856  0.4027 -0.4855
 1023MOL0     C37996   4.167   6.307   9.102  0.5324 -0.4522 -0.5591
 1023MOL0     C37997   4.254   6.280   9.202 -0.1645  0.2866  0.0003
 1023MOL0     C37998   4.243   6.135   9.248 -0.2659 -0.1058  0.4531
 1023MOL0     C37999   4.340   6.371   9.256  0.1551 -0.7564 -0.4425
 1023MOL0     C38000   4.433   6.350   9.372 -0.1104 -0.1179 -1.3874
 1023MOL0     O38001   4.474   6.462   9.441 -0.4995  0.5503 -0.3702
 1023MOL0     C38002   4.553   6.460   9.552 -0.4486  0.2027  0.4320
 1023MOL0     C38003   4.532   6.372   9.650  0.2498 -0.6255  0.1376
 1023MOL0     C38004   4.610   6.366   9.764  0.0261 -0.7710 -0.2236
 1023MOL0     C38005   4.723   6.447   9.770  0.0708 -0.5518  1.1528
 1023MOL0     O38006   4.806   6.449   9.877  0.2362 -0.6672  0.0912
 1023MOL0     C38007   4.774   6.365   9.988 -1.0421 -0.1158 -0.6688
 1023MOL0     C38008   4.910   6.347  10.066  0.4182 -0.1191 -0.4418
 1023MOL0     C38009   4.892   6.248  10.183  0.2203 -0.4165 -0.1998
 1023MOL0     C38010   4.778   6.290  10.273 -1.1022  0.3152 -0.2531
 1023MOL0     C38011   4.779   6.201  10.403 -0.8299 -0.1067  0.4605
 1023MOL0     C38012   4.650   6.193  10.471  0.5855 -0.0935 -0.2155
 1023MOL0     C38013   4.637   6.095  10.591 -0.9981 -0.3778  0.0591
 1023MOL0     C38014   4.589   5.955  10.571 -1.7579  0.0112  0.0907
 1023MOL0    Cl38015   4.562   5.890  10.729  0.0057  0.4331  0.3487
 1023MOL0     C38016   4.742   6.548   9.679 -1.0168  0.8433  0.0419
 1023MOL0     C38017   4.657   6.554   9.570 -0.2477 -0.2302  0.9173
 1023MOL0     O38018   4.467   6.238   9.399 -0.5912  0.1061  0.4271
 1023MOL0     C38019   4.339   6.499   9.193 -0.5727  0.2502  0.1482
 1023MOL0     C38020   4.249   6.528   9.086 -0.0499 -0.2354 -0.2308
 1023MOL0     N38021   3.978   6.386   8.315 -0.0624 -0.0400 -1.1558
 1023MOL0     N38022   4.069   6.350   8.229 -0.1073 -0.4093  0.4899
 1023MOL0     C38023   4.602   5.273   8.576  0.0657  0.2365 -0.2173
 1023MOL0     C38024   4.664   5.188   8.668  0.0682 -0.4231  0.6693
 1023MOL0     C38025   4.974   5.020   8.977  0.0614  0.2577  0.0349
 1023MOL0     C38026   5.106   4.991   9.026  0.1948  0.1136  0.0362
 1023MOL0     C38027   5.118   4.888   9.121  0.0179  0.5582  0.0136
 1023MOL0     C38028   5.019   4.805   9.161  0.2833  0.5370  0.4074
 1023MOL0     O38029   5.070   4.704   9.240  1.1749  0.4334  0.2405
 1023MOL0     C38030   4.967   4.605   9.287  0.1760 -0.5057 -0.6946
 1023MOL0     C38031   4.952   4.481   9.201  0.1177  0.4757 -0.1031
 1023MOL0     C38032   4.849   4.495   9.093 -0.0701 -0.3710 -0.9563
 1023MOL0     C38033   4.834   4.362   9.025  0.7008  0.4405  0.0536
 1023MOL0     C38034   4.781   4.387   8.888 -0.2478  0.0931  0.2379
 1023MOL0     C38035   4.757   4.400   8.767 -0.4511 -0.2342 -0.0496
 1023MOL0     C38036   4.894   4.826   9.106 -0.5345 -0.4167  0.0053
 1023MOL0     C38037   4.871   4.934   9.012  0.6425 -0.8758 -0.6653
 1023MOL0     H38038   4.917   5.402   8.784  0.9816 -0.0063 -2.1309
 1023MOL0     H38039   4.806   5.549   8.634 -4.3498  1.0813  0.4974
 1023MOL0     H38040   4.666   5.431   8.291 -0.3546 -1.3190 -0.9669
 1023MOL0     H38041   4.520   5.357   8.357  1.2698 -1.4941  0.0166
 1023MOL0     H38042   4.437   5.504   8.205  2.2241 -1.9422 -0.8056
 1023MOL0     H38043   4.399   5.577   8.363  0.0720 -2.0074  0.9974
 1023MOL0     H38044   4.593   5.745   8.333 -1.6674  0.9030  0.2767
 1023MOL0     H38045   4.638   5.644   8.191 -2.7874 -1.2854 -2.0548
 1023MOL0     H38046   4.563   5.852   8.113  0.6781 -0.0086  2.1138
 1023MOL0     H38047   4.438   5.737   8.057 -1.2842 -1.5935  1.9210
 1023MOL0     H38048   4.281   5.821   8.187  1.0811 -2.1472  0.9747
 1023MOL0     H38049   4.396   5.853   8.329 -1.1913 -2.2565  1.3322
 1023MOL0     H38050   4.483   6.042   8.230 -0.3333 -0.0639 -0.6660
 1023MOL0     H38051   4.370   6.040   8.096  0.4527  1.9333  0.4568
 1023MOL0     H38052   4.169   6.047   8.237 -0.0808  0.2176  2.9357
 1023MOL0     H38053   4.272   6.055   8.374  4.3434 -4.3282 -0.6253
 1023MOL0     H38054   4.282   6.244   8.130 -3.5938 -1.9360 -0.0896
 1023MOL0     H38055   4.381   6.244   8.276  0.1788 -1.6108 -0.6136
 1023MOL0     H38056   4.206   6.254   8.508 -0.2664  0.3478  1.0553
 1023MOL0     H38057   3.843   6.376   8.534 -0.6929 -0.6650  0.6304
 1023MOL0     H38058   3.977   6.317   8.650 -0.0902 -0.5520 -0.5173
 1023MOL0     H38059   3.938   6.598   8.548 -1.8992 -3.8859 -1.1830
 1023MOL0     H38060   4.095   6.560   8.593  1.5043 -0.2977  4.2214
 1023MOL0     H38061   3.885   6.482   8.796  0.7618 -1.0366 -0.3967
 1023MOL0     H38062   3.904   6.647   8.762 -0.5626 -0.3317  2.6227
 1023MOL0     H38063   4.089   6.652   8.908  0.8600 -2.1540  2.6726
 1023MOL0     H38064   4.174   6.543   8.783 -0.5011  1.5077 -1.4752
 1023MOL0     H38065   4.114   6.218   9.070 -0.3999 -0.6619  1.4040
 1023MOL0     H38066   4.168   6.069   9.203 -0.8197  1.9282 -1.8066
 1023MOL0     H38067   4.340   6.095   9.217  0.2593  2.2263 -1.1636
 1023MOL0     H38068   4.223   6.139   9.355 -0.6520 -1.2868  0.4384
 1023MOL0     H38069   4.454   6.298   9.636 -1.2528  0.5397  1.8851
 1023MOL0     H38070   4.587   6.294   9.842  0.6941 -0.3207  0.3931
 1023MOL0     H38071   4.706   6.424  10.051 -1.0018  0.3370 -1.0428
 1023MOL0     H38072   4.741   6.266   9.956 -0.5967 -0.3592 -0.3796
 1023MOL0     H38073   4.983   6.314   9.993 -1.7119 -1.7816 -1.9467
 1023MOL0     H38074   4.941   6.444  10.107  2.2338 -0.8541 -0.0007
 1023MOL0     H38075   4.989   6.239  10.232  0.0450 -0.5569  0.1248
 1023MOL0     H38076   4.885   6.145  10.147 -1.5148  0.4364 -2.5602
 1023MOL0     H38077   4.770   6.394  10.304 -1.4636 -0.2036  1.4665
 1023MOL0     H38078   4.684   6.272  10.220  0.3657  0.7807 -3.2819
 1023MOL0     H38079   4.857   6.236  10.471 -1.1463 -1.8420  1.7572
 1023MOL0     H38080   4.807   6.099  10.375  0.5291 -0.7875  3.8608
 1023MOL0     H38081   4.624   6.294  10.503  0.2548  0.2881 -1.6051
 1023MOL0     H38082   4.566   6.166  10.406 -0.2426 -0.3035  0.9179
 1023MOL0     H38083   4.585   6.140  10.676 -1.4704 -0.4720 -0.1785
 1023MOL0     H38084   4.739   6.088  10.630 -1.0472  3.8442  1.5383
 1023MOL0     H38085   4.675   5.904  10.526  0.9699  0.5387  4.2009
 1023MOL0     H38086   4.502   5.951  10.504 -2.6067  0.4736  1.1517
 1023MOL0     H38087   4.823   6.620   9.688 -1.3741  1.2014  0.4392
 1023MOL0     H38088   4.676   6.613   9.481  0.8347 -4.3673 -1.8819
 1023MOL0     H38089   4.397   6.578   9.238  0.7982 -0.8806  0.4522
 1023MOL0     H38090   4.246   6.633   9.059 -1.5410  0.8338  3.4809
 1023MOL0     H38091   4.510   5.236   8.531  1.6550 -2.8952 -1.2214
 1023MOL0     H38092   4.616   5.097   8.700 -0.1618  0.5097  3.2217
 1023MOL0     H38093   5.182   5.057   8.986 -1.1959  2.2330  0.7347
 1023MOL0     H38094   5.210   4.862   9.172 -0.0404  0.1994 -0.0621
 1023MOL0     H38095   5.014   4.578   9.382 -0.5524 -1.5484 -0.6126
 1023MOL0     H38096   4.875   4.656   9.315  1.8830  0.6732  3.5920
 1023MOL0     H38097   4.918   4.407   9.275  1.2927 -0.8910 -0.8677
 1023MOL0     H38098   5.048   4.446   9.162 -1.4111  0.4929 -4.3365
 1023MOL0     H38099   4.896   4.558   9.016  2.4294  1.5375  1.8844
 1023MOL0     H38100   4.760   4.545   9.130  1.4503  0.2265  2.2505
 1023MOL0     H38101   4.758   4.308   9.083  0.8624  1.3190  1.1138
 1023MOL0     H38102   4.923   4.299   9.021 -0.6310 -1.6955  1.7818
 1023MOL0     H38103   4.717   4.417   8.669  3.4703  3.6952 -1.3168
 1023MOL0     H38104   4.805   4.783   9.150 -0.9189  1.3780  1.1123
 1023MOL0     H38105   4.767   4.936   8.980 -0.0012 -2.8426  1.0443
 1024MOL0     O38106  10.542   5.563   1.083  0.4433 -0.3547  0.3634
 1024MOL0     C38107  10.463   5.632   1.018  0.3158 -0.9517  0.1803
 1024MOL0     O38108  10.340   5.589   0.963 -0.3943 -0.7033  0.3844
 1024MOL0     C38109  10.272   5.477   1.009  1.2347  0.3023 -1.3103
 1024MOL0     C38110  10.317   5.397   1.116  0.6724 -0.1531  0.3135
 1024MOL0     C38111  10.231   5.297   1.160 -0.0081  0.9410 -0.7237
 1024MOL0     C38112  10.110   5.273   1.103 -0.1137 -0.1273 -0.3530
 1024MOL0     O38113  10.032   5.168   1.140  0.4157  0.2956 -0.3817
 1024MOL0     C38114   9.969   5.069   1.049 -1.6033 -0.4501 -0.1618
 1024MOL0     C38115   9.817   5.058   1.077 -0.4411  0.1094  0.8398
 1024MOL0     C38116   9.756   4.934   1.016 -0.1842  0.3367 -0.5610
 1024MOL0     C38117   9.716   4.956   0.874  0.2046  0.4138 -0.0891
 1024MOL0     C38118   9.702   4.819   0.804 -0.1770 -0.6144 -0.5423
 1024MOL0     C38119   9.655   4.840   0.668  1.0094  0.3654  0.4600
 1024MOL0     C38120   9.606   4.708   0.614  0.5288  0.7587  0.5407
 1024MOL0     C38121   9.541   4.720   0.483  1.3997 -0.2499 -0.6229
 1024MOL0     N38122   9.647   4.695   0.383  0.7632  1.4275 -0.3724
 1024MOL0     C38123   9.622   4.596   0.290 -0.0925  0.4326 -0.2588
 1024MOL0     C38124   9.703   4.619   0.192 -0.9503 -0.1988 -0.1103
 1024MOL0     C38125   9.711   4.551   0.047 -0.3326 -0.3700 -1.0235
 1024MOL0     C38126   9.652   4.639  -0.070 -0.4439  0.1900  0.0896
 1024MOL0     C38127   9.512   4.586  -0.108 -0.5689 -0.4212 -0.1304
 1024MOL0     C38128   9.434   4.699  -0.185  1.3479  0.4229 -0.4837
 1024MOL0     O38129   9.302   4.662  -0.211 -0.7032  0.5948  0.1178
 1024MOL0     C38130   9.218   4.737  -0.295 -0.7796  1.2628  0.0182
 1024MOL0     C38131   9.090   4.756  -0.240  0.5345  0.0678  0.2431
 1024MOL0     C38132   9.004   4.844  -0.307 -0.4486 -1.4174 -0.7485
 1024MOL0     C38133   8.861   4.842  -0.243  0.3194 -0.0707  0.4823
 1024MOL0     C38134   9.033   4.908  -0.436 -1.3687  0.7661 -0.4036
 1024MOL0     C38135   8.929   4.977  -0.512  0.2898 -0.1034 -0.6329
 1024MOL0     O38136   8.959   5.004  -0.641 -0.0346  0.9320  0.3587
 1024MOL0     C38137   8.886   5.107  -0.707  0.6962  0.2278  0.3884
 1024MOL0     C38138   8.847   5.086  -0.841  0.0405  0.5360  0.0214
 1024MOL0     C38139   8.805   5.184  -0.929  0.2836 -0.4516 -0.9569
 1024MOL0     C38140   8.779   5.312  -0.872  0.4362 -0.3939  1.6221
 1024MOL0     O38141   8.734   5.412  -0.956 -1.3174 -0.3115 -0.4938
 1024MOL0     C38142   8.673   5.534  -0.903  0.3773  0.4538 -0.1869
 1024MOL0     C38143   8.628   5.616  -1.031 -0.2806 -0.5941  0.3317
 1024MOL0     C38144   8.614   5.773  -1.013  0.5197 -0.1581  1.0961
 1024MOL0     C38145   8.568   5.852  -1.147  0.7854 -0.1125 -0.8865
 1024MOL0     C38146   8.562   5.997  -1.113  0.0463  0.4640 -0.4471
 1024MOL0     C38147   8.496   6.079  -1.217  0.2439 -0.9979 -0.3803
 1024MOL0     C38148   8.478   6.224  -1.176  0.8251 -0.8404 -1.0074
 1024MOL0     C38149   8.386   6.297  -1.273 -0.1050 -0.4744 -0.2139
 1024MOL0    Cl38150   8.371   6.469  -1.238  0.0761  0.2321 -0.4037
 1024MOL0     C38151   8.801   5.336  -0.733 -0.2014  0.3963  0.1226
 1024MOL0     C38152   8.856   5.230  -0.652  0.5207 -0.2116 -0.1297
 1024MOL0     O38153   8.840   5.029  -0.449  0.9817  0.3040 -0.1668
 1024MOL0     C38154   9.167   4.885  -0.481 -0.4360 -0.9079 -0.5128
 1024MOL0     C38155   9.261   4.804  -0.408 -0.1015  0.5136  0.1503
 1024MOL0     N38156   9.781   4.727   0.212  0.1137  0.3095 -1.0831
 1024MOL0     N38157   9.744   4.775   0.331 -0.0718  1.4516  1.2638
 1024MOL0     C38158  10.073   5.338   0.986 -0.2048  0.8218  0.6513
 1024MOL0     C38159  10.151   5.444   0.941  0.3099  0.0906  1.0542
 1024MOL0     C38160  10.498   5.777   1.015  0.8485 -0.1522 -0.3491
 1024MOL0     C38161  10.627   5.822   1.061 -0.5184 -0.5775 -0.5637
 1024MOL0     C38162  10.659   5.959   1.056 -0.4397 -0.2207  0.1548
 1024MOL0     C38163  10.571   6.056   1.010 -0.1248 -0.5608  0.3968
 1024MOL0     O38164  10.607   6.182   0.976  0.3735 -0.1895 -0.2298
 1024MOL0     C38165  10.737   6.235   0.994  0.0398 -0.1984 -0.5095
 1024MOL0     C38166  10.758   6.381   0.937  0.1903  0.8911  1.2038
 1024MOL0     C38167  10.659   6.487   0.975  0.6845 -0.0112  0.0747
 1024MOL0     C38168  10.512   6.455   0.925  0.8202 -0.5977 -0.1034
 1024MOL0     C38169  10.434   6.574   0.915  0.4531 -0.1502 -0.1003
 1024MOL0     C38170  10.369   6.686   0.920 -0.4674  0.5562  0.1066
 1024MOL0     C38171  10.447   6.007   0.961  0.2943 -0.3590  0.1670
 1024MOL0     C38172  10.405   5.872   0.975  0.8551 -1.4039  0.5747
 1024MOL0     H38173  10.413   5.412   1.164  0.1987  5.4671  0.1090
 1024MOL0     H38174  10.260   5.223   1.235 -2.1363 -1.1455 -1.8287
 1024MOL0     H38175   9.981   5.093   0.943 -0.4046 -0.2973 -0.0092
 1024MOL0     H38176  10.015   4.973   1.075 -0.8893  0.2479  1.2753
 1024MOL0     H38177   9.796   5.052   1.185  1.2519  0.3089  1.1988
 1024MOL0     H38178   9.760   5.139   1.030  0.7040  0.8852  0.7437
 1024MOL0     H38179   9.824   4.849   1.020 -1.6183 -0.8130  0.2907
 1024MOL0     H38180   9.670   4.913   1.080 -2.9633  2.7241 -3.2035
 1024MOL0     H38181   9.620   5.008   0.877 -0.7349 -1.2669 -0.0048
 1024MOL0     H38182   9.789   5.013   0.815  0.5514  0.4467  0.3648
 1024MOL0     H38183   9.794   4.762   0.815  0.3076  0.6689  4.6794
 1024MOL0     H38184   9.618   4.766   0.850  1.3966 -1.6528  1.2890
 1024MOL0     H38185   9.563   4.900   0.672  0.0352 -0.9618 -0.7772
 1024MOL0     H38186   9.735   4.881   0.606  0.0787  0.5274 -0.6840
 1024MOL0     H38187   9.692   4.640   0.607  1.0324  1.1039  2.6147
 1024MOL0     H38188   9.526   4.667   0.676  0.5010 -1.9136 -1.1162
 1024MOL0     H38189   9.490   4.815   0.465 -1.2176 -1.3797  0.3212
 1024MOL0     H38190   9.463   4.648   0.455 -1.2272  1.8294  0.9592
 1024MOL0     H38191   9.546   4.519   0.295 -1.1332  1.4868  0.9759
 1024MOL0     H38192   9.814   4.528   0.018  0.6318 -0.4028  2.0865
 1024MOL0     H38193   9.656   4.457   0.045 -2.0121  0.5681 -1.9934
 1024MOL0     H38194   9.718   4.622  -0.156  2.4221 -0.2120  2.2366
 1024MOL0     H38195   9.643   4.744  -0.040 -1.3565  0.5543 -1.3770
 1024MOL0     H38196   9.458   4.575  -0.014  0.8700  1.0734  0.9379
 1024MOL0     H38197   9.510   4.499  -0.174 -1.2364 -0.1202 -0.5190
 1024MOL0     H38198   9.483   4.697  -0.283 -0.3870 -0.8724 -1.3768
 1024MOL0     H38199   9.434   4.798  -0.138  3.0628  0.9391 -1.4719
 1024MOL0     H38200   9.055   4.699  -0.154 -0.5748 -0.2551 -0.4105
 1024MOL0     H38201   8.844   4.769  -0.163 -2.6507  2.4354  2.3322
 1024MOL0     H38202   8.823   4.931  -0.192 -0.9508  0.1933 -0.8746
 1024MOL0     H38203   8.801   4.818  -0.331  3.2471 -0.0652 -1.6549
 1024MOL0     H38204   8.888   4.993  -0.878  2.3220  1.5960 -0.3189
 1024MOL0     H38205   8.775   5.158  -1.030 -0.1768  0.6312 -1.1153
 1024MOL0     H38206   8.587   5.493  -0.849  1.1320 -1.4241 -0.3552
 1024MOL0     H38207   8.741   5.596  -0.844 -0.3467  1.6070 -0.5243
 1024MOL0     H38208   8.709   5.603  -1.102  1.8776  0.4544  2.4471
 1024MOL0     H38209   8.542   5.571  -1.083  1.2361 -3.6637  0.2590
 1024MOL0     H38210   8.702   5.821  -0.971  0.4802  1.0598 -0.1298
 1024MOL0     H38211   8.531   5.793  -0.945 -1.1462 -0.7189 -0.6429
 1024MOL0     H38212   8.649   5.836  -1.219 -0.1365 -0.0235 -1.9717
 1024MOL0     H38213   8.475   5.810  -1.185  0.2689 -0.4875  0.7202
 1024MOL0     H38214   8.665   6.030  -1.102  0.1652  0.3047 -1.0194
 1024MOL0     H38215   8.513   6.006  -1.016 -1.2294 -0.7982 -0.9352
 1024MOL0     H38216   8.554   6.091  -1.309  1.5147  4.5770  0.7610
 1024MOL0     H38217   8.393   6.048  -1.237 -1.1888  2.2878  1.0492
 1024MOL0     H38218   8.572   6.280  -1.183  0.4898 -0.3798 -1.8964
 1024MOL0     H38219   8.424   6.222  -1.081 -2.2449 -2.0680 -2.6570
 1024MOL0     H38220   8.287   6.256  -1.293 -0.0562  0.5994 -3.2589
 1024MOL0     H38221   8.432   6.286  -1.371 -4.6265  2.4242 -3.0688
 1024MOL0     H38222   8.790   5.435  -0.690 -1.3002  0.5147 -0.3822
 1024MOL0     H38223   8.874   5.253  -0.547  0.7328  0.1048 -0.2343
 1024MOL0     H38224   9.199   4.926  -0.577 -0.9986  0.2199 -0.2381
 1024MOL0     H38225   9.359   4.772  -0.442  0.4008  0.8746  1.2084
 1024MOL0     H38226   9.983   5.317   0.930  1.6460  0.6405 -2.5537
 1024MOL0     H38227  10.138   5.501   0.850  4.4486  0.2716  0.3871
 1024MOL0     H38228  10.698   5.744   1.086 -1.8661 -1.4795  0.6512
 1024MOL0     H38229  10.761   5.983   1.085  0.0613  0.3671 -1.9330
 1024MOL0     H38230  10.746   6.224   1.103 -1.9473 -0.5448 -0.3511
 1024MOL0     H38231  10.814   6.171   0.951 -1.0150 -3.6627  2.2645
 1024MOL0     H38232  10.754   6.357   0.830 -2.6946 -1.0523  1.6114
 1024MOL0     H38233  10.858   6.416   0.962  2.1308 -0.8540 -3.1664
 1024MOL0     H38234  10.692   6.580   0.926  1.6138  0.8692  2.2470
 1024MOL0     H38235  10.663   6.512   1.081  1.7046  0.4757 -0.0627
 1024MOL0     H38236  10.455   6.403   1.003  0.8827 -0.7586 -0.1647
 1024MOL0     H38237  10.516   6.393   0.836  3.8736  0.9937 -1.2011
 1024MOL0     H38238  10.313   6.777   0.930 -0.5836  1.0293 -3.5471
 1024MOL0     H38239  10.371   6.080   0.937  1.0371  0.3094 -0.1677
 1024MOL0     H38240  10.312   5.843   0.927 -0.4153  2.4440  0.3572
  11.53602  11.53602  11.53602
